<event>
 5    1  0.3282316E-002  0.1250012E+03  0.7818608E-02  0.1235067E+00
         -4   -1    0    0    0  501 -0.00000000000E+00  0.00000000000E+00  0.43256503206E+02  0.43275142629E+02  0.12700000000E+01 0. -1.
          4   -1    0    0  501    0  0.00000000000E+00 -0.00000000000E+00 -0.90263548695E+02  0.90272482645E+02  0.12700000000E+01 0. -1.
         25    2    1    2    0    0  0.00000000000E+00  0.00000000000E+00 -0.47007045489E+02  0.13354762527E+03  0.12500122356E+03 0.  0.
    9000005    1    3    3    0    0 -0.40468039175E+02 -0.45730627940E+01 -0.74144189349E+02  0.84598675594E+02  0.10000000000E+01 0.  0.
    9000005    1    3    3    0    0  0.40468039175E+02  0.45730627940E+01  0.27137143860E+02  0.48948949681E+02  0.10000000000E+01 0.  0.
<mgrwt>
<rscale>  0 0.12500122E+03</rscale>
<asrwt>0</asrwt>
<pdfrwt beam="2">  1        4 0.13888821E-01 0.12500122E+03</pdfrwt>
<pdfrwt beam="1">  1       -4 0.66569677E-02 0.12500122E+03</pdfrwt>
<totfact> 0.10268491E+04</totfact>
</mgrwt>
</event>
<event>
 5    1  0.3282316E-002  0.1249997E+03  0.7818608E-02  0.1235070E+00
          4   -1    0    0  501    0  0.00000000000E+00  0.00000000000E+00  0.79046874680E+02  0.79057076196E+02  0.12700000000E+01 0. -1.
         -4   -1    0    0    0  501 -0.00000000000E+00 -0.00000000000E+00 -0.49395099404E+02  0.49411423225E+02  0.12700000000E+01 0. -1.
         25    2    1    2    0    0  0.00000000000E+00  0.00000000000E+00  0.29651775277E+02  0.12846849942E+03  0.12499971027E+03 0.  0.
    9000005    1    3    3    0    0 -0.26122533317E+02 -0.16503385691E+02 -0.40999819530E+02  0.51349135219E+02  0.10000000000E+01 0.  0.
    9000005    1    3    3    0    0  0.26122533317E+02  0.16503385691E+02  0.70651594807E+02  0.77119364202E+02  0.10000000000E+01 0.  0.
<mgrwt>
<rscale>  0 0.12499971E+03</rscale>
<asrwt>0</asrwt>
<pdfrwt beam="1">  1        4 0.12163098E-01 0.12499971E+03</pdfrwt>
<pdfrwt beam="2">  1       -4 0.76012866E-02 0.12499971E+03</pdfrwt>
<totfact> 0.10377450E+04</totfact>
</mgrwt>
</event>
<event>
 5    1  0.3282316E-002  0.1250086E+03  0.7818608E-02  0.1235056E+00
         -4   -1    0    0    0  501 -0.00000000000E+00  0.00000000000E+00  0.18759122338E+03  0.18759552231E+03  0.12700000000E+01 0. -1.
          4   -1    0    0  501    0  0.00000000000E+00 -0.00000000000E+00 -0.20802179093E+02  0.20840910610E+02  0.12700000000E+01 0. -1.
         25    2    1    2    0    0  0.00000000000E+00  0.00000000000E+00  0.16678904429E+03  0.20843643292E+03  0.12500864479E+03 0.  0.
    9000005    1    3    3    0    0  0.58185098895E+01  0.22583784757E+02  0.18007226287E+03  0.18157891466E+03  0.10000000000E+01 0.  0.
    9000005    1    3    3    0    0 -0.58185098895E+01 -0.22583784757E+02 -0.13283218584E+02  0.26857518262E+02  0.10000000000E+01 0.  0.
<mgrwt>
<rscale>  0 0.12500864E+03</rscale>
<asrwt>0</asrwt>
<pdfrwt beam="2">  1        4 0.32036454E-02 0.12500864E+03</pdfrwt>
<pdfrwt beam="1">  1       -4 0.28863498E-01 0.12500864E+03</pdfrwt>
<totfact> 0.88714721E+03</totfact>
</mgrwt>
</event>
<event>
 5    1  0.3282316E-002  0.1250004E+03  0.7818608E-02  0.1235069E+00
         -4   -1    0    0    0  501 -0.00000000000E+00  0.00000000000E+00  0.87953696677E+02  0.87962865229E+02  0.12700000000E+01 0. -1.
          4   -1    0    0  501    0  0.00000000000E+00 -0.00000000000E+00 -0.44392312473E+02  0.44410475191E+02  0.12700000000E+01 0. -1.
         25    2    1    2    0    0  0.00000000000E+00  0.00000000000E+00  0.43561384204E+02  0.13237334042E+03  0.12500042824E+03 0.  0.
    9000005    1    3    3    0    0  0.99304261352E+01 -0.37463472202E+02  0.73694109216E+02  0.83270323921E+02  0.10000000000E+01 0.  0.
    9000005    1    3    3    0    0 -0.99304261352E+01  0.37463472202E+02 -0.30132725012E+02  0.49103016499E+02  0.10000000000E+01 0.  0.
<mgrwt>
<rscale>  0 0.12500043E+03</rscale>
<asrwt>0</asrwt>
<pdfrwt beam="2">  1        4 0.68316889E-02 0.12500043E+03</pdfrwt>
<pdfrwt beam="1">  1       -4 0.13533440E-01 0.12500043E+03</pdfrwt>
<totfact> 0.10293637E+04</totfact>
</mgrwt>
</event>
<event>
 5    1  0.3282316E-002  0.1250002E+03  0.7818608E-02  0.1235069E+00
          4   -1    0    0  501    0  0.00000000000E+00  0.00000000000E+00  0.91878493759E+01  0.92752076070E+01  0.12700000000E+01 0.  1.
         -4   -1    0    0    0  501 -0.00000000000E+00 -0.00000000000E+00 -0.42305560997E+03  0.42305751621E+03  0.12700000000E+01 0.  1.
         25    2    1    2    0    0  0.00000000000E+00  0.00000000000E+00 -0.41386776059E+03  0.43233272382E+03  0.12500024332E+03 0.  0.
    9000005    1    3    3    0    0 -0.18285811044E+02  0.55405039326E+02 -0.28436264973E+03  0.29028814276E+03  0.10000000000E+01 0.  0.
    9000005    1    3    3    0    0  0.18285811044E+02 -0.55405039326E+02 -0.12950511086E+03  0.14204458106E+03  0.10000000000E+01 0.  0.
<mgrwt>
<rscale>  0 0.12500024E+03</rscale>
<asrwt>0</asrwt>
<pdfrwt beam="1">  1        4 0.14203821E-02 0.12500024E+03</pdfrwt>
<pdfrwt beam="2">  1       -4 0.65092330E-01 0.12500024E+03</pdfrwt>
<totfact> 0.61524789E+03</totfact>
</mgrwt>
</event>
<event>
 5    1  0.3282316E-002  0.1249714E+03  0.7818608E-02  0.1235114E+00
         -4   -1    0    0    0  501 -0.00000000000E+00  0.00000000000E+00  0.20613830600E+04  0.20613834512E+04  0.12700000000E+01 0.  1.
          4   -1    0    0  501    0  0.00000000000E+00 -0.00000000000E+00 -0.16807776817E+01  0.21066356152E+01  0.12700000000E+01 0.  1.
         25    2    1    2    0    0  0.00000000000E+00  0.00000000000E+00  0.20597022823E+04  0.20634900869E+04  0.12497138341E+03 0.  0.
    9000005    1    3    3    0    0 -0.36174548102E+02  0.23802115003E+02  0.28621519724E+03  0.28947414002E+03  0.10000000000E+01 0.  0.
    9000005    1    3    3    0    0  0.36174548102E+02 -0.23802115003E+02  0.17734870851E+04  0.17740159468E+04  0.10000000000E+01 0.  0.
<mgrwt>
<rscale>  0 0.12497138E+03</rscale>
<asrwt>0</asrwt>
<pdfrwt beam="2">  1        4 0.29136878E-03 0.12497138E+03</pdfrwt>
<pdfrwt beam="1">  1       -4 0.31716951E+00 0.12497138E+03</pdfrwt>
<totfact> 0.90608226E+02</totfact>
</mgrwt>
</event>
<event>
 5    1  0.3282316E-002  0.1249994E+03  0.7818608E-02  0.1235070E+00
          4   -1    0    0  501    0  0.00000000000E+00  0.00000000000E+00  0.31648831695E+02  0.31674302639E+02  0.12700000000E+01 0. -1.
         -4   -1    0    0    0  501 -0.00000000000E+00 -0.00000000000E+00 -0.12334514230E+03  0.12335168028E+03  0.12700000000E+01 0. -1.
         25    2    1    2    0    0  0.00000000000E+00  0.00000000000E+00 -0.91696310601E+02  0.15502598292E+03  0.12499936801E+03 0.  0.
    9000005    1    3    3    0    0 -0.61787203719E+02  0.92745178807E+01 -0.47384857839E+02  0.78421935565E+02  0.10000000000E+01 0.  0.
    9000005    1    3    3    0    0  0.61787203719E+02 -0.92745178807E+01 -0.44311452762E+02  0.76604047355E+02  0.10000000000E+01 0.  0.
<mgrwt>
<rscale>  0 0.12499937E+03</rscale>
<asrwt>0</asrwt>
<pdfrwt beam="1">  1        4 0.48715133E-02 0.12499937E+03</pdfrwt>
<pdfrwt beam="2">  1       -4 0.18978638E-01 0.12499937E+03</pdfrwt>
<totfact> 0.98311796E+03</totfact>
</mgrwt>
</event>
<event>
 5    1  0.3282316E-002  0.1249987E+03  0.7818608E-02  0.1235071E+00
         -4   -1    0    0    0  501 -0.00000000000E+00  0.00000000000E+00  0.38993275241E+02  0.39013951530E+02  0.12700000000E+01 0. -1.
          4   -1    0    0  501    0  0.00000000000E+00 -0.00000000000E+00 -0.10012424938E+03  0.10013230355E+03  0.12700000000E+01 0. -1.
         25    2    1    2    0    0  0.00000000000E+00  0.00000000000E+00 -0.61130974141E+02  0.13914625508E+03  0.12499873721E+03 0.  0.
    9000005    1    3    3    0    0  0.37677849857E+02  0.41848537368E+02 -0.40154766900E+00  0.56321236582E+02  0.10000000000E+01 0.  0.
    9000005    1    3    3    0    0 -0.37677849857E+02 -0.41848537368E+02 -0.60729426472E+02  0.82825018498E+02  0.10000000000E+01 0.  0.
<mgrwt>
<rscale>  0 0.12499874E+03</rscale>
<asrwt>0</asrwt>
<pdfrwt beam="2">  1        4 0.15405941E-01 0.12499874E+03</pdfrwt>
<pdfrwt beam="1">  1       -4 0.60011755E-02 0.12499874E+03</pdfrwt>
<totfact> 0.10151600E+04</totfact>
</mgrwt>
</event>
<event>
 5    1  0.3282316E-002  0.1250032E+03  0.7818608E-02  0.1235064E+00
         -4   -1    0    0    0  501 -0.00000000000E+00  0.00000000000E+00  0.77735948594E+03  0.77736052336E+03  0.12700000000E+01 0. -1.
          4   -1    0    0  501    0  0.00000000000E+00 -0.00000000000E+00 -0.49439830563E+01  0.51044949271E+01  0.12700000000E+01 0. -1.
         25    2    1    2    0    0  0.00000000000E+00  0.00000000000E+00  0.77241550289E+03  0.78246501829E+03  0.12500318296E+03 0.  0.
    9000005    1    3    3    0    0 -0.29875231839E+02  0.84518560867E+01  0.46717567534E+02  0.56102535281E+02  0.10000000000E+01 0.  0.
    9000005    1    3    3    0    0  0.29875231839E+02 -0.84518560867E+01  0.72569793535E+03  0.72636248301E+03  0.10000000000E+01 0.  0.
<mgrwt>
<rscale>  0 0.12500318E+03</rscale>
<asrwt>0</asrwt>
<pdfrwt beam="2">  1        4 0.77304012E-03 0.12500318E+03</pdfrwt>
<pdfrwt beam="1">  1       -4 0.11960612E+00 0.12500318E+03</pdfrwt>
<totfact> 0.39056926E+03</totfact>
</mgrwt>
</event>
<event>
 5    1  0.3282316E-002  0.1249901E+03  0.7818608E-02  0.1235085E+00
          4   -1    0    0  501    0  0.00000000000E+00  0.00000000000E+00  0.30455108417E+02  0.30481576874E+02  0.12700000000E+01 0.  1.
         -4   -1    0    0    0  501 -0.00000000000E+00 -0.00000000000E+00 -0.12815683293E+03  0.12816312546E+03  0.12700000000E+01 0.  1.
         25    2    1    2    0    0  0.00000000000E+00  0.00000000000E+00 -0.97701724513E+02  0.15864470233E+03  0.12499005802E+03 0.  0.
    9000005    1    3    3    0    0 -0.33051988257E+02  0.61485267824E+01 -0.11570586123E+03  0.12049516435E+03  0.10000000000E+01 0.  0.
    9000005    1    3    3    0    0  0.33051988257E+02 -0.61485267824E+01  0.18004136714E+02  0.38149537981E+02  0.10000000000E+01 0.  0.
<mgrwt>
<rscale>  0 0.12499006E+03</rscale>
<asrwt>0</asrwt>
<pdfrwt beam="1">  1        4 0.46879214E-02 0.12499006E+03</pdfrwt>
<pdfrwt beam="2">  1       -4 0.19718956E-01 0.12499006E+03</pdfrwt>
<totfact> 0.97626532E+03</totfact>
</mgrwt>
</event>
<event>
 5    1  0.3282316E-002  0.1249967E+03  0.7818608E-02  0.1235074E+00
         -4   -1    0    0    0  501 -0.00000000000E+00  0.00000000000E+00  0.11591080868E+02  0.11660448349E+02  0.12700000000E+01 0.  1.
          4   -1    0    0  501    0  0.00000000000E+00 -0.00000000000E+00 -0.33591127049E+03  0.33591367126E+03  0.12700000000E+01 0.  1.
         25    2    1    2    0    0  0.00000000000E+00  0.00000000000E+00 -0.32432018962E+03  0.34757411961E+03  0.12499673287E+03 0.  0.
    9000005    1    3    3    0    0  0.51945802320E+02  0.82182503729E+01 -0.25601074388E+03  0.26135877065E+03  0.10000000000E+01 0.  0.
    9000005    1    3    3    0    0 -0.51945802320E+02 -0.82182503729E+01 -0.68309445743E+02  0.86215348956E+02  0.10000000000E+01 0.  0.
<mgrwt>
<rscale>  0 0.12499673E+03</rscale>
<asrwt>0</asrwt>
<pdfrwt beam="2">  1        4 0.51684170E-01 0.12499673E+03</pdfrwt>
<pdfrwt beam="1">  1       -4 0.17887641E-02 0.12499673E+03</pdfrwt>
<totfact> 0.69997324E+03</totfact>
</mgrwt>
</event>
<event>
 5    1  0.3282316E-002  0.1250000E+03  0.7818608E-02  0.1235069E+00
          4   -1    0    0  501    0  0.00000000000E+00  0.00000000000E+00  0.32212536424E+02  0.32237561987E+02  0.12700000000E+01 0. -1.
         -4   -1    0    0    0  501 -0.00000000000E+00 -0.00000000000E+00 -0.12118954024E+03  0.12119619451E+03  0.12700000000E+01 0. -1.
         25    2    1    2    0    0  0.00000000000E+00  0.00000000000E+00 -0.88977003820E+02  0.15343375650E+03  0.12500004170E+03 0.  0.
    9000005    1    3    3    0    0 -0.50020247463E+02 -0.36574363740E+02 -0.34551047847E+02  0.70954098871E+02  0.10000000000E+01 0.  0.
    9000005    1    3    3    0    0  0.50020247463E+02  0.36574363740E+02 -0.54425955973E+02  0.82479657630E+02  0.10000000000E+01 0.  0.
<mgrwt>
<rscale>  0 0.12500004E+03</rscale>
<asrwt>0</asrwt>
<pdfrwt beam="1">  1        4 0.49582118E-02 0.12500004E+03</pdfrwt>
<pdfrwt beam="2">  1       -4 0.18646981E-01 0.12500004E+03</pdfrwt>
<totfact> 0.98623489E+03</totfact>
</mgrwt>
</event>
<event>
 5    1  0.3282316E-002  0.1250027E+03  0.7818608E-02  0.1235065E+00
          4   -1    0    0  501    0  0.00000000000E+00  0.00000000000E+00  0.61147697320E+03  0.61147829206E+03  0.12700000000E+01 0. -1.
         -4   -1    0    0    0  501 -0.00000000000E+00 -0.00000000000E+00 -0.63240383966E+01  0.64502993451E+01  0.12700000000E+01 0. -1.
         25    2    1    2    0    0  0.00000000000E+00  0.00000000000E+00  0.60515293481E+03  0.61792859140E+03  0.12500267824E+03 0.  0.
    9000005    1    3    3    0    0  0.56357464187E+02 -0.25250888050E+02  0.25525301925E+03  0.26261925854E+03  0.10000000000E+01 0.  0.
    9000005    1    3    3    0    0 -0.56357464187E+02  0.25250888050E+02  0.34989991555E+03  0.35530933286E+03  0.10000000000E+01 0.  0.
<mgrwt>
<rscale>  0 0.12500268E+03</rscale>
<asrwt>0</asrwt>
<pdfrwt beam="1">  1        4 0.94083229E-01 0.12500268E+03</pdfrwt>
<pdfrwt beam="2">  1       -4 0.98274246E-03 0.12500268E+03</pdfrwt>
<totfact> 0.47752298E+03</totfact>
</mgrwt>
</event>
<event>
 5    1  0.3282316E-002  0.1249990E+03  0.7818608E-02  0.1235071E+00
          4   -1    0    0  501    0  0.00000000000E+00  0.00000000000E+00  0.44182530402E+03  0.44182712928E+03  0.12700000000E+01 0.  1.
         -4   -1    0    0    0  501 -0.00000000000E+00 -0.00000000000E+00 -0.87935544672E+01  0.88847903840E+01  0.12700000000E+01 0.  1.
         25    2    1    2    0    0  0.00000000000E+00  0.00000000000E+00  0.43303174955E+03  0.45071191966E+03  0.12499895364E+03 0.  0.
    9000005    1    3    3    0    0  0.21566495306E+02 -0.38111580528E+02  0.55764464826E+02  0.70910378841E+02  0.10000000000E+01 0.  0.
    9000005    1    3    3    0    0 -0.21566495306E+02  0.38111580528E+02  0.37726728472E+03  0.37980154082E+03  0.10000000000E+01 0.  0.
<mgrwt>
<rscale>  0 0.12499895E+03</rscale>
<asrwt>0</asrwt>
<pdfrwt beam="1">  1        4 0.67980298E-01 0.12499895E+03</pdfrwt>
<pdfrwt beam="2">  1       -4 0.13600128E-02 0.12499895E+03</pdfrwt>
<totfact> 0.59903540E+03</totfact>
</mgrwt>
</event>
<event>
 5    1  0.3282316E-002  0.1249980E+03  0.7818608E-02  0.1235072E+00
          4   -1    0    0  501    0  0.00000000000E+00  0.00000000000E+00  0.20937429240E+02  0.20975911021E+02  0.12700000000E+01 0. -1.
         -4   -1    0    0    0  501 -0.00000000000E+00 -0.00000000000E+00 -0.18634991946E+03  0.18635424702E+03  0.12700000000E+01 0. -1.
         25    2    1    2    0    0  0.00000000000E+00  0.00000000000E+00 -0.16541249022E+03  0.20733015804E+03  0.12499801003E+03 0.  0.
    9000005    1    3    3    0    0  0.73824114065E+01  0.20139934839E+02  0.14647920353E+02  0.25993817422E+02  0.10000000000E+01 0.  0.
    9000005    1    3    3    0    0 -0.73824114065E+01 -0.20139934839E+02 -0.18006041057E+03  0.18133634062E+03  0.10000000000E+01 0.  0.
<mgrwt>
<rscale>  0 0.12499801E+03</rscale>
<asrwt>0</asrwt>
<pdfrwt beam="1">  1        4 0.32244361E-02 0.12499801E+03</pdfrwt>
<pdfrwt beam="2">  1       -4 0.28672510E-01 0.12499801E+03</pdfrwt>
<totfact> 0.88917723E+03</totfact>
</mgrwt>
</event>
<event>
 5    1  0.3282316E-002  0.1249945E+03  0.7818608E-02  0.1235078E+00
          4   -1    0    0  501    0  0.00000000000E+00  0.00000000000E+00  0.39839056647E+02  0.39859294205E+02  0.12700000000E+01 0. -1.
         -4   -1    0    0    0  501 -0.00000000000E+00 -0.00000000000E+00 -0.97992814779E+02  0.98001044119E+02  0.12700000000E+01 0. -1.
         25    2    1    2    0    0  0.00000000000E+00  0.00000000000E+00 -0.58153758133E+02  0.13786033832E+03  0.12499445307E+03 0.  0.
    9000005    1    3    3    0    0 -0.41981081661E+02  0.83491725697E+01  0.21137207035E+02  0.47748313281E+02  0.10000000000E+01 0.  0.
    9000005    1    3    3    0    0  0.41981081661E+02 -0.83491725697E+01 -0.79290965168E+02  0.90112025042E+02  0.10000000000E+01 0.  0.
<mgrwt>
<rscale>  0 0.12499445E+03</rscale>
<asrwt>0</asrwt>
<pdfrwt beam="1">  1        4 0.61312754E-02 0.12499445E+03</pdfrwt>
<pdfrwt beam="2">  1       -4 0.15078007E-01 0.12499445E+03</pdfrwt>
<totfact> 0.10179398E+04</totfact>
</mgrwt>
</event>
<event>
 5    1  0.3282316E-002  0.1249980E+03  0.7818608E-02  0.1235072E+00
          4   -1    0    0  501    0  0.00000000000E+00  0.00000000000E+00  0.10195011094E+03  0.10195802088E+03  0.12700000000E+01 0. -1.
         -4   -1    0    0    0  501 -0.00000000000E+00 -0.00000000000E+00 -0.38294162650E+02  0.38315216208E+02  0.12700000000E+01 0. -1.
         25    2    1    2    0    0  0.00000000000E+00  0.00000000000E+00  0.63655948291E+02  0.14027323708E+03  0.12499800514E+03 0.  0.
    9000005    1    3    3    0    0 -0.22045624685E+02  0.53990660464E+02  0.57024494526E+02  0.81570791102E+02  0.10000000000E+01 0.  0.
    9000005    1    3    3    0    0  0.22045624685E+02 -0.53990660464E+02  0.66314537642E+01  0.58702445981E+02  0.10000000000E+01 0.  0.
<mgrwt>
<rscale>  0 0.12499801E+03</rscale>
<asrwt>0</asrwt>
<pdfrwt beam="1">  1        4 0.15686861E-01 0.12499801E+03</pdfrwt>
<pdfrwt beam="2">  1       -4 0.58936376E-02 0.12499801E+03</pdfrwt>
<totfact> 0.10128381E+04</totfact>
</mgrwt>
</event>
<event>
 5    1  0.3282316E-002  0.1249958E+03  0.7818608E-02  0.1235076E+00
          4   -1    0    0  501    0  0.00000000000E+00  0.00000000000E+00  0.14357815122E+02  0.14413873702E+02  0.12700000000E+01 0.  1.
         -4   -1    0    0    0  501 -0.00000000000E+00 -0.00000000000E+00 -0.27145845611E+03  0.27146142690E+03  0.12700000000E+01 0.  1.
         25    2    1    2    0    0  0.00000000000E+00  0.00000000000E+00 -0.25710064099E+03  0.28587530060E+03  0.12499579152E+03 0.  0.
    9000005    1    3    3    0    0  0.11431395437E+01  0.34330690946E+02 -0.24794120770E+03  0.25031129735E+03  0.10000000000E+01 0.  0.
    9000005    1    3    3    0    0 -0.11431395437E+01 -0.34330690946E+02 -0.91594332931E+01  0.35564003249E+02  0.10000000000E+01 0.  0.
<mgrwt>
<rscale>  0 0.12499579E+03</rscale>
<asrwt>0</asrwt>
<pdfrwt beam="1">  1        4 0.22134356E-02 0.12499579E+03</pdfrwt>
<pdfrwt beam="2">  1       -4 0.41767376E-01 0.12499579E+03</pdfrwt>
<totfact> 0.77412718E+03</totfact>
</mgrwt>
</event>
<event>
 5    1  0.3282316E-002  0.1250003E+03  0.7818608E-02  0.1235069E+00
          4   -1    0    0  501    0  0.00000000000E+00  0.00000000000E+00  0.65746442103E+01  0.66961814859E+01  0.12700000000E+01 0. -1.
         -4   -1    0    0    0  501 -0.00000000000E+00 -0.00000000000E+00 -0.58857754575E+03  0.58857891591E+03  0.12700000000E+01 0. -1.
         25    2    1    2    0    0  0.00000000000E+00  0.00000000000E+00 -0.58200290154E+03  0.59527509740E+03  0.12500025674E+03 0.  0.
    9000005    1    3    3    0    0  0.32970106020E+02 -0.49926614798E+02 -0.20507440906E+03  0.21362632798E+03  0.10000000000E+01 0.  0.
    9000005    1    3    3    0    0 -0.32970106020E+02  0.49926614798E+02 -0.37692849248E+03  0.38164876941E+03  0.10000000000E+01 0.  0.
<mgrwt>
<rscale>  0 0.12500026E+03</rscale>
<asrwt>0</asrwt>
<pdfrwt beam="1">  1        4 0.10209386E-02 0.12500026E+03</pdfrwt>
<pdfrwt beam="2">  1       -4 0.90559805E-01 0.12500026E+03</pdfrwt>
<totfact> 0.49166964E+03</totfact>
</mgrwt>
</event>
<event>
 5    1  0.3282316E-002  0.1250024E+03  0.7818608E-02  0.1235066E+00
         -4   -1    0    0    0  501 -0.00000000000E+00  0.00000000000E+00  0.48017646834E+03  0.48017814782E+03  0.12700000000E+01 0.  1.
          4   -1    0    0  501    0  0.00000000000E+00 -0.00000000000E+00 -0.80840719702E+01  0.81832218362E+01  0.12700000000E+01 0.  1.
         25    2    1    2    0    0  0.00000000000E+00  0.00000000000E+00  0.47209239637E+03  0.48836136966E+03  0.12500238664E+03 0.  0.
    9000005    1    3    3    0    0  0.43493526319E+02  0.20051065489E+02  0.39288758342E+03  0.39579715167E+03  0.10000000000E+01 0.  0.
    9000005    1    3    3    0    0 -0.43493526319E+02 -0.20051065489E+02  0.79204812946E+02  0.92564217993E+02  0.10000000000E+01 0.  0.
<mgrwt>
<rscale>  0 0.12500239E+03</rscale>
<asrwt>0</asrwt>
<pdfrwt beam="2">  1        4 0.12514596E-02 0.12500239E+03</pdfrwt>
<pdfrwt beam="1">  1       -4 0.73881052E-01 0.12500239E+03</pdfrwt>
<totfact> 0.56775846E+03</totfact>
</mgrwt>
</event>
<event>
 5    1  0.3282316E-002  0.1249983E+03  0.7818608E-02  0.1235072E+00
         -4   -1    0    0    0  501 -0.00000000000E+00  0.00000000000E+00  0.91591578679E+02  0.91600383104E+02  0.12700000000E+01 0.  1.
          4   -1    0    0  501    0  0.00000000000E+00 -0.00000000000E+00 -0.42627084822E+02  0.42645999349E+02  0.12700000000E+01 0.  1.
         25    2    1    2    0    0  0.00000000000E+00  0.00000000000E+00  0.48964493856E+02  0.13424638245E+03  0.12499827816E+03 0.  0.
    9000005    1    3    3    0    0  0.37213324302E+02  0.30786275731E+02 -0.18106622574E+02  0.51589495637E+02  0.10000000000E+01 0.  0.
    9000005    1    3    3    0    0 -0.37213324302E+02 -0.30786275731E+02  0.67071116430E+02  0.82656886817E+02  0.10000000000E+01 0.  0.
<mgrwt>
<rscale>  0 0.12499828E+03</rscale>
<asrwt>0</asrwt>
<pdfrwt beam="2">  1        4 0.65601454E-02 0.12499828E+03</pdfrwt>
<pdfrwt beam="1">  1       -4 0.14093144E-01 0.12499828E+03</pdfrwt>
<totfact> 0.10254378E+04</totfact>
</mgrwt>
</event>
<event>
 5    1  0.3282316E-002  0.1250003E+03  0.7818608E-02  0.1235069E+00
          4   -1    0    0  501    0  0.00000000000E+00  0.00000000000E+00  0.14806105108E+02  0.14860472686E+02  0.12700000000E+01 0. -1.
         -4   -1    0    0    0  501 -0.00000000000E+00 -0.00000000000E+00 -0.26328877963E+03  0.26329184260E+03  0.12700000000E+01 0. -1.
         25    2    1    2    0    0  0.00000000000E+00  0.00000000000E+00 -0.24848267452E+03  0.27815231528E+03  0.12500028384E+03 0.  0.
    9000005    1    3    3    0    0 -0.45050315439E+02 -0.37712570557E+02 -0.17162839790E+03  0.18140858818E+03  0.10000000000E+01 0.  0.
    9000005    1    3    3    0    0  0.45050315439E+02  0.37712570557E+02 -0.76854276616E+02  0.96743727101E+02  0.10000000000E+01 0.  0.
<mgrwt>
<rscale>  0 0.12500028E+03</rscale>
<asrwt>0</asrwt>
<pdfrwt beam="1">  1        4 0.22822802E-02 0.12500028E+03</pdfrwt>
<pdfrwt beam="2">  1       -4 0.40510380E-01 0.12500028E+03</pdfrwt>
<totfact> 0.78423241E+03</totfact>
</mgrwt>
</event>
<event>
 5    1  0.3282316E-002  0.1249991E+03  0.7818608E-02  0.1235071E+00
         -4   -1    0    0    0  501 -0.00000000000E+00  0.00000000000E+00  0.23811268213E+01  0.26986413136E+01  0.12700000000E+01 0. -1.
          4   -1    0    0  501    0  0.00000000000E+00 -0.00000000000E+00 -0.15376233573E+04  0.15376238818E+04  0.12700000000E+01 0. -1.
         25    2    1    2    0    0  0.00000000000E+00  0.00000000000E+00 -0.15352422305E+04  0.15403225231E+04  0.12499907559E+03 0.  0.
    9000005    1    3    3    0    0  0.31299100838E+02 -0.24056378862E+02 -0.17065806348E+03  0.17516711366E+03  0.10000000000E+01 0.  0.
    9000005    1    3    3    0    0 -0.31299100838E+02  0.24056378862E+02 -0.13645841670E+04  0.13651554094E+04  0.10000000000E+01 0.  0.
<mgrwt>
<rscale>  0 0.12499908E+03</rscale>
<asrwt>0</asrwt>
<pdfrwt beam="2">  1        4 0.23658116E+00 0.12499908E+03</pdfrwt>
<pdfrwt beam="1">  1       -4 0.39079297E-03 0.12499908E+03</pdfrwt>
<totfact> 0.17151695E+03</totfact>
</mgrwt>
</event>
<event>
 5    1  0.3282316E-002  0.1250045E+03  0.7818608E-02  0.1235062E+00
         -4   -1    0    0    0  501 -0.00000000000E+00  0.00000000000E+00  0.56065035376E+03  0.56065179217E+03  0.12700000000E+01 0.  1.
          4   -1    0    0  501    0  0.00000000000E+00 -0.00000000000E+00 -0.69085301635E+01  0.70242927772E+01  0.12700000000E+01 0.  1.
         25    2    1    2    0    0  0.00000000000E+00  0.00000000000E+00  0.55374182359E+03  0.56767608495E+03  0.12500452083E+03 0.  0.
    9000005    1    3    3    0    0 -0.23608702926E+02 -0.13463228576E+02  0.53243055433E+03  0.53312468013E+03  0.10000000000E+01 0.  0.
    9000005    1    3    3    0    0  0.23608702926E+02  0.13463228576E+02  0.21311269259E+02  0.34551404819E+02  0.10000000000E+01 0.  0.
<mgrwt>
<rscale>  0 0.12500452E+03</rscale>
<asrwt>0</asrwt>
<pdfrwt beam="2">  1        4 0.10718660E-02 0.12500452E+03</pdfrwt>
<pdfrwt beam="1">  1       -4 0.86262933E-01 0.12500452E+03</pdfrwt>
<totfact> 0.50968632E+03</totfact>
</mgrwt>
</event>
<event>
 5    1  0.3282316E-002  0.1250012E+03  0.7818608E-02  0.1235067E+00
          4   -1    0    0  501    0  0.00000000000E+00  0.00000000000E+00  0.13785013527E+03  0.13785598534E+03  0.12700000000E+01 0.  1.
         -4   -1    0    0    0  501 -0.00000000000E+00 -0.00000000000E+00 -0.28316776251E+02  0.28345241527E+02  0.12700000000E+01 0.  1.
         25    2    1    2    0    0  0.00000000000E+00  0.00000000000E+00  0.10953335902E+03  0.16620122687E+03  0.12500116429E+03 0.  0.
    9000005    1    3    3    0    0  0.22433657556E+02  0.51135113758E+02  0.92072584736E+02  0.10768672021E+03  0.10000000000E+01 0.  0.
    9000005    1    3    3    0    0 -0.22433657556E+02 -0.51135113758E+02  0.17460774284E+02  0.58514506654E+02  0.10000000000E+01 0.  0.
<mgrwt>
<rscale>  0 0.12500116E+03</rscale>
<asrwt>0</asrwt>
<pdfrwt beam="1">  1        4 0.21210353E-01 0.12500116E+03</pdfrwt>
<pdfrwt beam="2">  1       -4 0.43590667E-02 0.12500116E+03</pdfrwt>
<totfact> 0.96157867E+03</totfact>
</mgrwt>
</event>
<event>
 5    1  0.3282316E-002  0.1249810E+03  0.7818608E-02  0.1235099E+00
          4   -1    0    0  501    0  0.00000000000E+00  0.00000000000E+00  0.13241477136E+02  0.13302241042E+02  0.12700000000E+01 0.  1.
         -4   -1    0    0    0  501 -0.00000000000E+00 -0.00000000000E+00 -0.29417409652E+03  0.29417683792E+03  0.12700000000E+01 0.  1.
         25    2    1    2    0    0  0.00000000000E+00  0.00000000000E+00 -0.28093261939E+03  0.30747907896E+03  0.12498098800E+03 0.  0.
    9000005    1    3    3    0    0 -0.54850623681E+02 -0.12974250138E+02 -0.74125531317E+02  0.93126346851E+02  0.10000000000E+01 0.  0.
    9000005    1    3    3    0    0  0.54850623681E+02  0.12974250138E+02 -0.20680708807E+03  0.21435273211E+03  0.10000000000E+01 0.  0.
<mgrwt>
<rscale>  0 0.12498099E+03</rscale>
<asrwt>0</asrwt>
<pdfrwt beam="1">  1        4 0.20420356E-02 0.12498099E+03</pdfrwt>
<pdfrwt beam="2">  1       -4 0.45262433E-01 0.12498099E+03</pdfrwt>
<totfact> 0.74701664E+03</totfact>
</mgrwt>
</event>
<event>
 5    1  0.3282316E-002  0.1249920E+03  0.7818608E-02  0.1235082E+00
          4   -1    0    0  501    0  0.00000000000E+00  0.00000000000E+00  0.17078941549E+02  0.17126095422E+02  0.12700000000E+01 0. -1.
         -4   -1    0    0    0  501 -0.00000000000E+00 -0.00000000000E+00 -0.22832390345E+03  0.22832743547E+03  0.12700000000E+01 0. -1.
         25    2    1    2    0    0  0.00000000000E+00  0.00000000000E+00 -0.21124496190E+03  0.24545353089E+03  0.12499200733E+03 0.  0.
    9000005    1    3    3    0    0 -0.10200607290E+01  0.32950268449E+02 -0.20986784406E+03  0.21244357529E+03  0.10000000000E+01 0.  0.
    9000005    1    3    3    0    0  0.10200607290E+01 -0.32950268449E+02 -0.13771178442E+01  0.33009955594E+02  0.10000000000E+01 0.  0.
<mgrwt>
<rscale>  0 0.12499201E+03</rscale>
<asrwt>0</asrwt>
<pdfrwt beam="1">  1        4 0.26314285E-02 0.12499201E+03</pdfrwt>
<pdfrwt beam="2">  1       -4 0.35130651E-01 0.12499201E+03</pdfrwt>
<totfact> 0.83006591E+03</totfact>
</mgrwt>
</event>
<event>
 5    1  0.3282316E-002  0.1249998E+03  0.7818608E-02  0.1235070E+00
         -4   -1    0    0    0  501 -0.00000000000E+00  0.00000000000E+00  0.29688506677E+03  0.29688778313E+03  0.12700000000E+01 0. -1.
          4   -1    0    0  501    0  0.00000000000E+00 -0.00000000000E+00 -0.13123982180E+02  0.13185287568E+02  0.12700000000E+01 0. -1.
         25    2    1    2    0    0  0.00000000000E+00  0.00000000000E+00  0.28376108459E+03  0.31007307070E+03  0.12499982418E+03 0.  0.
    9000005    1    3    3    0    0 -0.35423716978E+02  0.58718881081E+01  0.15008218309E+02  0.38930263437E+02  0.10000000000E+01 0.  0.
    9000005    1    3    3    0    0  0.35423716978E+02 -0.58718881081E+01  0.26875286628E+03  0.27114280726E+03  0.10000000000E+01 0.  0.
<mgrwt>
<rscale>  0 0.12499982E+03</rscale>
<asrwt>0</asrwt>
<pdfrwt beam="2">  1        4 0.20239991E-02 0.12499982E+03</pdfrwt>
<pdfrwt beam="1">  1       -4 0.45679546E-01 0.12499982E+03</pdfrwt>
<totfact> 0.74352709E+03</totfact>
</mgrwt>
</event>
<event>
 5    1  0.3282316E-002  0.1250020E+03  0.7818608E-02  0.1235066E+00
         -4   -1    0    0    0  501 -0.00000000000E+00  0.00000000000E+00  0.19277389684E+02  0.19319178374E+02  0.12700000000E+01 0. -1.
          4   -1    0    0  501    0  0.00000000000E+00 -0.00000000000E+00 -0.20237700458E+03  0.20238098943E+03  0.12700000000E+01 0. -1.
         25    2    1    2    0    0  0.00000000000E+00  0.00000000000E+00 -0.18309961490E+03  0.22170016781E+03  0.12500198170E+03 0.  0.
    9000005    1    3    3    0    0 -0.20435594732E+02 -0.21208966196E+02  0.62051352393E+01  0.30115402745E+02  0.10000000000E+01 0.  0.
    9000005    1    3    3    0    0  0.20435594732E+02  0.21208966196E+02 -0.18930475014E+03  0.19158476506E+03  0.10000000000E+01 0.  0.
<mgrwt>
<rscale>  0 0.12500198E+03</rscale>
<asrwt>0</asrwt>
<pdfrwt beam="2">  1        4 0.31138443E-01 0.12500198E+03</pdfrwt>
<pdfrwt beam="1">  1       -4 0.29692734E-02 0.12500198E+03</pdfrwt>
<totfact> 0.86596201E+03</totfact>
</mgrwt>
</event>
<event>
 5    1  0.3282316E-002  0.1249949E+03  0.7818608E-02  0.1235077E+00
          4   -1    0    0  501    0  0.00000000000E+00  0.00000000000E+00  0.57582384460E+03  0.57582524511E+03  0.12700000000E+01 0.  1.
         -4   -1    0    0    0  501 -0.00000000000E+00 -0.00000000000E+00 -0.67223391161E+01  0.68412530425E+01  0.12700000000E+01 0.  1.
         25    2    1    2    0    0  0.00000000000E+00  0.00000000000E+00  0.56910150548E+03  0.58266649815E+03  0.12499489801E+03 0.  0.
    9000005    1    3    3    0    0 -0.31942633514E+02  0.13658249659E+02  0.52668313786E+03  0.52782857759E+03  0.10000000000E+01 0.  0.
    9000005    1    3    3    0    0  0.31942633514E+02 -0.13658249659E+02  0.42418367624E+02  0.54837920561E+02  0.10000000000E+01 0.  0.
<mgrwt>
<rscale>  0 0.12499490E+03</rscale>
<asrwt>0</asrwt>
<pdfrwt beam="1">  1        4 0.88597518E-01 0.12499490E+03</pdfrwt>
<pdfrwt beam="2">  1       -4 0.10434612E-02 0.12499490E+03</pdfrwt>
<totfact> 0.49985958E+03</totfact>
</mgrwt>
</event>
<event>
 5    1  0.3282316E-002  0.1250015E+03  0.7818608E-02  0.1235067E+00
         -4   -1    0    0    0  501 -0.00000000000E+00  0.00000000000E+00  0.14455244763E+03  0.14455802647E+03  0.12700000000E+01 0. -1.
          4   -1    0    0  501    0  0.00000000000E+00 -0.00000000000E+00 -0.27002672723E+02  0.27032521787E+02  0.12700000000E+01 0. -1.
         25    2    1    2    0    0  0.00000000000E+00  0.00000000000E+00  0.11754977491E+03  0.17159054825E+03  0.12500146667E+03 0.  0.
    9000005    1    3    3    0    0  0.29236386441E+02  0.51074856225E+02  0.29917489050E+02  0.66026232526E+02  0.10000000000E+01 0.  0.
    9000005    1    3    3    0    0 -0.29236386441E+02 -0.51074856225E+02  0.87632285856E+02  0.10556431573E+03  0.10000000000E+01 0.  0.
<mgrwt>
<rscale>  0 0.12500147E+03</rscale>
<asrwt>0</asrwt>
<pdfrwt beam="2">  1        4 0.41569825E-02 0.12500147E+03</pdfrwt>
<pdfrwt beam="1">  1       -4 0.22241564E-01 0.12500147E+03</pdfrwt>
<totfact> 0.95149876E+03</totfact>
</mgrwt>
</event>
<event>
 5    1  0.3282316E-002  0.1249995E+03  0.7818608E-02  0.1235070E+00
          4   -1    0    0  501    0  0.00000000000E+00  0.00000000000E+00  0.10790982661E+03  0.10791729972E+03  0.12700000000E+01 0. -1.
         -4   -1    0    0    0  501 -0.00000000000E+00 -0.00000000000E+00 -0.36179044088E+02  0.36201327753E+02  0.12700000000E+01 0. -1.
         25    2    1    2    0    0  0.00000000000E+00  0.00000000000E+00  0.71730782523E+02  0.14411862748E+03  0.12499949449E+03 0.  0.
    9000005    1    3    3    0    0 -0.80748988102E+00  0.10736896807E+01  0.10789882936E+03  0.10791182616E+03  0.10000000000E+01 0.  0.
    9000005    1    3    3    0    0  0.80748988102E+00 -0.10736896807E+01 -0.36168046833E+02  0.36206801311E+02  0.10000000000E+01 0.  0.
<mgrwt>
<rscale>  0 0.12499949E+03</rscale>
<asrwt>0</asrwt>
<pdfrwt beam="1">  1        4 0.16603800E-01 0.12499949E+03</pdfrwt>
<pdfrwt beam="2">  1       -4 0.55682960E-02 0.12499949E+03</pdfrwt>
<totfact> 0.10049041E+04</totfact>
</mgrwt>
</event>
<event>
 5    1  0.3282316E-002  0.1249980E+03  0.7818608E-02  0.1235072E+00
          4   -1    0    0  501    0  0.00000000000E+00  0.00000000000E+00  0.25348005255E+02  0.25379800441E+02  0.12700000000E+01 0.  1.
         -4   -1    0    0    0  501 -0.00000000000E+00 -0.00000000000E+00 -0.15396890146E+03  0.15397413912E+03  0.12700000000E+01 0.  1.
         25    2    1    2    0    0  0.00000000000E+00  0.00000000000E+00 -0.12862089621E+03  0.17935393956E+03  0.12499800276E+03 0.  0.
    9000005    1    3    3    0    0  0.60786982362E+02 -0.89800085377E+01 -0.47986659847E+02  0.77970618193E+02  0.10000000000E+01 0.  0.
    9000005    1    3    3    0    0 -0.60786982362E+02  0.89800085377E+01 -0.80634236359E+02  0.10138332137E+03  0.10000000000E+01 0.  0.
<mgrwt>
<rscale>  0 0.12499800E+03</rscale>
<asrwt>0</asrwt>
<pdfrwt beam="1">  1        4 0.39025419E-02 0.12499800E+03</pdfrwt>
<pdfrwt beam="2">  1       -4 0.23690371E-01 0.12499800E+03</pdfrwt>
<totfact> 0.93737624E+03</totfact>
</mgrwt>
</event>
<event>
 5    1  0.3282316E-002  0.1250011E+03  0.7818608E-02  0.1235068E+00
          4   -1    0    0  501    0  0.00000000000E+00  0.00000000000E+00  0.75244811039E+02  0.75255527958E+02  0.12700000000E+01 0. -1.
         -4   -1    0    0    0  501 -0.00000000000E+00 -0.00000000000E+00 -0.51892590788E+02  0.51908129216E+02  0.12700000000E+01 0. -1.
         25    2    1    2    0    0  0.00000000000E+00  0.00000000000E+00  0.23352220251E+02  0.12716365717E+03  0.12500107806E+03 0.  0.
    9000005    1    3    3    0    0 -0.15844417328E+02 -0.58504317908E+02 -0.38027980219E+01  0.60739295742E+02  0.10000000000E+01 0.  0.
    9000005    1    3    3    0    0  0.15844417328E+02  0.58504317908E+02  0.27155018273E+02  0.66424361433E+02  0.10000000000E+01 0.  0.
<mgrwt>
<rscale>  0 0.12500108E+03</rscale>
<asrwt>0</asrwt>
<pdfrwt beam="1">  1        4 0.11578144E-01 0.12500108E+03</pdfrwt>
<pdfrwt beam="2">  1       -4 0.79854952E-02 0.12500108E+03</pdfrwt>
<totfact> 0.10405339E+04</totfact>
</mgrwt>
</event>
<event>
 5    1  0.3282316E-002  0.1249981E+03  0.7818608E-02  0.1235072E+00
         -4   -1    0    0    0  501 -0.00000000000E+00  0.00000000000E+00  0.34579047578E+03  0.34579280797E+03  0.12700000000E+01 0. -1.
          4   -1    0    0  501    0  0.00000000000E+00 -0.00000000000E+00 -0.11258167832E+02  0.11329573820E+02  0.12700000000E+01 0. -1.
         25    2    1    2    0    0  0.00000000000E+00  0.00000000000E+00  0.33453230795E+03  0.35712238179E+03  0.12499812203E+03 0.  0.
    9000005    1    3    3    0    0  0.60738167622E+02 -0.73186841468E+01  0.20367995926E+03  0.21267161059E+03  0.10000000000E+01 0.  0.
    9000005    1    3    3    0    0 -0.60738167622E+02  0.73186841468E+01  0.13085234868E+03  0.14445077120E+03  0.10000000000E+01 0.  0.
<mgrwt>
<rscale>  0 0.12499812E+03</rscale>
<asrwt>0</asrwt>
<pdfrwt beam="2">  1        4 0.17376982E-02 0.12499812E+03</pdfrwt>
<pdfrwt beam="1">  1       -4 0.53204199E-01 0.12499812E+03</pdfrwt>
<totfact> 0.68950917E+03</totfact>
</mgrwt>
</event>
<event>
 5    1  0.3282316E-002  0.1250112E+03  0.7818608E-02  0.1235052E+00
          4   -1    0    0  501    0  0.00000000000E+00  0.00000000000E+00  0.14119804004E+02  0.14176803769E+02  0.12700000000E+01 0. -1.
         -4   -1    0    0    0  501 -0.00000000000E+00 -0.00000000000E+00 -0.27608409621E+03  0.27608701723E+03  0.12700000000E+01 0. -1.
         25    2    1    2    0    0  0.00000000000E+00  0.00000000000E+00 -0.26196429221E+03  0.29026382100E+03  0.12501118105E+03 0.  0.
    9000005    1    3    3    0    0  0.29887251574E+02 -0.45488393688E+02 -0.59661276238E+02  0.80764532125E+02  0.10000000000E+01 0.  0.
    9000005    1    3    3    0    0 -0.29887251574E+02  0.45488393688E+02 -0.20230301597E+03  0.20949928887E+03  0.10000000000E+01 0.  0.
<mgrwt>
<rscale>  0 0.12501118E+03</rscale>
<asrwt>0</asrwt>
<pdfrwt beam="1">  1        4 0.21768870E-02 0.12501118E+03</pdfrwt>
<pdfrwt beam="2">  1       -4 0.42479082E-01 0.12501118E+03</pdfrwt>
<totfact> 0.76817507E+03</totfact>
</mgrwt>
</event>
<event>
 5    1  0.3282316E-002  0.1249980E+03  0.7818608E-02  0.1235072E+00
          4   -1    0    0  501    0  0.00000000000E+00  0.00000000000E+00  0.48506462111E+03  0.48506628367E+03  0.12700000000E+01 0. -1.
         -4   -1    0    0    0  501 -0.00000000000E+00 -0.00000000000E+00 -0.80010270032E+01  0.81011933137E+01  0.12700000000E+01 0. -1.
         25    2    1    2    0    0  0.00000000000E+00  0.00000000000E+00  0.47706359411E+03  0.49316747699E+03  0.12499795011E+03 0.  0.
    9000005    1    3    3    0    0 -0.55569675725E+02  0.16931758040E+02  0.32940026129E+03  0.33448498535E+03  0.10000000000E+01 0.  0.
    9000005    1    3    3    0    0  0.55569675725E+02 -0.16931758040E+02  0.14766333282E+03  0.15868249163E+03  0.10000000000E+01 0.  0.
<mgrwt>
<rscale>  0 0.12499795E+03</rscale>
<asrwt>0</asrwt>
<pdfrwt beam="1">  1        4 0.74633183E-01 0.12499795E+03</pdfrwt>
<pdfrwt beam="2">  1       -4 0.12387598E-02 0.12499795E+03</pdfrwt>
<totfact> 0.56400940E+03</totfact>
</mgrwt>
</event>
<event>
 5    1  0.3282316E-002  0.1249860E+03  0.7818608E-02  0.1235091E+00
         -4   -1    0    0    0  501 -0.00000000000E+00  0.00000000000E+00  0.45570376305E+02  0.45588069674E+02  0.12700000000E+01 0.  1.
          4   -1    0    0  501    0  0.00000000000E+00 -0.00000000000E+00 -0.85660785470E+02  0.85670199413E+02  0.12700000000E+01 0.  1.
         25    2    1    2    0    0  0.00000000000E+00  0.00000000000E+00 -0.40090409165E+02  0.13125826909E+03  0.12498596840E+03 0.  0.
    9000005    1    3    3    0    0  0.39902091607E+02 -0.16756409857E+02  0.27287918057E+02  0.51172108202E+02  0.10000000000E+01 0.  0.
    9000005    1    3    3    0    0 -0.39902091607E+02  0.16756409857E+02 -0.67378327222E+02  0.80086160885E+02  0.10000000000E+01 0.  0.
<mgrwt>
<rscale>  0 0.12498597E+03</rscale>
<asrwt>0</asrwt>
<pdfrwt beam="2">  1        4 0.13180667E-01 0.12498597E+03</pdfrwt>
<pdfrwt beam="1">  1       -4 0.70129123E-02 0.12498597E+03</pdfrwt>
<totfact> 0.10320822E+04</totfact>
</mgrwt>
</event>
<event>
 5    1  0.3282316E-002  0.1250010E+03  0.7818608E-02  0.1235068E+00
          4   -1    0    0  501    0  0.00000000000E+00  0.00000000000E+00  0.66607961624E+03  0.66608082698E+03  0.12700000000E+01 0.  1.
         -4   -1    0    0    0  501 -0.00000000000E+00 -0.00000000000E+00 -0.57946490204E+01  0.59321882362E+01  0.12700000000E+01 0.  1.
         25    2    1    2    0    0  0.00000000000E+00  0.00000000000E+00  0.66028496722E+03  0.67201301522E+03  0.12500101873E+03 0.  0.
    9000005    1    3    3    0    0  0.30078016110E+02  0.52451385939E+02  0.41505679557E+03  0.41943888529E+03  0.10000000000E+01 0.  0.
    9000005    1    3    3    0    0 -0.30078016110E+02 -0.52451385939E+02  0.24522817165E+03  0.25257412993E+03  0.10000000000E+01 0.  0.
<mgrwt>
<rscale>  0 0.12500102E+03</rscale>
<asrwt>0</asrwt>
<pdfrwt beam="1">  1        4 0.10248441E+00 0.12500102E+03</pdfrwt>
<pdfrwt beam="2">  1       -4 0.90215798E-03 0.12500102E+03</pdfrwt>
<totfact> 0.44604852E+03</totfact>
</mgrwt>
</event>
<event>
 5    1  0.3282316E-002  0.1250000E+03  0.7818608E-02  0.1235069E+00
         -4   -1    0    0    0  501 -0.00000000000E+00  0.00000000000E+00  0.22091261139E+03  0.22091626190E+03  0.12700000000E+01 0.  1.
          4   -1    0    0  501    0  0.00000000000E+00 -0.00000000000E+00 -0.17655722777E+02  0.17701340254E+02  0.12700000000E+01 0.  1.
         25    2    1    2    0    0  0.00000000000E+00  0.00000000000E+00  0.20325688861E+03  0.23861760215E+03  0.12499998915E+03 0.  0.
    9000005    1    3    3    0    0  0.28454956935E+02  0.89223571070E+01 -0.32062476760E+01  0.30009549391E+02  0.10000000000E+01 0.  0.
    9000005    1    3    3    0    0 -0.28454956935E+02 -0.89223571070E+01  0.20646313629E+03  0.20860805276E+03  0.10000000000E+01 0.  0.
<mgrwt>
<rscale>  0 0.12499999E+03</rscale>
<asrwt>0</asrwt>
<pdfrwt beam="2">  1        4 0.27200549E-02 0.12499999E+03</pdfrwt>
<pdfrwt beam="1">  1       -4 0.33990345E-01 0.12499999E+03</pdfrwt>
<totfact> 0.84003702E+03</totfact>
</mgrwt>
</event>
<event>
 5    1  0.3282316E-002  0.1250094E+03  0.7818608E-02  0.1235055E+00
         -4   -1    0    0    0  501 -0.00000000000E+00  0.00000000000E+00  0.75043690331E+01  0.76110744698E+01  0.12700000000E+01 0.  1.
          4   -1    0    0  501    0  0.00000000000E+00 -0.00000000000E+00 -0.51682614971E+03  0.51682771009E+03  0.12700000000E+01 0.  1.
         25    2    1    2    0    0  0.00000000000E+00  0.00000000000E+00 -0.50932178067E+03  0.52443878456E+03  0.12500944959E+03 0.  0.
    9000005    1    3    3    0    0 -0.37429813727E+02  0.49737669035E+02 -0.27802399011E+03  0.28490904821E+03  0.10000000000E+01 0.  0.
    9000005    1    3    3    0    0  0.37429813727E+02 -0.49737669035E+02 -0.23129779057E+03  0.23952973635E+03  0.10000000000E+01 0.  0.
<mgrwt>
<rscale>  0 0.12500945E+03</rscale>
<asrwt>0</asrwt>
<pdfrwt beam="2">  1        4 0.79520016E-01 0.12500945E+03</pdfrwt>
<pdfrwt beam="1">  1       -4 0.11628469E-02 0.12500945E+03</pdfrwt>
<totfact> 0.54005650E+03</totfact>
</mgrwt>
</event>
<event>
 5    1  0.3282316E-002  0.1249817E+03  0.7818608E-02  0.1235098E+00
          4   -1    0    0  501    0  0.00000000000E+00  0.00000000000E+00  0.38697277806E+02  0.38718112164E+02  0.12700000000E+01 0.  1.
         -4   -1    0    0    0  501 -0.00000000000E+00 -0.00000000000E+00 -0.10086222421E+03  0.10087021945E+03  0.12700000000E+01 0.  1.
         25    2    1    2    0    0  0.00000000000E+00  0.00000000000E+00 -0.62164946401E+02  0.13958833161E+03  0.12498168571E+03 0.  0.
    9000005    1    3    3    0    0 -0.38193779011E+02  0.37184550174E+02 -0.67490558851E+02  0.86008319719E+02  0.10000000000E+01 0.  0.
    9000005    1    3    3    0    0  0.38193779011E+02 -0.37184550174E+02  0.53256124495E+01  0.53580011896E+02  0.10000000000E+01 0.  0.
<mgrwt>
<rscale>  0 0.12498169E+03</rscale>
<asrwt>0</asrwt>
<pdfrwt beam="1">  1        4 0.59556451E-02 0.12498169E+03</pdfrwt>
<pdfrwt beam="2">  1       -4 0.15519483E-01 0.12498169E+03</pdfrwt>
<totfact> 0.10146311E+04</totfact>
</mgrwt>
</event>
<event>
 5    1  0.3282316E-002  0.1249568E+03  0.7818608E-02  0.1235137E+00
         -4   -1    0    0    0  501 -0.00000000000E+00  0.00000000000E+00  0.64042476150E+01  0.65289576131E+01  0.12700000000E+01 0.  1.
          4   -1    0    0  501    0  0.00000000000E+00 -0.00000000000E+00 -0.60352253929E+03  0.60352387553E+03  0.12700000000E+01 0.  1.
         25    2    1    2    0    0  0.00000000000E+00  0.00000000000E+00 -0.59711829167E+03  0.61005283314E+03  0.12495681242E+03 0.  0.
    9000005    1    3    3    0    0  0.45099359481E+02 -0.10603777536E+01 -0.50953602506E+03  0.51153009438E+03  0.10000000000E+01 0.  0.
    9000005    1    3    3    0    0 -0.45099359481E+02  0.10603777536E+01 -0.87582266616E+02  0.98522738757E+02  0.10000000000E+01 0.  0.
<mgrwt>
<rscale>  0 0.12495681E+03</rscale>
<asrwt>0</asrwt>
<pdfrwt beam="2">  1        4 0.92859273E-01 0.12495681E+03</pdfrwt>
<pdfrwt beam="1">  1       -4 0.99496520E-03 0.12495681E+03</pdfrwt>
<totfact> 0.48284850E+03</totfact>
</mgrwt>
</event>
<event>
 5    1  0.3282316E-002  0.1250010E+03  0.7818608E-02  0.1235068E+00
          4   -1    0    0  501    0  0.00000000000E+00  0.00000000000E+00  0.68759790234E+01  0.69922805672E+01  0.12700000000E+01 0. -1.
         -4   -1    0    0    0  501 -0.00000000000E+00 -0.00000000000E+00 -0.56322906439E+03  0.56323049622E+03  0.12700000000E+01 0. -1.
         25    2    1    2    0    0  0.00000000000E+00  0.00000000000E+00 -0.55635308536E+03  0.57022277678E+03  0.12500103828E+03 0.  0.
    9000005    1    3    3    0    0 -0.22019905967E+02  0.58150938748E+02 -0.24972246119E+03  0.25734940365E+03  0.10000000000E+01 0.  0.
    9000005    1    3    3    0    0  0.22019905967E+02 -0.58150938748E+02 -0.30663062417E+03  0.31287337313E+03  0.10000000000E+01 0.  0.
<mgrwt>
<rscale>  0 0.12500104E+03</rscale>
<asrwt>0</asrwt>
<pdfrwt beam="1">  1        4 0.10668998E-02 0.12500104E+03</pdfrwt>
<pdfrwt beam="2">  1       -4 0.86659646E-01 0.12500104E+03</pdfrwt>
<totfact> 0.50801706E+03</totfact>
</mgrwt>
</event>
<event>
 5    1  0.3282316E-002  0.1250004E+03  0.7818608E-02  0.1235069E+00
          4   -1    0    0  501    0  0.00000000000E+00  0.00000000000E+00  0.70522694594E+01  0.71657103297E+01  0.12700000000E+01 0. -1.
         -4   -1    0    0    0  501 -0.00000000000E+00 -0.00000000000E+00 -0.54936969890E+03  0.54937116685E+03  0.12700000000E+01 0. -1.
         25    2    1    2    0    0  0.00000000000E+00  0.00000000000E+00 -0.54231742944E+03  0.55653687718E+03  0.12500040556E+03 0.  0.
    9000005    1    3    3    0    0 -0.58798769170E+02 -0.20732709906E+02 -0.29011875628E+03  0.29674405346E+03  0.10000000000E+01 0.  0.
    9000005    1    3    3    0    0  0.58798769170E+02  0.20732709906E+02 -0.25219867316E+03  0.25979282373E+03  0.10000000000E+01 0.  0.
<mgrwt>
<rscale>  0 0.12500041E+03</rscale>
<asrwt>0</asrwt>
<pdfrwt beam="1">  1        4 0.10938041E-02 0.12500041E+03</pdfrwt>
<pdfrwt beam="2">  1       -4 0.84527221E-01 0.12500041E+03</pdfrwt>
<totfact> 0.51730876E+03</totfact>
</mgrwt>
</event>
<event>
 5    1  0.3282316E-002  0.1249981E+03  0.7818608E-02  0.1235072E+00
         -4   -1    0    0    0  501 -0.00000000000E+00  0.00000000000E+00  0.14548398809E+01  0.19311807474E+01  0.12700000000E+01 0.  1.
          4   -1    0    0  501    0  0.00000000000E+00 -0.00000000000E+00 -0.23067327063E+04  0.23067330559E+04  0.12700000000E+01 0.  1.
         25    2    1    2    0    0  0.00000000000E+00  0.00000000000E+00 -0.23052778664E+04  0.23086642366E+04  0.12499806481E+03 0.  0.
    9000005    1    3    3    0    0 -0.56144419444E+01 -0.28716826667E+02 -0.21724804917E+04  0.21726777637E+04  0.10000000000E+01 0.  0.
    9000005    1    3    3    0    0  0.56144419444E+01  0.28716826667E+02 -0.13279737471E+03  0.13598647294E+03  0.10000000000E+01 0.  0.
<mgrwt>
<rscale>  0 0.12499806E+03</rscale>
<asrwt>0</asrwt>
<pdfrwt beam="2">  1        4 0.35491611E+00 0.12499806E+03</pdfrwt>
<pdfrwt beam="1">  1       -4 0.26049186E-03 0.12499806E+03</pdfrwt>
<totfact> 0.63518710E+02</totfact>
</mgrwt>
</event>
<event>
 5    1  0.3282316E-002  0.1250037E+03  0.7818608E-02  0.1235063E+00
          4   -1    0    0  501    0  0.00000000000E+00  0.00000000000E+00  0.13871138125E+03  0.13871719500E+03  0.12700000000E+01 0. -1.
         -4   -1    0    0    0  501 -0.00000000000E+00 -0.00000000000E+00 -0.28141951401E+02  0.28170593332E+02  0.12700000000E+01 0. -1.
         25    2    1    2    0    0  0.00000000000E+00  0.00000000000E+00  0.11056942985E+03  0.16688778833E+03  0.12500374025E+03 0.  0.
    9000005    1    3    3    0    0  0.36051062240E+02 -0.14913331764E+01 -0.12837234161E+02  0.38310543512E+02  0.10000000000E+01 0.  0.
    9000005    1    3    3    0    0 -0.36051062240E+02  0.14913331764E+01  0.12340666401E+03  0.12857724482E+03  0.10000000000E+01 0.  0.
<mgrwt>
<rscale>  0 0.12500374E+03</rscale>
<asrwt>0</asrwt>
<pdfrwt beam="1">  1        4 0.21342863E-01 0.12500374E+03</pdfrwt>
<pdfrwt beam="2">  1       -4 0.43321814E-02 0.12500374E+03</pdfrwt>
<totfact> 0.96022998E+03</totfact>
</mgrwt>
</event>
<event>
 5    1  0.3282316E-002  0.1249978E+03  0.7818608E-02  0.1235073E+00
         -4   -1    0    0    0  501 -0.00000000000E+00  0.00000000000E+00  0.12275609470E+03  0.12276266405E+03  0.12700000000E+01 0. -1.
          4   -1    0    0  501    0  0.00000000000E+00 -0.00000000000E+00 -0.31800007551E+02  0.31825357504E+02  0.12700000000E+01 0. -1.
         25    2    1    2    0    0  0.00000000000E+00  0.00000000000E+00  0.90956087145E+02  0.15458802155E+03  0.12499778646E+03 0.  0.
    9000005    1    3    3    0    0  0.29790284313E+02  0.54698470822E+02  0.39205037179E+02  0.73603116034E+02  0.10000000000E+01 0.  0.
    9000005    1    3    3    0    0 -0.29790284313E+02 -0.54698470822E+02  0.51751049966E+02  0.80984905521E+02  0.10000000000E+01 0.  0.
<mgrwt>
<rscale>  0 0.12499779E+03</rscale>
<asrwt>0</asrwt>
<pdfrwt beam="2">  1        4 0.48947641E-02 0.12499779E+03</pdfrwt>
<pdfrwt beam="1">  1       -4 0.18888009E-01 0.12499779E+03</pdfrwt>
<totfact> 0.98401335E+03</totfact>
</mgrwt>
</event>
<event>
 5    1  0.3282316E-002  0.1249984E+03  0.7818608E-02  0.1235072E+00
          4   -1    0    0  501    0  0.00000000000E+00  0.00000000000E+00  0.21266978948E+02  0.21304865490E+02  0.12700000000E+01 0. -1.
         -4   -1    0    0    0  501 -0.00000000000E+00 -0.00000000000E+00 -0.18346861097E+03  0.18347300649E+03  0.12700000000E+01 0. -1.
         25    2    1    2    0    0  0.00000000000E+00  0.00000000000E+00 -0.16220163202E+03  0.20477787198E+03  0.12499842968E+03 0.  0.
    9000005    1    3    3    0    0 -0.36825791783E+02 -0.40241139755E+02 -0.13105149301E+03  0.14195415489E+03  0.10000000000E+01 0.  0.
    9000005    1    3    3    0    0  0.36825791783E+02  0.40241139755E+02 -0.31150139010E+02  0.62823717095E+02  0.10000000000E+01 0.  0.
<mgrwt>
<rscale>  0 0.12499843E+03</rscale>
<asrwt>0</asrwt>
<pdfrwt beam="1">  1        4 0.32750955E-02 0.12499843E+03</pdfrwt>
<pdfrwt beam="2">  1       -4 0.28229192E-01 0.12499843E+03</pdfrwt>
<totfact> 0.89339027E+03</totfact>
</mgrwt>
</event>
<event>
 5    1  0.3282316E-002  0.1249951E+03  0.7818608E-02  0.1235077E+00
         -4   -1    0    0    0  501 -0.00000000000E+00  0.00000000000E+00  0.42214546442E+03  0.42214737477E+03  0.12700000000E+01 0.  1.
          4   -1    0    0  501    0  0.00000000000E+00 -0.00000000000E+00 -0.92070766264E+01  0.92942541393E+01  0.12700000000E+01 0.  1.
         25    2    1    2    0    0  0.00000000000E+00  0.00000000000E+00  0.41293838779E+03  0.43144162891E+03  0.12499506809E+03 0.  0.
    9000005    1    3    3    0    0 -0.44678610115E+02 -0.24644942228E+02  0.33098743173E+03  0.33489883747E+03  0.10000000000E+01 0.  0.
    9000005    1    3    3    0    0  0.44678610115E+02  0.24644942228E+02  0.81950956065E+02  0.96542791441E+02  0.10000000000E+01 0.  0.
<mgrwt>
<rscale>  0 0.12499507E+03</rscale>
<asrwt>0</asrwt>
<pdfrwt beam="2">  1        4 0.14233264E-02 0.12499507E+03</pdfrwt>
<pdfrwt beam="1">  1       -4 0.64952302E-01 0.12499507E+03</pdfrwt>
<totfact> 0.61612235E+03</totfact>
</mgrwt>
</event>
<event>
 5    1  0.3282316E-002  0.1249931E+03  0.7818608E-02  0.1235080E+00
          4   -1    0    0  501    0  0.00000000000E+00  0.00000000000E+00  0.34637401085E+03  0.34637633910E+03  0.12700000000E+01 0.  1.
         -4   -1    0    0    0  501 -0.00000000000E+00 -0.00000000000E+00 -0.11238175743E+02  0.11309707955E+02  0.12700000000E+01 0.  1.
         25    2    1    2    0    0  0.00000000000E+00  0.00000000000E+00  0.33513583510E+03  0.35768604706E+03  0.12499312097E+03 0.  0.
    9000005    1    3    3    0    0  0.19373509000E+02  0.55813771402E+02  0.10932023248E+03  0.12426754668E+03  0.10000000000E+01 0.  0.
    9000005    1    3    3    0    0 -0.19373509000E+02 -0.55813771402E+02  0.22581560262E+03  0.23341850037E+03  0.10000000000E+01 0.  0.
<mgrwt>
<rscale>  0 0.12499312E+03</rscale>
<asrwt>0</asrwt>
<pdfrwt beam="1">  1        4 0.53293990E-01 0.12499312E+03</pdfrwt>
<pdfrwt beam="2">  1       -4 0.17346317E-02 0.12499312E+03</pdfrwt>
<totfact> 0.68897675E+03</totfact>
</mgrwt>
</event>
<event>
 5    1  0.3282316E-002  0.1250009E+03  0.7818608E-02  0.1235068E+00
          4   -1    0    0  501    0  0.00000000000E+00  0.00000000000E+00  0.25601264281E+02  0.25632745323E+02  0.12700000000E+01 0.  1.
         -4   -1    0    0    0  501 -0.00000000000E+00 -0.00000000000E+00 -0.15245455717E+03  0.15245984685E+03  0.12700000000E+01 0.  1.
         25    2    1    2    0    0  0.00000000000E+00  0.00000000000E+00 -0.12685329289E+03  0.17809259218E+03  0.12500085388E+03 0.  0.
    9000005    1    3    3    0    0  0.18893516296E+02  0.56132639819E+02 -0.35022456587E+02  0.68814320286E+02  0.10000000000E+01 0.  0.
    9000005    1    3    3    0    0 -0.18893516296E+02 -0.56132639819E+02 -0.91830836304E+02  0.10927827189E+03  0.10000000000E+01 0.  0.
<mgrwt>
<rscale>  0 0.12500085E+03</rscale>
<asrwt>0</asrwt>
<pdfrwt beam="1">  1        4 0.39414847E-02 0.12500085E+03</pdfrwt>
<pdfrwt beam="2">  1       -4 0.23457375E-01 0.12500085E+03</pdfrwt>
<totfact> 0.93959675E+03</totfact>
</mgrwt>
</event>
<event>
 5    1  0.3282316E-002  0.1249997E+03  0.7818608E-02  0.1235070E+00
          4   -1    0    0  501    0  0.00000000000E+00  0.00000000000E+00  0.20289788691E+02  0.20329496431E+02  0.12700000000E+01 0.  1.
         -4   -1    0    0    0  501 -0.00000000000E+00 -0.00000000000E+00 -0.19229200857E+03  0.19229620240E+03  0.12700000000E+01 0.  1.
         25    2    1    2    0    0  0.00000000000E+00  0.00000000000E+00 -0.17200221987E+03  0.21262569883E+03  0.12499969665E+03 0.  0.
    9000005    1    3    3    0    0  0.31184401614E+02 -0.25108136048E+02 -0.16762025783E+03  0.17233814503E+03  0.10000000000E+01 0.  0.
    9000005    1    3    3    0    0 -0.31184401614E+02  0.25108136048E+02 -0.43819620493E+01  0.40287553800E+02  0.10000000000E+01 0.  0.
<mgrwt>
<rscale>  0 0.12499970E+03</rscale>
<asrwt>0</asrwt>
<pdfrwt beam="1">  1        4 0.31248831E-02 0.12499970E+03</pdfrwt>
<pdfrwt beam="2">  1       -4 0.29586762E-01 0.12499970E+03</pdfrwt>
<totfact> 0.88049455E+03</totfact>
</mgrwt>
</event>
<event>
 5    1  0.3282316E-002  0.1249909E+03  0.7818608E-02  0.1235083E+00
          4   -1    0    0  501    0  0.00000000000E+00  0.00000000000E+00  0.14602716054E+02  0.14657838045E+02  0.12700000000E+01 0.  1.
         -4   -1    0    0    0  501 -0.00000000000E+00 -0.00000000000E+00 -0.26690223423E+03  0.26690525573E+03  0.12700000000E+01 0.  1.
         25    2    1    2    0    0  0.00000000000E+00  0.00000000000E+00 -0.25229951817E+03  0.28156309377E+03  0.12499091529E+03 0.  0.
    9000005    1    3    3    0    0 -0.59738779560E+02 -0.12629632127E+02 -0.96226313433E+02  0.11396812181E+03  0.10000000000E+01 0.  0.
    9000005    1    3    3    0    0  0.59738779560E+02  0.12629632127E+02 -0.15607320474E+03  0.16759497197E+03  0.10000000000E+01 0.  0.
<mgrwt>
<rscale>  0 0.12499092E+03</rscale>
<asrwt>0</asrwt>
<pdfrwt beam="1">  1        4 0.22510445E-02 0.12499092E+03</pdfrwt>
<pdfrwt beam="2">  1       -4 0.41066351E-01 0.12499092E+03</pdfrwt>
<totfact> 0.77987053E+03</totfact>
</mgrwt>
</event>
<event>
 5    1  0.3282316E-002  0.1250008E+03  0.7818608E-02  0.1235068E+00
         -4   -1    0    0    0  501 -0.00000000000E+00  0.00000000000E+00  0.14510050298E+03  0.14510606074E+03  0.12700000000E+01 0.  1.
          4   -1    0    0  501    0  0.00000000000E+00 -0.00000000000E+00 -0.26900272314E+02  0.26930234878E+02  0.12700000000E+01 0.  1.
         25    2    1    2    0    0  0.00000000000E+00  0.00000000000E+00  0.11820023066E+03  0.17203629562E+03  0.12500076993E+03 0.  0.
    9000005    1    3    3    0    0 -0.31038296103E+02 -0.37025548526E+01  0.13357481407E+03  0.13718715571E+03  0.10000000000E+01 0.  0.
    9000005    1    3    3    0    0  0.31038296103E+02  0.37025548526E+01 -0.15374583410E+02  0.34849139910E+02  0.10000000000E+01 0.  0.
<mgrwt>
<rscale>  0 0.12500077E+03</rscale>
<asrwt>0</asrwt>
<pdfrwt beam="2">  1        4 0.41412357E-02 0.12500077E+03</pdfrwt>
<pdfrwt beam="1">  1       -4 0.22325887E-01 0.12500077E+03</pdfrwt>
<totfact> 0.95068813E+03</totfact>
</mgrwt>
</event>
<event>
 5    1  0.3282316E-002  0.1250040E+03  0.7818608E-02  0.1235063E+00
         -4   -1    0    0    0  501 -0.00000000000E+00  0.00000000000E+00  0.50361251726E+02  0.50377262485E+02  0.12700000000E+01 0. -1.
          4   -1    0    0  501    0  0.00000000000E+00 -0.00000000000E+00 -0.77535970794E+02  0.77546371075E+02  0.12700000000E+01 0. -1.
         25    2    1    2    0    0  0.00000000000E+00  0.00000000000E+00 -0.27174719068E+02  0.12792363356E+03  0.12500396260E+03 0.  0.
    9000005    1    3    3    0    0 -0.25938103954E+01 -0.24662969758E+02  0.45115392868E+02  0.51491636246E+02  0.10000000000E+01 0.  0.
    9000005    1    3    3    0    0  0.25938103954E+01  0.24662969758E+02 -0.72290111936E+02  0.76431997314E+02  0.10000000000E+01 0.  0.
<mgrwt>
<rscale>  0 0.12500396E+03</rscale>
<asrwt>0</asrwt>
<pdfrwt beam="2">  1        4 0.11930643E-01 0.12500396E+03</pdfrwt>
<pdfrwt beam="1">  1       -4 0.77499165E-02 0.12500396E+03</pdfrwt>
<totfact> 0.10388208E+04</totfact>
</mgrwt>
</event>
<event>
 5    1  0.3282316E-002  0.1250221E+03  0.7818608E-02  0.1235035E+00
         -4   -1    0    0    0  501 -0.00000000000E+00  0.00000000000E+00  0.20520362106E+03  0.20520755102E+03  0.12700000000E+01 0.  1.
          4   -1    0    0  501    0  0.00000000000E+00 -0.00000000000E+00 -0.19017409076E+02  0.19059767783E+02  0.12700000000E+01 0.  1.
         25    2    1    2    0    0  0.00000000000E+00  0.00000000000E+00  0.18618621198E+03  0.22426731880E+03  0.12502209705E+03 0.  0.
    9000005    1    3    3    0    0 -0.60946077863E+02 -0.13174305701E+02  0.10083868702E+03  0.11856402294E+03  0.10000000000E+01 0.  0.
    9000005    1    3    3    0    0  0.60946077863E+02  0.13174305701E+02  0.85347524968E+02  0.10570329586E+03  0.10000000000E+01 0.  0.
<mgrwt>
<rscale>  0 0.12502210E+03</rscale>
<asrwt>0</asrwt>
<pdfrwt beam="2">  1        4 0.29293158E-02 0.12502210E+03</pdfrwt>
<pdfrwt beam="1">  1       -4 0.31573349E-01 0.12502210E+03</pdfrwt>
<totfact> 0.86155057E+03</totfact>
</mgrwt>
</event>
<event>
 5    1  0.3282316E-002  0.1250014E+03  0.7818608E-02  0.1235067E+00
         -4   -1    0    0    0  501 -0.00000000000E+00  0.00000000000E+00  0.48020670665E+02  0.48037461539E+02  0.12700000000E+01 0.  1.
          4   -1    0    0  501    0  0.00000000000E+00 -0.00000000000E+00 -0.81311008012E+02  0.81320925499E+02  0.12700000000E+01 0.  1.
         25    2    1    2    0    0  0.00000000000E+00  0.00000000000E+00 -0.33290337347E+02  0.12935838704E+03  0.12500138294E+03 0.  0.
    9000005    1    3    3    0    0 -0.10207019067E+02  0.52670303556E+02 -0.49808898750E+02  0.73213868287E+02  0.10000000000E+01 0.  0.
    9000005    1    3    3    0    0  0.10207019067E+02 -0.52670303556E+02  0.16518561403E+02  0.56144518751E+02  0.10000000000E+01 0.  0.
<mgrwt>
<rscale>  0 0.12500138E+03</rscale>
<asrwt>0</asrwt>
<pdfrwt beam="2">  1        4 0.12511440E-01 0.12500138E+03</pdfrwt>
<pdfrwt beam="1">  1       -4 0.73898500E-02 0.12500138E+03</pdfrwt>
<totfact> 0.10357929E+04</totfact>
</mgrwt>
</event>
<event>
 5    1  0.3282316E-002  0.1249996E+03  0.7818608E-02  0.1235070E+00
         -4   -1    0    0    0  501 -0.00000000000E+00  0.00000000000E+00  0.39342668877E+01  0.41341693173E+01  0.12700000000E+01 0. -1.
          4   -1    0    0  501    0  0.00000000000E+00 -0.00000000000E+00 -0.96807296019E+03  0.96807379324E+03  0.12700000000E+01 0. -1.
         25    2    1    2    0    0  0.00000000000E+00  0.00000000000E+00 -0.96413869330E+03  0.97220796256E+03  0.12499961012E+03 0.  0.
    9000005    1    3    3    0    0 -0.28574892093E+02  0.51082031009E+01 -0.51645641582E+02  0.59252767796E+02  0.10000000000E+01 0.  0.
    9000005    1    3    3    0    0  0.28574892093E+02 -0.51082031009E+01 -0.91249305172E+03  0.91295519476E+03  0.10000000000E+01 0.  0.
<mgrwt>
<rscale>  0 0.12499961E+03</rscale>
<asrwt>0</asrwt>
<pdfrwt beam="2">  1        4 0.14894956E+00 0.12499961E+03</pdfrwt>
<pdfrwt beam="1">  1       -4 0.62071379E-03 0.12499961E+03</pdfrwt>
<totfact> 0.31540700E+03</totfact>
</mgrwt>
</event>
<event>
 5    1  0.3282316E-002  0.1250273E+03  0.7818608E-02  0.1235027E+00
         -4   -1    0    0    0  501 -0.00000000000E+00  0.00000000000E+00  0.47244603588E+03  0.47244774285E+03  0.12700000000E+01 0.  1.
          4   -1    0    0  501    0  0.00000000000E+00 -0.00000000000E+00 -0.82212749402E+01  0.83187896741E+01  0.12700000000E+01 0.  1.
         25    2    1    2    0    0  0.00000000000E+00  0.00000000000E+00  0.46422476094E+03  0.48076653252E+03  0.12502731750E+03 0.  0.
    9000005    1    3    3    0    0  0.37534595348E+02  0.49534312579E+02  0.20647158895E+03  0.21562469945E+03  0.10000000000E+01 0.  0.
    9000005    1    3    3    0    0 -0.37534595348E+02 -0.49534312579E+02  0.25775317200E+03  0.26514183307E+03  0.10000000000E+01 0.  0.
<mgrwt>
<rscale>  0 0.12502732E+03</rscale>
<asrwt>0</asrwt>
<pdfrwt beam="2">  1        4 0.12724433E-02 0.12502732E+03</pdfrwt>
<pdfrwt beam="1">  1       -4 0.72691676E-01 0.12502732E+03</pdfrwt>
<totfact> 0.57353648E+03</totfact>
</mgrwt>
</event>
<event>
 5    1  0.3282316E-002  0.1250194E+03  0.7818608E-02  0.1235039E+00
          4   -1    0    0  501    0  0.00000000000E+00  0.00000000000E+00  0.41500519844E+02  0.41519947583E+02  0.12700000000E+01 0. -1.
         -4   -1    0    0    0  501 -0.00000000000E+00 -0.00000000000E+00 -0.94108870026E+02  0.94117438966E+02  0.12700000000E+01 0. -1.
         25    2    1    2    0    0  0.00000000000E+00  0.00000000000E+00 -0.52608350181E+02  0.13563738655E+03  0.12501944697E+03 0.  0.
    9000005    1    3    3    0    0 -0.28344755441E+02  0.85354897089E+01 -0.86026467291E+02  0.90982596249E+02  0.10000000000E+01 0.  0.
    9000005    1    3    3    0    0  0.28344755441E+02 -0.85354897089E+01  0.33418117110E+02  0.44654790300E+02  0.10000000000E+01 0.  0.
<mgrwt>
<rscale>  0 0.12501945E+03</rscale>
<asrwt>0</asrwt>
<pdfrwt beam="1">  1        4 0.63868490E-02 0.12501945E+03</pdfrwt>
<pdfrwt beam="2">  1       -4 0.14480441E-01 0.12501945E+03</pdfrwt>
<totfact> 0.10220171E+04</totfact>
</mgrwt>
</event>
<event>
 5    1  0.3282316E-002  0.1250038E+03  0.7818608E-02  0.1235063E+00
         -4   -1    0    0    0  501 -0.00000000000E+00  0.00000000000E+00  0.77166999545E+03  0.77167104052E+03  0.12700000000E+01 0. -1.
          4   -1    0    0  501    0  0.00000000000E+00 -0.00000000000E+00 -0.49816656266E+01  0.51410011103E+01  0.12700000000E+01 0. -1.
         25    2    1    2    0    0  0.00000000000E+00  0.00000000000E+00  0.76668832982E+03  0.77681204163E+03  0.12500381168E+03 0.  0.
    9000005    1    3    3    0    0  0.62311902303E+02  0.47386419849E+01  0.38651490700E+03  0.39153544058E+03  0.10000000000E+01 0.  0.
    9000005    1    3    3    0    0 -0.62311902303E+02 -0.47386419849E+01  0.38017342282E+03  0.38527660105E+03  0.10000000000E+01 0.  0.
<mgrwt>
<rscale>  0 0.12500381E+03</rscale>
<asrwt>0</asrwt>
<pdfrwt beam="2">  1        4 0.77874666E-03 0.12500381E+03</pdfrwt>
<pdfrwt beam="1">  1       -4 0.11873086E+00 0.12500381E+03</pdfrwt>
<totfact> 0.39317785E+03</totfact>
</mgrwt>
</event>
<event>
 5    1  0.3282316E-002  0.1250021E+03  0.7818608E-02  0.1235066E+00
          4   -1    0    0  501    0  0.00000000000E+00  0.00000000000E+00  0.79479338525E+01  0.80487609309E+01  0.12700000000E+01 0. -1.
         -4   -1    0    0    0  501 -0.00000000000E+00 -0.00000000000E+00 -0.48829683935E+03  0.48829849090E+03  0.12700000000E+01 0. -1.
         25    2    1    2    0    0  0.00000000000E+00  0.00000000000E+00 -0.48034890550E+03  0.49634725183E+03  0.12500209355E+03 0.  0.
    9000005    1    3    3    0    0  0.56418389771E+02 -0.13448523554E+01 -0.34675958634E+03  0.35132328993E+03  0.10000000000E+01 0.  0.
    9000005    1    3    3    0    0 -0.56418389771E+02  0.13448523554E+01 -0.13358931916E+03  0.14502396190E+03  0.10000000000E+01 0.  0.
<mgrwt>
<rscale>  0 0.12500209E+03</rscale>
<asrwt>0</asrwt>
<pdfrwt beam="1">  1        4 0.12306424E-02 0.12500209E+03</pdfrwt>
<pdfrwt beam="2">  1       -4 0.75130450E-01 0.12500209E+03</pdfrwt>
<totfact> 0.56146318E+03</totfact>
</mgrwt>
</event>
<event>
 5    1  0.3282316E-002  0.1250242E+03  0.7818608E-02  0.1235031E+00
         -4   -1    0    0    0  501 -0.00000000000E+00  0.00000000000E+00  0.75008913309E+02  0.75019663928E+02  0.12700000000E+01 0.  1.
          4   -1    0    0  501    0  0.00000000000E+00 -0.00000000000E+00 -0.52075078929E+02  0.52090562921E+02  0.12700000000E+01 0.  1.
         25    2    1    2    0    0  0.00000000000E+00  0.00000000000E+00  0.22933834381E+02  0.12711022685E+03  0.12502419370E+03 0.  0.
    9000005    1    3    3    0    0  0.38608414759E+02 -0.14902711579E+01  0.61418461129E+02  0.72567609619E+02  0.10000000000E+01 0.  0.
    9000005    1    3    3    0    0 -0.38608414759E+02  0.14902711579E+01 -0.38484626748E+02  0.54542617230E+02  0.10000000000E+01 0.  0.
<mgrwt>
<rscale>  0 0.12502419E+03</rscale>
<asrwt>0</asrwt>
<pdfrwt beam="2">  1        4 0.80135687E-02 0.12502419E+03</pdfrwt>
<pdfrwt beam="1">  1       -4 0.11541851E-01 0.12502419E+03</pdfrwt>
<totfact> 0.10401070E+04</totfact>
</mgrwt>
</event>
<event>
 5    1  0.3282316E-002  0.1249939E+03  0.7818608E-02  0.1235079E+00
          4   -1    0    0  501    0  0.00000000000E+00  0.00000000000E+00  0.25599786058E+03  0.25600101078E+03  0.12700000000E+01 0. -1.
         -4   -1    0    0    0  501 -0.00000000000E+00 -0.00000000000E+00 -0.15227761348E+02  0.15280628772E+02  0.12700000000E+01 0. -1.
         25    2    1    2    0    0  0.00000000000E+00  0.00000000000E+00  0.24077009923E+03  0.27128163955E+03  0.12499394895E+03 0.  0.
    9000005    1    3    3    0    0  0.13446433016E+02 -0.56958947119E+02  0.16792251343E+03  0.17783165842E+03  0.10000000000E+01 0.  0.
    9000005    1    3    3    0    0 -0.13446433016E+02  0.56958947119E+02  0.72847585799E+02  0.93449981137E+02  0.10000000000E+01 0.  0.
<mgrwt>
<rscale>  0 0.12499395E+03</rscale>
<asrwt>0</asrwt>
<pdfrwt beam="1">  1        4 0.39388590E-01 0.12499395E+03</pdfrwt>
<pdfrwt beam="2">  1       -4 0.23470419E-02 0.12499395E+03</pdfrwt>
<totfact> 0.79359139E+03</totfact>
</mgrwt>
</event>
<event>
 5    1  0.3282316E-002  0.1250049E+03  0.7818608E-02  0.1235062E+00
         -4   -1    0    0    0  501 -0.00000000000E+00  0.00000000000E+00  0.91139563866E+01  0.92020161387E+01  0.12700000000E+01 0. -1.
          4   -1    0    0  501    0  0.00000000000E+00 -0.00000000000E+00 -0.42648447115E+03  0.42648636207E+03  0.12700000000E+01 0. -1.
         25    2    1    2    0    0  0.00000000000E+00  0.00000000000E+00 -0.41737051476E+03  0.43568837820E+03  0.12500486516E+03 0.  0.
    9000005    1    3    3    0    0  0.14470095009E+00 -0.47720102252E+02 -0.34932873690E+03  0.35257452478E+03  0.10000000000E+01 0.  0.
    9000005    1    3    3    0    0 -0.14470095009E+00  0.47720102252E+02 -0.68041777855E+02  0.83113853425E+02  0.10000000000E+01 0.  0.
<mgrwt>
<rscale>  0 0.12500487E+03</rscale>
<asrwt>0</asrwt>
<pdfrwt beam="2">  1        4 0.65619899E-01 0.12500487E+03</pdfrwt>
<pdfrwt beam="1">  1       -4 0.14090668E-02 0.12500487E+03</pdfrwt>
<totfact> 0.61217180E+03</totfact>
</mgrwt>
</event>
<event>
 5    1  0.3282316E-002  0.1250014E+03  0.7818608E-02  0.1235067E+00
          4   -1    0    0  501    0  0.00000000000E+00  0.00000000000E+00  0.47207915707E+02  0.47224995558E+02  0.12700000000E+01 0. -1.
         -4   -1    0    0    0  501 -0.00000000000E+00 -0.00000000000E+00 -0.82710535588E+02  0.82720285283E+02  0.12700000000E+01 0. -1.
         25    2    1    2    0    0  0.00000000000E+00  0.00000000000E+00 -0.35502619881E+02  0.12994528084E+03  0.12500135997E+03 0.  0.
    9000005    1    3    3    0    0 -0.43387209139E+01 -0.35036584960E+02 -0.71355743796E+02  0.79618019051E+02  0.10000000000E+01 0.  0.
    9000005    1    3    3    0    0  0.43387209139E+01  0.35036584960E+02  0.35853123915E+02  0.50327261790E+02  0.10000000000E+01 0.  0.
<mgrwt>
<rscale>  0 0.12500136E+03</rscale>
<asrwt>0</asrwt>
<pdfrwt beam="1">  1        4 0.72648201E-02 0.12500136E+03</pdfrwt>
<pdfrwt beam="2">  1       -4 0.12726762E-01 0.12500136E+03</pdfrwt>
<totfact> 0.10345361E+04</totfact>
</mgrwt>
</event>
<event>
 5    1  0.3282316E-002  0.1250125E+03  0.7818608E-02  0.1235050E+00
         -4   -1    0    0    0  501 -0.00000000000E+00  0.00000000000E+00  0.11907353051E+02  0.11974888587E+02  0.12700000000E+01 0.  1.
          4   -1    0    0  501    0  0.00000000000E+00 -0.00000000000E+00 -0.32712261081E+03  0.32712507608E+03  0.12700000000E+01 0.  1.
         25    2    1    2    0    0  0.00000000000E+00  0.00000000000E+00 -0.31521525776E+03  0.33909996467E+03  0.12501250864E+03 0.  0.
    9000005    1    3    3    0    0 -0.22546752491E+02 -0.17368029658E+02 -0.30853800937E+03  0.30984949206E+03  0.10000000000E+01 0.  0.
    9000005    1    3    3    0    0  0.22546752491E+02  0.17368029658E+02 -0.66772483886E+01  0.29250472614E+02  0.10000000000E+01 0.  0.
<mgrwt>
<rscale>  0 0.12501251E+03</rscale>
<asrwt>0</asrwt>
<pdfrwt beam="2">  1        4 0.50331933E-01 0.12501251E+03</pdfrwt>
<pdfrwt beam="1">  1       -4 0.18372854E-02 0.12501251E+03</pdfrwt>
<totfact> 0.70920934E+03</totfact>
</mgrwt>
</event>
<event>
 5    1  0.3282316E-002  0.1249984E+03  0.7818608E-02  0.1235072E+00
          4   -1    0    0  501    0  0.00000000000E+00  0.00000000000E+00  0.95815659997E+01  0.96653663669E+01  0.12700000000E+01 0.  1.
         -4   -1    0    0    0  501 -0.00000000000E+00 -0.00000000000E+00 -0.40581347102E+03  0.40581545826E+03  0.12700000000E+01 0.  1.
         25    2    1    2    0    0  0.00000000000E+00  0.00000000000E+00 -0.39623190502E+03  0.41548082463E+03  0.12499837229E+03 0.  0.
    9000005    1    3    3    0    0 -0.28587233127E+02 -0.54537173019E+02 -0.16268647791E+03  0.17395235909E+03  0.10000000000E+01 0.  0.
    9000005    1    3    3    0    0  0.28587233127E+02  0.54537173019E+02 -0.23354542712E+03  0.24152846554E+03  0.10000000000E+01 0.  0.
<mgrwt>
<rscale>  0 0.12499837E+03</rscale>
<asrwt>0</asrwt>
<pdfrwt beam="1">  1        4 0.14806864E-02 0.12499837E+03</pdfrwt>
<pdfrwt beam="2">  1       -4 0.62439428E-01 0.12499837E+03</pdfrwt>
<totfact> 0.63076757E+03</totfact>
</mgrwt>
</event>
<event>
 4    1  0.3282316E-002  0.1247596E+03  0.7818608E-02  0.1235445E+00
          4   -1    0    0  501    0  0.00000000000E+00  0.00000000000E+00  0.24071120441E+02  0.24104599961E+02  0.12700000000E+01 0. -1.
         -4   -1    0    0    0  501 -0.00000000000E+00 -0.00000000000E+00 -0.16150766186E+03  0.16151265505E+03  0.12700000000E+01 0. -1.
    9000005    1    1    2    0    0  0.43975179120E+02  0.44189909340E+02 -0.65865672894E+02  0.90696479159E+02  0.10000000000E+01 0.  0.
    9000005    1    1    2    0    0 -0.43975179120E+02 -0.44189909340E+02 -0.71570868529E+02  0.94920775851E+02  0.10000000000E+01 0.  0.
<mgrwt>
<rscale>  0 0.12475962E+03</rscale>
<asrwt>0</asrwt>
<pdfrwt beam="1">  1        4 0.37062088E-02 0.12475962E+03</pdfrwt>
<pdfrwt beam="2">  1       -4 0.24850291E-01 0.12475962E+03</pdfrwt>
<totfact> 0.93116214E+03</totfact>
</mgrwt>
</event>
<event>
 5    1  0.3282316E-002  0.1249918E+03  0.7818608E-02  0.1235082E+00
         -4   -1    0    0    0  501 -0.00000000000E+00  0.00000000000E+00  0.11008908626E+02  0.11081920824E+02  0.12700000000E+01 0. -1.
          4   -1    0    0  501    0  0.00000000000E+00 -0.00000000000E+00 -0.35353276472E+03  0.35353504583E+03  0.12700000000E+01 0. -1.
         25    2    1    2    0    0  0.00000000000E+00  0.00000000000E+00 -0.34252385610E+03  0.36461696666E+03  0.12499176125E+03 0.  0.
    9000005    1    3    3    0    0 -0.14703512963E+02  0.58391529140E+02 -0.12253880546E+03  0.13653762416E+03  0.10000000000E+01 0.  0.
    9000005    1    3    3    0    0  0.14703512963E+02 -0.58391529140E+02 -0.21998505064E+03  0.22807934249E+03  0.10000000000E+01 0.  0.
<mgrwt>
<rscale>  0 0.12499176E+03</rscale>
<asrwt>0</asrwt>
<pdfrwt beam="2">  1        4 0.54395439E-01 0.12499176E+03</pdfrwt>
<pdfrwt beam="1">  1       -4 0.16994703E-02 0.12499176E+03</pdfrwt>
<totfact> 0.68158309E+03</totfact>
</mgrwt>
</event>
<event>
 4    1  0.3282316E-002  0.1247689E+03  0.7818608E-02  0.1235431E+00
          4   -1    0    0  501    0  0.00000000000E+00  0.00000000000E+00  0.10669108535E+03  0.10669864382E+03  0.12700000000E+01 0.  1.
         -4   -1    0    0    0  501 -0.00000000000E+00 -0.00000000000E+00 -0.36457578504E+02  0.36479692027E+02  0.12700000000E+01 0.  1.
    9000005    1    1    2    0    0  0.45771390941E+02  0.27355474391E+02 -0.20234045660E+01  0.53370744550E+02  0.10000000000E+01 0.  0.
    9000005    1    1    2    0    0 -0.45771390941E+02 -0.27355474391E+02  0.72256911416E+02  0.89807591300E+02  0.10000000000E+01 0.  0.
<mgrwt>
<rscale>  0 0.12476895E+03</rscale>
<asrwt>0</asrwt>
<pdfrwt beam="1">  1        4 0.16416295E-01 0.12476895E+03</pdfrwt>
<pdfrwt beam="2">  1       -4 0.56111408E-02 0.12476895E+03</pdfrwt>
<totfact> 0.10120705E+04</totfact>
</mgrwt>
</event>
<event>
 5    1  0.3282316E-002  0.1250074E+03  0.7818608E-02  0.1235058E+00
         -4   -1    0    0    0  501 -0.00000000000E+00  0.00000000000E+00  0.11633223663E+02  0.11702341338E+02  0.12700000000E+01 0. -1.
          4   -1    0    0  501    0  0.00000000000E+00 -0.00000000000E+00 -0.33475896005E+03  0.33476136908E+03  0.12700000000E+01 0. -1.
         25    2    1    2    0    0  0.00000000000E+00  0.00000000000E+00 -0.32312573638E+03  0.34646371042E+03  0.12500744428E+03 0.  0.
    9000005    1    3    3    0    0  0.29575690686E+01 -0.25159354168E+02 -0.31990456160E+03  0.32090757057E+03  0.10000000000E+01 0.  0.
    9000005    1    3    3    0    0 -0.29575690686E+01  0.25159354168E+02 -0.32211747799E+01  0.25556139848E+02  0.10000000000E+01 0.  0.
<mgrwt>
<rscale>  0 0.12500744E+03</rscale>
<asrwt>0</asrwt>
<pdfrwt beam="2">  1        4 0.51506873E-01 0.12500744E+03</pdfrwt>
<pdfrwt beam="1">  1       -4 0.17952290E-02 0.12500744E+03</pdfrwt>
<totfact> 0.70103802E+03</totfact>
</mgrwt>
</event>
<event>
 5    1  0.3282316E-002  0.1249996E+03  0.7818608E-02  0.1235070E+00
         -4   -1    0    0    0  501 -0.00000000000E+00  0.00000000000E+00  0.18445125939E+03  0.18445563150E+03  0.12700000000E+01 0.  1.
          4   -1    0    0  501    0  0.00000000000E+00 -0.00000000000E+00 -0.21153871272E+02  0.21191960028E+02  0.12700000000E+01 0.  1.
         25    2    1    2    0    0  0.00000000000E+00  0.00000000000E+00  0.16329738812E+03  0.20564759153E+03  0.12499957973E+03 0.  0.
    9000005    1    3    3    0    0  0.56767668322E+02  0.20483238042E+02  0.54963563617E+02  0.81634089282E+02  0.10000000000E+01 0.  0.
    9000005    1    3    3    0    0 -0.56767668322E+02 -0.20483238042E+02  0.10833382450E+03  0.12401350224E+03  0.10000000000E+01 0.  0.
<mgrwt>
<rscale>  0 0.12499958E+03</rscale>
<asrwt>0</asrwt>
<pdfrwt beam="2">  1        4 0.32577079E-02 0.12499958E+03</pdfrwt>
<pdfrwt beam="1">  1       -4 0.28380383E-01 0.12499958E+03</pdfrwt>
<totfact> 0.89192494E+03</totfact>
</mgrwt>
</event>
<event>
 5    1  0.3282316E-002  0.1249775E+03  0.7818608E-02  0.1235104E+00
         -4   -1    0    0    0  501 -0.00000000000E+00  0.00000000000E+00  0.46582295308E+02  0.46599604463E+02  0.12700000000E+01 0. -1.
          4   -1    0    0  501    0  0.00000000000E+00 -0.00000000000E+00 -0.83789045651E+02  0.83798669865E+02  0.12700000000E+01 0. -1.
         25    2    1    2    0    0  0.00000000000E+00  0.00000000000E+00 -0.37206750343E+02  0.13039827433E+03  0.12497746868E+03 0.  0.
    9000005    1    3    3    0    0 -0.83253669823E+01  0.37437046009E+02 -0.70068256461E+02  0.79883694912E+02  0.10000000000E+01 0.  0.
    9000005    1    3    3    0    0  0.83253669823E+01 -0.37437046009E+02  0.32861506118E+02  0.50514579416E+02  0.10000000000E+01 0.  0.
<mgrwt>
<rscale>  0 0.12497747E+03</rscale>
<asrwt>0</asrwt>
<pdfrwt beam="2">  1        4 0.12892694E-01 0.12497747E+03</pdfrwt>
<pdfrwt beam="1">  1       -4 0.71685788E-02 0.12497747E+03</pdfrwt>
<totfact> 0.10341253E+04</totfact>
</mgrwt>
</event>
<event>
 5    1  0.3282316E-002  0.1249996E+03  0.7818608E-02  0.1235070E+00
          4   -1    0    0  501    0  0.00000000000E+00  0.00000000000E+00  0.83489595029E+02  0.83499253757E+02  0.12700000000E+01 0.  1.
         -4   -1    0    0    0  501 -0.00000000000E+00 -0.00000000000E+00 -0.46765966585E+02  0.46783207785E+02  0.12700000000E+01 0.  1.
         25    2    1    2    0    0  0.00000000000E+00  0.00000000000E+00  0.36723628444E+02  0.13028246154E+03  0.12499957960E+03 0.  0.
    9000005    1    3    3    0    0 -0.28950585745E+02 -0.21203216989E+02  0.71685683178E+02  0.80172002585E+02  0.10000000000E+01 0.  0.
    9000005    1    3    3    0    0  0.28950585745E+02  0.21203216989E+02 -0.34962054735E+02  0.50110458958E+02  0.10000000000E+01 0.  0.
<mgrwt>
<rscale>  0 0.12499958E+03</rscale>
<asrwt>0</asrwt>
<pdfrwt beam="1">  1        4 0.12846622E-01 0.12499958E+03</pdfrwt>
<pdfrwt beam="2">  1       -4 0.71968333E-02 0.12499958E+03</pdfrwt>
<totfact> 0.10338567E+04</totfact>
</mgrwt>
</event>
<event>
 5    1  0.3282316E-002  0.1250078E+03  0.7818608E-02  0.1235057E+00
         -4   -1    0    0    0  501 -0.00000000000E+00  0.00000000000E+00  0.35644851293E+01  0.37839733399E+01  0.12700000000E+01 0. -1.
          4   -1    0    0  501    0  0.00000000000E+00 -0.00000000000E+00 -0.10630612159E+04  0.10630619745E+04  0.12700000000E+01 0. -1.
         25    2    1    2    0    0  0.00000000000E+00  0.00000000000E+00 -0.10594967308E+04  0.10668459479E+04  0.12500781548E+03 0.  0.
    9000005    1    3    3    0    0  0.24711591418E+02  0.43077551384E+02 -0.85353233291E+03  0.85497648009E+03  0.10000000000E+01 0.  0.
    9000005    1    3    3    0    0 -0.24711591418E+02 -0.43077551384E+02 -0.20596439790E+03  0.21186946780E+03  0.10000000000E+01 0.  0.
<mgrwt>
<rscale>  0 0.12500782E+03</rscale>
<asrwt>0</asrwt>
<pdfrwt beam="2">  1        4 0.16356458E+00 0.12500782E+03</pdfrwt>
<pdfrwt beam="1">  1       -4 0.56532524E-03 0.12500782E+03</pdfrwt>
<totfact> 0.28469746E+03</totfact>
</mgrwt>
</event>
<event>
 5    1  0.3282316E-002  0.1249997E+03  0.7818608E-02  0.1235070E+00
         -4   -1    0    0    0  501 -0.00000000000E+00  0.00000000000E+00  0.14277058545E+03  0.14277623391E+03  0.12700000000E+01 0.  1.
          4   -1    0    0  501    0  0.00000000000E+00 -0.00000000000E+00 -0.27339274556E+02  0.27368756516E+02  0.12700000000E+01 0.  1.
         25    2    1    2    0    0  0.00000000000E+00  0.00000000000E+00  0.11543131090E+03  0.17014499043E+03  0.12499972093E+03 0.  0.
    9000005    1    3    3    0    0  0.53430995122E+02 -0.16847785714E+02  0.95400784685E+02  0.11063918312E+03  0.10000000000E+01 0.  0.
    9000005    1    3    3    0    0 -0.53430995122E+02  0.16847785714E+02  0.20030526212E+02  0.59505807309E+02  0.10000000000E+01 0.  0.
<mgrwt>
<rscale>  0 0.12499972E+03</rscale>
<asrwt>0</asrwt>
<pdfrwt beam="2">  1        4 0.42087445E-02 0.12499972E+03</pdfrwt>
<pdfrwt beam="1">  1       -4 0.21967408E-01 0.12499972E+03</pdfrwt>
<totfact> 0.95422216E+03</totfact>
</mgrwt>
</event>
<event>
 5    1  0.3282316E-002  0.1249958E+03  0.7818608E-02  0.1235076E+00
          4   -1    0    0  501    0  0.00000000000E+00  0.00000000000E+00  0.14286038713E+03  0.14286603204E+03  0.12700000000E+01 0.  1.
         -4   -1    0    0    0  501 -0.00000000000E+00 -0.00000000000E+00 -0.27320370056E+02  0.27349872395E+02  0.12700000000E+01 0.  1.
         25    2    1    2    0    0  0.00000000000E+00  0.00000000000E+00  0.11554001708E+03  0.17021590444E+03  0.12499583424E+03 0.  0.
    9000005    1    3    3    0    0 -0.36182646744E+02 -0.14475991614E+02 -0.87515926336E+01  0.39954081547E+02  0.10000000000E+01 0.  0.
    9000005    1    3    3    0    0  0.36182646744E+02  0.14475991614E+02  0.12429160971E+03  0.13026182289E+03  0.10000000000E+01 0.  0.
<mgrwt>
<rscale>  0 0.12499583E+03</rscale>
<asrwt>0</asrwt>
<pdfrwt beam="1">  1        4 0.21981225E-01 0.12499583E+03</pdfrwt>
<pdfrwt beam="2">  1       -4 0.42058375E-02 0.12499583E+03</pdfrwt>
<totfact> 0.95417331E+03</totfact>
</mgrwt>
</event>
<event>
 5    1  0.3282316E-002  0.1250033E+03  0.7818608E-02  0.1235064E+00
         -4   -1    0    0    0  501 -0.00000000000E+00  0.00000000000E+00  0.12463124314E+03  0.12463771366E+03  0.12700000000E+01 0. -1.
          4   -1    0    0  501    0  0.00000000000E+00 -0.00000000000E+00 -0.31323987168E+02  0.31349722042E+02  0.12700000000E+01 0. -1.
         25    2    1    2    0    0  0.00000000000E+00  0.00000000000E+00  0.93307255968E+02  0.15598743570E+03  0.12500334427E+03 0.  0.
    9000005    1    3    3    0    0 -0.40005905885E+02 -0.19679430753E+02 -0.79924577304E+01  0.45305980632E+02  0.10000000000E+01 0.  0.
    9000005    1    3    3    0    0  0.40005905885E+02  0.19679430753E+02  0.10129971370E+03  0.11068145507E+03  0.10000000000E+01 0.  0.
<mgrwt>
<rscale>  0 0.12500334E+03</rscale>
<asrwt>0</asrwt>
<pdfrwt beam="2">  1        4 0.48215523E-02 0.12500334E+03</pdfrwt>
<pdfrwt beam="1">  1       -4 0.19176515E-01 0.12500334E+03</pdfrwt>
<totfact> 0.98114622E+03</totfact>
</mgrwt>
</event>
<event>
 5    1  0.3282316E-002  0.1250226E+03  0.7818608E-02  0.1235034E+00
          4   -1    0    0  501    0  0.00000000000E+00  0.00000000000E+00  0.62432743878E+02  0.62445659643E+02  0.12700000000E+01 0. -1.
         -4   -1    0    0    0  501 -0.00000000000E+00 -0.00000000000E+00 -0.62564088299E+02  0.62576976954E+02  0.12700000000E+01 0. -1.
         25    2    1    2    0    0  0.00000000000E+00  0.00000000000E+00 -0.13134442028E+00  0.12502263660E+03  0.12502256760E+03 0.  0.
    9000005    1    3    3    0    0  0.62136853335E+01  0.45727683195E+02  0.42089181223E+02  0.62467031880E+02  0.10000000000E+01 0.  0.
    9000005    1    3    3    0    0 -0.62136853335E+01 -0.45727683195E+02 -0.42220525644E+02  0.62555604716E+02  0.10000000000E+01 0.  0.
<mgrwt>
<rscale>  0 0.12502257E+03</rscale>
<asrwt>0</asrwt>
<pdfrwt beam="1">  1        4 0.96070225E-02 0.12502257E+03</pdfrwt>
<pdfrwt beam="2">  1       -4 0.96272293E-02 0.12502257E+03</pdfrwt>
<totfact> 0.10447041E+04</totfact>
</mgrwt>
</event>
<event>
 5    1  0.3282316E-002  0.1250400E+03  0.7818608E-02  0.1235007E+00
          4   -1    0    0  501    0  0.00000000000E+00  0.00000000000E+00  0.12994903698E+03  0.12995524273E+03  0.12700000000E+01 0.  1.
         -4   -1    0    0    0  501 -0.00000000000E+00 -0.00000000000E+00 -0.30058768162E+02  0.30085585309E+02  0.12700000000E+01 0.  1.
         25    2    1    2    0    0  0.00000000000E+00  0.00000000000E+00  0.99890268821E+02  0.16004082804E+03  0.12503999694E+03 0.  0.
    9000005    1    3    3    0    0 -0.57855094079E+02 -0.17648000586E+02  0.70145387917E+02  0.92628501454E+02  0.10000000000E+01 0.  0.
    9000005    1    3    3    0    0  0.57855094079E+02  0.17648000586E+02  0.29744880905E+02  0.67412326585E+02  0.10000000000E+01 0.  0.
<mgrwt>
<rscale>  0 0.12504000E+03</rscale>
<asrwt>0</asrwt>
<pdfrwt beam="1">  1        4 0.19994700E-01 0.12504000E+03</pdfrwt>
<pdfrwt beam="2">  1       -4 0.46269661E-02 0.12504000E+03</pdfrwt>
<totfact> 0.97247460E+03</totfact>
</mgrwt>
</event>
<event>
 5    1  0.3282316E-002  0.1250001E+03  0.7818608E-02  0.1235069E+00
          4   -1    0    0  501    0  0.00000000000E+00  0.00000000000E+00  0.55883667411E+01  0.57308588216E+01  0.12700000000E+01 0.  1.
         -4   -1    0    0    0  501 -0.00000000000E+00 -0.00000000000E+00 -0.69005502230E+03  0.69005619098E+03  0.12700000000E+01 0.  1.
         25    2    1    2    0    0  0.00000000000E+00  0.00000000000E+00 -0.68446665556E+03  0.69578704980E+03  0.12500006437E+03 0.  0.
    9000005    1    3    3    0    0 -0.21864077404E+01  0.30334862785E+02 -0.38359083682E+02  0.48963288083E+02  0.10000000000E+01 0.  0.
    9000005    1    3    3    0    0  0.21864077404E+01 -0.30334862785E+02 -0.64610757188E+03  0.64682376172E+03  0.10000000000E+01 0.  0.
<mgrwt>
<rscale>  0 0.12500006E+03</rscale>
<asrwt>0</asrwt>
<pdfrwt beam="1">  1        4 0.87080010E-03 0.12500006E+03</pdfrwt>
<pdfrwt beam="2">  1       -4 0.10617330E+00 0.12500006E+03</pdfrwt>
<totfact> 0.43309980E+03</totfact>
</mgrwt>
</event>
<event>
 5    1  0.3282316E-002  0.1249936E+03  0.7818608E-02  0.1235079E+00
          4   -1    0    0  501    0  0.00000000000E+00  0.00000000000E+00  0.22098606668E+02  0.22135069836E+02  0.12700000000E+01 0. -1.
         -4   -1    0    0    0  501 -0.00000000000E+00 -0.00000000000E+00 -0.17656209804E+03  0.17656666549E+03  0.12700000000E+01 0. -1.
         25    2    1    2    0    0  0.00000000000E+00  0.00000000000E+00 -0.15446349137E+03  0.19870173533E+03  0.12499363767E+03 0.  0.
    9000005    1    3    3    0    0 -0.45663642633E+02 -0.42453147606E+02 -0.83865624928E+02  0.10450780375E+03  0.10000000000E+01 0.  0.
    9000005    1    3    3    0    0  0.45663642633E+02  0.42453147606E+02 -0.70597866443E+02  0.94193931580E+02  0.10000000000E+01 0.  0.
<mgrwt>
<rscale>  0 0.12499364E+03</rscale>
<asrwt>0</asrwt>
<pdfrwt beam="1">  1        4 0.34029420E-02 0.12499364E+03</pdfrwt>
<pdfrwt beam="2">  1       -4 0.27166555E-01 0.12499364E+03</pdfrwt>
<totfact> 0.90367765E+03</totfact>
</mgrwt>
</event>
<event>
 5    1  0.3282316E-002  0.1249989E+03  0.7818608E-02  0.1235071E+00
         -4   -1    0    0    0  501 -0.00000000000E+00  0.00000000000E+00  0.31390692421E+03  0.31390949328E+03  0.12700000000E+01 0.  1.
          4   -1    0    0  501    0  0.00000000000E+00 -0.00000000000E+00 -0.12408728120E+02  0.12473549357E+02  0.12700000000E+01 0.  1.
         25    2    1    2    0    0  0.00000000000E+00  0.00000000000E+00  0.30149819609E+03  0.32638304263E+03  0.12499891308E+03 0.  0.
    9000005    1    3    3    0    0  0.25832954621E+02  0.50909443262E+02  0.21711742021E+03  0.22449963723E+03  0.10000000000E+01 0.  0.
    9000005    1    3    3    0    0 -0.25832954621E+02 -0.50909443262E+02  0.84380775881E+02  0.10188340540E+03  0.10000000000E+01 0.  0.
<mgrwt>
<rscale>  0 0.12499891E+03</rscale>
<asrwt>0</asrwt>
<pdfrwt beam="2">  1        4 0.19142190E-02 0.12499891E+03</pdfrwt>
<pdfrwt beam="1">  1       -4 0.48298555E-01 0.12499891E+03</pdfrwt>
<totfact> 0.72405067E+03</totfact>
</mgrwt>
</event>
<event>
 5    1  0.3282316E-002  0.1249999E+03  0.7818608E-02  0.1235069E+00
         -4   -1    0    0    0  501 -0.00000000000E+00  0.00000000000E+00  0.17865028613E+03  0.17865480020E+03  0.12700000000E+01 0.  1.
          4   -1    0    0  501    0  0.00000000000E+00 -0.00000000000E+00 -0.21842071532E+02  0.21878962243E+02  0.12700000000E+01 0.  1.
         25    2    1    2    0    0  0.00000000000E+00  0.00000000000E+00  0.15680821460E+03  0.20053376244E+03  0.12499989486E+03 0.  0.
    9000005    1    3    3    0    0 -0.85103081271E+01 -0.59400889097E+02  0.50416468417E+02  0.78381829894E+02  0.10000000000E+01 0.  0.
    9000005    1    3    3    0    0  0.85103081271E+01  0.59400889097E+02  0.10639174618E+03  0.12215193255E+03  0.10000000000E+01 0.  0.
<mgrwt>
<rscale>  0 0.12499989E+03</rscale>
<asrwt>0</asrwt>
<pdfrwt beam="2">  1        4 0.33635037E-02 0.12499989E+03</pdfrwt>
<pdfrwt beam="1">  1       -4 0.27487844E-01 0.12499989E+03</pdfrwt>
<totfact> 0.90045773E+03</totfact>
</mgrwt>
</event>
<event>
 5    1  0.3282316E-002  0.1250047E+03  0.7818608E-02  0.1235062E+00
          4   -1    0    0  501    0  0.00000000000E+00  0.00000000000E+00  0.56958262378E+03  0.56958403964E+03  0.12700000000E+01 0. -1.
         -4   -1    0    0    0  501 -0.00000000000E+00 -0.00000000000E+00 -0.67983745438E+01  0.69159812347E+01  0.12700000000E+01 0. -1.
         25    2    1    2    0    0  0.00000000000E+00  0.00000000000E+00  0.56278424924E+03  0.57650002088E+03  0.12500465143E+03 0.  0.
    9000005    1    3    3    0    0  0.37212847099E+02  0.11731018954E+02  0.50652910234E+03  0.50803065293E+03  0.10000000000E+01 0.  0.
    9000005    1    3    3    0    0 -0.37212847099E+02 -0.11731018954E+02  0.56255146896E+02  0.68469367949E+02  0.10000000000E+01 0.  0.
<mgrwt>
<rscale>  0 0.12500465E+03</rscale>
<asrwt>0</asrwt>
<pdfrwt beam="1">  1        4 0.87637289E-01 0.12500465E+03</pdfrwt>
<pdfrwt beam="2">  1       -4 0.10550589E-02 0.12500465E+03</pdfrwt>
<totfact> 0.50380252E+03</totfact>
</mgrwt>
</event>
<event>
 5    1  0.3282316E-002  0.1250001E+03  0.7818608E-02  0.1235069E+00
         -4   -1    0    0    0  501 -0.00000000000E+00  0.00000000000E+00  0.27258720126E+02  0.27288289117E+02  0.12700000000E+01 0.  1.
          4   -1    0    0  501    0  0.00000000000E+00 -0.00000000000E+00 -0.14319287297E+03  0.14319850477E+03  0.12700000000E+01 0.  1.
         25    2    1    2    0    0  0.00000000000E+00  0.00000000000E+00 -0.11593415284E+03  0.17048679389E+03  0.12500007638E+03 0.  0.
    9000005    1    3    3    0    0  0.37559927997E+02  0.46908114517E+02 -0.34575790636E+02  0.69336892754E+02  0.10000000000E+01 0.  0.
    9000005    1    3    3    0    0 -0.37559927997E+02 -0.46908114517E+02 -0.81358362205E+02  0.10114990113E+03  0.10000000000E+01 0.  0.
<mgrwt>
<rscale>  0 0.12500008E+03</rscale>
<asrwt>0</asrwt>
<pdfrwt beam="2">  1        4 0.22032380E-01 0.12500008E+03</pdfrwt>
<pdfrwt beam="1">  1       -4 0.41963571E-02 0.12500008E+03</pdfrwt>
<totfact> 0.95357819E+03</totfact>
</mgrwt>
</event>
<event>
 5    1  0.3282316E-002  0.1250098E+03  0.7818608E-02  0.1235054E+00
         -4   -1    0    0    0  501 -0.00000000000E+00  0.00000000000E+00  0.24182756509E+03  0.24183089988E+03  0.12700000000E+01 0. -1.
          4   -1    0    0  501    0  0.00000000000E+00 -0.00000000000E+00 -0.16127155878E+02  0.16177084309E+02  0.12700000000E+01 0. -1.
         25    2    1    2    0    0  0.00000000000E+00  0.00000000000E+00  0.22570040921E+03  0.25800798419E+03  0.12500978037E+03 0.  0.
    9000005    1    3    3    0    0 -0.17611653444E+02  0.58585552195E+02  0.13923459816E+03  0.15208455079E+03  0.10000000000E+01 0.  0.
    9000005    1    3    3    0    0  0.17611653444E+02 -0.58585552195E+02  0.86465811042E+02  0.10592343340E+03  0.10000000000E+01 0.  0.
<mgrwt>
<rscale>  0 0.12500978E+03</rscale>
<asrwt>0</asrwt>
<pdfrwt beam="2">  1        4 0.24851981E-02 0.12500978E+03</pdfrwt>
<pdfrwt beam="1">  1       -4 0.37208338E-01 0.12500978E+03</pdfrwt>
<totfact> 0.81168751E+03</totfact>
</mgrwt>
</event>
<event>
 5    1  0.3282316E-002  0.1249999E+03  0.7818608E-02  0.1235069E+00
          4   -1    0    0  501    0  0.00000000000E+00  0.00000000000E+00  0.13873770567E+03  0.13874351832E+03  0.12700000000E+01 0. -1.
         -4   -1    0    0    0  501 -0.00000000000E+00 -0.00000000000E+00 -0.28134889949E+02  0.28163539061E+02  0.12700000000E+01 0. -1.
         25    2    1    2    0    0  0.00000000000E+00  0.00000000000E+00  0.11060281572E+03  0.16690705738E+03  0.12499993183E+03 0.  0.
    9000005    1    3    3    0    0  0.52365959038E+02  0.33605045347E+02  0.63058895943E+02  0.88594114343E+02  0.10000000000E+01 0.  0.
    9000005    1    3    3    0    0 -0.52365959038E+02 -0.33605045347E+02  0.47543919778E+02  0.78312943034E+02  0.10000000000E+01 0.  0.
<mgrwt>
<rscale>  0 0.12499993E+03</rscale>
<asrwt>0</asrwt>
<pdfrwt beam="1">  1        4 0.21346914E-01 0.12499993E+03</pdfrwt>
<pdfrwt beam="2">  1       -4 0.43310955E-02 0.12499993E+03</pdfrwt>
<totfact> 0.96027587E+03</totfact>
</mgrwt>
</event>
<event>
 5    1  0.3282316E-002  0.1249981E+03  0.7818608E-02  0.1235072E+00
          4   -1    0    0  501    0  0.00000000000E+00  0.00000000000E+00  0.51045734504E+01  0.52601872696E+01  0.12700000000E+01 0. -1.
         -4   -1    0    0    0  501 -0.00000000000E+00 -0.00000000000E+00 -0.75357635623E+03  0.75357742640E+03  0.12700000000E+01 0. -1.
         25    2    1    2    0    0  0.00000000000E+00  0.00000000000E+00 -0.74847178278E+03  0.75883761367E+03  0.12499805715E+03 0.  0.
    9000005    1    3    3    0    0  0.60273846794E+02  0.10941186008E+02 -0.29927142281E+03  0.30547836367E+03  0.10000000000E+01 0.  0.
    9000005    1    3    3    0    0 -0.60273846794E+02 -0.10941186008E+02 -0.44920035997E+03  0.45335924999E+03  0.10000000000E+01 0.  0.
<mgrwt>
<rscale>  0 0.12499806E+03</rscale>
<asrwt>0</asrwt>
<pdfrwt beam="1">  1        4 0.79737220E-03 0.12499806E+03</pdfrwt>
<pdfrwt beam="2">  1       -4 0.11594679E+00 0.12499806E+03</pdfrwt>
<totfact> 0.40156692E+03</totfact>
</mgrwt>
</event>
<event>
 5    1  0.3282316E-002  0.1249972E+03  0.7818608E-02  0.1235074E+00
          4   -1    0    0  501    0  0.00000000000E+00  0.00000000000E+00  0.66493267988E+02  0.66505395177E+02  0.12700000000E+01 0.  1.
         -4   -1    0    0    0  501 -0.00000000000E+00 -0.00000000000E+00 -0.58719527791E+02  0.58733260117E+02  0.12700000000E+01 0.  1.
         25    2    1    2    0    0  0.00000000000E+00  0.00000000000E+00  0.77737401973E+01  0.12523865529E+03  0.12499715894E+03 0.  0.
    9000005    1    3    3    0    0 -0.13246314094E+02 -0.14535502376E+02  0.63316953563E+02  0.66308236855E+02  0.10000000000E+01 0.  0.
    9000005    1    3    3    0    0  0.13246314094E+02  0.14535502376E+02 -0.55543213365E+02  0.58930418439E+02  0.10000000000E+01 0.  0.
<mgrwt>
<rscale>  0 0.12499716E+03</rscale>
<asrwt>0</asrwt>
<pdfrwt beam="1">  1        4 0.10231723E-01 0.12499716E+03</pdfrwt>
<pdfrwt beam="2">  1       -4 0.90357627E-02 0.12499716E+03</pdfrwt>
<totfact> 0.10448352E+04</totfact>
</mgrwt>
</event>
<event>
 5    1  0.3282316E-002  0.1250006E+03  0.7818608E-02  0.1235068E+00
         -4   -1    0    0    0  501 -0.00000000000E+00  0.00000000000E+00  0.16773177679E+03  0.16773658470E+03  0.12700000000E+01 0. -1.
          4   -1    0    0  501    0  0.00000000000E+00 -0.00000000000E+00 -0.23266416339E+02  0.23301052106E+02  0.12700000000E+01 0. -1.
         25    2    1    2    0    0  0.00000000000E+00  0.00000000000E+00  0.14446536045E+03  0.19103763680E+03  0.12500055322E+03 0.  0.
    9000005    1    3    3    0    0  0.18549086825E+02  0.59225236483E+02  0.61045052393E+02  0.87058576144E+02  0.10000000000E+01 0.  0.
    9000005    1    3    3    0    0 -0.18549086825E+02 -0.59225236483E+02  0.83420308058E+02  0.10397906066E+03  0.10000000000E+01 0.  0.
<mgrwt>
<rscale>  0 0.12500055E+03</rscale>
<asrwt>0</asrwt>
<pdfrwt beam="2">  1        4 0.35824828E-02 0.12500055E+03</pdfrwt>
<pdfrwt beam="1">  1       -4 0.25807923E-01 0.12500055E+03</pdfrwt>
<totfact> 0.91665946E+03</totfact>
</mgrwt>
</event>
<event>
 5    1  0.3282316E-002  0.1250012E+03  0.7818608E-02  0.1235067E+00
          4   -1    0    0  501    0  0.00000000000E+00  0.00000000000E+00  0.33312929447E+02  0.33337128976E+02  0.12700000000E+01 0.  1.
         -4   -1    0    0    0  501 -0.00000000000E+00 -0.00000000000E+00 -0.11719123137E+03  0.11719811266E+03  0.12700000000E+01 0.  1.
         25    2    1    2    0    0  0.00000000000E+00  0.00000000000E+00 -0.83878301926E+02  0.15053524163E+03  0.12500115775E+03 0.  0.
    9000005    1    3    3    0    0  0.49296797509E+02  0.26541816870E+02 -0.75371062840E+02  0.93895896614E+02  0.10000000000E+01 0.  0.
    9000005    1    3    3    0    0 -0.49296797509E+02 -0.26541816870E+02 -0.85072390859E+01  0.56639345020E+02  0.10000000000E+01 0.  0.
<mgrwt>
<rscale>  0 0.12500116E+03</rscale>
<asrwt>0</asrwt>
<pdfrwt beam="1">  1        4 0.51274570E-02 0.12500116E+03</pdfrwt>
<pdfrwt beam="2">  1       -4 0.18031811E-01 0.12500116E+03</pdfrwt>
<totfact> 0.99194528E+03</totfact>
</mgrwt>
</event>
<event>
 5    1  0.3282316E-002  0.1250404E+03  0.7818608E-02  0.1235006E+00
         -4   -1    0    0    0  501 -0.00000000000E+00  0.00000000000E+00  0.31668054934E+02  0.31693510429E+02  0.12700000000E+01 0.  1.
          4   -1    0    0  501    0  0.00000000000E+00 -0.00000000000E+00 -0.12335127785E+03  0.12335781551E+03  0.12700000000E+01 0.  1.
         25    2    1    2    0    0  0.00000000000E+00  0.00000000000E+00 -0.91683222916E+02  0.15505132594E+03  0.12504039472E+03 0.  0.
    9000005    1    3    3    0    0 -0.60453749435E+02 -0.15860186841E+02 -0.47397184155E+02  0.78445486888E+02  0.10000000000E+01 0.  0.
    9000005    1    3    3    0    0  0.60453749435E+02  0.15860186841E+02 -0.44286038762E+02  0.76605839050E+02  0.10000000000E+01 0.  0.
<mgrwt>
<rscale>  0 0.12504039E+03</rscale>
<asrwt>0</asrwt>
<pdfrwt beam="2">  1        4 0.18979580E-01 0.12504039E+03</pdfrwt>
<pdfrwt beam="1">  1       -4 0.48744695E-02 0.12504039E+03</pdfrwt>
<totfact> 0.98216170E+03</totfact>
</mgrwt>
</event>
<event>
 5    1  0.3282316E-002  0.1250041E+03  0.7818608E-02  0.1235063E+00
          4   -1    0    0  501    0  0.00000000000E+00  0.00000000000E+00  0.48862595607E+03  0.48862760651E+03  0.12700000000E+01 0. -1.
         -4   -1    0    0    0  501 -0.00000000000E+00 -0.00000000000E+00 -0.79427662501E+01  0.80436581046E+01  0.12700000000E+01 0. -1.
         25    2    1    2    0    0  0.00000000000E+00  0.00000000000E+00  0.48068318982E+03  0.49667126461E+03  0.12500406441E+03 0.  0.
    9000005    1    3    3    0    0  0.61333521194E+02 -0.10555590520E+02  0.21776648168E+03  0.22648722228E+03  0.10000000000E+01 0.  0.
    9000005    1    3    3    0    0 -0.61333521194E+02  0.10555590520E+02  0.26291670814E+03  0.27018404233E+03  0.10000000000E+01 0.  0.
<mgrwt>
<rscale>  0 0.12500406E+03</rscale>
<asrwt>0</asrwt>
<pdfrwt beam="1">  1        4 0.75181113E-01 0.12500406E+03</pdfrwt>
<pdfrwt beam="2">  1       -4 0.12298519E-02 0.12500406E+03</pdfrwt>
<totfact> 0.56118545E+03</totfact>
</mgrwt>
</event>
<event>
 5    1  0.3282316E-002  0.1249993E+03  0.7818608E-02  0.1235070E+00
          4   -1    0    0  501    0  0.00000000000E+00  0.00000000000E+00  0.26871261879E+02  0.26901256755E+02  0.12700000000E+01 0.  1.
         -4   -1    0    0    0  501 -0.00000000000E+00 -0.00000000000E+00 -0.14525346434E+03  0.14525901625E+03  0.12700000000E+01 0.  1.
         25    2    1    2    0    0  0.00000000000E+00  0.00000000000E+00 -0.11838220246E+03  0.17216027300E+03  0.12499925497E+03 0.  0.
    9000005    1    3    3    0    0  0.57591839207E+02  0.37821972128E+01 -0.26191313184E+02  0.63388562417E+02  0.10000000000E+01 0.  0.
    9000005    1    3    3    0    0 -0.57591839207E+02 -0.37821972128E+01 -0.92190889274E+02  0.10877171059E+03  0.10000000000E+01 0.  0.
<mgrwt>
<rscale>  0 0.12499925E+03</rscale>
<asrwt>0</asrwt>
<pdfrwt beam="1">  1        4 0.41367748E-02 0.12499925E+03</pdfrwt>
<pdfrwt beam="2">  1       -4 0.22349421E-01 0.12499925E+03</pdfrwt>
<totfact> 0.95049107E+03</totfact>
</mgrwt>
</event>
<event>
 5    1  0.3282316E-002  0.1249965E+03  0.7818608E-02  0.1235075E+00
         -4   -1    0    0    0  501 -0.00000000000E+00  0.00000000000E+00  0.27074746023E+03  0.27075043882E+03  0.12700000000E+01 0.  1.
          4   -1    0    0  501    0  0.00000000000E+00 -0.00000000000E+00 -0.14395830975E+02  0.14451742091E+02  0.12700000000E+01 0.  1.
         25    2    1    2    0    0  0.00000000000E+00  0.00000000000E+00  0.25635162926E+03  0.28520218091E+03  0.12499650465E+03 0.  0.
    9000005    1    3    3    0    0  0.31798440184E+02  0.22393262243E+02  0.23977854631E+03  0.24291428583E+03  0.10000000000E+01 0.  0.
    9000005    1    3    3    0    0 -0.31798440184E+02 -0.22393262243E+02  0.16573082951E+02  0.42287895083E+02  0.10000000000E+01 0.  0.
<mgrwt>
<rscale>  0 0.12499650E+03</rscale>
<asrwt>0</asrwt>
<pdfrwt beam="2">  1        4 0.22192732E-02 0.12499650E+03</pdfrwt>
<pdfrwt beam="1">  1       -4 0.41657985E-01 0.12499650E+03</pdfrwt>
<totfact> 0.77499370E+03</totfact>
</mgrwt>
</event>
<event>
 5    1  0.3282316E-002  0.1250009E+03  0.7818608E-02  0.1235068E+00
          4   -1    0    0  501    0  0.00000000000E+00  0.00000000000E+00  0.13638338957E+03  0.13638930255E+03  0.12700000000E+01 0. -1.
         -4   -1    0    0    0  501 -0.00000000000E+00 -0.00000000000E+00 -0.28621461146E+02  0.28649623699E+02  0.12700000000E+01 0. -1.
         25    2    1    2    0    0  0.00000000000E+00  0.00000000000E+00  0.10776192842E+03  0.16503892625E+03  0.12500085584E+03 0.  0.
    9000005    1    3    3    0    0 -0.56820241763E+02 -0.13509607606E+02  0.83233697699E+02  0.10168528804E+03  0.10000000000E+01 0.  0.
    9000005    1    3    3    0    0  0.56820241763E+02  0.13509607606E+02  0.24528230724E+02  0.63353638208E+02  0.10000000000E+01 0.  0.
<mgrwt>
<rscale>  0 0.12500086E+03</rscale>
<asrwt>0</asrwt>
<pdfrwt beam="1">  1        4 0.20984682E-01 0.12500086E+03</pdfrwt>
<pdfrwt beam="2">  1       -4 0.44059228E-02 0.12500086E+03</pdfrwt>
<totfact> 0.96378167E+03</totfact>
</mgrwt>
</event>
<event>
 5    1  0.3282316E-002  0.1250000E+03  0.7818608E-02  0.1235069E+00
          4   -1    0    0  501    0  0.00000000000E+00  0.00000000000E+00  0.10111456903E+02  0.10190900877E+02  0.12700000000E+01 0. -1.
         -4   -1    0    0    0  501 -0.00000000000E+00 -0.00000000000E+00 -0.38472674775E+03  0.38472884390E+03  0.12700000000E+01 0. -1.
         25    2    1    2    0    0  0.00000000000E+00  0.00000000000E+00 -0.37461529084E+03  0.39491974478E+03  0.12499995474E+03 0.  0.
    9000005    1    3    3    0    0 -0.18549099820E+02  0.50576397446E+02 -0.28737538082E+03  0.29238271252E+03  0.10000000000E+01 0.  0.
    9000005    1    3    3    0    0  0.18549099820E+02 -0.50576397446E+02 -0.87239910027E+02  0.10253703226E+03  0.10000000000E+01 0.  0.
<mgrwt>
<rscale>  0 0.12499995E+03</rscale>
<asrwt>0</asrwt>
<pdfrwt beam="1">  1        4 0.15618814E-02 0.12499995E+03</pdfrwt>
<pdfrwt beam="2">  1       -4 0.59194992E-01 0.12499995E+03</pdfrwt>
<totfact> 0.65049976E+03</totfact>
</mgrwt>
</event>
<event>
 5    1  0.3282316E-002  0.1250035E+03  0.7818608E-02  0.1235064E+00
          4   -1    0    0  501    0  0.00000000000E+00  0.00000000000E+00  0.28175741393E+03  0.28176027613E+03  0.12700000000E+01 0. -1.
         -4   -1    0    0    0  501 -0.00000000000E+00 -0.00000000000E+00 -0.13832626010E+02  0.13890804237E+02  0.12700000000E+01 0. -1.
         25    2    1    2    0    0  0.00000000000E+00  0.00000000000E+00  0.26792478792E+03  0.29565108037E+03  0.12500347731E+03 0.  0.
    9000005    1    3    3    0    0 -0.25490392950E+02 -0.39046810297E+02  0.35558414902E+02  0.58649930924E+02  0.10000000000E+01 0.  0.
    9000005    1    3    3    0    0  0.25490392950E+02  0.39046810297E+02  0.23236637302E+03  0.23700114944E+03  0.10000000000E+01 0.  0.
<mgrwt>
<rscale>  0 0.12500348E+03</rscale>
<asrwt>0</asrwt>
<pdfrwt beam="1">  1        4 0.43351987E-01 0.12500348E+03</pdfrwt>
<pdfrwt beam="2">  1       -4 0.21327919E-02 0.12500348E+03</pdfrwt>
<totfact> 0.76141739E+03</totfact>
</mgrwt>
</event>
<event>
 5    1  0.3282316E-002  0.1250212E+03  0.7818608E-02  0.1235036E+00
         -4   -1    0    0    0  501 -0.00000000000E+00  0.00000000000E+00  0.31253133121E+03  0.31253391158E+03  0.12700000000E+01 0. -1.
          4   -1    0    0  501    0  0.00000000000E+00 -0.00000000000E+00 -0.12468104552E+02  0.12532618686E+02  0.12700000000E+01 0. -1.
         25    2    1    2    0    0  0.00000000000E+00  0.00000000000E+00  0.30006322665E+03  0.32506653026E+03  0.12502123463E+03 0.  0.
    9000005    1    3    3    0    0  0.50243688233E+02  0.35912297525E+02  0.17503252923E+03  0.18561117318E+03  0.10000000000E+01 0.  0.
    9000005    1    3    3    0    0 -0.50243688233E+02 -0.35912297525E+02  0.12503069743E+03  0.13945535709E+03  0.10000000000E+01 0.  0.
<mgrwt>
<rscale>  0 0.12502123E+03</rscale>
<asrwt>0</asrwt>
<pdfrwt beam="2">  1        4 0.19233312E-02 0.12502123E+03</pdfrwt>
<pdfrwt beam="1">  1       -4 0.48086901E-01 0.12502123E+03</pdfrwt>
<totfact> 0.72523421E+03</totfact>
</mgrwt>
</event>
<event>
 5    1  0.3282316E-002  0.1250014E+03  0.7818608E-02  0.1235067E+00
         -4   -1    0    0    0  501 -0.00000000000E+00  0.00000000000E+00  0.23837129759E+01  0.27009234627E+01  0.12700000000E+01 0.  1.
          4   -1    0    0  501    0  0.00000000000E+00 -0.00000000000E+00 -0.15362073564E+04  0.15362078813E+04  0.12700000000E+01 0.  1.
         25    2    1    2    0    0  0.00000000000E+00  0.00000000000E+00 -0.15338236434E+04  0.15389088048E+04  0.12500136175E+03 0.  0.
    9000005    1    3    3    0    0 -0.52722644810E+02  0.31423945679E+02 -0.91163627052E+03  0.91370062458E+03  0.10000000000E+01 0.  0.
    9000005    1    3    3    0    0  0.52722644810E+02 -0.31423945679E+02 -0.62218737288E+03  0.62520818022E+03  0.10000000000E+01 0.  0.
<mgrwt>
<rscale>  0 0.12500136E+03</rscale>
<asrwt>0</asrwt>
<pdfrwt beam="2">  1        4 0.23636329E+00 0.12500136E+03</pdfrwt>
<pdfrwt beam="1">  1       -4 0.39116749E-03 0.12500136E+03</pdfrwt>
<totfact> 0.17177700E+03</totfact>
</mgrwt>
</event>
<event>
 5    1  0.3282316E-002  0.1249981E+03  0.7818608E-02  0.1235072E+00
          4   -1    0    0  501    0  0.00000000000E+00  0.00000000000E+00  0.11652906177E+04  0.11652913097E+04  0.12700000000E+01 0. -1.
         -4   -1    0    0    0  501 -0.00000000000E+00 -0.00000000000E+00 -0.32310560976E+01  0.34716888550E+01  0.12700000000E+01 0. -1.
         25    2    1    2    0    0  0.00000000000E+00  0.00000000000E+00  0.11620595616E+04  0.11687629986E+04  0.12499808885E+03 0.  0.
    9000005    1    3    3    0    0  0.40330768745E+02 -0.24602238198E+02  0.19854987224E+03  0.20409530322E+03  0.10000000000E+01 0.  0.
    9000005    1    3    3    0    0 -0.40330768745E+02  0.24602238198E+02  0.96350968935E+03  0.96466769538E+03  0.10000000000E+01 0.  0.
<mgrwt>
<rscale>  0 0.12499809E+03</rscale>
<asrwt>0</asrwt>
<pdfrwt beam="1">  1        4 0.17929417E+00 0.12499809E+03</pdfrwt>
<pdfrwt beam="2">  1       -4 0.51564863E-03 0.12499809E+03</pdfrwt>
<totfact> 0.25546369E+03</totfact>
</mgrwt>
</event>
<event>
 5    1  0.3282316E-002  0.1249987E+03  0.7818608E-02  0.1235071E+00
          4   -1    0    0  501    0  0.00000000000E+00  0.00000000000E+00  0.20519702199E+03  0.20520095208E+03  0.12700000000E+01 0.  1.
         -4   -1    0    0    0  501 -0.00000000000E+00 -0.00000000000E+00 -0.19010875774E+02  0.19053249007E+02  0.12700000000E+01 0.  1.
         25    2    1    2    0    0  0.00000000000E+00  0.00000000000E+00  0.18618614622E+03  0.22425420109E+03  0.12499866264E+03 0.  0.
    9000005    1    3    3    0    0 -0.47868918528E+02 -0.79744485309E+01  0.22457925954E+02  0.53482554432E+02  0.10000000000E+01 0.  0.
    9000005    1    3    3    0    0  0.47868918528E+02  0.79744485309E+01  0.16372822026E+03  0.17077164665E+03  0.10000000000E+01 0.  0.
<mgrwt>
<rscale>  0 0.12499866E+03</rscale>
<asrwt>0</asrwt>
<pdfrwt beam="1">  1        4 0.31572335E-01 0.12499866E+03</pdfrwt>
<pdfrwt beam="2">  1       -4 0.29283118E-02 0.12499866E+03</pdfrwt>
<totfact> 0.86202195E+03</totfact>
</mgrwt>
</event>
<event>
 5    1  0.3282316E-002  0.1250006E+03  0.7818608E-02  0.1235068E+00
          4   -1    0    0  501    0  0.00000000000E+00  0.00000000000E+00  0.45498363609E+02  0.45516084971E+02  0.12700000000E+01 0.  1.
         -4   -1    0    0    0  501 -0.00000000000E+00 -0.00000000000E+00 -0.85816479046E+02  0.85825875911E+02  0.12700000000E+01 0.  1.
         25    2    1    2    0    0  0.00000000000E+00  0.00000000000E+00 -0.40318115437E+02  0.13134196088E+03  0.12500064102E+03 0.  0.
    9000005    1    3    3    0    0  0.30549575488E+02  0.45109933018E+02  0.12006119587E+02  0.55797217914E+02  0.10000000000E+01 0.  0.
    9000005    1    3    3    0    0 -0.30549575488E+02 -0.45109933018E+02 -0.52324235024E+02  0.75544742969E+02  0.10000000000E+01 0.  0.
<mgrwt>
<rscale>  0 0.12500064E+03</rscale>
<asrwt>0</asrwt>
<pdfrwt beam="1">  1        4 0.70018343E-02 0.12500064E+03</pdfrwt>
<pdfrwt beam="2">  1       -4 0.13204621E-01 0.12500064E+03</pdfrwt>
<totfact> 0.10315615E+04</totfact>
</mgrwt>
</event>
<event>
 5    1  0.3282316E-002  0.1250050E+03  0.7818608E-02  0.1235061E+00
         -4   -1    0    0    0  501 -0.00000000000E+00  0.00000000000E+00  0.10621351300E+02  0.10697009088E+02  0.12700000000E+01 0. -1.
          4   -1    0    0  501    0  0.00000000000E+00 -0.00000000000E+00 -0.36642094430E+03  0.36642314518E+03  0.12700000000E+01 0. -1.
         25    2    1    2    0    0  0.00000000000E+00  0.00000000000E+00 -0.35579959300E+03  0.37712015426E+03  0.12500504139E+03 0.  0.
    9000005    1    3    3    0    0 -0.13870793499E+02 -0.48061215143E+02 -0.29091198281E+03  0.29518309751E+03  0.10000000000E+01 0.  0.
    9000005    1    3    3    0    0  0.13870793499E+02  0.48061215143E+02 -0.64887610187E+02  0.81937056752E+02  0.10000000000E+01 0.  0.
<mgrwt>
<rscale>  0 0.12500504E+03</rscale>
<asrwt>0</asrwt>
<pdfrwt beam="2">  1        4 0.56378432E-01 0.12500504E+03</pdfrwt>
<pdfrwt beam="1">  1       -4 0.16400435E-02 0.12500504E+03</pdfrwt>
<totfact> 0.66833114E+03</totfact>
</mgrwt>
</event>
<event>
 5    1  0.3282316E-002  0.1249975E+03  0.7818608E-02  0.1235073E+00
         -4   -1    0    0    0  501 -0.00000000000E+00  0.00000000000E+00  0.60555393976E+01  0.61872819069E+01  0.12700000000E+01 0.  1.
          4   -1    0    0  501    0  0.00000000000E+00 -0.00000000000E+00 -0.63797075946E+03  0.63797202355E+03  0.12700000000E+01 0.  1.
         25    2    1    2    0    0  0.00000000000E+00  0.00000000000E+00 -0.63191522007E+03  0.64415930546E+03  0.12499746179E+03 0.  0.
    9000005    1    3    3    0    0 -0.69880607134E+01  0.61104643115E+02 -0.25892458822E+03  0.26613070621E+03  0.10000000000E+01 0.  0.
    9000005    1    3    3    0    0  0.69880607134E+01 -0.61104643115E+02 -0.37299063185E+03  0.37802859925E+03  0.10000000000E+01 0.  0.
<mgrwt>
<rscale>  0 0.12499746E+03</rscale>
<asrwt>0</asrwt>
<pdfrwt beam="2">  1        4 0.98159526E-01 0.12499746E+03</pdfrwt>
<pdfrwt beam="1">  1       -4 0.94185323E-03 0.12499746E+03</pdfrwt>
<totfact> 0.46196219E+03</totfact>
</mgrwt>
</event>
<event>
 5    1  0.3282316E-002  0.1249973E+03  0.7818608E-02  0.1235074E+00
         -4   -1    0    0    0  501 -0.00000000000E+00  0.00000000000E+00  0.43718609019E+01  0.45525891255E+01  0.12700000000E+01 0.  1.
          4   -1    0    0  501    0  0.00000000000E+00 -0.00000000000E+00 -0.87518494508E+03  0.87518586655E+03  0.12700000000E+01 0.  1.
         25    2    1    2    0    0  0.00000000000E+00  0.00000000000E+00 -0.87081308418E+03  0.87973845567E+03  0.12499729119E+03 0.  0.
    9000005    1    3    3    0    0  0.58106517502E+02 -0.20190415188E+02 -0.51284454316E+03  0.51652158299E+03  0.10000000000E+01 0.  0.
    9000005    1    3    3    0    0 -0.58106517502E+02  0.20190415188E+02 -0.35796854102E+03  0.36321687268E+03  0.10000000000E+01 0.  0.
<mgrwt>
<rscale>  0 0.12499729E+03</rscale>
<asrwt>0</asrwt>
<pdfrwt beam="2">  1        4 0.13465767E+00 0.12499729E+03</pdfrwt>
<pdfrwt beam="1">  1       -4 0.68656774E-03 0.12499729E+03</pdfrwt>
<totfact> 0.34942425E+03</totfact>
</mgrwt>
</event>
<event>
 5    1  0.3282316E-002  0.1249945E+03  0.7818608E-02  0.1235078E+00
          4   -1    0    0  501    0  0.00000000000E+00  0.00000000000E+00  0.33102858548E+03  0.33103102167E+03  0.12700000000E+01 0.  1.
         -4   -1    0    0    0  501 -0.00000000000E+00 -0.00000000000E+00 -0.11762633646E+02  0.11830995322E+02  0.12700000000E+01 0.  1.
         25    2    1    2    0    0  0.00000000000E+00  0.00000000000E+00  0.31926595183E+03  0.34286201699E+03  0.12499445865E+03 0.  0.
    9000005    1    3    3    0    0  0.31144061290E+02  0.43951226853E+02  0.72750697025E+02  0.90528044346E+02  0.10000000000E+01 0.  0.
    9000005    1    3    3    0    0 -0.31144061290E+02 -0.43951226853E+02  0.24651525481E+03  0.25233397264E+03  0.10000000000E+01 0.  0.
<mgrwt>
<rscale>  0 0.12499446E+03</rscale>
<asrwt>0</asrwt>
<pdfrwt beam="1">  1        4 0.50932929E-01 0.12499446E+03</pdfrwt>
<pdfrwt beam="2">  1       -4 0.18150816E-02 0.12499446E+03</pdfrwt>
<totfact> 0.70525670E+03</totfact>
</mgrwt>
</event>
<event>
 5    1  0.3282316E-002  0.1249963E+03  0.7818608E-02  0.1235075E+00
          4   -1    0    0  501    0  0.00000000000E+00  0.00000000000E+00  0.43860990226E+02  0.43879372872E+02  0.12700000000E+01 0.  1.
         -4   -1    0    0    0  501 -0.00000000000E+00 -0.00000000000E+00 -0.89012873428E+02  0.89021932893E+02  0.12700000000E+01 0.  1.
         25    2    1    2    0    0  0.00000000000E+00  0.00000000000E+00 -0.45151883202E+02  0.13290130576E+03  0.12499625801E+03 0.  0.
    9000005    1    3    3    0    0 -0.28723723332E+02 -0.47859541491E+02 -0.52449608660E+02  0.76599931086E+02  0.10000000000E+01 0.  0.
    9000005    1    3    3    0    0  0.28723723332E+02  0.47859541491E+02  0.72977254577E+01  0.56301374678E+02  0.10000000000E+01 0.  0.
<mgrwt>
<rscale>  0 0.12499626E+03</rscale>
<asrwt>0</asrwt>
<pdfrwt beam="1">  1        4 0.67499556E-02 0.12499626E+03</pdfrwt>
<pdfrwt beam="2">  1       -4 0.13696399E-01 0.12499626E+03</pdfrwt>
<totfact> 0.10283366E+04</totfact>
</mgrwt>
</event>
<event>
 5    1  0.3282316E-002  0.1249954E+03  0.7818608E-02  0.1235076E+00
         -4   -1    0    0    0  501 -0.00000000000E+00  0.00000000000E+00  0.41927399049E+02  0.41946629078E+02  0.12700000000E+01 0. -1.
          4   -1    0    0  501    0  0.00000000000E+00 -0.00000000000E+00 -0.93115250492E+02  0.93123910861E+02  0.12700000000E+01 0. -1.
         25    2    1    2    0    0  0.00000000000E+00  0.00000000000E+00 -0.51187851443E+02  0.13507053994E+03  0.12499541841E+03 0.  0.
    9000005    1    3    3    0    0 -0.66052316268E+01 -0.54637449808E+02 -0.57578408260E+02  0.79656469318E+02  0.10000000000E+01 0.  0.
    9000005    1    3    3    0    0  0.66052316268E+01  0.54637449808E+02  0.63905568168E+01  0.55414070622E+02  0.10000000000E+01 0.  0.
<mgrwt>
<rscale>  0 0.12499542E+03</rscale>
<asrwt>0</asrwt>
<pdfrwt beam="2">  1        4 0.14327569E-01 0.12499542E+03</pdfrwt>
<pdfrwt beam="1">  1       -4 0.64525145E-02 0.12499542E+03</pdfrwt>
<totfact> 0.10237642E+04</totfact>
</mgrwt>
</event>
<event>
 5    1  0.3282316E-002  0.1249970E+03  0.7818608E-02  0.1235074E+00
          4   -1    0    0  501    0  0.00000000000E+00  0.00000000000E+00  0.20793438138E+03  0.20793825973E+03  0.12700000000E+01 0.  1.
         -4   -1    0    0    0  501 -0.00000000000E+00 -0.00000000000E+00 -0.18759544831E+02  0.18802484471E+02  0.12700000000E+01 0.  1.
         25    2    1    2    0    0  0.00000000000E+00  0.00000000000E+00  0.18917483655E+03  0.22674074420E+03  0.12499698516E+03 0.  0.
    9000005    1    3    3    0    0 -0.67079500062E+01 -0.13924766197E+02 -0.15246400671E+02  0.21733578636E+02  0.10000000000E+01 0.  0.
    9000005    1    3    3    0    0  0.67079500062E+01  0.13924766197E+02  0.20442123722E+03  0.20500716557E+03  0.10000000000E+01 0.  0.
<mgrwt>
<rscale>  0 0.12499699E+03</rscale>
<asrwt>0</asrwt>
<pdfrwt beam="1">  1        4 0.31993506E-01 0.12499699E+03</pdfrwt>
<pdfrwt beam="2">  1       -4 0.28896852E-02 0.12499699E+03</pdfrwt>
<totfact> 0.85818357E+03</totfact>
</mgrwt>
</event>
<event>
 5    1  0.3282316E-002  0.1249955E+03  0.7818608E-02  0.1235076E+00
          4   -1    0    0  501    0  0.00000000000E+00  0.00000000000E+00  0.96160906952E+02  0.96169293051E+02  0.12700000000E+01 0. -1.
         -4   -1    0    0    0  501 -0.00000000000E+00 -0.00000000000E+00 -0.40599020183E+02  0.40618879106E+02  0.12700000000E+01 0. -1.
         25    2    1    2    0    0  0.00000000000E+00  0.00000000000E+00  0.55561886769E+02  0.13678817216E+03  0.12499552304E+03 0.  0.
    9000005    1    3    3    0    0 -0.85927402637E+01  0.43442617385E+02 -0.20468037444E+02  0.48795868138E+02  0.10000000000E+01 0.  0.
    9000005    1    3    3    0    0  0.85927402637E+01 -0.43442617385E+02  0.76029924214E+02  0.87992304018E+02  0.10000000000E+01 0.  0.
<mgrwt>
<rscale>  0 0.12499552E+03</rscale>
<asrwt>0</asrwt>
<pdfrwt beam="1">  1        4 0.14796158E-01 0.12499552E+03</pdfrwt>
<pdfrwt beam="2">  1       -4 0.62481759E-02 0.12499552E+03</pdfrwt>
<totfact> 0.10201546E+04</totfact>
</mgrwt>
</event>
<event>
 5    1  0.3282316E-002  0.1250021E+03  0.7818608E-02  0.1235066E+00
         -4   -1    0    0    0  501 -0.00000000000E+00  0.00000000000E+00  0.50899040977E+01  0.52459530806E+01  0.12700000000E+01 0.  1.
          4   -1    0    0  501    0  0.00000000000E+00 -0.00000000000E+00 -0.75573253338E+03  0.75573360049E+03  0.12700000000E+01 0.  1.
         25    2    1    2    0    0  0.00000000000E+00  0.00000000000E+00 -0.75064262928E+03  0.76097955357E+03  0.12500209621E+03 0.  0.
    9000005    1    3    3    0    0  0.83855028394E+01 -0.40903437873E+02 -0.65838283682E+03  0.65970627382E+03  0.10000000000E+01 0.  0.
    9000005    1    3    3    0    0 -0.83855028394E+01  0.40903437873E+02 -0.92259792457E+02  0.10127327975E+03  0.10000000000E+01 0.  0.
<mgrwt>
<rscale>  0 0.12500210E+03</rscale>
<asrwt>0</asrwt>
<pdfrwt beam="2">  1        4 0.11627854E+00 0.12500210E+03</pdfrwt>
<pdfrwt beam="1">  1       -4 0.79514862E-03 0.12500210E+03</pdfrwt>
<totfact> 0.40052603E+03</totfact>
</mgrwt>
</event>
<event>
 5    1  0.3282316E-002  0.1249997E+03  0.7818608E-02  0.1235070E+00
          4   -1    0    0  501    0  0.00000000000E+00  0.00000000000E+00  0.16200674601E+03  0.16201172382E+03  0.12700000000E+01 0. -1.
         -4   -1    0    0    0  501 -0.00000000000E+00 -0.00000000000E+00 -0.24089465541E+02  0.24122919600E+02  0.12700000000E+01 0. -1.
         25    2    1    2    0    0  0.00000000000E+00  0.00000000000E+00  0.13791728047E+03  0.18613464342E+03  0.12499971691E+03 0.  0.
    9000005    1    3    3    0    0  0.46704083818E+02 -0.26786294641E+01  0.13065737229E+03  0.13878326785E+03  0.10000000000E+01 0.  0.
    9000005    1    3    3    0    0 -0.46704083818E+02  0.26786294641E+01  0.72599081797E+01  0.47351375565E+02  0.10000000000E+01 0.  0.
<mgrwt>
<rscale>  0 0.12499972E+03</rscale>
<asrwt>0</asrwt>
<pdfrwt beam="1">  1        4 0.24927070E-01 0.12499972E+03</pdfrwt>
<pdfrwt beam="2">  1       -4 0.37090281E-02 0.12499972E+03</pdfrwt>
<totfact> 0.92524845E+03</totfact>
</mgrwt>
</event>
<event>
 5    1  0.3282316E-002  0.1249960E+03  0.7818608E-02  0.1235076E+00
          4   -1    0    0  501    0  0.00000000000E+00  0.00000000000E+00  0.71557634741E+02  0.71568903790E+02  0.12700000000E+01 0. -1.
         -4   -1    0    0    0  501 -0.00000000000E+00 -0.00000000000E+00 -0.54562416732E+02  0.54577195051E+02  0.12700000000E+01 0. -1.
         25    2    1    2    0    0  0.00000000000E+00  0.00000000000E+00  0.16995218009E+02  0.12614609884E+03  0.12499600321E+03 0.  0.
    9000005    1    3    3    0    0 -0.33108361333E+01  0.41587097878E+02 -0.38455212512E+02  0.56747261742E+02  0.10000000000E+01 0.  0.
    9000005    1    3    3    0    0  0.33108361333E+01 -0.41587097878E+02  0.55450430521E+02  0.69398837100E+02  0.10000000000E+01 0.  0.
<mgrwt>
<rscale>  0 0.12499600E+03</rscale>
<asrwt>0</asrwt>
<pdfrwt beam="1">  1        4 0.11010870E-01 0.12499600E+03</pdfrwt>
<pdfrwt beam="2">  1       -4 0.83962216E-02 0.12499600E+03</pdfrwt>
<totfact> 0.10428698E+04</totfact>
</mgrwt>
</event>
<event>
 5    1  0.3282316E-002  0.1250019E+03  0.7818608E-02  0.1235066E+00
          4   -1    0    0  501    0  0.00000000000E+00  0.00000000000E+00  0.21312514717E+02  0.21350320456E+02  0.12700000000E+01 0.  1.
         -4   -1    0    0    0  501 -0.00000000000E+00 -0.00000000000E+00 -0.18308735429E+03  0.18309175897E+03  0.12700000000E+01 0.  1.
         25    2    1    2    0    0  0.00000000000E+00  0.00000000000E+00 -0.16177483957E+03  0.20444207942E+03  0.12500186046E+03 0.  0.
    9000005    1    3    3    0    0 -0.73316057909E+01  0.60524210756E+02 -0.10333828884E+03  0.11998639286E+03  0.10000000000E+01 0.  0.
    9000005    1    3    3    0    0  0.73316057909E+01 -0.60524210756E+02 -0.58436550737E+02  0.84455686565E+02  0.10000000000E+01 0.  0.
<mgrwt>
<rscale>  0 0.12500186E+03</rscale>
<asrwt>0</asrwt>
<pdfrwt beam="1">  1        4 0.32820955E-02 0.12500186E+03</pdfrwt>
<pdfrwt beam="2">  1       -4 0.28170531E-01 0.12500186E+03</pdfrwt>
<totfact> 0.89387964E+03</totfact>
</mgrwt>
</event>
<event>
 5    1  0.3282316E-002  0.1249985E+03  0.7818608E-02  0.1235072E+00
          4   -1    0    0  501    0  0.00000000000E+00  0.00000000000E+00  0.18588241918E+01  0.22512501807E+01  0.12700000000E+01 0. -1.
         -4   -1    0    0    0  501 -0.00000000000E+00 -0.00000000000E+00 -0.19003792139E+04  0.19003796383E+04  0.12700000000E+01 0. -1.
         25    2    1    2    0    0  0.00000000000E+00  0.00000000000E+00 -0.18985203897E+04  0.19026308885E+04  0.12499851008E+03 0.  0.
    9000005    1    3    3    0    0 -0.12335389954E+02  0.60488190154E+02 -0.10969719146E+04  0.10987080433E+04  0.10000000000E+01 0.  0.
    9000005    1    3    3    0    0  0.12335389954E+02 -0.60488190154E+02 -0.80154847513E+03  0.80392284517E+03  0.10000000000E+01 0.  0.
<mgrwt>
<rscale>  0 0.12499851E+03</rscale>
<asrwt>0</asrwt>
<pdfrwt beam="1">  1        4 0.31619373E-03 0.12499851E+03</pdfrwt>
<pdfrwt beam="2">  1       -4 0.29239485E+00 0.12499851E+03</pdfrwt>
<totfact> 0.11186641E+03</totfact>
</mgrwt>
</event>
<event>
 5    1  0.3282316E-002  0.1250015E+03  0.7818608E-02  0.1235067E+00
          4   -1    0    0  501    0  0.00000000000E+00  0.00000000000E+00  0.41932540369E+02  0.41951768042E+02  0.12700000000E+01 0. -1.
         -4   -1    0    0    0  501 -0.00000000000E+00 -0.00000000000E+00 -0.93112893246E+02  0.93121553835E+02  0.12700000000E+01 0. -1.
         25    2    1    2    0    0  0.00000000000E+00  0.00000000000E+00 -0.51180352877E+02  0.13507332188E+03  0.12500149504E+03 0.  0.
    9000005    1    3    3    0    0 -0.44278557594E+02 -0.12107151080E+01 -0.73224811258E+02  0.85585801845E+02  0.10000000000E+01 0.  0.
    9000005    1    3    3    0    0  0.44278557594E+02  0.12107151080E+01  0.22044458381E+02  0.49487520032E+02  0.10000000000E+01 0.  0.
<mgrwt>
<rscale>  0 0.12500150E+03</rscale>
<asrwt>0</asrwt>
<pdfrwt beam="1">  1        4 0.64533053E-02 0.12500150E+03</pdfrwt>
<pdfrwt beam="2">  1       -4 0.14327206E-01 0.12500150E+03</pdfrwt>
<totfact> 0.10236181E+04</totfact>
</mgrwt>
</event>
<event>
 5    1  0.3282316E-002  0.1249979E+03  0.7818608E-02  0.1235073E+00
         -4   -1    0    0    0  501 -0.00000000000E+00  0.00000000000E+00  0.70878563778E+01  0.72007366312E+01  0.12700000000E+01 0. -1.
          4   -1    0    0  501    0  0.00000000000E+00 -0.00000000000E+00 -0.54663246657E+03  0.54663394187E+03  0.12700000000E+01 0. -1.
         25    2    1    2    0    0  0.00000000000E+00  0.00000000000E+00 -0.53954461019E+03  0.55383467850E+03  0.12499785889E+03 0.  0.
    9000005    1    3    3    0    0 -0.18979191244E+01 -0.62312247886E+02 -0.25061328088E+03  0.25825265708E+03  0.10000000000E+01 0.  0.
    9000005    1    3    3    0    0  0.18979191244E+01  0.62312247886E+02 -0.28893132931E+03  0.29558202142E+03  0.10000000000E+01 0.  0.
<mgrwt>
<rscale>  0 0.12499786E+03</rscale>
<asrwt>0</asrwt>
<pdfrwt beam="2">  1        4 0.84106066E-01 0.12499786E+03</pdfrwt>
<pdfrwt beam="1">  1       -4 0.10992365E-02 0.12499786E+03</pdfrwt>
<totfact> 0.51920146E+03</totfact>
</mgrwt>
</event>
<event>
 5    1  0.3282316E-002  0.1249960E+03  0.7818608E-02  0.1235076E+00
         -4   -1    0    0    0  501 -0.00000000000E+00  0.00000000000E+00  0.13558374361E+02  0.13617724307E+02  0.12700000000E+01 0.  1.
          4   -1    0    0  501    0  0.00000000000E+00 -0.00000000000E+00 -0.28739764481E+03  0.28740045083E+03  0.12700000000E+01 0.  1.
         25    2    1    2    0    0  0.00000000000E+00  0.00000000000E+00 -0.27383927044E+03  0.30101817514E+03  0.12499598285E+03 0.  0.
    9000005    1    3    3    0    0  0.24486611796E+02 -0.40806883865E+02 -0.39388009292E+02  0.61783583613E+02  0.10000000000E+01 0.  0.
    9000005    1    3    3    0    0 -0.24486611796E+02  0.40806883865E+02 -0.23445126115E+03  0.23923459153E+03  0.10000000000E+01 0.  0.
<mgrwt>
<rscale>  0 0.12499598E+03</rscale>
<asrwt>0</asrwt>
<pdfrwt beam="2">  1        4 0.44219799E-01 0.12499598E+03</pdfrwt>
<pdfrwt beam="1">  1       -4 0.20906852E-02 0.12499598E+03</pdfrwt>
<totfact> 0.75478030E+03</totfact>
</mgrwt>
</event>
<event>
 5    1  0.3282316E-002  0.1250014E+03  0.7818608E-02  0.1235067E+00
          4   -1    0    0  501    0  0.00000000000E+00  0.00000000000E+00  0.21129803489E+02  0.21167935550E+02  0.12700000000E+01 0. -1.
         -4   -1    0    0    0  501 -0.00000000000E+00 -0.00000000000E+00 -0.18466629428E+03  0.18467066129E+03  0.12700000000E+01 0. -1.
         25    2    1    2    0    0  0.00000000000E+00  0.00000000000E+00 -0.16353649079E+03  0.20583859684E+03  0.12500137652E+03 0.  0.
    9000005    1    3    3    0    0 -0.37481009890E+02 -0.49981200968E+02 -0.79222800326E+02  0.10089697044E+03  0.10000000000E+01 0.  0.
    9000005    1    3    3    0    0  0.37481009890E+02  0.49981200968E+02 -0.84313690465E+02  0.10494162640E+03  0.10000000000E+01 0.  0.
<mgrwt>
<rscale>  0 0.12500138E+03</rscale>
<asrwt>0</asrwt>
<pdfrwt beam="1">  1        4 0.32540083E-02 0.12500138E+03</pdfrwt>
<pdfrwt beam="2">  1       -4 0.28413467E-01 0.12500138E+03</pdfrwt>
<totfact> 0.89157290E+03</totfact>
</mgrwt>
</event>
<event>
 5    1  0.3282316E-002  0.1249974E+03  0.7818608E-02  0.1235073E+00
          4   -1    0    0  501    0  0.00000000000E+00  0.00000000000E+00  0.32946446067E+02  0.32970914583E+02  0.12700000000E+01 0. -1.
         -4   -1    0    0    0  501 -0.00000000000E+00 -0.00000000000E+00 -0.11848684955E+03  0.11849365560E+03  0.12700000000E+01 0. -1.
         25    2    1    2    0    0  0.00000000000E+00  0.00000000000E+00 -0.85540403484E+02  0.15146457018E+03  0.12499742154E+03 0.  0.
    9000005    1    3    3    0    0 -0.25391939272E+02 -0.18234028366E+02  0.22796757425E+02  0.38703004012E+02  0.10000000000E+01 0.  0.
    9000005    1    3    3    0    0  0.25391939272E+02  0.18234028366E+02 -0.10833716091E+03  0.11276156617E+03  0.10000000000E+01 0.  0.
<mgrwt>
<rscale>  0 0.12499742E+03</rscale>
<asrwt>0</asrwt>
<pdfrwt beam="1">  1        4 0.50710898E-02 0.12499742E+03</pdfrwt>
<pdfrwt beam="2">  1       -4 0.18231152E-01 0.12499742E+03</pdfrwt>
<totfact> 0.99018301E+03</totfact>
</mgrwt>
</event>
<event>
 5    1  0.3282316E-002  0.1250017E+03  0.7818608E-02  0.1235067E+00
         -4   -1    0    0    0  501 -0.00000000000E+00  0.00000000000E+00  0.45082428607E+01  0.46837115294E+01  0.12700000000E+01 0.  1.
          4   -1    0    0  501    0  0.00000000000E+00 -0.00000000000E+00 -0.84977493792E+03  0.84977588694E+03  0.12700000000E+01 0.  1.
         25    2    1    2    0    0  0.00000000000E+00  0.00000000000E+00 -0.84526669506E+03  0.85445959847E+03  0.12500167852E+03 0.  0.
    9000005    1    3    3    0    0 -0.20524729149E+02  0.75597782876E+01 -0.82278899274E+03  0.82308027636E+03  0.10000000000E+01 0.  0.
    9000005    1    3    3    0    0  0.20524729149E+02 -0.75597782876E+01 -0.22477702322E+02  0.31379322110E+02  0.10000000000E+01 0.  0.
<mgrwt>
<rscale>  0 0.12500168E+03</rscale>
<asrwt>0</asrwt>
<pdfrwt beam="2">  1        4 0.13074805E+00 0.12500168E+03</pdfrwt>
<pdfrwt beam="1">  1       -4 0.70714709E-03 0.12500168E+03</pdfrwt>
<totfact> 0.35944238E+03</totfact>
</mgrwt>
</event>
<event>
 5    1  0.3282316E-002  0.1250006E+03  0.7818608E-02  0.1235068E+00
         -4   -1    0    0    0  501 -0.00000000000E+00  0.00000000000E+00  0.16771492085E+02  0.16819507923E+02  0.12700000000E+01 0. -1.
          4   -1    0    0  501    0  0.00000000000E+00 -0.00000000000E+00 -0.23252950593E+03  0.23253297406E+03  0.12700000000E+01 0. -1.
         25    2    1    2    0    0  0.00000000000E+00  0.00000000000E+00 -0.21575801384E+03  0.24935248199E+03  0.12500055894E+03 0.  0.
    9000005    1    3    3    0    0  0.56134557287E+02 -0.27395794700E+02 -0.11169887186E+03  0.12798146766E+03  0.10000000000E+01 0.  0.
    9000005    1    3    3    0    0 -0.56134557287E+02  0.27395794700E+02 -0.10405914198E+03  0.12137101433E+03  0.10000000000E+01 0.  0.
<mgrwt>
<rscale>  0 0.12500056E+03</rscale>
<asrwt>0</asrwt>
<pdfrwt beam="2">  1        4 0.35777728E-01 0.12500056E+03</pdfrwt>
<pdfrwt beam="1">  1       -4 0.25841900E-02 0.12500056E+03</pdfrwt>
<totfact> 0.82422879E+03</totfact>
</mgrwt>
</event>
<event>
 5    1  0.3282316E-002  0.1249973E+03  0.7818608E-02  0.1235073E+00
          4   -1    0    0  501    0  0.00000000000E+00  0.00000000000E+00  0.32351858217E+02  0.32376776092E+02  0.12700000000E+01 0.  1.
         -4   -1    0    0    0  501 -0.00000000000E+00 -0.00000000000E+00 -0.12066280750E+03  0.12066949082E+03  0.12700000000E+01 0.  1.
         25    2    1    2    0    0  0.00000000000E+00  0.00000000000E+00 -0.88310949285E+02  0.15304626691E+03  0.12499734418E+03 0.  0.
    9000005    1    3    3    0    0 -0.47522398435E+02  0.38574959500E+01  0.53050589750E+01  0.47983354184E+02  0.10000000000E+01 0.  0.
    9000005    1    3    3    0    0  0.47522398435E+02 -0.38574959500E+01 -0.93616008260E+02  0.10506291273E+03  0.10000000000E+01 0.  0.
<mgrwt>
<rscale>  0 0.12499734E+03</rscale>
<asrwt>0</asrwt>
<pdfrwt beam="1">  1        4 0.49796399E-02 0.12499734E+03</pdfrwt>
<pdfrwt beam="2">  1       -4 0.18565939E-01 0.12499734E+03</pdfrwt>
<totfact> 0.98705798E+03</totfact>
</mgrwt>
</event>
<event>
 5    1  0.3282316E-002  0.1249989E+03  0.7818608E-02  0.1235071E+00
          4   -1    0    0  501    0  0.00000000000E+00  0.00000000000E+00  0.12372398273E+03  0.12373050070E+03  0.12700000000E+01 0. -1.
         -4   -1    0    0    0  501 -0.00000000000E+00 -0.00000000000E+00 -0.31551601548E+02  0.31577150920E+02  0.12700000000E+01 0. -1.
         25    2    1    2    0    0  0.00000000000E+00  0.00000000000E+00  0.92172381183E+02  0.15530765162E+03  0.12499887519E+03 0.  0.
    9000005    1    3    3    0    0 -0.45745989877E+02  0.19835983199E+02  0.92889943915E+02  0.10543103670E+03  0.10000000000E+01 0.  0.
    9000005    1    3    3    0    0  0.45745989877E+02 -0.19835983199E+02 -0.71756273197E+00  0.49876614917E+02  0.10000000000E+01 0.  0.
<mgrwt>
<rscale>  0 0.12499888E+03</rscale>
<asrwt>0</asrwt>
<pdfrwt beam="1">  1        4 0.19036925E-01 0.12499888E+03</pdfrwt>
<pdfrwt beam="2">  1       -4 0.48565594E-02 0.12499888E+03</pdfrwt>
<totfact> 0.98257623E+03</totfact>
</mgrwt>
</event>
<event>
 5    1  0.3282316E-002  0.1250058E+03  0.7818608E-02  0.1235060E+00
         -4   -1    0    0    0  501 -0.00000000000E+00  0.00000000000E+00  0.25595723326E+03  0.25596038396E+03  0.12700000000E+01 0.  1.
          4   -1    0    0  501    0  0.00000000000E+00 -0.00000000000E+00 -0.15233091863E+02  0.15285940851E+02  0.12700000000E+01 0.  1.
         25    2    1    2    0    0  0.00000000000E+00  0.00000000000E+00  0.24072414139E+03  0.27124632481E+03  0.12500582576E+03 0.  0.
    9000005    1    3    3    0    0 -0.39093807708E+02 -0.17123877871E+02  0.21941990651E+03  0.22353444559E+03  0.10000000000E+01 0.  0.
    9000005    1    3    3    0    0  0.39093807708E+02  0.17123877871E+02  0.21304234885E+02  0.47711879217E+02  0.10000000000E+01 0.  0.
<mgrwt>
<rscale>  0 0.12500583E+03</rscale>
<asrwt>0</asrwt>
<pdfrwt beam="2">  1        4 0.23478605E-02 0.12500583E+03</pdfrwt>
<pdfrwt beam="1">  1       -4 0.39382339E-01 0.12500583E+03</pdfrwt>
<totfact> 0.79342974E+03</totfact>
</mgrwt>
</event>
<event>
 5    1  0.3282316E-002  0.1249992E+03  0.7818608E-02  0.1235071E+00
          4   -1    0    0  501    0  0.00000000000E+00  0.00000000000E+00  0.39557625016E+01  0.41546307861E+01  0.12700000000E+01 0.  1.
         -4   -1    0    0    0  501 -0.00000000000E+00 -0.00000000000E+00 -0.96305788870E+03  0.96305872608E+03  0.12700000000E+01 0.  1.
         25    2    1    2    0    0  0.00000000000E+00  0.00000000000E+00 -0.95910212620E+03  0.96721335687E+03  0.12499915692E+03 0.  0.
    9000005    1    3    3    0    0 -0.69547857467E+01  0.54099312209E+02 -0.71553275744E+03  0.71760938650E+03  0.10000000000E+01 0.  0.
    9000005    1    3    3    0    0  0.69547857467E+01 -0.54099312209E+02 -0.24356936876E+03  0.24960397037E+03  0.10000000000E+01 0.  0.
<mgrwt>
<rscale>  0 0.12499916E+03</rscale>
<asrwt>0</asrwt>
<pdfrwt beam="1">  1        4 0.62394159E-03 0.12499916E+03</pdfrwt>
<pdfrwt beam="2">  1       -4 0.14817793E+00 0.12499916E+03</pdfrwt>
<totfact> 0.31713228E+03</totfact>
</mgrwt>
</event>
<event>
 5    1  0.3282316E-002  0.1250060E+03  0.7818608E-02  0.1235060E+00
          4   -1    0    0  501    0  0.00000000000E+00  0.00000000000E+00  0.21781674885E+02  0.21818667714E+02  0.12700000000E+01 0. -1.
         -4   -1    0    0    0  501 -0.00000000000E+00 -0.00000000000E+00 -0.17916225668E+03  0.17916675785E+03  0.12700000000E+01 0. -1.
         25    2    1    2    0    0  0.00000000000E+00  0.00000000000E+00 -0.15738058180E+03  0.20098542557E+03  0.12500597491E+03 0.  0.
    9000005    1    3    3    0    0 -0.47951163124E+02  0.28509663592E+02 -0.12398104792E+03  0.13595740217E+03  0.10000000000E+01 0.  0.
    9000005    1    3    3    0    0  0.47951163124E+02 -0.28509663592E+02 -0.33399533880E+02  0.65028023394E+02  0.10000000000E+01 0.  0.
<mgrwt>
<rscale>  0 0.12500597E+03</rscale>
<asrwt>0</asrwt>
<pdfrwt beam="1">  1        4 0.33542189E-02 0.12500597E+03</pdfrwt>
<pdfrwt beam="2">  1       -4 0.27566615E-01 0.12500597E+03</pdfrwt>
<totfact> 0.89957546E+03</totfact>
</mgrwt>
</event>
<event>
 5    1  0.3282316E-002  0.1249982E+03  0.7818608E-02  0.1235072E+00
          4   -1    0    0  501    0  0.00000000000E+00  0.00000000000E+00  0.29812089476E+02  0.29839128321E+02  0.12700000000E+01 0.  1.
         -4   -1    0    0    0  501 -0.00000000000E+00 -0.00000000000E+00 -0.13093570337E+03  0.13094186236E+03  0.12700000000E+01 0.  1.
         25    2    1    2    0    0  0.00000000000E+00  0.00000000000E+00 -0.10112361390E+03  0.16078099068E+03  0.12499816669E+03 0.  0.
    9000005    1    3    3    0    0  0.24367709477E+02  0.29226281216E+02 -0.11432191864E+03  0.12049258010E+03  0.10000000000E+01 0.  0.
    9000005    1    3    3    0    0 -0.24367709477E+02 -0.29226281216E+02  0.13198304739E+02  0.40288410577E+02  0.10000000000E+01 0.  0.
<mgrwt>
<rscale>  0 0.12499817E+03</rscale>
<asrwt>0</asrwt>
<pdfrwt beam="1">  1        4 0.45890291E-02 0.12499817E+03</pdfrwt>
<pdfrwt beam="2">  1       -4 0.20146508E-01 0.12499817E+03</pdfrwt>
<totfact> 0.97196432E+03</totfact>
</mgrwt>
</event>
<event>
 5    1  0.3282316E-002  0.1249748E+03  0.7818608E-02  0.1235109E+00
         -4   -1    0    0    0  501 -0.00000000000E+00  0.00000000000E+00  0.23983985358E+02  0.24017586341E+02  0.12700000000E+01 0. -1.
          4   -1    0    0  501    0  0.00000000000E+00 -0.00000000000E+00 -0.16265336432E+03  0.16265832233E+03  0.12700000000E+01 0. -1.
         25    2    1    2    0    0  0.00000000000E+00  0.00000000000E+00 -0.13866937896E+03  0.18667590867E+03  0.12497479033E+03 0.  0.
    9000005    1    3    3    0    0 -0.54876443267E+02  0.14113943941E+02 -0.30011635699E+02  0.64127417822E+02  0.10000000000E+01 0.  0.
    9000005    1    3    3    0    0  0.54876443267E+02 -0.14113943941E+02 -0.10865774326E+03  0.12254849085E+03  0.10000000000E+01 0.  0.
<mgrwt>
<rscale>  0 0.12497479E+03</rscale>
<asrwt>0</asrwt>
<pdfrwt beam="2">  1        4 0.25026560E-01 0.12497479E+03</pdfrwt>
<pdfrwt beam="1">  1       -4 0.36928101E-02 0.12497479E+03</pdfrwt>
<totfact> 0.92481164E+03</totfact>
</mgrwt>
</event>
<event>
 5    1  0.3282316E-002  0.1250362E+03  0.7818608E-02  0.1235013E+00
         -4   -1    0    0    0  501 -0.00000000000E+00  0.00000000000E+00  0.34042478068E+01  0.36334285641E+01  0.12700000000E+01 0. -1.
          4   -1    0    0  501    0  0.00000000000E+00 -0.00000000000E+00 -0.11105096815E+04  0.11105104077E+04  0.12700000000E+01 0. -1.
         25    2    1    2    0    0  0.00000000000E+00  0.00000000000E+00 -0.11071054337E+04  0.11141438363E+04  0.12503618103E+03 0.  0.
    9000005    1    3    3    0    0  0.58513648694E+02  0.21810235714E+02 -0.57872121967E+03  0.58208142348E+03  0.10000000000E+01 0.  0.
    9000005    1    3    3    0    0 -0.58513648694E+02 -0.21810235714E+02 -0.52838421402E+03  0.53206241278E+03  0.10000000000E+01 0.  0.
<mgrwt>
<rscale>  0 0.12503618E+03</rscale>
<asrwt>0</asrwt>
<pdfrwt beam="2">  1        4 0.17086505E+00 0.12503618E+03</pdfrwt>
<pdfrwt beam="1">  1       -4 0.54141647E-03 0.12503618E+03</pdfrwt>
<totfact> 0.27051790E+03</totfact>
</mgrwt>
</event>
<event>
 5    1  0.3282316E-002  0.1250004E+03  0.7818608E-02  0.1235069E+00
          4   -1    0    0  501    0  0.00000000000E+00  0.00000000000E+00  0.28039551294E+02  0.28068297718E+02  0.12700000000E+01 0. -1.
         -4   -1    0    0    0  501 -0.00000000000E+00 -0.00000000000E+00 -0.13921001664E+03  0.13921580957E+03  0.12700000000E+01 0. -1.
         25    2    1    2    0    0  0.00000000000E+00  0.00000000000E+00 -0.11117046535E+03  0.16728410729E+03  0.12500040074E+03 0.  0.
    9000005    1    3    3    0    0 -0.43659686064E+02 -0.41307220717E+02 -0.78485677824E+02  0.98860792502E+02  0.10000000000E+01 0.  0.
    9000005    1    3    3    0    0  0.43659686064E+02  0.41307220717E+02 -0.32684787526E+02  0.68423314785E+02  0.10000000000E+01 0.  0.
<mgrwt>
<rscale>  0 0.12500040E+03</rscale>
<asrwt>0</asrwt>
<pdfrwt beam="1">  1        4 0.43164341E-02 0.12500040E+03</pdfrwt>
<pdfrwt beam="2">  1       -4 0.21419582E-01 0.12500040E+03</pdfrwt>
<totfact> 0.95955696E+03</totfact>
</mgrwt>
</event>
<event>
 5    1  0.3282316E-002  0.1250020E+03  0.7818608E-02  0.1235066E+00
         -4   -1    0    0    0  501 -0.00000000000E+00  0.00000000000E+00  0.34778739729E+03  0.34778971608E+03  0.12700000000E+01 0.  1.
          4   -1    0    0  501    0  0.00000000000E+00 -0.00000000000E+00 -0.11193820816E+02  0.11265634668E+02  0.12700000000E+01 0.  1.
         25    2    1    2    0    0  0.00000000000E+00  0.00000000000E+00  0.33659357647E+03  0.35905535075E+03  0.12500203670E+03 0.  0.
    9000005    1    3    3    0    0  0.73868139270E+00 -0.60749801767E+02  0.12624847881E+03  0.14010982288E+03  0.10000000000E+01 0.  0.
    9000005    1    3    3    0    0 -0.73868139270E+00  0.60749801767E+02  0.21034509766E+03  0.21894552787E+03  0.10000000000E+01 0.  0.
<mgrwt>
<rscale>  0 0.12500204E+03</rscale>
<asrwt>0</asrwt>
<pdfrwt beam="2">  1        4 0.17278289E-02 0.12500204E+03</pdfrwt>
<pdfrwt beam="1">  1       -4 0.53511454E-01 0.12500204E+03</pdfrwt>
<totfact> 0.68736615E+03</totfact>
</mgrwt>
</event>
<event>
 5    1  0.3282316E-002  0.1250006E+03  0.7818608E-02  0.1235068E+00
          4   -1    0    0  501    0  0.00000000000E+00  0.00000000000E+00  0.64522097707E+01  0.65760102589E+01  0.12700000000E+01 0. -1.
         -4   -1    0    0    0  501 -0.00000000000E+00 -0.00000000000E+00 -0.59954138916E+03  0.59954273427E+03  0.12700000000E+01 0. -1.
         25    2    1    2    0    0  0.00000000000E+00  0.00000000000E+00 -0.59308917939E+03  0.60611874453E+03  0.12500063104E+03 0.  0.
    9000005    1    3    3    0    0 -0.60456381030E+02 -0.11782621628E+02 -0.34774273587E+03  0.35315692621E+03  0.10000000000E+01 0.  0.
    9000005    1    3    3    0    0  0.60456381030E+02  0.11782621628E+02 -0.24534644352E+03  0.25296181832E+03  0.10000000000E+01 0.  0.
<mgrwt>
<rscale>  0 0.12500063E+03</rscale>
<asrwt>0</asrwt>
<pdfrwt beam="1">  1        4 0.10022747E-02 0.12500063E+03</pdfrwt>
<pdfrwt beam="2">  1       -4 0.92246720E-01 0.12500063E+03</pdfrwt>
<totfact> 0.48482988E+03</totfact>
</mgrwt>
</event>
<event>
 5    1  0.3282316E-002  0.1250018E+03  0.7818608E-02  0.1235066E+00
         -4   -1    0    0    0  501 -0.00000000000E+00  0.00000000000E+00  0.38518175521E+03  0.38518384889E+03  0.12700000000E+01 0. -1.
          4   -1    0    0  501    0  0.00000000000E+00 -0.00000000000E+00 -0.10099722068E+02  0.10179257628E+02  0.12700000000E+01 0. -1.
         25    2    1    2    0    0  0.00000000000E+00  0.00000000000E+00  0.37508203314E+03  0.39536310652E+03  0.12500181763E+03 0.  0.
    9000005    1    3    3    0    0 -0.40913259956E+02 -0.12966313714E+02  0.33121084611E+03  0.33398150355E+03  0.10000000000E+01 0.  0.
    9000005    1    3    3    0    0  0.40913259956E+02  0.12966313714E+02  0.43871187032E+02  0.61381602970E+02  0.10000000000E+01 0.  0.
<mgrwt>
<rscale>  0 0.12500182E+03</rscale>
<asrwt>0</asrwt>
<pdfrwt beam="2">  1        4 0.15600826E-02 0.12500182E+03</pdfrwt>
<pdfrwt beam="1">  1       -4 0.59265009E-01 0.12500182E+03</pdfrwt>
<totfact> 0.65003670E+03</totfact>
</mgrwt>
</event>
<event>
 5    1  0.3282316E-002  0.1250054E+03  0.7818608E-02  0.1235061E+00
         -4   -1    0    0    0  501 -0.00000000000E+00  0.00000000000E+00  0.40454533373E+03  0.40454732720E+03  0.12700000000E+01 0.  1.
          4   -1    0    0  501    0  0.00000000000E+00 -0.00000000000E+00 -0.96129618666E+01  0.96964909039E+01  0.12700000000E+01 0.  1.
         25    2    1    2    0    0  0.00000000000E+00  0.00000000000E+00  0.39493237186E+03  0.41424381810E+03  0.12500544984E+03 0.  0.
    9000005    1    3    3    0    0 -0.35131818671E+02 -0.39984177313E+02  0.30599581383E+03  0.31059204304E+03  0.10000000000E+01 0.  0.
    9000005    1    3    3    0    0  0.35131818671E+02  0.39984177313E+02  0.88936558033E+02  0.10365177506E+03  0.10000000000E+01 0.  0.
<mgrwt>
<rscale>  0 0.12500545E+03</rscale>
<asrwt>0</asrwt>
<pdfrwt beam="2">  1        4 0.14854959E-02 0.12500545E+03</pdfrwt>
<pdfrwt beam="1">  1       -4 0.62244319E-01 0.12500545E+03</pdfrwt>
<totfact> 0.63183036E+03</totfact>
</mgrwt>
</event>
<event>
 5    1  0.3282316E-002  0.1250021E+03  0.7818608E-02  0.1235066E+00
          4   -1    0    0  501    0  0.00000000000E+00  0.00000000000E+00  0.13870912062E+02  0.13928930376E+02  0.12700000000E+01 0.  1.
         -4   -1    0    0    0  501 -0.00000000000E+00 -0.00000000000E+00 -0.28097660999E+03  0.28097948015E+03  0.12700000000E+01 0.  1.
         25    2    1    2    0    0  0.00000000000E+00  0.00000000000E+00 -0.26710569793E+03  0.29490841052E+03  0.12500206690E+03 0.  0.
    9000005    1    3    3    0    0 -0.39978562335E+02  0.26975719298E+02 -0.22731263832E+03  0.23237471983E+03  0.10000000000E+01 0.  0.
    9000005    1    3    3    0    0  0.39978562335E+02 -0.26975719298E+02 -0.39793059614E+02  0.62533690692E+02  0.10000000000E+01 0.  0.
<mgrwt>
<rscale>  0 0.12500207E+03</rscale>
<asrwt>0</asrwt>
<pdfrwt beam="1">  1        4 0.21386704E-02 0.12500207E+03</pdfrwt>
<pdfrwt beam="2">  1       -4 0.43231850E-01 0.12500207E+03</pdfrwt>
<totfact> 0.76238492E+03</totfact>
</mgrwt>
</event>
<event>
 5    1  0.3282316E-002  0.1250013E+03  0.7818608E-02  0.1235067E+00
          4   -1    0    0  501    0  0.00000000000E+00  0.00000000000E+00  0.34009956385E+02  0.34033660298E+02  0.12700000000E+01 0.  1.
         -4   -1    0    0    0  501 -0.00000000000E+00 -0.00000000000E+00 -0.11479125250E+03  0.11479827764E+03  0.12700000000E+01 0.  1.
         25    2    1    2    0    0  0.00000000000E+00  0.00000000000E+00 -0.80781296112E+02  0.14883193794E+03  0.12500131179E+03 0.  0.
    9000005    1    3    3    0    0  0.29468509576E+02 -0.35153503714E+02 -0.90921768893E+02  0.10184267248E+03  0.10000000000E+01 0.  0.
    9000005    1    3    3    0    0 -0.29468509576E+02  0.35153503714E+02  0.10140472781E+02  0.46989265458E+02  0.10000000000E+01 0.  0.
<mgrwt>
<rscale>  0 0.12500131E+03</rscale>
<asrwt>0</asrwt>
<pdfrwt beam="1">  1        4 0.52346648E-02 0.12500131E+03</pdfrwt>
<pdfrwt beam="2">  1       -4 0.17662556E-01 0.12500131E+03</pdfrwt>
<totfact> 0.99534106E+03</totfact>
</mgrwt>
</event>
<event>
 5    1  0.3282316E-002  0.1250011E+03  0.7818608E-02  0.1235067E+00
          4   -1    0    0  501    0  0.00000000000E+00  0.00000000000E+00  0.14422985069E+02  0.14478791328E+02  0.12700000000E+01 0.  1.
         -4   -1    0    0    0  501 -0.00000000000E+00 -0.00000000000E+00 -0.27025977069E+03  0.27026275465E+03  0.12700000000E+01 0.  1.
         25    2    1    2    0    0  0.00000000000E+00  0.00000000000E+00 -0.25583678562E+03  0.28474154598E+03  0.12500114852E+03 0.  0.
    9000005    1    3    3    0    0  0.98993173593E+01  0.29913299243E+02 -0.49846000860E+01  0.31916268482E+02  0.10000000000E+01 0.  0.
    9000005    1    3    3    0    0 -0.98993173593E+01 -0.29913299243E+02 -0.25085218553E+03  0.25282527750E+03  0.10000000000E+01 0.  0.
<mgrwt>
<rscale>  0 0.12500115E+03</rscale>
<asrwt>0</asrwt>
<pdfrwt beam="1">  1        4 0.22234433E-02 0.12500115E+03</pdfrwt>
<pdfrwt beam="2">  1       -4 0.41582945E-01 0.12500115E+03</pdfrwt>
<totfact> 0.77551605E+03</totfact>
</mgrwt>
</event>
<event>
 5    1  0.3282316E-002  0.1250002E+03  0.7818608E-02  0.1235069E+00
         -4   -1    0    0    0  501 -0.00000000000E+00  0.00000000000E+00  0.14716255058E+02  0.14770953352E+02  0.12700000000E+01 0. -1.
          4   -1    0    0  501    0  0.00000000000E+00 -0.00000000000E+00 -0.26488996235E+03  0.26489300681E+03  0.12700000000E+01 0. -1.
         25    2    1    2    0    0  0.00000000000E+00  0.00000000000E+00 -0.25017370730E+03  0.27966396016E+03  0.12500018716E+03 0.  0.
    9000005    1    3    3    0    0 -0.43463640215E+02 -0.44523644454E+02 -0.11207603304E+03  0.12819313600E+03  0.10000000000E+01 0.  0.
    9000005    1    3    3    0    0  0.43463640215E+02  0.44523644454E+02 -0.13809767426E+03  0.15147082416E+03  0.10000000000E+01 0.  0.
<mgrwt>
<rscale>  0 0.12500019E+03</rscale>
<asrwt>0</asrwt>
<pdfrwt beam="2">  1        4 0.40756740E-01 0.12500019E+03</pdfrwt>
<pdfrwt beam="1">  1       -4 0.22684812E-02 0.12500019E+03</pdfrwt>
<totfact> 0.78222359E+03</totfact>
</mgrwt>
</event>
<event>
 5    1  0.3282316E-002  0.1250033E+03  0.7818608E-02  0.1235064E+00
         -4   -1    0    0    0  501 -0.00000000000E+00  0.00000000000E+00  0.13656342863E+03  0.13656933381E+03  0.12700000000E+01 0.  1.
          4   -1    0    0  501    0  0.00000000000E+00 -0.00000000000E+00 -0.28584818839E+02  0.28613017458E+02  0.12700000000E+01 0.  1.
         25    2    1    2    0    0  0.00000000000E+00  0.00000000000E+00  0.10797860979E+03  0.16518235127E+03  0.12500331596E+03 0.  0.
    9000005    1    3    3    0    0 -0.25385467664E+02  0.29778781261E+02  0.11837749229E+03  0.12468130759E+03  0.10000000000E+01 0.  0.
    9000005    1    3    3    0    0  0.25385467664E+02 -0.29778781261E+02 -0.10398882502E+02  0.40501043680E+02  0.10000000000E+01 0.  0.
<mgrwt>
<rscale>  0 0.12500332E+03</rscale>
<asrwt>0</asrwt>
<pdfrwt beam="2">  1        4 0.44002878E-02 0.12500332E+03</pdfrwt>
<pdfrwt beam="1">  1       -4 0.21012381E-01 0.12500332E+03</pdfrwt>
<totfact> 0.96345692E+03</totfact>
</mgrwt>
</event>
<event>
 5    1  0.3282316E-002  0.1250009E+03  0.7818608E-02  0.1235068E+00
          4   -1    0    0  501    0  0.00000000000E+00  0.00000000000E+00  0.38505552019E+02  0.38526490059E+02  0.12700000000E+01 0. -1.
         -4   -1    0    0    0  501 -0.00000000000E+00 -0.00000000000E+00 -0.10139533587E+03  0.10140328908E+03  0.12700000000E+01 0. -1.
         25    2    1    2    0    0  0.00000000000E+00  0.00000000000E+00 -0.62889783851E+02  0.13992977914E+03  0.12500087270E+03 0.  0.
    9000005    1    3    3    0    0  0.33670437934E+02 -0.52248788146E+02 -0.38671098441E+02  0.73212622601E+02  0.10000000000E+01 0.  0.
    9000005    1    3    3    0    0 -0.33670437934E+02  0.52248788146E+02 -0.24218685410E+02  0.66717156538E+02  0.10000000000E+01 0.  0.
<mgrwt>
<rscale>  0 0.12500087E+03</rscale>
<asrwt>0</asrwt>
<pdfrwt beam="1">  1        4 0.59261535E-02 0.12500087E+03</pdfrwt>
<pdfrwt beam="2">  1       -4 0.15601505E-01 0.12500087E+03</pdfrwt>
<totfact> 0.10134842E+04</totfact>
</mgrwt>
</event>
<event>
 5    1  0.3282316E-002  0.1250225E+03  0.7818608E-02  0.1235034E+00
          4   -1    0    0  501    0  0.00000000000E+00  0.00000000000E+00  0.12404419850E+03  0.12405069964E+03  0.12700000000E+01 0.  1.
         -4   -1    0    0    0  501 -0.00000000000E+00 -0.00000000000E+00 -0.31482014710E+02  0.31507620510E+02  0.12700000000E+01 0.  1.
         25    2    1    2    0    0  0.00000000000E+00  0.00000000000E+00  0.92562183786E+02  0.15555832015E+03  0.12502253037E+03 0.  0.
    9000005    1    3    3    0    0 -0.29328283761E+02 -0.55476534648E+01  0.11460952263E+03  0.11843676526E+03  0.10000000000E+01 0.  0.
    9000005    1    3    3    0    0  0.29328283761E+02  0.55476534648E+01 -0.22047338844E+02  0.37121554889E+02  0.10000000000E+01 0.  0.
<mgrwt>
<rscale>  0 0.12502253E+03</rscale>
<asrwt>0</asrwt>
<pdfrwt beam="1">  1        4 0.19086193E-01 0.12502253E+03</pdfrwt>
<pdfrwt beam="2">  1       -4 0.48458566E-02 0.12502253E+03</pdfrwt>
<totfact> 0.98156263E+03</totfact>
</mgrwt>
</event>
<event>
 5    1  0.3282316E-002  0.1250021E+03  0.7818608E-02  0.1235066E+00
         -4   -1    0    0    0  501 -0.00000000000E+00  0.00000000000E+00  0.28441187371E+01  0.31147891407E+01  0.12700000000E+01 0.  1.
          4   -1    0    0  501    0  0.00000000000E+00 -0.00000000000E+00 -0.13108356181E+04  0.13108362333E+04  0.12700000000E+01 0.  1.
         25    2    1    2    0    0  0.00000000000E+00  0.00000000000E+00 -0.13079914994E+04  0.13139510225E+04  0.12500210804E+03 0.  0.
    9000005    1    3    3    0    0  0.34901090319E+02  0.44746588823E+02 -0.37887755676E+03  0.38310513744E+03  0.10000000000E+01 0.  0.
    9000005    1    3    3    0    0 -0.34901090319E+02 -0.44746588823E+02 -0.92911394263E+03  0.93084588505E+03  0.10000000000E+01 0.  0.
<mgrwt>
<rscale>  0 0.12500211E+03</rscale>
<asrwt>0</asrwt>
<pdfrwt beam="2">  1        4 0.20168743E+00 0.12500211E+03</pdfrwt>
<pdfrwt beam="1">  1       -4 0.45842590E-03 0.12500211E+03</pdfrwt>
<totfact> 0.21900687E+03</totfact>
</mgrwt>
</event>
<event>
 5    1  0.3282316E-002  0.1249985E+03  0.7818608E-02  0.1235072E+00
          4   -1    0    0  501    0  0.00000000000E+00  0.00000000000E+00  0.18862655492E+03  0.18863083025E+03  0.12700000000E+01 0.  1.
         -4   -1    0    0    0  501 -0.00000000000E+00 -0.00000000000E+00 -0.20684432025E+02  0.20723383609E+02  0.12700000000E+01 0.  1.
         25    2    1    2    0    0  0.00000000000E+00  0.00000000000E+00  0.16794212289E+03  0.20935421385E+03  0.12499852086E+03 0.  0.
    9000005    1    3    3    0    0  0.33557359924E+02 -0.23997487109E+02  0.53566808952E+01  0.41613337079E+02  0.10000000000E+01 0.  0.
    9000005    1    3    3    0    0 -0.33557359924E+02  0.23997487109E+02  0.16258544200E+03  0.16774087678E+03  0.10000000000E+01 0.  0.
<mgrwt>
<rscale>  0 0.12499852E+03</rscale>
<asrwt>0</asrwt>
<pdfrwt beam="1">  1        4 0.29022797E-01 0.12499852E+03</pdfrwt>
<pdfrwt beam="2">  1       -4 0.31855452E-02 0.12499852E+03</pdfrwt>
<totfact> 0.88584382E+03</totfact>
</mgrwt>
</event>
<event>
 5    1  0.3282316E-002  0.1249981E+03  0.7818608E-02  0.1235072E+00
         -4   -1    0    0    0  501 -0.00000000000E+00  0.00000000000E+00  0.38888074925E+02  0.38908807119E+02  0.12700000000E+01 0.  1.
          4   -1    0    0  501    0  0.00000000000E+00 -0.00000000000E+00 -0.10039402284E+03  0.10040205536E+03  0.12700000000E+01 0.  1.
         25    2    1    2    0    0  0.00000000000E+00  0.00000000000E+00 -0.61505947911E+02  0.13931086248E+03  0.12499813909E+03 0.  0.
    9000005    1    3    3    0    0 -0.37277744351E+02  0.42433793113E+02 -0.60551651882E+02  0.82811590780E+02  0.10000000000E+01 0.  0.
    9000005    1    3    3    0    0  0.37277744351E+02 -0.42433793113E+02 -0.95429602848E+00  0.56499271702E+02  0.10000000000E+01 0.  0.
<mgrwt>
<rscale>  0 0.12499814E+03</rscale>
<asrwt>0</asrwt>
<pdfrwt beam="2">  1        4 0.15447447E-01 0.12499814E+03</pdfrwt>
<pdfrwt beam="1">  1       -4 0.59849934E-02 0.12499814E+03</pdfrwt>
<totfact> 0.10148314E+04</totfact>
</mgrwt>
</event>
<event>
 5    1  0.3282316E-002  0.1250063E+03  0.7818608E-02  0.1235059E+00
          4   -1    0    0  501    0  0.00000000000E+00  0.00000000000E+00  0.81166315331E+02  0.81176250495E+02  0.12700000000E+01 0. -1.
         -4   -1    0    0    0  501 -0.00000000000E+00 -0.00000000000E+00 -0.48110064774E+02  0.48126824460E+02  0.12700000000E+01 0. -1.
         25    2    1    2    0    0  0.00000000000E+00  0.00000000000E+00  0.33056250557E+02  0.12930307496E+03  0.12500627781E+03 0.  0.
    9000005    1    3    3    0    0  0.75621471148E+01  0.44634489413E+02  0.61092887751E+02  0.76044491240E+02  0.10000000000E+01 0.  0.
    9000005    1    3    3    0    0 -0.75621471148E+01 -0.44634489413E+02 -0.28036637194E+02  0.53258583715E+02  0.10000000000E+01 0.  0.
<mgrwt>
<rscale>  0 0.12500628E+03</rscale>
<asrwt>0</asrwt>
<pdfrwt beam="1">  1        4 0.12489179E-01 0.12500628E+03</pdfrwt>
<pdfrwt beam="2">  1       -4 0.74036020E-02 0.12500628E+03</pdfrwt>
<totfact> 0.10357971E+04</totfact>
</mgrwt>
</event>
<event>
 5    1  0.3282316E-002  0.1250041E+03  0.7818608E-02  0.1235063E+00
          4   -1    0    0  501    0  0.00000000000E+00  0.00000000000E+00  0.10814493464E+04  0.10814500921E+04  0.12700000000E+01 0. -1.
         -4   -1    0    0    0  501 -0.00000000000E+00 -0.00000000000E+00 -0.34998901729E+01  0.37231883141E+01  0.12700000000E+01 0. -1.
         25    2    1    2    0    0  0.00000000000E+00  0.00000000000E+00  0.10779494562E+04  0.10851732804E+04  0.12500407342E+03 0.  0.
    9000005    1    3    3    0    0  0.71044971817E+01 -0.51467941306E+01  0.10761197936E+04  0.10761560172E+04  0.10000000000E+01 0.  0.
    9000005    1    3    3    0    0 -0.71044971817E+01  0.51467941306E+01  0.18296626880E+01  0.90172631978E+01  0.10000000000E+01 0.  0.
<mgrwt>
<rscale>  0 0.12500407E+03</rscale>
<asrwt>0</asrwt>
<pdfrwt beam="1">  1        4 0.16639437E+00 0.12500407E+03</pdfrwt>
<pdfrwt beam="2">  1       -4 0.55567774E-03 0.12500407E+03</pdfrwt>
<totfact> 0.27918883E+03</totfact>
</mgrwt>
</event>
<event>
 5    1  0.3282316E-002  0.1250002E+03  0.7818608E-02  0.1235069E+00
          4   -1    0    0  501    0  0.00000000000E+00  0.00000000000E+00  0.80650887557E+01  0.81644691583E+01  0.12700000000E+01 0. -1.
         -4   -1    0    0    0  501 -0.00000000000E+00 -0.00000000000E+00 -0.48127605045E+03  0.48127772609E+03  0.12700000000E+01 0. -1.
         25    2    1    2    0    0  0.00000000000E+00  0.00000000000E+00 -0.47321096169E+03  0.48944219525E+03  0.12500019291E+03 0.  0.
    9000005    1    3    3    0    0 -0.16353460609E+01  0.21018688784E+02 -0.62603017500E+01  0.22014790777E+02  0.10000000000E+01 0.  0.
    9000005    1    3    3    0    0  0.16353460609E+01 -0.21018688784E+02 -0.46695065994E+03  0.46742740448E+03  0.10000000000E+01 0.  0.
<mgrwt>
<rscale>  0 0.12500019E+03</rscale>
<asrwt>0</asrwt>
<pdfrwt beam="1">  1        4 0.12485568E-02 0.12500019E+03</pdfrwt>
<pdfrwt beam="2">  1       -4 0.74050220E-01 0.12500019E+03</pdfrwt>
<totfact> 0.56692698E+03</totfact>
</mgrwt>
</event>
<event>
 5    1  0.3282316E-002  0.1249990E+03  0.7818608E-02  0.1235071E+00
         -4   -1    0    0    0  501 -0.00000000000E+00  0.00000000000E+00  0.97460817188E+01  0.98284794790E+01  0.12700000000E+01 0. -1.
          4   -1    0    0  501    0  0.00000000000E+00 -0.00000000000E+00 -0.39902530738E+03  0.39902732842E+03  0.12700000000E+01 0. -1.
         25    2    1    2    0    0  0.00000000000E+00  0.00000000000E+00 -0.38927922566E+03  0.40885580790E+03  0.12499902450E+03 0.  0.
    9000005    1    3    3    0    0 -0.20936307139E+02 -0.58877606051E+02 -0.19288555816E+03  0.20275783585E+03  0.10000000000E+01 0.  0.
    9000005    1    3    3    0    0  0.20936307139E+02  0.58877606051E+02 -0.19639366750E+03  0.20609797206E+03  0.10000000000E+01 0.  0.
<mgrwt>
<rscale>  0 0.12499902E+03</rscale>
<asrwt>0</asrwt>
<pdfrwt beam="2">  1        4 0.61394990E-01 0.12499902E+03</pdfrwt>
<pdfrwt beam="1">  1       -4 0.15058913E-02 0.12499902E+03</pdfrwt>
<totfact> 0.63701879E+03</totfact>
</mgrwt>
</event>
<event>
 5    1  0.3282316E-002  0.1249998E+03  0.7818608E-02  0.1235070E+00
          4   -1    0    0  501    0  0.00000000000E+00  0.00000000000E+00  0.31476170481E+03  0.31476426690E+03  0.12700000000E+01 0.  1.
         -4   -1    0    0    0  501 -0.00000000000E+00 -0.00000000000E+00 -0.12375022562E+02  0.12440019430E+02  0.12700000000E+01 0.  1.
         25    2    1    2    0    0  0.00000000000E+00  0.00000000000E+00  0.30238668225E+03  0.32720428633E+03  0.12499975756E+03 0.  0.
    9000005    1    3    3    0    0 -0.13967350616E+02 -0.54321757027E+02  0.79063497378E+02  0.96943162665E+02  0.10000000000E+01 0.  0.
    9000005    1    3    3    0    0  0.13967350616E+02  0.54321757027E+02  0.22332318487E+03  0.23026112367E+03  0.10000000000E+01 0.  0.
<mgrwt>
<rscale>  0 0.12499976E+03</rscale>
<asrwt>0</asrwt>
<pdfrwt beam="1">  1        4 0.48430074E-01 0.12499976E+03</pdfrwt>
<pdfrwt beam="2">  1       -4 0.19090465E-02 0.12499976E+03</pdfrwt>
<totfact> 0.72307772E+03</totfact>
</mgrwt>
</event>
<event>
 5    1  0.3282316E-002  0.1249980E+03  0.7818608E-02  0.1235072E+00
          4   -1    0    0  501    0  0.00000000000E+00  0.00000000000E+00  0.82256222958E+02  0.82266026496E+02  0.12700000000E+01 0.  1.
         -4   -1    0    0    0  501 -0.00000000000E+00 -0.00000000000E+00 -0.47466126007E+02  0.47483112978E+02  0.12700000000E+01 0.  1.
         25    2    1    2    0    0  0.00000000000E+00  0.00000000000E+00  0.34790096951E+02  0.12974913947E+03  0.12499795338E+03 0.  0.
    9000005    1    3    3    0    0 -0.31742309855E+01 -0.62385185673E+02  0.19232928339E+02  0.65367366983E+02  0.10000000000E+01 0.  0.
    9000005    1    3    3    0    0  0.31742309855E+01  0.62385185673E+02  0.15557168612E+02  0.64381772491E+02  0.10000000000E+01 0.  0.
<mgrwt>
<rscale>  0 0.12499795E+03</rscale>
<asrwt>0</asrwt>
<pdfrwt beam="1">  1        4 0.12656864E-01 0.12499795E+03</pdfrwt>
<pdfrwt beam="2">  1       -4 0.73045418E-02 0.12499795E+03</pdfrwt>
<totfact> 0.10350355E+04</totfact>
</mgrwt>
</event>
<event>
 5    1  0.3282316E-002  0.1249994E+03  0.7818608E-02  0.1235070E+00
         -4   -1    0    0    0  501 -0.00000000000E+00  0.00000000000E+00  0.13965099433E+03  0.13965676896E+03  0.12700000000E+01 0.  1.
          4   -1    0    0  501    0  0.00000000000E+00 -0.00000000000E+00 -0.27950472369E+02  0.27979310314E+02  0.12700000000E+01 0.  1.
         25    2    1    2    0    0  0.00000000000E+00  0.00000000000E+00  0.11170052196E+03  0.16763607928E+03  0.12499939388E+03 0.  0.
    9000005    1    3    3    0    0  0.40430001630E+02  0.46565264803E+02  0.69414773654E+02  0.92856446838E+02  0.10000000000E+01 0.  0.
    9000005    1    3    3    0    0 -0.40430001630E+02 -0.46565264803E+02  0.42285748307E+02  0.74779632440E+02  0.10000000000E+01 0.  0.
<mgrwt>
<rscale>  0 0.12499939E+03</rscale>
<asrwt>0</asrwt>
<pdfrwt beam="2">  1        4 0.43027351E-02 0.12499939E+03</pdfrwt>
<pdfrwt beam="1">  1       -4 0.21487431E-01 0.12499939E+03</pdfrwt>
<totfact> 0.95891782E+03</totfact>
</mgrwt>
</event>
<event>
 5    1  0.3282316E-002  0.1250000E+03  0.7818608E-02  0.1235069E+00
         -4   -1    0    0    0  501 -0.00000000000E+00  0.00000000000E+00  0.37686212980E+02  0.37707605980E+02  0.12700000000E+01 0. -1.
          4   -1    0    0  501    0  0.00000000000E+00 -0.00000000000E+00 -0.10359725831E+03  0.10360504249E+03  0.12700000000E+01 0. -1.
         25    2    1    2    0    0  0.00000000000E+00  0.00000000000E+00 -0.65911045326E+02  0.14131264847E+03  0.12499999488E+03 0.  0.
    9000005    1    3    3    0    0  0.59160033023E+02 -0.20096240890E+02 -0.31579616294E+02  0.70014573986E+02  0.10000000000E+01 0.  0.
    9000005    1    3    3    0    0 -0.59160033023E+02  0.20096240890E+02 -0.34331429032E+02  0.71298074480E+02  0.10000000000E+01 0.  0.
<mgrwt>
<rscale>  0 0.12499999E+03</rscale>
<asrwt>0</asrwt>
<pdfrwt beam="2">  1        4 0.15940284E-01 0.12499999E+03</pdfrwt>
<pdfrwt beam="1">  1       -4 0.58001234E-02 0.12499999E+03</pdfrwt>
<totfact> 0.10106454E+04</totfact>
</mgrwt>
</event>
<event>
 5    1  0.3282316E-002  0.1249995E+03  0.7818608E-02  0.1235070E+00
          4   -1    0    0  501    0  0.00000000000E+00  0.00000000000E+00  0.10216265771E+03  0.10217055119E+03  0.12700000000E+01 0. -1.
         -4   -1    0    0    0  501 -0.00000000000E+00 -0.00000000000E+00 -0.38215370518E+02  0.38236467460E+02  0.12700000000E+01 0. -1.
         25    2    1    2    0    0  0.00000000000E+00  0.00000000000E+00  0.63947287191E+02  0.14040701865E+03  0.12499950139E+03 0.  0.
    9000005    1    3    3    0    0 -0.15346450327E+00 -0.43399246600E+02  0.82479177411E+02  0.93205862816E+02  0.10000000000E+01 0.  0.
    9000005    1    3    3    0    0  0.15346450327E+00  0.43399246600E+02 -0.18531890220E+02  0.47201155833E+02  0.10000000000E+01 0.  0.
<mgrwt>
<rscale>  0 0.12499950E+03</rscale>
<asrwt>0</asrwt>
<pdfrwt beam="1">  1        4 0.15719562E-01 0.12499950E+03</pdfrwt>
<pdfrwt beam="2">  1       -4 0.58815178E-02 0.12499950E+03</pdfrwt>
<totfact> 0.10125271E+04</totfact>
</mgrwt>
</event>
<event>
 5    1  0.3282316E-002  0.1250046E+03  0.7818608E-02  0.1235062E+00
         -4   -1    0    0    0  501 -0.00000000000E+00  0.00000000000E+00  0.44453214355E+02  0.44471352200E+02  0.12700000000E+01 0. -1.
          4   -1    0    0  501    0  0.00000000000E+00 -0.00000000000E+00 -0.87839114756E+02  0.87848295266E+02  0.12700000000E+01 0. -1.
         25    2    1    2    0    0  0.00000000000E+00  0.00000000000E+00 -0.43385900401E+02  0.13231964747E+03  0.12500461092E+03 0.  0.
    9000005    1    3    3    0    0  0.45694124744E+02  0.23428138173E+02 -0.59396223396E+02  0.78522239194E+02  0.10000000000E+01 0.  0.
    9000005    1    3    3    0    0 -0.45694124744E+02 -0.23428138173E+02  0.16010322995E+02  0.53797408272E+02  0.10000000000E+01 0.  0.
<mgrwt>
<rscale>  0 0.12500461E+03</rscale>
<asrwt>0</asrwt>
<pdfrwt beam="2">  1        4 0.13515811E-01 0.12500461E+03</pdfrwt>
<pdfrwt beam="1">  1       -4 0.68410575E-02 0.12500461E+03</pdfrwt>
<totfact> 0.10293810E+04</totfact>
</mgrwt>
</event>
<event>
 5    1  0.3282316E-002  0.1250025E+03  0.7818608E-02  0.1235065E+00
          4   -1    0    0  501    0  0.00000000000E+00  0.00000000000E+00  0.57176931409E+01  0.58570397688E+01  0.12700000000E+01 0.  1.
         -4   -1    0    0    0  501 -0.00000000000E+00 -0.00000000000E+00 -0.67484878687E+03  0.67484998187E+03  0.12700000000E+01 0.  1.
         25    2    1    2    0    0  0.00000000000E+00  0.00000000000E+00 -0.66913109372E+03  0.68070702164E+03  0.12500251487E+03 0.  0.
    9000005    1    3    3    0    0 -0.53034012174E+01  0.22675190680E+02 -0.65036578858E+03  0.65078333514E+03  0.10000000000E+01 0.  0.
    9000005    1    3    3    0    0  0.53034012174E+01 -0.22675190680E+02 -0.18765305144E+02  0.29923686504E+02  0.10000000000E+01 0.  0.
<mgrwt>
<rscale>  0 0.12500251E+03</rscale>
<asrwt>0</asrwt>
<pdfrwt beam="1">  1        4 0.89045653E-03 0.12500251E+03</pdfrwt>
<pdfrwt beam="2">  1       -4 0.10383364E+00 0.12500251E+03</pdfrwt>
<totfact> 0.44122497E+03</totfact>
</mgrwt>
</event>
<event>
 5    1  0.3282316E-002  0.1250004E+03  0.7818608E-02  0.1235069E+00
          4   -1    0    0  501    0  0.00000000000E+00  0.00000000000E+00  0.14205160686E+02  0.14261819313E+02  0.12700000000E+01 0.  1.
         -4   -1    0    0    0  501 -0.00000000000E+00 -0.00000000000E+00 -0.27438435960E+03  0.27438729871E+03  0.12700000000E+01 0.  1.
         25    2    1    2    0    0  0.00000000000E+00  0.00000000000E+00 -0.26017919892E+03  0.28864911803E+03  0.12500039115E+03 0.  0.
    9000005    1    3    3    0    0  0.26319163640E+02  0.29926974016E+02 -0.18937566799E+02  0.44135627159E+02  0.10000000000E+01 0.  0.
    9000005    1    3    3    0    0 -0.26319163640E+02 -0.29926974016E+02 -0.24124163212E+03  0.24451349087E+03  0.10000000000E+01 0.  0.
<mgrwt>
<rscale>  0 0.12500039E+03</rscale>
<asrwt>0</asrwt>
<pdfrwt beam="1">  1        4 0.21899940E-02 0.12500039E+03</pdfrwt>
<pdfrwt beam="2">  1       -4 0.42217559E-01 0.12500039E+03</pdfrwt>
<totfact> 0.77044428E+03</totfact>
</mgrwt>
</event>
<event>
 5    1  0.3282316E-002  0.1249988E+03  0.7818608E-02  0.1235071E+00
         -4   -1    0    0    0  501 -0.00000000000E+00  0.00000000000E+00  0.11348239878E+03  0.11348950495E+03  0.12700000000E+01 0. -1.
          4   -1    0    0  501    0  0.00000000000E+00 -0.00000000000E+00 -0.34401082363E+02  0.34424516958E+02  0.12700000000E+01 0. -1.
         25    2    1    2    0    0  0.00000000000E+00  0.00000000000E+00  0.79081316417E+02  0.14791402190E+03  0.12499881307E+03 0.  0.
    9000005    1    3    3    0    0  0.51627607879E+02  0.23095206503E+02  0.80905718658E+01  0.57142416924E+02  0.10000000000E+01 0.  0.
    9000005    1    3    3    0    0 -0.51627607879E+02 -0.23095206503E+02  0.70990744552E+02  0.90771604981E+02  0.10000000000E+01 0.  0.
<mgrwt>
<rscale>  0 0.12499881E+03</rscale>
<asrwt>0</asrwt>
<pdfrwt beam="2">  1        4 0.52948236E-02 0.12499881E+03</pdfrwt>
<pdfrwt beam="1">  1       -4 0.17461180E-01 0.12499881E+03</pdfrwt>
<totfact> 0.99723807E+03</totfact>
</mgrwt>
</event>
<event>
 5    1  0.3282316E-002  0.1250022E+03  0.7818608E-02  0.1235066E+00
         -4   -1    0    0    0  501 -0.00000000000E+00  0.00000000000E+00  0.22675457697E+03  0.22675813343E+03  0.12700000000E+01 0. -1.
          4   -1    0    0  501    0  0.00000000000E+00 -0.00000000000E+00 -0.17200279264E+02  0.17247101402E+02  0.12700000000E+01 0. -1.
         25    2    1    2    0    0  0.00000000000E+00  0.00000000000E+00  0.20955429770E+03  0.24400523483E+03  0.12500220373E+03 0.  0.
    9000005    1    3    3    0    0  0.33752006440E+02  0.11106522932E+02  0.44273527352E+01  0.35821142396E+02  0.10000000000E+01 0.  0.
    9000005    1    3    3    0    0 -0.33752006440E+02 -0.11106522932E+02  0.20512694497E+03  0.20818409243E+03  0.10000000000E+01 0.  0.
<mgrwt>
<rscale>  0 0.12500220E+03</rscale>
<asrwt>0</asrwt>
<pdfrwt beam="2">  1        4 0.26500720E-02 0.12500220E+03</pdfrwt>
<pdfrwt beam="1">  1       -4 0.34889196E-01 0.12500220E+03</pdfrwt>
<totfact> 0.83200363E+03</totfact>
</mgrwt>
</event>
<event>
 5    1  0.3282316E-002  0.1249982E+03  0.7818608E-02  0.1235072E+00
         -4   -1    0    0    0  501 -0.00000000000E+00  0.00000000000E+00  0.56064205325E+03  0.56064349169E+03  0.12700000000E+01 0.  1.
          4   -1    0    0  501    0  0.00000000000E+00 -0.00000000000E+00 -0.69079192663E+01  0.70236919486E+01  0.12700000000E+01 0.  1.
         25    2    1    2    0    0  0.00000000000E+00  0.00000000000E+00  0.55373413398E+03  0.56766718364E+03  0.12499816094E+03 0.  0.
    9000005    1    3    3    0    0  0.60127806175E+02  0.92856969600E+00  0.19967391492E+03  0.20853509924E+03  0.10000000000E+01 0.  0.
    9000005    1    3    3    0    0 -0.60127806175E+02 -0.92856969600E+00  0.35406021907E+03  0.35913208440E+03  0.10000000000E+01 0.  0.
<mgrwt>
<rscale>  0 0.12499816E+03</rscale>
<asrwt>0</asrwt>
<pdfrwt beam="2">  1        4 0.10717732E-02 0.12499816E+03</pdfrwt>
<pdfrwt beam="1">  1       -4 0.86261625E-01 0.12499816E+03</pdfrwt>
<totfact> 0.50976358E+03</totfact>
</mgrwt>
</event>
<event>
 5    1  0.3282316E-002  0.1249880E+03  0.7818608E-02  0.1235088E+00
          4   -1    0    0  501    0  0.00000000000E+00  0.00000000000E+00  0.12444323710E+03  0.12444971740E+03  0.12700000000E+01 0. -1.
         -4   -1    0    0    0  501 -0.00000000000E+00 -0.00000000000E+00 -0.31363634932E+02  0.31389337300E+02  0.12700000000E+01 0. -1.
         25    2    1    2    0    0  0.00000000000E+00  0.00000000000E+00  0.93079602168E+02  0.15583905470E+03  0.12498799394E+03 0.  0.
    9000005    1    3    3    0    0  0.19803882498E+02 -0.58641529942E+02  0.57227477725E+02  0.84303066390E+02  0.10000000000E+01 0.  0.
    9000005    1    3    3    0    0 -0.19803882498E+02  0.58641529942E+02  0.35852124442E+02  0.71535988306E+02  0.10000000000E+01 0.  0.
<mgrwt>
<rscale>  0 0.12498799E+03</rscale>
<asrwt>0</asrwt>
<pdfrwt beam="1">  1        4 0.19147589E-01 0.12498799E+03</pdfrwt>
<pdfrwt beam="2">  1       -4 0.48276502E-02 0.12498799E+03</pdfrwt>
<totfact> 0.98177538E+03</totfact>
</mgrwt>
</event>
<event>
 5    1  0.3282316E-002  0.1249963E+03  0.7818608E-02  0.1235075E+00
         -4   -1    0    0    0  501 -0.00000000000E+00  0.00000000000E+00  0.52082114167E+02  0.52097596068E+02  0.12700000000E+01 0. -1.
          4   -1    0    0  501    0  0.00000000000E+00 -0.00000000000E+00 -0.74965266233E+02  0.74976023110E+02  0.12700000000E+01 0. -1.
         25    2    1    2    0    0  0.00000000000E+00  0.00000000000E+00 -0.22883152066E+02  0.12707361918E+03  0.12499626411E+03 0.  0.
    9000005    1    3    3    0    0  0.61239272685E+02 -0.10363008854E+02 -0.18438992791E+02  0.64796889791E+02  0.10000000000E+01 0.  0.
    9000005    1    3    3    0    0 -0.61239272685E+02  0.10363008854E+02 -0.44441592746E+01  0.62276729387E+02  0.10000000000E+01 0.  0.
<mgrwt>
<rscale>  0 0.12499626E+03</rscale>
<asrwt>0</asrwt>
<pdfrwt beam="2">  1        4 0.11535136E-01 0.12499626E+03</pdfrwt>
<pdfrwt beam="1">  1       -4 0.80146513E-02 0.12499626E+03</pdfrwt>
<totfact> 0.10408424E+04</totfact>
</mgrwt>
</event>
<event>
 5    1  0.3282316E-002  0.1250007E+03  0.7818608E-02  0.1235068E+00
          4   -1    0    0  501    0  0.00000000000E+00  0.00000000000E+00  0.24177911101E+02  0.24211242950E+02  0.12700000000E+01 0. -1.
         -4   -1    0    0    0  501 -0.00000000000E+00 -0.00000000000E+00 -0.16141741596E+03  0.16142241194E+03  0.12700000000E+01 0. -1.
         25    2    1    2    0    0  0.00000000000E+00  0.00000000000E+00 -0.13723950486E+03  0.18563365489E+03  0.12500068853E+03 0.  0.
    9000005    1    3    3    0    0 -0.48643630270E+02  0.30713221349E+02 -0.10486827383E+03  0.11961546550E+03  0.10000000000E+01 0.  0.
    9000005    1    3    3    0    0  0.48643630270E+02 -0.30713221349E+02 -0.32371231037E+02  0.66018189390E+02  0.10000000000E+01 0.  0.
<mgrwt>
<rscale>  0 0.12500069E+03</rscale>
<asrwt>0</asrwt>
<pdfrwt beam="1">  1        4 0.37226270E-02 0.12500069E+03</pdfrwt>
<pdfrwt beam="2">  1       -4 0.24836396E-01 0.12500069E+03</pdfrwt>
<totfact> 0.92611215E+03</totfact>
</mgrwt>
</event>
<event>
 5    1  0.3282316E-002  0.1250003E+03  0.7818608E-02  0.1235069E+00
          4   -1    0    0  501    0  0.00000000000E+00  0.00000000000E+00  0.11204173409E+02  0.11275921328E+02  0.12700000000E+01 0. -1.
         -4   -1    0    0    0  501 -0.00000000000E+00 -0.00000000000E+00 -0.34745867319E+03  0.34746099418E+03  0.12700000000E+01 0. -1.
         25    2    1    2    0    0  0.00000000000E+00  0.00000000000E+00 -0.33625449978E+03  0.35873691551E+03  0.12500034369E+03 0.  0.
    9000005    1    3    3    0    0  0.61022679650E+02  0.41564905944E+01 -0.13134926058E+03  0.14489538330E+03  0.10000000000E+01 0.  0.
    9000005    1    3    3    0    0 -0.61022679650E+02 -0.41564905944E+01 -0.20490523920E+03  0.21384153221E+03  0.10000000000E+01 0.  0.
<mgrwt>
<rscale>  0 0.12500034E+03</rscale>
<asrwt>0</asrwt>
<pdfrwt beam="1">  1        4 0.17294169E-02 0.12500034E+03</pdfrwt>
<pdfrwt beam="2">  1       -4 0.53460870E-01 0.12500034E+03</pdfrwt>
<totfact> 0.68773444E+03</totfact>
</mgrwt>
</event>
<event>
 5    1  0.3282316E-002  0.1250080E+03  0.7818608E-02  0.1235057E+00
         -4   -1    0    0    0  501 -0.00000000000E+00  0.00000000000E+00  0.13136011886E+04  0.13136018025E+04  0.12700000000E+01 0. -1.
          4   -1    0    0  501    0  0.00000000000E+00 -0.00000000000E+00 -0.28378518073E+01  0.31090678475E+01  0.12700000000E+01 0. -1.
         25    2    1    2    0    0  0.00000000000E+00  0.00000000000E+00  0.13107633368E+04  0.13167108704E+04  0.12500796403E+03 0.  0.
    9000005    1    3    3    0    0 -0.60432618106E+02 -0.11902383624E+02  0.76684252854E+03  0.76931283081E+03  0.10000000000E+01 0.  0.
    9000005    1    3    3    0    0  0.60432618106E+02  0.11902383624E+02  0.54392080825E+03  0.54739803956E+03  0.10000000000E+01 0.  0.
<mgrwt>
<rscale>  0 0.12500796E+03</rscale>
<asrwt>0</asrwt>
<pdfrwt beam="2">  1        4 0.45750222E-03 0.12500796E+03</pdfrwt>
<pdfrwt beam="1">  1       -4 0.20211356E+00 0.12500796E+03</pdfrwt>
<totfact> 0.21833697E+03</totfact>
</mgrwt>
</event>
<event>
 5    1  0.3282316E-002  0.1249984E+03  0.7818608E-02  0.1235072E+00
         -4   -1    0    0    0  501 -0.00000000000E+00  0.00000000000E+00  0.41717945257E+02  0.41737271790E+02  0.12700000000E+01 0.  1.
          4   -1    0    0  501    0  0.00000000000E+00 -0.00000000000E+00 -0.93587034446E+02  0.93595651162E+02  0.12700000000E+01 0.  1.
         25    2    1    2    0    0  0.00000000000E+00  0.00000000000E+00 -0.51869089188E+02  0.13533292295E+03  0.12499839048E+03 0.  0.
    9000005    1    3    3    0    0  0.39100463439E+02 -0.37267524386E+02  0.80869394019E+01  0.54627037297E+02  0.10000000000E+01 0.  0.
    9000005    1    3    3    0    0 -0.39100463439E+02  0.37267524386E+02 -0.59956028590E+02  0.80705885655E+02  0.10000000000E+01 0.  0.
<mgrwt>
<rscale>  0 0.12499839E+03</rscale>
<asrwt>0</asrwt>
<pdfrwt beam="2">  1        4 0.14400155E-01 0.12499839E+03</pdfrwt>
<pdfrwt beam="1">  1       -4 0.64202949E-02 0.12499839E+03</pdfrwt>
<totfact> 0.10231430E+04</totfact>
</mgrwt>
</event>
<event>
 5    1  0.3282316E-002  0.1250015E+03  0.7818608E-02  0.1235067E+00
         -4   -1    0    0    0  501 -0.00000000000E+00  0.00000000000E+00  0.43193946657E+02  0.43212613064E+02  0.12700000000E+01 0. -1.
          4   -1    0    0  501    0  0.00000000000E+00 -0.00000000000E+00 -0.90394574770E+02  0.90403495772E+02  0.12700000000E+01 0. -1.
         25    2    1    2    0    0  0.00000000000E+00  0.00000000000E+00 -0.47200628113E+02  0.13361610884E+03  0.12500146098E+03 0.  0.
    9000005    1    3    3    0    0  0.53295263043E+02  0.30771908292E+02 -0.35213976564E+02  0.70910644816E+02  0.10000000000E+01 0.  0.
    9000005    1    3    3    0    0 -0.53295263043E+02 -0.30771908292E+02 -0.11986651549E+02  0.62705464021E+02  0.10000000000E+01 0.  0.
<mgrwt>
<rscale>  0 0.12500146E+03</rscale>
<asrwt>0</asrwt>
<pdfrwt beam="2">  1        4 0.13908980E-01 0.12500146E+03</pdfrwt>
<pdfrwt beam="1">  1       -4 0.66473447E-02 0.12500146E+03</pdfrwt>
<totfact> 0.10266984E+04</totfact>
</mgrwt>
</event>
<event>
 5    1  0.3282316E-002  0.1250010E+03  0.7818608E-02  0.1235068E+00
         -4   -1    0    0    0  501 -0.00000000000E+00  0.00000000000E+00  0.58683401409E+02  0.58697142187E+02  0.12700000000E+01 0. -1.
          4   -1    0    0  501    0  0.00000000000E+00 -0.00000000000E+00 -0.66538250962E+02  0.66550369954E+02  0.12700000000E+01 0. -1.
         25    2    1    2    0    0  0.00000000000E+00  0.00000000000E+00 -0.78548495531E+01  0.12524751214E+03  0.12500096254E+03 0.  0.
    9000005    1    3    3    0    0 -0.31668868580E+02 -0.28205539275E+02 -0.49918289729E+02  0.65508055478E+02  0.10000000000E+01 0.  0.
    9000005    1    3    3    0    0  0.31668868580E+02  0.28205539275E+02  0.42063440176E+02  0.59739456663E+02  0.10000000000E+01 0.  0.
<mgrwt>
<rscale>  0 0.12500096E+03</rscale>
<asrwt>0</asrwt>
<pdfrwt beam="2">  1        4 0.10238643E-01 0.12500096E+03</pdfrwt>
<pdfrwt beam="1">  1       -4 0.90302049E-02 0.12500096E+03</pdfrwt>
<totfact> 0.10447262E+04</totfact>
</mgrwt>
</event>
<event>
 5    1  0.3282316E-002  0.1249904E+03  0.7818608E-02  0.1235084E+00
         -4   -1    0    0    0  501 -0.00000000000E+00  0.00000000000E+00  0.88691941702E+01  0.89596598836E+01  0.12700000000E+01 0.  1.
          4   -1    0    0  501    0  0.00000000000E+00 -0.00000000000E+00 -0.43803550880E+03  0.43803734986E+03  0.12700000000E+01 0.  1.
         25    2    1    2    0    0  0.00000000000E+00  0.00000000000E+00 -0.42916631463E+03  0.44699700974E+03  0.12499040405E+03 0.  0.
    9000005    1    3    3    0    0 -0.41236798699E+02 -0.46792405237E+02 -0.22827021236E+03  0.23663958376E+03  0.10000000000E+01 0.  0.
    9000005    1    3    3    0    0  0.41236798699E+02  0.46792405237E+02 -0.20089610227E+03  0.21035742598E+03  0.10000000000E+01 0.  0.
<mgrwt>
<rscale>  0 0.12499040E+03</rscale>
<asrwt>0</asrwt>
<pdfrwt beam="2">  1        4 0.67397162E-01 0.12499040E+03</pdfrwt>
<pdfrwt beam="1">  1       -4 0.13715923E-02 0.12499040E+03</pdfrwt>
<totfact> 0.60237570E+03</totfact>
</mgrwt>
</event>
<event>
 5    1  0.3282316E-002  0.1250016E+03  0.7818608E-02  0.1235067E+00
          4   -1    0    0  501    0  0.00000000000E+00  0.00000000000E+00  0.17448363927E+02  0.17494522107E+02  0.12700000000E+01 0.  1.
         -4   -1    0    0    0  501 -0.00000000000E+00 -0.00000000000E+00 -0.22353706626E+03  0.22354067391E+03  0.12700000000E+01 0.  1.
         25    2    1    2    0    0  0.00000000000E+00  0.00000000000E+00 -0.20608870233E+03  0.24103519602E+03  0.12500164995E+03 0.  0.
    9000005    1    3    3    0    0 -0.87861699480E+01  0.40708065914E+02 -0.19288970025E+03  0.19733671700E+03  0.10000000000E+01 0.  0.
    9000005    1    3    3    0    0  0.87861699480E+01 -0.40708065914E+02 -0.13199002086E+02  0.43698479022E+02  0.10000000000E+01 0.  0.
<mgrwt>
<rscale>  0 0.12500165E+03</rscale>
<asrwt>0</asrwt>
<pdfrwt beam="1">  1        4 0.26881920E-02 0.12500165E+03</pdfrwt>
<pdfrwt beam="2">  1       -4 0.34394144E-01 0.12500165E+03</pdfrwt>
<totfact> 0.83640359E+03</totfact>
</mgrwt>
</event>
<event>
 4    1  0.3282316E-002  0.1243487E+03  0.7818608E-02  0.1236091E+00
         -4   -1    0    0    0  501 -0.00000000000E+00  0.00000000000E+00  0.75215861567E+03  0.75215968785E+03  0.12700000000E+01 0. -1.
          4   -1    0    0  501    0  0.00000000000E+00 -0.00000000000E+00 -0.50598568516E+01  0.52168047077E+01  0.12700000000E+01 0. -1.
    9000005    1    1    2    0    0  0.16838851527E+02  0.57961696531E+02  0.46420619150E+03  0.46811482930E+03  0.10000000000E+01 0.  0.
    9000005    1    1    2    0    0 -0.16838851527E+02 -0.57961696531E+02  0.28289256732E+03  0.28926166326E+03  0.10000000000E+01 0.  0.
<mgrwt>
<rscale>  0 0.12434869E+03</rscale>
<asrwt>0</asrwt>
<pdfrwt beam="2">  1        4 0.79059525E-03 0.12434869E+03</pdfrwt>
<pdfrwt beam="1">  1       -4 0.11572882E+00 0.12434869E+03</pdfrwt>
<totfact> 0.40801949E+03</totfact>
</mgrwt>
</event>
<event>
 5    1  0.3282316E-002  0.1250057E+03  0.7818608E-02  0.1235060E+00
         -4   -1    0    0    0  501 -0.00000000000E+00  0.00000000000E+00  0.37114838890E+02  0.37136561039E+02  0.12700000000E+01 0.  1.
          4   -1    0    0  501    0  0.00000000000E+00 -0.00000000000E+00 -0.10520083658E+03  0.10520850212E+03  0.12700000000E+01 0.  1.
         25    2    1    2    0    0  0.00000000000E+00  0.00000000000E+00 -0.68085997693E+02  0.14234506316E+03  0.12500565556E+03 0.  0.
    9000005    1    3    3    0    0 -0.46309247923E+02 -0.34839504850E+02 -0.60681633229E+02  0.83914230931E+02  0.10000000000E+01 0.  0.
    9000005    1    3    3    0    0  0.46309247923E+02  0.34839504850E+02 -0.74043644639E+01  0.58430832225E+02  0.10000000000E+01 0.  0.
<mgrwt>
<rscale>  0 0.12500566E+03</rscale>
<asrwt>0</asrwt>
<pdfrwt beam="2">  1        4 0.16187005E-01 0.12500566E+03</pdfrwt>
<pdfrwt beam="1">  1       -4 0.57122358E-02 0.12500566E+03</pdfrwt>
<totfact> 0.10083928E+04</totfact>
</mgrwt>
</event>
<event>
 5    1  0.3282316E-002  0.1250006E+03  0.7818608E-02  0.1235068E+00
          4   -1    0    0  501    0  0.00000000000E+00  0.00000000000E+00  0.10923524747E+02  0.10997103841E+02  0.12700000000E+01 0.  1.
         -4   -1    0    0    0  501 -0.00000000000E+00 -0.00000000000E+00 -0.35632829458E+03  0.35633055780E+03  0.12700000000E+01 0.  1.
         25    2    1    2    0    0  0.00000000000E+00  0.00000000000E+00 -0.34540476983E+03  0.36732766164E+03  0.12500062392E+03 0.  0.
    9000005    1    3    3    0    0 -0.38549322978E+02  0.48072394520E+02 -0.14212342202E+03  0.15490988511E+03  0.10000000000E+01 0.  0.
    9000005    1    3    3    0    0  0.38549322978E+02 -0.48072394520E+02 -0.20328134782E+03  0.21241777653E+03  0.10000000000E+01 0.  0.
<mgrwt>
<rscale>  0 0.12500062E+03</rscale>
<asrwt>0</asrwt>
<pdfrwt beam="1">  1        4 0.16863766E-02 0.12500062E+03</pdfrwt>
<pdfrwt beam="2">  1       -4 0.54825563E-01 0.12500062E+03</pdfrwt>
<totfact> 0.67858511E+03</totfact>
</mgrwt>
</event>
<event>
 5    1  0.3282316E-002  0.1249951E+03  0.7818608E-02  0.1235077E+00
          4   -1    0    0  501    0  0.00000000000E+00  0.00000000000E+00  0.87351523741E+03  0.87351616063E+03  0.12700000000E+01 0. -1.
         -4   -1    0    0    0  501 -0.00000000000E+00 -0.00000000000E+00 -0.43804031521E+01  0.45607928888E+01  0.12700000000E+01 0. -1.
         25    2    1    2    0    0  0.00000000000E+00  0.00000000000E+00  0.86913483426E+03  0.87807695352E+03  0.12499510465E+03 0.  0.
    9000005    1    3    3    0    0  0.39044512767E+02 -0.11195526504E+02  0.10096791799E+03  0.10883627270E+03  0.10000000000E+01 0.  0.
    9000005    1    3    3    0    0 -0.39044512767E+02  0.11195526504E+02  0.76816691626E+03  0.76924068082E+03  0.10000000000E+01 0.  0.
<mgrwt>
<rscale>  0 0.12499510E+03</rscale>
<asrwt>0</asrwt>
<pdfrwt beam="1">  1        4 0.13440089E+00 0.12499510E+03</pdfrwt>
<pdfrwt beam="2">  1       -4 0.68785543E-03 0.12499510E+03</pdfrwt>
<totfact> 0.35008862E+03</totfact>
</mgrwt>
</event>
<event>
 5    1  0.3282316E-002  0.1249982E+03  0.7818608E-02  0.1235072E+00
          4   -1    0    0  501    0  0.00000000000E+00  0.00000000000E+00  0.38162504890E+03  0.38162716210E+03  0.12700000000E+01 0.  1.
         -4   -1    0    0    0  501 -0.00000000000E+00 -0.00000000000E+00 -0.10193991011E+02  0.10272796733E+02  0.12700000000E+01 0.  1.
         25    2    1    2    0    0  0.00000000000E+00  0.00000000000E+00  0.37143105789E+03  0.39189995883E+03  0.12499818784E+03 0.  0.
    9000005    1    3    3    0    0  0.18828658373E+02 -0.17611805300E+02  0.72420568267E+01  0.26798161301E+02  0.10000000000E+01 0.  0.
    9000005    1    3    3    0    0 -0.18828658373E+02  0.17611805300E+02  0.36418900107E+03  0.36510179753E+03  0.10000000000E+01 0.  0.
<mgrwt>
<rscale>  0 0.12499819E+03</rscale>
<asrwt>0</asrwt>
<pdfrwt beam="1">  1        4 0.58717767E-01 0.12499819E+03</pdfrwt>
<pdfrwt beam="2">  1       -4 0.15745309E-02 0.12499819E+03</pdfrwt>
<totfact> 0.65350903E+03</totfact>
</mgrwt>
</event>
<event>
 5    1  0.3282316E-002  0.1250291E+03  0.7818608E-02  0.1235024E+00
          4   -1    0    0  501    0  0.00000000000E+00  0.00000000000E+00  0.16040214561E+03  0.16040717321E+03  0.12700000000E+01 0.  1.
         -4   -1    0    0    0  501 -0.00000000000E+00 -0.00000000000E+00 -0.24342249836E+02  0.24375356963E+02  0.12700000000E+01 0.  1.
         25    2    1    2    0    0  0.00000000000E+00  0.00000000000E+00  0.13605989577E+03  0.18478253017E+03  0.12502914947E+03 0.  0.
    9000005    1    3    3    0    0  0.25845225126E+02 -0.56892113088E+02  0.65748082039E+02  0.90711071459E+02  0.10000000000E+01 0.  0.
    9000005    1    3    3    0    0 -0.25845225126E+02  0.56892113088E+02  0.70311813735E+02  0.94071458712E+02  0.10000000000E+01 0.  0.
<mgrwt>
<rscale>  0 0.12502915E+03</rscale>
<asrwt>0</asrwt>
<pdfrwt beam="1">  1        4 0.24680186E-01 0.12502915E+03</pdfrwt>
<pdfrwt beam="2">  1       -4 0.37478950E-02 0.12502915E+03</pdfrwt>
<totfact> 0.92702573E+03</totfact>
</mgrwt>
</event>
<event>
 5    1  0.3282316E-002  0.1249988E+03  0.7818608E-02  0.1235071E+00
         -4   -1    0    0    0  501 -0.00000000000E+00  0.00000000000E+00  0.11598175664E+02  0.11667500964E+02  0.12700000000E+01 0. -1.
          4   -1    0    0  501    0  0.00000000000E+00 -0.00000000000E+00 -0.33571800633E+03  0.33572040848E+03  0.12700000000E+01 0. -1.
         25    2    1    2    0    0  0.00000000000E+00  0.00000000000E+00 -0.32411983066E+03  0.34738790945E+03  0.12499878000E+03 0.  0.
    9000005    1    3    3    0    0  0.12164798865E+02 -0.53148243433E+02 -0.77196009791E+02  0.94514242520E+02  0.10000000000E+01 0.  0.
    9000005    1    3    3    0    0 -0.12164798865E+02  0.53148243433E+02 -0.24692382087E+03  0.25287366693E+03  0.10000000000E+01 0.  0.
<mgrwt>
<rscale>  0 0.12499878E+03</rscale>
<asrwt>0</asrwt>
<pdfrwt beam="2">  1        4 0.51654434E-01 0.12499878E+03</pdfrwt>
<pdfrwt beam="1">  1       -4 0.17898525E-02 0.12499878E+03</pdfrwt>
<totfact> 0.70014770E+03</totfact>
</mgrwt>
</event>
<event>
 5    1  0.3282316E-002  0.1249969E+03  0.7818608E-02  0.1235074E+00
          4   -1    0    0  501    0  0.00000000000E+00  0.00000000000E+00  0.36778621370E+02  0.36800541978E+02  0.12700000000E+01 0.  1.
         -4   -1    0    0    0  501 -0.00000000000E+00 -0.00000000000E+00 -0.10614713823E+03  0.10615473543E+03  0.12700000000E+01 0.  1.
         25    2    1    2    0    0  0.00000000000E+00  0.00000000000E+00 -0.69368516855E+02  0.14295527740E+03  0.12499688079E+03 0.  0.
    9000005    1    3    3    0    0  0.27768869614E+02 -0.48557226584E+02 -0.28223899923E+01  0.56016785506E+02  0.10000000000E+01 0.  0.
    9000005    1    3    3    0    0 -0.27768869614E+02  0.48557226584E+02 -0.66546126862E+02  0.86938491898E+02  0.10000000000E+01 0.  0.
<mgrwt>
<rscale>  0 0.12499688E+03</rscale>
<asrwt>0</asrwt>
<pdfrwt beam="1">  1        4 0.56605201E-02 0.12499688E+03</pdfrwt>
<pdfrwt beam="2">  1       -4 0.16332599E-01 0.12499688E+03</pdfrwt>
<totfact> 0.10073407E+04</totfact>
</mgrwt>
</event>
<event>
 5    1  0.3282316E-002  0.1250007E+03  0.7818608E-02  0.1235068E+00
          4   -1    0    0  501    0  0.00000000000E+00  0.00000000000E+00  0.64270205341E+03  0.64270330819E+03  0.12700000000E+01 0.  1.
         -4   -1    0    0    0  501 -0.00000000000E+00 -0.00000000000E+00 -0.60103106340E+01  0.61430231903E+01  0.12700000000E+01 0.  1.
         25    2    1    2    0    0  0.00000000000E+00  0.00000000000E+00  0.63669174277E+03  0.64884633138E+03  0.12500074570E+03 0.  0.
    9000005    1    3    3    0    0  0.14174222487E+02 -0.12749552122E+02  0.62726409686E+03  0.62755454493E+03  0.10000000000E+01 0.  0.
    9000005    1    3    3    0    0 -0.14174222487E+02  0.12749552122E+02  0.94276459174E+01  0.21291786443E+02  0.10000000000E+01 0.  0.
<mgrwt>
<rscale>  0 0.12500075E+03</rscale>
<asrwt>0</asrwt>
<pdfrwt beam="1">  1        4 0.98887622E-01 0.12500075E+03</pdfrwt>
<pdfrwt beam="2">  1       -4 0.93496762E-03 0.12500075E+03</pdfrwt>
<totfact> 0.45921704E+03</totfact>
</mgrwt>
</event>
<event>
 5    1  0.3282316E-002  0.1250005E+03  0.7818608E-02  0.1235068E+00
          4   -1    0    0  501    0  0.00000000000E+00  0.00000000000E+00  0.89729556440E+02  0.89738543553E+02  0.12700000000E+01 0.  1.
         -4   -1    0    0    0  501 -0.00000000000E+00 -0.00000000000E+00 -0.43513510047E+02  0.43532039426E+02  0.12700000000E+01 0.  1.
         25    2    1    2    0    0  0.00000000000E+00  0.00000000000E+00  0.46216046394E+02  0.13327058298E+03  0.12500050137E+03 0.  0.
    9000005    1    3    3    0    0  0.12371019338E+02 -0.11443892720E+00 -0.42200075999E+02  0.43987516753E+02  0.10000000000E+01 0.  0.
    9000005    1    3    3    0    0 -0.12371019338E+02  0.11443892720E+00  0.88416122393E+02  0.89283066226E+02  0.10000000000E+01 0.  0.
<mgrwt>
<rscale>  0 0.12500050E+03</rscale>
<asrwt>0</asrwt>
<pdfrwt beam="1">  1        4 0.13806664E-01 0.12500050E+03</pdfrwt>
<pdfrwt beam="2">  1       -4 0.66965029E-02 0.12500050E+03</pdfrwt>
<totfact> 0.10274536E+04</totfact>
</mgrwt>
</event>
<event>
 5    1  0.3282316E-002  0.1249987E+03  0.7818608E-02  0.1235071E+00
          4   -1    0    0  501    0  0.00000000000E+00  0.00000000000E+00  0.39439598746E+02  0.39460041171E+02  0.12700000000E+01 0.  1.
         -4   -1    0    0    0  501 -0.00000000000E+00 -0.00000000000E+00 -0.98991636009E+02  0.98999782322E+02  0.12700000000E+01 0.  1.
         25    2    1    2    0    0  0.00000000000E+00  0.00000000000E+00 -0.59552037263E+02  0.13845982349E+03  0.12499871031E+03 0.  0.
    9000005    1    3    3    0    0 -0.14847019630E+02 -0.60196705899E+02 -0.21118161404E+02  0.65506138140E+02  0.10000000000E+01 0.  0.
    9000005    1    3    3    0    0  0.14847019630E+02  0.60196705899E+02 -0.38433875860E+02  0.72953685353E+02  0.10000000000E+01 0.  0.
<mgrwt>
<rscale>  0 0.12499871E+03</rscale>
<asrwt>0</asrwt>
<pdfrwt beam="1">  1        4 0.60698297E-02 0.12499871E+03</pdfrwt>
<pdfrwt beam="2">  1       -4 0.15231682E-01 0.12499871E+03</pdfrwt>
<totfact> 0.10165902E+04</totfact>
</mgrwt>
</event>
<event>
 5    1  0.3282316E-002  0.1250106E+03  0.7818608E-02  0.1235053E+00
          4   -1    0    0  501    0  0.00000000000E+00  0.00000000000E+00  0.63474386935E+02  0.63487090788E+02  0.12700000000E+01 0. -1.
         -4   -1    0    0    0  501 -0.00000000000E+00 -0.00000000000E+00 -0.61525638671E+02  0.61538744819E+02  0.12700000000E+01 0. -1.
         25    2    1    2    0    0  0.00000000000E+00  0.00000000000E+00  0.19487482637E+01  0.12502583561E+03  0.12501064734E+03 0.  0.
    9000005    1    3    3    0    0 -0.13910831176E+02 -0.30353688994E+02 -0.51862507611E+02  0.61689361768E+02  0.10000000000E+01 0.  0.
    9000005    1    3    3    0    0  0.13910831176E+02  0.30353688994E+02  0.53811255875E+02  0.63336473839E+02  0.10000000000E+01 0.  0.
<mgrwt>
<rscale>  0 0.12501065E+03</rscale>
<asrwt>0</asrwt>
<pdfrwt beam="1">  1        4 0.97672757E-02 0.12501065E+03</pdfrwt>
<pdfrwt beam="2">  1       -4 0.94674683E-02 0.12501065E+03</pdfrwt>
<totfact> 0.10449787E+04</totfact>
</mgrwt>
</event>
<event>
 5    1  0.3282316E-002  0.1249997E+03  0.7818608E-02  0.1235070E+00
          4   -1    0    0  501    0  0.00000000000E+00  0.00000000000E+00  0.15142998194E+02  0.15196160512E+02  0.12700000000E+01 0. -1.
         -4   -1    0    0    0  501 -0.00000000000E+00 -0.00000000000E+00 -0.25744951505E+03  0.25745264749E+03  0.12700000000E+01 0. -1.
         25    2    1    2    0    0  0.00000000000E+00  0.00000000000E+00 -0.24230651686E+03  0.27264880800E+03  0.12499969757E+03 0.  0.
    9000005    1    3    3    0    0 -0.16675323212E+02 -0.56808192867E+02 -0.16477684156E+03  0.17509324572E+03  0.10000000000E+01 0.  0.
    9000005    1    3    3    0    0  0.16675323212E+02  0.56808192867E+02 -0.77529675292E+02  0.97555562281E+02  0.10000000000E+01 0.  0.
<mgrwt>
<rscale>  0 0.12499970E+03</rscale>
<asrwt>0</asrwt>
<pdfrwt beam="1">  1        4 0.23340226E-02 0.12499970E+03</pdfrwt>
<pdfrwt beam="2">  1       -4 0.39611945E-01 0.12499970E+03</pdfrwt>
<totfact> 0.79163560E+03</totfact>
</mgrwt>
</event>
<event>
 5    1  0.3282316E-002  0.1249967E+03  0.7818608E-02  0.1235074E+00
         -4   -1    0    0    0  501 -0.00000000000E+00  0.00000000000E+00  0.29574497019E+03  0.29574769702E+03  0.12700000000E+01 0.  1.
          4   -1    0    0  501    0  0.00000000000E+00 -0.00000000000E+00 -0.13174157860E+02  0.13235230837E+02  0.12700000000E+01 0.  1.
         25    2    1    2    0    0  0.00000000000E+00  0.00000000000E+00  0.28257081233E+03  0.30898292785E+03  0.12499674286E+03 0.  0.
    9000005    1    3    3    0    0 -0.13371829485E+02  0.43004388367E+02  0.34194622654E+02  0.56554888923E+02  0.10000000000E+01 0.  0.
    9000005    1    3    3    0    0  0.13371829485E+02 -0.43004388367E+02  0.24837618967E+03  0.25242803893E+03  0.10000000000E+01 0.  0.
<mgrwt>
<rscale>  0 0.12499674E+03</rscale>
<asrwt>0</asrwt>
<pdfrwt beam="2">  1        4 0.20317012E-02 0.12499674E+03</pdfrwt>
<pdfrwt beam="1">  1       -4 0.45504134E-01 0.12499674E+03</pdfrwt>
<totfact> 0.74491059E+03</totfact>
</mgrwt>
</event>
<event>
 5    1  0.3282316E-002  0.1250009E+03  0.7818608E-02  0.1235068E+00
          4   -1    0    0  501    0  0.00000000000E+00  0.00000000000E+00  0.14287036288E+03  0.14287600740E+03  0.12700000000E+01 0. -1.
         -4   -1    0    0    0  501 -0.00000000000E+00 -0.00000000000E+00 -0.27320669741E+02  0.27350171756E+02  0.12700000000E+01 0. -1.
         25    2    1    2    0    0  0.00000000000E+00  0.00000000000E+00  0.11554969314E+03  0.17022617916E+03  0.12500088194E+03 0.  0.
    9000005    1    3    3    0    0  0.18533002211E+02 -0.34587832769E+02  0.12400810275E+03  0.13007228719E+03  0.10000000000E+01 0.  0.
    9000005    1    3    3    0    0 -0.18533002211E+02  0.34587832769E+02 -0.84584096128E+01  0.40153891963E+02  0.10000000000E+01 0.  0.
<mgrwt>
<rscale>  0 0.12500088E+03</rscale>
<asrwt>0</asrwt>
<pdfrwt beam="1">  1        4 0.21982759E-01 0.12500088E+03</pdfrwt>
<pdfrwt beam="2">  1       -4 0.42058835E-02 0.12500088E+03</pdfrwt>
<totfact> 0.95404608E+03</totfact>
</mgrwt>
</event>
<event>
 5    1  0.3282316E-002  0.1250016E+03  0.7818608E-02  0.1235067E+00
          4   -1    0    0  501    0  0.00000000000E+00  0.00000000000E+00  0.20218958119E+02  0.20258804689E+02  0.12700000000E+01 0.  1.
         -4   -1    0    0    0  501 -0.00000000000E+00 -0.00000000000E+00 -0.19297022704E+03  0.19297440614E+03  0.12700000000E+01 0.  1.
         25    2    1    2    0    0  0.00000000000E+00  0.00000000000E+00 -0.17275126892E+03  0.21323321083E+03  0.12500160513E+03 0.  0.
    9000005    1    3    3    0    0  0.51538120762E+02 -0.23881028548E+01 -0.14652856731E+03  0.15534961206E+03  0.10000000000E+01 0.  0.
    9000005    1    3    3    0    0 -0.51538120762E+02  0.23881028548E+01 -0.26222701607E+02  0.57883598770E+02  0.10000000000E+01 0.  0.
<mgrwt>
<rscale>  0 0.12500161E+03</rscale>
<asrwt>0</asrwt>
<pdfrwt beam="1">  1        4 0.31139957E-02 0.12500161E+03</pdfrwt>
<pdfrwt beam="2">  1       -4 0.29691113E-01 0.12500161E+03</pdfrwt>
<totfact> 0.87947408E+03</totfact>
</mgrwt>
</event>
<event>
 5    1  0.3282316E-002  0.1249945E+03  0.7818608E-02  0.1235078E+00
          4   -1    0    0  501    0  0.00000000000E+00  0.00000000000E+00  0.94502244286E+02  0.94510777561E+02  0.12700000000E+01 0.  1.
         -4   -1    0    0    0  501 -0.00000000000E+00 -0.00000000000E+00 -0.41311228452E+02  0.41330745169E+02  0.12700000000E+01 0.  1.
         25    2    1    2    0    0  0.00000000000E+00  0.00000000000E+00  0.53191015834E+02  0.13584152273E+03  0.12499454041E+03 0.  0.
    9000005    1    3    3    0    0 -0.46645795925E+02  0.40566411725E+02  0.36523033015E+02  0.71808049537E+02  0.10000000000E+01 0.  0.
    9000005    1    3    3    0    0  0.46645795925E+02 -0.40566411725E+02  0.16667982819E+02  0.64033473192E+02  0.10000000000E+01 0.  0.
<mgrwt>
<rscale>  0 0.12499454E+03</rscale>
<asrwt>0</asrwt>
<pdfrwt beam="1">  1        4 0.14540964E-01 0.12499454E+03</pdfrwt>
<pdfrwt beam="2">  1       -4 0.63577314E-02 0.12499454E+03</pdfrwt>
<totfact> 0.10221622E+04</totfact>
</mgrwt>
</event>
<event>
 5    1  0.3282316E-002  0.1249896E+03  0.7818608E-02  0.1235086E+00
         -4   -1    0    0    0  501 -0.00000000000E+00  0.00000000000E+00  0.37845181623E+02  0.37866484813E+02  0.12700000000E+01 0.  1.
          4   -1    0    0  501    0  0.00000000000E+00 -0.00000000000E+00 -0.10314507166E+03  0.10315288996E+03  0.12700000000E+01 0.  1.
         25    2    1    2    0    0  0.00000000000E+00  0.00000000000E+00 -0.65299890034E+02  0.14101937477E+03  0.12498955326E+03 0.  0.
    9000005    1    3    3    0    0 -0.13793344997E+02  0.12814230309E+02 -0.99874444760E+02  0.10163840603E+03  0.10000000000E+01 0.  0.
    9000005    1    3    3    0    0  0.13793344997E+02 -0.12814230309E+02  0.34574554725E+02  0.39380968742E+02  0.10000000000E+01 0.  0.
<mgrwt>
<rscale>  0 0.12498955E+03</rscale>
<asrwt>0</asrwt>
<pdfrwt beam="2">  1        4 0.15870713E-01 0.12498955E+03</pdfrwt>
<pdfrwt beam="1">  1       -4 0.58245758E-02 0.12498955E+03</pdfrwt>
<totfact> 0.10114883E+04</totfact>
</mgrwt>
</event>
<event>
 5    1  0.3282316E-002  0.1249993E+03  0.7818608E-02  0.1235070E+00
         -4   -1    0    0    0  501 -0.00000000000E+00  0.00000000000E+00  0.10948563669E+03  0.10949300225E+03  0.12700000000E+01 0.  1.
          4   -1    0    0  501    0  0.00000000000E+00 -0.00000000000E+00 -0.35657949641E+02  0.35680558749E+02  0.12700000000E+01 0.  1.
         25    2    1    2    0    0  0.00000000000E+00  0.00000000000E+00  0.73827687046E+02  0.14517356099E+03  0.12499934175E+03 0.  0.
    9000005    1    3    3    0    0 -0.29253312880E+01  0.41177519757E+02 -0.17573552918E+02  0.44877337918E+02  0.10000000000E+01 0.  0.
    9000005    1    3    3    0    0  0.29253312880E+01 -0.41177519757E+02  0.91401239964E+02  0.10029622308E+03  0.10000000000E+01 0.  0.
<mgrwt>
<rscale>  0 0.12499934E+03</rscale>
<asrwt>0</asrwt>
<pdfrwt beam="2">  1        4 0.54881441E-02 0.12499934E+03</pdfrwt>
<pdfrwt beam="1">  1       -4 0.16846250E-01 0.12499934E+03</pdfrwt>
<totfact> 0.10027612E+04</totfact>
</mgrwt>
</event>
<event>
 5    1  0.3282316E-002  0.1249983E+03  0.7818608E-02  0.1235072E+00
          4   -1    0    0  501    0  0.00000000000E+00  0.00000000000E+00  0.37322387855E+03  0.37322603931E+03  0.12700000000E+01 0. -1.
         -4   -1    0    0    0  501 -0.00000000000E+00 -0.00000000000E+00 -0.10425231820E+02  0.10502302533E+02  0.12700000000E+01 0. -1.
         25    2    1    2    0    0  0.00000000000E+00  0.00000000000E+00  0.36279864673E+03  0.38372834185E+03  0.12499832905E+03 0.  0.
    9000005    1    3    3    0    0  0.19194532999E+02  0.35564585011E+02  0.32772210838E+03  0.33020607221E+03  0.10000000000E+01 0.  0.
    9000005    1    3    3    0    0 -0.19194532999E+02 -0.35564585011E+02  0.35076538350E+02  0.53522269633E+02  0.10000000000E+01 0.  0.
<mgrwt>
<rscale>  0 0.12499833E+03</rscale>
<asrwt>0</asrwt>
<pdfrwt beam="1">  1        4 0.57425150E-01 0.12499833E+03</pdfrwt>
<pdfrwt beam="2">  1       -4 0.16099766E-02 0.12499833E+03</pdfrwt>
<totfact> 0.66169170E+03</totfact>
</mgrwt>
</event>
<event>
 5    1  0.3282316E-002  0.1250011E+03  0.7818608E-02  0.1235068E+00
         -4   -1    0    0    0  501 -0.00000000000E+00  0.00000000000E+00  0.26206673871E+02  0.26237428521E+02  0.12700000000E+01 0.  1.
          4   -1    0    0  501    0  0.00000000000E+00 -0.00000000000E+00 -0.14893734103E+03  0.14894275562E+03  0.12700000000E+01 0.  1.
         25    2    1    2    0    0  0.00000000000E+00  0.00000000000E+00 -0.12273066715E+03  0.17518018414E+03  0.12500112102E+03 0.  0.
    9000005    1    3    3    0    0  0.53754447610E+02 -0.28547886972E+02 -0.41506656996E+02  0.73677167857E+02  0.10000000000E+01 0.  0.
    9000005    1    3    3    0    0 -0.53754447610E+02  0.28547886972E+02 -0.81224010159E+02  0.10150301628E+03  0.10000000000E+01 0.  0.
<mgrwt>
<rscale>  0 0.12500112E+03</rscale>
<asrwt>0</asrwt>
<pdfrwt beam="2">  1        4 0.22916219E-01 0.12500112E+03</pdfrwt>
<pdfrwt beam="1">  1       -4 0.40345783E-02 0.12500112E+03</pdfrwt>
<totfact> 0.94489475E+03</totfact>
</mgrwt>
</event>
<event>
 5    1  0.3282316E-002  0.1249993E+03  0.7818608E-02  0.1235070E+00
         -4   -1    0    0    0  501 -0.00000000000E+00  0.00000000000E+00  0.12148917445E+02  0.12215117482E+02  0.12700000000E+01 0.  1.
          4   -1    0    0  501    0  0.00000000000E+00 -0.00000000000E+00 -0.32058611496E+03  0.32058863050E+03  0.12700000000E+01 0.  1.
         25    2    1    2    0    0  0.00000000000E+00  0.00000000000E+00 -0.30843719752E+03  0.33280374798E+03  0.12499931944E+03 0.  0.
    9000005    1    3    3    0    0 -0.46807468733E+02 -0.41060086616E+02 -0.14004558308E+03  0.15326654946E+03  0.10000000000E+01 0.  0.
    9000005    1    3    3    0    0  0.46807468733E+02  0.41060086616E+02 -0.16839161443E+03  0.17953719852E+03  0.10000000000E+01 0.  0.
<mgrwt>
<rscale>  0 0.12499932E+03</rscale>
<asrwt>0</asrwt>
<pdfrwt beam="2">  1        4 0.49326220E-01 0.12499932E+03</pdfrwt>
<pdfrwt beam="1">  1       -4 0.18743503E-02 0.12499932E+03</pdfrwt>
<totfact> 0.71659811E+03</totfact>
</mgrwt>
</event>
<event>
 5    1  0.3282316E-002  0.1250030E+03  0.7818608E-02  0.1235065E+00
          4   -1    0    0  501    0  0.00000000000E+00  0.00000000000E+00  0.78189248724E+02  0.78199562122E+02  0.12700000000E+01 0.  1.
         -4   -1    0    0    0  501 -0.00000000000E+00 -0.00000000000E+00 -0.49939652772E+02  0.49955798652E+02  0.12700000000E+01 0.  1.
         25    2    1    2    0    0  0.00000000000E+00  0.00000000000E+00  0.28249595952E+02  0.12815536077E+03  0.12500302726E+03 0.  0.
    9000005    1    3    3    0    0  0.31527055594E+02  0.53156461450E+02  0.46242522243E+01  0.61983452122E+02  0.10000000000E+01 0.  0.
    9000005    1    3    3    0    0 -0.31527055594E+02 -0.53156461450E+02  0.23625343728E+02  0.66171908652E+02  0.10000000000E+01 0.  0.
<mgrwt>
<rscale>  0 0.12500303E+03</rscale>
<asrwt>0</asrwt>
<pdfrwt beam="1">  1        4 0.12031151E-01 0.12500303E+03</pdfrwt>
<pdfrwt beam="2">  1       -4 0.76850588E-02 0.12500303E+03</pdfrwt>
<totfact> 0.10383424E+04</totfact>
</mgrwt>
</event>
<event>
 5    1  0.3282316E-002  0.1250020E+03  0.7818608E-02  0.1235066E+00
         -4   -1    0    0    0  501 -0.00000000000E+00  0.00000000000E+00  0.15233287110E+03  0.15233816501E+03  0.12700000000E+01 0. -1.
          4   -1    0    0  501    0  0.00000000000E+00 -0.00000000000E+00 -0.25622195430E+02  0.25653650786E+02  0.12700000000E+01 0. -1.
         25    2    1    2    0    0  0.00000000000E+00  0.00000000000E+00  0.12671067567E+03  0.17799181579E+03  0.12500196463E+03 0.  0.
    9000005    1    3    3    0    0 -0.24705683145E+02  0.38091694072E+02  0.22095451062E+01  0.45466801367E+02  0.10000000000E+01 0.  0.
    9000005    1    3    3    0    0  0.24705683145E+02 -0.38091694072E+02  0.12450113057E+03  0.13252501443E+03  0.10000000000E+01 0.  0.
<mgrwt>
<rscale>  0 0.12500196E+03</rscale>
<asrwt>0</asrwt>
<pdfrwt beam="2">  1        4 0.39447031E-02 0.12500196E+03</pdfrwt>
<pdfrwt beam="1">  1       -4 0.23438653E-01 0.12500196E+03</pdfrwt>
<totfact> 0.93975596E+03</totfact>
</mgrwt>
</event>
<event>
 5    1  0.3282316E-002  0.1250002E+03  0.7818608E-02  0.1235069E+00
          4   -1    0    0  501    0  0.00000000000E+00  0.00000000000E+00  0.12067041515E+02  0.12133688266E+02  0.12700000000E+01 0.  1.
         -4   -1    0    0    0  501 -0.00000000000E+00 -0.00000000000E+00 -0.32275376369E+03  0.32275626234E+03  0.12700000000E+01 0.  1.
         25    2    1    2    0    0  0.00000000000E+00  0.00000000000E+00 -0.31068672218E+03  0.33488995060E+03  0.12500015871E+03 0.  0.
    9000005    1    3    3    0    0 -0.17436730654E+02 -0.27374358035E+02 -0.29841581380E+03  0.30017726926E+03  0.10000000000E+01 0.  0.
    9000005    1    3    3    0    0  0.17436730654E+02  0.27374358035E+02 -0.12270908380E+02  0.34712681346E+02  0.10000000000E+01 0.  0.
<mgrwt>
<rscale>  0 0.12500016E+03</rscale>
<asrwt>0</asrwt>
<pdfrwt beam="1">  1        4 0.18617870E-02 0.12500016E+03</pdfrwt>
<pdfrwt beam="2">  1       -4 0.49659737E-01 0.12500016E+03</pdfrwt>
<totfact> 0.71419224E+03</totfact>
</mgrwt>
</event>
<event>
 5    1  0.3282316E-002  0.1249935E+03  0.7818608E-02  0.1235079E+00
          4   -1    0    0  501    0  0.00000000000E+00  0.00000000000E+00  0.10030146911E+02  0.10110229822E+02  0.12700000000E+01 0. -1.
         -4   -1    0    0    0  501 -0.00000000000E+00 -0.00000000000E+00 -0.38778080412E+03  0.38778288377E+03  0.12700000000E+01 0. -1.
         25    2    1    2    0    0  0.00000000000E+00  0.00000000000E+00 -0.37775065721E+03  0.39789311360E+03  0.12499348312E+03 0.  0.
    9000005    1    3    3    0    0 -0.52850808634E+02  0.61649709476E+01 -0.29318052371E+03  0.29797153274E+03  0.10000000000E+01 0.  0.
    9000005    1    3    3    0    0  0.52850808634E+02 -0.61649709476E+01 -0.84570133500E+02  0.99921580854E+02  0.10000000000E+01 0.  0.
<mgrwt>
<rscale>  0 0.12499348E+03</rscale>
<asrwt>0</asrwt>
<pdfrwt beam="1">  1        4 0.15494200E-02 0.12499348E+03</pdfrwt>
<pdfrwt beam="2">  1       -4 0.59664894E-01 0.12499348E+03</pdfrwt>
<totfact> 0.64767543E+03</totfact>
</mgrwt>
</event>
<event>
 5    1  0.3282316E-002  0.1249997E+03  0.7818608E-02  0.1235070E+00
         -4   -1    0    0    0  501 -0.00000000000E+00  0.00000000000E+00  0.55947523770E+02  0.55961936314E+02  0.12700000000E+01 0.  1.
          4   -1    0    0  501    0  0.00000000000E+00 -0.00000000000E+00 -0.69790409016E+02  0.69801963373E+02  0.12700000000E+01 0.  1.
         25    2    1    2    0    0  0.00000000000E+00  0.00000000000E+00 -0.13842885246E+02  0.12576389969E+03  0.12499973197E+03 0.  0.
    9000005    1    3    3    0    0 -0.59974612213E+02  0.17365446714E+02 -0.95296638445E+01  0.63169037848E+02  0.10000000000E+01 0.  0.
    9000005    1    3    3    0    0  0.59974612213E+02 -0.17365446714E+02 -0.43132214014E+01  0.62594861838E+02  0.10000000000E+01 0.  0.
<mgrwt>
<rscale>  0 0.12499973E+03</rscale>
<asrwt>0</asrwt>
<pdfrwt beam="2">  1        4 0.10738984E-01 0.12499973E+03</pdfrwt>
<pdfrwt beam="1">  1       -4 0.86093088E-02 0.12499973E+03</pdfrwt>
<totfact> 0.10436202E+04</totfact>
</mgrwt>
</event>
<event>
 5    1  0.3282316E-002  0.1249962E+03  0.7818608E-02  0.1235075E+00
         -4   -1    0    0    0  501 -0.00000000000E+00  0.00000000000E+00  0.31176295815E+02  0.31202152501E+02  0.12700000000E+01 0.  1.
          4   -1    0    0  501    0  0.00000000000E+00 -0.00000000000E+00 -0.12520686193E+03  0.12521330271E+03  0.12700000000E+01 0.  1.
         25    2    1    2    0    0  0.00000000000E+00  0.00000000000E+00 -0.94030566118E+02  0.15641545521E+03  0.12499618900E+03 0.  0.
    9000005    1    3    3    0    0 -0.56507574241E+02 -0.43958511769E+01 -0.79947320796E+02  0.98005120054E+02  0.10000000000E+01 0.  0.
    9000005    1    3    3    0    0  0.56507574241E+02  0.43958511769E+01 -0.14083245321E+02  0.58410335155E+02  0.10000000000E+01 0.  0.
<mgrwt>
<rscale>  0 0.12499619E+03</rscale>
<asrwt>0</asrwt>
<pdfrwt beam="2">  1        4 0.19265078E-01 0.12499619E+03</pdfrwt>
<pdfrwt beam="1">  1       -4 0.47988377E-02 0.12499619E+03</pdfrwt>
<totfact> 0.98046744E+03</totfact>
</mgrwt>
</event>
<event>
 5    1  0.3282316E-002  0.1249989E+03  0.7818608E-02  0.1235071E+00
          4   -1    0    0  501    0  0.00000000000E+00  0.00000000000E+00  0.33960617845E+02  0.33984356172E+02  0.12700000000E+01 0.  1.
         -4   -1    0    0    0  501 -0.00000000000E+00 -0.00000000000E+00 -0.11495350069E+03  0.11496051592E+03  0.12700000000E+01 0.  1.
         25    2    1    2    0    0  0.00000000000E+00  0.00000000000E+00 -0.80992882841E+02  0.14894487209E+03  0.12499891140E+03 0.  0.
    9000005    1    3    3    0    0  0.16421029237E+02 -0.43631342375E+02 -0.90084022406E+02  0.10143705108E+03  0.10000000000E+01 0.  0.
    9000005    1    3    3    0    0 -0.16421029237E+02  0.43631342375E+02  0.90911395656E+01  0.47507821011E+02  0.10000000000E+01 0.  0.
<mgrwt>
<rscale>  0 0.12499891E+03</rscale>
<asrwt>0</asrwt>
<pdfrwt beam="1">  1        4 0.52270761E-02 0.12499891E+03</pdfrwt>
<pdfrwt beam="2">  1       -4 0.17687520E-01 0.12499891E+03</pdfrwt>
<totfact> 0.99516877E+03</totfact>
</mgrwt>
</event>
<event>
 5    1  0.3282316E-002  0.1250012E+03  0.7818608E-02  0.1235067E+00
         -4   -1    0    0    0  501 -0.00000000000E+00  0.00000000000E+00  0.33805419854E+02  0.33829267085E+02  0.12700000000E+01 0. -1.
          4   -1    0    0  501    0  0.00000000000E+00 -0.00000000000E+00 -0.11548504236E+03  0.11549202531E+03  0.12700000000E+01 0. -1.
         25    2    1    2    0    0  0.00000000000E+00  0.00000000000E+00 -0.81679622507E+02  0.14932129239E+03  0.12500115051E+03 0.  0.
    9000005    1    3    3    0    0 -0.57900986347E+02  0.39714049619E+01 -0.13157315856E+02  0.59518158892E+02  0.10000000000E+01 0.  0.
    9000005    1    3    3    0    0  0.57900986347E+02 -0.39714049619E+01 -0.68522306651E+02  0.89803133499E+02  0.10000000000E+01 0.  0.
<mgrwt>
<rscale>  0 0.12500115E+03</rscale>
<asrwt>0</asrwt>
<pdfrwt beam="2">  1        4 0.17769301E-01 0.12500115E+03</pdfrwt>
<pdfrwt beam="1">  1       -4 0.52032054E-02 0.12500115E+03</pdfrwt>
<totfact> 0.99436585E+03</totfact>
</mgrwt>
</event>
<event>
 5    1  0.3282316E-002  0.1250389E+03  0.7818608E-02  0.1235008E+00
         -4   -1    0    0    0  501 -0.00000000000E+00  0.00000000000E+00  0.42831225917E+03  0.42831414202E+03  0.12700000000E+01 0.  1.
          4   -1    0    0  501    0  0.00000000000E+00 -0.00000000000E+00 -0.90796787516E+01  0.91680677480E+01  0.12700000000E+01 0.  1.
         25    2    1    2    0    0  0.00000000000E+00  0.00000000000E+00  0.41923258042E+03  0.43748220977E+03  0.12503890347E+03 0.  0.
    9000005    1    3    3    0    0  0.61909472267E+02  0.86458660931E+01  0.20826988602E+03  0.21745086613E+03  0.10000000000E+01 0.  0.
    9000005    1    3    3    0    0 -0.61909472267E+02 -0.86458660931E+01  0.21096269440E+03  0.22003134364E+03  0.10000000000E+01 0.  0.
<mgrwt>
<rscale>  0 0.12503890E+03</rscale>
<asrwt>0</asrwt>
<pdfrwt beam="2">  1        4 0.14038179E-02 0.12503890E+03</pdfrwt>
<pdfrwt beam="1">  1       -4 0.65901128E-01 0.12503890E+03</pdfrwt>
<totfact> 0.61011253E+03</totfact>
</mgrwt>
</event>
<event>
 5    1  0.3282316E-002  0.1250011E+03  0.7818608E-02  0.1235068E+00
         -4   -1    0    0    0  501 -0.00000000000E+00  0.00000000000E+00  0.32033842370E+02  0.32059007423E+02  0.12700000000E+01 0.  1.
          4   -1    0    0  501    0  0.00000000000E+00 -0.00000000000E+00 -0.12186716931E+03  0.12187378658E+03  0.12700000000E+01 0.  1.
         25    2    1    2    0    0  0.00000000000E+00  0.00000000000E+00 -0.89833326941E+02  0.15393279400E+03  0.12500111376E+03 0.  0.
    9000005    1    3    3    0    0  0.11106640050E+02 -0.57012979032E+02 -0.16526904537E+02  0.60398475186E+02  0.10000000000E+01 0.  0.
    9000005    1    3    3    0    0 -0.11106640050E+02  0.57012979032E+02 -0.73306422403E+02  0.93534318818E+02  0.10000000000E+01 0.  0.
<mgrwt>
<rscale>  0 0.12500111E+03</rscale>
<asrwt>0</asrwt>
<pdfrwt beam="2">  1        4 0.18751240E-01 0.12500111E+03</pdfrwt>
<pdfrwt beam="1">  1       -4 0.49307283E-02 0.12500111E+03</pdfrwt>
<totfact> 0.98522945E+03</totfact>
</mgrwt>
</event>
<event>
 5    1  0.3282316E-002  0.1250014E+03  0.7818608E-02  0.1235067E+00
         -4   -1    0    0    0  501 -0.00000000000E+00  0.00000000000E+00  0.84775376265E+02  0.84784888518E+02  0.12700000000E+01 0. -1.
          4   -1    0    0  501    0  0.00000000000E+00 -0.00000000000E+00 -0.46057858156E+02  0.46075364327E+02  0.12700000000E+01 0. -1.
         25    2    1    2    0    0  0.00000000000E+00  0.00000000000E+00  0.38717518110E+02  0.13086025284E+03  0.12500143826E+03 0.  0.
    9000005    1    3    3    0    0 -0.84620452525E+01 -0.60673680728E+02  0.32284027680E+02  0.69254315290E+02  0.10000000000E+01 0.  0.
    9000005    1    3    3    0    0  0.84620452525E+01  0.60673680728E+02  0.64334904296E+01  0.61605937555E+02  0.10000000000E+01 0.  0.
<mgrwt>
<rscale>  0 0.12500144E+03</rscale>
<asrwt>0</asrwt>
<pdfrwt beam="2">  1        4 0.70879028E-02 0.12500144E+03</pdfrwt>
<pdfrwt beam="1">  1       -4 0.13044444E-01 0.12500144E+03</pdfrwt>
<totfact> 0.10325751E+04</totfact>
</mgrwt>
</event>
<event>
 5    1  0.3282316E-002  0.1249986E+03  0.7818608E-02  0.1235072E+00
         -4   -1    0    0    0  501 -0.00000000000E+00  0.00000000000E+00  0.17127029974E+02  0.17174051815E+02  0.12700000000E+01 0. -1.
          4   -1    0    0  501    0  0.00000000000E+00 -0.00000000000E+00 -0.22770848106E+03  0.22771202262E+03  0.12700000000E+01 0. -1.
         25    2    1    2    0    0  0.00000000000E+00  0.00000000000E+00 -0.21058145109E+03  0.24488607444E+03  0.12499856764E+03 0.  0.
    9000005    1    3    3    0    0  0.55008265937E+02  0.14711341322E+02 -0.54852553029E+02  0.79070446178E+02  0.10000000000E+01 0.  0.
    9000005    1    3    3    0    0 -0.55008265937E+02 -0.14711341322E+02 -0.15572889806E+03  0.16581562826E+03  0.10000000000E+01 0.  0.
<mgrwt>
<rscale>  0 0.12499857E+03</rscale>
<asrwt>0</asrwt>
<pdfrwt beam="2">  1        4 0.35035961E-01 0.12499857E+03</pdfrwt>
<pdfrwt beam="1">  1       -4 0.26388173E-02 0.12499857E+03</pdfrwt>
<totfact> 0.83077666E+03</totfact>
</mgrwt>
</event>
<event>
 5    1  0.3282316E-002  0.1250025E+03  0.7818608E-02  0.1235065E+00
         -4   -1    0    0    0  501 -0.00000000000E+00  0.00000000000E+00  0.19347144551E+02  0.19388782898E+02  0.12700000000E+01 0.  1.
          4   -1    0    0  501    0  0.00000000000E+00 -0.00000000000E+00 -0.20165048506E+03  0.20165448427E+03  0.12700000000E+01 0.  1.
         25    2    1    2    0    0  0.00000000000E+00  0.00000000000E+00 -0.18230334051E+03  0.22104326716E+03  0.12500247197E+03 0.  0.
    9000005    1    3    3    0    0 -0.50107326333E+02 -0.37078982518E+02 -0.99022026310E+02  0.11701263518E+03  0.10000000000E+01 0.  0.
    9000005    1    3    3    0    0  0.50107326333E+02  0.37078982518E+02 -0.83281314197E+02  0.10403063199E+03  0.10000000000E+01 0.  0.
<mgrwt>
<rscale>  0 0.12500247E+03</rscale>
<asrwt>0</asrwt>
<pdfrwt beam="2">  1        4 0.31026661E-01 0.12500247E+03</pdfrwt>
<pdfrwt beam="1">  1       -4 0.29799945E-02 0.12500247E+03</pdfrwt>
<totfact> 0.86698749E+03</totfact>
</mgrwt>
</event>
<event>
 5    1  0.3282316E-002  0.1250025E+03  0.7818608E-02  0.1235065E+00
          4   -1    0    0  501    0  0.00000000000E+00  0.00000000000E+00  0.80429066915E+03  0.80429167184E+03  0.12700000000E+01 0.  1.
         -4   -1    0    0    0  501 -0.00000000000E+00 -0.00000000000E+00 -0.47729139958E+01  0.49389885616E+01  0.12700000000E+01 0.  1.
         25    2    1    2    0    0  0.00000000000E+00  0.00000000000E+00  0.79951775516E+03  0.80923066040E+03  0.12500248365E+03 0.  0.
    9000005    1    3    3    0    0  0.15284447927E+02 -0.58280770736E+02  0.29237659290E+03  0.29852191655E+03  0.10000000000E+01 0.  0.
    9000005    1    3    3    0    0 -0.15284447927E+02  0.58280770736E+02  0.50714116226E+03  0.51070874385E+03  0.10000000000E+01 0.  0.
<mgrwt>
<rscale>  0 0.12500248E+03</rscale>
<asrwt>0</asrwt>
<pdfrwt beam="1">  1        4 0.12374981E+00 0.12500248E+03</pdfrwt>
<pdfrwt beam="2">  1       -4 0.74714697E-03 0.12500248E+03</pdfrwt>
<totfact> 0.37853917E+03</totfact>
</mgrwt>
</event>
<event>
 5    1  0.3282316E-002  0.1250057E+03  0.7818608E-02  0.1235060E+00
          4   -1    0    0  501    0  0.00000000000E+00  0.00000000000E+00  0.67110683041E+02  0.67122698681E+02  0.12700000000E+01 0. -1.
         -4   -1    0    0    0  501 -0.00000000000E+00 -0.00000000000E+00 -0.58187272214E+02  0.58201130124E+02  0.12700000000E+01 0. -1.
         25    2    1    2    0    0  0.00000000000E+00  0.00000000000E+00  0.89234108270E+01  0.12532382880E+03  0.12500573909E+03 0.  0.
    9000005    1    3    3    0    0 -0.11370504147E+02 -0.47896638957E+02 -0.34136031439E+02  0.59913646445E+02  0.10000000000E+01 0.  0.
    9000005    1    3    3    0    0  0.11370504147E+02  0.47896638957E+02  0.43059442266E+02  0.65410182359E+02  0.10000000000E+01 0.  0.
<mgrwt>
<rscale>  0 0.12500574E+03</rscale>
<asrwt>0</asrwt>
<pdfrwt beam="1">  1        4 0.10326711E-01 0.12500574E+03</pdfrwt>
<pdfrwt beam="2">  1       -4 0.89538783E-02 0.12500574E+03</pdfrwt>
<totfact> 0.10444478E+04</totfact>
</mgrwt>
</event>
<event>
 5    1  0.3282316E-002  0.1250004E+03  0.7818608E-02  0.1235069E+00
          4   -1    0    0  501    0  0.00000000000E+00  0.00000000000E+00  0.36697865546E+02  0.36719834363E+02  0.12700000000E+01 0. -1.
         -4   -1    0    0    0  501 -0.00000000000E+00 -0.00000000000E+00 -0.10638654557E+03  0.10639412568E+03  0.12700000000E+01 0. -1.
         25    2    1    2    0    0  0.00000000000E+00  0.00000000000E+00 -0.69688680027E+02  0.14311396004E+03  0.12500037374E+03 0.  0.
    9000005    1    3    3    0    0 -0.45941957567E+02  0.42226288366E+02 -0.30953257752E+02  0.69662235535E+02  0.10000000000E+01 0.  0.
    9000005    1    3    3    0    0  0.45941957567E+02 -0.42226288366E+02 -0.38735422276E+02  0.73451724507E+02  0.10000000000E+01 0.  0.
<mgrwt>
<rscale>  0 0.12500037E+03</rscale>
<asrwt>0</asrwt>
<pdfrwt beam="1">  1        4 0.56480985E-02 0.12500037E+03</pdfrwt>
<pdfrwt beam="2">  1       -4 0.16369434E-01 0.12500037E+03</pdfrwt>
<totfact> 0.10069365E+04</totfact>
</mgrwt>
</event>
<event>
 5    1  0.3282316E-002  0.1249952E+03  0.7818608E-02  0.1235077E+00
         -4   -1    0    0    0  501 -0.00000000000E+00  0.00000000000E+00  0.45084931096E+02  0.45102814900E+02  0.12700000000E+01 0.  1.
          4   -1    0    0  501    0  0.00000000000E+00 -0.00000000000E+00 -0.86595659772E+02  0.86604972094E+02  0.12700000000E+01 0.  1.
         25    2    1    2    0    0  0.00000000000E+00  0.00000000000E+00 -0.41510728676E+02  0.13170778699E+03  0.12499520215E+03 0.  0.
    9000005    1    3    3    0    0 -0.78871796760E+01 -0.15454918993E+02  0.42500930957E+02  0.45917221786E+02  0.10000000000E+01 0.  0.
    9000005    1    3    3    0    0  0.78871796760E+01  0.15454918993E+02 -0.84011659634E+02  0.85790565208E+02  0.10000000000E+01 0.  0.
<mgrwt>
<rscale>  0 0.12499520E+03</rscale>
<asrwt>0</asrwt>
<pdfrwt beam="2">  1        4 0.13324501E-01 0.12499520E+03</pdfrwt>
<pdfrwt beam="1">  1       -4 0.69382353E-02 0.12499520E+03</pdfrwt>
<totfact> 0.10309055E+04</totfact>
</mgrwt>
</event>
<event>
 5    1  0.3282316E-002  0.1250006E+03  0.7818608E-02  0.1235068E+00
          4   -1    0    0  501    0  0.00000000000E+00  0.00000000000E+00  0.13266451228E+03  0.13267059101E+03  0.12700000000E+01 0. -1.
         -4   -1    0    0    0  501 -0.00000000000E+00 -0.00000000000E+00 -0.29424408830E+02  0.29451803595E+02  0.12700000000E+01 0. -1.
         25    2    1    2    0    0  0.00000000000E+00  0.00000000000E+00  0.10324010345E+03  0.16212239460E+03  0.12500060748E+03 0.  0.
    9000005    1    3    3    0    0  0.38505313304E+02  0.30808894617E+02  0.10140490551E+03  0.11276436495E+03  0.10000000000E+01 0.  0.
    9000005    1    3    3    0    0 -0.38505313304E+02 -0.30808894617E+02  0.18351979404E+01  0.49358029657E+02  0.10000000000E+01 0.  0.
<mgrwt>
<rscale>  0 0.12500061E+03</rscale>
<asrwt>0</asrwt>
<pdfrwt beam="1">  1        4 0.20412500E-01 0.12500061E+03</pdfrwt>
<pdfrwt beam="2">  1       -4 0.45294070E-02 0.12500061E+03</pdfrwt>
<totfact> 0.96933834E+03</totfact>
</mgrwt>
</event>
<event>
 5    1  0.3282316E-002  0.1250145E+03  0.7818608E-02  0.1235047E+00
          4   -1    0    0  501    0  0.00000000000E+00  0.00000000000E+00  0.49899680780E+02  0.49915839590E+02  0.12700000000E+01 0.  1.
         -4   -1    0    0    0  501 -0.00000000000E+00 -0.00000000000E+00 -0.78266178086E+02  0.78276481348E+02  0.12700000000E+01 0.  1.
         25    2    1    2    0    0  0.00000000000E+00  0.00000000000E+00 -0.28366497306E+02  0.12819232094E+03  0.12501445108E+03 0.  0.
    9000005    1    3    3    0    0 -0.11932696546E+02 -0.15907289236E+02 -0.74940766307E+02  0.77540631622E+02  0.10000000000E+01 0.  0.
    9000005    1    3    3    0    0  0.11932696546E+02  0.15907289236E+02  0.46574269000E+02  0.50651689316E+02  0.10000000000E+01 0.  0.
<mgrwt>
<rscale>  0 0.12501445E+03</rscale>
<asrwt>0</asrwt>
<pdfrwt beam="1">  1        4 0.76789095E-02 0.12501445E+03</pdfrwt>
<pdfrwt beam="2">  1       -4 0.12042986E-01 0.12501445E+03</pdfrwt>
<totfact> 0.10379950E+04</totfact>
</mgrwt>
</event>
<event>
 5    1  0.3282316E-002  0.1250007E+03  0.7818608E-02  0.1235068E+00
          4   -1    0    0  501    0  0.00000000000E+00  0.00000000000E+00  0.11140888623E+03  0.11141612465E+03  0.12700000000E+01 0. -1.
         -4   -1    0    0    0  501 -0.00000000000E+00 -0.00000000000E+00 -0.35042789148E+02  0.35065794890E+02  0.12700000000E+01 0. -1.
         25    2    1    2    0    0  0.00000000000E+00  0.00000000000E+00  0.76366097082E+02  0.14648191954E+03  0.12500068787E+03 0.  0.
    9000005    1    3    3    0    0 -0.22807335095E+02 -0.90193195489E+01  0.10553908821E+03  0.10835599567E+03  0.10000000000E+01 0.  0.
    9000005    1    3    3    0    0  0.22807335095E+02  0.90193195489E+01 -0.29172991124E+02  0.38125923862E+02  0.10000000000E+01 0.  0.
<mgrwt>
<rscale>  0 0.12500069E+03</rscale>
<asrwt>0</asrwt>
<pdfrwt beam="1">  1        4 0.17142155E-01 0.12500069E+03</pdfrwt>
<pdfrwt beam="2">  1       -4 0.53935249E-02 0.12500069E+03</pdfrwt>
<totfact> 0.10000811E+04</totfact>
</mgrwt>
</event>
<event>
 5    1  0.3282316E-002  0.1250010E+03  0.7818608E-02  0.1235068E+00
         -4   -1    0    0    0  501 -0.00000000000E+00  0.00000000000E+00  0.39187526714E+03  0.39187732506E+03  0.12700000000E+01 0. -1.
          4   -1    0    0  501    0  0.00000000000E+00 -0.00000000000E+00 -0.99257113183E+01  0.10006630061E+02  0.12700000000E+01 0. -1.
         25    2    1    2    0    0  0.00000000000E+00  0.00000000000E+00  0.38194955582E+03  0.40188395512E+03  0.12500100076E+03 0.  0.
    9000005    1    3    3    0    0 -0.21770695199E+02  0.26317589523E+02  0.22722058117E+02  0.41034992541E+02  0.10000000000E+01 0.  0.
    9000005    1    3    3    0    0  0.21770695199E+02 -0.26317589523E+02  0.35922749771E+03  0.36084896258E+03  0.10000000000E+01 0.  0.
<mgrwt>
<rscale>  0 0.12500100E+03</rscale>
<asrwt>0</asrwt>
<pdfrwt beam="2">  1        4 0.15334157E-02 0.12500100E+03</pdfrwt>
<pdfrwt beam="1">  1       -4 0.60294870E-01 0.12500100E+03</pdfrwt>
<totfact> 0.64368555E+03</totfact>
</mgrwt>
</event>
<event>
 5    1  0.3282316E-002  0.1249667E+03  0.7818608E-02  0.1235121E+00
          4   -1    0    0  501    0  0.00000000000E+00  0.00000000000E+00  0.19354716094E+02  0.19396338187E+02  0.12700000000E+01 0.  1.
         -4   -1    0    0    0  501 -0.00000000000E+00 -0.00000000000E+00 -0.20145641691E+03  0.20146041997E+03  0.12700000000E+01 0.  1.
         25    2    1    2    0    0  0.00000000000E+00  0.00000000000E+00 -0.18210170081E+03  0.22085675815E+03  0.12496670830E+03 0.  0.
    9000005    1    3    3    0    0  0.28863065123E+02 -0.26184421044E+02 -0.47505687293E+01  0.39271724395E+02  0.10000000000E+01 0.  0.
    9000005    1    3    3    0    0 -0.28863065123E+02  0.26184421044E+02 -0.17735113209E+03  0.18158503376E+03  0.10000000000E+01 0.  0.
<mgrwt>
<rscale>  0 0.12496671E+03</rscale>
<asrwt>0</asrwt>
<pdfrwt beam="1">  1        4 0.29811584E-02 0.12496671E+03</pdfrwt>
<pdfrwt beam="2">  1       -4 0.30996803E-01 0.12496671E+03</pdfrwt>
<totfact> 0.86797484E+03</totfact>
</mgrwt>
</event>
<event>
 5    1  0.3282316E-002  0.1249996E+03  0.7818608E-02  0.1235070E+00
         -4   -1    0    0    0  501 -0.00000000000E+00  0.00000000000E+00  0.57333071366E+02  0.57347135694E+02  0.12700000000E+01 0.  1.
          4   -1    0    0  501    0  0.00000000000E+00 -0.00000000000E+00 -0.68103847583E+02  0.68115688029E+02  0.12700000000E+01 0.  1.
         25    2    1    2    0    0  0.00000000000E+00  0.00000000000E+00 -0.10770776217E+02  0.12546282372E+03  0.12499964206E+03 0.  0.
    9000005    1    3    3    0    0  0.36352665366E+01 -0.55640246861E+02  0.22935747562E+02  0.60300089136E+02  0.10000000000E+01 0.  0.
    9000005    1    3    3    0    0 -0.36352665366E+01  0.55640246861E+02 -0.33706523778E+02  0.65162734586E+02  0.10000000000E+01 0.  0.
<mgrwt>
<rscale>  0 0.12499964E+03</rscale>
<asrwt>0</asrwt>
<pdfrwt beam="2">  1        4 0.10479508E-01 0.12499964E+03</pdfrwt>
<pdfrwt beam="1">  1       -4 0.88224652E-02 0.12499964E+03</pdfrwt>
<totfact> 0.10442860E+04</totfact>
</mgrwt>
</event>
<event>
 5    1  0.3282316E-002  0.1249746E+03  0.7818608E-02  0.1235109E+00
          4   -1    0    0  501    0  0.00000000000E+00  0.00000000000E+00  0.44884227690E+03  0.44884407363E+03  0.12700000000E+01 0.  1.
         -4   -1    0    0    0  501 -0.00000000000E+00 -0.00000000000E+00 -0.86512366674E+01  0.87439576780E+01  0.12700000000E+01 0.  1.
         25    2    1    2    0    0  0.00000000000E+00  0.00000000000E+00  0.44019104023E+03  0.45758803131E+03  0.12497461540E+03 0.  0.
    9000005    1    3    3    0    0 -0.48413441773E+02 -0.84838929123E+01  0.36132615005E+03  0.36465521317E+03  0.10000000000E+01 0.  0.
    9000005    1    3    3    0    0  0.48413441773E+02  0.84838929123E+01  0.78864890182E+02  0.92932818136E+02  0.10000000000E+01 0.  0.
<mgrwt>
<rscale>  0 0.12497462E+03</rscale>
<asrwt>0</asrwt>
<pdfrwt beam="1">  1        4 0.69059944E-01 0.12497462E+03</pdfrwt>
<pdfrwt beam="2">  1       -4 0.13382298E-02 0.12497462E+03</pdfrwt>
<totfact> 0.59345192E+03</totfact>
</mgrwt>
</event>
<event>
 5    1  0.3282316E-002  0.1250015E+03  0.7818608E-02  0.1235067E+00
          4   -1    0    0  501    0  0.00000000000E+00  0.00000000000E+00  0.53496108731E+02  0.53511181536E+02  0.12700000000E+01 0. -1.
         -4   -1    0    0    0  501 -0.00000000000E+00 -0.00000000000E+00 -0.72990198590E+02  0.73001246497E+02  0.12700000000E+01 0. -1.
         25    2    1    2    0    0  0.00000000000E+00  0.00000000000E+00 -0.19494089859E+02  0.12651242803E+03  0.12500149962E+03 0.  0.
    9000005    1    3    3    0    0 -0.13764790078E+02 -0.54128774785E+02  0.18626619797E+02  0.58884163157E+02  0.10000000000E+01 0.  0.
    9000005    1    3    3    0    0  0.13764790078E+02  0.54128774785E+02 -0.38120709655E+02  0.67628264877E+02  0.10000000000E+01 0.  0.
<mgrwt>
<rscale>  0 0.12500150E+03</rscale>
<asrwt>0</asrwt>
<pdfrwt beam="1">  1        4 0.82321799E-02 0.12500150E+03</pdfrwt>
<pdfrwt beam="2">  1       -4 0.11231271E-01 0.12500150E+03</pdfrwt>
<totfact> 0.10419404E+04</totfact>
</mgrwt>
</event>
<event>
 5    1  0.3282316E-002  0.1250036E+03  0.7818608E-02  0.1235064E+00
         -4   -1    0    0    0  501 -0.00000000000E+00  0.00000000000E+00  0.76663321844E+02  0.76673840494E+02  0.12700000000E+01 0.  1.
          4   -1    0    0  501    0  0.00000000000E+00 -0.00000000000E+00 -0.50934345145E+02  0.50950175812E+02  0.12700000000E+01 0.  1.
         25    2    1    2    0    0  0.00000000000E+00  0.00000000000E+00  0.25728976699E+02  0.12762401631E+03  0.12500363713E+03 0.  0.
    9000005    1    3    3    0    0 -0.45239259888E+02  0.22281226466E+02 -0.24820417682E+02  0.56214738476E+02  0.10000000000E+01 0.  0.
    9000005    1    3    3    0    0  0.45239259888E+02 -0.22281226466E+02  0.50549394381E+02  0.71409277831E+02  0.10000000000E+01 0.  0.
<mgrwt>
<rscale>  0 0.12500364E+03</rscale>
<asrwt>0</asrwt>
<pdfrwt beam="2">  1        4 0.78380800E-02 0.12500364E+03</pdfrwt>
<pdfrwt beam="1">  1       -4 0.11796384E-01 0.12500364E+03</pdfrwt>
<totfact> 0.10394762E+04</totfact>
</mgrwt>
</event>
<event>
 5    1  0.3282316E-002  0.1250005E+03  0.7818608E-02  0.1235069E+00
         -4   -1    0    0    0  501 -0.00000000000E+00  0.00000000000E+00  0.27828063195E+01  0.30589068329E+01  0.12700000000E+01 0. -1.
          4   -1    0    0  501    0  0.00000000000E+00 -0.00000000000E+00 -0.13370981585E+04  0.13370987616E+04  0.12700000000E+01 0. -1.
         25    2    1    2    0    0  0.00000000000E+00  0.00000000000E+00 -0.13343153522E+04  0.13401576685E+04  0.12500046915E+03 0.  0.
    9000005    1    3    3    0    0 -0.47406790310E+02  0.38746267573E+02 -0.80132393977E+03  0.80366021020E+03  0.10000000000E+01 0.  0.
    9000005    1    3    3    0    0  0.47406790310E+02 -0.38746267573E+02 -0.53299141240E+03  0.53649745825E+03  0.10000000000E+01 0.  0.
<mgrwt>
<rscale>  0 0.12500047E+03</rscale>
<asrwt>0</asrwt>
<pdfrwt beam="2">  1        4 0.20572821E+00 0.12500047E+03</pdfrwt>
<pdfrwt beam="1">  1       -4 0.44941001E-03 0.12500047E+03</pdfrwt>
<totfact> 0.21299945E+03</totfact>
</mgrwt>
</event>
<event>
 5    1  0.3282316E-002  0.1250080E+03  0.7818608E-02  0.1235057E+00
          4   -1    0    0  501    0  0.00000000000E+00  0.00000000000E+00  0.27834819620E+02  0.27863777261E+02  0.12700000000E+01 0.  1.
         -4   -1    0    0    0  501 -0.00000000000E+00 -0.00000000000E+00 -0.14024989909E+03  0.14025564906E+03  0.12700000000E+01 0.  1.
         25    2    1    2    0    0  0.00000000000E+00  0.00000000000E+00 -0.11241507947E+03  0.16811942632E+03  0.12500796541E+03 0.  0.
    9000005    1    3    3    0    0  0.23018986578E+02 -0.44338850340E+02 -0.57087930652E+01  0.50293117927E+02  0.10000000000E+01 0.  0.
    9000005    1    3    3    0    0 -0.23018986578E+02  0.44338850340E+02 -0.10670628640E+03  0.11782630839E+03  0.10000000000E+01 0.  0.
<mgrwt>
<rscale>  0 0.12500797E+03</rscale>
<asrwt>0</asrwt>
<pdfrwt beam="1">  1        4 0.42849499E-02 0.12500797E+03</pdfrwt>
<pdfrwt beam="2">  1       -4 0.21579577E-01 0.12500797E+03</pdfrwt>
<totfact> 0.95782728E+03</totfact>
</mgrwt>
</event>
<event>
 5    1  0.3282316E-002  0.1249939E+03  0.7818608E-02  0.1235079E+00
          4   -1    0    0  501    0  0.00000000000E+00  0.00000000000E+00  0.10156556989E+02  0.10235650926E+02  0.12700000000E+01 0.  1.
         -4   -1    0    0    0  501 -0.00000000000E+00 -0.00000000000E+00 -0.38299439533E+03  0.38299650097E+03  0.12700000000E+01 0.  1.
         25    2    1    2    0    0  0.00000000000E+00  0.00000000000E+00 -0.37283783834E+03  0.39323215189E+03  0.12499388619E+03 0.  0.
    9000005    1    3    3    0    0  0.29964590071E+02 -0.13630088029E+02 -0.35351955616E+03  0.35505032396E+03  0.10000000000E+01 0.  0.
    9000005    1    3    3    0    0 -0.29964590071E+02  0.13630088029E+02 -0.19318282178E+02  0.38181827931E+02  0.10000000000E+01 0.  0.
<mgrwt>
<rscale>  0 0.12499389E+03</rscale>
<asrwt>0</asrwt>
<pdfrwt beam="1">  1        4 0.15687936E-02 0.12499389E+03</pdfrwt>
<pdfrwt beam="2">  1       -4 0.58928450E-01 0.12499389E+03</pdfrwt>
<totfact> 0.65225198E+03</totfact>
</mgrwt>
</event>
<event>
 5    1  0.3282316E-002  0.1249941E+03  0.7818608E-02  0.1235078E+00
         -4   -1    0    0    0  501 -0.00000000000E+00  0.00000000000E+00  0.22114129420E+03  0.22114494093E+03  0.12700000000E+01 0. -1.
          4   -1    0    0  501    0  0.00000000000E+00 -0.00000000000E+00 -0.17635757557E+02  0.17681426543E+02  0.12700000000E+01 0. -1.
         25    2    1    2    0    0  0.00000000000E+00  0.00000000000E+00  0.20350553664E+03  0.23882636747E+03  0.12499412129E+03 0.  0.
    9000005    1    3    3    0    0  0.58669832446E+02  0.16167808266E+02  0.12886421400E+03  0.14251502698E+03  0.10000000000E+01 0.  0.
    9000005    1    3    3    0    0 -0.58669832446E+02 -0.16167808266E+02  0.74641322636E+02  0.96311340496E+02  0.10000000000E+01 0.  0.
<mgrwt>
<rscale>  0 0.12499412E+03</rscale>
<asrwt>0</asrwt>
<pdfrwt beam="2">  1        4 0.27169870E-02 0.12499412E+03</pdfrwt>
<pdfrwt beam="1">  1       -4 0.34025531E-01 0.12499412E+03</pdfrwt>
<totfact> 0.83983477E+03</totfact>
</mgrwt>
</event>
<event>
 5    1  0.3282316E-002  0.1250013E+03  0.7818608E-02  0.1235067E+00
          4   -1    0    0  501    0  0.00000000000E+00  0.00000000000E+00  0.10483877640E+03  0.10484646841E+03  0.12700000000E+01 0. -1.
         -4   -1    0    0    0  501 -0.00000000000E+00 -0.00000000000E+00 -0.37240488010E+02  0.37262136912E+02  0.12700000000E+01 0. -1.
         25    2    1    2    0    0  0.00000000000E+00  0.00000000000E+00  0.67598288393E+02  0.14210860532E+03  0.12500130844E+03 0.  0.
    9000005    1    3    3    0    0 -0.26816871353E+01  0.62261069098E+02  0.39094946355E+02  0.73573412328E+02  0.10000000000E+01 0.  0.
    9000005    1    3    3    0    0  0.26816871353E+01 -0.62261069098E+02  0.28503342038E+02  0.68535192991E+02  0.10000000000E+01 0.  0.
<mgrwt>
<rscale>  0 0.12500131E+03</rscale>
<asrwt>0</asrwt>
<pdfrwt beam="1">  1        4 0.16131300E-01 0.12500131E+03</pdfrwt>
<pdfrwt beam="2">  1       -4 0.57315628E-02 0.12500131E+03</pdfrwt>
<totfact> 0.10089772E+04</totfact>
</mgrwt>
</event>
<event>
 5    1  0.3282316E-002  0.1249916E+03  0.7818608E-02  0.1235082E+00
          4   -1    0    0  501    0  0.00000000000E+00  0.00000000000E+00  0.30751043063E+03  0.30751305313E+03  0.12700000000E+01 0. -1.
         -4   -1    0    0    0  501 -0.00000000000E+00 -0.00000000000E+00 -0.12666690863E+02  0.12730198640E+02  0.12700000000E+01 0. -1.
         25    2    1    2    0    0  0.00000000000E+00  0.00000000000E+00  0.29484373977E+03  0.32024325177E+03  0.12499163742E+03 0.  0.
    9000005    1    3    3    0    0 -0.53224631297E+02 -0.32316242066E+02  0.13397954593E+03  0.14774545545E+03  0.10000000000E+01 0.  0.
    9000005    1    3    3    0    0  0.53224631297E+02  0.32316242066E+02  0.16086419383E+03  0.17249779632E+03  0.10000000000E+01 0.  0.
<mgrwt>
<rscale>  0 0.12499164E+03</rscale>
<asrwt>0</asrwt>
<pdfrwt beam="1">  1        4 0.47314385E-01 0.12499164E+03</pdfrwt>
<pdfrwt beam="2">  1       -4 0.19538086E-02 0.12499164E+03</pdfrwt>
<totfact> 0.73140758E+03</totfact>
</mgrwt>
</event>
<event>
 5    1  0.3282316E-002  0.1249990E+03  0.7818608E-02  0.1235071E+00
          4   -1    0    0  501    0  0.00000000000E+00  0.00000000000E+00  0.30257875740E+02  0.30284516577E+02  0.12700000000E+01 0.  1.
         -4   -1    0    0    0  501 -0.00000000000E+00 -0.00000000000E+00 -0.12900994774E+03  0.12901619865E+03  0.12700000000E+01 0.  1.
         25    2    1    2    0    0  0.00000000000E+00  0.00000000000E+00 -0.98752071995E+02  0.15930071523E+03  0.12499898459E+03 0.  0.
    9000005    1    3    3    0    0  0.42425301414E+02 -0.34394065504E+02 -0.88079877927E+02  0.10364324791E+03  0.10000000000E+01 0.  0.
    9000005    1    3    3    0    0 -0.42425301414E+02  0.34394065504E+02 -0.10672194068E+02  0.55657467318E+02  0.10000000000E+01 0.  0.
<mgrwt>
<rscale>  0 0.12499898E+03</rscale>
<asrwt>0</asrwt>
<pdfrwt beam="1">  1        4 0.46575880E-02 0.12499898E+03</pdfrwt>
<pdfrwt beam="2">  1       -4 0.19850214E-01 0.12499898E+03</pdfrwt>
<totfact> 0.97479996E+03</totfact>
</mgrwt>
</event>
<event>
 5    1  0.3282316E-002  0.1250018E+03  0.7818608E-02  0.1235067E+00
         -4   -1    0    0    0  501 -0.00000000000E+00  0.00000000000E+00  0.66724561659E+02  0.66736646818E+02  0.12700000000E+01 0.  1.
          4   -1    0    0  501    0  0.00000000000E+00 -0.00000000000E+00 -0.58520286417E+02  0.58534065486E+02  0.12700000000E+01 0.  1.
         25    2    1    2    0    0  0.00000000000E+00  0.00000000000E+00  0.82042752422E+01  0.12527071230E+03  0.12500176490E+03 0.  0.
    9000005    1    3    3    0    0 -0.56637959805E+02 -0.18401756060E+02  0.23086950899E+02  0.63878716477E+02  0.10000000000E+01 0.  0.
    9000005    1    3    3    0    0  0.56637959805E+02  0.18401756060E+02 -0.14882675656E+02  0.61391995827E+02  0.10000000000E+01 0.  0.
<mgrwt>
<rscale>  0 0.12500176E+03</rscale>
<asrwt>0</asrwt>
<pdfrwt beam="2">  1        4 0.90051106E-02 0.12500176E+03</pdfrwt>
<pdfrwt beam="1">  1       -4 0.10267307E-01 0.12500176E+03</pdfrwt>
<totfact> 0.10446569E+04</totfact>
</mgrwt>
</event>
<event>
 5    1  0.3282316E-002  0.1250045E+03  0.7818608E-02  0.1235062E+00
         -4   -1    0    0    0  501 -0.00000000000E+00  0.00000000000E+00  0.22626592558E+03  0.22626948972E+03  0.12700000000E+01 0. -1.
          4   -1    0    0  501    0  0.00000000000E+00 -0.00000000000E+00 -0.17238171282E+02  0.17284890776E+02  0.12700000000E+01 0. -1.
         25    2    1    2    0    0  0.00000000000E+00  0.00000000000E+00  0.20902775430E+03  0.24355438050E+03  0.12500453669E+03 0.  0.
    9000005    1    3    3    0    0  0.44449455148E+02  0.17395554723E+02  0.18310747854E+03  0.18922924744E+03  0.10000000000E+01 0.  0.
    9000005    1    3    3    0    0 -0.44449455148E+02 -0.17395554723E+02  0.25920275759E+02  0.54325133064E+02  0.10000000000E+01 0.  0.
<mgrwt>
<rscale>  0 0.12500454E+03</rscale>
<asrwt>0</asrwt>
<pdfrwt beam="2">  1        4 0.26558945E-02 0.12500454E+03</pdfrwt>
<pdfrwt beam="1">  1       -4 0.34814008E-01 0.12500454E+03</pdfrwt>
<totfact> 0.83262419E+03</totfact>
</mgrwt>
</event>
<event>
 5    1  0.3282316E-002  0.1249973E+03  0.7818608E-02  0.1235073E+00
         -4   -1    0    0    0  501 -0.00000000000E+00  0.00000000000E+00  0.50287475036E+01  0.51866368155E+01  0.12700000000E+01 0. -1.
          4   -1    0    0  501    0  0.00000000000E+00 -0.00000000000E+00 -0.76458659066E+03  0.76458764541E+03  0.12700000000E+01 0. -1.
         25    2    1    2    0    0  0.00000000000E+00  0.00000000000E+00 -0.75955784315E+03  0.76977428222E+03  0.12499731389E+03 0.  0.
    9000005    1    3    3    0    0 -0.83165735296E+01  0.43721955973E+02 -0.10963205804E+03  0.11832566493E+03  0.10000000000E+01 0.  0.
    9000005    1    3    3    0    0  0.83165735296E+01 -0.43721955973E+02 -0.64992578511E+03  0.65144861730E+03  0.10000000000E+01 0.  0.
<mgrwt>
<rscale>  0 0.12499731E+03</rscale>
<asrwt>0</asrwt>
<pdfrwt beam="2">  1        4 0.11764084E+00 0.12499731E+03</pdfrwt>
<pdfrwt beam="1">  1       -4 0.78588053E-03 0.12499731E+03</pdfrwt>
<totfact> 0.39648064E+03</totfact>
</mgrwt>
</event>
<event>
 5    1  0.3282316E-002  0.1250166E+03  0.7818608E-02  0.1235043E+00
          4   -1    0    0  501    0  0.00000000000E+00  0.00000000000E+00  0.16840075641E+03  0.16840554522E+03  0.12700000000E+01 0. -1.
         -4   -1    0    0    0  501 -0.00000000000E+00 -0.00000000000E+00 -0.23179821439E+02  0.23214586405E+02  0.12700000000E+01 0. -1.
         25    2    1    2    0    0  0.00000000000E+00  0.00000000000E+00  0.14522093497E+03  0.19162013162E+03  0.12501661845E+03 0.  0.
    9000005    1    3    3    0    0 -0.12545361652E+02 -0.61216488679E+02  0.74452416411E+02  0.97206002359E+02  0.10000000000E+01 0.  0.
    9000005    1    3    3    0    0  0.12545361652E+02  0.61216488679E+02  0.70768518560E+02  0.94414129262E+02  0.10000000000E+01 0.  0.
<mgrwt>
<rscale>  0 0.12501662E+03</rscale>
<asrwt>0</asrwt>
<pdfrwt beam="1">  1        4 0.25910851E-01 0.12501662E+03</pdfrwt>
<pdfrwt beam="2">  1       -4 0.35691690E-02 0.12501662E+03</pdfrwt>
<totfact> 0.91532107E+03</totfact>
</mgrwt>
</event>
<event>
 5    1  0.3282316E-002  0.1249999E+03  0.7818608E-02  0.1235069E+00
         -4   -1    0    0    0  501 -0.00000000000E+00  0.00000000000E+00  0.12294072051E+03  0.12294728000E+03  0.12700000000E+01 0.  1.
          4   -1    0    0  501    0  0.00000000000E+00 -0.00000000000E+00 -0.31753289131E+02  0.31778676352E+02  0.12700000000E+01 0.  1.
         25    2    1    2    0    0  0.00000000000E+00  0.00000000000E+00  0.91187431382E+02  0.15472595636E+03  0.12499989571E+03 0.  0.
    9000005    1    3    3    0    0 -0.60749897597E+02  0.34637432540E+01  0.63216560400E+02  0.87748966285E+02  0.10000000000E+01 0.  0.
    9000005    1    3    3    0    0  0.60749897597E+02 -0.34637432540E+01  0.27970870982E+02  0.66976990070E+02  0.10000000000E+01 0.  0.
<mgrwt>
<rscale>  0 0.12499990E+03</rscale>
<asrwt>0</asrwt>
<pdfrwt beam="2">  1        4 0.48875788E-02 0.12499990E+03</pdfrwt>
<pdfrwt beam="1">  1       -4 0.18916415E-01 0.12499990E+03</pdfrwt>
<totfact> 0.98369554E+03</totfact>
</mgrwt>
</event>
<event>
 5    1  0.3282316E-002  0.1249949E+03  0.7818608E-02  0.1235077E+00
          4   -1    0    0  501    0  0.00000000000E+00  0.00000000000E+00  0.35153644206E+01  0.37377382211E+01  0.12700000000E+01 0.  1.
         -4   -1    0    0    0  501 -0.00000000000E+00 -0.00000000000E+00 -0.10768142753E+04  0.10768150243E+04  0.12700000000E+01 0.  1.
         25    2    1    2    0    0  0.00000000000E+00  0.00000000000E+00 -0.10732989109E+04  0.10805527625E+04  0.12499488121E+03 0.  0.
    9000005    1    3    3    0    0  0.19291151232E+02 -0.55883974497E+02 -0.36165668801E+03  0.36645835658E+03  0.10000000000E+01 0.  0.
    9000005    1    3    3    0    0 -0.19291151232E+02  0.55883974497E+02 -0.71164222290E+03  0.71409440590E+03  0.10000000000E+01 0.  0.
<mgrwt>
<rscale>  0 0.12499488E+03</rscale>
<asrwt>0</asrwt>
<pdfrwt beam="1">  1        4 0.55798944E-03 0.12499488E+03</pdfrwt>
<pdfrwt beam="2">  1       -4 0.16568064E+00 0.12499488E+03</pdfrwt>
<totfact> 0.28062820E+03</totfact>
</mgrwt>
</event>
<event>
 5    1  0.3282316E-002  0.1250096E+03  0.7818608E-02  0.1235054E+00
         -4   -1    0    0    0  501 -0.00000000000E+00  0.00000000000E+00  0.12747972570E+02  0.12811077420E+02  0.12700000000E+01 0. -1.
          4   -1    0    0  501    0  0.00000000000E+00 -0.00000000000E+00 -0.30564703469E+03  0.30564967318E+03  0.12700000000E+01 0. -1.
         25    2    1    2    0    0  0.00000000000E+00  0.00000000000E+00 -0.29289906212E+03  0.31846075060E+03  0.12500955596E+03 0.  0.
    9000005    1    3    3    0    0 -0.15994732690E+02 -0.57014421308E+02 -0.19735931677E+03  0.20605381731E+03  0.10000000000E+01 0.  0.
    9000005    1    3    3    0    0  0.15994732690E+02  0.57014421308E+02 -0.95539745355E+02  0.11240693330E+03  0.10000000000E+01 0.  0.
<mgrwt>
<rscale>  0 0.12500956E+03</rscale>
<asrwt>0</asrwt>
<pdfrwt beam="2">  1        4 0.47027673E-01 0.12500956E+03</pdfrwt>
<pdfrwt beam="1">  1       -4 0.19662840E-02 0.12500956E+03</pdfrwt>
<totfact> 0.73324040E+03</totfact>
</mgrwt>
</event>
<event>
 5    1  0.3282316E-002  0.1250000E+03  0.7818608E-02  0.1235069E+00
          4   -1    0    0  501    0  0.00000000000E+00  0.00000000000E+00  0.18640901703E+03  0.18641334322E+03  0.12700000000E+01 0. -1.
         -4   -1    0    0    0  501 -0.00000000000E+00 -0.00000000000E+00 -0.20931443917E+02  0.20969936682E+02  0.12700000000E+01 0. -1.
         25    2    1    2    0    0  0.00000000000E+00  0.00000000000E+00  0.16547757311E+03  0.20738327990E+03  0.12499999032E+03 0.  0.
    9000005    1    3    3    0    0  0.42747846283E+02 -0.43211177909E+02  0.10681898680E+03  0.12290598114E+03  0.10000000000E+01 0.  0.
    9000005    1    3    3    0    0 -0.42747846283E+02  0.43211177909E+02  0.58658586310E+02  0.84477298761E+02  0.10000000000E+01 0.  0.
<mgrwt>
<rscale>  0 0.12499999E+03</rscale>
<asrwt>0</asrwt>
<pdfrwt beam="1">  1        4 0.28681605E-01 0.12499999E+03</pdfrwt>
<pdfrwt beam="2">  1       -4 0.32235158E-02 0.12499999E+03</pdfrwt>
<totfact> 0.88905034E+03</totfact>
</mgrwt>
</event>
<event>
 5    1  0.3282316E-002  0.1250010E+03  0.7818608E-02  0.1235068E+00
         -4   -1    0    0    0  501 -0.00000000000E+00  0.00000000000E+00  0.10992838587E+04  0.10992845923E+04  0.12700000000E+01 0.  1.
          4   -1    0    0  501    0  0.00000000000E+00 -0.00000000000E+00 -0.34392778798E+01  0.36662695393E+01  0.12700000000E+01 0.  1.
         25    2    1    2    0    0  0.00000000000E+00  0.00000000000E+00  0.10958445808E+04  0.11029508619E+04  0.12500103339E+03 0.  0.
    9000005    1    3    3    0    0 -0.13159617662E+02  0.60729507929E+02  0.48934976252E+03  0.49328028417E+03  0.10000000000E+01 0.  0.
    9000005    1    3    3    0    0  0.13159617662E+02 -0.60729507929E+02  0.60649481832E+03  0.60967057770E+03  0.10000000000E+01 0.  0.
<mgrwt>
<rscale>  0 0.12500103E+03</rscale>
<asrwt>0</asrwt>
<pdfrwt beam="2">  1        4 0.54663733E-03 0.12500103E+03</pdfrwt>
<pdfrwt beam="1">  1       -4 0.16913801E+00 0.12500103E+03</pdfrwt>
<totfact> 0.27396589E+03</totfact>
</mgrwt>
</event>
<event>
 5    1  0.3282316E-002  0.1250090E+03  0.7818608E-02  0.1235055E+00
          4   -1    0    0  501    0  0.00000000000E+00  0.00000000000E+00  0.13925186679E+02  0.13982979799E+02  0.12700000000E+01 0. -1.
         -4   -1    0    0    0  501 -0.00000000000E+00 -0.00000000000E+00 -0.27991684526E+03  0.27991972628E+03  0.12700000000E+01 0. -1.
         25    2    1    2    0    0  0.00000000000E+00  0.00000000000E+00 -0.26599165858E+03  0.29390270608E+03  0.12500895250E+03 0.  0.
    9000005    1    3    3    0    0  0.27548220615E+02 -0.31530951352E+02 -0.24207822003E+03  0.24567452038E+03  0.10000000000E+01 0.  0.
    9000005    1    3    3    0    0 -0.27548220615E+02  0.31530951352E+02 -0.23913438551E+02  0.48228185696E+02  0.10000000000E+01 0.  0.
<mgrwt>
<rscale>  0 0.12500895E+03</rscale>
<asrwt>0</asrwt>
<pdfrwt beam="1">  1        4 0.21470039E-02 0.12500895E+03</pdfrwt>
<pdfrwt beam="2">  1       -4 0.43068793E-01 0.12500895E+03</pdfrwt>
<totfact> 0.76354913E+03</totfact>
</mgrwt>
</event>
<event>
 5    1  0.3282316E-002  0.1250018E+03  0.7818608E-02  0.1235066E+00
          4   -1    0    0  501    0  0.00000000000E+00  0.00000000000E+00  0.78881415801E+02  0.78891638713E+02  0.12700000000E+01 0. -1.
         -4   -1    0    0    0  501 -0.00000000000E+00 -0.00000000000E+00 -0.49500412428E+02  0.49516701532E+02  0.12700000000E+01 0. -1.
         25    2    1    2    0    0  0.00000000000E+00  0.00000000000E+00  0.29381003372E+02  0.12840834024E+03  0.12500183393E+03 0.  0.
    9000005    1    3    3    0    0 -0.16999814534E+02  0.54242239208E+02 -0.11981477908E+02  0.58101377103E+02  0.10000000000E+01 0.  0.
    9000005    1    3    3    0    0  0.16999814534E+02 -0.54242239208E+02  0.41362481280E+02  0.70306963141E+02  0.10000000000E+01 0.  0.
<mgrwt>
<rscale>  0 0.12500183E+03</rscale>
<asrwt>0</asrwt>
<pdfrwt beam="1">  1        4 0.12137642E-01 0.12500183E+03</pdfrwt>
<pdfrwt beam="2">  1       -4 0.76174875E-02 0.12500183E+03</pdfrwt>
<totfact> 0.10378249E+04</totfact>
</mgrwt>
</event>
<event>
 5    1  0.3282316E-002  0.1249999E+03  0.7818608E-02  0.1235069E+00
          4   -1    0    0  501    0  0.00000000000E+00  0.00000000000E+00  0.95761763741E+03  0.95761847955E+03  0.12700000000E+01 0. -1.
         -4   -1    0    0    0  501 -0.00000000000E+00 -0.00000000000E+00 -0.39794105909E+01  0.41771531754E+01  0.12700000000E+01 0. -1.
         25    2    1    2    0    0  0.00000000000E+00  0.00000000000E+00  0.95363822682E+03  0.96179563273E+03  0.12499988593E+03 0.  0.
    9000005    1    3    3    0    0  0.55134243507E+02  0.20664008665E+02  0.31570388416E+03  0.32114907525E+03  0.10000000000E+01 0.  0.
    9000005    1    3    3    0    0 -0.55134243507E+02 -0.20664008665E+02  0.63793434266E+03  0.64064655748E+03  0.10000000000E+01 0.  0.
<mgrwt>
<rscale>  0 0.12499989E+03</rscale>
<asrwt>0</asrwt>
<pdfrwt beam="1">  1        4 0.14734132E+00 0.12499989E+03</pdfrwt>
<pdfrwt beam="2">  1       -4 0.62749169E-03 0.12499989E+03</pdfrwt>
<totfact> 0.31900868E+03</totfact>
</mgrwt>
</event>
<event>
 5    1  0.3282316E-002  0.1250025E+03  0.7818608E-02  0.1235065E+00
         -4   -1    0    0    0  501 -0.00000000000E+00  0.00000000000E+00  0.40720553841E+03  0.40720751885E+03  0.12700000000E+01 0. -1.
          4   -1    0    0  501    0  0.00000000000E+00 -0.00000000000E+00 -0.95491623035E+01  0.96332445572E+01  0.12700000000E+01 0. -1.
         25    2    1    2    0    0  0.00000000000E+00  0.00000000000E+00  0.39765637610E+03  0.41684076341E+03  0.12500251431E+03 0.  0.
    9000005    1    3    3    0    0 -0.33022428445E+02 -0.28733864439E+02  0.34755889308E+03  0.35030600894E+03  0.10000000000E+01 0.  0.
    9000005    1    3    3    0    0  0.33022428445E+02  0.28733864439E+02  0.50097483025E+02  0.66534754463E+02  0.10000000000E+01 0.  0.
<mgrwt>
<rscale>  0 0.12500251E+03</rscale>
<asrwt>0</asrwt>
<pdfrwt beam="2">  1        4 0.14757217E-02 0.12500251E+03</pdfrwt>
<pdfrwt beam="1">  1       -4 0.62653641E-01 0.12500251E+03</pdfrwt>
<totfact> 0.62943681E+03</totfact>
</mgrwt>
</event>
<event>
 5    1  0.3282316E-002  0.1250081E+03  0.7818608E-02  0.1235057E+00
         -4   -1    0    0    0  501 -0.00000000000E+00  0.00000000000E+00  0.76333396587E+01  0.77382668825E+01  0.12700000000E+01 0. -1.
          4   -1    0    0  501    0  0.00000000000E+00 -0.00000000000E+00 -0.50820255859E+03  0.50820414546E+03  0.12700000000E+01 0. -1.
         25    2    1    2    0    0  0.00000000000E+00  0.00000000000E+00 -0.50056921893E+03  0.51594241234E+03  0.12500811936E+03 0.  0.
    9000005    1    3    3    0    0  0.18619887891E+02  0.47573568755E+02 -0.10171357669E+03  0.11382704578E+03  0.10000000000E+01 0.  0.
    9000005    1    3    3    0    0 -0.18619887891E+02 -0.47573568755E+02 -0.39885564225E+03  0.40211536656E+03  0.10000000000E+01 0.  0.
<mgrwt>
<rscale>  0 0.12500812E+03</rscale>
<asrwt>0</asrwt>
<pdfrwt beam="2">  1        4 0.78193176E-01 0.12500812E+03</pdfrwt>
<pdfrwt beam="1">  1       -4 0.11825537E-02 0.12500812E+03</pdfrwt>
<totfact> 0.54638567E+03</totfact>
</mgrwt>
</event>
<event>
 5    1  0.3282316E-002  0.1250001E+03  0.7818608E-02  0.1235069E+00
          4   -1    0    0  501    0  0.00000000000E+00  0.00000000000E+00  0.73600676977E+02  0.73611633261E+02  0.12700000000E+01 0. -1.
         -4   -1    0    0    0  501 -0.00000000000E+00 -0.00000000000E+00 -0.53051175387E+02  0.53066374570E+02  0.12700000000E+01 0. -1.
         25    2    1    2    0    0  0.00000000000E+00  0.00000000000E+00  0.20549501589E+02  0.12667800783E+03  0.12500014261E+03 0.  0.
    9000005    1    3    3    0    0 -0.44319993182E+01 -0.48598135918E+02 -0.29285591631E+02  0.56921589137E+02  0.10000000000E+01 0.  0.
    9000005    1    3    3    0    0  0.44319993182E+01  0.48598135918E+02  0.49835093221E+02  0.69756418694E+02  0.10000000000E+01 0.  0.
<mgrwt>
<rscale>  0 0.12500014E+03</rscale>
<asrwt>0</asrwt>
<pdfrwt beam="1">  1        4 0.11325193E-01 0.12500014E+03</pdfrwt>
<pdfrwt beam="2">  1       -4 0.81637313E-02 0.12500014E+03</pdfrwt>
<totfact> 0.10416116E+04</totfact>
</mgrwt>
</event>
<event>
 5    1  0.3282316E-002  0.1250024E+03  0.7818608E-02  0.1235066E+00
          4   -1    0    0  501    0  0.00000000000E+00  0.00000000000E+00  0.33810434773E+02  0.33834278469E+02  0.12700000000E+01 0. -1.
         -4   -1    0    0    0  501 -0.00000000000E+00 -0.00000000000E+00 -0.11547019691E+03  0.11547718075E+03  0.12700000000E+01 0. -1.
         25    2    1    2    0    0  0.00000000000E+00  0.00000000000E+00 -0.81659762135E+02  0.14931145922E+03  0.12500238039E+03 0.  0.
    9000005    1    3    3    0    0  0.31101154069E+02 -0.53943055013E+02 -0.47180121749E+02  0.78128732594E+02  0.10000000000E+01 0.  0.
    9000005    1    3    3    0    0 -0.31101154069E+02  0.53943055013E+02 -0.34479640386E+02  0.71182726625E+02  0.10000000000E+01 0.  0.
<mgrwt>
<rscale>  0 0.12500238E+03</rscale>
<asrwt>0</asrwt>
<pdfrwt beam="1">  1        4 0.52039767E-02 0.12500238E+03</pdfrwt>
<pdfrwt beam="2">  1       -4 0.17767017E-01 0.12500238E+03</pdfrwt>
<totfact> 0.99435798E+03</totfact>
</mgrwt>
</event>
<event>
 5    1  0.3282316E-002  0.1250029E+03  0.7818608E-02  0.1235065E+00
          4   -1    0    0  501    0  0.00000000000E+00  0.00000000000E+00  0.39898624948E+02  0.39918832307E+02  0.12700000000E+01 0.  1.
         -4   -1    0    0    0  501 -0.00000000000E+00 -0.00000000000E+00 -0.97859755639E+02  0.97867996167E+02  0.12700000000E+01 0.  1.
         25    2    1    2    0    0  0.00000000000E+00  0.00000000000E+00 -0.57961130691E+02  0.13778682847E+03  0.12500286969E+03 0.  0.
    9000005    1    3    3    0    0  0.55110569800E+02 -0.29461815960E+02 -0.28423015140E+02  0.68658876287E+02  0.10000000000E+01 0.  0.
    9000005    1    3    3    0    0 -0.55110569800E+02  0.29461815960E+02 -0.29538115551E+02  0.69127952188E+02  0.10000000000E+01 0.  0.
<mgrwt>
<rscale>  0 0.12500287E+03</rscale>
<asrwt>0</asrwt>
<pdfrwt beam="1">  1        4 0.61404383E-02 0.12500287E+03</pdfrwt>
<pdfrwt beam="2">  1       -4 0.15057535E-01 0.12500287E+03</pdfrwt>
<totfact> 0.10179001E+04</totfact>
</mgrwt>
</event>
<event>
 5    1  0.3282316E-002  0.1250101E+03  0.7818608E-02  0.1235053E+00
         -4   -1    0    0    0  501 -0.00000000000E+00  0.00000000000E+00  0.20602960325E+02  0.20642065647E+02  0.12700000000E+01 0. -1.
          4   -1    0    0  501    0  0.00000000000E+00 -0.00000000000E+00 -0.18940618543E+03  0.18941044316E+03  0.12700000000E+01 0. -1.
         25    2    1    2    0    0  0.00000000000E+00  0.00000000000E+00 -0.16880322510E+03  0.21005250881E+03  0.12501011020E+03 0.  0.
    9000005    1    3    3    0    0  0.41528180027E+02  0.43848733619E+02 -0.11142133098E+03  0.12673994703E+03  0.10000000000E+01 0.  0.
    9000005    1    3    3    0    0 -0.41528180027E+02 -0.43848733619E+02 -0.57381894120E+02  0.83312561773E+02  0.10000000000E+01 0.  0.
<mgrwt>
<rscale>  0 0.12501011E+03</rscale>
<asrwt>0</asrwt>
<pdfrwt beam="2">  1        4 0.29142748E-01 0.12501011E+03</pdfrwt>
<pdfrwt beam="1">  1       -4 0.31730219E-02 0.12501011E+03</pdfrwt>
<totfact> 0.88447313E+03</totfact>
</mgrwt>
</event>
<event>
 5    1  0.3282316E-002  0.1249987E+03  0.7818608E-02  0.1235071E+00
         -4   -1    0    0    0  501 -0.00000000000E+00  0.00000000000E+00  0.85714445538E+03  0.85714539624E+03  0.12700000000E+01 0. -1.
          4   -1    0    0  501    0  0.00000000000E+00 -0.00000000000E+00 -0.44677477654E+01  0.46447465050E+01  0.12700000000E+01 0. -1.
         25    2    1    2    0    0  0.00000000000E+00  0.00000000000E+00  0.85267670762E+03  0.86179014275E+03  0.12499872966E+03 0.  0.
    9000005    1    3    3    0    0  0.60286398303E+00 -0.17442501818E+02  0.84003436017E+03  0.84021624037E+03  0.10000000000E+01 0.  0.
    9000005    1    3    3    0    0 -0.60286398303E+00  0.17442501818E+02  0.12642347445E+02  0.21573902372E+02  0.10000000000E+01 0.  0.
<mgrwt>
<rscale>  0 0.12499873E+03</rscale>
<asrwt>0</asrwt>
<pdfrwt beam="2">  1        4 0.70103513E-03 0.12499873E+03</pdfrwt>
<pdfrwt beam="1">  1       -4 0.13188175E+00 0.12499873E+03</pdfrwt>
<totfact> 0.35650728E+03</totfact>
</mgrwt>
</event>
<event>
 5    1  0.3282316E-002  0.1249894E+03  0.7818608E-02  0.1235086E+00
          4   -1    0    0  501    0  0.00000000000E+00  0.00000000000E+00  0.23759673958E+02  0.23793591713E+02  0.12700000000E+01 0.  1.
         -4   -1    0    0    0  501 -0.00000000000E+00 -0.00000000000E+00 -0.16422524051E+03  0.16423015107E+03  0.12700000000E+01 0.  1.
         25    2    1    2    0    0  0.00000000000E+00  0.00000000000E+00 -0.14046556655E+03  0.18802374278E+03  0.12498940940E+03 0.  0.
    9000005    1    3    3    0    0  0.87274100968E+01 -0.43458883914E+02 -0.39788155474E+01  0.44515988715E+02  0.10000000000E+01 0.  0.
    9000005    1    3    3    0    0 -0.87274100968E+01  0.43458883914E+02 -0.13648675100E+03  0.14350775406E+03  0.10000000000E+01 0.  0.
<mgrwt>
<rscale>  0 0.12498941E+03</rscale>
<asrwt>0</asrwt>
<pdfrwt beam="1">  1        4 0.36583214E-02 0.12498941E+03</pdfrwt>
<pdfrwt beam="2">  1       -4 0.25268408E-01 0.12498941E+03</pdfrwt>
<totfact> 0.92214197E+03</totfact>
</mgrwt>
</event>
<event>
 5    1  0.3282316E-002  0.1250083E+03  0.7818608E-02  0.1235056E+00
          4   -1    0    0  501    0  0.00000000000E+00  0.00000000000E+00  0.12095414344E+02  0.12161905613E+02  0.12700000000E+01 0.  1.
         -4   -1    0    0    0  501 -0.00000000000E+00 -0.00000000000E+00 -0.32204279127E+03  0.32204529543E+03  0.12700000000E+01 0.  1.
         25    2    1    2    0    0  0.00000000000E+00  0.00000000000E+00 -0.30994737693E+03  0.33420720104E+03  0.12500830679E+03 0.  0.
    9000005    1    3    3    0    0  0.55006722089E+02  0.29639424771E+02 -0.15166222355E+03  0.16403251210E+03  0.10000000000E+01 0.  0.
    9000005    1    3    3    0    0 -0.55006722089E+02 -0.29639424771E+02 -0.15828515338E+03  0.17017468894E+03  0.10000000000E+01 0.  0.
<mgrwt>
<rscale>  0 0.12500831E+03</rscale>
<asrwt>0</asrwt>
<pdfrwt beam="1">  1        4 0.18661406E-02 0.12500831E+03</pdfrwt>
<pdfrwt beam="2">  1       -4 0.49550346E-01 0.12500831E+03</pdfrwt>
<totfact> 0.71484480E+03</totfact>
</mgrwt>
</event>
<event>
 5    1  0.3282316E-002  0.1250013E+03  0.7818608E-02  0.1235067E+00
          4   -1    0    0  501    0  0.00000000000E+00  0.00000000000E+00  0.79105687651E+02  0.79115881583E+02  0.12700000000E+01 0. -1.
         -4   -1    0    0    0  501 -0.00000000000E+00 -0.00000000000E+00 -0.49359626794E+02  0.49375962343E+02  0.12700000000E+01 0. -1.
         25    2    1    2    0    0  0.00000000000E+00  0.00000000000E+00  0.29746060856E+02  0.12849184393E+03  0.12500130327E+03 0.  0.
    9000005    1    3    3    0    0  0.41597592113E+02 -0.33443831948E+02  0.48284228491E+02  0.71980666056E+02  0.10000000000E+01 0.  0.
    9000005    1    3    3    0    0 -0.41597592113E+02  0.33443831948E+02 -0.18538167635E+02  0.56511177869E+02  0.10000000000E+01 0.  0.
<mgrwt>
<rscale>  0 0.12500130E+03</rscale>
<asrwt>0</asrwt>
<pdfrwt beam="1">  1        4 0.12172146E-01 0.12500130E+03</pdfrwt>
<pdfrwt beam="2">  1       -4 0.75958296E-02 0.12500130E+03</pdfrwt>
<totfact> 0.10376574E+04</totfact>
</mgrwt>
</event>
<event>
 5    1  0.3282316E-002  0.1249987E+03  0.7818608E-02  0.1235071E+00
         -4   -1    0    0    0  501 -0.00000000000E+00  0.00000000000E+00  0.88598604641E+03  0.88598695663E+03  0.12700000000E+01 0. -1.
          4   -1    0    0  501    0  0.00000000000E+00 -0.00000000000E+00 -0.43164514741E+01  0.44994058861E+01  0.12700000000E+01 0. -1.
         25    2    1    2    0    0  0.00000000000E+00  0.00000000000E+00  0.88166959493E+03  0.89048636252E+03  0.12499874882E+03 0.  0.
    9000005    1    3    3    0    0 -0.60647548611E+02 -0.12127836753E+02  0.50453840718E+03  0.50831605709E+03  0.10000000000E+01 0.  0.
    9000005    1    3    3    0    0  0.60647548611E+02  0.12127836753E+02  0.37713118775E+03  0.38217030543E+03  0.10000000000E+01 0.  0.
<mgrwt>
<rscale>  0 0.12499875E+03</rscale>
<asrwt>0</asrwt>
<pdfrwt beam="2">  1        4 0.67821313E-03 0.12499875E+03</pdfrwt>
<pdfrwt beam="1">  1       -4 0.13631964E+00 0.12499875E+03</pdfrwt>
<totfact> 0.34526281E+03</totfact>
</mgrwt>
</event>
<event>
 5    1  0.3282316E-002  0.1250029E+03  0.7818608E-02  0.1235065E+00
         -4   -1    0    0    0  501 -0.00000000000E+00  0.00000000000E+00  0.96299432271E+03  0.96299516015E+03  0.12700000000E+01 0.  1.
          4   -1    0    0  501    0  0.00000000000E+00 -0.00000000000E+00 -0.39562873134E+01  0.41551304800E+01  0.12700000000E+01 0.  1.
         25    2    1    2    0    0  0.00000000000E+00  0.00000000000E+00  0.95903803539E+03  0.96715029063E+03  0.12500292528E+03 0.  0.
    9000005    1    3    3    0    0 -0.27094004070E+02  0.49756119788E+02  0.68358818877E+03  0.68593262667E+03  0.10000000000E+01 0.  0.
    9000005    1    3    3    0    0  0.27094004070E+02 -0.49756119788E+02  0.27544984663E+03  0.28121766395E+03  0.10000000000E+01 0.  0.
<mgrwt>
<rscale>  0 0.12500293E+03</rscale>
<asrwt>0</asrwt>
<pdfrwt beam="2">  1        4 0.62401910E-03 0.12500293E+03</pdfrwt>
<pdfrwt beam="1">  1       -4 0.14816846E+00 0.12500293E+03</pdfrwt>
<totfact> 0.31712735E+03</totfact>
</mgrwt>
</event>
<event>
 5    1  0.3282316E-002  0.1250010E+03  0.7818608E-02  0.1235068E+00
         -4   -1    0    0    0  501 -0.00000000000E+00  0.00000000000E+00  0.48962366123E+02  0.48978834167E+02  0.12700000000E+01 0. -1.
          4   -1    0    0  501    0  0.00000000000E+00 -0.00000000000E+00 -0.79747012771E+02  0.79757124734E+02  0.12700000000E+01 0. -1.
         25    2    1    2    0    0  0.00000000000E+00  0.00000000000E+00 -0.30784646648E+02  0.12873595890E+03  0.12500101058E+03 0.  0.
    9000005    1    3    3    0    0 -0.93688524701E+01  0.20723056735E+02  0.44554198429E+02  0.50032959883E+02  0.10000000000E+01 0.  0.
    9000005    1    3    3    0    0  0.93688524701E+01 -0.20723056735E+02 -0.75338845076E+02  0.78702999018E+02  0.10000000000E+01 0.  0.
<mgrwt>
<rscale>  0 0.12500101E+03</rscale>
<asrwt>0</asrwt>
<pdfrwt beam="2">  1        4 0.12270816E-01 0.12500101E+03</pdfrwt>
<pdfrwt beam="1">  1       -4 0.75347163E-02 0.12500101E+03</pdfrwt>
<totfact> 0.10371387E+04</totfact>
</mgrwt>
</event>
<event>
 5    1  0.3282316E-002  0.1249958E+03  0.7818608E-02  0.1235076E+00
         -4   -1    0    0    0  501 -0.00000000000E+00  0.00000000000E+00  0.35557419589E+02  0.35580092578E+02  0.12700000000E+01 0.  1.
          4   -1    0    0  501    0  0.00000000000E+00 -0.00000000000E+00 -0.10978883528E+03  0.10979618050E+03  0.12700000000E+01 0.  1.
         25    2    1    2    0    0  0.00000000000E+00  0.00000000000E+00 -0.74231415692E+02  0.14537627308E+03  0.12499583072E+03 0.  0.
    9000005    1    3    3    0    0 -0.29552255878E+02 -0.29218397656E+00  0.26921395226E+02  0.39989782694E+02  0.10000000000E+01 0.  0.
    9000005    1    3    3    0    0  0.29552255878E+02  0.29218397656E+00 -0.10115281092E+03  0.10538649038E+03  0.10000000000E+01 0.  0.
<mgrwt>
<rscale>  0 0.12499583E+03</rscale>
<asrwt>0</asrwt>
<pdfrwt beam="2">  1        4 0.16892899E-01 0.12499583E+03</pdfrwt>
<pdfrwt beam="1">  1       -4 0.54726814E-02 0.12499583E+03</pdfrwt>
<totfact> 0.10024290E+04</totfact>
</mgrwt>
</event>
<event>
 5    1  0.3282316E-002  0.1250039E+03  0.7818608E-02  0.1235063E+00
         -4   -1    0    0    0  501 -0.00000000000E+00  0.00000000000E+00  0.21003050046E+03  0.21003434011E+03  0.12700000000E+01 0.  1.
          4   -1    0    0  501    0  0.00000000000E+00 -0.00000000000E+00 -0.18573945024E+02  0.18617312743E+02  0.12700000000E+01 0.  1.
         25    2    1    2    0    0  0.00000000000E+00  0.00000000000E+00  0.19145655544E+03  0.22865165285E+03  0.12500386287E+03 0.  0.
    9000005    1    3    3    0    0 -0.53041745848E+02 -0.27820406952E+02  0.63105146902E+02  0.87009547816E+02  0.10000000000E+01 0.  0.
    9000005    1    3    3    0    0  0.53041745848E+02  0.27820406952E+02  0.12835140854E+03  0.14164210504E+03  0.10000000000E+01 0.  0.
<mgrwt>
<rscale>  0 0.12500386E+03</rscale>
<asrwt>0</asrwt>
<pdfrwt beam="2">  1        4 0.28611614E-02 0.12500386E+03</pdfrwt>
<pdfrwt beam="1">  1       -4 0.32316016E-01 0.12500386E+03</pdfrwt>
<totfact> 0.85509696E+03</totfact>
</mgrwt>
</event>
<event>
 5    1  0.3282316E-002  0.1249996E+03  0.7818608E-02  0.1235070E+00
          4   -1    0    0  501    0  0.00000000000E+00  0.00000000000E+00  0.15543156548E+03  0.15543675385E+03  0.12700000000E+01 0. -1.
         -4   -1    0    0    0  501 -0.00000000000E+00 -0.00000000000E+00 -0.25109818385E+02  0.25141914790E+02  0.12700000000E+01 0. -1.
         25    2    1    2    0    0  0.00000000000E+00  0.00000000000E+00  0.13032174709E+03  0.18057866864E+03  0.12499959121E+03 0.  0.
    9000005    1    3    3    0    0  0.24253104179E+02  0.53755158552E+02  0.95026541043E+02  0.11184307594E+03  0.10000000000E+01 0.  0.
    9000005    1    3    3    0    0 -0.24253104179E+02 -0.53755158552E+02  0.35295206048E+02  0.68735592696E+02  0.10000000000E+01 0.  0.
<mgrwt>
<rscale>  0 0.12499959E+03</rscale>
<asrwt>0</asrwt>
<pdfrwt beam="1">  1        4 0.23915417E-01 0.12499959E+03</pdfrwt>
<pdfrwt beam="2">  1       -4 0.38659169E-02 0.12499959E+03</pdfrwt>
<totfact> 0.93513801E+03</totfact>
</mgrwt>
</event>
<event>
 5    1  0.3282316E-002  0.1250042E+03  0.7818608E-02  0.1235063E+00
         -4   -1    0    0    0  501 -0.00000000000E+00  0.00000000000E+00  0.27715683812E+03  0.27715974782E+03  0.12700000000E+01 0.  1.
          4   -1    0    0  501    0  0.00000000000E+00 -0.00000000000E+00 -0.14063345888E+02  0.14120573556E+02  0.12700000000E+01 0.  1.
         25    2    1    2    0    0  0.00000000000E+00  0.00000000000E+00  0.26309349223E+03  0.29128032138E+03  0.12500415982E+03 0.  0.
    9000005    1    3    3    0    0  0.31055915837E+02  0.37430020798E+02  0.22299002320E+03  0.22823458724E+03  0.10000000000E+01 0.  0.
    9000005    1    3    3    0    0 -0.31055915837E+02 -0.37430020798E+02  0.40103469028E+02  0.63045734142E+02  0.10000000000E+01 0.  0.
<mgrwt>
<rscale>  0 0.12500416E+03</rscale>
<asrwt>0</asrwt>
<pdfrwt beam="2">  1        4 0.21682174E-02 0.12500416E+03</pdfrwt>
<pdfrwt beam="1">  1       -4 0.42644145E-01 0.12500416E+03</pdfrwt>
<totfact> 0.76698709E+03</totfact>
</mgrwt>
</event>
<event>
 5    1  0.3282316E-002  0.1250038E+03  0.7818608E-02  0.1235063E+00
         -4   -1    0    0    0  501 -0.00000000000E+00  0.00000000000E+00  0.15031353798E+02  0.15084909579E+02  0.12700000000E+01 0.  1.
          4   -1    0    0  501    0  0.00000000000E+00 -0.00000000000E+00 -0.25937181088E+03  0.25937492011E+03  0.12700000000E+01 0.  1.
         25    2    1    2    0    0  0.00000000000E+00  0.00000000000E+00 -0.24434045708E+03  0.27445982969E+03  0.12500375652E+03 0.  0.
    9000005    1    3    3    0    0 -0.50368879069E+02 -0.24954589957E+02 -0.18212811472E+03  0.19060798963E+03  0.10000000000E+01 0.  0.
    9000005    1    3    3    0    0  0.50368879069E+02  0.24954589957E+02 -0.62212342359E+02  0.83851840054E+02  0.10000000000E+01 0.  0.
<mgrwt>
<rscale>  0 0.12500376E+03</rscale>
<asrwt>0</asrwt>
<pdfrwt beam="2">  1        4 0.39907711E-01 0.12500376E+03</pdfrwt>
<pdfrwt beam="1">  1       -4 0.23168750E-02 0.12500376E+03</pdfrwt>
<totfact> 0.78911882E+03</totfact>
</mgrwt>
</event>
<event>
 5    1  0.3282316E-002  0.1249963E+03  0.7818608E-02  0.1235075E+00
         -4   -1    0    0    0  501 -0.00000000000E+00  0.00000000000E+00  0.68665100899E+02  0.68676844580E+02  0.12700000000E+01 0.  1.
          4   -1    0    0  501    0  0.00000000000E+00 -0.00000000000E+00 -0.56861342271E+02  0.56875523250E+02  0.12700000000E+01 0.  1.
         25    2    1    2    0    0  0.00000000000E+00  0.00000000000E+00  0.11803758627E+02  0.12555236783E+03  0.12499627334E+03 0.  0.
    9000005    1    3    3    0    0 -0.76994120840E+01 -0.33244524805E+02 -0.46681165933E+02  0.57832608698E+02  0.10000000000E+01 0.  0.
    9000005    1    3    3    0    0  0.76994120840E+01  0.33244524805E+02  0.58484924561E+02  0.67719759131E+02  0.10000000000E+01 0.  0.
<mgrwt>
<rscale>  0 0.12499627E+03</rscale>
<asrwt>0</asrwt>
<pdfrwt beam="2">  1        4 0.87498930E-02 0.12499627E+03</pdfrwt>
<pdfrwt beam="1">  1       -4 0.10565856E-01 0.12499627E+03</pdfrwt>
<totfact> 0.10441675E+04</totfact>
</mgrwt>
</event>
<event>
 5    1  0.3282316E-002  0.1249946E+03  0.7818608E-02  0.1235078E+00
         -4   -1    0    0    0  501 -0.00000000000E+00  0.00000000000E+00  0.64015762057E+02  0.64028358496E+02  0.12700000000E+01 0. -1.
          4   -1    0    0  501    0  0.00000000000E+00 -0.00000000000E+00 -0.60989637653E+02  0.61002858958E+02  0.12700000000E+01 0. -1.
         25    2    1    2    0    0  0.00000000000E+00  0.00000000000E+00  0.30261244032E+01  0.12503121745E+03  0.12499459152E+03 0.  0.
    9000005    1    3    3    0    0  0.21146452924E+02 -0.24164391672E+02  0.55136807905E+02  0.63813461605E+02  0.10000000000E+01 0.  0.
    9000005    1    3    3    0    0 -0.21146452924E+02  0.24164391672E+02 -0.52110683502E+02  0.61217755849E+02  0.10000000000E+01 0.  0.
<mgrwt>
<rscale>  0 0.12499459E+03</rscale>
<asrwt>0</asrwt>
<pdfrwt beam="2">  1        4 0.93850072E-02 0.12499459E+03</pdfrwt>
<pdfrwt beam="1">  1       -4 0.98505647E-02 0.12499459E+03</pdfrwt>
<totfact> 0.10453462E+04</totfact>
</mgrwt>
</event>
<event>
 5    1  0.3282316E-002  0.1250043E+03  0.7818608E-02  0.1235062E+00
         -4   -1    0    0    0  501 -0.00000000000E+00  0.00000000000E+00  0.76706306800E+02  0.76716819557E+02  0.12700000000E+01 0.  1.
          4   -1    0    0  501    0  0.00000000000E+00 -0.00000000000E+00 -0.50906372403E+02  0.50922211767E+02  0.12700000000E+01 0.  1.
         25    2    1    2    0    0  0.00000000000E+00  0.00000000000E+00  0.25799934397E+02  0.12763903132E+03  0.12500434273E+03 0.  0.
    9000005    1    3    3    0    0  0.63426055230E+01 -0.61505941373E+02  0.22163781936E+02  0.65692029187E+02  0.10000000000E+01 0.  0.
    9000005    1    3    3    0    0 -0.63426055230E+01  0.61505941373E+02  0.36361524607E+01  0.61947002137E+02  0.10000000000E+01 0.  0.
<mgrwt>
<rscale>  0 0.12500434E+03</rscale>
<asrwt>0</asrwt>
<pdfrwt beam="2">  1        4 0.78337768E-02 0.12500434E+03</pdfrwt>
<pdfrwt beam="1">  1       -4 0.11802997E-01 0.12500434E+03</pdfrwt>
<totfact> 0.10394272E+04</totfact>
</mgrwt>
</event>
<event>
 5    1  0.3282316E-002  0.1249986E+03  0.7818608E-02  0.1235071E+00
         -4   -1    0    0    0  501 -0.00000000000E+00  0.00000000000E+00  0.48645628061E+02  0.48662203294E+02  0.12700000000E+01 0.  1.
          4   -1    0    0  501    0  0.00000000000E+00 -0.00000000000E+00 -0.80263074600E+02  0.80273121555E+02  0.12700000000E+01 0.  1.
         25    2    1    2    0    0  0.00000000000E+00  0.00000000000E+00 -0.31617446540E+02  0.12893532485E+03  0.12499862027E+03 0.  0.
    9000005    1    3    3    0    0  0.31759787836E+02  0.10504630527E+02 -0.70254923175E+02  0.77818928393E+02  0.10000000000E+01 0.  0.
    9000005    1    3    3    0    0 -0.31759787836E+02 -0.10504630527E+02  0.38637476636E+02  0.51116396456E+02  0.10000000000E+01 0.  0.
<mgrwt>
<rscale>  0 0.12499862E+03</rscale>
<asrwt>0</asrwt>
<pdfrwt beam="2">  1        4 0.12350213E-01 0.12499862E+03</pdfrwt>
<pdfrwt beam="1">  1       -4 0.74859907E-02 0.12499862E+03</pdfrwt>
<totfact> 0.10367660E+04</totfact>
</mgrwt>
</event>
<event>
 5    1  0.3282316E-002  0.1250012E+03  0.7818608E-02  0.1235067E+00
          4   -1    0    0  501    0  0.00000000000E+00  0.00000000000E+00  0.65307958701E+01  0.66531342010E+01  0.12700000000E+01 0.  1.
         -4   -1    0    0    0  501 -0.00000000000E+00 -0.00000000000E+00 -0.59246559227E+03  0.59246695345E+03  0.12700000000E+01 0.  1.
         25    2    1    2    0    0  0.00000000000E+00  0.00000000000E+00 -0.58593479640E+03  0.59912008765E+03  0.12500117515E+03 0.  0.
    9000005    1    3    3    0    0 -0.42477467895E+02 -0.44704664621E+02 -0.24444729267E+03  0.25210775714E+03  0.10000000000E+01 0.  0.
    9000005    1    3    3    0    0  0.42477467895E+02  0.44704664621E+02 -0.34148750373E+03  0.34701233051E+03  0.10000000000E+01 0.  0.
<mgrwt>
<rscale>  0 0.12500118E+03</rscale>
<asrwt>0</asrwt>
<pdfrwt beam="1">  1        4 0.10142536E-02 0.12500118E+03</pdfrwt>
<pdfrwt beam="2">  1       -4 0.91158027E-01 0.12500118E+03</pdfrwt>
<totfact> 0.48921956E+03</totfact>
</mgrwt>
</event>
<event>
 5    1  0.3282316E-002  0.1250062E+03  0.7818608E-02  0.1235060E+00
         -4   -1    0    0    0  501 -0.00000000000E+00  0.00000000000E+00  0.11256157666E+03  0.11256874095E+03  0.12700000000E+01 0. -1.
          4   -1    0    0  501    0  0.00000000000E+00 -0.00000000000E+00 -0.34686757353E+02  0.34709999073E+02  0.12700000000E+01 0. -1.
         25    2    1    2    0    0  0.00000000000E+00  0.00000000000E+00  0.77874819306E+02  0.14727874003E+03  0.12500615898E+03 0.  0.
    9000005    1    3    3    0    0  0.38528866307E+01  0.45650376787E+02  0.89017798617E+02  0.10011977880E+03  0.10000000000E+01 0.  0.
    9000005    1    3    3    0    0 -0.38528866307E+01 -0.45650376787E+02 -0.11142979311E+02  0.47158961228E+02  0.10000000000E+01 0.  0.
<mgrwt>
<rscale>  0 0.12500616E+03</rscale>
<asrwt>0</asrwt>
<pdfrwt beam="2">  1        4 0.53387632E-02 0.12500616E+03</pdfrwt>
<pdfrwt beam="1">  1       -4 0.17319504E-01 0.12500616E+03</pdfrwt>
<totfact> 0.99835089E+03</totfact>
</mgrwt>
</event>
<event>
 5    1  0.3282316E-002  0.1249976E+03  0.7818608E-02  0.1235073E+00
          4   -1    0    0  501    0  0.00000000000E+00  0.00000000000E+00  0.37228336157E+01  0.39334959171E+01  0.12700000000E+01 0. -1.
         -4   -1    0    0    0  501 -0.00000000000E+00 -0.00000000000E+00 -0.10201477533E+04  0.10201485438E+04  0.12700000000E+01 0. -1.
         25    2    1    2    0    0  0.00000000000E+00  0.00000000000E+00 -0.10164249197E+04  0.10240820397E+04  0.12499762702E+03 0.  0.
    9000005    1    3    3    0    0 -0.17600224505E+02  0.57388602360E+02 -0.65056055745E+03  0.65332477260E+03  0.10000000000E+01 0.  0.
    9000005    1    3    3    0    0  0.17600224505E+02 -0.57388602360E+02 -0.36586436223E+03  0.37075726714E+03  0.10000000000E+01 0.  0.
<mgrwt>
<rscale>  0 0.12499763E+03</rscale>
<asrwt>0</asrwt>
<pdfrwt beam="1">  1        4 0.58901005E-03 0.12499763E+03</pdfrwt>
<pdfrwt beam="2">  1       -4 0.15696186E+00 0.12499763E+03</pdfrwt>
<totfact> 0.29819606E+03</totfact>
</mgrwt>
</event>
<event>
 5    1  0.3282316E-002  0.1249967E+03  0.7818608E-02  0.1235074E+00
         -4   -1    0    0    0  501 -0.00000000000E+00  0.00000000000E+00  0.29029390838E+02  0.29057158024E+02  0.12700000000E+01 0.  1.
          4   -1    0    0  501    0  0.00000000000E+00 -0.00000000000E+00 -0.13445965809E+03  0.13446565566E+03  0.12700000000E+01 0.  1.
         25    2    1    2    0    0  0.00000000000E+00  0.00000000000E+00 -0.10543026725E+03  0.16352281369E+03  0.12499667733E+03 0.  0.
    9000005    1    3    3    0    0 -0.35680559302E+02 -0.55174924634E+01  0.14010325749E+02  0.38740602251E+02  0.10000000000E+01 0.  0.
    9000005    1    3    3    0    0  0.35680559302E+02  0.55174924634E+01 -0.11944059300E+03  0.12478221144E+03  0.10000000000E+01 0.  0.
<mgrwt>
<rscale>  0 0.12499668E+03</rscale>
<asrwt>0</asrwt>
<pdfrwt beam="2">  1        4 0.20688698E-01 0.12499668E+03</pdfrwt>
<pdfrwt beam="1">  1       -4 0.44686575E-02 0.12499668E+03</pdfrwt>
<totfact> 0.96675099E+03</totfact>
</mgrwt>
</event>
<event>
 5    1  0.3282316E-002  0.1250008E+03  0.7818608E-02  0.1235068E+00
          4   -1    0    0  501    0  0.00000000000E+00  0.00000000000E+00  0.79552190633E+01  0.80559549617E+01  0.12700000000E+01 0. -1.
         -4   -1    0    0    0  501 -0.00000000000E+00 -0.00000000000E+00 -0.48784495322E+03  0.48784660630E+03  0.12700000000E+01 0. -1.
         25    2    1    2    0    0  0.00000000000E+00  0.00000000000E+00 -0.47988973415E+03  0.49590256126E+03  0.12500077328E+03 0.  0.
    9000005    1    3    3    0    0  0.48604002144E+02 -0.39058046292E+02 -0.25650206551E+03  0.26397384267E+03  0.10000000000E+01 0.  0.
    9000005    1    3    3    0    0 -0.48604002144E+02  0.39058046292E+02 -0.22338766864E+03  0.23192871859E+03  0.10000000000E+01 0.  0.
<mgrwt>
<rscale>  0 0.12500077E+03</rscale>
<asrwt>0</asrwt>
<pdfrwt beam="1">  1        4 0.12317563E-02 0.12500077E+03</pdfrwt>
<pdfrwt beam="2">  1       -4 0.75060923E-01 0.12500077E+03</pdfrwt>
<totfact> 0.56182739E+03</totfact>
</mgrwt>
</event>
<event>
 5    1  0.3282316E-002  0.1249986E+03  0.7818608E-02  0.1235071E+00
          4   -1    0    0  501    0  0.00000000000E+00  0.00000000000E+00  0.37247869962E+02  0.37269514576E+02  0.12700000000E+01 0. -1.
         -4   -1    0    0    0  501 -0.00000000000E+00 -0.00000000000E+00 -0.10481344164E+03  0.10482113551E+03  0.12700000000E+01 0. -1.
         25    2    1    2    0    0  0.00000000000E+00  0.00000000000E+00 -0.67565571679E+02  0.14209065008E+03  0.12499858545E+03 0.  0.
    9000005    1    3    3    0    0  0.30926579363E+02 -0.35205224209E+02 -0.80779728765E+02  0.93392856804E+02  0.10000000000E+01 0.  0.
    9000005    1    3    3    0    0 -0.30926579363E+02  0.35205224209E+02  0.13214157086E+02  0.48697793278E+02  0.10000000000E+01 0.  0.
<mgrwt>
<rscale>  0 0.12499859E+03</rscale>
<asrwt>0</asrwt>
<pdfrwt beam="1">  1        4 0.57326984E-02 0.12499859E+03</pdfrwt>
<pdfrwt beam="2">  1       -4 0.16127402E-01 0.12499859E+03</pdfrwt>
<totfact> 0.10090760E+04</totfact>
</mgrwt>
</event>
<event>
 5    1  0.3282316E-002  0.1249997E+03  0.7818608E-02  0.1235070E+00
         -4   -1    0    0    0  501 -0.00000000000E+00  0.00000000000E+00  0.62245428594E+01  0.63527815804E+01  0.12700000000E+01 0. -1.
          4   -1    0    0  501    0  0.00000000000E+00 -0.00000000000E+00 -0.62102605025E+03  0.62102734883E+03  0.12700000000E+01 0. -1.
         25    2    1    2    0    0  0.00000000000E+00  0.00000000000E+00 -0.61480150739E+03  0.62738013041E+03  0.12499973815E+03 0.  0.
    9000005    1    3    3    0    0 -0.46616874718E+02 -0.34440990361E+02 -0.42467041904E+03  0.42860853891E+03  0.10000000000E+01 0.  0.
    9000005    1    3    3    0    0  0.46616874718E+02  0.34440990361E+02 -0.19013108836E+03  0.19877159149E+03  0.10000000000E+01 0.  0.
<mgrwt>
<rscale>  0 0.12499974E+03</rscale>
<asrwt>0</asrwt>
<pdfrwt beam="2">  1        4 0.95552386E-01 0.12499974E+03</pdfrwt>
<pdfrwt beam="1">  1       -4 0.96758687E-03 0.12499974E+03</pdfrwt>
<totfact> 0.47183974E+03</totfact>
</mgrwt>
</event>
<event>
 5    1  0.3282316E-002  0.1249911E+03  0.7818608E-02  0.1235083E+00
         -4   -1    0    0    0  501 -0.00000000000E+00  0.00000000000E+00  0.88663128604E+02  0.88672223801E+02  0.12700000000E+01 0. -1.
          4   -1    0    0  501    0  0.00000000000E+00 -0.00000000000E+00 -0.44030448377E+02  0.44048760303E+02  0.12700000000E+01 0. -1.
         25    2    1    2    0    0  0.00000000000E+00  0.00000000000E+00  0.44632680227E+02  0.13272098410E+03  0.12499113360E+03 0.  0.
    9000005    1    3    3    0    0  0.16293922964E+02  0.59255902896E+02  0.10305681826E+02  0.62321433163E+02  0.10000000000E+01 0.  0.
    9000005    1    3    3    0    0 -0.16293922964E+02 -0.59255902896E+02  0.34326998401E+02  0.70399550942E+02  0.10000000000E+01 0.  0.
<mgrwt>
<rscale>  0 0.12499113E+03</rscale>
<asrwt>0</asrwt>
<pdfrwt beam="2">  1        4 0.67760235E-02 0.12499113E+03</pdfrwt>
<pdfrwt beam="1">  1       -4 0.13642589E-01 0.12499113E+03</pdfrwt>
<totfact> 0.10288391E+04</totfact>
</mgrwt>
</event>
<event>
 5    1  0.3282316E-002  0.1250017E+03  0.7818608E-02  0.1235067E+00
         -4   -1    0    0    0  501 -0.00000000000E+00  0.00000000000E+00  0.83280402682E+02  0.83290085670E+02  0.12700000000E+01 0. -1.
          4   -1    0    0  501    0  0.00000000000E+00 -0.00000000000E+00 -0.46885031668E+02  0.46902229099E+02  0.12700000000E+01 0. -1.
         25    2    1    2    0    0  0.00000000000E+00  0.00000000000E+00  0.36395371014E+02  0.13019231477E+03  0.12500166316E+03 0.  0.
    9000005    1    3    3    0    0  0.72716748842E+00 -0.32499952947E+02  0.73786016276E+02  0.80635921970E+02  0.10000000000E+01 0.  0.
    9000005    1    3    3    0    0 -0.72716748842E+00  0.32499952947E+02 -0.37390645261E+02  0.49556392799E+02  0.10000000000E+01 0.  0.
<mgrwt>
<rscale>  0 0.12500166E+03</rscale>
<asrwt>0</asrwt>
<pdfrwt beam="2">  1        4 0.72151497E-02 0.12500166E+03</pdfrwt>
<pdfrwt beam="1">  1       -4 0.12814437E-01 0.12500166E+03</pdfrwt>
<totfact> 0.10340007E+04</totfact>
</mgrwt>
</event>
<event>
 5    1  0.3282316E-002  0.1250005E+03  0.7818608E-02  0.1235068E+00
          4   -1    0    0  501    0  0.00000000000E+00  0.00000000000E+00  0.73972151431E+02  0.73983052704E+02  0.12700000000E+01 0.  1.
         -4   -1    0    0    0  501 -0.00000000000E+00 -0.00000000000E+00 -0.52785036230E+02  0.52800312024E+02  0.12700000000E+01 0.  1.
         25    2    1    2    0    0  0.00000000000E+00  0.00000000000E+00  0.21187115201E+02  0.12678336473E+03  0.12500051088E+03 0.  0.
    9000005    1    3    3    0    0 -0.49800231702E+02  0.46960596012E+01  0.48586680526E+02  0.69740817158E+02  0.10000000000E+01 0.  0.
    9000005    1    3    3    0    0  0.49800231702E+02 -0.46960596012E+01 -0.27399565324E+02  0.57042547570E+02  0.10000000000E+01 0.  0.
<mgrwt>
<rscale>  0 0.12500051E+03</rscale>
<asrwt>0</asrwt>
<pdfrwt beam="1">  1        4 0.11382345E-01 0.12500051E+03</pdfrwt>
<pdfrwt beam="2">  1       -4 0.81227885E-02 0.12500051E+03</pdfrwt>
<totfact> 0.10413736E+04</totfact>
</mgrwt>
</event>
<event>
 5    1  0.3282316E-002  0.1249980E+03  0.7818608E-02  0.1235072E+00
         -4   -1    0    0    0  501 -0.00000000000E+00  0.00000000000E+00  0.23900599713E+03  0.23900937129E+03  0.12700000000E+01 0.  1.
          4   -1    0    0  501    0  0.00000000000E+00 -0.00000000000E+00 -0.16315050774E+02  0.16364405940E+02  0.12700000000E+01 0.  1.
         25    2    1    2    0    0  0.00000000000E+00  0.00000000000E+00  0.22269094636E+03  0.25537377723E+03  0.12499803401E+03 0.  0.
    9000005    1    3    3    0    0 -0.37841032109E+02  0.18072220606E+02  0.20600110983E+03  0.21022846172E+03  0.10000000000E+01 0.  0.
    9000005    1    3    3    0    0  0.37841032109E+02 -0.18072220606E+02  0.16689836529E+02  0.45145315505E+02  0.10000000000E+01 0.  0.
<mgrwt>
<rscale>  0 0.12499803E+03</rscale>
<asrwt>0</asrwt>
<pdfrwt beam="2">  1        4 0.25140638E-02 0.12499803E+03</pdfrwt>
<pdfrwt beam="1">  1       -4 0.36774211E-01 0.12499803E+03</pdfrwt>
<totfact> 0.81563269E+03</totfact>
</mgrwt>
</event>
<event>
 5    1  0.3282316E-002  0.1249983E+03  0.7818608E-02  0.1235072E+00
         -4   -1    0    0    0  501 -0.00000000000E+00  0.00000000000E+00  0.20205661459E+02  0.20245534199E+02  0.12700000000E+01 0. -1.
          4   -1    0    0  501    0  0.00000000000E+00 -0.00000000000E+00 -0.19308680717E+03  0.19309098374E+03  0.12700000000E+01 0. -1.
         25    2    1    2    0    0  0.00000000000E+00  0.00000000000E+00 -0.17288114571E+03  0.21333651794E+03  0.12499831737E+03 0.  0.
    9000005    1    3    3    0    0  0.35433084709E+02 -0.24207734419E+02 -0.16397179495E+03  0.16949710156E+03  0.10000000000E+01 0.  0.
    9000005    1    3    3    0    0 -0.35433084709E+02  0.24207734419E+02 -0.89093507592E+01  0.43839416381E+02  0.10000000000E+01 0.  0.
<mgrwt>
<rscale>  0 0.12499832E+03</rscale>
<asrwt>0</asrwt>
<pdfrwt beam="2">  1        4 0.29709050E-01 0.12499832E+03</pdfrwt>
<pdfrwt beam="1">  1       -4 0.31119518E-02 0.12499832E+03</pdfrwt>
<totfact> 0.87937174E+03</totfact>
</mgrwt>
</event>
<event>
 5    1  0.3282316E-002  0.1250030E+03  0.7818608E-02  0.1235065E+00
          4   -1    0    0  501    0  0.00000000000E+00  0.00000000000E+00  0.79749714467E+02  0.79759826087E+02  0.12700000000E+01 0. -1.
         -4   -1    0    0    0  501 -0.00000000000E+00 -0.00000000000E+00 -0.48962244097E+02  0.48978712182E+02  0.12700000000E+01 0. -1.
         25    2    1    2    0    0  0.00000000000E+00  0.00000000000E+00  0.30787470369E+02  0.12873853827E+03  0.12500297158E+03 0.  0.
    9000005    1    3    3    0    0  0.54505617102E+01  0.48354139797E+02 -0.24990375576E+02  0.54711519170E+02  0.10000000000E+01 0.  0.
    9000005    1    3    3    0    0 -0.54505617102E+01 -0.48354139797E+02  0.55777845945E+02  0.74027019100E+02  0.10000000000E+01 0.  0.
<mgrwt>
<rscale>  0 0.12500297E+03</rscale>
<asrwt>0</asrwt>
<pdfrwt beam="1">  1        4 0.12271231E-01 0.12500297E+03</pdfrwt>
<pdfrwt beam="2">  1       -4 0.75346975E-02 0.12500297E+03</pdfrwt>
<totfact> 0.10370873E+04</totfact>
</mgrwt>
</event>
<event>
 5    1  0.3282316E-002  0.1249996E+03  0.7818608E-02  0.1235070E+00
          4   -1    0    0  501    0  0.00000000000E+00  0.00000000000E+00  0.59576768195E+02  0.59590302974E+02  0.12700000000E+01 0.  1.
         -4   -1    0    0    0  501 -0.00000000000E+00 -0.00000000000E+00 -0.65539104203E+02  0.65551407916E+02  0.12700000000E+01 0.  1.
         25    2    1    2    0    0  0.00000000000E+00  0.00000000000E+00 -0.59623360083E+01  0.12514171089E+03  0.12499959342E+03 0.  0.
    9000005    1    3    3    0    0 -0.21598927051E+02  0.47766876191E+02 -0.37035080312E+02  0.64193342993E+02  0.10000000000E+01 0.  0.
    9000005    1    3    3    0    0  0.21598927051E+02 -0.47766876191E+02  0.31072744304E+02  0.60948367898E+02  0.10000000000E+01 0.  0.
<mgrwt>
<rscale>  0 0.12499959E+03</rscale>
<asrwt>0</asrwt>
<pdfrwt beam="1">  1        4 0.91676442E-02 0.12499959E+03</pdfrwt>
<pdfrwt beam="2">  1       -4 0.10084927E-01 0.12499959E+03</pdfrwt>
<totfact> 0.10449881E+04</totfact>
</mgrwt>
</event>
<event>
 5    1  0.3282316E-002  0.1249999E+03  0.7818608E-02  0.1235070E+00
          4   -1    0    0  501    0  0.00000000000E+00  0.00000000000E+00  0.29467937948E+02  0.29495292284E+02  0.12700000000E+01 0.  1.
         -4   -1    0    0    0  501 -0.00000000000E+00 -0.00000000000E+00 -0.13246711916E+03  0.13247320694E+03  0.12700000000E+01 0.  1.
         25    2    1    2    0    0  0.00000000000E+00  0.00000000000E+00 -0.10299918121E+03  0.16196849923E+03  0.12499985365E+03 0.  0.
    9000005    1    3    3    0    0  0.29426754757E+02  0.23415513382E+02  0.13171430921E+02  0.39858584457E+02  0.10000000000E+01 0.  0.
    9000005    1    3    3    0    0 -0.29426754757E+02 -0.23415513382E+02 -0.11617061213E+03  0.12210991477E+03  0.10000000000E+01 0.  0.
<mgrwt>
<rscale>  0 0.12499985E+03</rscale>
<asrwt>0</asrwt>
<pdfrwt beam="1">  1        4 0.45361015E-02 0.12499985E+03</pdfrwt>
<pdfrwt beam="2">  1       -4 0.20382129E-01 0.12499985E+03</pdfrwt>
<totfact> 0.96964930E+03</totfact>
</mgrwt>
</event>
<event>
 5    1  0.3282316E-002  0.1249925E+03  0.7818608E-02  0.1235081E+00
         -4   -1    0    0    0  501 -0.00000000000E+00  0.00000000000E+00  0.10599518930E+02  0.10675331449E+02  0.12700000000E+01 0. -1.
          4   -1    0    0  501    0  0.00000000000E+00 -0.00000000000E+00 -0.36709654875E+03  0.36709874558E+03  0.12700000000E+01 0. -1.
         25    2    1    2    0    0  0.00000000000E+00  0.00000000000E+00 -0.35649702982E+03  0.37777407703E+03  0.12499248378E+03 0.  0.
    9000005    1    3    3    0    0 -0.18261302216E+01 -0.42779380049E+02 -0.40693283826E+02  0.59079213413E+02  0.10000000000E+01 0.  0.
    9000005    1    3    3    0    0  0.18261302216E+01  0.42779380049E+02 -0.31580374600E+03  0.31869486362E+03  0.10000000000E+01 0.  0.
<mgrwt>
<rscale>  0 0.12499248E+03</rscale>
<asrwt>0</asrwt>
<pdfrwt beam="2">  1        4 0.56482383E-01 0.12499248E+03</pdfrwt>
<pdfrwt beam="1">  1       -4 0.16366962E-02 0.12499248E+03</pdfrwt>
<totfact> 0.66784487E+03</totfact>
</mgrwt>
</event>
<event>
 5    1  0.3282316E-002  0.1249838E+03  0.7818608E-02  0.1235095E+00
          4   -1    0    0  501    0  0.00000000000E+00  0.00000000000E+00  0.14201313607E+02  0.14257987521E+02  0.12700000000E+01 0.  1.
         -4   -1    0    0    0  501 -0.00000000000E+00 -0.00000000000E+00 -0.27438561637E+03  0.27438855547E+03  0.12700000000E+01 0.  1.
         25    2    1    2    0    0  0.00000000000E+00  0.00000000000E+00 -0.26018430277E+03  0.28864654299E+03  0.12498382045E+03 0.  0.
    9000005    1    3    3    0    0  0.54212621504E+02  0.12433881317E+01 -0.20178568748E+03  0.20894740490E+03  0.10000000000E+01 0.  0.
    9000005    1    3    3    0    0 -0.54212621504E+02 -0.12433881317E+01 -0.58398615286E+02  0.79699138086E+02  0.10000000000E+01 0.  0.
<mgrwt>
<rscale>  0 0.12498382E+03</rscale>
<asrwt>0</asrwt>
<pdfrwt beam="1">  1        4 0.21894033E-02 0.12498382E+03</pdfrwt>
<pdfrwt beam="2">  1       -4 0.42217754E-01 0.12498382E+03</pdfrwt>
<totfact> 0.77073130E+03</totfact>
</mgrwt>
</event>
<event>
 5    1  0.3282316E-002  0.1249964E+03  0.7818608E-02  0.1235075E+00
         -4   -1    0    0    0  501 -0.00000000000E+00  0.00000000000E+00  0.14216910971E+02  0.14273522955E+02  0.12700000000E+01 0. -1.
          4   -1    0    0  501    0  0.00000000000E+00 -0.00000000000E+00 -0.27414090611E+03  0.27414384783E+03  0.12700000000E+01 0. -1.
         25    2    1    2    0    0  0.00000000000E+00  0.00000000000E+00 -0.25992399513E+03  0.28841737078E+03  0.12499638603E+03 0.  0.
    9000005    1    3    3    0    0 -0.52631104959E+02  0.32352066629E+02 -0.10827548887E+03  0.12466463378E+03  0.10000000000E+01 0.  0.
    9000005    1    3    3    0    0  0.52631104959E+02 -0.32352066629E+02 -0.15164850626E+03  0.16375273700E+03  0.10000000000E+01 0.  0.
<mgrwt>
<rscale>  0 0.12499639E+03</rscale>
<asrwt>0</asrwt>
<pdfrwt beam="2">  1        4 0.42180101E-01 0.12499639E+03</pdfrwt>
<pdfrwt beam="1">  1       -4 0.21917983E-02 0.12499639E+03</pdfrwt>
<totfact> 0.77081289E+03</totfact>
</mgrwt>
</event>
<event>
 5    1  0.3282316E-002  0.1250034E+03  0.7818608E-02  0.1235064E+00
          4   -1    0    0  501    0  0.00000000000E+00  0.00000000000E+00  0.85678462713E+03  0.85678556838E+03  0.12700000000E+01 0.  1.
         -4   -1    0    0    0  501 -0.00000000000E+00 -0.00000000000E+00 -0.44700424081E+01  0.46469537474E+01  0.12700000000E+01 0.  1.
         25    2    1    2    0    0  0.00000000000E+00  0.00000000000E+00  0.85231458472E+03  0.86143252213E+03  0.12500335536E+03 0.  0.
    9000005    1    3    3    0    0 -0.41816790157E+02  0.14380083486E+01  0.10626938198E+03  0.11421424322E+03  0.10000000000E+01 0.  0.
    9000005    1    3    3    0    0  0.41816790157E+02 -0.14380083486E+01  0.74604520274E+03  0.74721827891E+03  0.10000000000E+01 0.  0.
<mgrwt>
<rscale>  0 0.12500336E+03</rscale>
<asrwt>0</asrwt>
<pdfrwt beam="1">  1        4 0.13182665E+00 0.12500336E+03</pdfrwt>
<pdfrwt beam="2">  1       -4 0.70138005E-03 0.12500336E+03</pdfrwt>
<totfact> 0.35661407E+03</totfact>
</mgrwt>
</event>
<event>
 5    1  0.3282316E-002  0.1250021E+03  0.7818608E-02  0.1235066E+00
         -4   -1    0    0    0  501 -0.00000000000E+00  0.00000000000E+00  0.82342999036E+03  0.82343096974E+03  0.12700000000E+01 0.  1.
          4   -1    0    0  501    0  0.00000000000E+00 -0.00000000000E+00 -0.46580433436E+01  0.48280708146E+01  0.12700000000E+01 0.  1.
         25    2    1    2    0    0  0.00000000000E+00  0.00000000000E+00  0.81877194702E+03  0.82825904056E+03  0.12500214813E+03 0.  0.
    9000005    1    3    3    0    0  0.47968487348E+02 -0.35233361587E+02  0.53563069089E+03  0.53892819797E+03  0.10000000000E+01 0.  0.
    9000005    1    3    3    0    0 -0.47968487348E+02  0.35233361587E+02  0.28314125613E+03  0.28933084259E+03  0.10000000000E+01 0.  0.
<mgrwt>
<rscale>  0 0.12500215E+03</rscale>
<asrwt>0</asrwt>
<pdfrwt beam="2">  1        4 0.72977637E-03 0.12500215E+03</pdfrwt>
<pdfrwt beam="1">  1       -4 0.12669470E+00 0.12500215E+03</pdfrwt>
<totfact> 0.37032120E+03</totfact>
</mgrwt>
</event>
<event>
 5    1  0.3282316E-002  0.1250000E+03  0.7818608E-02  0.1235069E+00
          4   -1    0    0  501    0  0.00000000000E+00  0.00000000000E+00  0.50288583665E+03  0.50288744029E+03  0.12700000000E+01 0.  1.
         -4   -1    0    0    0  501 -0.00000000000E+00 -0.00000000000E+00 -0.77141302930E+01  0.78179732782E+01  0.12700000000E+01 0.  1.
         25    2    1    2    0    0  0.00000000000E+00  0.00000000000E+00  0.49517170636E+03  0.51070541357E+03  0.12500000269E+03 0.  0.
    9000005    1    3    3    0    0  0.20241425769E+02 -0.69361604286E+01  0.48747346608E+03  0.48794385514E+03  0.10000000000E+01 0.  0.
    9000005    1    3    3    0    0 -0.20241425769E+02  0.69361604286E+01  0.76982402757E+01  0.22761558427E+02  0.10000000000E+01 0.  0.
<mgrwt>
<rscale>  0 0.12500000E+03</rscale>
<asrwt>0</asrwt>
<pdfrwt beam="1">  1        4 0.77375174E-01 0.12500000E+03</pdfrwt>
<pdfrwt beam="2">  1       -4 0.11949004E-02 0.12500000E+03</pdfrwt>
<totfact> 0.55043211E+03</totfact>
</mgrwt>
</event>
<event>
 5    1  0.3282316E-002  0.1250001E+03  0.7818608E-02  0.1235069E+00
          4   -1    0    0  501    0  0.00000000000E+00  0.00000000000E+00  0.92749915121E+02  0.92758609601E+02  0.12700000000E+01 0.  1.
         -4   -1    0    0    0  501 -0.00000000000E+00 -0.00000000000E+00 -0.42095782503E+02  0.42114935647E+02  0.12700000000E+01 0.  1.
         25    2    1    2    0    0  0.00000000000E+00  0.00000000000E+00  0.50654132619E+02  0.13487354525E+03  0.12500012822E+03 0.  0.
    9000005    1    3    3    0    0 -0.22557559331E+00 -0.14687361592E+02  0.90866003999E+02  0.92051073637E+02  0.10000000000E+01 0.  0.
    9000005    1    3    3    0    0  0.22557559331E+00  0.14687361592E+02 -0.40211871381E+02  0.42822471610E+02  0.10000000000E+01 0.  0.
<mgrwt>
<rscale>  0 0.12500013E+03</rscale>
<asrwt>0</asrwt>
<pdfrwt beam="1">  1        4 0.14271360E-01 0.12500013E+03</pdfrwt>
<pdfrwt beam="2">  1       -4 0.64784164E-02 0.12500013E+03</pdfrwt>
<totfact> 0.10240707E+04</totfact>
</mgrwt>
</event>
<event>
 5    1  0.3282316E-002  0.1249973E+03  0.7818608E-02  0.1235073E+00
          4   -1    0    0  501    0  0.00000000000E+00  0.00000000000E+00  0.22434483014E+04  0.22434486609E+04  0.12700000000E+01 0.  1.
         -4   -1    0    0    0  501 -0.00000000000E+00 -0.00000000000E+00 -0.15091084532E+01  0.19723864539E+01  0.12700000000E+01 0.  1.
         25    2    1    2    0    0  0.00000000000E+00  0.00000000000E+00  0.22419391930E+04  0.22454210474E+04  0.12499733953E+03 0.  0.
    9000005    1    3    3    0    0  0.28877070659E+02  0.45781326322E+01  0.12885013303E+03  0.13212948683E+03  0.10000000000E+01 0.  0.
    9000005    1    3    3    0    0 -0.28877070659E+02 -0.45781326322E+01  0.21130890600E+04  0.21132915605E+04  0.10000000000E+01 0.  0.
<mgrwt>
<rscale>  0 0.12499734E+03</rscale>
<asrwt>0</asrwt>
<pdfrwt beam="1">  1        4 0.34518219E+00 0.12499734E+03</pdfrwt>
<pdfrwt beam="2">  1       -4 0.26783446E-03 0.12499734E+03</pdfrwt>
<totfact> 0.69887502E+02</totfact>
</mgrwt>
</event>
<event>
 5    1  0.3282316E-002  0.1249980E+03  0.7818608E-02  0.1235072E+00
         -4   -1    0    0    0  501 -0.00000000000E+00  0.00000000000E+00  0.10901845906E+03  0.10902585618E+03  0.12700000000E+01 0. -1.
          4   -1    0    0  501    0  0.00000000000E+00 -0.00000000000E+00 -0.35810043956E+02  0.35832557098E+02  0.12700000000E+01 0. -1.
         25    2    1    2    0    0  0.00000000000E+00  0.00000000000E+00  0.73208415103E+02  0.14485841328E+03  0.12499795140E+03 0.  0.
    9000005    1    3    3    0    0 -0.14775865378E+02  0.20180293889E+02  0.10297057638E+03  0.10596938265E+03  0.10000000000E+01 0.  0.
    9000005    1    3    3    0    0  0.14775865378E+02 -0.20180293889E+02 -0.29762161278E+02  0.38889030627E+02  0.10000000000E+01 0.  0.
<mgrwt>
<rscale>  0 0.12499795E+03</rscale>
<asrwt>0</asrwt>
<pdfrwt beam="2">  1        4 0.55115385E-02 0.12499795E+03</pdfrwt>
<pdfrwt beam="1">  1       -4 0.16774371E-01 0.12499795E+03</pdfrwt>
<totfact> 0.10034329E+04</totfact>
</mgrwt>
</event>
<event>
 5    1  0.3282316E-002  0.1250012E+03  0.7818608E-02  0.1235067E+00
         -4   -1    0    0    0  501 -0.00000000000E+00  0.00000000000E+00  0.30054224309E+01  0.32627387251E+01  0.12700000000E+01 0. -1.
          4   -1    0    0  501    0  0.00000000000E+00 -0.00000000000E+00 -0.12461453997E+04  0.12461460469E+04  0.12700000000E+01 0. -1.
         25    2    1    2    0    0  0.00000000000E+00  0.00000000000E+00 -0.12431399773E+04  0.12494087856E+04  0.12500124160E+03 0.  0.
    9000005    1    3    3    0    0 -0.85206768287E+01  0.46132338384E+02 -0.10342305251E+04  0.10352944381E+04  0.10000000000E+01 0.  0.
    9000005    1    3    3    0    0  0.85206768287E+01 -0.46132338384E+02 -0.20890945223E+03  0.21411434751E+03  0.10000000000E+01 0.  0.
<mgrwt>
<rscale>  0 0.12500124E+03</rscale>
<asrwt>0</asrwt>
<pdfrwt beam="2">  1        4 0.19173412E+00 0.12500124E+03</pdfrwt>
<pdfrwt beam="1">  1       -4 0.48221702E-03 0.12500124E+03</pdfrwt>
<totfact> 0.23454256E+03</totfact>
</mgrwt>
</event>
<event>
 5    1  0.3282316E-002  0.1250018E+03  0.7818608E-02  0.1235066E+00
         -4   -1    0    0    0  501 -0.00000000000E+00  0.00000000000E+00  0.40141400190E+02  0.40161485396E+02  0.12700000000E+01 0.  1.
          4   -1    0    0  501    0  0.00000000000E+00 -0.00000000000E+00 -0.97266516697E+02  0.97274807480E+02  0.12700000000E+01 0.  1.
         25    2    1    2    0    0  0.00000000000E+00  0.00000000000E+00 -0.57125116507E+02  0.13743629288E+03  0.12500182264E+03 0.  0.
    9000005    1    3    3    0    0  0.39366565793E+02  0.47706243871E+02 -0.38381283028E+02  0.72799279485E+02  0.10000000000E+01 0.  0.
    9000005    1    3    3    0    0 -0.39366565793E+02 -0.47706243871E+02 -0.18743833478E+02  0.64637013391E+02  0.10000000000E+01 0.  0.
<mgrwt>
<rscale>  0 0.12500182E+03</rscale>
<asrwt>0</asrwt>
<pdfrwt beam="2">  1        4 0.14966262E-01 0.12500182E+03</pdfrwt>
<pdfrwt beam="1">  1       -4 0.61777828E-02 0.12500182E+03</pdfrwt>
<totfact> 0.10186553E+04</totfact>
</mgrwt>
</event>
<event>
 5    1  0.3282316E-002  0.1249916E+03  0.7818608E-02  0.1235082E+00
         -4   -1    0    0    0  501 -0.00000000000E+00  0.00000000000E+00  0.60310193654E+03  0.60310327371E+03  0.12700000000E+01 0.  1.
          4   -1    0    0  501    0  0.00000000000E+00 -0.00000000000E+00 -0.64124392053E+01  0.65369929296E+01  0.12700000000E+01 0.  1.
         25    2    1    2    0    0  0.00000000000E+00  0.00000000000E+00  0.59668949733E+03  0.60964026664E+03  0.12499159363E+03 0.  0.
    9000005    1    3    3    0    0 -0.33562070082E+02  0.27541784013E+02  0.79143532384E+02  0.90275473597E+02  0.10000000000E+01 0.  0.
    9000005    1    3    3    0    0  0.33562070082E+02 -0.27541784013E+02  0.51754596495E+03  0.51936479304E+03  0.10000000000E+01 0.  0.
<mgrwt>
<rscale>  0 0.12499159E+03</rscale>
<asrwt>0</asrwt>
<pdfrwt beam="2">  1        4 0.99621290E-03 0.12499159E+03</pdfrwt>
<pdfrwt beam="1">  1       -4 0.92794609E-01 0.12499159E+03</pdfrwt>
<totfact> 0.48273579E+03</totfact>
</mgrwt>
</event>
<event>
 5    1  0.3282316E-002  0.1250024E+03  0.7818608E-02  0.1235066E+00
         -4   -1    0    0    0  501 -0.00000000000E+00  0.00000000000E+00  0.19481153933E+03  0.19481567893E+03  0.12700000000E+01 0.  1.
          4   -1    0    0  501    0  0.00000000000E+00 -0.00000000000E+00 -0.20027735128E+02  0.20067961390E+02  0.12700000000E+01 0.  1.
         25    2    1    2    0    0  0.00000000000E+00  0.00000000000E+00  0.17478380420E+03  0.21488364032E+03  0.12500240264E+03 0.  0.
    9000005    1    3    3    0    0  0.40855168535E+02  0.45289045071E+02  0.11078328830E+03  0.12646809624E+03  0.10000000000E+01 0.  0.
    9000005    1    3    3    0    0 -0.40855168535E+02 -0.45289045071E+02  0.64000515906E+02  0.88415544084E+02  0.10000000000E+01 0.  0.
<mgrwt>
<rscale>  0 0.12500240E+03</rscale>
<asrwt>0</asrwt>
<pdfrwt beam="2">  1        4 0.30846028E-02 0.12500240E+03</pdfrwt>
<pdfrwt beam="1">  1       -4 0.29974419E-01 0.12500240E+03</pdfrwt>
<totfact> 0.87679769E+03</totfact>
</mgrwt>
</event>
<event>
 5    1  0.3282316E-002  0.1249997E+03  0.7818608E-02  0.1235070E+00
         -4   -1    0    0    0  501 -0.00000000000E+00  0.00000000000E+00  0.20272689815E+02  0.20312430981E+02  0.12700000000E+01 0.  1.
          4   -1    0    0  501    0  0.00000000000E+00 -0.00000000000E+00 -0.19245388625E+03  0.19245807656E+03  0.12700000000E+01 0.  1.
         25    2    1    2    0    0  0.00000000000E+00  0.00000000000E+00 -0.17218119644E+03  0.21277050754E+03  0.12499969789E+03 0.  0.
    9000005    1    3    3    0    0  0.75893144907E+01  0.29460334080E+02 -0.17900656501E+03  0.18157604274E+03  0.10000000000E+01 0.  0.
    9000005    1    3    3    0    0 -0.75893144907E+01 -0.29460334080E+02  0.68253685723E+01  0.31194464808E+02  0.10000000000E+01 0.  0.
<mgrwt>
<rscale>  0 0.12499970E+03</rscale>
<asrwt>0</asrwt>
<pdfrwt beam="2">  1        4 0.29611668E-01 0.12499970E+03</pdfrwt>
<pdfrwt beam="1">  1       -4 0.31222548E-02 0.12499970E+03</pdfrwt>
<totfact> 0.88026005E+03</totfact>
</mgrwt>
</event>
<event>
 5    1  0.3282316E-002  0.1249895E+03  0.7818608E-02  0.1235086E+00
          4   -1    0    0  501    0  0.00000000000E+00  0.00000000000E+00  0.30555344960E+03  0.30555608889E+03  0.12700000000E+01 0.  1.
         -4   -1    0    0    0  501 -0.00000000000E+00 -0.00000000000E+00 -0.12747784916E+02  0.12810890690E+02  0.12700000000E+01 0.  1.
         25    2    1    2    0    0  0.00000000000E+00  0.00000000000E+00  0.29280566468E+03  0.31836697959E+03  0.12498950524E+03 0.  0.
    9000005    1    3    3    0    0 -0.53396193710E+02 -0.10148968779E+02  0.67876267303E+02  0.86961731428E+02  0.10000000000E+01 0.  0.
    9000005    1    3    3    0    0  0.53396193710E+02  0.10148968779E+02  0.22492939738E+03  0.23140524816E+03  0.10000000000E+01 0.  0.
<mgrwt>
<rscale>  0 0.12498951E+03</rscale>
<asrwt>0</asrwt>
<pdfrwt beam="1">  1        4 0.47013279E-01 0.12498951E+03</pdfrwt>
<pdfrwt beam="2">  1       -4 0.19662551E-02 0.12498951E+03</pdfrwt>
<totfact> 0.73367841E+03</totfact>
</mgrwt>
</event>
<event>
 5    1  0.3282316E-002  0.1250027E+03  0.7818608E-02  0.1235065E+00
          4   -1    0    0  501    0  0.00000000000E+00  0.00000000000E+00  0.34359307947E+02  0.34382771013E+02  0.12700000000E+01 0.  1.
         -4   -1    0    0    0  501 -0.00000000000E+00 -0.00000000000E+00 -0.11362729679E+03  0.11363439390E+03  0.12700000000E+01 0.  1.
         25    2    1    2    0    0  0.00000000000E+00  0.00000000000E+00 -0.79267988844E+02  0.14801716491E+03  0.12500266818E+03 0.  0.
    9000005    1    3    3    0    0 -0.50138163307E+02  0.57762611220E+01  0.40052521228E+01  0.50638351641E+02  0.10000000000E+01 0.  0.
    9000005    1    3    3    0    0  0.50138163307E+02 -0.57762611220E+01 -0.83273240967E+02  0.97378813268E+02  0.10000000000E+01 0.  0.
<mgrwt>
<rscale>  0 0.12500267E+03</rscale>
<asrwt>0</asrwt>
<pdfrwt beam="1">  1        4 0.52883982E-02 0.12500267E+03</pdfrwt>
<pdfrwt beam="2">  1       -4 0.17483473E-01 0.12500267E+03</pdfrwt>
<totfact> 0.99694436E+03</totfact>
</mgrwt>
</event>
<event>
 5    1  0.3282316E-002  0.1249984E+03  0.7818608E-02  0.1235072E+00
          4   -1    0    0  501    0  0.00000000000E+00  0.00000000000E+00  0.12129304229E+04  0.12129310878E+04  0.12700000000E+01 0.  1.
         -4   -1    0    0    0  501 -0.00000000000E+00 -0.00000000000E+00 -0.30945241049E+01  0.33449931892E+01  0.12700000000E+01 0.  1.
         25    2    1    2    0    0  0.00000000000E+00  0.00000000000E+00  0.12098358988E+04  0.12162760810E+04  0.12499841246E+03 0.  0.
    9000005    1    3    3    0    0  0.43409600372E+02 -0.17274034099E+02  0.10087402325E+04  0.10098220845E+04  0.10000000000E+01 0.  0.
    9000005    1    3    3    0    0 -0.43409600372E+02  0.17274034099E+02  0.20109566629E+03  0.20645399647E+03  0.10000000000E+01 0.  0.
<mgrwt>
<rscale>  0 0.12499841E+03</rscale>
<asrwt>0</asrwt>
<pdfrwt beam="1">  1        4 0.18662423E+00 0.12499841E+03</pdfrwt>
<pdfrwt beam="2">  1       -4 0.49539801E-03 0.12499841E+03</pdfrwt>
<totfact> 0.24291462E+03</totfact>
</mgrwt>
</event>
<event>
 5    1  0.3282316E-002  0.1250011E+03  0.7818608E-02  0.1235068E+00
         -4   -1    0    0    0  501 -0.00000000000E+00  0.00000000000E+00  0.28242832148E+01  0.30966878560E+01  0.12700000000E+01 0. -1.
          4   -1    0    0  501    0  0.00000000000E+00 -0.00000000000E+00 -0.13192126938E+04  0.13192133051E+04  0.12700000000E+01 0. -1.
         25    2    1    2    0    0  0.00000000000E+00  0.00000000000E+00 -0.13163884106E+04  0.13223099930E+04  0.12500107991E+03 0.  0.
    9000005    1    3    3    0    0 -0.35012258776E+02 -0.40927850209E+02 -0.32294601088E+03  0.32740811403E+03  0.10000000000E+01 0.  0.
    9000005    1    3    3    0    0  0.35012258776E+02  0.40927850209E+02 -0.99344239972E+03  0.99490187895E+03  0.10000000000E+01 0.  0.
<mgrwt>
<rscale>  0 0.12500108E+03</rscale>
<asrwt>0</asrwt>
<pdfrwt beam="2">  1        4 0.20297633E+00 0.12500108E+03</pdfrwt>
<pdfrwt beam="1">  1       -4 0.45550739E-03 0.12500108E+03</pdfrwt>
<totfact> 0.21707572E+03</totfact>
</mgrwt>
</event>
<event>
 5    1  0.3282316E-002  0.1249976E+03  0.7818608E-02  0.1235073E+00
          4   -1    0    0  501    0  0.00000000000E+00  0.00000000000E+00  0.76287887964E+02  0.76298458372E+02  0.12700000000E+01 0.  1.
         -4   -1    0    0    0  501 -0.00000000000E+00 -0.00000000000E+00 -0.51180075379E+02  0.51195830062E+02  0.12700000000E+01 0.  1.
         25    2    1    2    0    0  0.00000000000E+00  0.00000000000E+00  0.25107812585E+02  0.12749428843E+03  0.12499756530E+03 0.  0.
    9000005    1    3    3    0    0  0.15160399161E+02 -0.28009770708E+02  0.67393174891E+02  0.74546797246E+02  0.10000000000E+01 0.  0.
    9000005    1    3    3    0    0 -0.15160399161E+02  0.28009770708E+02 -0.42285362306E+02  0.52947491188E+02  0.10000000000E+01 0.  0.
<mgrwt>
<rscale>  0 0.12499757E+03</rscale>
<asrwt>0</asrwt>
<pdfrwt beam="1">  1        4 0.11738623E-01 0.12499757E+03</pdfrwt>
<pdfrwt beam="2">  1       -4 0.78758827E-02 0.12499757E+03</pdfrwt>
<totfact> 0.10398996E+04</totfact>
</mgrwt>
</event>
<event>
 5    1  0.3282316E-002  0.1249999E+03  0.7818608E-02  0.1235069E+00
         -4   -1    0    0    0  501 -0.00000000000E+00  0.00000000000E+00  0.55719002756E+03  0.55719147491E+03  0.12700000000E+01 0.  1.
          4   -1    0    0  501    0  0.00000000000E+00 -0.00000000000E+00 -0.69516256766E+01  0.70666823579E+01  0.12700000000E+01 0.  1.
         25    2    1    2    0    0  0.00000000000E+00  0.00000000000E+00  0.55023840188E+03  0.56425815726E+03  0.12499987654E+03 0.  0.
    9000005    1    3    3    0    0 -0.51484215231E+02 -0.22093159627E+02  0.15014302810E+03  0.16025810746E+03  0.10000000000E+01 0.  0.
    9000005    1    3    3    0    0  0.51484215231E+02  0.22093159627E+02  0.40009537378E+03  0.40400004980E+03  0.10000000000E+01 0.  0.
<mgrwt>
<rscale>  0 0.12499988E+03</rscale>
<asrwt>0</asrwt>
<pdfrwt beam="2">  1        4 0.10784426E-02 0.12499988E+03</pdfrwt>
<pdfrwt beam="1">  1       -4 0.85730512E-01 0.12499988E+03</pdfrwt>
<totfact> 0.51204499E+03</totfact>
</mgrwt>
</event>
<event>
 5    1  0.3282316E-002  0.1250072E+03  0.7818608E-02  0.1235058E+00
          4   -1    0    0  501    0  0.00000000000E+00  0.00000000000E+00  0.82263734756E+02  0.82273537398E+02  0.12700000000E+01 0.  1.
         -4   -1    0    0    0  501 -0.00000000000E+00 -0.00000000000E+00 -0.47468825927E+02  0.47485811933E+02  0.12700000000E+01 0.  1.
         25    2    1    2    0    0  0.00000000000E+00  0.00000000000E+00  0.34794908829E+02  0.12975934933E+03  0.12500721203E+03 0.  0.
    9000005    1    3    3    0    0 -0.17696817657E+02  0.29712170829E+02  0.71431193568E+02  0.79368796545E+02  0.10000000000E+01 0.  0.
    9000005    1    3    3    0    0  0.17696817657E+02 -0.29712170829E+02 -0.36636284739E+02  0.50390552786E+02  0.10000000000E+01 0.  0.
<mgrwt>
<rscale>  0 0.12500721E+03</rscale>
<asrwt>0</asrwt>
<pdfrwt beam="1">  1        4 0.12658020E-01 0.12500721E+03</pdfrwt>
<pdfrwt beam="2">  1       -4 0.73049570E-02 0.12500721E+03</pdfrwt>
<totfact> 0.10347973E+04</totfact>
</mgrwt>
</event>
<event>
 5    1  0.3282316E-002  0.1249980E+03  0.7818608E-02  0.1235072E+00
         -4   -1    0    0    0  501 -0.00000000000E+00  0.00000000000E+00  0.77903889274E+02  0.77914240444E+02  0.12700000000E+01 0.  1.
          4   -1    0    0  501    0  0.00000000000E+00 -0.00000000000E+00 -0.50118599946E+02  0.50134688196E+02  0.12700000000E+01 0.  1.
         25    2    1    2    0    0  0.00000000000E+00  0.00000000000E+00  0.27785289328E+02  0.12804892864E+03  0.12499802328E+03 0.  0.
    9000005    1    3    3    0    0 -0.42284831665E+02 -0.23380015334E+02  0.54489369046E+02  0.72833532422E+02  0.10000000000E+01 0.  0.
    9000005    1    3    3    0    0  0.42284831665E+02  0.23380015334E+02 -0.26704079718E+02  0.55215396219E+02  0.10000000000E+01 0.  0.
<mgrwt>
<rscale>  0 0.12499802E+03</rscale>
<asrwt>0</asrwt>
<pdfrwt beam="2">  1        4 0.77125877E-02 0.12499802E+03</pdfrwt>
<pdfrwt beam="1">  1       -4 0.11987247E-01 0.12499802E+03</pdfrwt>
<totfact> 0.10386895E+04</totfact>
</mgrwt>
</event>
<event>
 5    1  0.3282316E-002  0.1249987E+03  0.7818608E-02  0.1235071E+00
         -4   -1    0    0    0  501 -0.00000000000E+00  0.00000000000E+00  0.28586664704E+02  0.28614861504E+02  0.12700000000E+01 0. -1.
          4   -1    0    0  501    0  0.00000000000E+00 -0.00000000000E+00 -0.13654453715E+03  0.13655044315E+03  0.12700000000E+01 0. -1.
         25    2    1    2    0    0  0.00000000000E+00  0.00000000000E+00 -0.10795787244E+03  0.16516530466E+03  0.12499870255E+03 0.  0.
    9000005    1    3    3    0    0  0.48025755399E+02  0.38590495544E+02 -0.67803761473E+02  0.91619046044E+02  0.10000000000E+01 0.  0.
    9000005    1    3    3    0    0 -0.48025755399E+02 -0.38590495544E+02 -0.40154110970E+02  0.73546258612E+02  0.10000000000E+01 0.  0.
<mgrwt>
<rscale>  0 0.12499870E+03</rscale>
<asrwt>0</asrwt>
<pdfrwt beam="2">  1        4 0.21009475E-01 0.12499870E+03</pdfrwt>
<pdfrwt beam="1">  1       -4 0.44005718E-02 0.12499870E+03</pdfrwt>
<totfact> 0.96358904E+03</totfact>
</mgrwt>
</event>
<event>
 5    1  0.3282316E-002  0.1249726E+03  0.7818608E-02  0.1235112E+00
         -4   -1    0    0    0  501 -0.00000000000E+00  0.00000000000E+00  0.41678609002E+01  0.43570591553E+01  0.12700000000E+01 0. -1.
          4   -1    0    0  501    0  0.00000000000E+00 -0.00000000000E+00 -0.91583929527E+03  0.91584017582E+03  0.12700000000E+01 0. -1.
         25    2    1    2    0    0  0.00000000000E+00  0.00000000000E+00 -0.91167143437E+03  0.92019723498E+03  0.12497258509E+03 0.  0.
    9000005    1    3    3    0    0 -0.28714889598E+02 -0.28343449814E+02 -0.80708708097E+03  0.80809557127E+03  0.10000000000E+01 0.  0.
    9000005    1    3    3    0    0  0.28714889598E+02  0.28343449814E+02 -0.10458435339E+03  0.11210166371E+03  0.10000000000E+01 0.  0.
<mgrwt>
<rscale>  0 0.12497259E+03</rscale>
<asrwt>0</asrwt>
<pdfrwt beam="2">  1        4 0.14091282E+00 0.12497259E+03</pdfrwt>
<pdfrwt beam="1">  1       -4 0.65583154E-03 0.12497259E+03</pdfrwt>
<totfact> 0.33418275E+03</totfact>
</mgrwt>
</event>
<event>
 5    1  0.3282316E-002  0.1250014E+03  0.7818608E-02  0.1235067E+00
         -4   -1    0    0    0  501 -0.00000000000E+00  0.00000000000E+00  0.64094661801E+02  0.64107242738E+02  0.12700000000E+01 0. -1.
          4   -1    0    0  501    0  0.00000000000E+00 -0.00000000000E+00 -0.60921240297E+02  0.60934476442E+02  0.12700000000E+01 0. -1.
         25    2    1    2    0    0  0.00000000000E+00  0.00000000000E+00  0.31734215046E+01  0.12504171918E+03  0.12500144372E+03 0.  0.
    9000005    1    3    3    0    0 -0.32845226038E+01  0.49970404399E+02  0.38982051764E+02  0.63469912275E+02  0.10000000000E+01 0.  0.
    9000005    1    3    3    0    0  0.32845226038E+01 -0.49970404399E+02 -0.35808630260E+02  0.61571806905E+02  0.10000000000E+01 0.  0.
<mgrwt>
<rscale>  0 0.12500144E+03</rscale>
<asrwt>0</asrwt>
<pdfrwt beam="2">  1        4 0.93744844E-02 0.12500144E+03</pdfrwt>
<pdfrwt beam="1">  1       -4 0.98627032E-02 0.12500144E+03</pdfrwt>
<totfact> 0.10451615E+04</totfact>
</mgrwt>
</event>
<event>
 5    1  0.3282316E-002  0.1249958E+03  0.7818608E-02  0.1235076E+00
         -4   -1    0    0    0  501 -0.00000000000E+00  0.00000000000E+00  0.36491926339E+03  0.36492147332E+03  0.12700000000E+01 0. -1.
          4   -1    0    0  501    0  0.00000000000E+00 -0.00000000000E+00 -0.10663789876E+02  0.10739148687E+02  0.12700000000E+01 0. -1.
         25    2    1    2    0    0  0.00000000000E+00  0.00000000000E+00  0.35425547351E+03  0.37566062201E+03  0.12499584959E+03 0.  0.
    9000005    1    3    3    0    0 -0.47115501723E+02 -0.75117419495E+01  0.55839186063E+02  0.73452783950E+02  0.10000000000E+01 0.  0.
    9000005    1    3    3    0    0  0.47115501723E+02  0.75117419495E+01  0.29841628745E+03  0.30220783806E+03  0.10000000000E+01 0.  0.
<mgrwt>
<rscale>  0 0.12499585E+03</rscale>
<asrwt>0</asrwt>
<pdfrwt beam="2">  1        4 0.16465500E-02 0.12499585E+03</pdfrwt>
<pdfrwt beam="1">  1       -4 0.56147389E-01 0.12499585E+03</pdfrwt>
<totfact> 0.66997004E+03</totfact>
</mgrwt>
</event>
<event>
 5    1  0.3282316E-002  0.1249992E+03  0.7818608E-02  0.1235071E+00
          4   -1    0    0  501    0  0.00000000000E+00  0.00000000000E+00  0.12441874967E+03  0.12442523124E+03  0.12700000000E+01 0.  1.
         -4   -1    0    0    0  501 -0.00000000000E+00 -0.00000000000E+00 -0.31375443731E+02  0.31401136433E+02  0.12700000000E+01 0.  1.
         25    2    1    2    0    0  0.00000000000E+00  0.00000000000E+00  0.93043305940E+02  0.15582636768E+03  0.12499920033E+03 0.  0.
    9000005    1    3    3    0    0 -0.62031839585E+01  0.62181896038E+02  0.46068160197E+02  0.77642405102E+02  0.10000000000E+01 0.  0.
    9000005    1    3    3    0    0  0.62031839585E+01 -0.62181896038E+02  0.46975145743E+02  0.78183962574E+02  0.10000000000E+01 0.  0.
<mgrwt>
<rscale>  0 0.12499920E+03</rscale>
<asrwt>0</asrwt>
<pdfrwt beam="1">  1        4 0.19143821E-01 0.12499920E+03</pdfrwt>
<pdfrwt beam="2">  1       -4 0.48294662E-02 0.12499920E+03</pdfrwt>
<totfact> 0.98155281E+03</totfact>
</mgrwt>
</event>
<event>
 5    1  0.3282316E-002  0.1250017E+03  0.7818608E-02  0.1235067E+00
         -4   -1    0    0    0  501 -0.00000000000E+00  0.00000000000E+00  0.15591069593E+03  0.15591586836E+03  0.12700000000E+01 0. -1.
          4   -1    0    0  501    0  0.00000000000E+00 -0.00000000000E+00 -0.25033412130E+02  0.25065606374E+02  0.12700000000E+01 0. -1.
         25    2    1    2    0    0  0.00000000000E+00  0.00000000000E+00  0.13087728380E+03  0.18098147473E+03  0.12500172311E+03 0.  0.
    9000005    1    3    3    0    0 -0.42016088143E+02 -0.10031742212E+02  0.55444402896E-01  0.43208686496E+02  0.10000000000E+01 0.  0.
    9000005    1    3    3    0    0  0.42016088143E+02  0.10031742212E+02  0.13082183940E+03  0.13777278823E+03  0.10000000000E+01 0.  0.
<mgrwt>
<rscale>  0 0.12500172E+03</rscale>
<asrwt>0</asrwt>
<pdfrwt beam="2">  1        4 0.38541686E-02 0.12500172E+03</pdfrwt>
<pdfrwt beam="1">  1       -4 0.23989135E-01 0.12500172E+03</pdfrwt>
<totfact> 0.93437023E+03</totfact>
</mgrwt>
</event>
<event>
 5    1  0.3282316E-002  0.1249919E+03  0.7818608E-02  0.1235082E+00
          4   -1    0    0  501    0  0.00000000000E+00  0.00000000000E+00  0.12802530512E+04  0.12802536811E+04  0.12700000000E+01 0.  1.
         -4   -1    0    0    0  501 -0.00000000000E+00 -0.00000000000E+00 -0.29179279801E+01  0.31823267741E+01  0.12700000000E+01 0.  1.
         25    2    1    2    0    0  0.00000000000E+00  0.00000000000E+00  0.12773351232E+04  0.12834360079E+04  0.12499187707E+03 0.  0.
    9000005    1    3    3    0    0 -0.58680881504E+02 -0.21464784051E+02  0.63098683842E+03  0.63407379150E+03  0.10000000000E+01 0.  0.
    9000005    1    3    3    0    0  0.58680881504E+02  0.21464784051E+02  0.64634828479E+03  0.64936221638E+03  0.10000000000E+01 0.  0.
<mgrwt>
<rscale>  0 0.12499188E+03</rscale>
<asrwt>0</asrwt>
<pdfrwt beam="1">  1        4 0.19698230E+00 0.12499188E+03</pdfrwt>
<pdfrwt beam="2">  1       -4 0.46929904E-03 0.12499188E+03</pdfrwt>
<totfact> 0.22626887E+03</totfact>
</mgrwt>
</event>
<event>
 5    1  0.3282316E-002  0.1249977E+03  0.7818608E-02  0.1235073E+00
         -4   -1    0    0    0  501 -0.00000000000E+00  0.00000000000E+00  0.35986143084E+02  0.36008546125E+02  0.12700000000E+01 0. -1.
          4   -1    0    0  501    0  0.00000000000E+00 -0.00000000000E+00 -0.10848480569E+03  0.10849223920E+03  0.12700000000E+01 0. -1.
         25    2    1    2    0    0  0.00000000000E+00  0.00000000000E+00 -0.72498662611E+02  0.14450078532E+03  0.12499768349E+03 0.  0.
    9000005    1    3    3    0    0 -0.29583817913E+01 -0.48372267505E+02 -0.81857180006E+02  0.95132676852E+02  0.10000000000E+01 0.  0.
    9000005    1    3    3    0    0  0.29583817913E+01  0.48372267505E+02  0.93585173949E+01  0.49368108473E+02  0.10000000000E+01 0.  0.
<mgrwt>
<rscale>  0 0.12499768E+03</rscale>
<asrwt>0</asrwt>
<pdfrwt beam="2">  1        4 0.16692265E-01 0.12499768E+03</pdfrwt>
<pdfrwt beam="1">  1       -4 0.55386249E-02 0.12499768E+03</pdfrwt>
<totfact> 0.10041665E+04</totfact>
</mgrwt>
</event>
<event>
 5    1  0.3282316E-002  0.1250023E+03  0.7818608E-02  0.1235066E+00
         -4   -1    0    0    0  501 -0.00000000000E+00  0.00000000000E+00  0.34132847626E+03  0.34133083893E+03  0.12700000000E+01 0.  1.
          4   -1    0    0  501    0  0.00000000000E+00 -0.00000000000E+00 -0.11407039455E+02  0.11477519294E+02  0.12700000000E+01 0.  1.
         25    2    1    2    0    0  0.00000000000E+00  0.00000000000E+00  0.32992143680E+03  0.35280835822E+03  0.12500233266E+03 0.  0.
    9000005    1    3    3    0    0  0.60935807454E+02  0.92395110249E+01  0.19413615450E+03  0.20368698456E+03  0.10000000000E+01 0.  0.
    9000005    1    3    3    0    0 -0.60935807454E+02 -0.92395110249E+01  0.13578528230E+03  0.14912137366E+03  0.10000000000E+01 0.  0.
<mgrwt>
<rscale>  0 0.12500233E+03</rscale>
<asrwt>0</asrwt>
<pdfrwt beam="2">  1        4 0.17605326E-02 0.12500233E+03</pdfrwt>
<pdfrwt beam="1">  1       -4 0.52517670E-01 0.12500233E+03</pdfrwt>
<totfact> 0.69413123E+03</totfact>
</mgrwt>
</event>
<event>
 5    1  0.3282316E-002  0.1250046E+03  0.7818608E-02  0.1235062E+00
          4   -1    0    0  501    0  0.00000000000E+00  0.00000000000E+00  0.46984997594E+02  0.47002158450E+02  0.12700000000E+01 0.  1.
         -4   -1    0    0    0  501 -0.00000000000E+00 -0.00000000000E+00 -0.83107229567E+02  0.83116932729E+02  0.12700000000E+01 0.  1.
         25    2    1    2    0    0  0.00000000000E+00  0.00000000000E+00 -0.36122231972E+02  0.13011909118E+03  0.12500464890E+03 0.  0.
    9000005    1    3    3    0    0  0.19828241589E+02  0.58050871561E+02 -0.56363471634E+01  0.61610317828E+02  0.10000000000E+01 0.  0.
    9000005    1    3    3    0    0 -0.19828241589E+02 -0.58050871561E+02 -0.30485884809E+02  0.68508773351E+02  0.10000000000E+01 0.  0.
<mgrwt>
<rscale>  0 0.12500465E+03</rscale>
<asrwt>0</asrwt>
<pdfrwt beam="1">  1        4 0.72305277E-02 0.12500465E+03</pdfrwt>
<pdfrwt beam="2">  1       -4 0.12787794E-01 0.12500465E+03</pdfrwt>
<totfact> 0.10340875E+04</totfact>
</mgrwt>
</event>
<event>
 5    1  0.3282316E-002  0.1250068E+03  0.7818608E-02  0.1235059E+00
          4   -1    0    0  501    0  0.00000000000E+00  0.00000000000E+00  0.14013303350E+03  0.14013878827E+03  0.12700000000E+01 0. -1.
         -4   -1    0    0    0  501 -0.00000000000E+00 -0.00000000000E+00 -0.27857545746E+02  0.27886479789E+02  0.12700000000E+01 0. -1.
         25    2    1    2    0    0  0.00000000000E+00  0.00000000000E+00  0.11227548775E+03  0.16802526806E+03  0.12500682204E+03 0.  0.
    9000005    1    3    3    0    0 -0.92890010551E+01  0.28322665051E+02 -0.17694180959E+02  0.34677700846E+02  0.10000000000E+01 0.  0.
    9000005    1    3    3    0    0  0.92890010551E+01 -0.28322665051E+02  0.12996966871E+03  0.13334756721E+03  0.10000000000E+01 0.  0.
<mgrwt>
<rscale>  0 0.12500682E+03</rscale>
<asrwt>0</asrwt>
<pdfrwt beam="1">  1        4 0.21561597E-01 0.12500682E+03</pdfrwt>
<pdfrwt beam="2">  1       -4 0.42884446E-02 0.12500682E+03</pdfrwt>
<totfact> 0.95802824E+03</totfact>
</mgrwt>
</event>
<event>
 5    1  0.3282316E-002  0.1250019E+03  0.7818608E-02  0.1235066E+00
          4   -1    0    0  501    0  0.00000000000E+00  0.00000000000E+00  0.16613185218E+02  0.16661657273E+02  0.12700000000E+01 0. -1.
         -4   -1    0    0    0  501 -0.00000000000E+00 -0.00000000000E+00 -0.23474406377E+03  0.23474749919E+03  0.12700000000E+01 0. -1.
         25    2    1    2    0    0  0.00000000000E+00  0.00000000000E+00 -0.21813087855E+03  0.25140915646E+03  0.12500193509E+03 0.  0.
    9000005    1    3    3    0    0 -0.51374837756E+01  0.62025716179E+02 -0.97725932671E+02  0.11586604819E+03  0.10000000000E+01 0.  0.
    9000005    1    3    3    0    0  0.51374837756E+01 -0.62025716179E+02 -0.12040494588E+03  0.13554310827E+03  0.10000000000E+01 0.  0.
<mgrwt>
<rscale>  0 0.12500194E+03</rscale>
<asrwt>0</asrwt>
<pdfrwt beam="1">  1        4 0.25598677E-02 0.12500194E+03</pdfrwt>
<pdfrwt beam="2">  1       -4 0.36118462E-01 0.12500194E+03</pdfrwt>
<totfact> 0.82123448E+03</totfact>
</mgrwt>
</event>
<event>
 5    1  0.3282316E-002  0.1250009E+03  0.7818608E-02  0.1235068E+00
         -4   -1    0    0    0  501 -0.00000000000E+00  0.00000000000E+00  0.18247718497E+02  0.18291859674E+02  0.12700000000E+01 0.  1.
          4   -1    0    0  501    0  0.00000000000E+00 -0.00000000000E+00 -0.21376627321E+03  0.21377004576E+03  0.12700000000E+01 0.  1.
         25    2    1    2    0    0  0.00000000000E+00  0.00000000000E+00 -0.19551855472E+03  0.23206190543E+03  0.12500089086E+03 0.  0.
    9000005    1    3    3    0    0 -0.51585022683E+02 -0.81686318907E+01 -0.16146568412E+03  0.16970535720E+03  0.10000000000E+01 0.  0.
    9000005    1    3    3    0    0  0.51585022683E+02  0.81686318907E+01 -0.34052870592E+02  0.62356548234E+02  0.10000000000E+01 0.  0.
<mgrwt>
<rscale>  0 0.12500089E+03</rscale>
<asrwt>0</asrwt>
<pdfrwt beam="2">  1        4 0.32890803E-01 0.12500089E+03</pdfrwt>
<pdfrwt beam="1">  1       -4 0.28110271E-02 0.12500089E+03</pdfrwt>
<totfact> 0.84992304E+03</totfact>
</mgrwt>
</event>
<event>
 5    1  0.3282316E-002  0.1250052E+03  0.7818608E-02  0.1235061E+00
          4   -1    0    0  501    0  0.00000000000E+00  0.00000000000E+00  0.63452694534E+03  0.63452821629E+03  0.12700000000E+01 0. -1.
         -4   -1    0    0    0  501 -0.00000000000E+00 -0.00000000000E+00 -0.60898918967E+01  0.62209069526E+01  0.12700000000E+01 0. -1.
         25    2    1    2    0    0  0.00000000000E+00  0.00000000000E+00  0.62843705345E+03  0.64074912324E+03  0.12500523505E+03 0.  0.
    9000005    1    3    3    0    0  0.58474014505E+02  0.12737134466E+02  0.40650136188E+03  0.41088417124E+03  0.10000000000E+01 0.  0.
    9000005    1    3    3    0    0 -0.58474014505E+02 -0.12737134466E+02  0.22193569157E+03  0.22986495200E+03  0.10000000000E+01 0.  0.
<mgrwt>
<rscale>  0 0.12500524E+03</rscale>
<asrwt>0</asrwt>
<pdfrwt beam="1">  1        4 0.97629732E-01 0.12500524E+03</pdfrwt>
<pdfrwt beam="2">  1       -4 0.94708204E-03 0.12500524E+03</pdfrwt>
<totfact> 0.46387058E+03</totfact>
</mgrwt>
</event>
<event>
 5    1  0.3282316E-002  0.1250004E+03  0.7818608E-02  0.1235069E+00
         -4   -1    0    0    0  501 -0.00000000000E+00  0.00000000000E+00  0.25009706665E+02  0.25041931384E+02  0.12700000000E+01 0. -1.
          4   -1    0    0  501    0  0.00000000000E+00 -0.00000000000E+00 -0.15605500669E+03  0.15606017433E+03  0.12700000000E+01 0. -1.
         25    2    1    2    0    0  0.00000000000E+00  0.00000000000E+00 -0.13104530003E+03  0.18110210572E+03  0.12500040815E+03 0.  0.
    9000005    1    3    3    0    0 -0.56287154937E+02  0.15586628906E+02 -0.33318300701E+02  0.67248018359E+02  0.10000000000E+01 0.  0.
    9000005    1    3    3    0    0  0.56287154937E+02 -0.15586628906E+02 -0.97726999326E+02  0.11385408736E+03  0.10000000000E+01 0.  0.
<mgrwt>
<rscale>  0 0.12500041E+03</rscale>
<asrwt>0</asrwt>
<pdfrwt beam="2">  1        4 0.24011338E-01 0.12500041E+03</pdfrwt>
<pdfrwt beam="1">  1       -4 0.38505236E-02 0.12500041E+03</pdfrwt>
<totfact> 0.93418141E+03</totfact>
</mgrwt>
</event>
<event>
 5    1  0.3282316E-002  0.1249987E+03  0.7818608E-02  0.1235071E+00
         -4   -1    0    0    0  501 -0.00000000000E+00  0.00000000000E+00  0.37600185257E+02  0.37621627176E+02  0.12700000000E+01 0.  1.
          4   -1    0    0  501    0  0.00000000000E+00 -0.00000000000E+00 -0.10383202196E+03  0.10383978854E+03  0.12700000000E+01 0.  1.
         25    2    1    2    0    0  0.00000000000E+00  0.00000000000E+00 -0.66231836703E+02  0.14146141572E+03  0.12499870377E+03 0.  0.
    9000005    1    3    3    0    0  0.59067833458E+02  0.20371803302E+02 -0.31902477859E+02  0.70162578436E+02  0.10000000000E+01 0.  0.
    9000005    1    3    3    0    0 -0.59067833458E+02 -0.20371803302E+02 -0.34329358844E+02  0.71298837283E+02  0.10000000000E+01 0.  0.
<mgrwt>
<rscale>  0 0.12499870E+03</rscale>
<asrwt>0</asrwt>
<pdfrwt beam="2">  1        4 0.15976404E-01 0.12499870E+03</pdfrwt>
<pdfrwt beam="1">  1       -4 0.57868907E-02 0.12499870E+03</pdfrwt>
<totfact> 0.10103682E+04</totfact>
</mgrwt>
</event>
<event>
 5    1  0.3282316E-002  0.1249986E+03  0.7818608E-02  0.1235071E+00
          4   -1    0    0  501    0  0.00000000000E+00  0.00000000000E+00  0.21129652779E+04  0.21129656595E+04  0.12700000000E+01 0. -1.
         -4   -1    0    0    0  501 -0.00000000000E+00 -0.00000000000E+00 -0.16301199643E+01  0.20664440708E+01  0.12700000000E+01 0. -1.
         25    2    1    2    0    0  0.00000000000E+00  0.00000000000E+00  0.21113351579E+04  0.21150321036E+04  0.12499860113E+03 0.  0.
    9000005    1    3    3    0    0 -0.23415104609E+02 -0.54748165160E+02  0.73483260148E+03  0.73724187409E+03  0.10000000000E+01 0.  0.
    9000005    1    3    3    0    0  0.23415104609E+02  0.54748165160E+02  0.13765025564E+04  0.13777902295E+04  0.10000000000E+01 0.  0.
<mgrwt>
<rscale>  0 0.12499860E+03</rscale>
<asrwt>0</asrwt>
<pdfrwt beam="1">  1        4 0.32510543E+00 0.12499860E+03</pdfrwt>
<pdfrwt beam="2">  1       -4 0.28438022E-03 0.12499860E+03</pdfrwt>
<totfact> 0.84338094E+02</totfact>
</mgrwt>
</event>
<event>
 5    1  0.3282316E-002  0.1249997E+03  0.7818608E-02  0.1235070E+00
          4   -1    0    0  501    0  0.00000000000E+00  0.00000000000E+00  0.73878407464E+02  0.73889322567E+02  0.12700000000E+01 0. -1.
         -4   -1    0    0    0  501 -0.00000000000E+00 -0.00000000000E+00 -0.52851321623E+02  0.52866578263E+02  0.12700000000E+01 0. -1.
         25    2    1    2    0    0  0.00000000000E+00  0.00000000000E+00  0.21027085842E+02  0.12675590083E+03  0.12499968023E+03 0.  0.
    9000005    1    3    3    0    0  0.32916492095E+02  0.51517255406E+02  0.23645662368E+02  0.65556391033E+02  0.10000000000E+01 0.  0.
    9000005    1    3    3    0    0 -0.32916492095E+02 -0.51517255406E+02 -0.26185765268E+01  0.61199509798E+02  0.10000000000E+01 0.  0.
<mgrwt>
<rscale>  0 0.12499968E+03</rscale>
<asrwt>0</asrwt>
<pdfrwt beam="1">  1        4 0.11367922E-01 0.12499968E+03</pdfrwt>
<pdfrwt beam="2">  1       -4 0.81329858E-02 0.12499968E+03</pdfrwt>
<totfact> 0.10414529E+04</totfact>
</mgrwt>
</event>
<event>
 5    1  0.3282316E-002  0.1250180E+03  0.7818608E-02  0.1235041E+00
         -4   -1    0    0    0  501 -0.00000000000E+00  0.00000000000E+00  0.65051631790E+02  0.65064027685E+02  0.12700000000E+01 0.  1.
          4   -1    0    0  501    0  0.00000000000E+00 -0.00000000000E+00 -0.60040878860E+02  0.60054309040E+02  0.12700000000E+01 0.  1.
         25    2    1    2    0    0  0.00000000000E+00  0.00000000000E+00  0.50107529298E+01  0.12511833672E+03  0.12501796087E+03 0.  0.
    9000005    1    3    3    0    0 -0.62211434903E+02 -0.42960491664E+01 -0.16996590459E+01  0.62390764637E+02  0.10000000000E+01 0.  0.
    9000005    1    3    3    0    0  0.62211434903E+02  0.42960491664E+01  0.67104119758E+01  0.62727572088E+02  0.10000000000E+01 0.  0.
<mgrwt>
<rscale>  0 0.12501796E+03</rscale>
<asrwt>0</asrwt>
<pdfrwt beam="2">  1        4 0.92390450E-02 0.12501796E+03</pdfrwt>
<pdfrwt beam="1">  1       -4 0.10009930E-01 0.12501796E+03</pdfrwt>
<totfact> 0.10446052E+04</totfact>
</mgrwt>
</event>
<event>
 5    1  0.3282316E-002  0.1249999E+03  0.7818608E-02  0.1235069E+00
          4   -1    0    0  501    0  0.00000000000E+00  0.00000000000E+00  0.53893432068E+01  0.55369594726E+01  0.12700000000E+01 0. -1.
         -4   -1    0    0    0  501 -0.00000000000E+00 -0.00000000000E+00 -0.71486800631E+03  0.71486913442E+03  0.12700000000E+01 0. -1.
         25    2    1    2    0    0  0.00000000000E+00  0.00000000000E+00 -0.70947866310E+03  0.72040609389E+03  0.12499986687E+03 0.  0.
    9000005    1    3    3    0    0 -0.36829872626E+02  0.41171661728E+02 -0.18634806611E+03  0.19436601295E+03  0.10000000000E+01 0.  0.
    9000005    1    3    3    0    0  0.36829872626E+02 -0.41171661728E+02 -0.52313059699E+03  0.52604008094E+03  0.10000000000E+01 0.  0.
<mgrwt>
<rscale>  0 0.12499987E+03</rscale>
<asrwt>0</asrwt>
<pdfrwt beam="1">  1        4 0.84057216E-03 0.12499987E+03</pdfrwt>
<pdfrwt beam="2">  1       -4 0.10999106E+00 0.12499987E+03</pdfrwt>
<totfact> 0.42031278E+03</totfact>
</mgrwt>
</event>
<event>
 5    1  0.3282316E-002  0.1249993E+03  0.7818608E-02  0.1235070E+00
         -4   -1    0    0    0  501 -0.00000000000E+00  0.00000000000E+00  0.91460539218E+02  0.91469356257E+02  0.12700000000E+01 0. -1.
          4   -1    0    0  501    0  0.00000000000E+00 -0.00000000000E+00 -0.42688884052E+02  0.42707771208E+02  0.12700000000E+01 0. -1.
         25    2    1    2    0    0  0.00000000000E+00  0.00000000000E+00  0.48771655166E+02  0.13417712747E+03  0.12499930875E+03 0.  0.
    9000005    1    3    3    0    0 -0.57190960629E+02 -0.10625634592E+02  0.48898838836E+02  0.75998727145E+02  0.10000000000E+01 0.  0.
    9000005    1    3    3    0    0  0.57190960629E+02  0.10625634592E+02 -0.12718367007E+00  0.58178400320E+02  0.10000000000E+01 0.  0.
<mgrwt>
<rscale>  0 0.12499931E+03</rscale>
<asrwt>0</asrwt>
<pdfrwt beam="2">  1        4 0.65696518E-02 0.12499931E+03</pdfrwt>
<pdfrwt beam="1">  1       -4 0.14072983E-01 0.12499931E+03</pdfrwt>
<totfact> 0.10255604E+04</totfact>
</mgrwt>
</event>
<event>
 5    1  0.3282316E-002  0.1250017E+03  0.7818608E-02  0.1235067E+00
          4   -1    0    0  501    0  0.00000000000E+00  0.00000000000E+00  0.86336974517E+01  0.87266048202E+01  0.12700000000E+01 0. -1.
         -4   -1    0    0    0  501 -0.00000000000E+00 -0.00000000000E+00 -0.44993904619E+03  0.44994083854E+03  0.12700000000E+01 0. -1.
         25    2    1    2    0    0  0.00000000000E+00  0.00000000000E+00 -0.44130534874E+03  0.45866744336E+03  0.12500165108E+03 0.  0.
    9000005    1    3    3    0    0  0.25850641937E+02  0.56890763564E+02 -0.22334535926E+03  0.23192447945E+03  0.10000000000E+01 0.  0.
    9000005    1    3    3    0    0 -0.25850641937E+02 -0.56890763564E+02 -0.21795998948E+03  0.22674296391E+03  0.10000000000E+01 0.  0.
<mgrwt>
<rscale>  0 0.12500165E+03</rscale>
<asrwt>0</asrwt>
<pdfrwt beam="1">  1        4 0.13355461E-02 0.12500165E+03</pdfrwt>
<pdfrwt beam="2">  1       -4 0.69228658E-01 0.12500165E+03</pdfrwt>
<totfact> 0.59218076E+03</totfact>
</mgrwt>
</event>
<event>
 5    1  0.3282316E-002  0.1249992E+03  0.7818608E-02  0.1235071E+00
          4   -1    0    0  501    0  0.00000000000E+00  0.00000000000E+00  0.60865424232E+01  0.62176280582E+01  0.12700000000E+01 0. -1.
         -4   -1    0    0    0  501 -0.00000000000E+00 -0.00000000000E+00 -0.63480724391E+03  0.63480851429E+03  0.12700000000E+01 0. -1.
         25    2    1    2    0    0  0.00000000000E+00  0.00000000000E+00 -0.62872070149E+03  0.64102614235E+03  0.12499917880E+03 0.  0.
    9000005    1    3    3    0    0  0.43510778710E+02  0.31805496445E+02 -0.15215692355E+03  0.16142337765E+03  0.10000000000E+01 0.  0.
    9000005    1    3    3    0    0 -0.43510778710E+02 -0.31805496445E+02 -0.47656377794E+03  0.47960276470E+03  0.10000000000E+01 0.  0.
<mgrwt>
<rscale>  0 0.12499918E+03</rscale>
<asrwt>0</asrwt>
<pdfrwt beam="1">  1        4 0.94657287E-03 0.12499918E+03</pdfrwt>
<pdfrwt beam="2">  1       -4 0.97672783E-01 0.12499918E+03</pdfrwt>
<totfact> 0.46377049E+03</totfact>
</mgrwt>
</event>
<event>
 5    1  0.3282316E-002  0.1250008E+03  0.7818608E-02  0.1235068E+00
          4   -1    0    0  501    0  0.00000000000E+00  0.00000000000E+00  0.34331856360E+02  0.34355338176E+02  0.12700000000E+01 0.  1.
         -4   -1    0    0    0  501 -0.00000000000E+00 -0.00000000000E+00 -0.11371469624E+03  0.11372178789E+03  0.12700000000E+01 0.  1.
         25    2    1    2    0    0  0.00000000000E+00  0.00000000000E+00 -0.79382839877E+02  0.14807712606E+03  0.12500079998E+03 0.  0.
    9000005    1    3    3    0    0 -0.11621067444E+02 -0.55419105369E+02 -0.83725880549E+01  0.57248813780E+02  0.10000000000E+01 0.  0.
    9000005    1    3    3    0    0  0.11621067444E+02  0.55419105369E+02 -0.71010251822E+02  0.90828312283E+02  0.10000000000E+01 0.  0.
<mgrwt>
<rscale>  0 0.12500080E+03</rscale>
<asrwt>0</asrwt>
<pdfrwt beam="1">  1        4 0.52841759E-02 0.12500080E+03</pdfrwt>
<pdfrwt beam="2">  1       -4 0.17496920E-01 0.12500080E+03</pdfrwt>
<totfact> 0.99686589E+03</totfact>
</mgrwt>
</event>
<event>
 5    1  0.3282316E-002  0.1249980E+03  0.7818608E-02  0.1235072E+00
          4   -1    0    0  501    0  0.00000000000E+00  0.00000000000E+00  0.32996085705E+01  0.35355786965E+01  0.12700000000E+01 0. -1.
         -4   -1    0    0    0  501 -0.00000000000E+00 -0.00000000000E+00 -0.11427089869E+04  0.11427096926E+04  0.12700000000E+01 0. -1.
         25    2    1    2    0    0  0.00000000000E+00  0.00000000000E+00 -0.11394093783E+04  0.11462452713E+04  0.12499796248E+03 0.  0.
    9000005    1    3    3    0    0 -0.42019880687E+02  0.32433613891E+02 -0.26729768458E+03  0.27251910367E+03  0.10000000000E+01 0.  0.
    9000005    1    3    3    0    0  0.42019880687E+02 -0.32433613891E+02 -0.87211169371E+03  0.87372616763E+03  0.10000000000E+01 0.  0.
<mgrwt>
<rscale>  0 0.12499796E+03</rscale>
<asrwt>0</asrwt>
<pdfrwt beam="1">  1        4 0.52583883E-03 0.12499796E+03</pdfrwt>
<pdfrwt beam="2">  1       -4 0.17581928E+00 0.12499796E+03</pdfrwt>
<totfact> 0.26165859E+03</totfact>
</mgrwt>
</event>
<event>
 5    1  0.3282316E-002  0.1249976E+03  0.7818608E-02  0.1235073E+00
         -4   -1    0    0    0  501 -0.00000000000E+00  0.00000000000E+00  0.69970013458E+02  0.69981538161E+02  0.12700000000E+01 0.  1.
          4   -1    0    0  501    0  0.00000000000E+00 -0.00000000000E+00 -0.55801972066E+02  0.55816422193E+02  0.12700000000E+01 0.  1.
         25    2    1    2    0    0  0.00000000000E+00  0.00000000000E+00  0.14168041392E+02  0.12579796035E+03  0.12499757371E+03 0.  0.
    9000005    1    3    3    0    0  0.20579536680E+02  0.31711626209E+02 -0.42993553621E+02  0.57258975015E+02  0.10000000000E+01 0.  0.
    9000005    1    3    3    0    0 -0.20579536680E+02 -0.31711626209E+02  0.57161595013E+02  0.68538985339E+02  0.10000000000E+01 0.  0.
<mgrwt>
<rscale>  0 0.12499757E+03</rscale>
<asrwt>0</asrwt>
<pdfrwt beam="2">  1        4 0.85869168E-02 0.12499757E+03</pdfrwt>
<pdfrwt beam="1">  1       -4 0.10766616E-01 0.12499757E+03</pdfrwt>
<totfact> 0.10435961E+04</totfact>
</mgrwt>
</event>
<event>
 5    1  0.3282316E-002  0.1249956E+03  0.7818608E-02  0.1235076E+00
         -4   -1    0    0    0  501 -0.00000000000E+00  0.00000000000E+00  0.10841734602E+03  0.10842478415E+03  0.12700000000E+01 0. -1.
          4   -1    0    0  501    0  0.00000000000E+00 -0.00000000000E+00 -0.36007326407E+02  0.36029716276E+02  0.12700000000E+01 0. -1.
         25    2    1    2    0    0  0.00000000000E+00  0.00000000000E+00  0.72410019611E+02  0.14445450042E+03  0.12499556693E+03 0.  0.
    9000005    1    3    3    0    0  0.59008094866E+02  0.66924353336E+01  0.13729276444E+02  0.60960946368E+02  0.10000000000E+01 0.  0.
    9000005    1    3    3    0    0 -0.59008094866E+02 -0.66924353336E+01  0.58680743167E+02  0.83493554057E+02  0.10000000000E+01 0.  0.
<mgrwt>
<rscale>  0 0.12499557E+03</rscale>
<asrwt>0</asrwt>
<pdfrwt beam="2">  1        4 0.55418831E-02 0.12499557E+03</pdfrwt>
<pdfrwt beam="1">  1       -4 0.16681886E-01 0.12499557E+03</pdfrwt>
<totfact> 0.10043086E+04</totfact>
</mgrwt>
</event>
<event>
 5    1  0.3282316E-002  0.1249996E+03  0.7818608E-02  0.1235070E+00
          4   -1    0    0  501    0  0.00000000000E+00  0.00000000000E+00  0.88532922640E+02  0.88542031212E+02  0.12700000000E+01 0.  1.
         -4   -1    0    0    0  501 -0.00000000000E+00 -0.00000000000E+00 -0.44101175441E+02  0.44119458012E+02  0.12700000000E+01 0.  1.
         25    2    1    2    0    0  0.00000000000E+00  0.00000000000E+00  0.44431747198E+02  0.13266148922E+03  0.12499956226E+03 0.  0.
    9000005    1    3    3    0    0 -0.54528539496E+02 -0.26366743892E+02  0.58893023734E+01  0.60862555693E+02  0.10000000000E+01 0.  0.
    9000005    1    3    3    0    0  0.54528539496E+02  0.26366743892E+02  0.38542444825E+02  0.71798933531E+02  0.10000000000E+01 0.  0.
<mgrwt>
<rscale>  0 0.12499956E+03</rscale>
<asrwt>0</asrwt>
<pdfrwt beam="1">  1        4 0.13622557E-01 0.12499956E+03</pdfrwt>
<pdfrwt beam="2">  1       -4 0.67869033E-02 0.12499956E+03</pdfrwt>
<totfact> 0.10287701E+04</totfact>
</mgrwt>
</event>
<event>
 5    1  0.3282316E-002  0.1249822E+03  0.7818608E-02  0.1235097E+00
         -4   -1    0    0    0  501 -0.00000000000E+00  0.00000000000E+00  0.45517765101E+02  0.45535478913E+02  0.12700000000E+01 0. -1.
          4   -1    0    0  501    0  0.00000000000E+00 -0.00000000000E+00 -0.85754581128E+02  0.85763984775E+02  0.12700000000E+01 0. -1.
         25    2    1    2    0    0  0.00000000000E+00  0.00000000000E+00 -0.40236816027E+02  0.13129946369E+03  0.12498218993E+03 0.  0.
    9000005    1    3    3    0    0 -0.13670436587E+02  0.53118314995E+02  0.11322587248E+02  0.56014616006E+02  0.10000000000E+01 0.  0.
    9000005    1    3    3    0    0  0.13670436587E+02 -0.53118314995E+02 -0.51559403275E+02  0.75284847681E+02  0.10000000000E+01 0.  0.
<mgrwt>
<rscale>  0 0.12498219E+03</rscale>
<asrwt>0</asrwt>
<pdfrwt beam="2">  1        4 0.13195098E-01 0.12498219E+03</pdfrwt>
<pdfrwt beam="1">  1       -4 0.70048191E-02 0.12498219E+03</pdfrwt>
<totfact> 0.10320820E+04</totfact>
</mgrwt>
</event>
<event>
 5    1  0.3282316E-002  0.1249892E+03  0.7818608E-02  0.1235086E+00
         -4   -1    0    0    0  501 -0.00000000000E+00  0.00000000000E+00  0.19915122186E+03  0.19915527126E+03  0.12700000000E+01 0. -1.
          4   -1    0    0  501    0  0.00000000000E+00 -0.00000000000E+00 -0.19586288594E+02  0.19627419618E+02  0.12700000000E+01 0. -1.
         25    2    1    2    0    0  0.00000000000E+00  0.00000000000E+00  0.17956493327E+03  0.21878269087E+03  0.12498920180E+03 0.  0.
    9000005    1    3    3    0    0  0.11756084182E+02  0.44620411772E+01  0.19692230930E+03  0.19732590105E+03  0.10000000000E+01 0.  0.
    9000005    1    3    3    0    0 -0.11756084182E+02 -0.44620411772E+01 -0.17357376031E+02  0.21456789821E+02  0.10000000000E+01 0.  0.
<mgrwt>
<rscale>  0 0.12498920E+03</rscale>
<asrwt>0</asrwt>
<pdfrwt beam="2">  1        4 0.30167507E-02 0.12498920E+03</pdfrwt>
<pdfrwt beam="1">  1       -4 0.30642124E-01 0.12498920E+03</pdfrwt>
<totfact> 0.87082344E+03</totfact>
</mgrwt>
</event>
<event>
 5    1  0.3282316E-002  0.1249971E+03  0.7818608E-02  0.1235074E+00
         -4   -1    0    0    0  501 -0.00000000000E+00  0.00000000000E+00  0.33512230008E+01  0.35837962555E+01  0.12700000000E+01 0. -1.
          4   -1    0    0  501    0  0.00000000000E+00 -0.00000000000E+00 -0.11262433652E+04  0.11262440813E+04  0.12700000000E+01 0. -1.
         25    2    1    2    0    0  0.00000000000E+00  0.00000000000E+00 -0.11228921422E+04  0.11298278775E+04  0.12499707910E+03 0.  0.
    9000005    1    3    3    0    0 -0.40526609424E+02 -0.17371586893E+02 -0.16118904444E+03  0.16711399149E+03  0.10000000000E+01 0.  0.
    9000005    1    3    3    0    0  0.40526609424E+02  0.17371586893E+02 -0.96170309778E+03  0.96271388604E+03  0.10000000000E+01 0.  0.
<mgrwt>
<rscale>  0 0.12499708E+03</rscale>
<asrwt>0</asrwt>
<pdfrwt beam="2">  1        4 0.17328586E+00 0.12499708E+03</pdfrwt>
<pdfrwt beam="1">  1       -4 0.53351900E-03 0.12499708E+03</pdfrwt>
<totfact> 0.26628138E+03</totfact>
</mgrwt>
</event>
<event>
 5    1  0.3282316E-002  0.1249949E+03  0.7818608E-02  0.1235077E+00
          4   -1    0    0  501    0  0.00000000000E+00  0.00000000000E+00  0.23878642481E+03  0.23878980207E+03  0.12700000000E+01 0.  1.
         -4   -1    0    0    0  501 -0.00000000000E+00 -0.00000000000E+00 -0.16329289652E+02  0.16378601911E+02  0.12700000000E+01 0.  1.
         25    2    1    2    0    0  0.00000000000E+00  0.00000000000E+00  0.22245713516E+03  0.25516840398E+03  0.12499494953E+03 0.  0.
    9000005    1    3    3    0    0 -0.11813596327E+02  0.60172589199E+02  0.13577949109E+03  0.14898782417E+03  0.10000000000E+01 0.  0.
    9000005    1    3    3    0    0  0.11813596327E+02 -0.60172589199E+02  0.86677644066E+02  0.10618057982E+03  0.10000000000E+01 0.  0.
<mgrwt>
<rscale>  0 0.12499495E+03</rscale>
<asrwt>0</asrwt>
<pdfrwt beam="1">  1        4 0.36740426E-01 0.12499495E+03</pdfrwt>
<pdfrwt beam="2">  1       -4 0.25162515E-02 0.12499495E+03</pdfrwt>
<totfact> 0.81598100E+03</totfact>
</mgrwt>
</event>
<event>
 5    1  0.3282316E-002  0.1249962E+03  0.7818608E-02  0.1235075E+00
         -4   -1    0    0    0  501 -0.00000000000E+00  0.00000000000E+00  0.12350444270E+02  0.12415569808E+02  0.12700000000E+01 0.  1.
          4   -1    0    0  501    0  0.00000000000E+00 -0.00000000000E+00 -0.31536705368E+03  0.31536961085E+03  0.12700000000E+01 0.  1.
         25    2    1    2    0    0  0.00000000000E+00  0.00000000000E+00 -0.30301660941E+03  0.32778518066E+03  0.12499623626E+03 0.  0.
    9000005    1    3    3    0    0  0.38697977126E+02  0.49066061412E+02 -0.15136577896E+03  0.16376083432E+03  0.10000000000E+01 0.  0.
    9000005    1    3    3    0    0 -0.38697977126E+02 -0.49066061412E+02 -0.15165083045E+03  0.16402434634E+03  0.10000000000E+01 0.  0.
<mgrwt>
<rscale>  0 0.12499624E+03</rscale>
<asrwt>0</asrwt>
<pdfrwt beam="2">  1        4 0.48523209E-01 0.12499624E+03</pdfrwt>
<pdfrwt beam="1">  1       -4 0.19052749E-02 0.12499624E+03</pdfrwt>
<totfact> 0.72245677E+03</totfact>
</mgrwt>
</event>
<event>
 5    1  0.3282316E-002  0.1250025E+03  0.7818608E-02  0.1235065E+00
          4   -1    0    0  501    0  0.00000000000E+00  0.00000000000E+00  0.49537641731E+02  0.49553918597E+02  0.12700000000E+01 0. -1.
         -4   -1    0    0    0  501 -0.00000000000E+00 -0.00000000000E+00 -0.78822963316E+02  0.78833193807E+02  0.12700000000E+01 0. -1.
         25    2    1    2    0    0  0.00000000000E+00  0.00000000000E+00 -0.29285321584E+02  0.12838711240E+03  0.12500248226E+03 0.  0.
    9000005    1    3    3    0    0 -0.18440655067E+02  0.44303990743E+01 -0.75800896445E+02  0.78143855146E+02  0.10000000000E+01 0.  0.
    9000005    1    3    3    0    0  0.18440655067E+02 -0.44303990743E+01  0.46515574861E+02  0.50243257258E+02  0.10000000000E+01 0.  0.
<mgrwt>
<rscale>  0 0.12500248E+03</rscale>
<asrwt>0</asrwt>
<pdfrwt beam="1">  1        4 0.76232147E-02 0.12500248E+03</pdfrwt>
<pdfrwt beam="2">  1       -4 0.12128649E-01 0.12500248E+03</pdfrwt>
<totfact> 0.10378554E+04</totfact>
</mgrwt>
</event>
<event>
 5    1  0.3282316E-002  0.1250010E+03  0.7818608E-02  0.1235068E+00
          4   -1    0    0  501    0  0.00000000000E+00  0.00000000000E+00  0.40550200198E+02  0.40570083018E+02  0.12700000000E+01 0.  1.
         -4   -1    0    0    0  501 -0.00000000000E+00 -0.00000000000E+00 -0.96285132646E+02  0.96293507926E+02  0.12700000000E+01 0.  1.
         25    2    1    2    0    0  0.00000000000E+00  0.00000000000E+00 -0.55734932448E+02  0.13686359094E+03  0.12500103932E+03 0.  0.
    9000005    1    3    3    0    0 -0.26944668319E+02 -0.50574071998E+02 -0.57034171875E+00  0.57315592983E+02  0.10000000000E+01 0.  0.
    9000005    1    3    3    0    0  0.26944668319E+02  0.50574071998E+02 -0.55164590730E+02  0.79547997961E+02  0.10000000000E+01 0.  0.
<mgrwt>
<rscale>  0 0.12500104E+03</rscale>
<asrwt>0</asrwt>
<pdfrwt beam="1">  1        4 0.62406661E-02 0.12500104E+03</pdfrwt>
<pdfrwt beam="2">  1       -4 0.14815271E-01 0.12500104E+03</pdfrwt>
<totfact> 0.10198700E+04</totfact>
</mgrwt>
</event>
<event>
 5    1  0.3282316E-002  0.1249994E+03  0.7818608E-02  0.1235070E+00
          4   -1    0    0  501    0  0.00000000000E+00  0.00000000000E+00  0.50987862377E+03  0.50988020541E+03  0.12700000000E+01 0. -1.
         -4   -1    0    0    0  501 -0.00000000000E+00 -0.00000000000E+00 -0.76068316684E+01  0.77121195550E+01  0.12700000000E+01 0. -1.
         25    2    1    2    0    0  0.00000000000E+00  0.00000000000E+00  0.50227179210E+03  0.51759232497E+03  0.12499944692E+03 0.  0.
    9000005    1    3    3    0    0 -0.16139473947E+02  0.54192980159E+02  0.14096890339E+03  0.15189007025E+03  0.10000000000E+01 0.  0.
    9000005    1    3    3    0    0  0.16139473947E+02 -0.54192980159E+02  0.36130288871E+03  0.36570225472E+03  0.10000000000E+01 0.  0.
<mgrwt>
<rscale>  0 0.12499945E+03</rscale>
<asrwt>0</asrwt>
<pdfrwt beam="1">  1        4 0.78451090E-01 0.12499945E+03</pdfrwt>
<pdfrwt beam="2">  1       -4 0.11785025E-02 0.12499945E+03</pdfrwt>
<totfact> 0.54525454E+03</totfact>
</mgrwt>
</event>
<event>
 5    1  0.3282316E-002  0.1250077E+03  0.7818608E-02  0.1235057E+00
          4   -1    0    0  501    0  0.00000000000E+00  0.00000000000E+00  0.27767937198E+03  0.27768227621E+03  0.12700000000E+01 0. -1.
         -4   -1    0    0    0  501 -0.00000000000E+00 -0.00000000000E+00 -0.14037566003E+02  0.14094898342E+02  0.12700000000E+01 0. -1.
         25    2    1    2    0    0  0.00000000000E+00  0.00000000000E+00  0.26364180597E+03  0.29177717455E+03  0.12500767069E+03 0.  0.
    9000005    1    3    3    0    0 -0.26884266799E+02 -0.54941940434E+02  0.10189839871E+03  0.11885143786E+03  0.10000000000E+01 0.  0.
    9000005    1    3    3    0    0  0.26884266799E+02  0.54941940434E+02  0.16174340726E+03  0.17292573669E+03  0.10000000000E+01 0.  0.
<mgrwt>
<rscale>  0 0.12500767E+03</rscale>
<asrwt>0</asrwt>
<pdfrwt beam="1">  1        4 0.42724531E-01 0.12500767E+03</pdfrwt>
<pdfrwt beam="2">  1       -4 0.21642594E-02 0.12500767E+03</pdfrwt>
<totfact> 0.76628956E+03</totfact>
</mgrwt>
</event>
<event>
 5    1  0.3282316E-002  0.1249985E+03  0.7818608E-02  0.1235072E+00
          4   -1    0    0  501    0  0.00000000000E+00  0.00000000000E+00  0.16710471023E+02  0.16758661695E+02  0.12700000000E+01 0. -1.
         -4   -1    0    0    0  501 -0.00000000000E+00 -0.00000000000E+00 -0.23336849447E+03  0.23337195014E+03  0.12700000000E+01 0. -1.
         25    2    1    2    0    0  0.00000000000E+00  0.00000000000E+00 -0.21665802345E+03  0.25013061184E+03  0.12499849540E+03 0.  0.
    9000005    1    3    3    0    0  0.48363347301E+02 -0.23525354350E+02 -0.17200893480E+03  0.18022355370E+03  0.10000000000E+01 0.  0.
    9000005    1    3    3    0    0 -0.48363347301E+02  0.23525354350E+02 -0.44649088655E+02  0.69907058136E+02  0.10000000000E+01 0.  0.
<mgrwt>
<rscale>  0 0.12499850E+03</rscale>
<asrwt>0</asrwt>
<pdfrwt beam="1">  1        4 0.25748147E-02 0.12499850E+03</pdfrwt>
<pdfrwt beam="2">  1       -4 0.35906816E-01 0.12499850E+03</pdfrwt>
<totfact> 0.82314114E+03</totfact>
</mgrwt>
</event>
<event>
 5    1  0.3282316E-002  0.1249972E+03  0.7818608E-02  0.1235074E+00
          4   -1    0    0  501    0  0.00000000000E+00  0.00000000000E+00  0.53533069901E+03  0.53533220546E+03  0.12700000000E+01 0.  1.
         -4   -1    0    0    0  501 -0.00000000000E+00 -0.00000000000E+00 -0.72397761364E+01  0.73503237007E+01  0.12700000000E+01 0.  1.
         25    2    1    2    0    0  0.00000000000E+00  0.00000000000E+00  0.52809092287E+03  0.54268252916E+03  0.12499721851E+03 0.  0.
    9000005    1    3    3    0    0  0.33931325310E+02 -0.96564243879E+01  0.48798289553E+03  0.48925748610E+03  0.10000000000E+01 0.  0.
    9000005    1    3    3    0    0 -0.33931325310E+02  0.96564243879E+01  0.40108027342E+02  0.53425043065E+02  0.10000000000E+01 0.  0.
<mgrwt>
<rscale>  0 0.12499722E+03</rscale>
<asrwt>0</asrwt>
<pdfrwt beam="1">  1        4 0.82367197E-01 0.12499722E+03</pdfrwt>
<pdfrwt beam="2">  1       -4 0.11224311E-02 0.12499722E+03</pdfrwt>
<totfact> 0.52701632E+03</totfact>
</mgrwt>
</event>
<event>
 5    1  0.3282316E-002  0.1250020E+03  0.7818608E-02  0.1235066E+00
         -4   -1    0    0    0  501 -0.00000000000E+00  0.00000000000E+00  0.47104726690E+03  0.47104897893E+03  0.12700000000E+01 0.  1.
          4   -1    0    0  501    0  0.00000000000E+00 -0.00000000000E+00 -0.82425920227E+01  0.83398575080E+01  0.12700000000E+01 0.  1.
         25    2    1    2    0    0  0.00000000000E+00  0.00000000000E+00  0.46280467488E+03  0.47938883644E+03  0.12500195765E+03 0.  0.
    9000005    1    3    3    0    0  0.10847234813E+02  0.46778468380E+02  0.78025014495E+02  0.91623089306E+02  0.10000000000E+01 0.  0.
    9000005    1    3    3    0    0 -0.10847234813E+02 -0.46778468380E+02  0.38477966038E+03  0.38776574714E+03  0.10000000000E+01 0.  0.
<mgrwt>
<rscale>  0 0.12500196E+03</rscale>
<asrwt>0</asrwt>
<pdfrwt beam="2">  1        4 0.12757047E-02 0.12500196E+03</pdfrwt>
<pdfrwt beam="1">  1       -4 0.72476425E-01 0.12500196E+03</pdfrwt>
<totfact> 0.57497290E+03</totfact>
</mgrwt>
</event>
<event>
 5    1  0.3282316E-002  0.1249994E+03  0.7818608E-02  0.1235070E+00
          4   -1    0    0  501    0  0.00000000000E+00  0.00000000000E+00  0.25058474173E+02  0.25090636259E+02  0.12700000000E+01 0. -1.
         -4   -1    0    0    0  501 -0.00000000000E+00 -0.00000000000E+00 -0.15574923148E+03  0.15575440927E+03  0.12700000000E+01 0. -1.
         25    2    1    2    0    0  0.00000000000E+00  0.00000000000E+00 -0.13069075731E+03  0.18084504553E+03  0.12499942578E+03 0.  0.
    9000005    1    3    3    0    0 -0.47070250242E+02 -0.36709542224E+02 -0.92101384232E+02  0.10975820664E+03  0.10000000000E+01 0.  0.
    9000005    1    3    3    0    0  0.47070250242E+02  0.36709542224E+02 -0.38589373073E+02  0.71086838882E+02  0.10000000000E+01 0.  0.
<mgrwt>
<rscale>  0 0.12499943E+03</rscale>
<asrwt>0</asrwt>
<pdfrwt beam="1">  1        4 0.38580223E-02 0.12499943E+03</pdfrwt>
<pdfrwt beam="2">  1       -4 0.23964292E-01 0.12499943E+03</pdfrwt>
<totfact> 0.93466317E+03</totfact>
</mgrwt>
</event>
<event>
 5    1  0.3282316E-002  0.1250021E+03  0.7818608E-02  0.1235066E+00
         -4   -1    0    0    0  501 -0.00000000000E+00  0.00000000000E+00  0.13508816250E+02  0.13568382973E+02  0.12700000000E+01 0.  1.
          4   -1    0    0  501    0  0.00000000000E+00 -0.00000000000E+00 -0.28847569175E+03  0.28847848729E+03  0.12700000000E+01 0.  1.
         25    2    1    2    0    0  0.00000000000E+00  0.00000000000E+00 -0.27496687550E+03  0.30204687026E+03  0.12500211684E+03 0.  0.
    9000005    1    3    3    0    0 -0.19266374078E+02  0.16804270210E+02 -0.27527393334E+03  0.27646033177E+03  0.10000000000E+01 0.  0.
    9000005    1    3    3    0    0  0.19266374078E+02 -0.16804270210E+02  0.30705784194E+00  0.25586538491E+02  0.10000000000E+01 0.  0.
<mgrwt>
<rscale>  0 0.12500212E+03</rscale>
<asrwt>0</asrwt>
<pdfrwt beam="2">  1        4 0.44385668E-01 0.12500212E+03</pdfrwt>
<pdfrwt beam="1">  1       -4 0.20830767E-02 0.12500212E+03</pdfrwt>
<totfact> 0.75339260E+03</totfact>
</mgrwt>
</event>
<event>
 5    1  0.3282316E-002  0.1250004E+03  0.7818608E-02  0.1235069E+00
          4   -1    0    0  501    0  0.00000000000E+00  0.00000000000E+00  0.14192465205E+02  0.14249174313E+02  0.12700000000E+01 0.  1.
         -4   -1    0    0    0  501 -0.00000000000E+00 -0.00000000000E+00 -0.27462898920E+03  0.27463192569E+03  0.12700000000E+01 0.  1.
         25    2    1    2    0    0  0.00000000000E+00  0.00000000000E+00 -0.26043652399E+03  0.28888110000E+03  0.12500042764E+03 0.  0.
    9000005    1    3    3    0    0  0.22121396951E+02  0.33386940566E+02 -0.19354936699E+02  0.44493343075E+02  0.10000000000E+01 0.  0.
    9000005    1    3    3    0    0 -0.22121396951E+02 -0.33386940566E+02 -0.24108158729E+03  0.24438775692E+03  0.10000000000E+01 0.  0.
<mgrwt>
<rscale>  0 0.12500043E+03</rscale>
<asrwt>0</asrwt>
<pdfrwt beam="1">  1        4 0.21880445E-02 0.12500043E+03</pdfrwt>
<pdfrwt beam="2">  1       -4 0.42255198E-01 0.12500043E+03</pdfrwt>
<totfact> 0.77014352E+03</totfact>
</mgrwt>
</event>
<event>
 5    1  0.3282316E-002  0.1250070E+03  0.7818608E-02  0.1235058E+00
         -4   -1    0    0    0  501 -0.00000000000E+00  0.00000000000E+00  0.17633819010E+02  0.17679493003E+02  0.12700000000E+01 0.  1.
          4   -1    0    0  501    0  0.00000000000E+00 -0.00000000000E+00 -0.22121097430E+03  0.22121461988E+03  0.12700000000E+01 0.  1.
         25    2    1    2    0    0  0.00000000000E+00  0.00000000000E+00 -0.20357715529E+03  0.23889411289E+03  0.12500695587E+03 0.  0.
    9000005    1    3    3    0    0  0.26954492208E+02  0.19042599458E+02 -0.20320952197E+03  0.20587441576E+03  0.10000000000E+01 0.  0.
    9000005    1    3    3    0    0 -0.26954492208E+02 -0.19042599458E+02 -0.36763331986E+00  0.33019697130E+02  0.10000000000E+01 0.  0.
<mgrwt>
<rscale>  0 0.12500696E+03</rscale>
<asrwt>0</asrwt>
<pdfrwt beam="2">  1        4 0.34036249E-01 0.12500696E+03</pdfrwt>
<pdfrwt beam="1">  1       -4 0.27166892E-02 0.12500696E+03</pdfrwt>
<totfact> 0.83949327E+03</totfact>
</mgrwt>
</event>
<event>
 5    1  0.3282316E-002  0.1249464E+03  0.7818608E-02  0.1235153E+00
          4   -1    0    0  501    0  0.00000000000E+00  0.00000000000E+00  0.16655393845E+03  0.16655878035E+03  0.12700000000E+01 0.  1.
         -4   -1    0    0    0  501 -0.00000000000E+00 -0.00000000000E+00 -0.23410873935E+02  0.23445296296E+02  0.12700000000E+01 0.  1.
         25    2    1    2    0    0  0.00000000000E+00  0.00000000000E+00  0.14314306451E+03  0.19000407665E+03  0.12494643742E+03 0.  0.
    9000005    1    3    3    0    0 -0.24561331891E+02 -0.34131870013E+02  0.14181429690E+03  0.14792071654E+03  0.10000000000E+01 0.  0.
    9000005    1    3    3    0    0  0.24561331891E+02  0.34131870013E+02  0.13287676094E+01  0.42083360110E+02  0.10000000000E+01 0.  0.
<mgrwt>
<rscale>  0 0.12494644E+03</rscale>
<asrwt>0</asrwt>
<pdfrwt beam="1">  1        4 0.25626702E-01 0.12494644E+03</pdfrwt>
<pdfrwt beam="2">  1       -4 0.36046934E-02 0.12494644E+03</pdfrwt>
<totfact> 0.91956890E+03</totfact>
</mgrwt>
</event>
<event>
 5    1  0.3282316E-002  0.1250057E+03  0.7818608E-02  0.1235060E+00
         -4   -1    0    0    0  501 -0.00000000000E+00  0.00000000000E+00  0.65056143050E+03  0.65056267012E+03  0.12700000000E+01 0. -1.
          4   -1    0    0  501    0  0.00000000000E+00 -0.00000000000E+00 -0.59365677312E+01  0.60708925560E+01  0.12700000000E+01 0. -1.
         25    2    1    2    0    0  0.00000000000E+00  0.00000000000E+00  0.64462486277E+03  0.65663356267E+03  0.12500568760E+03 0.  0.
    9000005    1    3    3    0    0  0.10371018854E+02 -0.39682460652E+02  0.74628861508E+02  0.85162918489E+02  0.10000000000E+01 0.  0.
    9000005    1    3    3    0    0 -0.10371018854E+02  0.39682460652E+02  0.56999600126E+03  0.57147064419E+03  0.10000000000E+01 0.  0.
<mgrwt>
<rscale>  0 0.12500569E+03</rscale>
<asrwt>0</asrwt>
<pdfrwt beam="2">  1        4 0.92374603E-03 0.12500569E+03</pdfrwt>
<pdfrwt beam="1">  1       -4 0.10009681E+00 0.12500569E+03</pdfrwt>
<totfact> 0.45471007E+03</totfact>
</mgrwt>
</event>
<event>
 5    1  0.3282316E-002  0.1249966E+03  0.7818608E-02  0.1235075E+00
          4   -1    0    0  501    0  0.00000000000E+00  0.00000000000E+00  0.40140459988E+02  0.40160545664E+02  0.12700000000E+01 0.  1.
         -4   -1    0    0    0  501 -0.00000000000E+00 -0.00000000000E+00 -0.97260637786E+02  0.97268929071E+02  0.12700000000E+01 0.  1.
         25    2    1    2    0    0  0.00000000000E+00  0.00000000000E+00 -0.57120177799E+02  0.13742947473E+03  0.12499658321E+03 0.  0.
    9000005    1    3    3    0    0  0.33198508922E+02  0.42602820967E+02  0.59970009003E+01  0.54351682299E+02  0.10000000000E+01 0.  0.
    9000005    1    3    3    0    0 -0.33198508922E+02 -0.42602820967E+02 -0.63117178699E+02  0.83077792435E+02  0.10000000000E+01 0.  0.
<mgrwt>
<rscale>  0 0.12499658E+03</rscale>
<asrwt>0</asrwt>
<pdfrwt beam="1">  1        4 0.61776382E-02 0.12499658E+03</pdfrwt>
<pdfrwt beam="2">  1       -4 0.14965358E-01 0.12499658E+03</pdfrwt>
<totfact> 0.10187898E+04</totfact>
</mgrwt>
</event>
<event>
 5    1  0.3282316E-002  0.1249809E+03  0.7818608E-02  0.1235099E+00
          4   -1    0    0  501    0  0.00000000000E+00  0.00000000000E+00  0.57785252288E+01  0.59164392856E+01  0.12700000000E+01 0.  1.
         -4   -1    0    0    0  501 -0.00000000000E+00 -0.00000000000E+00 -0.66767943146E+03  0.66768063930E+03  0.12700000000E+01 0.  1.
         25    2    1    2    0    0  0.00000000000E+00  0.00000000000E+00 -0.66190090623E+03  0.67359707859E+03  0.12498085697E+03 0.  0.
    9000005    1    3    3    0    0 -0.62372912754E+02 -0.32437118879E+01 -0.32138221714E+03  0.32739644379E+03  0.10000000000E+01 0.  0.
    9000005    1    3    3    0    0  0.62372912754E+02  0.32437118879E+01 -0.34051868909E+03  0.34620063480E+03  0.10000000000E+01 0.  0.
<mgrwt>
<rscale>  0 0.12498086E+03</rscale>
<asrwt>0</asrwt>
<pdfrwt beam="1">  1        4 0.89970609E-03 0.12498086E+03</pdfrwt>
<pdfrwt beam="2">  1       -4 0.10273055E+00 0.12498086E+03</pdfrwt>
<totfact> 0.44536273E+03</totfact>
</mgrwt>
</event>
<event>
 5    1  0.3282316E-002  0.1249998E+03  0.7818608E-02  0.1235070E+00
          4   -1    0    0  501    0  0.00000000000E+00  0.00000000000E+00  0.45016465318E+02  0.45034376312E+02  0.12700000000E+01 0.  1.
         -4   -1    0    0    0  501 -0.00000000000E+00 -0.00000000000E+00 -0.86733674906E+02  0.86742972411E+02  0.12700000000E+01 0.  1.
         25    2    1    2    0    0  0.00000000000E+00  0.00000000000E+00 -0.41717209587E+02  0.13177734872E+03  0.12499977624E+03 0.  0.
    9000005    1    3    3    0    0  0.35231285453E+02 -0.19239765300E+02  0.29632116333E+02  0.49904652707E+02  0.10000000000E+01 0.  0.
    9000005    1    3    3    0    0 -0.35231285453E+02  0.19239765300E+02 -0.71349325920E+02  0.81872696015E+02  0.10000000000E+01 0.  0.
<mgrwt>
<rscale>  0 0.12499978E+03</rscale>
<asrwt>0</asrwt>
<pdfrwt beam="1">  1        4 0.69277030E-02 0.12499978E+03</pdfrwt>
<pdfrwt beam="2">  1       -4 0.13345735E-01 0.12499978E+03</pdfrwt>
<totfact> 0.10306505E+04</totfact>
</mgrwt>
</event>
<event>
 5    1  0.3282316E-002  0.1250065E+03  0.7818608E-02  0.1235059E+00
         -4   -1    0    0    0  501 -0.00000000000E+00  0.00000000000E+00  0.14296223934E+03  0.14296788023E+03  0.12700000000E+01 0.  1.
          4   -1    0    0  501    0  0.00000000000E+00 -0.00000000000E+00 -0.27305559285E+02  0.27335077609E+02  0.12700000000E+01 0.  1.
         25    2    1    2    0    0  0.00000000000E+00  0.00000000000E+00  0.11565668005E+03  0.17030295783E+03  0.12500651906E+03 0.  0.
    9000005    1    3    3    0    0 -0.60228319808E+02 -0.16124825413E+02  0.52016832147E+02  0.81204749418E+02  0.10000000000E+01 0.  0.
    9000005    1    3    3    0    0  0.60228319808E+02  0.16124825413E+02  0.63639847904E+02  0.89098208415E+02  0.10000000000E+01 0.  0.
<mgrwt>
<rscale>  0 0.12500652E+03</rscale>
<asrwt>0</asrwt>
<pdfrwt beam="2">  1        4 0.42035598E-02 0.12500652E+03</pdfrwt>
<pdfrwt beam="1">  1       -4 0.21996895E-01 0.12500652E+03</pdfrwt>
<totfact> 0.95378243E+03</totfact>
</mgrwt>
</event>
<event>
 5    1  0.3282316E-002  0.1250028E+03  0.7818608E-02  0.1235065E+00
          4   -1    0    0  501    0  0.00000000000E+00  0.00000000000E+00  0.11839279084E+03  0.11839960230E+03  0.12700000000E+01 0. -1.
         -4   -1    0    0    0  501 -0.00000000000E+00 -0.00000000000E+00 -0.32975468506E+02  0.32999915502E+02  0.12700000000E+01 0. -1.
         25    2    1    2    0    0  0.00000000000E+00  0.00000000000E+00  0.85417322339E+02  0.15139951780E+03  0.12500278011E+03 0.  0.
    9000005    1    3    3    0    0 -0.52872590462E+01  0.62071359425E+02  0.48717694971E+02  0.79089965055E+02  0.10000000000E+01 0.  0.
    9000005    1    3    3    0    0  0.52872590462E+01 -0.62071359425E+02  0.36699627368E+02  0.72309552744E+02  0.10000000000E+01 0.  0.
<mgrwt>
<rscale>  0 0.12500278E+03</rscale>
<asrwt>0</asrwt>
<pdfrwt beam="1">  1        4 0.18216680E-01 0.12500278E+03</pdfrwt>
<pdfrwt beam="2">  1       -4 0.50755534E-02 0.12500278E+03</pdfrwt>
<totfact> 0.99019259E+03</totfact>
</mgrwt>
</event>
<event>
 5    1  0.3282316E-002  0.1249969E+03  0.7818608E-02  0.1235074E+00
         -4   -1    0    0    0  501 -0.00000000000E+00  0.00000000000E+00  0.19439871043E+03  0.19440285882E+03  0.12700000000E+01 0.  1.
          4   -1    0    0  501    0  0.00000000000E+00 -0.00000000000E+00 -0.20068586270E+02  0.20108730812E+02  0.12700000000E+01 0.  1.
         25    2    1    2    0    0  0.00000000000E+00  0.00000000000E+00  0.17433012416E+03  0.21451158963E+03  0.12499691955E+03 0.  0.
    9000005    1    3    3    0    0  0.59597370901E+02 -0.77525660488E+01  0.11654600391E+03  0.13113321443E+03  0.10000000000E+01 0.  0.
    9000005    1    3    3    0    0 -0.59597370901E+02  0.77525660488E+01  0.57784120254E+02  0.83378375207E+02  0.10000000000E+01 0.  0.
<mgrwt>
<rscale>  0 0.12499692E+03</rscale>
<asrwt>0</asrwt>
<pdfrwt beam="2">  1        4 0.30908819E-02 0.12499692E+03</pdfrwt>
<pdfrwt beam="1">  1       -4 0.29910902E-01 0.12499692E+03</pdfrwt>
<totfact> 0.87750379E+03</totfact>
</mgrwt>
</event>
<event>
 5    1  0.3282316E-002  0.1249987E+03  0.7818608E-02  0.1235071E+00
          4   -1    0    0  501    0  0.00000000000E+00  0.00000000000E+00  0.96370452505E+03  0.96370536187E+03  0.12700000000E+01 0. -1.
         -4   -1    0    0    0  501 -0.00000000000E+00 -0.00000000000E+00 -0.39529436015E+01  0.41519469068E+01  0.12700000000E+01 0. -1.
         25    2    1    2    0    0  0.00000000000E+00  0.00000000000E+00  0.95975158145E+03  0.96785730878E+03  0.12499868825E+03 0.  0.
    9000005    1    3    3    0    0  0.57971735181E+01  0.47711452558E+01 -0.48591619742E+00  0.75899382344E+01  0.10000000000E+01 0.  0.
    9000005    1    3    3    0    0 -0.57971735181E+01 -0.47711452558E+01  0.96023749765E+03  0.96026737055E+03  0.10000000000E+01 0.  0.
<mgrwt>
<rscale>  0 0.12499869E+03</rscale>
<asrwt>0</asrwt>
<pdfrwt beam="1">  1        4 0.14827749E+00 0.12499869E+03</pdfrwt>
<pdfrwt beam="2">  1       -4 0.62351799E-03 0.12499869E+03</pdfrwt>
<totfact> 0.31691263E+03</totfact>
</mgrwt>
</event>
<event>
 5    1  0.3282316E-002  0.1250033E+03  0.7818608E-02  0.1235064E+00
          4   -1    0    0  501    0  0.00000000000E+00  0.00000000000E+00  0.35958962944E+03  0.35959187213E+03  0.12700000000E+01 0.  1.
         -4   -1    0    0    0  501 -0.00000000000E+00 -0.00000000000E+00 -0.10824248933E+02  0.10898498289E+02  0.12700000000E+01 0.  1.
         25    2    1    2    0    0  0.00000000000E+00  0.00000000000E+00  0.34876538050E+03  0.37049037041E+03  0.12500329568E+03 0.  0.
    9000005    1    3    3    0    0  0.23431508624E+02 -0.44096883272E+02  0.28574934266E+03  0.29008146707E+03  0.10000000000E+01 0.  0.
    9000005    1    3    3    0    0 -0.23431508624E+02  0.44096883272E+02  0.63016037848E+02  0.80408903342E+02  0.10000000000E+01 0.  0.
<mgrwt>
<rscale>  0 0.12500330E+03</rscale>
<asrwt>0</asrwt>
<pdfrwt beam="1">  1        4 0.55327369E-01 0.12500330E+03</pdfrwt>
<pdfrwt beam="2">  1       -4 0.16711530E-02 0.12500330E+03</pdfrwt>
<totfact> 0.67522742E+03</totfact>
</mgrwt>
</event>
<event>
 5    1  0.3282316E-002  0.1250132E+03  0.7818608E-02  0.1235049E+00
          4   -1    0    0  501    0  0.00000000000E+00  0.00000000000E+00  0.14169280980E+03  0.14169850123E+03  0.12700000000E+01 0.  1.
         -4   -1    0    0    0  501 -0.00000000000E+00 -0.00000000000E+00 -0.27553405199E+02  0.27582658284E+02  0.12700000000E+01 0.  1.
         25    2    1    2    0    0  0.00000000000E+00  0.00000000000E+00  0.11413940460E+03  0.16928115951E+03  0.12501322843E+03 0.  0.
    9000005    1    3    3    0    0 -0.20441138526E+01 -0.38282858283E+02  0.12390716038E+03  0.12970636081E+03  0.10000000000E+01 0.  0.
    9000005    1    3    3    0    0  0.20441138526E+01  0.38282858283E+02 -0.97677557758E+01  0.39574798706E+02  0.10000000000E+01 0.  0.
<mgrwt>
<rscale>  0 0.12501323E+03</rscale>
<asrwt>0</asrwt>
<pdfrwt beam="1">  1        4 0.21801582E-01 0.12501323E+03</pdfrwt>
<pdfrwt beam="2">  1       -4 0.42416734E-02 0.12501323E+03</pdfrwt>
<totfact> 0.95554309E+03</totfact>
</mgrwt>
</event>
<event>
 5    1  0.3282316E-002  0.1250005E+03  0.7818608E-02  0.1235068E+00
          4   -1    0    0  501    0  0.00000000000E+00  0.00000000000E+00  0.14809670538E+02  0.14864025075E+02  0.12700000000E+01 0. -1.
         -4   -1    0    0    0  501 -0.00000000000E+00 -0.00000000000E+00 -0.26322666435E+03  0.26322972804E+03  0.12700000000E+01 0. -1.
         25    2    1    2    0    0  0.00000000000E+00  0.00000000000E+00 -0.24841699381E+03  0.27809375311E+03  0.12500053083E+03 0.  0.
    9000005    1    3    3    0    0  0.52948291037E+02 -0.22089276081E+02 -0.69089430670E+02  0.89809838391E+02  0.10000000000E+01 0.  0.
    9000005    1    3    3    0    0 -0.52948291037E+02  0.22089276081E+02 -0.17932756314E+03  0.18828391472E+03  0.10000000000E+01 0.  0.
<mgrwt>
<rscale>  0 0.12500053E+03</rscale>
<asrwt>0</asrwt>
<pdfrwt beam="1">  1        4 0.22828278E-02 0.12500053E+03</pdfrwt>
<pdfrwt beam="2">  1       -4 0.40500823E-01 0.12500053E+03</pdfrwt>
<totfact> 0.78430616E+03</totfact>
</mgrwt>
</event>
<event>
 5    1  0.3282316E-002  0.1250019E+03  0.7818608E-02  0.1235066E+00
         -4   -1    0    0    0  501 -0.00000000000E+00  0.00000000000E+00  0.12179630582E+03  0.12180292694E+03  0.12700000000E+01 0. -1.
          4   -1    0    0  501    0  0.00000000000E+00 -0.00000000000E+00 -0.32052903454E+02  0.32078053555E+02  0.12700000000E+01 0. -1.
         25    2    1    2    0    0  0.00000000000E+00  0.00000000000E+00  0.89743402368E+02  0.15388098050E+03  0.12500191155E+03 0.  0.
    9000005    1    3    3    0    0  0.15403383567E+02  0.26024187652E+02 -0.22451596685E+02  0.37677536570E+02  0.10000000000E+01 0.  0.
    9000005    1    3    3    0    0 -0.15403383567E+02 -0.26024187652E+02  0.11219499905E+03  0.11620344393E+03  0.10000000000E+01 0.  0.
<mgrwt>
<rscale>  0 0.12500191E+03</rscale>
<asrwt>0</asrwt>
<pdfrwt beam="2">  1        4 0.49336599E-02 0.12500191E+03</pdfrwt>
<pdfrwt beam="1">  1       -4 0.18740337E-01 0.12500191E+03</pdfrwt>
<totfact> 0.98531389E+03</totfact>
</mgrwt>
</event>
<event>
 5    1  0.3282316E-002  0.1250012E+03  0.7818608E-02  0.1235067E+00
         -4   -1    0    0    0  501 -0.00000000000E+00  0.00000000000E+00  0.18688315580E+03  0.18688747102E+03  0.12700000000E+01 0.  1.
          4   -1    0    0  501    0  0.00000000000E+00 -0.00000000000E+00 -0.20878633478E+02  0.20917223427E+02  0.12700000000E+01 0.  1.
         25    2    1    2    0    0  0.00000000000E+00  0.00000000000E+00  0.16600452233E+03  0.20780469444E+03  0.12500115840E+03 0.  0.
    9000005    1    3    3    0    0 -0.13085502164E+02  0.28011694274E+01  0.18448146422E+03  0.18496888268E+03  0.10000000000E+01 0.  0.
    9000005    1    3    3    0    0  0.13085502164E+02 -0.28011694274E+01 -0.18476941898E+02  0.22835811765E+02  0.10000000000E+01 0.  0.
<mgrwt>
<rscale>  0 0.12500116E+03</rscale>
<asrwt>0</asrwt>
<pdfrwt beam="2">  1        4 0.32153977E-02 0.12500116E+03</pdfrwt>
<pdfrwt beam="1">  1       -4 0.28754556E-01 0.12500116E+03</pdfrwt>
<totfact> 0.88833360E+03</totfact>
</mgrwt>
</event>
<event>
 5    1  0.3282316E-002  0.1250028E+03  0.7818608E-02  0.1235065E+00
          4   -1    0    0  501    0  0.00000000000E+00  0.00000000000E+00  0.87884765637E+02  0.87893941378E+02  0.12700000000E+01 0.  1.
         -4   -1    0    0    0  501 -0.00000000000E+00 -0.00000000000E+00 -0.44428844288E+02  0.44446992077E+02  0.12700000000E+01 0.  1.
         25    2    1    2    0    0  0.00000000000E+00  0.00000000000E+00  0.43455921349E+02  0.13234093346E+03  0.12500282224E+03 0.  0.
    9000005    1    3    3    0    0 -0.46978249182E+02 -0.13119998930E+02  0.63089764132E+02  0.79752169917E+02  0.10000000000E+01 0.  0.
    9000005    1    3    3    0    0  0.46978249182E+02  0.13119998930E+02 -0.19633842783E+02  0.52588763539E+02  0.10000000000E+01 0.  0.
<mgrwt>
<rscale>  0 0.12500282E+03</rscale>
<asrwt>0</asrwt>
<pdfrwt beam="1">  1        4 0.13522835E-01 0.12500282E+03</pdfrwt>
<pdfrwt beam="2">  1       -4 0.68373086E-02 0.12500282E+03</pdfrwt>
<totfact> 0.10293771E+04</totfact>
</mgrwt>
</event>
<event>
 5    1  0.3282316E-002  0.1249994E+03  0.7818608E-02  0.1235070E+00
          4   -1    0    0  501    0  0.00000000000E+00  0.00000000000E+00  0.85573046306E+02  0.85582469900E+02  0.12700000000E+01 0.  1.
         -4   -1    0    0    0  501 -0.00000000000E+00 -0.00000000000E+00 -0.45626903738E+02  0.45644575195E+02  0.12700000000E+01 0.  1.
         25    2    1    2    0    0  0.00000000000E+00  0.00000000000E+00  0.39946142568E+02  0.13122704509E+03  0.12499937223E+03 0.  0.
    9000005    1    3    3    0    0  0.29147751361E+02  0.52885889510E+02  0.36858630550E+02  0.70753567858E+02  0.10000000000E+01 0.  0.
    9000005    1    3    3    0    0 -0.29147751361E+02 -0.52885889510E+02  0.30875120180E+01  0.60473477236E+02  0.10000000000E+01 0.  0.
<mgrwt>
<rscale>  0 0.12499937E+03</rscale>
<asrwt>0</asrwt>
<pdfrwt beam="1">  1        4 0.13167168E-01 0.12499937E+03</pdfrwt>
<pdfrwt beam="2">  1       -4 0.70216080E-02 0.12499937E+03</pdfrwt>
<totfact> 0.10318370E+04</totfact>
</mgrwt>
</event>
<event>
 5    1  0.3282316E-002  0.1250006E+03  0.7818608E-02  0.1235068E+00
         -4   -1    0    0    0  501 -0.00000000000E+00  0.00000000000E+00  0.76708893193E+02  0.76719405595E+02  0.12700000000E+01 0. -1.
          4   -1    0    0  501    0  0.00000000000E+00 -0.00000000000E+00 -0.50901585866E+02  0.50917426719E+02  0.12700000000E+01 0. -1.
         25    2    1    2    0    0  0.00000000000E+00  0.00000000000E+00  0.25807307327E+02  0.12763683231E+03  0.12500057541E+03 0.  0.
    9000005    1    3    3    0    0  0.49370708765E+02  0.37721761142E+02  0.19744789909E+02  0.65201647803E+02  0.10000000000E+01 0.  0.
    9000005    1    3    3    0    0 -0.49370708765E+02 -0.37721761142E+02  0.60625174177E+01  0.62435184512E+02  0.10000000000E+01 0.  0.
<mgrwt>
<rscale>  0 0.12500058E+03</rscale>
<asrwt>0</asrwt>
<pdfrwt beam="2">  1        4 0.78330404E-02 0.12500058E+03</pdfrwt>
<pdfrwt beam="1">  1       -4 0.11803395E-01 0.12500058E+03</pdfrwt>
<totfact> 0.10395203E+04</totfact>
</mgrwt>
</event>
<event>
 5    1  0.3282316E-002  0.1250044E+03  0.7818608E-02  0.1235062E+00
          4   -1    0    0  501    0  0.00000000000E+00  0.00000000000E+00  0.15991470226E+02  0.16041820969E+02  0.12700000000E+01 0. -1.
         -4   -1    0    0    0  501 -0.00000000000E+00 -0.00000000000E+00 -0.24385211746E+03  0.24385542457E+03  0.12700000000E+01 0. -1.
         25    2    1    2    0    0  0.00000000000E+00  0.00000000000E+00 -0.22786064723E+03  0.25989724553E+03  0.12500441463E+03 0.  0.
    9000005    1    3    3    0    0  0.22375324767E+02 -0.51807237510E+02 -0.16975266987E+03  0.17888994926E+03  0.10000000000E+01 0.  0.
    9000005    1    3    3    0    0 -0.22375324767E+02  0.51807237510E+02 -0.58107977363E+02  0.81007296277E+02  0.10000000000E+01 0.  0.
<mgrwt>
<rscale>  0 0.12500441E+03</rscale>
<asrwt>0</asrwt>
<pdfrwt beam="1">  1        4 0.24643539E-02 0.12500441E+03</pdfrwt>
<pdfrwt beam="2">  1       -4 0.37519835E-01 0.12500441E+03</pdfrwt>
<totfact> 0.80912533E+03</totfact>
</mgrwt>
</event>
<event>
 5    1  0.3282316E-002  0.1249973E+03  0.7818608E-02  0.1235074E+00
         -4   -1    0    0    0  501 -0.00000000000E+00  0.00000000000E+00  0.94465644784E+02  0.94474181365E+02  0.12700000000E+01 0. -1.
          4   -1    0    0  501    0  0.00000000000E+00 -0.00000000000E+00 -0.41329050846E+02  0.41348559151E+02  0.12700000000E+01 0. -1.
         25    2    1    2    0    0  0.00000000000E+00  0.00000000000E+00  0.53136593938E+02  0.13582274052E+03  0.12499727687E+03 0.  0.
    9000005    1    3    3    0    0  0.17586827625E+02  0.28588200433E+02 -0.30708271269E+02  0.45503622210E+02  0.10000000000E+01 0.  0.
    9000005    1    3    3    0    0 -0.17586827625E+02 -0.28588200433E+02  0.83844865207E+02  0.90319118305E+02  0.10000000000E+01 0.  0.
<mgrwt>
<rscale>  0 0.12499728E+03</rscale>
<asrwt>0</asrwt>
<pdfrwt beam="2">  1        4 0.63604729E-02 0.12499728E+03</pdfrwt>
<pdfrwt beam="1">  1       -4 0.14535333E-01 0.12499728E+03</pdfrwt>
<totfact> 0.10221386E+04</totfact>
</mgrwt>
</event>
<event>
 5    1  0.3282316E-002  0.1250045E+03  0.7818608E-02  0.1235062E+00
          4   -1    0    0  501    0  0.00000000000E+00  0.00000000000E+00  0.58402131838E+02  0.58415938777E+02  0.12700000000E+01 0. -1.
         -4   -1    0    0    0  501 -0.00000000000E+00 -0.00000000000E+00 -0.66862501645E+02  0.66874561877E+02  0.12700000000E+01 0. -1.
         25    2    1    2    0    0  0.00000000000E+00  0.00000000000E+00 -0.84603698072E+01  0.12529050065E+03  0.12500452671E+03 0.  0.
    9000005    1    3    3    0    0 -0.95897932709E+01  0.60766837495E+02 -0.15253538606E+02  0.63389613614E+02  0.10000000000E+01 0.  0.
    9000005    1    3    3    0    0  0.95897932709E+01 -0.60766837495E+02  0.67931687989E+01  0.61900887041E+02  0.10000000000E+01 0.  0.
<mgrwt>
<rscale>  0 0.12500453E+03</rscale>
<asrwt>0</asrwt>
<pdfrwt beam="1">  1        4 0.89869331E-02 0.12500453E+03</pdfrwt>
<pdfrwt beam="2">  1       -4 0.10288529E-01 0.12500453E+03</pdfrwt>
<totfact> 0.10445488E+04</totfact>
</mgrwt>
</event>
<event>
 5    1  0.3282316E-002  0.1250000E+03  0.7818608E-02  0.1235069E+00
         -4   -1    0    0    0  501 -0.00000000000E+00  0.00000000000E+00  0.26749284388E+03  0.26749585871E+03  0.12700000000E+01 0.  1.
          4   -1    0    0  501    0  0.00000000000E+00 -0.00000000000E+00 -0.14572471336E+02  0.14627707300E+02  0.12700000000E+01 0.  1.
         25    2    1    2    0    0  0.00000000000E+00  0.00000000000E+00  0.25292037254E+03  0.28212356601E+03  0.12499996660E+03 0.  0.
    9000005    1    3    3    0    0  0.32930715504E+02 -0.25409121866E+02  0.23172380785E+03  0.23542934953E+03  0.10000000000E+01 0.  0.
    9000005    1    3    3    0    0 -0.32930715504E+02  0.25409121866E+02  0.21196564697E+02  0.46694216479E+02  0.10000000000E+01 0.  0.
<mgrwt>
<rscale>  0 0.12499997E+03</rscale>
<asrwt>0</asrwt>
<pdfrwt beam="2">  1        4 0.22463998E-02 0.12499997E+03</pdfrwt>
<pdfrwt beam="1">  1       -4 0.41157221E-01 0.12499997E+03</pdfrwt>
<totfact> 0.77897437E+03</totfact>
</mgrwt>
</event>
<event>
 5    1  0.3282316E-002  0.1249975E+03  0.7818608E-02  0.1235073E+00
         -4   -1    0    0    0  501 -0.00000000000E+00  0.00000000000E+00  0.31852103593E+03  0.31852356778E+03  0.12700000000E+01 0. -1.
          4   -1    0    0  501    0  0.00000000000E+00 -0.00000000000E+00 -0.12227754147E+02  0.12293529659E+02  0.12700000000E+01 0. -1.
         25    2    1    2    0    0  0.00000000000E+00  0.00000000000E+00  0.30629328178E+03  0.33081709743E+03  0.12499750994E+03 0.  0.
    9000005    1    3    3    0    0  0.17691686806E+02  0.57051297867E+02  0.20174943962E+03  0.21040837140E+03  0.10000000000E+01 0.  0.
    9000005    1    3    3    0    0 -0.17691686806E+02 -0.57051297867E+02  0.10454384216E+03  0.12040872603E+03  0.10000000000E+01 0.  0.
<mgrwt>
<rscale>  0 0.12499751E+03</rscale>
<asrwt>0</asrwt>
<pdfrwt beam="2">  1        4 0.18864476E-02 0.12499751E+03</pdfrwt>
<pdfrwt beam="1">  1       -4 0.49008485E-01 0.12499751E+03</pdfrwt>
<totfact> 0.71891748E+03</totfact>
</mgrwt>
</event>
<event>
 5    1  0.3282316E-002  0.1250038E+03  0.7818608E-02  0.1235063E+00
          4   -1    0    0  501    0  0.00000000000E+00  0.00000000000E+00  0.81130972480E+03  0.81131071881E+03  0.12700000000E+01 0. -1.
         -4   -1    0    0    0  501 -0.00000000000E+00 -0.00000000000E+00 -0.47302774479E+01  0.48977979475E+01  0.12700000000E+01 0. -1.
         25    2    1    2    0    0  0.00000000000E+00  0.00000000000E+00  0.80657944735E+03  0.81620851676E+03  0.12500375169E+03 0.  0.
    9000005    1    3    3    0    0 -0.12880865033E+02 -0.34426548015E+02  0.73284452065E+02  0.81992163081E+02  0.10000000000E+01 0.  0.
    9000005    1    3    3    0    0  0.12880865033E+02  0.34426548015E+02  0.73329499529E+03  0.73421635367E+03  0.10000000000E+01 0.  0.
<mgrwt>
<rscale>  0 0.12500375E+03</rscale>
<asrwt>0</asrwt>
<pdfrwt beam="1">  1        4 0.12482973E+00 0.12500375E+03</pdfrwt>
<pdfrwt beam="2">  1       -4 0.74069834E-03 0.12500375E+03</pdfrwt>
<totfact> 0.37548256E+03</totfact>
</mgrwt>
</event>
<event>
 5    1  0.3282316E-002  0.1249970E+03  0.7818608E-02  0.1235074E+00
         -4   -1    0    0    0  501 -0.00000000000E+00  0.00000000000E+00  0.71927521501E+02  0.71938732608E+02  0.12700000000E+01 0.  1.
          4   -1    0    0  501    0  0.00000000000E+00 -0.00000000000E+00 -0.54282634293E+02  0.54297488762E+02  0.12700000000E+01 0.  1.
         25    2    1    2    0    0  0.00000000000E+00  0.00000000000E+00  0.17644887208E+02  0.12623622137E+03  0.12499696613E+03 0.  0.
    9000005    1    3    3    0    0 -0.37940817463E+02 -0.17113197633E+02  0.55896727156E+02  0.69698000471E+02  0.10000000000E+01 0.  0.
    9000005    1    3    3    0    0  0.37940817463E+02  0.17113197633E+02 -0.38251839948E+02  0.56538220899E+02  0.10000000000E+01 0.  0.
<mgrwt>
<rscale>  0 0.12499697E+03</rscale>
<asrwt>0</asrwt>
<pdfrwt beam="2">  1        4 0.83531795E-02 0.12499697E+03</pdfrwt>
<pdfrwt beam="1">  1       -4 0.11067778E-01 0.12499697E+03</pdfrwt>
<totfact> 0.10426501E+04</totfact>
</mgrwt>
</event>
<event>
 5    1  0.3282316E-002  0.1249965E+03  0.7818608E-02  0.1235075E+00
          4   -1    0    0  501    0  0.00000000000E+00  0.00000000000E+00  0.76749085875E+02  0.76759592772E+02  0.12700000000E+01 0. -1.
         -4   -1    0    0    0  501 -0.00000000000E+00 -0.00000000000E+00 -0.50871613233E+02  0.50887463416E+02  0.12700000000E+01 0. -1.
         25    2    1    2    0    0  0.00000000000E+00  0.00000000000E+00  0.25877472642E+02  0.12764705619E+03  0.12499650940E+03 0.  0.
    9000005    1    3    3    0    0 -0.91692331603E+01 -0.39601619320E+01  0.75933709019E+02  0.76594294074E+02  0.10000000000E+01 0.  0.
    9000005    1    3    3    0    0  0.91692331603E+01  0.39601619320E+01 -0.50056236377E+02  0.51052762114E+02  0.10000000000E+01 0.  0.
<mgrwt>
<rscale>  0 0.12499651E+03</rscale>
<asrwt>0</asrwt>
<pdfrwt beam="1">  1        4 0.11809579E-01 0.12499651E+03</pdfrwt>
<pdfrwt beam="2">  1       -4 0.78284295E-02 0.12499651E+03</pdfrwt>
<totfact> 0.10395936E+04</totfact>
</mgrwt>
</event>
<event>
 5    1  0.3282316E-002  0.1249997E+03  0.7818608E-02  0.1235070E+00
         -4   -1    0    0    0  501 -0.00000000000E+00  0.00000000000E+00  0.73493162124E+01  0.74582403280E+01  0.12700000000E+01 0.  1.
          4   -1    0    0  501    0  0.00000000000E+00 -0.00000000000E+00 -0.52749012802E+03  0.52749165686E+03  0.12700000000E+01 0.  1.
         25    2    1    2    0    0  0.00000000000E+00  0.00000000000E+00 -0.52014081181E+03  0.53494989719E+03  0.12499971358E+03 0.  0.
    9000005    1    3    3    0    0 -0.26424287226E+02  0.53246995462E+02 -0.17755641299E+03  0.18724520094E+03  0.10000000000E+01 0.  0.
    9000005    1    3    3    0    0  0.26424287226E+02 -0.53246995462E+02 -0.34258439882E+03  0.34770469625E+03  0.10000000000E+01 0.  0.
<mgrwt>
<rscale>  0 0.12499971E+03</rscale>
<asrwt>0</asrwt>
<pdfrwt beam="2">  1        4 0.81160794E-01 0.12499971E+03</pdfrwt>
<pdfrwt beam="1">  1       -4 0.11391608E-02 0.12499971E+03</pdfrwt>
<totfact> 0.53251463E+03</totfact>
</mgrwt>
</event>
<event>
 5    1  0.3282316E-002  0.1249959E+03  0.7818608E-02  0.1235076E+00
         -4   -1    0    0    0  501 -0.00000000000E+00  0.00000000000E+00  0.10339392210E+02  0.10417098026E+02  0.12700000000E+01 0. -1.
          4   -1    0    0  501    0  0.00000000000E+00 -0.00000000000E+00 -0.37628462883E+03  0.37628677202E+03  0.12700000000E+01 0. -1.
         25    2    1    2    0    0  0.00000000000E+00  0.00000000000E+00 -0.36594523662E+03  0.38670387004E+03  0.12499586753E+03 0.  0.
    9000005    1    3    3    0    0  0.14949617451E+02 -0.58441791988E+02 -0.13250989225E+03  0.14559809634E+03  0.10000000000E+01 0.  0.
    9000005    1    3    3    0    0 -0.14949617451E+02  0.58441791988E+02 -0.23343534437E+03  0.24110577371E+03  0.10000000000E+01 0.  0.
<mgrwt>
<rscale>  0 0.12499587E+03</rscale>
<asrwt>0</asrwt>
<pdfrwt beam="2">  1        4 0.57896075E-01 0.12499587E+03</pdfrwt>
<pdfrwt beam="1">  1       -4 0.15968182E-02 0.12499587E+03</pdfrwt>
<totfact> 0.65872847E+03</totfact>
</mgrwt>
</event>
<event>
 5    1  0.3282316E-002  0.1250009E+03  0.7818608E-02  0.1235068E+00
         -4   -1    0    0    0  501 -0.00000000000E+00  0.00000000000E+00  0.13704701420E+02  0.13763420397E+02  0.12700000000E+01 0. -1.
          4   -1    0    0  501    0  0.00000000000E+00 -0.00000000000E+00 -0.28436475121E+03  0.28436758716E+03  0.12700000000E+01 0. -1.
         25    2    1    2    0    0  0.00000000000E+00  0.00000000000E+00 -0.27066004979E+03  0.29813100756E+03  0.12500094047E+03 0.  0.
    9000005    1    3    3    0    0 -0.16535125096E+02 -0.59910349664E+02 -0.15090564495E+03  0.16320592525E+03  0.10000000000E+01 0.  0.
    9000005    1    3    3    0    0  0.16535125096E+02  0.59910349664E+02 -0.11975440483E+03  0.13492508231E+03  0.10000000000E+01 0.  0.
<mgrwt>
<rscale>  0 0.12500094E+03</rscale>
<asrwt>0</asrwt>
<pdfrwt beam="2">  1        4 0.43753154E-01 0.12500094E+03</pdfrwt>
<pdfrwt beam="1">  1       -4 0.21131508E-02 0.12500094E+03</pdfrwt>
<totfact> 0.75832300E+03</totfact>
</mgrwt>
</event>
<event>
 5    1  0.3282316E-002  0.1250034E+03  0.7818608E-02  0.1235064E+00
         -4   -1    0    0    0  501 -0.00000000000E+00  0.00000000000E+00  0.53357775974E+01  0.54848356920E+01  0.12700000000E+01 0.  1.
          4   -1    0    0  501    0  0.00000000000E+00 -0.00000000000E+00 -0.72189109763E+03  0.72189221477E+03  0.12700000000E+01 0.  1.
         25    2    1    2    0    0  0.00000000000E+00  0.00000000000E+00 -0.71655532003E+03  0.72737705046E+03  0.12500338741E+03 0.  0.
    9000005    1    3    3    0    0  0.35580252533E+02 -0.13874868531E+02 -0.64611980759E+03  0.64724823067E+03  0.10000000000E+01 0.  0.
    9000005    1    3    3    0    0 -0.35580252533E+02  0.13874868531E+02 -0.70435512444E+02  0.80128819786E+02  0.10000000000E+01 0.  0.
<mgrwt>
<rscale>  0 0.12500339E+03</rscale>
<asrwt>0</asrwt>
<pdfrwt beam="2">  1        4 0.11107164E+00 0.12500339E+03</pdfrwt>
<pdfrwt beam="1">  1       -4 0.83244138E-03 0.12500339E+03</pdfrwt>
<totfact> 0.41677197E+03</totfact>
</mgrwt>
</event>
<event>
 5    1  0.3282316E-002  0.1249775E+03  0.7818608E-02  0.1235105E+00
         -4   -1    0    0    0  501 -0.00000000000E+00  0.00000000000E+00  0.17487993283E+03  0.17488454422E+03  0.12700000000E+01 0.  1.
          4   -1    0    0  501    0  0.00000000000E+00 -0.00000000000E+00 -0.22305731917E+02  0.22341857047E+02  0.12700000000E+01 0.  1.
         25    2    1    2    0    0  0.00000000000E+00  0.00000000000E+00  0.15257420091E+03  0.19722640126E+03  0.12497746426E+03 0.  0.
    9000005    1    3    3    0    0  0.42978777659E+02 -0.36229793348E+02  0.33240409894E+02  0.65312312048E+02  0.10000000000E+01 0.  0.
    9000005    1    3    3    0    0 -0.42978777659E+02  0.36229793348E+02  0.11933379102E+03  0.13191408922E+03  0.10000000000E+01 0.  0.
<mgrwt>
<rscale>  0 0.12497746E+03</rscale>
<asrwt>0</asrwt>
<pdfrwt beam="2">  1        4 0.34347845E-02 0.12497746E+03</pdfrwt>
<pdfrwt beam="1">  1       -4 0.26907740E-01 0.12497746E+03</pdfrwt>
<totfact> 0.90650644E+03</totfact>
</mgrwt>
</event>
<event>
 5    1  0.3282316E-002  0.1249997E+03  0.7818608E-02  0.1235070E+00
         -4   -1    0    0    0  501 -0.00000000000E+00  0.00000000000E+00  0.35546056439E+02  0.35568736671E+02  0.12700000000E+01 0.  1.
          4   -1    0    0  501    0  0.00000000000E+00 -0.00000000000E+00 -0.10983077389E+03  0.10983811630E+03  0.12700000000E+01 0.  1.
         25    2    1    2    0    0  0.00000000000E+00  0.00000000000E+00 -0.74284717447E+02  0.14540685297E+03  0.12499973458E+03 0.  0.
    9000005    1    3    3    0    0  0.68598454810E+01  0.28945082526E+02  0.26787685494E+02  0.40043168912E+02  0.10000000000E+01 0.  0.
    9000005    1    3    3    0    0 -0.68598454810E+01 -0.28945082526E+02 -0.10107240294E+03  0.10536368406E+03  0.10000000000E+01 0.  0.
<mgrwt>
<rscale>  0 0.12499973E+03</rscale>
<asrwt>0</asrwt>
<pdfrwt beam="2">  1        4 0.16899351E-01 0.12499973E+03</pdfrwt>
<pdfrwt beam="1">  1       -4 0.54709336E-02 0.12499973E+03</pdfrwt>
<totfact> 0.10022789E+04</totfact>
</mgrwt>
</event>
<event>
 5    1  0.3282316E-002  0.1249994E+03  0.7818608E-02  0.1235070E+00
         -4   -1    0    0    0  501 -0.00000000000E+00  0.00000000000E+00  0.13578360295E+02  0.13637623265E+02  0.12700000000E+01 0. -1.
          4   -1    0    0  501    0  0.00000000000E+00 -0.00000000000E+00 -0.28699215316E+03  0.28699496315E+03  0.12700000000E+01 0. -1.
         25    2    1    2    0    0  0.00000000000E+00  0.00000000000E+00 -0.27341379287E+03  0.30063258642E+03  0.12499939955E+03 0.  0.
    9000005    1    3    3    0    0 -0.36890260664E+02 -0.22572246042E+02 -0.28216680032E+02  0.51648607487E+02  0.10000000000E+01 0.  0.
    9000005    1    3    3    0    0  0.36890260664E+02  0.22572246042E+02 -0.24519711283E+03  0.24898397893E+03  0.10000000000E+01 0.  0.
<mgrwt>
<rscale>  0 0.12499940E+03</rscale>
<asrwt>0</asrwt>
<pdfrwt beam="2">  1        4 0.44157409E-01 0.12499940E+03</pdfrwt>
<pdfrwt beam="1">  1       -4 0.20937536E-02 0.12499940E+03</pdfrwt>
<totfact> 0.75520565E+03</totfact>
</mgrwt>
</event>
<event>
 5    1  0.3282316E-002  0.1249943E+03  0.7818608E-02  0.1235078E+00
          4   -1    0    0  501    0  0.00000000000E+00  0.00000000000E+00  0.42108600335E+01  0.43982089788E+01  0.12700000000E+01 0. -1.
         -4   -1    0    0    0  501 -0.00000000000E+00 -0.00000000000E+00 -0.90720330154E+03  0.90720419048E+03  0.12700000000E+01 0. -1.
         25    2    1    2    0    0  0.00000000000E+00  0.00000000000E+00 -0.90299244150E+03  0.91160239946E+03  0.12499434100E+03 0.  0.
    9000005    1    3    3    0    0 -0.20530327242E+02  0.58390952021E+02 -0.51419131002E+03  0.51790414259E+03  0.10000000000E+01 0.  0.
    9000005    1    3    3    0    0  0.20530327242E+02 -0.58390952021E+02 -0.38880113149E+03  0.39369825687E+03  0.10000000000E+01 0.  0.
<mgrwt>
<rscale>  0 0.12499434E+03</rscale>
<asrwt>0</asrwt>
<pdfrwt beam="1">  1        4 0.66230518E-03 0.12499434E+03</pdfrwt>
<pdfrwt beam="2">  1       -4 0.13958407E+00 0.12499434E+03</pdfrwt>
<totfact> 0.33723732E+03</totfact>
</mgrwt>
</event>
<event>
 5    1  0.3282316E-002  0.1249987E+03  0.7818608E-02  0.1235071E+00
          4   -1    0    0  501    0  0.00000000000E+00  0.00000000000E+00  0.55820356943E+02  0.55834802313E+02  0.12700000000E+01 0.  1.
         -4   -1    0    0    0  501 -0.00000000000E+00 -0.00000000000E+00 -0.69948262806E+02  0.69959791092E+02  0.12700000000E+01 0.  1.
         25    2    1    2    0    0  0.00000000000E+00  0.00000000000E+00 -0.14127905863E+02  0.12579459340E+03  0.12499872802E+03 0.  0.
    9000005    1    3    3    0    0 -0.32749413952E+02 -0.18309920773E+01 -0.60593726984E+02  0.68909189489E+02  0.10000000000E+01 0.  0.
    9000005    1    3    3    0    0  0.32749413952E+02  0.18309920773E+01  0.46465821121E+02  0.56885403916E+02  0.10000000000E+01 0.  0.
<mgrwt>
<rscale>  0 0.12499873E+03</rscale>
<asrwt>0</asrwt>
<pdfrwt beam="1">  1        4 0.85897453E-02 0.12499873E+03</pdfrwt>
<pdfrwt beam="2">  1       -4 0.10763269E-01 0.12499873E+03</pdfrwt>
<totfact> 0.10435764E+04</totfact>
</mgrwt>
</event>
<event>
 5    1  0.3282316E-002  0.1250004E+03  0.7818608E-02  0.1235069E+00
         -4   -1    0    0    0  501 -0.00000000000E+00  0.00000000000E+00  0.32776526876E+02  0.32801122146E+02  0.12700000000E+01 0. -1.
          4   -1    0    0  501    0  0.00000000000E+00 -0.00000000000E+00 -0.11910634686E+03  0.11911311751E+03  0.12700000000E+01 0. -1.
         25    2    1    2    0    0  0.00000000000E+00  0.00000000000E+00 -0.86329819987E+02  0.15191423966E+03  0.12500039356E+03 0.  0.
    9000005    1    3    3    0    0  0.17107562656E+02  0.56466557019E+02 -0.68193625637E+02  0.90180437674E+02  0.10000000000E+01 0.  0.
    9000005    1    3    3    0    0 -0.17107562656E+02 -0.56466557019E+02 -0.18136194349E+02  0.61733801981E+02  0.10000000000E+01 0.  0.
<mgrwt>
<rscale>  0 0.12500039E+03</rscale>
<asrwt>0</asrwt>
<pdfrwt beam="2">  1        4 0.18326466E-01 0.12500039E+03</pdfrwt>
<pdfrwt beam="1">  1       -4 0.50449554E-02 0.12500039E+03</pdfrwt>
<totfact> 0.98922607E+03</totfact>
</mgrwt>
</event>
<event>
 5    1  0.3282316E-002  0.1250005E+03  0.7818608E-02  0.1235069E+00
          4   -1    0    0  501    0  0.00000000000E+00  0.00000000000E+00  0.49478170577E+02  0.49494467000E+02  0.12700000000E+01 0.  1.
         -4   -1    0    0    0  501 -0.00000000000E+00 -0.00000000000E+00 -0.78915143652E+02  0.78925362195E+02  0.12700000000E+01 0.  1.
         25    2    1    2    0    0  0.00000000000E+00  0.00000000000E+00 -0.29436973075E+02  0.12841982920E+03  0.12500046859E+03 0.  0.
    9000005    1    3    3    0    0  0.63290350094E+00  0.57127155277E+02 -0.40736474075E+02  0.70173875174E+02  0.10000000000E+01 0.  0.
    9000005    1    3    3    0    0 -0.63290350094E+00 -0.57127155277E+02  0.11299501000E+02  0.58245954021E+02  0.10000000000E+01 0.  0.
<mgrwt>
<rscale>  0 0.12500047E+03</rscale>
<asrwt>0</asrwt>
<pdfrwt beam="1">  1        4 0.76140658E-02 0.12500047E+03</pdfrwt>
<pdfrwt beam="2">  1       -4 0.12142831E-01 0.12500047E+03</pdfrwt>
<totfact> 0.10378321E+04</totfact>
</mgrwt>
</event>
<event>
 5    1  0.3282316E-002  0.1250005E+03  0.7818608E-02  0.1235069E+00
         -4   -1    0    0    0  501 -0.00000000000E+00  0.00000000000E+00  0.73955960613E+02  0.73966864272E+02  0.12700000000E+01 0. -1.
          4   -1    0    0  501    0  0.00000000000E+00 -0.00000000000E+00 -0.52796561756E+02  0.52811834216E+02  0.12700000000E+01 0. -1.
         25    2    1    2    0    0  0.00000000000E+00  0.00000000000E+00  0.21159398857E+02  0.12677869849E+03  0.12500047292E+03 0.  0.
    9000005    1    3    3    0    0 -0.10482859245E+01  0.59470002516E+02  0.30022686284E+02  0.66634388977E+02  0.10000000000E+01 0.  0.
    9000005    1    3    3    0    0  0.10482859245E+01 -0.59470002516E+02 -0.88632874272E+01  0.60144309512E+02  0.10000000000E+01 0.  0.
<mgrwt>
<rscale>  0 0.12500047E+03</rscale>
<asrwt>0</asrwt>
<pdfrwt beam="2">  1        4 0.81245615E-02 0.12500047E+03</pdfrwt>
<pdfrwt beam="1">  1       -4 0.11379854E-01 0.12500047E+03</pdfrwt>
<totfact> 0.10413846E+04</totfact>
</mgrwt>
</event>
<event>
 5    1  0.3282316E-002  0.1249966E+03  0.7818608E-02  0.1235075E+00
          4   -1    0    0  501    0  0.00000000000E+00  0.00000000000E+00  0.75322679986E+02  0.75333385827E+02  0.12700000000E+01 0. -1.
         -4   -1    0    0    0  501 -0.00000000000E+00 -0.00000000000E+00 -0.51835217478E+02  0.51850773099E+02  0.12700000000E+01 0. -1.
         25    2    1    2    0    0  0.00000000000E+00  0.00000000000E+00  0.23487462508E+02  0.12718415893E+03  0.12499659750E+03 0.  0.
    9000005    1    3    3    0    0  0.32596154637E+02 -0.32601721266E+02 -0.31180531096E+02  0.55665133127E+02  0.10000000000E+01 0.  0.
    9000005    1    3    3    0    0 -0.32596154637E+02  0.32601721266E+02  0.54667993603E+02  0.71519025799E+02  0.10000000000E+01 0.  0.
<mgrwt>
<rscale>  0 0.12499660E+03</rscale>
<asrwt>0</asrwt>
<pdfrwt beam="1">  1        4 0.11590125E-01 0.12499660E+03</pdfrwt>
<pdfrwt beam="2">  1       -4 0.79766690E-02 0.12499660E+03</pdfrwt>
<totfact> 0.10405946E+04</totfact>
</mgrwt>
</event>
<event>
 5    1  0.3282316E-002  0.1250080E+03  0.7818608E-02  0.1235057E+00
         -4   -1    0    0    0  501 -0.00000000000E+00  0.00000000000E+00  0.15014875203E+04  0.15014880574E+04  0.12700000000E+01 0.  1.
          4   -1    0    0  501    0  0.00000000000E+00 -0.00000000000E+00 -0.24463797327E+01  0.27563878168E+01  0.12700000000E+01 0.  1.
         25    2    1    2    0    0  0.00000000000E+00  0.00000000000E+00  0.14990411406E+04  0.15042444453E+04  0.12500803916E+03 0.  0.
    9000005    1    3    3    0    0  0.17014564403E+02  0.57657528407E+02  0.54394448890E+03  0.54725724572E+03  0.10000000000E+01 0.  0.
    9000005    1    3    3    0    0 -0.17014564403E+02 -0.57657528407E+02  0.95509665170E+03  0.95698719953E+03  0.10000000000E+01 0.  0.
<mgrwt>
<rscale>  0 0.12500804E+03</rscale>
<asrwt>0</asrwt>
<pdfrwt beam="2">  1        4 0.40025432E-03 0.12500804E+03</pdfrwt>
<pdfrwt beam="1">  1       -4 0.23102190E+00 0.12500804E+03</pdfrwt>
<totfact> 0.17844014E+03</totfact>
</mgrwt>
</event>
<event>
 5    1  0.3282316E-002  0.1250010E+03  0.7818608E-02  0.1235068E+00
          4   -1    0    0  501    0  0.00000000000E+00  0.00000000000E+00  0.32995356715E+02  0.33019788987E+02  0.12700000000E+01 0.  1.
         -4   -1    0    0    0  501 -0.00000000000E+00 -0.00000000000E+00 -0.11831807976E+03  0.11832489551E+03  0.12700000000E+01 0.  1.
         25    2    1    2    0    0  0.00000000000E+00  0.00000000000E+00 -0.85322723045E+02  0.15134468450E+03  0.12500098583E+03 0.  0.
    9000005    1    3    3    0    0 -0.66481101773E+01  0.40869865857E+01  0.32409020818E+02  0.33350344206E+02  0.10000000000E+01 0.  0.
    9000005    1    3    3    0    0  0.66481101773E+01 -0.40869865857E+01 -0.11773174386E+03  0.11799434029E+03  0.10000000000E+01 0.  0.
<mgrwt>
<rscale>  0 0.12500099E+03</rscale>
<asrwt>0</asrwt>
<pdfrwt beam="1">  1        4 0.50786125E-02 0.12500099E+03</pdfrwt>
<pdfrwt beam="2">  1       -4 0.18205185E-01 0.12500099E+03</pdfrwt>
<totfact> 0.99034131E+03</totfact>
</mgrwt>
</event>
<event>
 5    1  0.3282316E-002  0.1250028E+03  0.7818608E-02  0.1235065E+00
          4   -1    0    0  501    0  0.00000000000E+00  0.00000000000E+00  0.99423607654E+02  0.99431718576E+02  0.12700000000E+01 0. -1.
         -4   -1    0    0    0  501 -0.00000000000E+00 -0.00000000000E+00 -0.39270750944E+02  0.39291281217E+02  0.12700000000E+01 0. -1.
         25    2    1    2    0    0  0.00000000000E+00  0.00000000000E+00  0.60152856710E+02  0.13872299979E+03  0.12500281797E+03 0.  0.
    9000005    1    3    3    0    0 -0.53521727915E+02  0.79171938212E+01 -0.46320498984E+01  0.54311262213E+02  0.10000000000E+01 0.  0.
    9000005    1    3    3    0    0  0.53521727915E+02 -0.79171938212E+01  0.64784906608E+02  0.84411737580E+02  0.10000000000E+01 0.  0.
<mgrwt>
<rscale>  0 0.12500282E+03</rscale>
<asrwt>0</asrwt>
<pdfrwt beam="1">  1        4 0.15298143E-01 0.12500282E+03</pdfrwt>
<pdfrwt beam="2">  1       -4 0.60438573E-02 0.12500282E+03</pdfrwt>
<totfact> 0.10159476E+04</totfact>
</mgrwt>
</event>
<event>
 5    1  0.3282316E-002  0.1250039E+03  0.7818608E-02  0.1235063E+00
          4   -1    0    0  501    0  0.00000000000E+00  0.00000000000E+00  0.92449631541E+02  0.92458354258E+02  0.12700000000E+01 0.  1.
         -4   -1    0    0    0  501 -0.00000000000E+00 -0.00000000000E+00 -0.42235082598E+02  0.42254172600E+02  0.12700000000E+01 0.  1.
         25    2    1    2    0    0  0.00000000000E+00  0.00000000000E+00  0.50214548943E+02  0.13471252686E+03  0.12500385581E+03 0.  0.
    9000005    1    3    3    0    0 -0.19653342666E+02  0.87472695241E+01 -0.38124529936E+02  0.43786394975E+02  0.10000000000E+01 0.  0.
    9000005    1    3    3    0    0  0.19653342666E+02 -0.87472695241E+01  0.88339078879E+02  0.90926131883E+02  0.10000000000E+01 0.  0.
<mgrwt>
<rscale>  0 0.12500386E+03</rscale>
<asrwt>0</asrwt>
<pdfrwt beam="1">  1        4 0.14225160E-01 0.12500386E+03</pdfrwt>
<pdfrwt beam="2">  1       -4 0.64998444E-02 0.12500386E+03</pdfrwt>
<totfact> 0.10243243E+04</totfact>
</mgrwt>
</event>
<event>
 5    1  0.3282316E-002  0.1250003E+03  0.7818608E-02  0.1235069E+00
          4   -1    0    0  501    0  0.00000000000E+00  0.00000000000E+00  0.48513200712E+02  0.48529821176E+02  0.12700000000E+01 0.  1.
         -4   -1    0    0    0  501 -0.00000000000E+00 -0.00000000000E+00 -0.80484229504E+02  0.80494248855E+02  0.12700000000E+01 0.  1.
         25    2    1    2    0    0  0.00000000000E+00  0.00000000000E+00 -0.31971028791E+02  0.12902407003E+03  0.12500025586E+03 0.  0.
    9000005    1    3    3    0    0  0.28671878253E+02  0.48673016198E+02 -0.43568897199E+02  0.71346954465E+02  0.10000000000E+01 0.  0.
    9000005    1    3    3    0    0 -0.28671878253E+02 -0.48673016198E+02  0.11597868407E+02  0.57677115566E+02  0.10000000000E+01 0.  0.
<mgrwt>
<rscale>  0 0.12500026E+03</rscale>
<asrwt>0</asrwt>
<pdfrwt beam="1">  1        4 0.74656185E-02 0.12500026E+03</pdfrwt>
<pdfrwt beam="2">  1       -4 0.12384238E-01 0.12500026E+03</pdfrwt>
<totfact> 0.10365370E+04</totfact>
</mgrwt>
</event>
<event>
 5    1  0.3282316E-002  0.1250004E+03  0.7818608E-02  0.1235069E+00
         -4   -1    0    0    0  501 -0.00000000000E+00  0.00000000000E+00  0.65888774189E+02  0.65901012618E+02  0.12700000000E+01 0. -1.
          4   -1    0    0  501    0  0.00000000000E+00 -0.00000000000E+00 -0.59261382290E+02  0.59274989084E+02  0.12700000000E+01 0. -1.
         25    2    1    2    0    0  0.00000000000E+00  0.00000000000E+00  0.66273918995E+01  0.12517600170E+03  0.12500043631E+03 0.  0.
    9000005    1    3    3    0    0 -0.38465166394E+02 -0.37255282390E+02 -0.28945710567E+02  0.60880039848E+02  0.10000000000E+01 0.  0.
    9000005    1    3    3    0    0  0.38465166394E+02  0.37255282390E+02  0.35573102466E+02  0.64295961854E+02  0.10000000000E+01 0.  0.
<mgrwt>
<rscale>  0 0.12500044E+03</rscale>
<asrwt>0</asrwt>
<pdfrwt beam="2">  1        4 0.91191238E-02 0.12500044E+03</pdfrwt>
<pdfrwt beam="1">  1       -4 0.10138723E-01 0.12500044E+03</pdfrwt>
<totfact> 0.10448938E+04</totfact>
</mgrwt>
</event>
<event>
 5    1  0.3282316E-002  0.1249984E+03  0.7818608E-02  0.1235072E+00
         -4   -1    0    0    0  501 -0.00000000000E+00  0.00000000000E+00  0.28070039832E+02  0.28098755065E+02  0.12700000000E+01 0. -1.
          4   -1    0    0  501    0  0.00000000000E+00 -0.00000000000E+00 -0.13905458376E+03  0.13906038316E+03  0.12700000000E+01 0. -1.
         25    2    1    2    0    0  0.00000000000E+00  0.00000000000E+00 -0.11098454393E+03  0.16715913822E+03  0.12499843399E+03 0.  0.
    9000005    1    3    3    0    0 -0.30960545877E+02 -0.18188819826E+02  0.12902797328E+02  0.38168976232E+02  0.10000000000E+01 0.  0.
    9000005    1    3    3    0    0  0.30960545877E+02  0.18188819826E+02 -0.12388734125E+03  0.12899016199E+03  0.10000000000E+01 0.  0.
<mgrwt>
<rscale>  0 0.12499843E+03</rscale>
<asrwt>0</asrwt>
<pdfrwt beam="2">  1        4 0.21395667E-01 0.12499843E+03</pdfrwt>
<pdfrwt beam="1">  1       -4 0.43211227E-02 0.12499843E+03</pdfrwt>
<totfact> 0.95983417E+03</totfact>
</mgrwt>
</event>
<event>
 5    1  0.3282316E-002  0.1250014E+03  0.7818608E-02  0.1235067E+00
          4   -1    0    0  501    0  0.00000000000E+00  0.00000000000E+00  0.11602581345E+04  0.11602588295E+04  0.12700000000E+01 0.  1.
         -4   -1    0    0    0  501 -0.00000000000E+00 -0.00000000000E+00 -0.32462951320E+01  0.34858760856E+01  0.12700000000E+01 0.  1.
         25    2    1    2    0    0  0.00000000000E+00  0.00000000000E+00  0.11570118393E+04  0.11637447056E+04  0.12500137392E+03 0.  0.
    9000005    1    3    3    0    0  0.60088444256E+02 -0.16801760831E+02  0.61130987932E+03  0.61448652455E+03  0.10000000000E+01 0.  0.
    9000005    1    3    3    0    0 -0.60088444256E+02  0.16801760831E+02  0.54570196002E+03  0.54925818107E+03  0.10000000000E+01 0.  0.
<mgrwt>
<rscale>  0 0.12500137E+03</rscale>
<asrwt>0</asrwt>
<pdfrwt beam="1">  1        4 0.17851975E+00 0.12500137E+03</pdfrwt>
<pdfrwt beam="2">  1       -4 0.51791273E-03 0.12500137E+03</pdfrwt>
<totfact> 0.25681159E+03</totfact>
</mgrwt>
</event>
<event>
 5    1  0.3282316E-002  0.1250039E+03  0.7818608E-02  0.1235063E+00
          4   -1    0    0  501    0  0.00000000000E+00  0.00000000000E+00  0.44484594746E+01  0.46261962449E+01  0.12700000000E+01 0.  1.
         -4   -1    0    0    0  501 -0.00000000000E+00 -0.00000000000E+00 -0.86079018028E+03  0.86079111715E+03  0.12700000000E+01 0.  1.
         25    2    1    2    0    0  0.00000000000E+00  0.00000000000E+00 -0.85634172080E+03  0.86541731340E+03  0.12500393407E+03 0.  0.
    9000005    1    3    3    0    0  0.58892996418E+02  0.17729944971E+02 -0.35146471228E+03  0.35680692252E+03  0.10000000000E+01 0.  0.
    9000005    1    3    3    0    0 -0.58892996418E+02 -0.17729944971E+02 -0.50487700852E+03  0.50861039088E+03  0.10000000000E+01 0.  0.
<mgrwt>
<rscale>  0 0.12500393E+03</rscale>
<asrwt>0</asrwt>
<pdfrwt beam="1">  1        4 0.69812319E-03 0.12500393E+03</pdfrwt>
<pdfrwt beam="2">  1       -4 0.13244287E+00 0.12500393E+03</pdfrwt>
<totfact> 0.35501591E+03</totfact>
</mgrwt>
</event>
<event>
 5    1  0.3282316E-002  0.1250009E+03  0.7818608E-02  0.1235068E+00
          4   -1    0    0  501    0  0.00000000000E+00  0.00000000000E+00  0.34471501500E+03  0.34471735446E+03  0.12700000000E+01 0.  1.
         -4   -1    0    0    0  501 -0.00000000000E+00 -0.00000000000E+00 -0.11294018877E+02  0.11365199620E+02  0.12700000000E+01 0.  1.
         25    2    1    2    0    0  0.00000000000E+00  0.00000000000E+00  0.33342099612E+03  0.35608255408E+03  0.12500089866E+03 0.  0.
    9000005    1    3    3    0    0  0.48627078828E+02  0.39251518300E+02  0.16721754029E+03  0.17851605044E+03  0.10000000000E+01 0.  0.
    9000005    1    3    3    0    0 -0.48627078828E+02 -0.39251518300E+02  0.16620345583E+03  0.17756650363E+03  0.10000000000E+01 0.  0.
<mgrwt>
<rscale>  0 0.12500090E+03</rscale>
<asrwt>0</asrwt>
<pdfrwt beam="1">  1        4 0.53038731E-01 0.12500090E+03</pdfrwt>
<pdfrwt beam="2">  1       -4 0.17431969E-02 0.12500090E+03</pdfrwt>
<totfact> 0.69059171E+03</totfact>
</mgrwt>
</event>
<event>
 5    1  0.3282316E-002  0.1250049E+03  0.7818608E-02  0.1235062E+00
          4   -1    0    0  501    0  0.00000000000E+00  0.00000000000E+00  0.39306932128E+03  0.39307137295E+03  0.12700000000E+01 0.  1.
         -4   -1    0    0    0  501 -0.00000000000E+00 -0.00000000000E+00 -0.98959323393E+01  0.99770926058E+01  0.12700000000E+01 0.  1.
         25    2    1    2    0    0  0.00000000000E+00  0.00000000000E+00  0.38317338895E+03  0.40304846556E+03  0.12500487828E+03 0.  0.
    9000005    1    3    3    0    0 -0.59567542035E+02 -0.13536882545E+02  0.14905384701E+03  0.16108875988E+03  0.10000000000E+01 0.  0.
    9000005    1    3    3    0    0  0.59567542035E+02  0.13536882545E+02  0.23411954194E+03  0.24195970567E+03  0.10000000000E+01 0.  0.
<mgrwt>
<rscale>  0 0.12500488E+03</rscale>
<asrwt>0</asrwt>
<pdfrwt beam="1">  1        4 0.60478607E-01 0.12500488E+03</pdfrwt>
<pdfrwt beam="2">  1       -4 0.15288520E-02 0.12500488E+03</pdfrwt>
<totfact> 0.64250453E+03</totfact>
</mgrwt>
</event>
<event>
 5    1  0.3282316E-002  0.1249977E+03  0.7818608E-02  0.1235073E+00
          4   -1    0    0  501    0  0.00000000000E+00  0.00000000000E+00  0.14074236991E+02  0.14131420554E+02  0.12700000000E+01 0. -1.
         -4   -1    0    0    0  501 -0.00000000000E+00 -0.00000000000E+00 -0.27691469003E+03  0.27691760229E+03  0.12700000000E+01 0. -1.
         25    2    1    2    0    0  0.00000000000E+00  0.00000000000E+00 -0.26284045304E+03  0.29104902284E+03  0.12499771974E+03 0.  0.
    9000005    1    3    3    0    0 -0.61199210525E+02 -0.56159585488E+01 -0.15778661352E+03  0.16933545926E+03  0.10000000000E+01 0.  0.
    9000005    1    3    3    0    0  0.61199210525E+02  0.56159585488E+01 -0.10505383953E+03  0.12171356358E+03  0.10000000000E+01 0.  0.
<mgrwt>
<rscale>  0 0.12499772E+03</rscale>
<asrwt>0</asrwt>
<pdfrwt beam="1">  1        4 0.21698902E-02 0.12499772E+03</pdfrwt>
<pdfrwt beam="2">  1       -4 0.42606879E-01 0.12499772E+03</pdfrwt>
<totfact> 0.76739417E+03</totfact>
</mgrwt>
</event>
<event>
 5    1  0.3282316E-002  0.1249999E+03  0.7818608E-02  0.1235070E+00
          4   -1    0    0  501    0  0.00000000000E+00  0.00000000000E+00  0.48295305895E+02  0.48312001319E+02  0.12700000000E+01 0. -1.
         -4   -1    0    0    0  501 -0.00000000000E+00 -0.00000000000E+00 -0.80846751887E+02  0.80856726317E+02  0.12700000000E+01 0. -1.
         25    2    1    2    0    0  0.00000000000E+00  0.00000000000E+00 -0.32551445992E+02  0.12916872764E+03  0.12499985425E+03 0.  0.
    9000005    1    3    3    0    0 -0.37673771726E+02 -0.40686330543E+01  0.35074379414E+02  0.51643769636E+02  0.10000000000E+01 0.  0.
    9000005    1    3    3    0    0  0.37673771726E+02  0.40686330543E+01 -0.67625825406E+02  0.77524958000E+02  0.10000000000E+01 0.  0.
<mgrwt>
<rscale>  0 0.12499985E+03</rscale>
<asrwt>0</asrwt>
<pdfrwt beam="1">  1        4 0.74320986E-02 0.12499985E+03</pdfrwt>
<pdfrwt beam="2">  1       -4 0.12440013E-01 0.12499985E+03</pdfrwt>
<totfact> 0.10362357E+04</totfact>
</mgrwt>
</event>
<event>
 5    1  0.3282316E-002  0.1250049E+03  0.7818608E-02  0.1235062E+00
         -4   -1    0    0    0  501 -0.00000000000E+00  0.00000000000E+00  0.32210063140E+03  0.32210313511E+03  0.12700000000E+01 0.  1.
          4   -1    0    0  501    0  0.00000000000E+00 -0.00000000000E+00 -0.12092572901E+02  0.12159079709E+02  0.12700000000E+01 0.  1.
         25    2    1    2    0    0  0.00000000000E+00  0.00000000000E+00  0.31000805849E+03  0.33426221482E+03  0.12500492759E+03 0.  0.
    9000005    1    3    3    0    0 -0.76233568587E+01  0.51220651851E+02  0.24855124285E+03  0.25389051000E+03  0.10000000000E+01 0.  0.
    9000005    1    3    3    0    0  0.76233568587E+01 -0.51220651851E+02  0.61456815646E+02  0.80371704817E+02  0.10000000000E+01 0.  0.
<mgrwt>
<rscale>  0 0.12500493E+03</rscale>
<asrwt>0</asrwt>
<pdfrwt beam="2">  1        4 0.18657040E-02 0.12500493E+03</pdfrwt>
<pdfrwt beam="1">  1       -4 0.49559260E-01 0.12500493E+03</pdfrwt>
<totfact> 0.71483517E+03</totfact>
</mgrwt>
</event>
<event>
 5    1  0.3282316E-002  0.1249994E+03  0.7818608E-02  0.1235070E+00
         -4   -1    0    0    0  501 -0.00000000000E+00  0.00000000000E+00  0.13034224419E+03  0.13034843121E+03  0.12700000000E+01 0.  1.
          4   -1    0    0  501    0  0.00000000000E+00 -0.00000000000E+00 -0.29948515951E+02  0.29975431735E+02  0.12700000000E+01 0.  1.
         25    2    1    2    0    0  0.00000000000E+00  0.00000000000E+00  0.10039372824E+03  0.16032386295E+03  0.12499936144E+03 0.  0.
    9000005    1    3    3    0    0 -0.34311897578E+02 -0.42825815761E+02  0.88543166534E+02  0.10417412899E+03  0.10000000000E+01 0.  0.
    9000005    1    3    3    0    0  0.34311897578E+02  0.42825815761E+02  0.11850561703E+02  0.56149733958E+02  0.10000000000E+01 0.  0.
<mgrwt>
<rscale>  0 0.12499936E+03</rscale>
<asrwt>0</asrwt>
<pdfrwt beam="2">  1        4 0.46100104E-02 0.12499936E+03</pdfrwt>
<pdfrwt beam="1">  1       -4 0.20055199E-01 0.12499936E+03</pdfrwt>
<totfact> 0.97281779E+03</totfact>
</mgrwt>
</event>
<event>
 5    1  0.3282316E-002  0.1250033E+03  0.7818608E-02  0.1235064E+00
         -4   -1    0    0    0  501 -0.00000000000E+00  0.00000000000E+00  0.82210006010E+01  0.83185185509E+01  0.12700000000E+01 0.  1.
          4   -1    0    0  501    0  0.00000000000E+00 -0.00000000000E+00 -0.47228027556E+03  0.47228198313E+03  0.12700000000E+01 0.  1.
         25    2    1    2    0    0  0.00000000000E+00  0.00000000000E+00 -0.46405927496E+03  0.48060050168E+03  0.12500332609E+03 0.  0.
    9000005    1    3    3    0    0 -0.21952702232E+02 -0.24707662736E+01 -0.45678631100E+03  0.45732128721E+03  0.10000000000E+01 0.  0.
    9000005    1    3    3    0    0  0.21952702232E+02  0.24707662736E+01 -0.72729639620E+01  0.23279214464E+02  0.10000000000E+01 0.  0.
<mgrwt>
<rscale>  0 0.12500333E+03</rscale>
<asrwt>0</asrwt>
<pdfrwt beam="2">  1        4 0.72666116E-01 0.12500333E+03</pdfrwt>
<pdfrwt beam="1">  1       -4 0.12724024E-02 0.12500333E+03</pdfrwt>
<totfact> 0.57397392E+03</totfact>
</mgrwt>
</event>
<event>
 5    1  0.3282316E-002  0.1250189E+03  0.7818608E-02  0.1235040E+00
          4   -1    0    0  501    0  0.00000000000E+00  0.00000000000E+00  0.99333579888E+02  0.99341698160E+02  0.12700000000E+01 0. -1.
         -4   -1    0    0    0  501 -0.00000000000E+00 -0.00000000000E+00 -0.39316506127E+02  0.39337012521E+02  0.12700000000E+01 0. -1.
         25    2    1    2    0    0  0.00000000000E+00  0.00000000000E+00  0.60017073760E+02  0.13867871068E+03  0.12501894118E+03 0.  0.
    9000005    1    3    3    0    0 -0.39680569773E+02 -0.47074033216E+02  0.41951616726E+02  0.74508055717E+02  0.10000000000E+01 0.  0.
    9000005    1    3    3    0    0  0.39680569773E+02  0.47074033216E+02  0.18065457034E+02  0.64170654964E+02  0.10000000000E+01 0.  0.
<mgrwt>
<rscale>  0 0.12501894E+03</rscale>
<asrwt>0</asrwt>
<pdfrwt beam="1">  1        4 0.15284291E-01 0.12501894E+03</pdfrwt>
<pdfrwt beam="2">  1       -4 0.60508952E-02 0.12501894E+03</pdfrwt>
<totfact> 0.10156708E+04</totfact>
</mgrwt>
</event>
<event>
 5    1  0.3282316E-002  0.1249998E+03  0.7818608E-02  0.1235070E+00
          4   -1    0    0  501    0  0.00000000000E+00  0.00000000000E+00  0.18883511104E+03  0.18883938165E+03  0.12700000000E+01 0. -1.
         -4   -1    0    0    0  501 -0.00000000000E+00 -0.00000000000E+00 -0.20661954180E+02  0.20700948059E+02  0.12700000000E+01 0. -1.
         25    2    1    2    0    0  0.00000000000E+00  0.00000000000E+00  0.16817315686E+03  0.20954032970E+03  0.12499975634E+03 0.  0.
    9000005    1    3    3    0    0 -0.32402920675E+02 -0.50052540188E+02  0.11544905131E+03  0.12994110010E+03  0.10000000000E+01 0.  0.
    9000005    1    3    3    0    0  0.32402920675E+02  0.50052540188E+02  0.52724105550E+02  0.79599229604E+02  0.10000000000E+01 0.  0.
<mgrwt>
<rscale>  0 0.12499976E+03</rscale>
<asrwt>0</asrwt>
<pdfrwt beam="1">  1        4 0.29054884E-01 0.12499976E+03</pdfrwt>
<pdfrwt beam="2">  1       -4 0.31820902E-02 0.12499976E+03</pdfrwt>
<totfact> 0.88551488E+03</totfact>
</mgrwt>
</event>
<event>
 5    1  0.3282316E-002  0.1250025E+03  0.7818608E-02  0.1235065E+00
         -4   -1    0    0    0  501 -0.00000000000E+00  0.00000000000E+00  0.73494634938E+02  0.73505607029E+02  0.12700000000E+01 0. -1.
          4   -1    0    0  501    0  0.00000000000E+00 -0.00000000000E+00 -0.53129745367E+02  0.53144922079E+02  0.12700000000E+01 0. -1.
         25    2    1    2    0    0  0.00000000000E+00  0.00000000000E+00  0.20364889571E+02  0.12665052911E+03  0.12500251116E+03 0.  0.
    9000005    1    3    3    0    0 -0.24438706440E+02 -0.53767119373E+02 -0.10513642125E+02  0.59997418018E+02  0.10000000000E+01 0.  0.
    9000005    1    3    3    0    0  0.24438706440E+02  0.53767119373E+02  0.30878531697E+02  0.66653111089E+02  0.10000000000E+01 0.  0.
<mgrwt>
<rscale>  0 0.12500251E+03</rscale>
<asrwt>0</asrwt>
<pdfrwt beam="2">  1        4 0.81758185E-02 0.12500251E+03</pdfrwt>
<pdfrwt beam="1">  1       -4 0.11308878E-01 0.12500251E+03</pdfrwt>
<totfact> 0.10416157E+04</totfact>
</mgrwt>
</event>
<event>
 4    1  0.3282316E-002  0.1248089E+03  0.7818608E-02  0.1235368E+00
         -4   -1    0    0    0  501 -0.00000000000E+00  0.00000000000E+00  0.26053705252E+01  0.28984229459E+01  0.12700000000E+01 0. -1.
          4   -1    0    0  501    0  0.00000000000E+00 -0.00000000000E+00 -0.14148448914E+04  0.14148454614E+04  0.12700000000E+01 0. -1.
    9000005    1    1    2    0    0  0.26646678102E+02  0.52661539786E+02 -0.47610236635E+03  0.47974758621E+03  0.10000000000E+01 0.  0.
    9000005    1    1    2    0    0 -0.26646678102E+02 -0.52661539786E+02 -0.93613715450E+03  0.93799629810E+03  0.10000000000E+01 0.  0.
<mgrwt>
<rscale>  0 0.12480888E+03</rscale>
<asrwt>0</asrwt>
<pdfrwt beam="2">  1        4 0.21769045E+00 0.12480888E+03</pdfrwt>
<pdfrwt beam="1">  1       -4 0.42341370E-03 0.12480888E+03</pdfrwt>
<totfact> 0.19685462E+03</totfact>
</mgrwt>
</event>
<event>
 5    1  0.3282316E-002  0.1250005E+03  0.7818608E-02  0.1235068E+00
          4   -1    0    0  501    0  0.00000000000E+00  0.00000000000E+00  0.41441442819E+03  0.41441637419E+03  0.12700000000E+01 0. -1.
         -4   -1    0    0    0  501 -0.00000000000E+00 -0.00000000000E+00 -0.93812776717E+01  0.94668511530E+01  0.12700000000E+01 0. -1.
         25    2    1    2    0    0  0.00000000000E+00  0.00000000000E+00  0.40503315052E+03  0.42388322534E+03  0.12500054281E+03 0.  0.
    9000005    1    3    3    0    0 -0.38360716297E+02 -0.14984419633E+02  0.36190342662E+03  0.36424053534E+03  0.10000000000E+01 0.  0.
    9000005    1    3    3    0    0  0.38360716297E+02  0.14984419633E+02  0.43129723904E+02  0.59642690002E+02  0.10000000000E+01 0.  0.
<mgrwt>
<rscale>  0 0.12500054E+03</rscale>
<asrwt>0</asrwt>
<pdfrwt beam="1">  1        4 0.63762793E-01 0.12500054E+03</pdfrwt>
<pdfrwt beam="2">  1       -4 0.14500059E-02 0.12500054E+03</pdfrwt>
<totfact> 0.62293635E+03</totfact>
</mgrwt>
</event>
<event>
 5    1  0.3282316E-002  0.1249995E+03  0.7818608E-02  0.1235070E+00
         -4   -1    0    0    0  501 -0.00000000000E+00  0.00000000000E+00  0.43590215687E+03  0.43590400694E+03  0.12700000000E+01 0.  1.
          4   -1    0    0  501    0  0.00000000000E+00 -0.00000000000E+00 -0.89143507304E+01  0.90043627728E+01  0.12700000000E+01 0.  1.
         25    2    1    2    0    0  0.00000000000E+00  0.00000000000E+00  0.42698780614E+03  0.44490836971E+03  0.12499948338E+03 0.  0.
    9000005    1    3    3    0    0 -0.75651730204E+01 -0.37381107150E+02  0.37295486495E+02  0.53352903646E+02  0.10000000000E+01 0.  0.
    9000005    1    3    3    0    0  0.75651730204E+01  0.37381107150E+02  0.38969231965E+03  0.39155546606E+03  0.10000000000E+01 0.  0.
<mgrwt>
<rscale>  0 0.12499948E+03</rscale>
<asrwt>0</asrwt>
<pdfrwt beam="2">  1        4 0.13785049E-02 0.12499948E+03</pdfrwt>
<pdfrwt beam="1">  1       -4 0.67068937E-01 0.12499948E+03</pdfrwt>
<totfact> 0.60408120E+03</totfact>
</mgrwt>
</event>
<event>
 5    1  0.3282316E-002  0.1250022E+03  0.7818608E-02  0.1235066E+00
         -4   -1    0    0    0  501 -0.00000000000E+00  0.00000000000E+00  0.60703627163E+01  0.62017903469E+01  0.12700000000E+01 0. -1.
          4   -1    0    0  501    0  0.00000000000E+00 -0.00000000000E+00 -0.63649438077E+03  0.63649564779E+03  0.12700000000E+01 0. -1.
         25    2    1    2    0    0  0.00000000000E+00  0.00000000000E+00 -0.63042401805E+03  0.64269743813E+03  0.12500221776E+03 0.  0.
    9000005    1    3    3    0    0  0.30723339290E+01 -0.60198617657E+02 -0.23040459632E+03  0.23816085070E+03  0.10000000000E+01 0.  0.
    9000005    1    3    3    0    0 -0.30723339290E+01  0.60198617657E+02 -0.40001942173E+03  0.40453658743E+03  0.10000000000E+01 0.  0.
<mgrwt>
<rscale>  0 0.12500222E+03</rscale>
<asrwt>0</asrwt>
<pdfrwt beam="2">  1        4 0.97932368E-01 0.12500222E+03</pdfrwt>
<pdfrwt beam="1">  1       -4 0.94410974E-03 0.12500222E+03</pdfrwt>
<totfact> 0.46276452E+03</totfact>
</mgrwt>
</event>
<event>
 5    1  0.3282316E-002  0.1249989E+03  0.7818608E-02  0.1235071E+00
         -4   -1    0    0    0  501 -0.00000000000E+00  0.00000000000E+00  0.56097600801E+01  0.57517221904E+01  0.12700000000E+01 0.  1.
          4   -1    0    0  501    0  0.00000000000E+00 -0.00000000000E+00 -0.68747618137E+03  0.68747735443E+03  0.12700000000E+01 0.  1.
         25    2    1    2    0    0  0.00000000000E+00  0.00000000000E+00 -0.68186642129E+03  0.69322907662E+03  0.12499894474E+03 0.  0.
    9000005    1    3    3    0    0  0.27436416560E+02 -0.55898936245E+02 -0.37014058330E+03  0.37534317555E+03  0.10000000000E+01 0.  0.
    9000005    1    3    3    0    0 -0.27436416560E+02  0.55898936245E+02 -0.31172583799E+03  0.31788590107E+03  0.10000000000E+01 0.  0.
<mgrwt>
<rscale>  0 0.12499894E+03</rscale>
<asrwt>0</asrwt>
<pdfrwt beam="2">  1        4 0.10577651E+00 0.12499894E+03</pdfrwt>
<pdfrwt beam="1">  1       -4 0.87405095E-03 0.12499894E+03</pdfrwt>
<totfact> 0.43447559E+03</totfact>
</mgrwt>
</event>
<event>
 5    1  0.3282316E-002  0.1249986E+03  0.7818608E-02  0.1235071E+00
          4   -1    0    0  501    0  0.00000000000E+00  0.00000000000E+00  0.94359739565E+02  0.94368285725E+02  0.12700000000E+01 0.  1.
         -4   -1    0    0    0  501 -0.00000000000E+00 -0.00000000000E+00 -0.41376352329E+02  0.41395838342E+02  0.12700000000E+01 0.  1.
         25    2    1    2    0    0  0.00000000000E+00  0.00000000000E+00  0.52983387236E+02  0.13576412407E+03  0.12499863224E+03 0.  0.
    9000005    1    3    3    0    0  0.41955314852E+02  0.92835770123E+01 -0.22789315414E+02  0.48649626345E+02  0.10000000000E+01 0.  0.
    9000005    1    3    3    0    0 -0.41955314852E+02 -0.92835770123E+01  0.75772702650E+02  0.87114497722E+02  0.10000000000E+01 0.  0.
<mgrwt>
<rscale>  0 0.12499863E+03</rscale>
<asrwt>0</asrwt>
<pdfrwt beam="1">  1        4 0.14519039E-01 0.12499863E+03</pdfrwt>
<pdfrwt beam="2">  1       -4 0.63677491E-02 0.12499863E+03</pdfrwt>
<totfact> 0.10222305E+04</totfact>
</mgrwt>
</event>
<event>
 5    1  0.3282316E-002  0.1249932E+03  0.7818608E-02  0.1235080E+00
          4   -1    0    0  501    0  0.00000000000E+00  0.00000000000E+00  0.19233160672E+03  0.19233579969E+03  0.12700000000E+01 0. -1.
         -4   -1    0    0    0  501 -0.00000000000E+00 -0.00000000000E+00 -0.20283481973E+02  0.20323202035E+02  0.12700000000E+01 0. -1.
         25    2    1    2    0    0  0.00000000000E+00  0.00000000000E+00  0.17204812475E+03  0.21265900173E+03  0.12499317496E+03 0.  0.
    9000005    1    3    3    0    0  0.33885486227E+02 -0.42344032598E+02  0.13883713058E+03  0.14905700956E+03  0.10000000000E+01 0.  0.
    9000005    1    3    3    0    0 -0.33885486227E+02  0.42344032598E+02  0.33210994172E+02  0.63601992165E+02  0.10000000000E+01 0.  0.
<mgrwt>
<rscale>  0 0.12499317E+03</rscale>
<asrwt>0</asrwt>
<pdfrwt beam="1">  1        4 0.29592856E-01 0.12499317E+03</pdfrwt>
<pdfrwt beam="2">  1       -4 0.31239136E-02 0.12499317E+03</pdfrwt>
<totfact> 0.88056896E+03</totfact>
</mgrwt>
</event>
<event>
 5    1  0.3282316E-002  0.1249984E+03  0.7818608E-02  0.1235072E+00
         -4   -1    0    0    0  501 -0.00000000000E+00  0.00000000000E+00  0.34473948647E+02  0.34497333742E+02  0.12700000000E+01 0.  1.
          4   -1    0    0  501    0  0.00000000000E+00 -0.00000000000E+00 -0.11324197608E+03  0.11324909734E+03  0.12700000000E+01 0.  1.
         25    2    1    2    0    0  0.00000000000E+00  0.00000000000E+00 -0.78768027437E+02  0.14774643108E+03  0.12499842299E+03 0.  0.
    9000005    1    3    3    0    0 -0.24759246867E+02 -0.57288486000E+02 -0.43151659695E+02  0.75881859940E+02  0.10000000000E+01 0.  0.
    9000005    1    3    3    0    0  0.24759246867E+02  0.57288486000E+02 -0.35616367742E+02  0.71864571137E+02  0.10000000000E+01 0.  0.
<mgrwt>
<rscale>  0 0.12499842E+03</rscale>
<asrwt>0</asrwt>
<pdfrwt beam="2">  1        4 0.17424189E-01 0.12499842E+03</pdfrwt>
<pdfrwt beam="1">  1       -4 0.53060311E-02 0.12499842E+03</pdfrwt>
<totfact> 0.99758366E+03</totfact>
</mgrwt>
</event>
<event>
 5    1  0.3282316E-002  0.1249998E+03  0.7818608E-02  0.1235070E+00
          4   -1    0    0  501    0  0.00000000000E+00  0.00000000000E+00  0.27698254210E+01  0.30471023716E+01  0.12700000000E+01 0. -1.
         -4   -1    0    0    0  501 -0.00000000000E+00 -0.00000000000E+00 -0.13427801356E+04  0.13427807361E+04  0.12700000000E+01 0. -1.
         25    2    1    2    0    0  0.00000000000E+00  0.00000000000E+00 -0.13400103101E+04  0.13458278385E+04  0.12499975856E+03 0.  0.
    9000005    1    3    3    0    0 -0.29492830738E+02  0.45328089875E+02 -0.33282315089E+03  0.33718943128E+03  0.10000000000E+01 0.  0.
    9000005    1    3    3    0    0  0.29492830738E+02 -0.45328089875E+02 -0.10071871592E+04  0.10086384072E+04  0.10000000000E+01 0.  0.
<mgrwt>
<rscale>  0 0.12499976E+03</rscale>
<asrwt>0</asrwt>
<pdfrwt beam="1">  1        4 0.44750325E-03 0.12499976E+03</pdfrwt>
<pdfrwt beam="2">  1       -4 0.20660244E+00 0.12499976E+03</pdfrwt>
<totfact> 0.21172207E+03</totfact>
</mgrwt>
</event>
<event>
 5    1  0.3282316E-002  0.1250002E+03  0.7818608E-02  0.1235069E+00
          4   -1    0    0  501    0  0.00000000000E+00  0.00000000000E+00  0.96362808914E+01  0.97196095302E+01  0.12700000000E+01 0. -1.
         -4   -1    0    0    0  501 -0.00000000000E+00 -0.00000000000E+00 -0.40354117263E+03  0.40354317106E+03  0.12700000000E+01 0. -1.
         25    2    1    2    0    0  0.00000000000E+00  0.00000000000E+00 -0.39390489174E+03  0.41326278059E+03  0.12500024834E+03 0.  0.
    9000005    1    3    3    0    0 -0.28817323636E+02 -0.55312403275E+02 -0.18399296263E+03  0.19427894995E+03  0.10000000000E+01 0.  0.
    9000005    1    3    3    0    0  0.28817323636E+02  0.55312403275E+02 -0.20991192911E+03  0.21898383063E+03  0.10000000000E+01 0.  0.
<mgrwt>
<rscale>  0 0.12500025E+03</rscale>
<asrwt>0</asrwt>
<pdfrwt beam="1">  1        4 0.14890687E-02 0.12500025E+03</pdfrwt>
<pdfrwt beam="2">  1       -4 0.62089808E-01 0.12500025E+03</pdfrwt>
<totfact> 0.63282648E+03</totfact>
</mgrwt>
</event>
<event>
 5    1  0.3282316E-002  0.1249988E+03  0.7818608E-02  0.1235071E+00
          4   -1    0    0  501    0  0.00000000000E+00  0.00000000000E+00  0.20720580626E+03  0.20720969824E+03  0.12700000000E+01 0. -1.
         -4   -1    0    0    0  501 -0.00000000000E+00 -0.00000000000E+00 -0.18826215988E+02  0.18869003906E+02  0.12700000000E+01 0. -1.
         25    2    1    2    0    0  0.00000000000E+00  0.00000000000E+00  0.18837959027E+03  0.22607870215E+03  0.12499883814E+03 0.  0.
    9000005    1    3    3    0    0  0.25316017277E+01 -0.33434222041E+02  0.18956775188E+03  0.19251282753E+03  0.10000000000E+01 0.  0.
    9000005    1    3    3    0    0 -0.25316017277E+01  0.33434222041E+02 -0.11881616139E+01  0.33565874618E+02  0.10000000000E+01 0.  0.
<mgrwt>
<rscale>  0 0.12499884E+03</rscale>
<asrwt>0</asrwt>
<pdfrwt beam="1">  1        4 0.31881407E-01 0.12499884E+03</pdfrwt>
<pdfrwt beam="2">  1       -4 0.28999317E-02 0.12499884E+03</pdfrwt>
<totfact> 0.85917603E+03</totfact>
</mgrwt>
</event>
<event>
 5    1  0.3282316E-002  0.1249989E+03  0.7818608E-02  0.1235071E+00
         -4   -1    0    0    0  501 -0.00000000000E+00  0.00000000000E+00  0.27332980093E+03  0.27333275138E+03  0.12700000000E+01 0.  1.
          4   -1    0    0  501    0  0.00000000000E+00 -0.00000000000E+00 -0.14259832060E+02  0.14316274319E+02  0.12700000000E+01 0.  1.
         25    2    1    2    0    0  0.00000000000E+00  0.00000000000E+00  0.25906996887E+03  0.28764902570E+03  0.12499885285E+03 0.  0.
    9000005    1    3    3    0    0  0.93964481931E+01  0.73176977816E+01  0.27070530421E+03  0.27096900868E+03  0.10000000000E+01 0.  0.
    9000005    1    3    3    0    0 -0.93964481931E+01 -0.73176977816E+01 -0.11635335334E+02  0.16680017020E+02  0.10000000000E+01 0.  0.
<mgrwt>
<rscale>  0 0.12499885E+03</rscale>
<asrwt>0</asrwt>
<pdfrwt beam="2">  1        4 0.21983888E-02 0.12499885E+03</pdfrwt>
<pdfrwt beam="1">  1       -4 0.42055310E-01 0.12499885E+03</pdfrwt>
<totfact> 0.77176673E+03</totfact>
</mgrwt>
</event>
<event>
 5    1  0.3282316E-002  0.1249989E+03  0.7818608E-02  0.1235071E+00
          4   -1    0    0  501    0  0.00000000000E+00  0.00000000000E+00  0.32743320461E+02  0.32767940656E+02  0.12700000000E+01 0. -1.
         -4   -1    0    0    0  501 -0.00000000000E+00 -0.00000000000E+00 -0.11922427343E+03  0.11923103738E+03  0.12700000000E+01 0. -1.
         25    2    1    2    0    0  0.00000000000E+00  0.00000000000E+00 -0.86480952966E+02  0.15199897803E+03  0.12499893639E+03 0.  0.
    9000005    1    3    3    0    0  0.16374219667E+02 -0.49239360724E+02 -0.85583792003E+02  0.10009103440E+03  0.10000000000E+01 0.  0.
    9000005    1    3    3    0    0 -0.16374219667E+02  0.49239360724E+02 -0.89716096273E+00  0.51907943631E+02  0.10000000000E+01 0.  0.
<mgrwt>
<rscale>  0 0.12499894E+03</rscale>
<asrwt>0</asrwt>
<pdfrwt beam="1">  1        4 0.50398481E-02 0.12499894E+03</pdfrwt>
<pdfrwt beam="2">  1       -4 0.18344610E-01 0.12499894E+03</pdfrwt>
<totfact> 0.98909081E+03</totfact>
</mgrwt>
</event>
<event>
 5    1  0.3282316E-002  0.1250012E+03  0.7818608E-02  0.1235067E+00
          4   -1    0    0  501    0  0.00000000000E+00  0.00000000000E+00  0.51767161943E+01  0.53302242501E+01  0.12700000000E+01 0.  1.
         -4   -1    0    0    0  501 -0.00000000000E+00 -0.00000000000E+00 -0.74341602762E+03  0.74341711241E+03  0.12700000000E+01 0.  1.
         25    2    1    2    0    0  0.00000000000E+00  0.00000000000E+00 -0.73823931143E+03  0.74874733666E+03  0.12500117287E+03 0.  0.
    9000005    1    3    3    0    0 -0.61232968004E+02  0.68592674228E+00 -0.44378409091E+03  0.44799025237E+03  0.10000000000E+01 0.  0.
    9000005    1    3    3    0    0  0.61232968004E+02 -0.68592674228E+00 -0.29445522051E+03  0.30075708429E+03  0.10000000000E+01 0.  0.
<mgrwt>
<rscale>  0 0.12500117E+03</rscale>
<asrwt>0</asrwt>
<pdfrwt beam="1">  1        4 0.80831022E-03 0.12500117E+03</pdfrwt>
<pdfrwt beam="2">  1       -4 0.11438350E+00 0.12500117E+03</pdfrwt>
<totfact> 0.40633104E+03</totfact>
</mgrwt>
</event>
<event>
 5    1  0.3282316E-002  0.1249977E+03  0.7818608E-02  0.1235073E+00
          4   -1    0    0  501    0  0.00000000000E+00  0.00000000000E+00  0.70582519124E+03  0.70582633380E+03  0.12700000000E+01 0.  1.
         -4   -1    0    0    0  501 -0.00000000000E+00 -0.00000000000E+00 -0.54600759935E+01  0.56058299881E+01  0.12700000000E+01 0.  1.
         25    2    1    2    0    0  0.00000000000E+00  0.00000000000E+00  0.70036511525E+03  0.71143216379E+03  0.12499771607E+03 0.  0.
    9000005    1    3    3    0    0  0.28885002104E+02  0.27775106439E+02  0.77265969200E+02  0.87044987683E+02  0.10000000000E+01 0.  0.
    9000005    1    3    3    0    0 -0.28885002104E+02 -0.27775106439E+02  0.62309914605E+03  0.62438717611E+03  0.10000000000E+01 0.  0.
<mgrwt>
<rscale>  0 0.12499772E+03</rscale>
<asrwt>0</asrwt>
<pdfrwt beam="1">  1        4 0.10859971E+00 0.12499772E+03</pdfrwt>
<pdfrwt beam="2">  1       -4 0.85131207E-03 0.12499772E+03</pdfrwt>
<totfact> 0.42492191E+03</totfact>
</mgrwt>
</event>
<event>
 5    1  0.3282316E-002  0.1249995E+03  0.7818608E-02  0.1235070E+00
         -4   -1    0    0    0  501 -0.00000000000E+00  0.00000000000E+00  0.37968407182E+02  0.37989641272E+02  0.12700000000E+01 0. -1.
          4   -1    0    0  501    0  0.00000000000E+00 -0.00000000000E+00 -0.10282681096E+03  0.10283465346E+03  0.12700000000E+01 0. -1.
         25    2    1    2    0    0  0.00000000000E+00  0.00000000000E+00 -0.64858403780E+02  0.14082429473E+03  0.12499947778E+03 0.  0.
    9000005    1    3    3    0    0  0.39915888818E+02  0.43465098025E+02 -0.92660282674E+01  0.59744055824E+02  0.10000000000E+01 0.  0.
    9000005    1    3    3    0    0 -0.39915888818E+02 -0.43465098025E+02 -0.55592375513E+02  0.81080238910E+02  0.10000000000E+01 0.  0.
<mgrwt>
<rscale>  0 0.12499948E+03</rscale>
<asrwt>0</asrwt>
<pdfrwt beam="2">  1        4 0.15821746E-01 0.12499948E+03</pdfrwt>
<pdfrwt beam="1">  1       -4 0.58435301E-02 0.12499948E+03</pdfrwt>
<totfact> 0.10116649E+04</totfact>
</mgrwt>
</event>
<event>
 5    1  0.3282316E-002  0.1249976E+03  0.7818608E-02  0.1235073E+00
         -4   -1    0    0    0  501 -0.00000000000E+00  0.00000000000E+00  0.76988375253E+03  0.76988480003E+03  0.12700000000E+01 0. -1.
          4   -1    0    0  501    0  0.00000000000E+00 -0.00000000000E+00 -0.49930780604E+01  0.51520606088E+01  0.12700000000E+01 0. -1.
         25    2    1    2    0    0  0.00000000000E+00  0.00000000000E+00  0.76489067447E+03  0.77503686064E+03  0.12499756578E+03 0.  0.
    9000005    1    3    3    0    0 -0.47781168196E+02 -0.33304256332E+02  0.24202483524E+03  0.24893620547E+03  0.10000000000E+01 0.  0.
    9000005    1    3    3    0    0  0.47781168196E+02  0.33304256332E+02  0.52286583924E+03  0.52610065516E+03  0.10000000000E+01 0.  0.
<mgrwt>
<rscale>  0 0.12499757E+03</rscale>
<asrwt>0</asrwt>
<pdfrwt beam="2">  1        4 0.78047598E-03 0.12499757E+03</pdfrwt>
<pdfrwt beam="1">  1       -4 0.11845595E+00 0.12499757E+03</pdfrwt>
<totfact> 0.39405812E+03</totfact>
</mgrwt>
</event>
<event>
 4    1  0.3282316E-002  0.1251213E+03  0.7818608E-02  0.1234880E+00
          4   -1    0    0  501    0  0.00000000000E+00  0.00000000000E+00  0.35097872119E+02  0.35120841780E+02  0.12700000000E+01 0. -1.
         -4   -1    0    0    0  501 -0.00000000000E+00 -0.00000000000E+00 -0.11144904252E+03  0.11145627833E+03  0.12700000000E+01 0. -1.
    9000005    1    1    2    0    0 -0.52768123256E+02 -0.21955939434E+01  0.10915744524E+01  0.52834524693E+02  0.10000000000E+01 0.  0.
    9000005    1    1    2    0    0  0.52768123256E+02  0.21955939434E+01 -0.77442744857E+02  0.93742595418E+02  0.10000000000E+01 0.  0.
<mgrwt>
<rscale>  0 0.12512134E+03</rscale>
<asrwt>0</asrwt>
<pdfrwt beam="1">  1        4 0.54019962E-02 0.12512134E+03</pdfrwt>
<pdfrwt beam="2">  1       -4 0.17148330E-01 0.12512134E+03</pdfrwt>
<totfact> 0.99717748E+03</totfact>
</mgrwt>
</event>
<event>
 5    1  0.3282316E-002  0.1249977E+03  0.7818608E-02  0.1235073E+00
         -4   -1    0    0    0  501 -0.00000000000E+00  0.00000000000E+00  0.12505571780E+03  0.12506216636E+03  0.12700000000E+01 0.  1.
          4   -1    0    0  501    0  0.00000000000E+00 -0.00000000000E+00 -0.31214758891E+02  0.31240583743E+02  0.12700000000E+01 0.  1.
         25    2    1    2    0    0  0.00000000000E+00  0.00000000000E+00  0.93840958906E+02  0.15630275010E+03  0.12499769646E+03 0.  0.
    9000005    1    3    3    0    0  0.45966792359E+02 -0.37196270709E+02  0.21644240678E+02  0.62976040754E+02  0.10000000000E+01 0.  0.
    9000005    1    3    3    0    0 -0.45966792359E+02  0.37196270709E+02  0.72196718228E+02  0.93326709346E+02  0.10000000000E+01 0.  0.
<mgrwt>
<rscale>  0 0.12499770E+03</rscale>
<asrwt>0</asrwt>
<pdfrwt beam="2">  1        4 0.48047532E-02 0.12499770E+03</pdfrwt>
<pdfrwt beam="1">  1       -4 0.19241824E-01 0.12499770E+03</pdfrwt>
<totfact> 0.98065438E+03</totfact>
</mgrwt>
</event>
<event>
 5    1  0.3282316E-002  0.1249965E+03  0.7818608E-02  0.1235075E+00
         -4   -1    0    0    0  501 -0.00000000000E+00  0.00000000000E+00  0.78971530846E+02  0.78981742094E+02  0.12700000000E+01 0. -1.
          4   -1    0    0  501    0  0.00000000000E+00 -0.00000000000E+00 -0.49439666878E+02  0.49455975989E+02  0.12700000000E+01 0. -1.
         25    2    1    2    0    0  0.00000000000E+00  0.00000000000E+00  0.29531863968E+02  0.12843771808E+03  0.12499646570E+03 0.  0.
    9000005    1    3    3    0    0  0.57967846675E+02  0.23316757954E+02  0.15837060544E+02  0.64465145127E+02  0.10000000000E+01 0.  0.
    9000005    1    3    3    0    0 -0.57967846675E+02 -0.23316757954E+02  0.13694803425E+02  0.63972572955E+02  0.10000000000E+01 0.  0.
<mgrwt>
<rscale>  0 0.12499647E+03</rscale>
<asrwt>0</asrwt>
<pdfrwt beam="2">  1        4 0.76081427E-02 0.12499647E+03</pdfrwt>
<pdfrwt beam="1">  1       -4 0.12151506E-01 0.12499647E+03</pdfrwt>
<totfact> 0.10378874E+04</totfact>
</mgrwt>
</event>
<event>
 5    1  0.3282316E-002  0.1250042E+03  0.7818608E-02  0.1235063E+00
          4   -1    0    0  501    0  0.00000000000E+00  0.00000000000E+00  0.82843043430E+02  0.82852777532E+02  0.12700000000E+01 0. -1.
         -4   -1    0    0    0  501 -0.00000000000E+00 -0.00000000000E+00 -0.47134535168E+02  0.47151641600E+02  0.12700000000E+01 0. -1.
         25    2    1    2    0    0  0.00000000000E+00  0.00000000000E+00  0.35708508262E+02  0.13000441913E+03  0.12500420566E+03 0.  0.
    9000005    1    3    3    0    0 -0.25278563249E+02  0.44647528939E+02 -0.19253583386E+02  0.54809744330E+02  0.10000000000E+01 0.  0.
    9000005    1    3    3    0    0  0.25278563249E+02 -0.44647528939E+02  0.54962091648E+02  0.75194674802E+02  0.10000000000E+01 0.  0.
<mgrwt>
<rscale>  0 0.12500421E+03</rscale>
<asrwt>0</asrwt>
<pdfrwt beam="1">  1        4 0.12747148E-01 0.12500421E+03</pdfrwt>
<pdfrwt beam="2">  1       -4 0.72535317E-02 0.12500421E+03</pdfrwt>
<totfact> 0.10343431E+04</totfact>
</mgrwt>
</event>
<event>
 5    1  0.3282316E-002  0.1249997E+03  0.7818608E-02  0.1235070E+00
          4   -1    0    0  501    0  0.00000000000E+00  0.00000000000E+00  0.41779950911E+01  0.43667542845E+01  0.12700000000E+01 0. -1.
         -4   -1    0    0    0  501 -0.00000000000E+00 -0.00000000000E+00 -0.91411119066E+03  0.91411207288E+03  0.12700000000E+01 0. -1.
         25    2    1    2    0    0  0.00000000000E+00  0.00000000000E+00 -0.90993319556E+03  0.91847882716E+03  0.12499974222E+03 0.  0.
    9000005    1    3    3    0    0  0.34894326233E+02 -0.35871278621E+02 -0.72998334687E+03  0.73169737552E+03  0.10000000000E+01 0.  0.
    9000005    1    3    3    0    0 -0.34894326233E+02  0.35871278621E+02 -0.17994984870E+03  0.18678145165E+03  0.10000000000E+01 0.  0.
<mgrwt>
<rscale>  0 0.12499974E+03</rscale>
<asrwt>0</asrwt>
<pdfrwt beam="1">  1        4 0.65735700E-03 0.12499974E+03</pdfrwt>
<pdfrwt beam="2">  1       -4 0.14064692E+00 0.12499974E+03</pdfrwt>
<totfact> 0.33462382E+03</totfact>
</mgrwt>
</event>
<event>
 5    1  0.3282316E-002  0.1249967E+03  0.7818608E-02  0.1235074E+00
          4   -1    0    0  501    0  0.00000000000E+00  0.00000000000E+00  0.20800755252E+02  0.20839489415E+02  0.12700000000E+01 0. -1.
         -4   -1    0    0    0  501 -0.00000000000E+00 -0.00000000000E+00 -0.18756816825E+03  0.18757246770E+03  0.12700000000E+01 0. -1.
         25    2    1    2    0    0  0.00000000000E+00  0.00000000000E+00 -0.16676741300E+03  0.20841195712E+03  0.12499669529E+03 0.  0.
    9000005    1    3    3    0    0  0.40729283643E+02 -0.45872893139E+02 -0.63525796131E+02  0.88316044098E+02  0.10000000000E+01 0.  0.
    9000005    1    3    3    0    0 -0.40729283643E+02  0.45872893139E+02 -0.10324161687E+03  0.12009591302E+03  0.10000000000E+01 0.  0.
<mgrwt>
<rscale>  0 0.12499670E+03</rscale>
<asrwt>0</asrwt>
<pdfrwt beam="1">  1        4 0.32034266E-02 0.12499670E+03</pdfrwt>
<pdfrwt beam="2">  1       -4 0.28859950E-01 0.12499670E+03</pdfrwt>
<totfact> 0.88742445E+03</totfact>
</mgrwt>
</event>
<event>
 5    1  0.3282316E-002  0.1249970E+03  0.7818608E-02  0.1235074E+00
         -4   -1    0    0    0  501 -0.00000000000E+00  0.00000000000E+00  0.30720555940E+02  0.30746795886E+02  0.12700000000E+01 0. -1.
          4   -1    0    0  501    0  0.00000000000E+00 -0.00000000000E+00 -0.12706455858E+03  0.12707090519E+03  0.12700000000E+01 0. -1.
         25    2    1    2    0    0  0.00000000000E+00  0.00000000000E+00 -0.96344002639E+02  0.15781770108E+03  0.12499703968E+03 0.  0.
    9000005    1    3    3    0    0 -0.47120922266E+02 -0.41042829866E+02 -0.48692241895E+02  0.79226445202E+02  0.10000000000E+01 0.  0.
    9000005    1    3    3    0    0  0.47120922266E+02  0.41042829866E+02 -0.47651760744E+02  0.78591255879E+02  0.10000000000E+01 0.  0.
<mgrwt>
<rscale>  0 0.12499704E+03</rscale>
<asrwt>0</asrwt>
<pdfrwt beam="2">  1        4 0.19550900E-01 0.12499704E+03</pdfrwt>
<pdfrwt beam="1">  1       -4 0.47287461E-02 0.12499704E+03</pdfrwt>
<totfact> 0.97771679E+03</totfact>
</mgrwt>
</event>
<event>
 5    1  0.3282316E-002  0.1250343E+03  0.7818608E-02  0.1235016E+00
          4   -1    0    0  501    0  0.00000000000E+00  0.00000000000E+00  0.14613823107E+03  0.14614374937E+03  0.12700000000E+01 0.  1.
         -4   -1    0    0    0  501 -0.00000000000E+00 -0.00000000000E+00 -0.26723394125E+02  0.26753554783E+02  0.12700000000E+01 0.  1.
         25    2    1    2    0    0  0.00000000000E+00  0.00000000000E+00  0.11941483695E+03  0.17289730416E+03  0.12503429330E+03 0.  0.
    9000005    1    3    3    0    0 -0.53254784160E+00  0.35341658060E+02 -0.11584922408E+02  0.37209230425E+02  0.10000000000E+01 0.  0.
    9000005    1    3    3    0    0  0.53254784160E+00 -0.35341658060E+02  0.13099975936E+03  0.13568807373E+03  0.10000000000E+01 0.  0.
<mgrwt>
<rscale>  0 0.12503429E+03</rscale>
<asrwt>0</asrwt>
<pdfrwt beam="1">  1        4 0.22485549E-01 0.12503429E+03</pdfrwt>
<pdfrwt beam="2">  1       -4 0.41140360E-02 0.12503429E+03</pdfrwt>
<totfact> 0.94838366E+03</totfact>
</mgrwt>
</event>
<event>
 5    1  0.3282316E-002  0.1250027E+03  0.7818608E-02  0.1235065E+00
          4   -1    0    0  501    0  0.00000000000E+00  0.00000000000E+00  0.18077317508E+02  0.18121873752E+02  0.12700000000E+01 0. -1.
         -4   -1    0    0    0  501 -0.00000000000E+00 -0.00000000000E+00 -0.21578246282E+03  0.21578620012E+03  0.12700000000E+01 0. -1.
         25    2    1    2    0    0  0.00000000000E+00  0.00000000000E+00 -0.19770514531E+03  0.23390807387E+03  0.12500265012E+03 0.  0.
    9000005    1    3    3    0    0  0.96059638307E+01  0.58866584656E+02 -0.13375311486E+03  0.14645287660E+03  0.10000000000E+01 0.  0.
    9000005    1    3    3    0    0 -0.96059638307E+01 -0.58866584656E+02 -0.63952030456E+02  0.87455197270E+02  0.10000000000E+01 0.  0.
<mgrwt>
<rscale>  0 0.12500265E+03</rscale>
<asrwt>0</asrwt>
<pdfrwt beam="1">  1        4 0.27848408E-02 0.12500265E+03</pdfrwt>
<pdfrwt beam="2">  1       -4 0.33201015E-01 0.12500265E+03</pdfrwt>
<totfact> 0.84708093E+03</totfact>
</mgrwt>
</event>
<event>
 5    1  0.3282316E-002  0.1250099E+03  0.7818608E-02  0.1235054E+00
          4   -1    0    0  501    0  0.00000000000E+00  0.00000000000E+00  0.22702801336E+03  0.22703156554E+03  0.12700000000E+01 0.  1.
         -4   -1    0    0    0  501 -0.00000000000E+00 -0.00000000000E+00 -0.17181640541E+02  0.17228513334E+02  0.12700000000E+01 0.  1.
         25    2    1    2    0    0  0.00000000000E+00  0.00000000000E+00  0.20984637282E+03  0.24426007888E+03  0.12500994339E+03 0.  0.
    9000005    1    3    3    0    0  0.16283428990E+02 -0.36677868011E+02  0.19853752351E+03  0.20255508956E+03  0.10000000000E+01 0.  0.
    9000005    1    3    3    0    0 -0.16283428990E+02  0.36677868011E+02  0.11308849308E+02  0.41704989320E+02  0.10000000000E+01 0.  0.
<mgrwt>
<rscale>  0 0.12500994E+03</rscale>
<asrwt>0</asrwt>
<pdfrwt beam="1">  1        4 0.34931264E-01 0.12500994E+03</pdfrwt>
<pdfrwt beam="2">  1       -4 0.26472083E-02 0.12500994E+03</pdfrwt>
<totfact> 0.83148540E+03</totfact>
</mgrwt>
</event>
<event>
 5    1  0.3282316E-002  0.1250450E+03  0.7818608E-02  0.1234999E+00
          4   -1    0    0  501    0  0.00000000000E+00  0.00000000000E+00  0.31198853779E+03  0.31199112265E+03  0.12700000000E+01 0. -1.
         -4   -1    0    0    0  501 -0.00000000000E+00 -0.00000000000E+00 -0.12494680733E+02  0.12559058350E+02  0.12700000000E+01 0. -1.
         25    2    1    2    0    0  0.00000000000E+00  0.00000000000E+00  0.29949385706E+03  0.32455018100E+03  0.12504499019E+03 0.  0.
    9000005    1    3    3    0    0  0.25759162522E+02 -0.41754119074E+02  0.25030651495E+03  0.25507115152E+03  0.10000000000E+01 0.  0.
    9000005    1    3    3    0    0 -0.25759162522E+02  0.41754119074E+02  0.49187342110E+02  0.69479029479E+02  0.10000000000E+01 0.  0.
<mgrwt>
<rscale>  0 0.12504499E+03</rscale>
<asrwt>0</asrwt>
<pdfrwt beam="1">  1        4 0.48003382E-01 0.12504499E+03</pdfrwt>
<pdfrwt beam="2">  1       -4 0.19274098E-02 0.12504499E+03</pdfrwt>
<totfact> 0.72545836E+03</totfact>
</mgrwt>
</event>
<event>
 5    1  0.3282316E-002  0.1250019E+03  0.7818608E-02  0.1235066E+00
         -4   -1    0    0    0  501 -0.00000000000E+00  0.00000000000E+00  0.19925304414E+03  0.19925709146E+03  0.12700000000E+01 0. -1.
          4   -1    0    0  501    0  0.00000000000E+00 -0.00000000000E+00 -0.19580257822E+02  0.19621401488E+02  0.12700000000E+01 0. -1.
         25    2    1    2    0    0  0.00000000000E+00  0.00000000000E+00  0.17967278631E+03  0.21887849295E+03  0.12500193812E+03 0.  0.
    9000005    1    3    3    0    0 -0.70881628939E+01 -0.44734567490E+02  0.14442691794E+02  0.47550130683E+02  0.10000000000E+01 0.  0.
    9000005    1    3    3    0    0  0.70881628939E+01  0.44734567490E+02  0.16523009452E+03  0.17132836227E+03  0.10000000000E+01 0.  0.
<mgrwt>
<rscale>  0 0.12500194E+03</rscale>
<asrwt>0</asrwt>
<pdfrwt beam="2">  1        4 0.30158237E-02 0.12500194E+03</pdfrwt>
<pdfrwt beam="1">  1       -4 0.30657790E-01 0.12500194E+03</pdfrwt>
<totfact> 0.87042357E+03</totfact>
</mgrwt>
</event>
<event>
 5    1  0.3282316E-002  0.1249974E+03  0.7818608E-02  0.1235073E+00
         -4   -1    0    0    0  501 -0.00000000000E+00  0.00000000000E+00  0.47279094781E+02  0.47296148927E+02  0.12700000000E+01 0.  1.
          4   -1    0    0  501    0  0.00000000000E+00 -0.00000000000E+00 -0.82580804853E+02  0.82590569862E+02  0.12700000000E+01 0.  1.
         25    2    1    2    0    0  0.00000000000E+00  0.00000000000E+00 -0.35301710072E+02  0.12988671879E+03  0.12499739591E+03 0.  0.
    9000005    1    3    3    0    0 -0.43311009639E+02 -0.44898680440E+02 -0.13853860724E+02  0.63911380193E+02  0.10000000000E+01 0.  0.
    9000005    1    3    3    0    0  0.43311009639E+02  0.44898680440E+02 -0.21447849349E+02  0.65975338596E+02  0.10000000000E+01 0.  0.
<mgrwt>
<rscale>  0 0.12499740E+03</rscale>
<asrwt>0</asrwt>
<pdfrwt beam="2">  1        4 0.12706802E-01 0.12499740E+03</pdfrwt>
<pdfrwt beam="1">  1       -4 0.72757699E-02 0.12499740E+03</pdfrwt>
<totfact> 0.10347540E+04</totfact>
</mgrwt>
</event>
<event>
 5    1  0.3282316E-002  0.1250184E+03  0.7818608E-02  0.1235041E+00
          4   -1    0    0  501    0  0.00000000000E+00  0.00000000000E+00  0.27033004588E+03  0.27033302907E+03  0.12700000000E+01 0. -1.
         -4   -1    0    0    0  501 -0.00000000000E+00 -0.00000000000E+00 -0.14423220698E+02  0.14479026048E+02  0.12700000000E+01 0. -1.
         25    2    1    2    0    0  0.00000000000E+00  0.00000000000E+00  0.25590682518E+03  0.28481205512E+03  0.12501841291E+03 0.  0.
    9000005    1    3    3    0    0  0.45574342997E+02  0.39719436417E+02  0.91806923027E+02  0.10992800137E+03  0.10000000000E+01 0.  0.
    9000005    1    3    3    0    0 -0.45574342997E+02 -0.39719436417E+02  0.16409990215E+03  0.17488405375E+03  0.10000000000E+01 0.  0.
<mgrwt>
<rscale>  0 0.12501841E+03</rscale>
<asrwt>0</asrwt>
<pdfrwt beam="1">  1        4 0.41593760E-01 0.12501841E+03</pdfrwt>
<pdfrwt beam="2">  1       -4 0.22234792E-02 0.12501841E+03</pdfrwt>
<totfact> 0.77512637E+03</totfact>
</mgrwt>
</event>
<event>
 5    1  0.3282316E-002  0.1250115E+03  0.7818608E-02  0.1235051E+00
         -4   -1    0    0    0  501 -0.00000000000E+00  0.00000000000E+00  0.29222132114E+02  0.29249716328E+02  0.12700000000E+01 0.  1.
          4   -1    0    0  501    0  0.00000000000E+00 -0.00000000000E+00 -0.13360523985E+03  0.13361127578E+03  0.12700000000E+01 0.  1.
         25    2    1    2    0    0  0.00000000000E+00  0.00000000000E+00 -0.10438310774E+03  0.16286099211E+03  0.12501147775E+03 0.  0.
    9000005    1    3    3    0    0  0.55135238770E+01  0.20756281166E+02 -0.12865356933E+03  0.13043758298E+03  0.10000000000E+01 0.  0.
    9000005    1    3    3    0    0 -0.55135238770E+01 -0.20756281166E+02  0.24270461592E+02  0.32423409125E+02  0.10000000000E+01 0.  0.
<mgrwt>
<rscale>  0 0.12501148E+03</rscale>
<asrwt>0</asrwt>
<pdfrwt beam="2">  1        4 0.20557238E-01 0.12501148E+03</pdfrwt>
<pdfrwt beam="1">  1       -4 0.44982989E-02 0.12501148E+03</pdfrwt>
<totfact> 0.96769067E+03</totfact>
</mgrwt>
</event>
<event>
 5    1  0.3282316E-002  0.1250025E+03  0.7818608E-02  0.1235065E+00
         -4   -1    0    0    0  501 -0.00000000000E+00  0.00000000000E+00  0.23988971489E+02  0.24022565497E+02  0.12700000000E+01 0.  1.
          4   -1    0    0  501    0  0.00000000000E+00 -0.00000000000E+00 -0.16269184834E+03  0.16269680518E+03  0.12700000000E+01 0.  1.
         25    2    1    2    0    0  0.00000000000E+00  0.00000000000E+00 -0.13870287685E+03  0.18671937067E+03  0.12500254133E+03 0.  0.
    9000005    1    3    3    0    0  0.54250307055E+02  0.17070347256E+02 -0.10804196963E+03  0.12210061332E+03  0.10000000000E+01 0.  0.
    9000005    1    3    3    0    0 -0.54250307055E+02 -0.17070347256E+02 -0.30660907216E+02  0.64618757356E+02  0.10000000000E+01 0.  0.
<mgrwt>
<rscale>  0 0.12500254E+03</rscale>
<asrwt>0</asrwt>
<pdfrwt beam="2">  1        4 0.25032480E-01 0.12500254E+03</pdfrwt>
<pdfrwt beam="1">  1       -4 0.36935765E-02 0.12500254E+03</pdfrwt>
<totfact> 0.92416025E+03</totfact>
</mgrwt>
</event>
<event>
 5    1  0.3282316E-002  0.1249987E+03  0.7818608E-02  0.1235071E+00
         -4   -1    0    0    0  501 -0.00000000000E+00  0.00000000000E+00  0.25654110138E+01  0.28625571906E+01  0.12700000000E+01 0. -1.
          4   -1    0    0  501    0  0.00000000000E+00 -0.00000000000E+00 -0.14389770521E+04  0.14389776125E+04  0.12700000000E+01 0. -1.
         25    2    1    2    0    0  0.00000000000E+00  0.00000000000E+00 -0.14364116410E+04  0.14418401697E+04  0.12499868951E+03 0.  0.
    9000005    1    3    3    0    0 -0.25001765856E+02  0.51525787382E+02 -0.10066167933E+04  0.10082451902E+04  0.10000000000E+01 0.  0.
    9000005    1    3    3    0    0  0.25001765856E+02 -0.51525787382E+02 -0.42979484779E+03  0.43359497950E+03  0.10000000000E+01 0.  0.
<mgrwt>
<rscale>  0 0.12499869E+03</rscale>
<asrwt>0</asrwt>
<pdfrwt beam="2">  1        4 0.22140338E+00 0.12499869E+03</pdfrwt>
<pdfrwt beam="1">  1       -4 0.41758028E-03 0.12499869E+03</pdfrwt>
<totfact> 0.19101113E+03</totfact>
</mgrwt>
</event>
<event>
 5    1  0.3282316E-002  0.1249996E+03  0.7818608E-02  0.1235070E+00
         -4   -1    0    0    0  501 -0.00000000000E+00  0.00000000000E+00  0.80882015206E+01  0.81873013770E+01  0.12700000000E+01 0.  1.
          4   -1    0    0  501    0  0.00000000000E+00 -0.00000000000E+00 -0.47991257140E+03  0.47991425181E+03  0.12700000000E+01 0.  1.
         25    2    1    2    0    0  0.00000000000E+00  0.00000000000E+00 -0.47182436988E+03  0.48810155319E+03  0.12499956084E+03 0.  0.
    9000005    1    3    3    0    0  0.35808352448E+02 -0.21755709384E+02 -0.54866591194E+02  0.69042681184E+02  0.10000000000E+01 0.  0.
    9000005    1    3    3    0    0 -0.35808352448E+02  0.21755709384E+02 -0.41695777869E+03  0.41905887200E+03  0.10000000000E+01 0.  0.
<mgrwt>
<rscale>  0 0.12499956E+03</rscale>
<asrwt>0</asrwt>
<pdfrwt beam="2">  1        4 0.73840434E-01 0.12499956E+03</pdfrwt>
<pdfrwt beam="1">  1       -4 0.12520914E-02 0.12499956E+03</pdfrwt>
<totfact> 0.56800061E+03</totfact>
</mgrwt>
</event>
<event>
 5    1  0.3282316E-002  0.1250015E+03  0.7818608E-02  0.1235067E+00
         -4   -1    0    0    0  501 -0.00000000000E+00  0.00000000000E+00  0.29430719918E+01  0.32053974400E+01  0.12700000000E+01 0. -1.
          4   -1    0    0  501    0  0.00000000000E+00 -0.00000000000E+00 -0.12704098707E+04  0.12704105055E+04  0.12700000000E+01 0. -1.
         25    2    1    2    0    0  0.00000000000E+00  0.00000000000E+00 -0.12674667987E+04  0.12736159030E+04  0.12500152952E+03 0.  0.
    9000005    1    3    3    0    0 -0.46016416074E+02 -0.42282688514E+02 -0.63275087530E+03  0.63583017111E+03  0.10000000000E+01 0.  0.
    9000005    1    3    3    0    0  0.46016416074E+02  0.42282688514E+02 -0.63471592343E+03  0.63778573185E+03  0.10000000000E+01 0.  0.
<mgrwt>
<rscale>  0 0.12500153E+03</rscale>
<asrwt>0</asrwt>
<pdfrwt beam="2">  1        4 0.19546748E+00 0.12500153E+03</pdfrwt>
<pdfrwt beam="1">  1       -4 0.47300903E-03 0.12500153E+03</pdfrwt>
<totfact> 0.22859223E+03</totfact>
</mgrwt>
</event>
<event>
 5    1  0.3282316E-002  0.1249973E+03  0.7818608E-02  0.1235073E+00
          4   -1    0    0  501    0  0.00000000000E+00  0.00000000000E+00  0.24967055291E+01  0.28011494960E+01  0.12700000000E+01 0.  1.
         -4   -1    0    0    0  501 -0.00000000000E+00 -0.00000000000E+00 -0.14742857827E+04  0.14742863297E+04  0.12700000000E+01 0.  1.
         25    2    1    2    0    0  0.00000000000E+00  0.00000000000E+00 -0.14717890772E+04  0.14770874792E+04  0.12499733417E+03 0.  0.
    9000005    1    3    3    0    0 -0.48590027811E+01  0.42660823937E+02 -0.19935708888E+03  0.20393088215E+03  0.10000000000E+01 0.  0.
    9000005    1    3    3    0    0  0.48590027811E+01 -0.42660823937E+02 -0.12724319883E+04  0.12731565970E+04  0.10000000000E+01 0.  0.
<mgrwt>
<rscale>  0 0.12499733E+03</rscale>
<asrwt>0</asrwt>
<pdfrwt beam="1">  1        4 0.40757057E-03 0.12499733E+03</pdfrwt>
<pdfrwt beam="2">  1       -4 0.22683600E+00 0.12499733E+03</pdfrwt>
<totfact> 0.18385827E+03</totfact>
</mgrwt>
</event>
<event>
 5    1  0.3282316E-002  0.1250053E+03  0.7818608E-02  0.1235061E+00
          4   -1    0    0  501    0  0.00000000000E+00  0.00000000000E+00  0.97277854945E+01  0.98103369273E+01  0.12700000000E+01 0.  1.
         -4   -1    0    0    0  501 -0.00000000000E+00 -0.00000000000E+00 -0.39980951460E+03  0.39981153168E+03  0.12700000000E+01 0.  1.
         25    2    1    2    0    0  0.00000000000E+00  0.00000000000E+00 -0.39008172910E+03  0.40962186861E+03  0.12500527933E+03 0.  0.
    9000005    1    3    3    0    0  0.43054801428E+02  0.45189112740E+02 -0.18477849010E+03  0.19503810458E+03  0.10000000000E+01 0.  0.
    9000005    1    3    3    0    0 -0.43054801428E+02 -0.45189112740E+02 -0.20530323901E+03  0.21458376402E+03  0.10000000000E+01 0.  0.
<mgrwt>
<rscale>  0 0.12500528E+03</rscale>
<asrwt>0</asrwt>
<pdfrwt beam="1">  1        4 0.15030880E-02 0.12500528E+03</pdfrwt>
<pdfrwt beam="2">  1       -4 0.61515649E-01 0.12500528E+03</pdfrwt>
<totfact> 0.63620207E+03</totfact>
</mgrwt>
</event>
<event>
 4    1  0.3282316E-002  0.1250766E+03  0.7818608E-02  0.1234950E+00
         -4   -1    0    0    0  501 -0.00000000000E+00  0.00000000000E+00  0.12710661953E+04  0.12710668297E+04  0.12700000000E+01 0. -1.
          4   -1    0    0  501    0  0.00000000000E+00 -0.00000000000E+00 -0.29452650983E+01  0.32074111834E+01  0.12700000000E+01 0. -1.
    9000005    1    1    2    0    0  0.45510939480E+02  0.24673808390E+02  0.99136500022E+03  0.99271627674E+03  0.10000000000E+01 0.  0.
    9000005    1    1    2    0    0 -0.45510939480E+02 -0.24673808390E+02  0.27675592993E+03  0.28155796416E+03  0.10000000000E+01 0.  0.
<mgrwt>
<rscale>  0 0.12507657E+03</rscale>
<asrwt>0</asrwt>
<pdfrwt beam="2">  1        4 0.47333142E-03 0.12507657E+03</pdfrwt>
<pdfrwt beam="1">  1       -4 0.19556893E+00 0.12507657E+03</pdfrwt>
<totfact> 0.22805814E+03</totfact>
</mgrwt>
</event>
<event>
 5    1  0.3282316E-002  0.1250001E+03  0.7818608E-02  0.1235069E+00
          4   -1    0    0  501    0  0.00000000000E+00  0.00000000000E+00  0.12702856755E+04  0.12702863104E+04  0.12700000000E+01 0.  1.
         -4   -1    0    0    0  501 -0.00000000000E+00 -0.00000000000E+00 -0.29433133050E+01  0.32056190059E+01  0.12700000000E+01 0.  1.
         25    2    1    2    0    0  0.00000000000E+00  0.00000000000E+00  0.12673423622E+04  0.12734919294E+04  0.12500012455E+03 0.  0.
    9000005    1    3    3    0    0 -0.30802070839E+01 -0.57860856282E+02  0.87214076874E+03  0.87406400616E+03  0.10000000000E+01 0.  0.
    9000005    1    3    3    0    0  0.30802070839E+01  0.57860856282E+02  0.39520159348E+03  0.39942792323E+03  0.10000000000E+01 0.  0.
<mgrwt>
<rscale>  0 0.12500012E+03</rscale>
<asrwt>0</asrwt>
<pdfrwt beam="1">  1        4 0.19544832E+00 0.12500012E+03</pdfrwt>
<pdfrwt beam="2">  1       -4 0.47304477E-03 0.12500012E+03</pdfrwt>
<totfact> 0.22862940E+03</totfact>
</mgrwt>
</event>
<event>
 5    1  0.3282316E-002  0.1250017E+03  0.7818608E-02  0.1235067E+00
         -4   -1    0    0    0  501 -0.00000000000E+00  0.00000000000E+00  0.12904743546E+03  0.12905368456E+03  0.12700000000E+01 0.  1.
          4   -1    0    0  501    0  0.00000000000E+00 -0.00000000000E+00 -0.30250398928E+02  0.30277046344E+02  0.12700000000E+01 0.  1.
         25    2    1    2    0    0  0.00000000000E+00  0.00000000000E+00  0.98797036535E+02  0.15933073091E+03  0.12500170952E+03 0.  0.
    9000005    1    3    3    0    0 -0.42777501414E+00  0.20965057019E+02  0.12443549618E+03  0.12619393534E+03  0.10000000000E+01 0.  0.
    9000005    1    3    3    0    0  0.42777501414E+00 -0.20965057019E+02 -0.25638459647E+02  0.33136795566E+02  0.10000000000E+01 0.  0.
<mgrwt>
<rscale>  0 0.12500171E+03</rscale>
<asrwt>0</asrwt>
<pdfrwt beam="2">  1        4 0.46564380E-02 0.12500171E+03</pdfrwt>
<pdfrwt beam="1">  1       -4 0.19855982E-01 0.12500171E+03</pdfrwt>
<totfact> 0.97468224E+03</totfact>
</mgrwt>
</event>
<event>
 5    1  0.3282316E-002  0.1250017E+03  0.7818608E-02  0.1235067E+00
         -4   -1    0    0    0  501 -0.00000000000E+00  0.00000000000E+00  0.24394751729E+02  0.24427787700E+02  0.12700000000E+01 0.  1.
          4   -1    0    0  501    0  0.00000000000E+00 -0.00000000000E+00 -0.15998718358E+03  0.15999222422E+03  0.12700000000E+01 0.  1.
         25    2    1    2    0    0  0.00000000000E+00  0.00000000000E+00 -0.13559243185E+03  0.18442001192E+03  0.12500173287E+03 0.  0.
    9000005    1    3    3    0    0  0.18401055405E+02 -0.59057388604E+02 -0.80908019787E+02  0.10185029040E+03  0.10000000000E+01 0.  0.
    9000005    1    3    3    0    0 -0.18401055405E+02  0.59057388604E+02 -0.54684412065E+02  0.82569721518E+02  0.10000000000E+01 0.  0.
<mgrwt>
<rscale>  0 0.12500173E+03</rscale>
<asrwt>0</asrwt>
<pdfrwt beam="2">  1        4 0.24616341E-01 0.12500173E+03</pdfrwt>
<pdfrwt beam="1">  1       -4 0.37559678E-02 0.12500173E+03</pdfrwt>
<totfact> 0.92823778E+03</totfact>
</mgrwt>
</event>
<event>
 5    1  0.3282316E-002  0.1249988E+03  0.7818608E-02  0.1235071E+00
         -4   -1    0    0    0  501 -0.00000000000E+00  0.00000000000E+00  0.79010427328E+02  0.79020633550E+02  0.12700000000E+01 0.  1.
          4   -1    0    0  501    0  0.00000000000E+00 -0.00000000000E+00 -0.49417149913E+02  0.49433466452E+02  0.12700000000E+01 0.  1.
         25    2    1    2    0    0  0.00000000000E+00  0.00000000000E+00  0.29593277416E+02  0.12845410000E+03  0.12499877495E+03 0.  0.
    9000005    1    3    3    0    0 -0.39702978175E+02 -0.25018395246E+02  0.57203898567E+02  0.73996841743E+02  0.10000000000E+01 0.  0.
    9000005    1    3    3    0    0  0.39702978175E+02  0.25018395246E+02 -0.27610621151E+02  0.54457258259E+02  0.10000000000E+01 0.  0.
<mgrwt>
<rscale>  0 0.12499877E+03</rscale>
<asrwt>0</asrwt>
<pdfrwt beam="2">  1        4 0.76046787E-02 0.12499877E+03</pdfrwt>
<pdfrwt beam="1">  1       -4 0.12157490E-01 0.12499877E+03</pdfrwt>
<totfact> 0.10377980E+04</totfact>
</mgrwt>
</event>
<event>
 5    1  0.3282316E-002  0.1250058E+03  0.7818608E-02  0.1235060E+00
         -4   -1    0    0    0  501 -0.00000000000E+00  0.00000000000E+00  0.19860363459E+02  0.19900928037E+02  0.12700000000E+01 0.  1.
          4   -1    0    0  501    0  0.00000000000E+00 -0.00000000000E+00 -0.19646065023E+03  0.19646475508E+03  0.12700000000E+01 0.  1.
         25    2    1    2    0    0  0.00000000000E+00  0.00000000000E+00 -0.17660028677E+03  0.21636568312E+03  0.12500579004E+03 0.  0.
    9000005    1    3    3    0    0  0.49719643834E+02  0.36308374901E+02 -0.10688323350E+03  0.12335058441E+03  0.10000000000E+01 0.  0.
    9000005    1    3    3    0    0 -0.49719643834E+02 -0.36308374901E+02 -0.69717053278E+02  0.93015098713E+02  0.10000000000E+01 0.  0.
<mgrwt>
<rscale>  0 0.12500579E+03</rscale>
<asrwt>0</asrwt>
<pdfrwt beam="2">  1        4 0.30228150E-01 0.12500579E+03</pdfrwt>
<pdfrwt beam="1">  1       -4 0.30588768E-02 0.12500579E+03</pdfrwt>
<totfact> 0.87435408E+03</totfact>
</mgrwt>
</event>
<event>
 5    1  0.3282316E-002  0.1250054E+03  0.7818608E-02  0.1235061E+00
          4   -1    0    0  501    0  0.00000000000E+00  0.00000000000E+00  0.16049104689E+03  0.16049607170E+03  0.12700000000E+01 0.  1.
         -4   -1    0    0    0  501 -0.00000000000E+00 -0.00000000000E+00 -0.24319487374E+02  0.24352625447E+02  0.12700000000E+01 0.  1.
         25    2    1    2    0    0  0.00000000000E+00  0.00000000000E+00  0.13617155951E+03  0.18484869715E+03  0.12500538875E+03 0.  0.
    9000005    1    3    3    0    0  0.59164358319E+02  0.16831700259E+02  0.84409424419E+02  0.10444940574E+03  0.10000000000E+01 0.  0.
    9000005    1    3    3    0    0 -0.59164358319E+02 -0.16831700259E+02  0.51762135093E+02  0.80399291404E+02  0.10000000000E+01 0.  0.
<mgrwt>
<rscale>  0 0.12500539E+03</rscale>
<asrwt>0</asrwt>
<pdfrwt beam="1">  1        4 0.24693867E-01 0.12500539E+03</pdfrwt>
<pdfrwt beam="2">  1       -4 0.37443950E-02 0.12500539E+03</pdfrwt>
<totfact> 0.92740229E+03</totfact>
</mgrwt>
</event>
<event>
 5    1  0.3282316E-002  0.1249994E+03  0.7818608E-02  0.1235070E+00
          4   -1    0    0  501    0  0.00000000000E+00  0.00000000000E+00  0.80404728746E+02  0.80414758003E+02  0.12700000000E+01 0.  1.
         -4   -1    0    0    0  501 -0.00000000000E+00 -0.00000000000E+00 -0.48560544798E+02  0.48577149062E+02  0.12700000000E+01 0.  1.
         25    2    1    2    0    0  0.00000000000E+00  0.00000000000E+00  0.31844183948E+02  0.12899190707E+03  0.12499944015E+03 0.  0.
    9000005    1    3    3    0    0  0.49376579795E+01  0.53518859750E+02  0.48824086613E+02  0.72618456668E+02  0.10000000000E+01 0.  0.
    9000005    1    3    3    0    0 -0.49376579795E+01 -0.53518859750E+02 -0.16979902665E+02  0.56373450398E+02  0.10000000000E+01 0.  0.
<mgrwt>
<rscale>  0 0.12499944E+03</rscale>
<asrwt>0</asrwt>
<pdfrwt beam="1">  1        4 0.12372007E-01 0.12499944E+03</pdfrwt>
<pdfrwt beam="2">  1       -4 0.74729018E-02 0.12499944E+03</pdfrwt>
<totfact> 0.10366252E+04</totfact>
</mgrwt>
</event>
<event>
 5    1  0.3282316E-002  0.1250005E+03  0.7818608E-02  0.1235068E+00
          4   -1    0    0  501    0  0.00000000000E+00  0.00000000000E+00  0.46914628006E+02  0.46931814593E+02  0.12700000000E+01 0.  1.
         -4   -1    0    0    0  501 -0.00000000000E+00 -0.00000000000E+00 -0.83226376669E+02  0.83236065941E+02  0.12700000000E+01 0.  1.
         25    2    1    2    0    0  0.00000000000E+00  0.00000000000E+00 -0.36311748662E+02  0.13016788053E+03  0.12500053613E+03 0.  0.
    9000005    1    3    3    0    0 -0.76378957745E+01  0.21355922657E+01  0.46393556017E+02  0.47077173302E+02  0.10000000000E+01 0.  0.
    9000005    1    3    3    0    0  0.76378957745E+01 -0.21355922657E+01 -0.82705304680E+02  0.83090707232E+02  0.10000000000E+01 0.  0.
<mgrwt>
<rscale>  0 0.12500054E+03</rscale>
<asrwt>0</asrwt>
<pdfrwt beam="1">  1        4 0.72197025E-02 0.12500054E+03</pdfrwt>
<pdfrwt beam="2">  1       -4 0.12806125E-01 0.12500054E+03</pdfrwt>
<totfact> 0.10340792E+04</totfact>
</mgrwt>
</event>
<event>
 5    1  0.3282316E-002  0.1250133E+03  0.7818608E-02  0.1235048E+00
          4   -1    0    0  501    0  0.00000000000E+00  0.00000000000E+00  0.29660454021E+03  0.29660725914E+03  0.12700000000E+01 0. -1.
         -4   -1    0    0    0  501 -0.00000000000E+00 -0.00000000000E+00 -0.13139300414E+02  0.13200534662E+02  0.12700000000E+01 0. -1.
         25    2    1    2    0    0  0.00000000000E+00  0.00000000000E+00  0.28346523980E+03  0.30980779380E+03  0.12501330700E+03 0.  0.
    9000005    1    3    3    0    0  0.37469306102E+02 -0.36390804106E+02  0.56681575308E+02  0.77084632078E+02  0.10000000000E+01 0.  0.
    9000005    1    3    3    0    0 -0.37469306102E+02  0.36390804106E+02  0.22678366449E+03  0.23272316172E+03  0.10000000000E+01 0.  0.
<mgrwt>
<rscale>  0 0.12501331E+03</rscale>
<asrwt>0</asrwt>
<pdfrwt beam="1">  1        4 0.45636386E-01 0.12501331E+03</pdfrwt>
<pdfrwt beam="2">  1       -4 0.20263503E-02 0.12501331E+03</pdfrwt>
<totfact> 0.74362853E+03</totfact>
</mgrwt>
</event>
<event>
 5    1  0.3282316E-002  0.1249894E+03  0.7818608E-02  0.1235086E+00
          4   -1    0    0  501    0  0.00000000000E+00  0.00000000000E+00  0.14927068077E+03  0.14927608328E+03  0.12700000000E+01 0. -1.
         -4   -1    0    0    0  501 -0.00000000000E+00 -0.00000000000E+00 -0.26143187817E+02  0.26174017063E+02  0.12700000000E+01 0. -1.
         25    2    1    2    0    0  0.00000000000E+00  0.00000000000E+00  0.12312749296E+03  0.17545010034E+03  0.12498943230E+03 0.  0.
    9000005    1    3    3    0    0 -0.35532433972E+02  0.43352133049E+02  0.22799016084E+02  0.60520710821E+02  0.10000000000E+01 0.  0.
    9000005    1    3    3    0    0  0.35532433972E+02 -0.43352133049E+02  0.10032847687E+03  0.11492938952E+03  0.10000000000E+01 0.  0.
<mgrwt>
<rscale>  0 0.12498943E+03</rscale>
<asrwt>0</asrwt>
<pdfrwt beam="1">  1        4 0.22967507E-01 0.12498943E+03</pdfrwt>
<pdfrwt beam="2">  1       -4 0.40248160E-02 0.12498943E+03</pdfrwt>
<totfact> 0.94464862E+03</totfact>
</mgrwt>
</event>
<event>
 5    1  0.3282316E-002  0.1250064E+03  0.7818608E-02  0.1235059E+00
          4   -1    0    0  501    0  0.00000000000E+00  0.00000000000E+00  0.25989411694E+02  0.26020423137E+02  0.12700000000E+01 0. -1.
         -4   -1    0    0    0  501 -0.00000000000E+00 -0.00000000000E+00 -0.15019356829E+03  0.15019893760E+03  0.12700000000E+01 0. -1.
         25    2    1    2    0    0  0.00000000000E+00  0.00000000000E+00 -0.12420415660E+03  0.17621936074E+03  0.12500636217E+03 0.  0.
    9000005    1    3    3    0    0 -0.95904662112E+01  0.49961188276E+02 -0.10933293670E+02  0.52044541371E+02  0.10000000000E+01 0.  0.
    9000005    1    3    3    0    0  0.95904662112E+01 -0.49961188276E+02 -0.11327086293E+03  0.12417481936E+03  0.10000000000E+01 0.  0.
<mgrwt>
<rscale>  0 0.12500636E+03</rscale>
<asrwt>0</asrwt>
<pdfrwt beam="1">  1        4 0.40011696E-02 0.12500636E+03</pdfrwt>
<pdfrwt beam="2">  1       -4 0.23109501E-01 0.12500636E+03</pdfrwt>
<totfact> 0.94288535E+03</totfact>
</mgrwt>
</event>
<event>
 5    1  0.3282316E-002  0.1249951E+03  0.7818608E-02  0.1235077E+00
         -4   -1    0    0    0  501 -0.00000000000E+00  0.00000000000E+00  0.21187151223E+02  0.21225180257E+02  0.12700000000E+01 0. -1.
          4   -1    0    0  501    0  0.00000000000E+00 -0.00000000000E+00 -0.18414870565E+03  0.18415308493E+03  0.12700000000E+01 0. -1.
         25    2    1    2    0    0  0.00000000000E+00  0.00000000000E+00 -0.16296155442E+03  0.20537826519E+03  0.12499505427E+03 0.  0.
    9000005    1    3    3    0    0  0.59188004507E+02  0.18733874653E+02 -0.93187494370E+02  0.11197806501E+03  0.10000000000E+01 0.  0.
    9000005    1    3    3    0    0 -0.59188004507E+02 -0.18733874653E+02 -0.69774060053E+02  0.93400200179E+02  0.10000000000E+01 0.  0.
<mgrwt>
<rscale>  0 0.12499505E+03</rscale>
<asrwt>0</asrwt>
<pdfrwt beam="2">  1        4 0.28333831E-01 0.12499505E+03</pdfrwt>
<pdfrwt beam="1">  1       -4 0.32628240E-02 0.12499505E+03</pdfrwt>
<totfact> 0.89246149E+03</totfact>
</mgrwt>
</event>
<event>
 5    1  0.3282316E-002  0.1249994E+03  0.7818608E-02  0.1235070E+00
          4   -1    0    0  501    0  0.00000000000E+00  0.00000000000E+00  0.48768245182E+02  0.48784778755E+02  0.12700000000E+01 0. -1.
         -4   -1    0    0    0  501 -0.00000000000E+00 -0.00000000000E+00 -0.80062260864E+02  0.80072333016E+02  0.12700000000E+01 0. -1.
         25    2    1    2    0    0  0.00000000000E+00  0.00000000000E+00 -0.31294015682E+02  0.12885711177E+03  0.12499935934E+03 0.  0.
    9000005    1    3    3    0    0 -0.15251370487E+02  0.50111363888E+02 -0.50778949152E+02  0.72960638494E+02  0.10000000000E+01 0.  0.
    9000005    1    3    3    0    0  0.15251370487E+02 -0.50111363888E+02  0.19484933470E+02  0.55896473277E+02  0.10000000000E+01 0.  0.
<mgrwt>
<rscale>  0 0.12499936E+03</rscale>
<asrwt>0</asrwt>
<pdfrwt beam="1">  1        4 0.75048536E-02 0.12499936E+03</pdfrwt>
<pdfrwt beam="2">  1       -4 0.12319317E-01 0.12499936E+03</pdfrwt>
<totfact> 0.10369168E+04</totfact>
</mgrwt>
</event>
<event>
 5    1  0.3282316E-002  0.1250024E+03  0.7818608E-02  0.1235066E+00
         -4   -1    0    0    0  501 -0.00000000000E+00  0.00000000000E+00  0.34299525172E+02  0.34323029107E+02  0.12700000000E+01 0. -1.
          4   -1    0    0  501    0  0.00000000000E+00 -0.00000000000E+00 -0.11382469922E+03  0.11383178402E+03  0.12700000000E+01 0. -1.
         25    2    1    2    0    0  0.00000000000E+00  0.00000000000E+00 -0.79525174048E+02  0.14815481312E+03  0.12500238136E+03 0.  0.
    9000005    1    3    3    0    0 -0.56840601850E+02 -0.17778771586E+02 -0.17322843533E+02  0.62032408029E+02  0.10000000000E+01 0.  0.
    9000005    1    3    3    0    0  0.56840601850E+02  0.17778771586E+02 -0.62202330515E+02  0.86122405095E+02  0.10000000000E+01 0.  0.
<mgrwt>
<rscale>  0 0.12500238E+03</rscale>
<asrwt>0</asrwt>
<pdfrwt beam="2">  1        4 0.17513845E-01 0.12500238E+03</pdfrwt>
<pdfrwt beam="1">  1       -4 0.52792030E-02 0.12500238E+03</pdfrwt>
<totfact> 0.99667445E+03</totfact>
</mgrwt>
</event>
<event>
 5    1  0.3282316E-002  0.1249886E+03  0.7818608E-02  0.1235087E+00
          4   -1    0    0  501    0  0.00000000000E+00  0.00000000000E+00  0.34962266336E+03  0.34962496999E+03  0.12700000000E+01 0. -1.
         -4   -1    0    0    0  501 -0.00000000000E+00 -0.00000000000E+00 -0.11132270413E+02  0.11204478772E+02  0.12700000000E+01 0. -1.
         25    2    1    2    0    0  0.00000000000E+00  0.00000000000E+00  0.33849039295E+03  0.36082944876E+03  0.12498857936E+03 0.  0.
    9000005    1    3    3    0    0  0.22934666586E+01 -0.56306779136E+02  0.91308383752E+02  0.10730300233E+03  0.10000000000E+01 0.  0.
    9000005    1    3    3    0    0 -0.22934666586E+01  0.56306779136E+02  0.24718200920E+03  0.25352644643E+03  0.10000000000E+01 0.  0.
<mgrwt>
<rscale>  0 0.12498858E+03</rscale>
<asrwt>0</asrwt>
<pdfrwt beam="1">  1        4 0.53793835E-01 0.12498858E+03</pdfrwt>
<pdfrwt beam="2">  1       -4 0.17183889E-02 0.12498858E+03</pdfrwt>
<totfact> 0.68566704E+03</totfact>
</mgrwt>
</event>
<event>
 5    1  0.3282316E-002  0.1250016E+03  0.7818608E-02  0.1235067E+00
         -4   -1    0    0    0  501 -0.00000000000E+00  0.00000000000E+00  0.13923560256E+03  0.13924139442E+03  0.12700000000E+01 0.  1.
          4   -1    0    0  501    0  0.00000000000E+00 -0.00000000000E+00 -0.28034911068E+02  0.28063662245E+02  0.12700000000E+01 0.  1.
         25    2    1    2    0    0  0.00000000000E+00  0.00000000000E+00  0.11120069149E+03  0.16730505667E+03  0.12500155278E+03 0.  0.
    9000005    1    3    3    0    0  0.58435709628E+02  0.10437204790E+02  0.29452063760E+02  0.66272856157E+02  0.10000000000E+01 0.  0.
    9000005    1    3    3    0    0 -0.58435709628E+02 -0.10437204790E+02  0.81748627734E+02  0.10103220051E+03  0.10000000000E+01 0.  0.
<mgrwt>
<rscale>  0 0.12500155E+03</rscale>
<asrwt>0</asrwt>
<pdfrwt beam="2">  1        4 0.43157204E-02 0.12500155E+03</pdfrwt>
<pdfrwt beam="1">  1       -4 0.21423519E-01 0.12500155E+03</pdfrwt>
<totfact> 0.95949277E+03</totfact>
</mgrwt>
</event>
<event>
 5    1  0.3282316E-002  0.1250028E+03  0.7818608E-02  0.1235065E+00
          4   -1    0    0  501    0  0.00000000000E+00  0.00000000000E+00  0.83018847482E+02  0.83028560973E+02  0.12700000000E+01 0.  1.
         -4   -1    0    0    0  501 -0.00000000000E+00 -0.00000000000E+00 -0.47033605408E+02  0.47050748535E+02  0.12700000000E+01 0.  1.
         25    2    1    2    0    0  0.00000000000E+00  0.00000000000E+00  0.35985242073E+02  0.13007930951E+03  0.12500275643E+03 0.  0.
    9000005    1    3    3    0    0 -0.19550725370E+02 -0.50181109911E+02  0.50982593563E+02  0.74166026595E+02  0.10000000000E+01 0.  0.
    9000005    1    3    3    0    0  0.19550725370E+02  0.50181109911E+02 -0.14997351490E+02  0.55913282913E+02  0.10000000000E+01 0.  0.
<mgrwt>
<rscale>  0 0.12500276E+03</rscale>
<asrwt>0</asrwt>
<pdfrwt beam="1">  1        4 0.12774196E-01 0.12500276E+03</pdfrwt>
<pdfrwt beam="2">  1       -4 0.72380053E-02 0.12500276E+03</pdfrwt>
<totfact> 0.10342168E+04</totfact>
</mgrwt>
</event>
<event>
 5    1  0.3282316E-002  0.1249979E+03  0.7818608E-02  0.1235073E+00
         -4   -1    0    0    0  501 -0.00000000000E+00  0.00000000000E+00  0.21336122382E+02  0.21373886364E+02  0.12700000000E+01 0. -1.
          4   -1    0    0  501    0  0.00000000000E+00 -0.00000000000E+00 -0.18287354584E+03  0.18287795566E+03  0.12700000000E+01 0. -1.
         25    2    1    2    0    0  0.00000000000E+00  0.00000000000E+00 -0.16153742345E+03  0.20425184202E+03  0.12499790316E+03 0.  0.
    9000005    1    3    3    0    0  0.38033604654E+02 -0.81644722765E+01 -0.85243522428E+00  0.38922234473E+02  0.10000000000E+01 0.  0.
    9000005    1    3    3    0    0 -0.38033604654E+02  0.81644722765E+01 -0.16068498823E+03  0.16532960755E+03  0.10000000000E+01 0.  0.
<mgrwt>
<rscale>  0 0.12499790E+03</rscale>
<asrwt>0</asrwt>
<pdfrwt beam="2">  1        4 0.28137635E-01 0.12499790E+03</pdfrwt>
<pdfrwt beam="1">  1       -4 0.32857246E-02 0.12499790E+03</pdfrwt>
<totfact> 0.89427515E+03</totfact>
</mgrwt>
</event>
<event>
 5    1  0.3282316E-002  0.1249946E+03  0.7818608E-02  0.1235078E+00
          4   -1    0    0  501    0  0.00000000000E+00  0.00000000000E+00  0.12660881726E+03  0.12661518671E+03  0.12700000000E+01 0.  1.
         -4   -1    0    0    0  501 -0.00000000000E+00 -0.00000000000E+00 -0.30830027875E+02  0.30856174727E+02  0.12700000000E+01 0.  1.
         25    2    1    2    0    0  0.00000000000E+00  0.00000000000E+00  0.95778789380E+02  0.15747136144E+03  0.12499461260E+03 0.  0.
    9000005    1    3    3    0    0  0.25747668261E+02  0.71989962885E+01  0.11904604921E+03  0.12201528511E+03  0.10000000000E+01 0.  0.
    9000005    1    3    3    0    0 -0.25747668261E+02 -0.71989962885E+01 -0.23267259832E+02  0.35456076327E+02  0.10000000000E+01 0.  0.
<mgrwt>
<rscale>  0 0.12499461E+03</rscale>
<asrwt>0</asrwt>
<pdfrwt beam="1">  1        4 0.19480781E-01 0.12499461E+03</pdfrwt>
<pdfrwt beam="2">  1       -4 0.47455825E-02 0.12499461E+03</pdfrwt>
<totfact> 0.97844364E+03</totfact>
</mgrwt>
</event>
<event>
 5    1  0.3282316E-002  0.1249958E+03  0.7818608E-02  0.1235076E+00
          4   -1    0    0  501    0  0.00000000000E+00  0.00000000000E+00  0.77782825898E+01  0.78812803558E+01  0.12700000000E+01 0. -1.
         -4   -1    0    0    0  501 -0.00000000000E+00 -0.00000000000E+00 -0.49875919327E+03  0.49876081018E+03  0.12700000000E+01 0. -1.
         25    2    1    2    0    0  0.00000000000E+00  0.00000000000E+00 -0.49098091068E+03  0.50664209054E+03  0.12499581293E+03 0.  0.
    9000005    1    3    3    0    0  0.47993537804E+02 -0.33977553906E+02 -0.33119914951E+03  0.33638033604E+03  0.10000000000E+01 0.  0.
    9000005    1    3    3    0    0 -0.47993537804E+02  0.33977553906E+02 -0.15978176117E+03  0.17026175450E+03  0.10000000000E+01 0.  0.
<mgrwt>
<rscale>  0 0.12499581E+03</rscale>
<asrwt>0</asrwt>
<pdfrwt beam="1">  1        4 0.12047065E-02 0.12499581E+03</pdfrwt>
<pdfrwt beam="2">  1       -4 0.76740206E-01 0.12499581E+03</pdfrwt>
<totfact> 0.55357786E+03</totfact>
</mgrwt>
</event>
<event>
 5    1  0.3282316E-002  0.1249884E+03  0.7818608E-02  0.1235087E+00
          4   -1    0    0  501    0  0.00000000000E+00  0.00000000000E+00  0.75828596396E+02  0.75839230820E+02  0.12700000000E+01 0. -1.
         -4   -1    0    0    0  501 -0.00000000000E+00 -0.00000000000E+00 -0.51482582453E+02  0.51498244592E+02  0.12700000000E+01 0. -1.
         25    2    1    2    0    0  0.00000000000E+00  0.00000000000E+00  0.24346013943E+02  0.12733747541E+03  0.12498841646E+03 0.  0.
    9000005    1    3    3    0    0 -0.48885159828E+02 -0.28432487901E+02  0.39249959124E+02  0.68845657167E+02  0.10000000000E+01 0.  0.
    9000005    1    3    3    0    0  0.48885159828E+02  0.28432487901E+02 -0.14903945181E+02  0.58491818245E+02  0.10000000000E+01 0.  0.
<mgrwt>
<rscale>  0 0.12498842E+03</rscale>
<asrwt>0</asrwt>
<pdfrwt beam="1">  1        4 0.11667961E-01 0.12498842E+03</pdfrwt>
<pdfrwt beam="2">  1       -4 0.79224201E-02 0.12498842E+03</pdfrwt>
<totfact> 0.10404542E+04</totfact>
</mgrwt>
</event>
<event>
 4    1  0.3282316E-002  0.1250613E+03  0.7818608E-02  0.1234973E+00
         -4   -1    0    0    0  501 -0.00000000000E+00  0.00000000000E+00  0.65125017287E+02  0.65137399216E+02  0.12700000000E+01 0.  1.
          4   -1    0    0  501    0  0.00000000000E+00 -0.00000000000E+00 -0.60014834796E+02  0.60028270803E+02  0.12700000000E+01 0.  1.
    9000005    1    1    2    0    0  0.17474859467E+02 -0.51496536587E+02 -0.28322213724E+02  0.61322196504E+02  0.10000000000E+01 0.  0.
    9000005    1    1    2    0    0 -0.17474859467E+02  0.51496536587E+02  0.33432396214E+02  0.63843473515E+02  0.10000000000E+01 0.  0.
<mgrwt>
<rscale>  0 0.12506131E+03</rscale>
<asrwt>0</asrwt>
<pdfrwt beam="2">  1        4 0.92350376E-02 0.12506131E+03</pdfrwt>
<pdfrwt beam="1">  1       -4 0.10021219E-01 0.12506131E+03</pdfrwt>
<totfact> 0.10434800E+04</totfact>
</mgrwt>
</event>
<event>
 5    1  0.3282316E-002  0.1250078E+03  0.7818608E-02  0.1235057E+00
         -4   -1    0    0    0  501 -0.00000000000E+00  0.00000000000E+00  0.31758477605E+03  0.31758731536E+03  0.12700000000E+01 0.  1.
          4   -1    0    0  501    0  0.00000000000E+00 -0.00000000000E+00 -0.12266029424E+02  0.12331600782E+02  0.12700000000E+01 0.  1.
         25    2    1    2    0    0  0.00000000000E+00  0.00000000000E+00  0.30531874662E+03  0.32991891614E+03  0.12500781651E+03 0.  0.
    9000005    1    3    3    0    0  0.42524047751E+02 -0.25317007766E+02  0.25338135279E+03  0.25817117473E+03  0.10000000000E+01 0.  0.
    9000005    1    3    3    0    0 -0.42524047751E+02  0.25317007766E+02  0.51937393830E+02  0.71747741408E+02  0.10000000000E+01 0.  0.
<mgrwt>
<rscale>  0 0.12500782E+03</rscale>
<asrwt>0</asrwt>
<pdfrwt beam="2">  1        4 0.18923209E-02 0.12500782E+03</pdfrwt>
<pdfrwt beam="1">  1       -4 0.48864433E-01 0.12500782E+03</pdfrwt>
<totfact> 0.71979263E+03</totfact>
</mgrwt>
</event>
<event>
 5    1  0.3282316E-002  0.1250002E+03  0.7818608E-02  0.1235069E+00
         -4   -1    0    0    0  501 -0.00000000000E+00  0.00000000000E+00  0.12412132071E+02  0.12476935624E+02  0.12700000000E+01 0. -1.
          4   -1    0    0  501    0  0.00000000000E+00 -0.00000000000E+00 -0.31382762716E+03  0.31383019687E+03  0.12700000000E+01 0. -1.
         25    2    1    2    0    0  0.00000000000E+00  0.00000000000E+00 -0.30141549509E+03  0.32630713250E+03  0.12500017615E+03 0.  0.
    9000005    1    3    3    0    0 -0.13613285471E+02 -0.17729507053E+02  0.16319252534E+01  0.22434797563E+02  0.10000000000E+01 0.  0.
    9000005    1    3    3    0    0  0.13613285471E+02  0.17729507053E+02 -0.30304742034E+03  0.30387233493E+03  0.10000000000E+01 0.  0.
<mgrwt>
<rscale>  0 0.12500018E+03</rscale>
<asrwt>0</asrwt>
<pdfrwt beam="2">  1        4 0.48286350E-01 0.12500018E+03</pdfrwt>
<pdfrwt beam="1">  1       -4 0.19147416E-02 0.12500018E+03</pdfrwt>
<totfact> 0.72411922E+03</totfact>
</mgrwt>
</event>
<event>
 5    1  0.3282316E-002  0.1249961E+03  0.7818608E-02  0.1235075E+00
          4   -1    0    0  501    0  0.00000000000E+00  0.00000000000E+00  0.12743463156E+03  0.12744095975E+03  0.12700000000E+01 0.  1.
         -4   -1    0    0    0  501 -0.00000000000E+00 -0.00000000000E+00 -0.30630815332E+02  0.30657132089E+02  0.12700000000E+01 0.  1.
         25    2    1    2    0    0  0.00000000000E+00  0.00000000000E+00  0.96803816231E+02  0.15809809184E+03  0.12499611116E+03 0.  0.
    9000005    1    3    3    0    0 -0.36453008735E+02  0.19243185556E+02  0.10780671003E+03  0.11542273937E+03  0.10000000000E+01 0.  0.
    9000005    1    3    3    0    0  0.36453008735E+02 -0.19243185556E+02 -0.11002893800E+02  0.42675352467E+02  0.10000000000E+01 0.  0.
<mgrwt>
<rscale>  0 0.12499611E+03</rscale>
<asrwt>0</asrwt>
<pdfrwt beam="1">  1        4 0.19607839E-01 0.12499611E+03</pdfrwt>
<pdfrwt beam="2">  1       -4 0.47149442E-02 0.12499611E+03</pdfrwt>
<totfact> 0.97719258E+03</totfact>
</mgrwt>
</event>
<event>
 5    1  0.3282316E-002  0.1249998E+03  0.7818608E-02  0.1235070E+00
         -4   -1    0    0    0  501 -0.00000000000E+00  0.00000000000E+00  0.83035027959E+03  0.83035125081E+03  0.12700000000E+01 0. -1.
          4   -1    0    0  501    0  0.00000000000E+00 -0.00000000000E+00 -0.46176162791E+01  0.47890792540E+01  0.12700000000E+01 0. -1.
         25    2    1    2    0    0  0.00000000000E+00  0.00000000000E+00  0.82573266331E+03  0.83514033006E+03  0.12499975854E+03 0.  0.
    9000005    1    3    3    0    0 -0.38751385601E+02  0.17555006657E+01  0.85525921812E+02  0.93917170796E+02  0.10000000000E+01 0.  0.
    9000005    1    3    3    0    0  0.38751385601E+02 -0.17555006657E+01  0.74020674150E+03  0.74122315926E+03  0.10000000000E+01 0.  0.
<mgrwt>
<rscale>  0 0.12499976E+03</rscale>
<asrwt>0</asrwt>
<pdfrwt beam="2">  1        4 0.72366652E-03 0.12499976E+03</pdfrwt>
<pdfrwt beam="1">  1       -4 0.12775949E+00 0.12499976E+03</pdfrwt>
<totfact> 0.36743415E+03</totfact>
</mgrwt>
</event>
<event>
 5    1  0.3282316E-002  0.1250026E+03  0.7818608E-02  0.1235065E+00
          4   -1    0    0  501    0  0.00000000000E+00  0.00000000000E+00  0.80649843288E+02  0.80659842067E+02  0.12700000000E+01 0.  1.
         -4   -1    0    0    0  501 -0.00000000000E+00 -0.00000000000E+00 -0.48415404495E+02  0.48432058519E+02  0.12700000000E+01 0.  1.
         25    2    1    2    0    0  0.00000000000E+00  0.00000000000E+00  0.32234438793E+02  0.12909190059E+03  0.12500263898E+03 0.  0.
    9000005    1    3    3    0    0  0.39065660259E+01  0.59301725349E+02  0.36074497427E+02  0.69529312179E+02  0.10000000000E+01 0.  0.
    9000005    1    3    3    0    0 -0.39065660259E+01 -0.59301725349E+02 -0.38400586338E+01  0.59562588408E+02  0.10000000000E+01 0.  0.
<mgrwt>
<rscale>  0 0.12500264E+03</rscale>
<asrwt>0</asrwt>
<pdfrwt beam="1">  1        4 0.12409718E-01 0.12500264E+03</pdfrwt>
<pdfrwt beam="2">  1       -4 0.74505740E-02 0.12500264E+03</pdfrwt>
<totfact> 0.10363355E+04</totfact>
</mgrwt>
</event>
<event>
 5    1  0.3282316E-002  0.1250116E+03  0.7818608E-02  0.1235051E+00
          4   -1    0    0  501    0  0.00000000000E+00  0.00000000000E+00  0.10645188769E+04  0.10645196345E+04  0.12700000000E+01 0.  1.
         -4   -1    0    0    0  501 -0.00000000000E+00 -0.00000000000E+00 -0.35595304768E+01  0.37793064464E+01  0.12700000000E+01 0.  1.
         25    2    1    2    0    0  0.00000000000E+00  0.00000000000E+00  0.10609593464E+04  0.10682989409E+04  0.12501156908E+03 0.  0.
    9000005    1    3    3    0    0  0.30314213511E+02  0.26167502665E+02  0.12044368161E+03  0.12693057226E+03  0.10000000000E+01 0.  0.
    9000005    1    3    3    0    0 -0.30314213511E+02 -0.26167502665E+02  0.94051566482E+03  0.94136836866E+03  0.10000000000E+01 0.  0.
<mgrwt>
<rscale>  0 0.12501157E+03</rscale>
<asrwt>0</asrwt>
<pdfrwt beam="1">  1        4 0.16378884E+00 0.12501157E+03</pdfrwt>
<pdfrwt beam="2">  1       -4 0.56458509E-03 0.12501157E+03</pdfrwt>
<totfact> 0.28423095E+03</totfact>
</mgrwt>
</event>
<event>
 5    1  0.3282316E-002  0.1249982E+03  0.7818608E-02  0.1235072E+00
          4   -1    0    0  501    0  0.00000000000E+00  0.00000000000E+00  0.63144172765E+01  0.64408668315E+01  0.12700000000E+01 0. -1.
         -4   -1    0    0    0  501 -0.00000000000E+00 -0.00000000000E+00 -0.61234661568E+03  0.61234793266E+03  0.12700000000E+01 0. -1.
         25    2    1    2    0    0  0.00000000000E+00  0.00000000000E+00 -0.60603219840E+03  0.61878879949E+03  0.12499821149E+03 0.  0.
    9000005    1    3    3    0    0  0.18140266429E+02 -0.53742365086E+02 -0.43284706911E+03  0.43654884756E+03  0.10000000000E+01 0.  0.
    9000005    1    3    3    0    0 -0.18140266429E+02  0.53742365086E+02 -0.17318512929E+03  0.18223995193E+03  0.10000000000E+01 0.  0.
<mgrwt>
<rscale>  0 0.12499821E+03</rscale>
<asrwt>0</asrwt>
<pdfrwt beam="1">  1        4 0.98127749E-03 0.12499821E+03</pdfrwt>
<pdfrwt beam="2">  1       -4 0.94216953E-01 0.12499821E+03</pdfrwt>
<totfact> 0.47704574E+03</totfact>
</mgrwt>
</event>
<event>
 5    1  0.3282316E-002  0.1249930E+03  0.7818608E-02  0.1235080E+00
          4   -1    0    0  501    0  0.00000000000E+00  0.00000000000E+00  0.55009140597E+02  0.55023798935E+02  0.12700000000E+01 0.  1.
         -4   -1    0    0    0  501 -0.00000000000E+00 -0.00000000000E+00 -0.70973138214E+02  0.70984500054E+02  0.12700000000E+01 0.  1.
         25    2    1    2    0    0  0.00000000000E+00  0.00000000000E+00 -0.15963997617E+02  0.12600829899E+03  0.12499296858E+03 0.  0.
    9000005    1    3    3    0    0 -0.39428543989E+02  0.16946717265E+02  0.37807316869E+02  0.57203098832E+02  0.10000000000E+01 0.  0.
    9000005    1    3    3    0    0  0.39428543989E+02 -0.16946717265E+02 -0.53771314486E+02  0.68805200157E+02  0.10000000000E+01 0.  0.
<mgrwt>
<rscale>  0 0.12499297E+03</rscale>
<asrwt>0</asrwt>
<pdfrwt beam="1">  1        4 0.84649462E-02 0.12499297E+03</pdfrwt>
<pdfrwt beam="2">  1       -4 0.10920946E-01 0.12499297E+03</pdfrwt>
<totfact> 0.10432430E+04</totfact>
</mgrwt>
</event>
<event>
 5    1  0.3282316E-002  0.1250014E+03  0.7818608E-02  0.1235067E+00
         -4   -1    0    0    0  501 -0.00000000000E+00  0.00000000000E+00  0.21776905590E+01  0.25209593750E+01  0.12700000000E+01 0. -1.
          4   -1    0    0  501    0  0.00000000000E+00 -0.00000000000E+00 -0.16624065855E+04  0.16624070706E+04  0.12700000000E+01 0. -1.
         25    2    1    2    0    0  0.00000000000E+00  0.00000000000E+00 -0.16602288950E+04  0.16649280300E+04  0.12500144572E+03 0.  0.
    9000005    1    3    3    0    0  0.10297508107E+02 -0.32842054384E+02 -0.13537677550E+03  0.13968718822E+03  0.10000000000E+01 0.  0.
    9000005    1    3    3    0    0 -0.10297508107E+02  0.32842054384E+02 -0.15248521195E+04  0.15252408418E+04  0.10000000000E+01 0.  0.
<mgrwt>
<rscale>  0 0.12500145E+03</rscale>
<asrwt>0</asrwt>
<pdfrwt beam="2">  1        4 0.25578036E+00 0.12500145E+03</pdfrwt>
<pdfrwt beam="1">  1       -4 0.36147326E-03 0.12500145E+03</pdfrwt>
<totfact> 0.14901158E+03</totfact>
</mgrwt>
</event>
<event>
 5    1  0.3282316E-002  0.1250017E+03  0.7818608E-02  0.1235067E+00
         -4   -1    0    0    0  501 -0.00000000000E+00  0.00000000000E+00  0.13718963506E+03  0.13719551329E+03  0.12700000000E+01 0. -1.
          4   -1    0    0  501    0  0.00000000000E+00 -0.00000000000E+00 -0.28453495686E+02  0.28481824323E+02  0.12700000000E+01 0. -1.
         25    2    1    2    0    0  0.00000000000E+00  0.00000000000E+00  0.10873613937E+03  0.16567733762E+03  0.12500172876E+03 0.  0.
    9000005    1    3    3    0    0  0.58522211417E+02  0.39082170595E+01  0.82956026552E+02  0.10160130772E+03  0.10000000000E+01 0.  0.
    9000005    1    3    3    0    0 -0.58522211417E+02 -0.39082170595E+01  0.25780112821E+02  0.64076029893E+02  0.10000000000E+01 0.  0.
<mgrwt>
<rscale>  0 0.12500173E+03</rscale>
<asrwt>0</asrwt>
<pdfrwt beam="2">  1        4 0.43800922E-02 0.12500173E+03</pdfrwt>
<pdfrwt beam="1">  1       -4 0.21108729E-01 0.12500173E+03</pdfrwt>
<totfact> 0.96255531E+03</totfact>
</mgrwt>
</event>
<event>
 5    1  0.3282316E-002  0.1250232E+03  0.7818608E-02  0.1235033E+00
          4   -1    0    0  501    0  0.00000000000E+00  0.00000000000E+00  0.40502040795E+02  0.40521947246E+02  0.12700000000E+01 0. -1.
         -4   -1    0    0    0  501 -0.00000000000E+00 -0.00000000000E+00 -0.96433831229E+02  0.96442193596E+02  0.12700000000E+01 0. -1.
         25    2    1    2    0    0  0.00000000000E+00  0.00000000000E+00 -0.55931790434E+02  0.13696414084E+03  0.12502324062E+03 0.  0.
    9000005    1    3    3    0    0 -0.41567082740E+02  0.18441457875E+01  0.23130894665E+02  0.47615769753E+02  0.10000000000E+01 0.  0.
    9000005    1    3    3    0    0  0.41567082740E+02 -0.18441457875E+01 -0.79062685099E+02  0.89348371089E+02  0.10000000000E+01 0.  0.
<mgrwt>
<rscale>  0 0.12502324E+03</rscale>
<asrwt>0</asrwt>
<pdfrwt beam="1">  1        4 0.62332577E-02 0.12502324E+03</pdfrwt>
<pdfrwt beam="2">  1       -4 0.14838149E-01 0.12502324E+03</pdfrwt>
<totfact> 0.10191494E+04</totfact>
</mgrwt>
</event>
<event>
 5    1  0.3282316E-002  0.1249980E+03  0.7818608E-02  0.1235072E+00
         -4   -1    0    0    0  501 -0.00000000000E+00  0.00000000000E+00  0.79471570234E+02  0.79481717240E+02  0.12700000000E+01 0.  1.
          4   -1    0    0  501    0  0.00000000000E+00 -0.00000000000E+00 -0.49129738725E+02  0.49146150685E+02  0.12700000000E+01 0.  1.
         25    2    1    2    0    0  0.00000000000E+00  0.00000000000E+00  0.30341831509E+02  0.12862786793E+03  0.12499800665E+03 0.  0.
    9000005    1    3    3    0    0  0.36759371124E+01  0.49230790467E+02 -0.24255423767E+02  0.55013714888E+02  0.10000000000E+01 0.  0.
    9000005    1    3    3    0    0 -0.36759371124E+01 -0.49230790467E+02  0.54597255276E+02  0.73614153037E+02  0.10000000000E+01 0.  0.
<mgrwt>
<rscale>  0 0.12499801E+03</rscale>
<asrwt>0</asrwt>
<pdfrwt beam="2">  1        4 0.75604644E-02 0.12499801E+03</pdfrwt>
<pdfrwt beam="1">  1       -4 0.12228438E-01 0.12499801E+03</pdfrwt>
<totfact> 0.10374417E+04</totfact>
</mgrwt>
</event>
<event>
 5    1  0.3282316E-002  0.1250017E+03  0.7818608E-02  0.1235067E+00
          4   -1    0    0  501    0  0.00000000000E+00  0.00000000000E+00  0.18717456461E+03  0.18717887311E+03  0.12700000000E+01 0.  1.
         -4   -1    0    0    0  501 -0.00000000000E+00 -0.00000000000E+00 -0.20846246398E+02  0.20884896190E+02  0.12700000000E+01 0.  1.
         25    2    1    2    0    0  0.00000000000E+00  0.00000000000E+00  0.16632831821E+03  0.20806376930E+03  0.12500169061E+03 0.  0.
    9000005    1    3    3    0    0 -0.53561083732E+02  0.27238597227E+02  0.11173448677E+03  0.12687129858E+03  0.10000000000E+01 0.  0.
    9000005    1    3    3    0    0  0.53561083732E+02 -0.27238597227E+02  0.54593831440E+02  0.81192470714E+02  0.10000000000E+01 0.  0.
<mgrwt>
<rscale>  0 0.12500169E+03</rscale>
<asrwt>0</asrwt>
<pdfrwt beam="1">  1        4 0.28799390E-01 0.12500169E+03</pdfrwt>
<pdfrwt beam="2">  1       -4 0.32104195E-02 0.12500169E+03</pdfrwt>
<totfact> 0.88789716E+03</totfact>
</mgrwt>
</event>
<event>
 5    1  0.3282316E-002  0.1249985E+03  0.7818608E-02  0.1235072E+00
         -4   -1    0    0    0  501 -0.00000000000E+00  0.00000000000E+00  0.45547939667E+02  0.45565641748E+02  0.12700000000E+01 0.  1.
          4   -1    0    0  501    0  0.00000000000E+00 -0.00000000000E+00 -0.85720146397E+02  0.85729553820E+02  0.12700000000E+01 0.  1.
         25    2    1    2    0    0  0.00000000000E+00  0.00000000000E+00 -0.40172206729E+02  0.13129519557E+03  0.12499848873E+03 0.  0.
    9000005    1    3    3    0    0 -0.51156568244E+02 -0.16531689431E+02  0.13375601427E+02  0.55409366929E+02  0.10000000000E+01 0.  0.
    9000005    1    3    3    0    0  0.51156568244E+02  0.16531689431E+02 -0.53547808156E+02  0.75885828640E+02  0.10000000000E+01 0.  0.
<mgrwt>
<rscale>  0 0.12499849E+03</rscale>
<asrwt>0</asrwt>
<pdfrwt beam="2">  1        4 0.13189800E-01 0.12499849E+03</pdfrwt>
<pdfrwt beam="1">  1       -4 0.70094607E-02 0.12499849E+03</pdfrwt>
<totfact> 0.10317117E+04</totfact>
</mgrwt>
</event>
<event>
 5    1  0.3282316E-002  0.1249987E+03  0.7818608E-02  0.1235071E+00
         -4   -1    0    0    0  501 -0.00000000000E+00  0.00000000000E+00  0.80978088573E+01  0.81967925611E+01  0.12700000000E+01 0.  1.
          4   -1    0    0  501    0  0.00000000000E+00 -0.00000000000E+00 -0.47934374035E+03  0.47934542275E+03  0.12700000000E+01 0.  1.
         25    2    1    2    0    0  0.00000000000E+00  0.00000000000E+00 -0.47124593149E+03  0.48754221531E+03  0.12499873505E+03 0.  0.
    9000005    1    3    3    0    0  0.44895121125E+02 -0.43367838249E+02 -0.24721282717E+03  0.25497357356E+03  0.10000000000E+01 0.  0.
    9000005    1    3    3    0    0 -0.44895121125E+02  0.43367838249E+02 -0.22403310432E+03  0.23256864175E+03  0.10000000000E+01 0.  0.
<mgrwt>
<rscale>  0 0.12499874E+03</rscale>
<asrwt>0</asrwt>
<pdfrwt beam="2">  1        4 0.73752912E-01 0.12499874E+03</pdfrwt>
<pdfrwt beam="1">  1       -4 0.12535607E-02 0.12499874E+03</pdfrwt>
<totfact> 0.56845651E+03</totfact>
</mgrwt>
</event>
<event>
 5    1  0.3282316E-002  0.1249988E+03  0.7818608E-02  0.1235071E+00
         -4   -1    0    0    0  501 -0.00000000000E+00  0.00000000000E+00  0.22154253965E+01  0.25536267714E+01  0.12700000000E+01 0. -1.
          4   -1    0    0  501    0  0.00000000000E+00 -0.00000000000E+00 -0.16377963019E+04  0.16377967943E+04  0.12700000000E+01 0. -1.
         25    2    1    2    0    0  0.00000000000E+00  0.00000000000E+00 -0.16355808765E+04  0.16403504210E+04  0.12499880129E+03 0.  0.
    9000005    1    3    3    0    0  0.17655268445E+02 -0.11176540444E+01 -0.16043146459E+04  0.16044124908E+04  0.10000000000E+01 0.  0.
    9000005    1    3    3    0    0 -0.17655268445E+02  0.11176540444E+01 -0.31266230602E+02  0.35937930248E+02  0.10000000000E+01 0.  0.
<mgrwt>
<rscale>  0 0.12499880E+03</rscale>
<asrwt>0</asrwt>
<pdfrwt beam="2">  1        4 0.25199382E+00 0.12499880E+03</pdfrwt>
<pdfrwt beam="1">  1       -4 0.36688935E-03 0.12499880E+03</pdfrwt>
<totfact> 0.15328296E+03</totfact>
</mgrwt>
</event>
<event>
 5    1  0.3282316E-002  0.1250017E+03  0.7818608E-02  0.1235067E+00
         -4   -1    0    0    0  501 -0.00000000000E+00  0.00000000000E+00  0.59882923135E+03  0.59883057806E+03  0.12700000000E+01 0.  1.
          4   -1    0    0  501    0  0.00000000000E+00 -0.00000000000E+00 -0.64601375558E+01  0.65837889730E+01  0.12700000000E+01 0.  1.
         25    2    1    2    0    0  0.00000000000E+00  0.00000000000E+00  0.59236909380E+03  0.60541436704E+03  0.12500165010E+03 0.  0.
    9000005    1    3    3    0    0  0.15895729946E+02 -0.16938785570E+02  0.15202663011E+02  0.27779806510E+02  0.10000000000E+01 0.  0.
    9000005    1    3    3    0    0 -0.15895729946E+02  0.16938785570E+02  0.57716643079E+03  0.57763456053E+03  0.10000000000E+01 0.  0.
<mgrwt>
<rscale>  0 0.12500165E+03</rscale>
<asrwt>0</asrwt>
<pdfrwt beam="2">  1        4 0.10034830E-02 0.12500165E+03</pdfrwt>
<pdfrwt beam="1">  1       -4 0.92137151E-01 0.12500165E+03</pdfrwt>
<totfact> 0.48525873E+03</totfact>
</mgrwt>
</event>
<event>
 5    1  0.3282316E-002  0.1249991E+03  0.7818608E-02  0.1235071E+00
          4   -1    0    0  501    0  0.00000000000E+00  0.00000000000E+00  0.58098911122E+03  0.58099049929E+03  0.12700000000E+01 0.  1.
         -4   -1    0    0    0  501 -0.00000000000E+00 -0.00000000000E+00 -0.66619702818E+01  0.67819427921E+01  0.12700000000E+01 0.  1.
         25    2    1    2    0    0  0.00000000000E+00  0.00000000000E+00  0.57432714094E+03  0.58777244208E+03  0.12499911537E+03 0.  0.
    9000005    1    3    3    0    0 -0.40074478225E+02 -0.38094183594E+02  0.42409924825E+03  0.42768949367E+03  0.10000000000E+01 0.  0.
    9000005    1    3    3    0    0  0.40074478225E+02  0.38094183594E+02  0.15022789269E+03  0.16008294841E+03  0.10000000000E+01 0.  0.
<mgrwt>
<rscale>  0 0.12499912E+03</rscale>
<asrwt>0</asrwt>
<pdfrwt beam="1">  1        4 0.89392289E-01 0.12499912E+03</pdfrwt>
<pdfrwt beam="2">  1       -4 0.10342538E-02 0.12499912E+03</pdfrwt>
<totfact> 0.49649616E+03</totfact>
</mgrwt>
</event>
<event>
 5    1  0.3282316E-002  0.1249940E+03  0.7818608E-02  0.1235079E+00
          4   -1    0    0  501    0  0.00000000000E+00  0.00000000000E+00  0.23105264013E+03  0.23105613044E+03  0.12700000000E+01 0.  1.
         -4   -1    0    0    0  501 -0.00000000000E+00 -0.00000000000E+00 -0.16877230970E+02  0.16924946831E+02  0.12700000000E+01 0.  1.
         25    2    1    2    0    0  0.00000000000E+00  0.00000000000E+00  0.21417540916E+03  0.24798107727E+03  0.12499403503E+03 0.  0.
    9000005    1    3    3    0    0 -0.55940764074E+02 -0.26716007026E+02  0.91495995165E+02  0.11052434686E+03  0.10000000000E+01 0.  0.
    9000005    1    3    3    0    0  0.55940764074E+02  0.26716007026E+02  0.12267941400E+03  0.13745673041E+03  0.10000000000E+01 0.  0.
<mgrwt>
<rscale>  0 0.12499404E+03</rscale>
<asrwt>0</asrwt>
<pdfrwt beam="1">  1        4 0.35550501E-01 0.12499404E+03</pdfrwt>
<pdfrwt beam="2">  1       -4 0.26004359E-02 0.12499404E+03</pdfrwt>
<totfact> 0.82633882E+03</totfact>
</mgrwt>
</event>
<event>
 5    1  0.3282316E-002  0.1249968E+03  0.7818608E-02  0.1235074E+00
          4   -1    0    0  501    0  0.00000000000E+00  0.00000000000E+00  0.20414391056E+03  0.20414786092E+03  0.12700000000E+01 0.  1.
         -4   -1    0    0    0  501 -0.00000000000E+00 -0.00000000000E+00 -0.19108602781E+02  0.19150759782E+02  0.12700000000E+01 0.  1.
         25    2    1    2    0    0  0.00000000000E+00  0.00000000000E+00  0.18503530778E+03  0.22329862071E+03  0.12499683549E+03 0.  0.
    9000005    1    3    3    0    0  0.57819511489E+02  0.11673242954E+02  0.12937589605E+03  0.14219171210E+03  0.10000000000E+01 0.  0.
    9000005    1    3    3    0    0 -0.57819511489E+02 -0.11673242954E+02  0.55659411731E+02  0.81106908610E+02  0.10000000000E+01 0.  0.
<mgrwt>
<rscale>  0 0.12499684E+03</rscale>
<asrwt>0</asrwt>
<pdfrwt beam="1">  1        4 0.31410299E-01 0.12499684E+03</pdfrwt>
<pdfrwt beam="2">  1       -4 0.29433320E-02 0.12499684E+03</pdfrwt>
<totfact> 0.86355166E+03</totfact>
</mgrwt>
</event>
<event>
 5    1  0.3282316E-002  0.1249940E+03  0.7818608E-02  0.1235079E+00
         -4   -1    0    0    0  501 -0.00000000000E+00  0.00000000000E+00  0.13762441446E+03  0.13763027413E+03  0.12700000000E+01 0. -1.
          4   -1    0    0  501    0  0.00000000000E+00 -0.00000000000E+00 -0.28359995307E+02  0.28388417247E+02  0.12700000000E+01 0. -1.
         25    2    1    2    0    0  0.00000000000E+00  0.00000000000E+00  0.10926441915E+03  0.16601869137E+03  0.12499397022E+03 0.  0.
    9000005    1    3    3    0    0 -0.11805812071E+02  0.37091967191E+02  0.11956109864E+03  0.12574198797E+03  0.10000000000E+01 0.  0.
    9000005    1    3    3    0    0  0.11805812071E+02 -0.37091967191E+02 -0.10296679490E+02  0.40276703406E+02  0.10000000000E+01 0.  0.
<mgrwt>
<rscale>  0 0.12499397E+03</rscale>
<asrwt>0</asrwt>
<pdfrwt beam="2">  1        4 0.43657132E-02 0.12499397E+03</pdfrwt>
<pdfrwt beam="1">  1       -4 0.21175624E-01 0.12499397E+03</pdfrwt>
<totfact> 0.96207845E+03</totfact>
</mgrwt>
</event>
<event>
 5    1  0.3282316E-002  0.1250034E+03  0.7818608E-02  0.1235064E+00
         -4   -1    0    0    0  501 -0.00000000000E+00  0.00000000000E+00  0.68847079708E+03  0.68847196844E+03  0.12700000000E+01 0. -1.
          4   -1    0    0  501    0  0.00000000000E+00 -0.00000000000E+00 -0.56018560095E+01  0.57440134707E+01  0.12700000000E+01 0. -1.
         25    2    1    2    0    0  0.00000000000E+00  0.00000000000E+00  0.68286894107E+03  0.69421598191E+03  0.12500335542E+03 0.  0.
    9000005    1    3    3    0    0  0.49887691713E+02 -0.48195643746E+01  0.54874367729E+03  0.55102870466E+03  0.10000000000E+01 0.  0.
    9000005    1    3    3    0    0 -0.49887691713E+02  0.48195643746E+01  0.13412526378E+03  0.14318727726E+03  0.10000000000E+01 0.  0.
<mgrwt>
<rscale>  0 0.12500336E+03</rscale>
<asrwt>0</asrwt>
<pdfrwt beam="2">  1        4 0.87284905E-03 0.12500336E+03</pdfrwt>
<pdfrwt beam="1">  1       -4 0.10592964E+00 0.12500336E+03</pdfrwt>
<totfact> 0.43390585E+03</totfact>
</mgrwt>
</event>
<event>
 5    1  0.3282316E-002  0.1250020E+03  0.7818608E-02  0.1235066E+00
         -4   -1    0    0    0  501 -0.00000000000E+00  0.00000000000E+00  0.57541797046E+01  0.58926635805E+01  0.12700000000E+01 0.  1.
          4   -1    0    0  501    0  0.00000000000E+00 -0.00000000000E+00 -0.67066469775E+03  0.67066590021E+03  0.12700000000E+01 0.  1.
         25    2    1    2    0    0  0.00000000000E+00  0.00000000000E+00 -0.66491051804E+03  0.67655856379E+03  0.12500197292E+03 0.  0.
    9000005    1    3    3    0    0  0.52681814995E+02  0.33582025480E+02 -0.34056885643E+03  0.34625319065E+03  0.10000000000E+01 0.  0.
    9000005    1    3    3    0    0 -0.52681814995E+02 -0.33582025480E+02 -0.32434166161E+03  0.33030537314E+03  0.10000000000E+01 0.  0.
<mgrwt>
<rscale>  0 0.12500197E+03</rscale>
<asrwt>0</asrwt>
<pdfrwt beam="2">  1        4 0.10318987E+00 0.12500197E+03</pdfrwt>
<pdfrwt beam="1">  1       -4 0.89600405E-03 0.12500197E+03</pdfrwt>
<totfact> 0.44351469E+03</totfact>
</mgrwt>
</event>
<event>
 5    1  0.3282316E-002  0.1250022E+03  0.7818608E-02  0.1235066E+00
          4   -1    0    0  501    0  0.00000000000E+00  0.00000000000E+00  0.39364706534E+03  0.39364911399E+03  0.12700000000E+01 0.  1.
         -4   -1    0    0    0  501 -0.00000000000E+00 -0.00000000000E+00 -0.98808691834E+01  0.99621521681E+01  0.12700000000E+01 0.  1.
         25    2    1    2    0    0  0.00000000000E+00  0.00000000000E+00  0.38376619615E+03  0.40361126616E+03  0.12500224343E+03 0.  0.
    9000005    1    3    3    0    0 -0.52883356798E+02 -0.30988892861E+02  0.15254572946E+03  0.16440243454E+03  0.10000000000E+01 0.  0.
    9000005    1    3    3    0    0  0.52883356798E+02  0.30988892861E+02  0.23122046670E+03  0.23920883162E+03  0.10000000000E+01 0.  0.
<mgrwt>
<rscale>  0 0.12500224E+03</rscale>
<asrwt>0</asrwt>
<pdfrwt beam="1">  1        4 0.60567512E-01 0.12500224E+03</pdfrwt>
<pdfrwt beam="2">  1       -4 0.15265435E-02 0.12500224E+03</pdfrwt>
<totfact> 0.64199881E+03</totfact>
</mgrwt>
</event>
<event>
 5    1  0.3282316E-002  0.1250000E+03  0.7818608E-02  0.1235069E+00
          4   -1    0    0  501    0  0.00000000000E+00  0.00000000000E+00  0.11764064798E+02  0.11832418204E+02  0.12700000000E+01 0.  1.
         -4   -1    0    0    0  501 -0.00000000000E+00 -0.00000000000E+00 -0.33101769752E+03  0.33102013379E+03  0.12700000000E+01 0.  1.
         25    2    1    2    0    0  0.00000000000E+00  0.00000000000E+00 -0.31925363272E+03  0.34285255199E+03  0.12499996160E+03 0.  0.
    9000005    1    3    3    0    0  0.12888473890E+02  0.57332560575E+02 -0.21794724223E+03  0.22573244263E+03  0.10000000000E+01 0.  0.
    9000005    1    3    3    0    0 -0.12888473890E+02 -0.57332560575E+02 -0.10130639049E+03  0.11712010936E+03  0.10000000000E+01 0.  0.
<mgrwt>
<rscale>  0 0.12499996E+03</rscale>
<asrwt>0</asrwt>
<pdfrwt beam="1">  1        4 0.18153017E-02 0.12499996E+03</pdfrwt>
<pdfrwt beam="2">  1       -4 0.50931238E-01 0.12499996E+03</pdfrwt>
<totfact> 0.70518149E+03</totfact>
</mgrwt>
</event>
<event>
 5    1  0.3282316E-002  0.1250012E+03  0.7818608E-02  0.1235067E+00
         -4   -1    0    0    0  501 -0.00000000000E+00  0.00000000000E+00  0.13938175533E+03  0.13938754111E+03  0.12700000000E+01 0. -1.
          4   -1    0    0  501    0  0.00000000000E+00 -0.00000000000E+00 -0.28005318314E+02  0.28034099840E+02  0.12700000000E+01 0. -1.
         25    2    1    2    0    0  0.00000000000E+00  0.00000000000E+00  0.11137643701E+03  0.16742164095E+03  0.12500118055E+03 0.  0.
    9000005    1    3    3    0    0  0.54038448483E+02  0.25721684819E+02  0.31595926713E+02  0.67683539869E+02  0.10000000000E+01 0.  0.
    9000005    1    3    3    0    0 -0.54038448483E+02 -0.25721684819E+02  0.79780510299E+02  0.99738101085E+02  0.10000000000E+01 0.  0.
<mgrwt>
<rscale>  0 0.12500118E+03</rscale>
<asrwt>0</asrwt>
<pdfrwt beam="2">  1        4 0.43111694E-02 0.12500118E+03</pdfrwt>
<pdfrwt beam="1">  1       -4 0.21446007E-01 0.12500118E+03</pdfrwt>
<totfact> 0.95928183E+03</totfact>
</mgrwt>
</event>
<event>
 5    1  0.3282316E-002  0.1249949E+03  0.7818608E-02  0.1235077E+00
          4   -1    0    0  501    0  0.00000000000E+00  0.00000000000E+00  0.34214251947E+02  0.34237814420E+02  0.12700000000E+01 0.  1.
         -4   -1    0    0    0  501 -0.00000000000E+00 -0.00000000000E+00 -0.11409460798E+03  0.11410167602E+03  0.12700000000E+01 0.  1.
         25    2    1    2    0    0  0.00000000000E+00  0.00000000000E+00 -0.79880356034E+02  0.14833949044E+03  0.12499493247E+03 0.  0.
    9000005    1    3    3    0    0 -0.29402691765E+02  0.45933392788E+02 -0.37382639317E+01  0.54675126641E+02  0.10000000000E+01 0.  0.
    9000005    1    3    3    0    0  0.29402691765E+02 -0.45933392788E+02 -0.76142092102E+02  0.93664363798E+02  0.10000000000E+01 0.  0.
<mgrwt>
<rscale>  0 0.12499493E+03</rscale>
<asrwt>0</asrwt>
<pdfrwt beam="1">  1        4 0.52660873E-02 0.12499493E+03</pdfrwt>
<pdfrwt beam="2">  1       -4 0.17555373E-01 0.12499493E+03</pdfrwt>
<totfact> 0.99647097E+03</totfact>
</mgrwt>
</event>
<event>
 5    1  0.3282316E-002  0.1250039E+03  0.7818608E-02  0.1235063E+00
          4   -1    0    0  501    0  0.00000000000E+00  0.00000000000E+00  0.72138366267E+02  0.72149544612E+02  0.12700000000E+01 0.  1.
         -4   -1    0    0    0  501 -0.00000000000E+00 -0.00000000000E+00 -0.54129964921E+02  0.54144861274E+02  0.12700000000E+01 0.  1.
         25    2    1    2    0    0  0.00000000000E+00  0.00000000000E+00  0.18008401346E+02  0.12629440589E+03  0.12500389769E+03 0.  0.
    9000005    1    3    3    0    0 -0.28792302205E+02 -0.75752258537E+01 -0.46509507254E+02  0.55231467281E+02  0.10000000000E+01 0.  0.
    9000005    1    3    3    0    0  0.28792302205E+02  0.75752258537E+01  0.64517908600E+02  0.71062938605E+02  0.10000000000E+01 0.  0.
<mgrwt>
<rscale>  0 0.12500390E+03</rscale>
<asrwt>0</asrwt>
<pdfrwt beam="1">  1        4 0.11100216E-01 0.12500390E+03</pdfrwt>
<pdfrwt beam="2">  1       -4 0.83296927E-02 0.12500390E+03</pdfrwt>
<totfact> 0.10423598E+04</totfact>
</mgrwt>
</event>
<event>
 5    1  0.3282316E-002  0.1250000E+03  0.7818608E-02  0.1235069E+00
          4   -1    0    0  501    0  0.00000000000E+00  0.00000000000E+00  0.30793697456E+03  0.30793959342E+03  0.12700000000E+01 0.  1.
         -4   -1    0    0    0  501 -0.00000000000E+00 -0.00000000000E+00 -0.12650767486E+02  0.12714354800E+02  0.12700000000E+01 0.  1.
         25    2    1    2    0    0  0.00000000000E+00  0.00000000000E+00  0.29528620707E+03  0.32065394822E+03  0.12500004170E+03 0.  0.
    9000005    1    3    3    0    0  0.17601123205E+01  0.53189627862E+02  0.63613956018E+02  0.82945584016E+02  0.10000000000E+01 0.  0.
    9000005    1    3    3    0    0 -0.17601123205E+01 -0.53189627862E+02  0.23167225105E+03  0.23770836421E+03  0.10000000000E+01 0.  0.
<mgrwt>
<rscale>  0 0.12500004E+03</rscale>
<asrwt>0</asrwt>
<pdfrwt beam="1">  1        4 0.47380006E-01 0.12500004E+03</pdfrwt>
<pdfrwt beam="2">  1       -4 0.19513650E-02 0.12500004E+03</pdfrwt>
<totfact> 0.73078349E+03</totfact>
</mgrwt>
</event>
<event>
 5    1  0.3282316E-002  0.1249728E+03  0.7818608E-02  0.1235112E+00
         -4   -1    0    0    0  501 -0.00000000000E+00  0.00000000000E+00  0.74956306244E+01  0.76024587114E+01  0.12700000000E+01 0.  1.
          4   -1    0    0  501    0  0.00000000000E+00 -0.00000000000E+00 -0.51711707571E+03  0.51711863522E+03  0.12700000000E+01 0.  1.
         25    2    1    2    0    0  0.00000000000E+00  0.00000000000E+00 -0.50962144509E+03  0.52472109393E+03  0.12497283355E+03 0.  0.
    9000005    1    3    3    0    0  0.27219469335E+02  0.56236401987E+02 -0.25335709415E+03  0.26094874894E+03  0.10000000000E+01 0.  0.
    9000005    1    3    3    0    0 -0.27219469335E+02 -0.56236401987E+02 -0.25626435094E+03  0.26377234499E+03  0.10000000000E+01 0.  0.
<mgrwt>
<rscale>  0 0.12497283E+03</rscale>
<asrwt>0</asrwt>
<pdfrwt beam="2">  1        4 0.79564783E-01 0.12497283E+03</pdfrwt>
<pdfrwt beam="1">  1       -4 0.11615119E-02 0.12497283E+03</pdfrwt>
<totfact> 0.54028318E+03</totfact>
</mgrwt>
</event>
<event>
 5    1  0.3282316E-002  0.1250026E+03  0.7818608E-02  0.1235065E+00
          4   -1    0    0  501    0  0.00000000000E+00  0.00000000000E+00  0.10945228518E+04  0.10945235887E+04  0.12700000000E+01 0.  1.
         -4   -1    0    0    0  501 -0.00000000000E+00 -0.00000000000E+00 -0.34553130102E+01  0.36813160688E+01  0.12700000000E+01 0.  1.
         25    2    1    2    0    0  0.00000000000E+00  0.00000000000E+00  0.10910675388E+04  0.10982049047E+04  0.12500255377E+03 0.  0.
    9000005    1    3    3    0    0  0.32485769886E+02 -0.23527769361E+02  0.12451601839E+03  0.13082094638E+03  0.10000000000E+01 0.  0.
    9000005    1    3    3    0    0 -0.32485769886E+02  0.23527769361E+02  0.96655152045E+03  0.96738395834E+03  0.10000000000E+01 0.  0.
<mgrwt>
<rscale>  0 0.12500255E+03</rscale>
<asrwt>0</asrwt>
<pdfrwt beam="1">  1        4 0.16840576E+00 0.12500255E+03</pdfrwt>
<pdfrwt beam="2">  1       -4 0.54902753E-03 0.12500255E+03</pdfrwt>
<totfact> 0.27534414E+03</totfact>
</mgrwt>
</event>
<event>
 5    1  0.3282316E-002  0.1249968E+03  0.7818608E-02  0.1235074E+00
         -4   -1    0    0    0  501 -0.00000000000E+00  0.00000000000E+00  0.41176479674E+01  0.43090514946E+01  0.12700000000E+01 0.  1.
          4   -1    0    0  501    0  0.00000000000E+00 -0.00000000000E+00 -0.92687290662E+03  0.92687377670E+03  0.12700000000E+01 0.  1.
         25    2    1    2    0    0  0.00000000000E+00  0.00000000000E+00 -0.92275525865E+03  0.93118282819E+03  0.12499676854E+03 0.  0.
    9000005    1    3    3    0    0  0.24676827880E+02 -0.40998262073E+02 -0.16197518847E+03  0.16889868267E+03  0.10000000000E+01 0.  0.
    9000005    1    3    3    0    0 -0.24676827880E+02  0.40998262073E+02 -0.76078007018E+03  0.76228414552E+03  0.10000000000E+01 0.  0.
<mgrwt>
<rscale>  0 0.12499677E+03</rscale>
<asrwt>0</asrwt>
<pdfrwt beam="2">  1        4 0.14261046E+00 0.12499677E+03</pdfrwt>
<pdfrwt beam="1">  1       -4 0.64827532E-03 0.12499677E+03</pdfrwt>
<totfact> 0.32995982E+03</totfact>
</mgrwt>
</event>
<event>
 5    1  0.3282316E-002  0.1249528E+03  0.7818608E-02  0.1235143E+00
         -4   -1    0    0    0  501 -0.00000000000E+00  0.00000000000E+00  0.64915311751E+01  0.66145957546E+01  0.12700000000E+01 0. -1.
          4   -1    0    0  501    0  0.00000000000E+00 -0.00000000000E+00 -0.59552138665E+03  0.59552274084E+03  0.12700000000E+01 0. -1.
         25    2    1    2    0    0  0.00000000000E+00  0.00000000000E+00 -0.58902985548E+03  0.60213733660E+03  0.12495279701E+03 0.  0.
    9000005    1    3    3    0    0 -0.35567651798E+02  0.42237369020E+02 -0.15375241705E+03  0.16337031231E+03  0.10000000000E+01 0.  0.
    9000005    1    3    3    0    0  0.35567651798E+02 -0.42237369020E+02 -0.43527743843E+03  0.43876702428E+03  0.10000000000E+01 0.  0.
<mgrwt>
<rscale>  0 0.12495280E+03</rscale>
<asrwt>0</asrwt>
<pdfrwt beam="2">  1        4 0.91628203E-01 0.12495280E+03</pdfrwt>
<pdfrwt beam="1">  1       -4 0.10082682E-02 0.12495280E+03</pdfrwt>
<totfact> 0.48783462E+03</totfact>
</mgrwt>
</event>
<event>
 5    1  0.3282316E-002  0.1250042E+03  0.7818608E-02  0.1235063E+00
         -4   -1    0    0    0  501 -0.00000000000E+00  0.00000000000E+00  0.42643120811E+02  0.42662028228E+02  0.12700000000E+01 0.  1.
          4   -1    0    0  501    0  0.00000000000E+00 -0.00000000000E+00 -0.91565785257E+02  0.91574592163E+02  0.12700000000E+01 0.  1.
         25    2    1    2    0    0  0.00000000000E+00  0.00000000000E+00 -0.48922664446E+02  0.13423662039E+03  0.12500417256E+03 0.  0.
    9000005    1    3    3    0    0 -0.60545650227E+02 -0.13084209075E+02 -0.33351578669E+02  0.70358369000E+02  0.10000000000E+01 0.  0.
    9000005    1    3    3    0    0  0.60545650227E+02  0.13084209075E+02 -0.15571085777E+02  0.63878251391E+02  0.10000000000E+01 0.  0.
<mgrwt>
<rscale>  0 0.12500417E+03</rscale>
<asrwt>0</asrwt>
<pdfrwt beam="2">  1        4 0.14089176E-01 0.12500417E+03</pdfrwt>
<pdfrwt beam="1">  1       -4 0.65626120E-02 0.12500417E+03</pdfrwt>
<totfact> 0.10253221E+04</totfact>
</mgrwt>
</event>
<event>
 5    1  0.3282316E-002  0.1249965E+03  0.7818608E-02  0.1235075E+00
          4   -1    0    0  501    0  0.00000000000E+00  0.00000000000E+00  0.26169815481E+03  0.26170123640E+03  0.12700000000E+01 0.  1.
         -4   -1    0    0    0  501 -0.00000000000E+00 -0.00000000000E+00 -0.14895524873E+02  0.14949567259E+02  0.12700000000E+01 0.  1.
         25    2    1    2    0    0  0.00000000000E+00  0.00000000000E+00  0.24680262994E+03  0.27665080366E+03  0.12499651603E+03 0.  0.
    9000005    1    3    3    0    0  0.18430734418E+02  0.47898670009E+02  0.44494110039E+02  0.67931586084E+02  0.10000000000E+01 0.  0.
    9000005    1    3    3    0    0 -0.18430734418E+02 -0.47898670009E+02  0.20230851990E+03  0.20871921757E+03  0.10000000000E+01 0.  0.
<mgrwt>
<rscale>  0 0.12499652E+03</rscale>
<asrwt>0</asrwt>
<pdfrwt beam="1">  1        4 0.40265644E-01 0.12499652E+03</pdfrwt>
<pdfrwt beam="2">  1       -4 0.22960136E-02 0.12499652E+03</pdfrwt>
<totfact> 0.78630383E+03</totfact>
</mgrwt>
</event>
<event>
 5    1  0.3282316E-002  0.1249999E+03  0.7818608E-02  0.1235069E+00
         -4   -1    0    0    0  501 -0.00000000000E+00  0.00000000000E+00  0.15930695613E+02  0.15981237834E+02  0.12700000000E+01 0. -1.
          4   -1    0    0  501    0  0.00000000000E+00 -0.00000000000E+00 -0.24476192243E+03  0.24476521724E+03  0.12700000000E+01 0. -1.
         25    2    1    2    0    0  0.00000000000E+00  0.00000000000E+00 -0.22883122681E+03  0.26074645507E+03  0.12499993387E+03 0.  0.
    9000005    1    3    3    0    0  0.49448274437E+02  0.27965937896E+02 -0.16873188994E+03  0.17804122054E+03  0.10000000000E+01 0.  0.
    9000005    1    3    3    0    0 -0.49448274437E+02 -0.27965937896E+02 -0.60099336871E+02  0.82705234535E+02  0.10000000000E+01 0.  0.
<mgrwt>
<rscale>  0 0.12499993E+03</rscale>
<asrwt>0</asrwt>
<pdfrwt beam="2">  1        4 0.37659819E-01 0.12499993E+03</pdfrwt>
<pdfrwt beam="1">  1       -4 0.24550177E-02 0.12499993E+03</pdfrwt>
<totfact> 0.80801540E+03</totfact>
</mgrwt>
</event>
<event>
 5    1  0.3282316E-002  0.1250037E+03  0.7818608E-02  0.1235063E+00
          4   -1    0    0  501    0  0.00000000000E+00  0.00000000000E+00  0.50845925224E+02  0.50861783412E+02  0.12700000000E+01 0.  1.
         -4   -1    0    0    0  501 -0.00000000000E+00 -0.00000000000E+00 -0.76796726019E+02  0.76807226400E+02  0.12700000000E+01 0.  1.
         25    2    1    2    0    0  0.00000000000E+00  0.00000000000E+00 -0.25950800795E+02  0.12766900981E+03  0.12500372796E+03 0.  0.
    9000005    1    3    3    0    0 -0.46298024716E+02  0.22553933109E+02 -0.49132147656E+02  0.71183951313E+02  0.10000000000E+01 0.  0.
    9000005    1    3    3    0    0  0.46298024716E+02 -0.22553933109E+02  0.23181346861E+02  0.56485058498E+02  0.10000000000E+01 0.  0.
<mgrwt>
<rscale>  0 0.12500373E+03</rscale>
<asrwt>0</asrwt>
<pdfrwt beam="1">  1        4 0.78244776E-02 0.12500373E+03</pdfrwt>
<pdfrwt beam="2">  1       -4 0.11816909E-01 0.12500373E+03</pdfrwt>
<totfact> 0.10393767E+04</totfact>
</mgrwt>
</event>
<event>
 5    1  0.3282316E-002  0.1249705E+03  0.7818608E-02  0.1235115E+00
         -4   -1    0    0    0  501 -0.00000000000E+00  0.00000000000E+00  0.81269536284E+02  0.81279458831E+02  0.12700000000E+01 0.  1.
          4   -1    0    0  501    0  0.00000000000E+00 -0.00000000000E+00 -0.48021415659E+02  0.48038206272E+02  0.12700000000E+01 0.  1.
         25    2    1    2    0    0  0.00000000000E+00  0.00000000000E+00  0.33248120626E+02  0.12931766510E+03  0.12497048044E+03 0.  0.
    9000005    1    3    3    0    0 -0.60310236290E+02 -0.69539463825E+01  0.31892787780E+02  0.68584487196E+02  0.10000000000E+01 0.  0.
    9000005    1    3    3    0    0  0.60310236290E+02  0.69539463825E+01  0.13553328460E+01  0.60733177907E+02  0.10000000000E+01 0.  0.
<mgrwt>
<rscale>  0 0.12497048E+03</rscale>
<asrwt>0</asrwt>
<pdfrwt beam="2">  1        4 0.73899650E-02 0.12497048E+03</pdfrwt>
<pdfrwt beam="1">  1       -4 0.12505060E-01 0.12497048E+03</pdfrwt>
<totfact> 0.10366032E+04</totfact>
</mgrwt>
</event>
<event>
 5    1  0.3282316E-002  0.1250003E+03  0.7818608E-02  0.1235069E+00
          4   -1    0    0  501    0  0.00000000000E+00  0.00000000000E+00  0.17016015626E+02  0.17063343394E+02  0.12700000000E+01 0. -1.
         -4   -1    0    0    0  501 -0.00000000000E+00 -0.00000000000E+00 -0.22919631122E+03  0.22919982979E+03  0.12700000000E+01 0. -1.
         25    2    1    2    0    0  0.00000000000E+00  0.00000000000E+00 -0.21218029559E+03  0.24626317318E+03  0.12500029052E+03 0.  0.
    9000005    1    3    3    0    0  0.29129639240E+02 -0.29816438084E+02 -0.19781547492E+03  0.20216210817E+03  0.10000000000E+01 0.  0.
    9000005    1    3    3    0    0 -0.29129639240E+02  0.29816438084E+02 -0.14364820670E+02  0.44101065012E+02  0.10000000000E+01 0.  0.
<mgrwt>
<rscale>  0 0.12500029E+03</rscale>
<asrwt>0</asrwt>
<pdfrwt beam="1">  1        4 0.26217600E-02 0.12500029E+03</pdfrwt>
<pdfrwt beam="2">  1       -4 0.35264880E-01 0.12500029E+03</pdfrwt>
<totfact> 0.82872797E+03</totfact>
</mgrwt>
</event>
<event>
 5    1  0.3282316E-002  0.1249996E+03  0.7818608E-02  0.1235070E+00
         -4   -1    0    0    0  501 -0.00000000000E+00  0.00000000000E+00  0.70581043412E+03  0.70581157670E+03  0.12700000000E+01 0. -1.
          4   -1    0    0  501    0  0.00000000000E+00 -0.00000000000E+00 -0.54603623873E+01  0.56061089359E+01  0.12700000000E+01 0. -1.
         25    2    1    2    0    0  0.00000000000E+00  0.00000000000E+00  0.70035007173E+03  0.71141768564E+03  0.12499960187E+03 0.  0.
    9000005    1    3    3    0    0  0.45783755081E+02 -0.40888796216E+02  0.28351581843E+03  0.29008665117E+03  0.10000000000E+01 0.  0.
    9000005    1    3    3    0    0 -0.45783755081E+02  0.40888796216E+02  0.41683425329E+03  0.42133103447E+03  0.10000000000E+01 0.  0.
<mgrwt>
<rscale>  0 0.12499960E+03</rscale>
<asrwt>0</asrwt>
<pdfrwt beam="2">  1        4 0.85135495E-03 0.12499960E+03</pdfrwt>
<pdfrwt beam="1">  1       -4 0.10859752E+00 0.12499960E+03</pdfrwt>
<totfact> 0.42491160E+03</totfact>
</mgrwt>
</event>
<event>
 5    1  0.3282316E-002  0.1250072E+03  0.7818608E-02  0.1235058E+00
         -4   -1    0    0    0  501 -0.00000000000E+00  0.00000000000E+00  0.16561858209E+02  0.16610480045E+02  0.12700000000E+01 0.  1.
          4   -1    0    0  501    0  0.00000000000E+00 -0.00000000000E+00 -0.23548925853E+03  0.23549268308E+03  0.12700000000E+01 0.  1.
         25    2    1    2    0    0  0.00000000000E+00  0.00000000000E+00 -0.21892740032E+03  0.25210316312E+03  0.12500719277E+03 0.  0.
    9000005    1    3    3    0    0 -0.50477850022E+02  0.24938833441E+02 -0.16416601614E+03  0.17355529266E+03  0.10000000000E+01 0.  0.
    9000005    1    3    3    0    0  0.50477850022E+02 -0.24938833441E+02 -0.54761384182E+02  0.78547870459E+02  0.10000000000E+01 0.  0.
<mgrwt>
<rscale>  0 0.12500719E+03</rscale>
<asrwt>0</asrwt>
<pdfrwt beam="2">  1        4 0.36233118E-01 0.12500719E+03</pdfrwt>
<pdfrwt beam="1">  1       -4 0.25519819E-02 0.12500719E+03</pdfrwt>
<totfact> 0.82014064E+03</totfact>
</mgrwt>
</event>
<event>
 5    1  0.3282316E-002  0.1250007E+03  0.7818608E-02  0.1235068E+00
          4   -1    0    0  501    0  0.00000000000E+00  0.00000000000E+00  0.11990762045E+03  0.11991434585E+03  0.12700000000E+01 0.  1.
         -4   -1    0    0    0  501 -0.00000000000E+00 -0.00000000000E+00 -0.32557525980E+02  0.32582286567E+02  0.12700000000E+01 0.  1.
         25    2    1    2    0    0  0.00000000000E+00  0.00000000000E+00  0.87350094466E+02  0.15249663242E+03  0.12500073558E+03 0.  0.
    9000005    1    3    3    0    0  0.58423295316E+02 -0.66233610071E+01  0.17849040123E+02  0.61455175371E+02  0.10000000000E+01 0.  0.
    9000005    1    3    3    0    0 -0.58423295316E+02  0.66233610071E+01  0.69501054343E+02  0.91041457048E+02  0.10000000000E+01 0.  0.
<mgrwt>
<rscale>  0 0.12500074E+03</rscale>
<asrwt>0</asrwt>
<pdfrwt beam="1">  1        4 0.18449748E-01 0.12500074E+03</pdfrwt>
<pdfrwt beam="2">  1       -4 0.50112723E-02 0.12500074E+03</pdfrwt>
<totfact> 0.98806705E+03</totfact>
</mgrwt>
</event>
<event>
 5    1  0.3282316E-002  0.1250000E+03  0.7818608E-02  0.1235069E+00
          4   -1    0    0  501    0  0.00000000000E+00  0.00000000000E+00  0.88021081478E+03  0.88021173098E+03  0.12700000000E+01 0. -1.
         -4   -1    0    0    0  501 -0.00000000000E+00 -0.00000000000E+00 -0.43460601196E+01  0.45278183006E+01  0.12700000000E+01 0. -1.
         25    2    1    2    0    0  0.00000000000E+00  0.00000000000E+00  0.87586475466E+03  0.88473954929E+03  0.12500000642E+03 0.  0.
    9000005    1    3    3    0    0 -0.15717430526E+02 -0.18198862274E+02  0.29676230154E+02  0.38208832050E+02  0.10000000000E+01 0.  0.
    9000005    1    3    3    0    0  0.15717430526E+02  0.18198862274E+02  0.84618852451E+03  0.84653071724E+03  0.10000000000E+01 0.  0.
<mgrwt>
<rscale>  0 0.12500001E+03</rscale>
<asrwt>0</asrwt>
<pdfrwt beam="1">  1        4 0.13543106E+00 0.12500001E+03</pdfrwt>
<pdfrwt beam="2">  1       -4 0.68267673E-03 0.12500001E+03</pdfrwt>
<totfact> 0.34746347E+03</totfact>
</mgrwt>
</event>
<event>
 5    1  0.3282316E-002  0.1249930E+03  0.7818608E-02  0.1235080E+00
          4   -1    0    0  501    0  0.00000000000E+00  0.00000000000E+00  0.28371065109E+01  0.31083875810E+01  0.12700000000E+01 0. -1.
         -4   -1    0    0    0  501 -0.00000000000E+00 -0.00000000000E+00 -0.13136023630E+04  0.13136029769E+04  0.12700000000E+01 0. -1.
         25    2    1    2    0    0  0.00000000000E+00  0.00000000000E+00 -0.13107652565E+04  0.13167113645E+04  0.12499303898E+03 0.  0.
    9000005    1    3    3    0    0  0.32052731409E+02 -0.68126888092E+01 -0.94881384692E+02  0.10038559399E+03  0.10000000000E+01 0.  0.
    9000005    1    3    3    0    0 -0.32052731409E+02  0.68126888092E+01 -0.12158838718E+04  0.12163257705E+04  0.10000000000E+01 0.  0.
<mgrwt>
<rscale>  0 0.12499304E+03</rscale>
<asrwt>0</asrwt>
<pdfrwt beam="1">  1        4 0.45739397E-03 0.12499304E+03</pdfrwt>
<pdfrwt beam="2">  1       -4 0.20211312E+00 0.12499304E+03</pdfrwt>
<totfact> 0.21840893E+03</totfact>
</mgrwt>
</event>
<event>
 5    1  0.3282316E-002  0.1249927E+03  0.7818608E-02  0.1235081E+00
         -4   -1    0    0    0  501 -0.00000000000E+00  0.00000000000E+00  0.46239214404E+03  0.46239388812E+03  0.12700000000E+01 0.  1.
          4   -1    0    0  501    0  0.00000000000E+00 -0.00000000000E+00 -0.83974234707E+01  0.84929159271E+01  0.12700000000E+01 0.  1.
         25    2    1    2    0    0  0.00000000000E+00  0.00000000000E+00  0.45399472057E+03  0.47088680404E+03  0.12499270347E+03 0.  0.
    9000005    1    3    3    0    0  0.29493257740E+02  0.43995383662E+02  0.10208671758E+03  0.11501366850E+03  0.10000000000E+01 0.  0.
    9000005    1    3    3    0    0 -0.29493257740E+02 -0.43995383662E+02  0.35190800298E+03  0.35587313554E+03  0.10000000000E+01 0.  0.
<mgrwt>
<rscale>  0 0.12499270E+03</rscale>
<asrwt>0</asrwt>
<pdfrwt beam="2">  1        4 0.12993909E-02 0.12499270E+03</pdfrwt>
<pdfrwt beam="1">  1       -4 0.71144740E-01 0.12499270E+03</pdfrwt>
<totfact> 0.58205473E+03</totfact>
</mgrwt>
</event>
<event>
 5    1  0.3282316E-002  0.1250017E+03  0.7818608E-02  0.1235067E+00
         -4   -1    0    0    0  501 -0.00000000000E+00  0.00000000000E+00  0.17575957278E+03  0.17576416109E+03  0.12700000000E+01 0. -1.
          4   -1    0    0  501    0  0.00000000000E+00 -0.00000000000E+00 -0.22202550492E+02  0.22238843233E+02  0.12700000000E+01 0. -1.
         25    2    1    2    0    0  0.00000000000E+00  0.00000000000E+00  0.15355702229E+03  0.19800300432E+03  0.12500172250E+03 0.  0.
    9000005    1    3    3    0    0 -0.50403125730E+02  0.30136504650E+01  0.13510336708E+03  0.14423410473E+03  0.10000000000E+01 0.  0.
    9000005    1    3    3    0    0  0.50403125730E+02 -0.30136504650E+01  0.18453655209E+02  0.53768899589E+02  0.10000000000E+01 0.  0.
<mgrwt>
<rscale>  0 0.12500172E+03</rscale>
<asrwt>0</asrwt>
<pdfrwt beam="2">  1        4 0.34189217E-02 0.12500172E+03</pdfrwt>
<pdfrwt beam="1">  1       -4 0.27043079E-01 0.12500172E+03</pdfrwt>
<totfact> 0.90469674E+03</totfact>
</mgrwt>
</event>
<event>
 5    1  0.3282316E-002  0.1249895E+03  0.7818608E-02  0.1235086E+00
         -4   -1    0    0    0  501 -0.00000000000E+00  0.00000000000E+00  0.20564507244E+03  0.20564899397E+03  0.12700000000E+01 0.  1.
          4   -1    0    0  501    0  0.00000000000E+00 -0.00000000000E+00 -0.18966581389E+02  0.19009053359E+02  0.12700000000E+01 0.  1.
         25    2    1    2    0    0  0.00000000000E+00  0.00000000000E+00  0.18667849106E+03  0.22465804733E+03  0.12498951639E+03 0.  0.
    9000005    1    3    3    0    0 -0.35599461725E+02 -0.18888731755E+02  0.17917384347E+03  0.18365285744E+03  0.10000000000E+01 0.  0.
    9000005    1    3    3    0    0  0.35599461725E+02  0.18888731755E+02  0.75046475866E+01  0.41005189889E+02  0.10000000000E+01 0.  0.
<mgrwt>
<rscale>  0 0.12498952E+03</rscale>
<asrwt>0</asrwt>
<pdfrwt beam="2">  1        4 0.29215045E-02 0.12498952E+03</pdfrwt>
<pdfrwt beam="1">  1       -4 0.31641270E-01 0.12498952E+03</pdfrwt>
<totfact> 0.86156765E+03</totfact>
</mgrwt>
</event>
<event>
 5    1  0.3282316E-002  0.1250007E+03  0.7818608E-02  0.1235068E+00
          4   -1    0    0  501    0  0.00000000000E+00  0.00000000000E+00  0.12763036198E+02  0.12826066934E+02  0.12700000000E+01 0.  1.
         -4   -1    0    0    0  501 -0.00000000000E+00 -0.00000000000E+00 -0.30524498183E+03  0.30524762379E+03  0.12700000000E+01 0.  1.
         25    2    1    2    0    0  0.00000000000E+00  0.00000000000E+00 -0.29248194563E+03  0.31807369073E+03  0.12500073685E+03 0.  0.
    9000005    1    3    3    0    0  0.18433197010E+01 -0.58711119175E+02 -0.20051279928E+03  0.20894203985E+03  0.10000000000E+01 0.  0.
    9000005    1    3    3    0    0 -0.18433197010E+01  0.58711119175E+02 -0.91969146348E+02  0.10913165087E+03  0.10000000000E+01 0.  0.
<mgrwt>
<rscale>  0 0.12500074E+03</rscale>
<asrwt>0</asrwt>
<pdfrwt beam="1">  1        4 0.19685960E-02 0.12500074E+03</pdfrwt>
<pdfrwt beam="2">  1       -4 0.46965812E-01 0.12500074E+03</pdfrwt>
<totfact> 0.73384625E+03</totfact>
</mgrwt>
</event>
<event>
 5    1  0.3282316E-002  0.1249964E+03  0.7818608E-02  0.1235075E+00
         -4   -1    0    0    0  501 -0.00000000000E+00  0.00000000000E+00  0.24116501968E+02  0.24149918575E+02  0.12700000000E+01 0.  1.
          4   -1    0    0  501    0  0.00000000000E+00 -0.00000000000E+00 -0.16181682352E+03  0.16182180717E+03  0.12700000000E+01 0.  1.
         25    2    1    2    0    0  0.00000000000E+00  0.00000000000E+00 -0.13770032155E+03  0.18597172574E+03  0.12499641683E+03 0.  0.
    9000005    1    3    3    0    0 -0.11070498237E+01 -0.43961929583E+01  0.23878815681E+02  0.24325910264E+02  0.10000000000E+01 0.  0.
    9000005    1    3    3    0    0  0.11070498237E+01  0.43961929583E+01 -0.16157913723E+03  0.16164581548E+03  0.10000000000E+01 0.  0.
<mgrwt>
<rscale>  0 0.12499642E+03</rscale>
<asrwt>0</asrwt>
<pdfrwt beam="2">  1        4 0.24897849E-01 0.12499642E+03</pdfrwt>
<pdfrwt beam="1">  1       -4 0.37131850E-02 0.12499642E+03</pdfrwt>
<totfact> 0.92560416E+03</totfact>
</mgrwt>
</event>
<event>
 5    1  0.3282316E-002  0.1250007E+03  0.7818608E-02  0.1235068E+00
         -4   -1    0    0    0  501 -0.00000000000E+00  0.00000000000E+00  0.18245380484E+04  0.18245384904E+04  0.12700000000E+01 0. -1.
          4   -1    0    0  501    0  0.00000000000E+00 -0.00000000000E+00 -0.19521598137E+01  0.23289113204E+01  0.12700000000E+01 0. -1.
         25    2    1    2    0    0  0.00000000000E+00  0.00000000000E+00  0.18225858886E+04  0.18268674017E+04  0.12500072881E+03 0.  0.
    9000005    1    3    3    0    0  0.60276090921E+02 -0.16460034346E+02  0.92700430834E+03  0.92910824318E+03  0.10000000000E+01 0.  0.
    9000005    1    3    3    0    0 -0.60276090921E+02  0.16460034346E+02  0.89558158025E+03  0.89775915855E+03  0.10000000000E+01 0.  0.
<mgrwt>
<rscale>  0 0.12500073E+03</rscale>
<asrwt>0</asrwt>
<pdfrwt beam="2">  1        4 0.32934702E-03 0.12500073E+03</pdfrwt>
<pdfrwt beam="1">  1       -4 0.28072730E+00 0.12500073E+03</pdfrwt>
<totfact> 0.12293888E+03</totfact>
</mgrwt>
</event>
<event>
 5    1  0.3282316E-002  0.1250025E+03  0.7818608E-02  0.1235065E+00
         -4   -1    0    0    0  501 -0.00000000000E+00  0.00000000000E+00  0.15241379204E+03  0.15241908313E+03  0.12700000000E+01 0.  1.
          4   -1    0    0  501    0  0.00000000000E+00 -0.00000000000E+00 -0.25608814889E+02  0.25640286660E+02  0.12700000000E+01 0.  1.
         25    2    1    2    0    0  0.00000000000E+00  0.00000000000E+00  0.12680497715E+03  0.17805936979E+03  0.12500254774E+03 0.  0.
    9000005    1    3    3    0    0 -0.36032559732E+02  0.47676918629E+02  0.37370751779E+02  0.70491183983E+02  0.10000000000E+01 0.  0.
    9000005    1    3    3    0    0  0.36032559732E+02 -0.47676918629E+02  0.89434225369E+02  0.10756818581E+03  0.10000000000E+01 0.  0.
<mgrwt>
<rscale>  0 0.12500255E+03</rscale>
<asrwt>0</asrwt>
<pdfrwt beam="2">  1        4 0.39426455E-02 0.12500255E+03</pdfrwt>
<pdfrwt beam="1">  1       -4 0.23451104E-01 0.12500255E+03</pdfrwt>
<totfact> 0.93962124E+03</totfact>
</mgrwt>
</event>
<event>
 5    1  0.3282316E-002  0.1249994E+03  0.7818608E-02  0.1235070E+00
         -4   -1    0    0    0  501 -0.00000000000E+00  0.00000000000E+00  0.47716178138E+02  0.47733076123E+02  0.12700000000E+01 0.  1.
          4   -1    0    0  501    0  0.00000000000E+00 -0.00000000000E+00 -0.81827152490E+02  0.81837007427E+02  0.12700000000E+01 0.  1.
         25    2    1    2    0    0  0.00000000000E+00  0.00000000000E+00 -0.34110974352E+02  0.12957008355E+03  0.12499939192E+03 0.  0.
    9000005    1    3    3    0    0 -0.61726497721E+02 -0.92978551575E+01 -0.14015438818E+02  0.63984710335E+02  0.10000000000E+01 0.  0.
    9000005    1    3    3    0    0  0.61726497721E+02  0.92978551575E+01 -0.20095535534E+02  0.65585373215E+02  0.10000000000E+01 0.  0.
<mgrwt>
<rscale>  0 0.12499939E+03</rscale>
<asrwt>0</asrwt>
<pdfrwt beam="2">  1        4 0.12590851E-01 0.12499939E+03</pdfrwt>
<pdfrwt beam="1">  1       -4 0.73430084E-02 0.12499939E+03</pdfrwt>
<totfact> 0.10353855E+04</totfact>
</mgrwt>
</event>
<event>
 5    1  0.3282316E-002  0.1250233E+03  0.7818608E-02  0.1235033E+00
          4   -1    0    0  501    0  0.00000000000E+00  0.00000000000E+00  0.53633744708E+02  0.53648778843E+02  0.12700000000E+01 0. -1.
         -4   -1    0    0    0  501 -0.00000000000E+00 -0.00000000000E+00 -0.72828342719E+02  0.72839415176E+02  0.12700000000E+01 0. -1.
         25    2    1    2    0    0  0.00000000000E+00  0.00000000000E+00 -0.19194598011E+02  0.12648819402E+03  0.12502332036E+03 0.  0.
    9000005    1    3    3    0    0 -0.85028540854E+01 -0.61384328903E+02 -0.17839736360E+02  0.64494887827E+02  0.10000000000E+01 0.  0.
    9000005    1    3    3    0    0  0.85028540854E+01  0.61384328903E+02 -0.13548616516E+01  0.61993306192E+02  0.10000000000E+01 0.  0.
<mgrwt>
<rscale>  0 0.12502332E+03</rscale>
<asrwt>0</asrwt>
<pdfrwt beam="1">  1        4 0.82533536E-02 0.12502332E+03</pdfrwt>
<pdfrwt beam="2">  1       -4 0.11206369E-01 0.12502332E+03</pdfrwt>
<totfact> 0.10414803E+04</totfact>
</mgrwt>
</event>
<event>
 5    1  0.3282316E-002  0.1249943E+03  0.7818608E-02  0.1235078E+00
          4   -1    0    0  501    0  0.00000000000E+00  0.00000000000E+00  0.45772690389E+03  0.45772866574E+03  0.12700000000E+01 0. -1.
         -4   -1    0    0    0  501 -0.00000000000E+00 -0.00000000000E+00 -0.84841941247E+01  0.85787207639E+01  0.12700000000E+01 0. -1.
         25    2    1    2    0    0  0.00000000000E+00  0.00000000000E+00  0.44924270976E+03  0.46630738650E+03  0.12499426561E+03 0.  0.
    9000005    1    3    3    0    0  0.35563839632E+02  0.49926768473E+02  0.26991782921E+03  0.27679252776E+03  0.10000000000E+01 0.  0.
    9000005    1    3    3    0    0 -0.35563839632E+02 -0.49926768473E+02  0.17932488055E+03  0.18951485874E+03  0.10000000000E+01 0.  0.
<mgrwt>
<rscale>  0 0.12499427E+03</rscale>
<asrwt>0</asrwt>
<pdfrwt beam="1">  1        4 0.70426949E-01 0.12499427E+03</pdfrwt>
<pdfrwt beam="2">  1       -4 0.13126671E-02 0.12499427E+03</pdfrwt>
<totfact> 0.58584051E+03</totfact>
</mgrwt>
</event>
<event>
 5    1  0.3282316E-002  0.1249989E+03  0.7818608E-02  0.1235071E+00
         -4   -1    0    0    0  501 -0.00000000000E+00  0.00000000000E+00  0.52333752366E+02  0.52349159847E+02  0.12700000000E+01 0. -1.
          4   -1    0    0  501    0  0.00000000000E+00 -0.00000000000E+00 -0.74607971428E+02  0.74618779812E+02  0.12700000000E+01 0. -1.
         25    2    1    2    0    0  0.00000000000E+00  0.00000000000E+00 -0.22274219062E+02  0.12696793966E+03  0.12499886746E+03 0.  0.
    9000005    1    3    3    0    0 -0.29847424755E+02 -0.17746680847E+02  0.41636750682E+02  0.54225754517E+02  0.10000000000E+01 0.  0.
    9000005    1    3    3    0    0  0.29847424755E+02  0.17746680847E+02 -0.63910969744E+02  0.72742185142E+02  0.10000000000E+01 0.  0.
<mgrwt>
<rscale>  0 0.12499887E+03</rscale>
<asrwt>0</asrwt>
<pdfrwt beam="2">  1        4 0.11480166E-01 0.12499887E+03</pdfrwt>
<pdfrwt beam="1">  1       -4 0.80533631E-02 0.12499887E+03</pdfrwt>
<totfact> 0.10410108E+04</totfact>
</mgrwt>
</event>
<event>
 5    1  0.3282316E-002  0.1250026E+03  0.7818608E-02  0.1235065E+00
         -4   -1    0    0    0  501 -0.00000000000E+00  0.00000000000E+00  0.30854357384E+03  0.30854618756E+03  0.12700000000E+01 0.  1.
          4   -1    0    0  501    0  0.00000000000E+00 -0.00000000000E+00 -0.12626281811E+02  0.12689991820E+02  0.12700000000E+01 0.  1.
         25    2    1    2    0    0  0.00000000000E+00  0.00000000000E+00  0.29591729202E+03  0.32123617937E+03  0.12500255686E+03 0.  0.
    9000005    1    3    3    0    0  0.45468001914E+02 -0.16157545935E+02  0.25001075793E+03  0.25462675541E+03  0.10000000000E+01 0.  0.
    9000005    1    3    3    0    0 -0.45468001914E+02  0.16157545935E+02  0.45906534094E+02  0.66609423967E+02  0.10000000000E+01 0.  0.
<mgrwt>
<rscale>  0 0.12500256E+03</rscale>
<asrwt>0</asrwt>
<pdfrwt beam="2">  1        4 0.19476068E-02 0.12500256E+03</pdfrwt>
<pdfrwt beam="1">  1       -4 0.47473343E-01 0.12500256E+03</pdfrwt>
<totfact> 0.73005200E+03</totfact>
</mgrwt>
</event>
<event>
 5    1  0.3282316E-002  0.1250050E+03  0.7818608E-02  0.1235061E+00
         -4   -1    0    0    0  501 -0.00000000000E+00  0.00000000000E+00  0.55628388221E+01  0.57059684332E+01  0.12700000000E+01 0. -1.
          4   -1    0    0  501    0  0.00000000000E+00 -0.00000000000E+00 -0.69319761442E+03  0.69319877780E+03  0.12700000000E+01 0. -1.
         25    2    1    2    0    0  0.00000000000E+00  0.00000000000E+00 -0.68763477560E+03  0.69890474623E+03  0.12500503866E+03 0.  0.
    9000005    1    3    3    0    0  0.92988940982E+01  0.23493244178E+02 -0.66339464865E+03  0.66387639046E+03  0.10000000000E+01 0.  0.
    9000005    1    3    3    0    0 -0.92988940982E+01 -0.23493244178E+02 -0.24240126951E+02  0.35028355771E+02  0.10000000000E+01 0.  0.
<mgrwt>
<rscale>  0 0.12500504E+03</rscale>
<asrwt>0</asrwt>
<pdfrwt beam="2">  1        4 0.10665682E+00 0.12500504E+03</pdfrwt>
<pdfrwt beam="1">  1       -4 0.86692136E-03 0.12500504E+03</pdfrwt>
<totfact> 0.43139835E+03</totfact>
</mgrwt>
</event>
<event>
 5    1  0.3282316E-002  0.1249926E+03  0.7818608E-02  0.1235081E+00
         -4   -1    0    0    0  501 -0.00000000000E+00  0.00000000000E+00  0.56665954188E+02  0.56680184050E+02  0.12700000000E+01 0. -1.
          4   -1    0    0  501    0  0.00000000000E+00 -0.00000000000E+00 -0.68897835130E+02  0.68909539148E+02  0.12700000000E+01 0. -1.
         25    2    1    2    0    0  0.00000000000E+00  0.00000000000E+00 -0.12231880942E+02  0.12558972320E+03  0.12499263843E+03 0.  0.
    9000005    1    3    3    0    0 -0.37861672567E+02 -0.10202809114E+02  0.42770215813E+02  0.58033567218E+02  0.10000000000E+01 0.  0.
    9000005    1    3    3    0    0  0.37861672567E+02  0.10202809114E+02 -0.55002096755E+02  0.67556155980E+02  0.10000000000E+01 0.  0.
<mgrwt>
<rscale>  0 0.12499264E+03</rscale>
<asrwt>0</asrwt>
<pdfrwt beam="2">  1        4 0.10601662E-01 0.12499264E+03</pdfrwt>
<pdfrwt beam="1">  1       -4 0.87198340E-02 0.12499264E+03</pdfrwt>
<totfact> 0.10441707E+04</totfact>
</mgrwt>
</event>
<event>
 5    1  0.3282316E-002  0.1249983E+03  0.7818608E-02  0.1235072E+00
         -4   -1    0    0    0  501 -0.00000000000E+00  0.00000000000E+00  0.20352147477E+03  0.20352543721E+03  0.12700000000E+01 0.  1.
          4   -1    0    0  501    0  0.00000000000E+00 -0.00000000000E+00 -0.19167623413E+02  0.19209650890E+02  0.12700000000E+01 0.  1.
         25    2    1    2    0    0  0.00000000000E+00  0.00000000000E+00  0.18435385136E+03  0.22273508810E+03  0.12499830783E+03 0.  0.
    9000005    1    3    3    0    0 -0.35690702718E+02  0.41145763122E+02  0.37592897644E+02  0.66189319657E+02  0.10000000000E+01 0.  0.
    9000005    1    3    3    0    0  0.35690702718E+02 -0.41145763122E+02  0.14676095371E+03  0.15654576844E+03  0.10000000000E+01 0.  0.
<mgrwt>
<rscale>  0 0.12499831E+03</rscale>
<asrwt>0</asrwt>
<pdfrwt beam="2">  1        4 0.29524029E-02 0.12499831E+03</pdfrwt>
<pdfrwt beam="1">  1       -4 0.31314533E-01 0.12499831E+03</pdfrwt>
<totfact> 0.86440666E+03</totfact>
</mgrwt>
</event>
<event>
 5    1  0.3282316E-002  0.1250047E+03  0.7818608E-02  0.1235062E+00
         -4   -1    0    0    0  501 -0.00000000000E+00  0.00000000000E+00  0.49600650397E+02  0.49616906593E+02  0.12700000000E+01 0.  1.
          4   -1    0    0  501    0  0.00000000000E+00 -0.00000000000E+00 -0.78725606486E+02  0.78735849628E+02  0.12700000000E+01 0.  1.
         25    2    1    2    0    0  0.00000000000E+00  0.00000000000E+00 -0.29124956089E+02  0.12835275622E+03  0.12500466776E+03 0.  0.
    9000005    1    3    3    0    0 -0.34145327754E+02 -0.30891822952E+02 -0.57947383871E+02  0.74020993172E+02  0.10000000000E+01 0.  0.
    9000005    1    3    3    0    0  0.34145327754E+02  0.30891822952E+02  0.28822427781E+02  0.54331763048E+02  0.10000000000E+01 0.  0.
<mgrwt>
<rscale>  0 0.12500467E+03</rscale>
<asrwt>0</asrwt>
<pdfrwt beam="2">  1        4 0.12113670E-01 0.12500467E+03</pdfrwt>
<pdfrwt beam="1">  1       -4 0.76329077E-02 0.12500467E+03</pdfrwt>
<totfact> 0.10378783E+04</totfact>
</mgrwt>
</event>
<event>
 5    1  0.3282316E-002  0.1249996E+03  0.7818608E-02  0.1235070E+00
          4   -1    0    0  501    0  0.00000000000E+00  0.00000000000E+00  0.27295930283E+02  0.27325459008E+02  0.12700000000E+01 0.  1.
         -4   -1    0    0    0  501 -0.00000000000E+00 -0.00000000000E+00 -0.14299678526E+03  0.14300242478E+03  0.12700000000E+01 0.  1.
         25    2    1    2    0    0  0.00000000000E+00  0.00000000000E+00 -0.11570085497E+03  0.17032788379E+03  0.12499960062E+03 0.  0.
    9000005    1    3    3    0    0  0.51363467499E+02  0.33701489030E+02 -0.73460029864E+02  0.95767281176E+02  0.10000000000E+01 0.  0.
    9000005    1    3    3    0    0 -0.51363467499E+02 -0.33701489030E+02 -0.42240825110E+02  0.74560602615E+02  0.10000000000E+01 0.  0.
<mgrwt>
<rscale>  0 0.12499960E+03</rscale>
<asrwt>0</asrwt>
<pdfrwt beam="1">  1        4 0.42020792E-02 0.12499960E+03</pdfrwt>
<pdfrwt beam="2">  1       -4 0.22002210E-01 0.12499960E+03</pdfrwt>
<totfact> 0.95388414E+03</totfact>
</mgrwt>
</event>
<event>
 5    1  0.3282316E-002  0.1249993E+03  0.7818608E-02  0.1235070E+00
          4   -1    0    0  501    0  0.00000000000E+00  0.00000000000E+00  0.26946887591E+03  0.26947186863E+03  0.12700000000E+01 0. -1.
         -4   -1    0    0    0  501 -0.00000000000E+00 -0.00000000000E+00 -0.14465061114E+02  0.14520705666E+02  0.12700000000E+01 0. -1.
         25    2    1    2    0    0  0.00000000000E+00  0.00000000000E+00  0.25500381479E+03  0.28399257429E+03  0.12499934678E+03 0.  0.
    9000005    1    3    3    0    0  0.32963515946E+02 -0.52344244829E+02  0.14765654918E+03  0.16009362844E+03  0.10000000000E+01 0.  0.
    9000005    1    3    3    0    0 -0.32963515946E+02  0.52344244829E+02  0.10734726561E+03  0.12389894586E+03  0.10000000000E+01 0.  0.
<mgrwt>
<rscale>  0 0.12499935E+03</rscale>
<asrwt>0</asrwt>
<pdfrwt beam="1">  1        4 0.41461258E-01 0.12499935E+03</pdfrwt>
<pdfrwt beam="2">  1       -4 0.22299047E-02 0.12499935E+03</pdfrwt>
<totfact> 0.77652808E+03</totfact>
</mgrwt>
</event>
<event>
 5    1  0.3282316E-002  0.1249973E+03  0.7818608E-02  0.1235074E+00
         -4   -1    0    0    0  501 -0.00000000000E+00  0.00000000000E+00  0.88763266576E+02  0.88772351513E+02  0.12700000000E+01 0.  1.
          4   -1    0    0  501    0  0.00000000000E+00 -0.00000000000E+00 -0.43985095687E+02  0.44003426487E+02  0.12700000000E+01 0.  1.
         25    2    1    2    0    0  0.00000000000E+00  0.00000000000E+00  0.44778170889E+02  0.13277577800E+03  0.12499729051E+03 0.  0.
    9000005    1    3    3    0    0 -0.34882152417E+02 -0.47734306924E+02  0.88708729898E+00  0.59136414658E+02  0.10000000000E+01 0.  0.
    9000005    1    3    3    0    0  0.34882152417E+02  0.47734306924E+02  0.43891083590E+02  0.73639363342E+02  0.10000000000E+01 0.  0.
<mgrwt>
<rscale>  0 0.12499729E+03</rscale>
<asrwt>0</asrwt>
<pdfrwt beam="2">  1        4 0.67690468E-02 0.12499729E+03</pdfrwt>
<pdfrwt beam="1">  1       -4 0.13657996E-01 0.12499729E+03</pdfrwt>
<totfact> 0.10285796E+04</totfact>
</mgrwt>
</event>
<event>
 5    1  0.3282316E-002  0.1250006E+03  0.7818608E-02  0.1235068E+00
         -4   -1    0    0    0  501 -0.00000000000E+00  0.00000000000E+00  0.78661119014E+03  0.78661221536E+03  0.12700000000E+01 0. -1.
          4   -1    0    0  501    0  0.00000000000E+00 -0.00000000000E+00 -0.48837258339E+01  0.50461547757E+01  0.12700000000E+01 0. -1.
         25    2    1    2    0    0  0.00000000000E+00  0.00000000000E+00  0.78172746431E+03  0.79165837014E+03  0.12500058622E+03 0.  0.
    9000005    1    3    3    0    0 -0.31257405149E+01 -0.30956741200E+02  0.73409928277E+03  0.73475904012E+03  0.10000000000E+01 0.  0.
    9000005    1    3    3    0    0  0.31257405149E+01  0.30956741200E+02  0.47628181542E+02  0.56899330018E+02  0.10000000000E+01 0.  0.
<mgrwt>
<rscale>  0 0.12500059E+03</rscale>
<asrwt>0</asrwt>
<pdfrwt beam="2">  1        4 0.76391568E-03 0.12500059E+03</pdfrwt>
<pdfrwt beam="1">  1       -4 0.12102970E+00 0.12500059E+03</pdfrwt>
<totfact> 0.38639340E+03</totfact>
</mgrwt>
</event>
<event>
 5    1  0.3282316E-002  0.1250009E+03  0.7818608E-02  0.1235068E+00
         -4   -1    0    0    0  501 -0.00000000000E+00  0.00000000000E+00  0.22780693758E+03  0.22781047761E+03  0.12700000000E+01 0.  1.
          4   -1    0    0  501    0  0.00000000000E+00 -0.00000000000E+00 -0.17120240870E+02  0.17167281306E+02  0.12700000000E+01 0.  1.
         25    2    1    2    0    0  0.00000000000E+00  0.00000000000E+00  0.21068669671E+03  0.24497775892E+03  0.12500087277E+03 0.  0.
    9000005    1    3    3    0    0  0.37968947746E+02  0.47781904306E+02  0.79009387921E+02  0.99841047429E+02  0.10000000000E+01 0.  0.
    9000005    1    3    3    0    0 -0.37968947746E+02 -0.47781904306E+02  0.13167730879E+03  0.14513671149E+03  0.10000000000E+01 0.  0.
<mgrwt>
<rscale>  0 0.12500087E+03</rscale>
<asrwt>0</asrwt>
<pdfrwt beam="2">  1        4 0.26377740E-02 0.12500087E+03</pdfrwt>
<pdfrwt beam="1">  1       -4 0.35051112E-01 0.12500087E+03</pdfrwt>
<totfact> 0.83059943E+03</totfact>
</mgrwt>
</event>
<event>
 5    1  0.3282316E-002  0.1249990E+03  0.7818608E-02  0.1235071E+00
         -4   -1    0    0    0  501 -0.00000000000E+00  0.00000000000E+00  0.61810909984E+03  0.61811040454E+03  0.12700000000E+01 0.  1.
          4   -1    0    0  501    0  0.00000000000E+00 -0.00000000000E+00 -0.62544479085E+01  0.63820857594E+01  0.12700000000E+01 0.  1.
         25    2    1    2    0    0  0.00000000000E+00  0.00000000000E+00  0.61185465193E+03  0.62449249030E+03  0.12499902141E+03 0.  0.
    9000005    1    3    3    0    0  0.14868404295E+02  0.43139089491E+02  0.92607893033E+02  0.10324375206E+03  0.10000000000E+01 0.  0.
    9000005    1    3    3    0    0 -0.14868404295E+02 -0.43139089491E+02  0.51924675890E+03  0.52124873824E+03  0.10000000000E+01 0.  0.
<mgrwt>
<rscale>  0 0.12499902E+03</rscale>
<asrwt>0</asrwt>
<pdfrwt beam="2">  1        4 0.97214168E-03 0.12499902E+03</pdfrwt>
<pdfrwt beam="1">  1       -4 0.95103600E-01 0.12499902E+03</pdfrwt>
<totfact> 0.47358218E+03</totfact>
</mgrwt>
</event>
<event>
 5    1  0.3282316E-002  0.1249976E+03  0.7818608E-02  0.1235073E+00
         -4   -1    0    0    0  501 -0.00000000000E+00  0.00000000000E+00  0.45611871651E+01  0.47346941142E+01  0.12700000000E+01 0.  1.
          4   -1    0    0  501    0  0.00000000000E+00 -0.00000000000E+00 -0.84022012453E+03  0.84022108434E+03  0.12700000000E+01 0.  1.
         25    2    1    2    0    0  0.00000000000E+00  0.00000000000E+00 -0.83565893736E+03  0.84495577845E+03  0.12499763174E+03 0.  0.
    9000005    1    3    3    0    0 -0.12674933878E+02 -0.32530717235E+02 -0.67480046014E+02  0.75983275283E+02  0.10000000000E+01 0.  0.
    9000005    1    3    3    0    0  0.12674933878E+02  0.32530717235E+02 -0.76817889135E+03  0.76897250317E+03  0.10000000000E+01 0.  0.
<mgrwt>
<rscale>  0 0.12499763E+03</rscale>
<asrwt>0</asrwt>
<pdfrwt beam="2">  1        4 0.12927793E+00 0.12499763E+03</pdfrwt>
<pdfrwt beam="1">  1       -4 0.71514229E-03 0.12499763E+03</pdfrwt>
<totfact> 0.36336542E+03</totfact>
</mgrwt>
</event>
<event>
 5    1  0.3282316E-002  0.1249938E+03  0.7818608E-02  0.1235079E+00
         -4   -1    0    0    0  501 -0.00000000000E+00  0.00000000000E+00  0.10669118605E+03  0.10669874452E+03  0.12700000000E+01 0.  1.
          4   -1    0    0  501    0  0.00000000000E+00 -0.00000000000E+00 -0.36589173737E+02  0.36611207775E+02  0.12700000000E+01 0.  1.
         25    2    1    2    0    0  0.00000000000E+00  0.00000000000E+00  0.70102012317E+02  0.14330995229E+03  0.12499380103E+03 0.  0.
    9000005    1    3    3    0    0 -0.24063126390E+02  0.43327782739E+02  0.78687704970E+02  0.93000460871E+02  0.10000000000E+01 0.  0.
    9000005    1    3    3    0    0  0.24063126390E+02 -0.43327782739E+02 -0.85856926529E+01  0.50309491421E+02  0.10000000000E+01 0.  0.
<mgrwt>
<rscale>  0 0.12499380E+03</rscale>
<asrwt>0</asrwt>
<pdfrwt beam="2">  1        4 0.56313800E-02 0.12499380E+03</pdfrwt>
<pdfrwt beam="1">  1       -4 0.16416305E-01 0.12499380E+03</pdfrwt>
<totfact> 0.10066845E+04</totfact>
</mgrwt>
</event>
<event>
 5    1  0.3282316E-002  0.1250032E+03  0.7818608E-02  0.1235064E+00
          4   -1    0    0  501    0  0.00000000000E+00  0.00000000000E+00  0.19316418564E+02  0.19358123002E+02  0.12700000000E+01 0.  1.
         -4   -1    0    0    0  501 -0.00000000000E+00 -0.00000000000E+00 -0.20197303173E+03  0.20197702455E+03  0.12700000000E+01 0.  1.
         25    2    1    2    0    0  0.00000000000E+00  0.00000000000E+00 -0.18265661317E+03  0.22133514756E+03  0.12500323679E+03 0.  0.
    9000005    1    3    3    0    0 -0.59612833983E+02  0.18438771011E+02 -0.97403947097E+02  0.11568149014E+03  0.10000000000E+01 0.  0.
    9000005    1    3    3    0    0  0.59612833983E+02 -0.18438771011E+02 -0.85252666073E+02  0.10565365741E+03  0.10000000000E+01 0.  0.
<mgrwt>
<rscale>  0 0.12500324E+03</rscale>
<asrwt>0</asrwt>
<pdfrwt beam="1">  1        4 0.29752720E-02 0.12500324E+03</pdfrwt>
<pdfrwt beam="2">  1       -4 0.31076288E-01 0.12500324E+03</pdfrwt>
<totfact> 0.86651256E+03</totfact>
</mgrwt>
</event>
<event>
 5    1  0.3282316E-002  0.1250056E+03  0.7818608E-02  0.1235060E+00
         -4   -1    0    0    0  501 -0.00000000000E+00  0.00000000000E+00  0.10857625424E+02  0.10931648085E+02  0.12700000000E+01 0.  1.
          4   -1    0    0  501    0  0.00000000000E+00 -0.00000000000E+00 -0.35850516414E+03  0.35850741361E+03  0.12700000000E+01 0.  1.
         25    2    1    2    0    0  0.00000000000E+00  0.00000000000E+00 -0.34764753871E+03  0.36943906169E+03  0.12500563640E+03 0.  0.
    9000005    1    3    3    0    0 -0.50369448124E+02  0.68710772735E+01 -0.66396271863E+02  0.83628690798E+02  0.10000000000E+01 0.  0.
    9000005    1    3    3    0    0  0.50369448124E+02 -0.68710772735E+01 -0.28125126685E+03  0.28581037090E+03  0.10000000000E+01 0.  0.
<mgrwt>
<rscale>  0 0.12500564E+03</rscale>
<asrwt>0</asrwt>
<pdfrwt beam="2">  1        4 0.55160499E-01 0.12500564E+03</pdfrwt>
<pdfrwt beam="1">  1       -4 0.16762713E-02 0.12500564E+03</pdfrwt>
<totfact> 0.67629239E+03</totfact>
</mgrwt>
</event>
<event>
 5    1  0.3282316E-002  0.1249910E+03  0.7818608E-02  0.1235083E+00
          4   -1    0    0  501    0  0.00000000000E+00  0.00000000000E+00  0.28817475982E+03  0.28817755828E+03  0.12700000000E+01 0. -1.
         -4   -1    0    0    0  501 -0.00000000000E+00 -0.00000000000E+00 -0.13520571008E+02  0.13580086170E+02  0.12700000000E+01 0. -1.
         25    2    1    2    0    0  0.00000000000E+00  0.00000000000E+00  0.27465418881E+03  0.30175764445E+03  0.12499100989E+03 0.  0.
    9000005    1    3    3    0    0  0.42589162636E+02  0.28562432352E+02  0.51120357186E+02  0.72415055304E+02  0.10000000000E+01 0.  0.
    9000005    1    3    3    0    0 -0.42589162636E+02 -0.28562432352E+02  0.22353383162E+03  0.22934258914E+03  0.10000000000E+01 0.  0.
<mgrwt>
<rscale>  0 0.12499101E+03</rscale>
<asrwt>0</asrwt>
<pdfrwt beam="1">  1        4 0.44339368E-01 0.12499101E+03</pdfrwt>
<pdfrwt beam="2">  1       -4 0.20848814E-02 0.12499101E+03</pdfrwt>
<totfact> 0.75393936E+03</totfact>
</mgrwt>
</event>
<event>
 5    1  0.3282316E-002  0.1250150E+03  0.7818608E-02  0.1235046E+00
          4   -1    0    0  501    0  0.00000000000E+00  0.00000000000E+00  0.36183607572E+03  0.36183830449E+03  0.12700000000E+01 0.  1.
         -4   -1    0    0    0  501 -0.00000000000E+00 -0.00000000000E+00 -0.10758608631E+02  0.10833307882E+02  0.12700000000E+01 0.  1.
         25    2    1    2    0    0  0.00000000000E+00  0.00000000000E+00  0.35107746709E+03  0.37267161237E+03  0.12501497017E+03 0.  0.
    9000005    1    3    3    0    0  0.60689793821E+02  0.95162348111E+01  0.20983672924E+03  0.21864643317E+03  0.10000000000E+01 0.  0.
    9000005    1    3    3    0    0 -0.60689793821E+02 -0.95162348111E+01  0.14124073785E+03  0.15402517920E+03  0.10000000000E+01 0.  0.
<mgrwt>
<rscale>  0 0.12501497E+03</rscale>
<asrwt>0</asrwt>
<pdfrwt beam="1">  1        4 0.55672993E-01 0.12501497E+03</pdfrwt>
<pdfrwt beam="2">  1       -4 0.16610885E-02 0.12501497E+03</pdfrwt>
<totfact> 0.67278100E+03</totfact>
</mgrwt>
</event>
<event>
 5    1  0.3282316E-002  0.1249995E+03  0.7818608E-02  0.1235070E+00
         -4   -1    0    0    0  501 -0.00000000000E+00  0.00000000000E+00  0.51224772453E+01  0.52775631809E+01  0.12700000000E+01 0. -1.
          4   -1    0    0  501    0  0.00000000000E+00 -0.00000000000E+00 -0.75103779911E+03  0.75103887289E+03  0.12700000000E+01 0. -1.
         25    2    1    2    0    0  0.00000000000E+00  0.00000000000E+00 -0.74591532187E+03  0.75631643607E+03  0.12499953631E+03 0.  0.
    9000005    1    3    3    0    0 -0.16692736984E+02 -0.57876795502E+02 -0.27228362622E+03  0.27886868601E+03  0.10000000000E+01 0.  0.
    9000005    1    3    3    0    0  0.16692736984E+02  0.57876795502E+02 -0.47363169564E+03  0.47744775007E+03  0.10000000000E+01 0.  0.
<mgrwt>
<rscale>  0 0.12499954E+03</rscale>
<asrwt>0</asrwt>
<pdfrwt beam="2">  1        4 0.11555620E+00 0.12499954E+03</pdfrwt>
<pdfrwt beam="1">  1       -4 0.80008630E-03 0.12499954E+03</pdfrwt>
<totfact> 0.40274263E+03</totfact>
</mgrwt>
</event>
<event>
 5    1  0.3282316E-002  0.1250014E+03  0.7818608E-02  0.1235067E+00
          4   -1    0    0  501    0  0.00000000000E+00  0.00000000000E+00  0.94646382998E+02  0.94654903278E+02  0.12700000000E+01 0. -1.
         -4   -1    0    0    0  501 -0.00000000000E+00 -0.00000000000E+00 -0.41252823569E+02  0.41272367904E+02  0.12700000000E+01 0. -1.
         25    2    1    2    0    0  0.00000000000E+00  0.00000000000E+00  0.53393559429E+02  0.13592727118E+03  0.12500140344E+03 0.  0.
    9000005    1    3    3    0    0  0.54617846816E+02  0.90902551899E+01  0.58205214824E+02  0.80340456577E+02  0.10000000000E+01 0.  0.
    9000005    1    3    3    0    0 -0.54617846816E+02 -0.90902551899E+01 -0.48116553953E+01  0.55586814605E+02  0.10000000000E+01 0.  0.
<mgrwt>
<rscale>  0 0.12500140E+03</rscale>
<asrwt>0</asrwt>
<pdfrwt beam="1">  1        4 0.14563141E-01 0.12500140E+03</pdfrwt>
<pdfrwt beam="2">  1       -4 0.63487471E-02 0.12500140E+03</pdfrwt>
<totfact> 0.10218240E+04</totfact>
</mgrwt>
</event>
<event>
 5    1  0.3282316E-002  0.1250030E+03  0.7818608E-02  0.1235065E+00
          4   -1    0    0  501    0  0.00000000000E+00  0.00000000000E+00  0.11219712468E+04  0.11219719656E+04  0.12700000000E+01 0. -1.
         -4   -1    0    0    0  501 -0.00000000000E+00 -0.00000000000E+00 -0.33652107861E+01  0.35968797082E+01  0.12700000000E+01 0. -1.
         25    2    1    2    0    0  0.00000000000E+00  0.00000000000E+00  0.11186060361E+04  0.11255688453E+04  0.12500304667E+03 0.  0.
    9000005    1    3    3    0    0  0.30314610839E+02 -0.40023361718E+01  0.10500552725E+04  0.10505008661E+04  0.10000000000E+01 0.  0.
    9000005    1    3    3    0    0 -0.30314610839E+02  0.40023361718E+01  0.68550763578E+02  0.75067979274E+02  0.10000000000E+01 0.  0.
<mgrwt>
<rscale>  0 0.12500305E+03</rscale>
<asrwt>0</asrwt>
<pdfrwt beam="1">  1        4 0.17262910E+00 0.12500305E+03</pdfrwt>
<pdfrwt beam="2">  1       -4 0.53559988E-03 0.12500305E+03</pdfrwt>
<totfact> 0.26745028E+03</totfact>
</mgrwt>
</event>
<event>
 5    1  0.3282316E-002  0.1250041E+03  0.7818608E-02  0.1235063E+00
          4   -1    0    0  501    0  0.00000000000E+00  0.00000000000E+00  0.84109967195E+03  0.84110063076E+03  0.12700000000E+01 0.  1.
         -4   -1    0    0    0  501 -0.00000000000E+00 -0.00000000000E+00 -0.45567279399E+01  0.47303984524E+01  0.12700000000E+01 0.  1.
         25    2    1    2    0    0  0.00000000000E+00  0.00000000000E+00  0.83654294401E+03  0.84583102921E+03  0.12500413111E+03 0.  0.
    9000005    1    3    3    0    0  0.16206128677E+02  0.44954254888E+02  0.14576137067E+03  0.15339785141E+03  0.10000000000E+01 0.  0.
    9000005    1    3    3    0    0 -0.16206128677E+02 -0.44954254888E+02  0.69078157335E+03  0.69243317780E+03  0.10000000000E+01 0.  0.
<mgrwt>
<rscale>  0 0.12500413E+03</rscale>
<asrwt>0</asrwt>
<pdfrwt beam="1">  1        4 0.12941339E+00 0.12500413E+03</pdfrwt>
<pdfrwt beam="2">  1       -4 0.71446803E-03 0.12500413E+03</pdfrwt>
<totfact> 0.36295253E+03</totfact>
</mgrwt>
</event>
<event>
 5    1  0.3282316E-002  0.1249997E+03  0.7818608E-02  0.1235070E+00
          4   -1    0    0  501    0  0.00000000000E+00  0.00000000000E+00  0.26244258979E+04  0.26244262052E+04  0.12700000000E+01 0. -1.
         -4   -1    0    0    0  501 -0.00000000000E+00 -0.00000000000E+00 -0.12171409504E+01  0.17590713724E+01  0.12700000000E+01 0. -1.
         25    2    1    2    0    0  0.00000000000E+00  0.00000000000E+00  0.26232087570E+04  0.26261852766E+04  0.12499969711E+03 0.  0.
    9000005    1    3    3    0    0 -0.44968299920E+02 -0.38533877217E+02  0.17308608525E+04  0.17318739268E+04  0.10000000000E+01 0.  0.
    9000005    1    3    3    0    0  0.44968299920E+02  0.38533877217E+02  0.89234790448E+03  0.89431134976E+03  0.10000000000E+01 0.  0.
<mgrwt>
<rscale>  0 0.12499970E+03</rscale>
<asrwt>0</asrwt>
<pdfrwt beam="1">  1        4 0.40379491E+00 0.12499970E+03</pdfrwt>
<pdfrwt beam="2">  1       -4 0.22896567E-03 0.12499970E+03</pdfrwt>
<totfact> 0.37523460E+02</totfact>
</mgrwt>
</event>
<event>
 5    1  0.3282316E-002  0.1249994E+03  0.7818608E-02  0.1235070E+00
          4   -1    0    0  501    0  0.00000000000E+00  0.00000000000E+00  0.12526373477E+03  0.12527017262E+03  0.12700000000E+01 0. -1.
         -4   -1    0    0    0  501 -0.00000000000E+00 -0.00000000000E+00 -0.31163740650E+02  0.31189607745E+02  0.12700000000E+01 0. -1.
         25    2    1    2    0    0  0.00000000000E+00  0.00000000000E+00  0.94099994117E+02  0.15645978036E+03  0.12499941591E+03 0.  0.
    9000005    1    3    3    0    0 -0.20858204991E+02  0.57655472564E+02  0.62173908108E+02  0.87325901550E+02  0.10000000000E+01 0.  0.
    9000005    1    3    3    0    0  0.20858204991E+02 -0.57655472564E+02  0.31926086010E+02  0.69133878815E+02  0.10000000000E+01 0.  0.
<mgrwt>
<rscale>  0 0.12499942E+03</rscale>
<asrwt>0</asrwt>
<pdfrwt beam="1">  1        4 0.19273829E-01 0.12499942E+03</pdfrwt>
<pdfrwt beam="2">  1       -4 0.47969066E-02 0.12499942E+03</pdfrwt>
<totfact> 0.98030973E+03</totfact>
</mgrwt>
</event>
<event>
 5    1  0.3282316E-002  0.1250010E+03  0.7818608E-02  0.1235068E+00
         -4   -1    0    0    0  501 -0.00000000000E+00  0.00000000000E+00  0.82487252538E+02  0.82497028620E+02  0.12700000000E+01 0.  1.
          4   -1    0    0  501    0  0.00000000000E+00 -0.00000000000E+00 -0.47335463018E+02  0.47352496863E+02  0.12700000000E+01 0.  1.
         25    2    1    2    0    0  0.00000000000E+00  0.00000000000E+00  0.35151789519E+02  0.12984952548E+03  0.12500100384E+03 0.  0.
    9000005    1    3    3    0    0 -0.60539447911E+02 -0.12585388366E+02  0.81752384218E+01  0.62379894813E+02  0.10000000000E+01 0.  0.
    9000005    1    3    3    0    0  0.60539447911E+02  0.12585388366E+02  0.26976551098E+02  0.67469630670E+02  0.10000000000E+01 0.  0.
<mgrwt>
<rscale>  0 0.12500100E+03</rscale>
<asrwt>0</asrwt>
<pdfrwt beam="2">  1        4 0.72844413E-02 0.12500100E+03</pdfrwt>
<pdfrwt beam="1">  1       -4 0.12692409E-01 0.12500100E+03</pdfrwt>
<totfact> 0.10347493E+04</totfact>
</mgrwt>
</event>
<event>
 5    1  0.3282316E-002  0.1250045E+03  0.7818608E-02  0.1235062E+00
          4   -1    0    0  501    0  0.00000000000E+00  0.00000000000E+00  0.12381989745E+02  0.12446950231E+02  0.12700000000E+01 0.  1.
         -4   -1    0    0    0  501 -0.00000000000E+00 -0.00000000000E+00 -0.31460940995E+03  0.31461197328E+03  0.12700000000E+01 0.  1.
         25    2    1    2    0    0  0.00000000000E+00  0.00000000000E+00 -0.30222742020E+03  0.32705892351E+03  0.12500450361E+03 0.  0.
    9000005    1    3    3    0    0  0.47155663852E+02  0.37490475511E+02 -0.10762049556E+03  0.12333841029E+03  0.10000000000E+01 0.  0.
    9000005    1    3    3    0    0 -0.47155663852E+02 -0.37490475511E+02 -0.19460692465E+03  0.20372051322E+03  0.10000000000E+01 0.  0.
<mgrwt>
<rscale>  0 0.12500450E+03</rscale>
<asrwt>0</asrwt>
<pdfrwt beam="1">  1        4 0.19101159E-02 0.12500450E+03</pdfrwt>
<pdfrwt beam="2">  1       -4 0.48406636E-01 0.12500450E+03</pdfrwt>
<totfact> 0.72317137E+03</totfact>
</mgrwt>
</event>
<event>
 5    1  0.3282316E-002  0.1250011E+03  0.7818608E-02  0.1235068E+00
          4   -1    0    0  501    0  0.00000000000E+00  0.00000000000E+00  0.27668426655E+01  0.30443912915E+01  0.12700000000E+01 0.  1.
         -4   -1    0    0    0  501 -0.00000000000E+00 -0.00000000000E+00 -0.13441253436E+04  0.13441259436E+04  0.12700000000E+01 0.  1.
         25    2    1    2    0    0  0.00000000000E+00  0.00000000000E+00 -0.13413585010E+04  0.13471703349E+04  0.12500113252E+03 0.  0.
    9000005    1    3    3    0    0  0.28171851890E+02  0.50138051364E+02 -0.93419238344E+03  0.93596147715E+03  0.10000000000E+01 0.  0.
    9000005    1    3    3    0    0 -0.28171851890E+02 -0.50138051364E+02 -0.40716611754E+03  0.41120885777E+03  0.10000000000E+01 0.  0.
<mgrwt>
<rscale>  0 0.12500113E+03</rscale>
<asrwt>0</asrwt>
<pdfrwt beam="1">  1        4 0.44706522E-03 0.12500113E+03</pdfrwt>
<pdfrwt beam="2">  1       -4 0.20680941E+00 0.12500113E+03</pdfrwt>
<totfact> 0.21141356E+03</totfact>
</mgrwt>
</event>
<event>
 5    1  0.3282316E-002  0.1250028E+03  0.7818608E-02  0.1235065E+00
          4   -1    0    0  501    0  0.00000000000E+00  0.00000000000E+00  0.28446283831E+01  0.31152545061E+01  0.12700000000E+01 0. -1.
         -4   -1    0    0    0  501 -0.00000000000E+00 -0.00000000000E+00 -0.13106355397E+04  0.13106361550E+04  0.12700000000E+01 0. -1.
         25    2    1    2    0    0  0.00000000000E+00  0.00000000000E+00 -0.13077909113E+04  0.13137514095E+04  0.12500279312E+03 0.  0.
    9000005    1    3    3    0    0 -0.15061719424E+02 -0.43731328881E+02 -0.21221717067E+03  0.21720131686E+03  0.10000000000E+01 0.  0.
    9000005    1    3    3    0    0  0.15061719424E+02  0.43731328881E+02 -0.10955737406E+04  0.10965500926E+04  0.10000000000E+01 0.  0.
<mgrwt>
<rscale>  0 0.12500279E+03</rscale>
<asrwt>0</asrwt>
<pdfrwt beam="1">  1        4 0.45850091E-03 0.12500279E+03</pdfrwt>
<pdfrwt beam="2">  1       -4 0.20165664E+00 0.12500279E+03</pdfrwt>
<totfact> 0.21905003E+03</totfact>
</mgrwt>
</event>
<event>
 5    1  0.3282316E-002  0.1249983E+03  0.7818608E-02  0.1235072E+00
          4   -1    0    0  501    0  0.00000000000E+00  0.00000000000E+00  0.20620898522E+02  0.20659969890E+02  0.12700000000E+01 0.  1.
         -4   -1    0    0    0  501 -0.00000000000E+00 -0.00000000000E+00 -0.18920603601E+03  0.18921029824E+03  0.12700000000E+01 0.  1.
         25    2    1    2    0    0  0.00000000000E+00  0.00000000000E+00 -0.16858513749E+03  0.20987026813E+03  0.12499832345E+03 0.  0.
    9000005    1    3    3    0    0 -0.36550155121E+02 -0.46847728745E+02 -0.51799912521E+02  0.78834348257E+02  0.10000000000E+01 0.  0.
    9000005    1    3    3    0    0  0.36550155121E+02  0.46847728745E+02 -0.11678522496E+03  0.13103591988E+03  0.10000000000E+01 0.  0.
<mgrwt>
<rscale>  0 0.12499832E+03</rscale>
<asrwt>0</asrwt>
<pdfrwt beam="1">  1        4 0.31757794E-02 0.12499832E+03</pdfrwt>
<pdfrwt beam="2">  1       -4 0.29111953E-01 0.12499832E+03</pdfrwt>
<totfact> 0.88500390E+03</totfact>
</mgrwt>
</event>
<event>
 5    1  0.3282316E-002  0.1250029E+03  0.7818608E-02  0.1235065E+00
         -4   -1    0    0    0  501 -0.00000000000E+00  0.00000000000E+00  0.43074962488E+01  0.44908155087E+01  0.12700000000E+01 0. -1.
          4   -1    0    0  501    0  0.00000000000E+00 -0.00000000000E+00 -0.88781217324E+03  0.88781308159E+03  0.12700000000E+01 0. -1.
         25    2    1    2    0    0  0.00000000000E+00  0.00000000000E+00 -0.88350467699E+03  0.89230389710E+03  0.12500292206E+03 0.  0.
    9000005    1    3    3    0    0 -0.32863468002E+02 -0.29787167085E+02 -0.12749437444E+03  0.13499295673E+03  0.10000000000E+01 0.  0.
    9000005    1    3    3    0    0  0.32863468002E+02  0.29787167085E+02 -0.75601030255E+03  0.75731094037E+03  0.10000000000E+01 0.  0.
<mgrwt>
<rscale>  0 0.12500292E+03</rscale>
<asrwt>0</asrwt>
<pdfrwt beam="2">  1        4 0.13660052E+00 0.12500292E+03</pdfrwt>
<pdfrwt beam="1">  1       -4 0.67686379E-03 0.12500292E+03</pdfrwt>
<totfact> 0.34453677E+03</totfact>
</mgrwt>
</event>
<event>
 5    1  0.3282316E-002  0.1249956E+03  0.7818608E-02  0.1235076E+00
          4   -1    0    0  501    0  0.00000000000E+00  0.00000000000E+00  0.10495134721E+02  0.10571695835E+02  0.12700000000E+01 0.  1.
         -4   -1    0    0    0  501 -0.00000000000E+00 -0.00000000000E+00 -0.37073978009E+03  0.37074195533E+03  0.12700000000E+01 0.  1.
         25    2    1    2    0    0  0.00000000000E+00  0.00000000000E+00 -0.36024464537E+03  0.38131365117E+03  0.12499558411E+03 0.  0.
    9000005    1    3    3    0    0  0.44926377289E+02 -0.42657062034E+02 -0.20508705080E+03  0.21424215907E+03  0.10000000000E+01 0.  0.
    9000005    1    3    3    0    0 -0.44926377289E+02  0.42657062034E+02 -0.15515759457E+03  0.16707149209E+03  0.10000000000E+01 0.  0.
<mgrwt>
<rscale>  0 0.12499558E+03</rscale>
<asrwt>0</asrwt>
<pdfrwt beam="1">  1        4 0.16206930E-02 0.12499558E+03</pdfrwt>
<pdfrwt beam="2">  1       -4 0.57042936E-01 0.12499558E+03</pdfrwt>
<totfact> 0.66418180E+03</totfact>
</mgrwt>
</event>
<event>
 5    1  0.3282316E-002  0.1249985E+03  0.7818608E-02  0.1235072E+00
          4   -1    0    0  501    0  0.00000000000E+00  0.00000000000E+00  0.53374147632E+03  0.53374298726E+03  0.12700000000E+01 0. -1.
         -4   -1    0    0    0  501 -0.00000000000E+00 -0.00000000000E+00 -0.72618124207E+01  0.73720295464E+01  0.12700000000E+01 0. -1.
         25    2    1    2    0    0  0.00000000000E+00  0.00000000000E+00  0.52647966390E+03  0.54111501681E+03  0.12499849963E+03 0.  0.
    9000005    1    3    3    0    0  0.92800378889E+01  0.49872723515E+02  0.10526208838E+03  0.11685253487E+03  0.10000000000E+01 0.  0.
    9000005    1    3    3    0    0 -0.92800378889E+01 -0.49872723515E+02  0.42121757552E+03  0.42426248194E+03  0.10000000000E+01 0.  0.
<mgrwt>
<rscale>  0 0.12499850E+03</rscale>
<asrwt>0</asrwt>
<pdfrwt beam="1">  1        4 0.82122702E-01 0.12499850E+03</pdfrwt>
<pdfrwt beam="2">  1       -4 0.11257959E-02 0.12499850E+03</pdfrwt>
<totfact> 0.52811465E+03</totfact>
</mgrwt>
</event>
<event>
 5    1  0.3282316E-002  0.1249996E+03  0.7818608E-02  0.1235070E+00
         -4   -1    0    0    0  501 -0.00000000000E+00  0.00000000000E+00  0.71454987988E+02  0.71466273223E+02  0.12700000000E+01 0.  1.
          4   -1    0    0  501    0  0.00000000000E+00 -0.00000000000E+00 -0.54643954742E+02  0.54658711015E+02  0.12700000000E+01 0.  1.
         25    2    1    2    0    0  0.00000000000E+00  0.00000000000E+00  0.16811033246E+02  0.12612498424E+03  0.12499960324E+03 0.  0.
    9000005    1    3    3    0    0 -0.35283214885E+02 -0.16110457367E+02 -0.41033298060E+02  0.56472857541E+02  0.10000000000E+01 0.  0.
    9000005    1    3    3    0    0  0.35283214885E+02  0.16110457367E+02  0.57844331306E+02  0.69652126697E+02  0.10000000000E+01 0.  0.
<mgrwt>
<rscale>  0 0.12499960E+03</rscale>
<asrwt>0</asrwt>
<pdfrwt beam="2">  1        4 0.84087654E-02 0.12499960E+03</pdfrwt>
<pdfrwt beam="1">  1       -4 0.10995078E-01 0.12499960E+03</pdfrwt>
<totfact> 0.10428313E+04</totfact>
</mgrwt>
</event>
<event>
 4    1  0.3282316E-002  0.1250644E+03  0.7818608E-02  0.1234969E+00
         -4   -1    0    0    0  501 -0.00000000000E+00  0.00000000000E+00  0.39042192065E+01  0.41055849294E+01  0.12700000000E+01 0. -1.
          4   -1    0    0  501    0  0.00000000000E+00 -0.00000000000E+00 -0.97617116880E+03  0.97617199493E+03  0.12700000000E+01 0. -1.
    9000005    1    1    2    0    0  0.30944006012E+02  0.35694504513E+02 -0.16508856156E+03  0.17171739085E+03  0.10000000000E+01 0.  0.
    9000005    1    1    2    0    0 -0.30944006012E+02 -0.35694504513E+02 -0.80717838803E+03  0.80856018901E+03  0.10000000000E+01 0.  0.
<mgrwt>
<rscale>  0 0.12506443E+03</rscale>
<asrwt>0</asrwt>
<pdfrwt beam="2">  1        4 0.15019554E+00 0.12506443E+03</pdfrwt>
<pdfrwt beam="1">  1       -4 0.61620311E-03 0.12506443E+03</pdfrwt>
<totfact> 0.31220929E+03</totfact>
</mgrwt>
</event>
<event>
 5    1  0.3282316E-002  0.1250016E+03  0.7818608E-02  0.1235067E+00
          4   -1    0    0  501    0  0.00000000000E+00  0.00000000000E+00  0.63124046833E+02  0.63136821179E+02  0.12700000000E+01 0.  1.
         -4   -1    0    0    0  501 -0.00000000000E+00 -0.00000000000E+00 -0.61858125371E+02  0.61871161088E+02  0.12700000000E+01 0.  1.
         25    2    1    2    0    0  0.00000000000E+00  0.00000000000E+00  0.12659214627E+01  0.12500798227E+03  0.12500157228E+03 0.  0.
    9000005    1    3    3    0    0  0.40411929682E+02 -0.37085124184E+02  0.30583081947E+02  0.62807287776E+02  0.10000000000E+01 0.  0.
    9000005    1    3    3    0    0 -0.40411929682E+02  0.37085124184E+02 -0.29317160484E+02  0.62200694492E+02  0.10000000000E+01 0.  0.
<mgrwt>
<rscale>  0 0.12500157E+03</rscale>
<asrwt>0</asrwt>
<pdfrwt beam="1">  1        4 0.97133772E-02 0.12500157E+03</pdfrwt>
<pdfrwt beam="2">  1       -4 0.95186201E-02 0.12500157E+03</pdfrwt>
<totfact> 0.10452318E+04</totfact>
</mgrwt>
</event>
<event>
 5    1  0.3282316E-002  0.1250010E+03  0.7818608E-02  0.1235068E+00
          4   -1    0    0  501    0  0.00000000000E+00  0.00000000000E+00  0.12496757726E+04  0.12496764179E+04  0.12700000000E+01 0. -1.
         -4   -1    0    0    0  501 -0.00000000000E+00 -0.00000000000E+00 -0.29961896155E+01  0.32542360412E+01  0.12700000000E+01 0. -1.
         25    2    1    2    0    0  0.00000000000E+00  0.00000000000E+00  0.12466795829E+04  0.12529306539E+04  0.12500096409E+03 0.  0.
    9000005    1    3    3    0    0  0.46188423238E+02  0.11684801247E+02  0.10286862322E+04  0.10297894296E+04  0.10000000000E+01 0.  0.
    9000005    1    3    3    0    0 -0.46188423238E+02 -0.11684801247E+02  0.21799335079E+03  0.22314122436E+03  0.10000000000E+01 0.  0.
<mgrwt>
<rscale>  0 0.12500096E+03</rscale>
<asrwt>0</asrwt>
<pdfrwt beam="1">  1        4 0.19227786E+00 0.12500096E+03</pdfrwt>
<pdfrwt beam="2">  1       -4 0.48085124E-03 0.12500096E+03</pdfrwt>
<totfact> 0.23366878E+03</totfact>
</mgrwt>
</event>
<event>
 5    1  0.3282316E-002  0.1250008E+03  0.7818608E-02  0.1235068E+00
         -4   -1    0    0    0  501 -0.00000000000E+00  0.00000000000E+00  0.62802791255E+03  0.62802919665E+03  0.12700000000E+01 0.  1.
          4   -1    0    0  501    0  0.00000000000E+00 -0.00000000000E+00 -0.61538180844E+01  0.62835003792E+01  0.12700000000E+01 0.  1.
         25    2    1    2    0    0  0.00000000000E+00  0.00000000000E+00  0.62187409447E+03  0.63431269703E+03  0.12500083297E+03 0.  0.
    9000005    1    3    3    0    0  0.33396262519E+02  0.37906658616E+02  0.49759725483E+03  0.50015622872E+03  0.10000000000E+01 0.  0.
    9000005    1    3    3    0    0 -0.33396262519E+02 -0.37906658616E+02  0.12427683964E+03  0.13415646831E+03  0.10000000000E+01 0.  0.
<mgrwt>
<rscale>  0 0.12500083E+03</rscale>
<asrwt>0</asrwt>
<pdfrwt beam="2">  1        4 0.95681562E-03 0.12500083E+03</pdfrwt>
<pdfrwt beam="1">  1       -4 0.96629750E-01 0.12500083E+03</pdfrwt>
<totfact> 0.46770082E+03</totfact>
</mgrwt>
</event>
<event>
 5    1  0.3282316E-002  0.1250006E+03  0.7818608E-02  0.1235068E+00
          4   -1    0    0  501    0  0.00000000000E+00  0.00000000000E+00  0.21997376591E+03  0.21997743200E+03  0.12700000000E+01 0. -1.
         -4   -1    0    0    0  501 -0.00000000000E+00 -0.00000000000E+00 -0.17731455991E+02  0.17776879129E+02  0.12700000000E+01 0. -1.
         25    2    1    2    0    0  0.00000000000E+00  0.00000000000E+00  0.20224230992E+03  0.23775431112E+03  0.12500064215E+03 0.  0.
    9000005    1    3    3    0    0 -0.30748996166E+02  0.72525944303E+01 -0.14328931887E+01  0.31641018853E+02  0.10000000000E+01 0.  0.
    9000005    1    3    3    0    0  0.30748996166E+02 -0.72525944303E+01  0.20367520311E+03  0.20611329227E+03  0.10000000000E+01 0.  0.
<mgrwt>
<rscale>  0 0.12500064E+03</rscale>
<asrwt>0</asrwt>
<pdfrwt beam="1">  1        4 0.33845892E-01 0.12500064E+03</pdfrwt>
<pdfrwt beam="2">  1       -4 0.27316925E-02 0.12500064E+03</pdfrwt>
<totfact> 0.84131760E+03</totfact>
</mgrwt>
</event>
<event>
 5    1  0.3282316E-002  0.1250018E+03  0.7818608E-02  0.1235066E+00
         -4   -1    0    0    0  501 -0.00000000000E+00  0.00000000000E+00  0.99629043009E+02  0.99637137207E+02  0.12700000000E+01 0. -1.
          4   -1    0    0  501    0  0.00000000000E+00 -0.00000000000E+00 -0.39189120030E+02  0.39209693045E+02  0.12700000000E+01 0. -1.
         25    2    1    2    0    0  0.00000000000E+00  0.00000000000E+00  0.60439922979E+02  0.13884683025E+03  0.12500183191E+03 0.  0.
    9000005    1    3    3    0    0  0.62058745958E+02  0.70810479623E+01  0.32423439912E+02  0.70382587661E+02  0.10000000000E+01 0.  0.
    9000005    1    3    3    0    0 -0.62058745958E+02 -0.70810479623E+01  0.28016483068E+02  0.68464242592E+02  0.10000000000E+01 0.  0.
<mgrwt>
<rscale>  0 0.12500183E+03</rscale>
<asrwt>0</asrwt>
<pdfrwt beam="2">  1        4 0.60313005E-02 0.12500183E+03</pdfrwt>
<pdfrwt beam="1">  1       -4 0.15329750E-01 0.12500183E+03</pdfrwt>
<totfact> 0.10157123E+04</totfact>
</mgrwt>
</event>
<event>
 5    1  0.3282316E-002  0.1250007E+03  0.7818608E-02  0.1235068E+00
          4   -1    0    0  501    0  0.00000000000E+00  0.00000000000E+00  0.14445499263E+03  0.14446057523E+03  0.12700000000E+01 0. -1.
         -4   -1    0    0    0  501 -0.00000000000E+00 -0.00000000000E+00 -0.27020558332E+02  0.27050387661E+02  0.12700000000E+01 0. -1.
         25    2    1    2    0    0  0.00000000000E+00  0.00000000000E+00  0.11743443430E+03  0.17151096289E+03  0.12500065613E+03 0.  0.
    9000005    1    3    3    0    0  0.48401297833E+02 -0.31366310715E+02  0.91725947475E+02  0.10835672808E+03  0.10000000000E+01 0.  0.
    9000005    1    3    3    0    0 -0.48401297833E+02  0.31366310715E+02  0.25708486820E+02  0.63154234810E+02  0.10000000000E+01 0.  0.
<mgrwt>
<rscale>  0 0.12500066E+03</rscale>
<asrwt>0</asrwt>
<pdfrwt beam="1">  1        4 0.22226569E-01 0.12500066E+03</pdfrwt>
<pdfrwt beam="2">  1       -4 0.41597329E-02 0.12500066E+03</pdfrwt>
<totfact> 0.95166360E+03</totfact>
</mgrwt>
</event>
<event>
 4    1  0.3282316E-002  0.1248793E+03  0.7818608E-02  0.1235258E+00
          4   -1    0    0  501    0  0.00000000000E+00  0.00000000000E+00  0.43591696682E+02  0.43610192841E+02  0.12700000000E+01 0. -1.
         -4   -1    0    0    0  501 -0.00000000000E+00 -0.00000000000E+00 -0.89394945140E+02  0.89403965888E+02  0.12700000000E+01 0. -1.
    9000005    1    1    2    0    0  0.37230574496E+02 -0.48857828426E+02 -0.34786631660E+02  0.70599665849E+02  0.10000000000E+01 0.  0.
    9000005    1    1    2    0    0 -0.37230574496E+02  0.48857828426E+02 -0.11016616798E+02  0.62414492880E+02  0.10000000000E+01 0.  0.
<mgrwt>
<rscale>  0 0.12487926E+03</rscale>
<asrwt>0</asrwt>
<pdfrwt beam="1">  1        4 0.67085315E-02 0.12487926E+03</pdfrwt>
<pdfrwt beam="2">  1       -4 0.13755185E-01 0.12487926E+03</pdfrwt>
<totfact> 0.10308148E+04</totfact>
</mgrwt>
</event>
<event>
 5    1  0.3282316E-002  0.1250001E+03  0.7818608E-02  0.1235069E+00
          4   -1    0    0  501    0  0.00000000000E+00  0.00000000000E+00  0.27439038765E+03  0.27439332669E+03  0.12700000000E+01 0.  1.
         -4   -1    0    0    0  501 -0.00000000000E+00 -0.00000000000E+00 -0.14204769843E+02  0.14261430023E+02  0.12700000000E+01 0.  1.
         25    2    1    2    0    0  0.00000000000E+00  0.00000000000E+00  0.26018561780E+03  0.28865475671E+03  0.12500005145E+03 0.  0.
    9000005    1    3    3    0    0 -0.57455759482E+02  0.15878546949E+02  0.86770101307E+02  0.10527745738E+03  0.10000000000E+01 0.  0.
    9000005    1    3    3    0    0  0.57455759482E+02 -0.15878546949E+02  0.17341551649E+03  0.18337729934E+03  0.10000000000E+01 0.  0.
<mgrwt>
<rscale>  0 0.12500005E+03</rscale>
<asrwt>0</asrwt>
<pdfrwt beam="1">  1        4 0.42218489E-01 0.12500005E+03</pdfrwt>
<pdfrwt beam="2">  1       -4 0.21899338E-02 0.12500005E+03</pdfrwt>
<totfact> 0.77044278E+03</totfact>
</mgrwt>
</event>
<event>
 5    1  0.3282316E-002  0.1249677E+03  0.7818608E-02  0.1235120E+00
          4   -1    0    0  501    0  0.00000000000E+00  0.00000000000E+00  0.77617988695E+02  0.77628377988E+02  0.12700000000E+01 0. -1.
         -4   -1    0    0    0  501 -0.00000000000E+00 -0.00000000000E+00 -0.50278807650E+02  0.50294844653E+02  0.12700000000E+01 0. -1.
         25    2    1    2    0    0  0.00000000000E+00  0.00000000000E+00  0.27339181045E+02  0.12792322264E+03  0.12496767610E+03 0.  0.
    9000005    1    3    3    0    0  0.12170997634E+02 -0.61169151083E+02  0.17421208816E+02  0.64763390463E+02  0.10000000000E+01 0.  0.
    9000005    1    3    3    0    0 -0.12170997634E+02  0.61169151083E+02  0.99179722286E+01  0.63159832178E+02  0.10000000000E+01 0.  0.
<mgrwt>
<rscale>  0 0.12496768E+03</rscale>
<asrwt>0</asrwt>
<pdfrwt beam="1">  1        4 0.11943262E-01 0.12496768E+03</pdfrwt>
<pdfrwt beam="2">  1       -4 0.77372340E-02 0.12496768E+03</pdfrwt>
<totfact> 0.10396731E+04</totfact>
</mgrwt>
</event>
<event>
 5    1  0.3282316E-002  0.1249965E+03  0.7818608E-02  0.1235075E+00
         -4   -1    0    0    0  501 -0.00000000000E+00  0.00000000000E+00  0.61976564697E+02  0.61989575508E+02  0.12700000000E+01 0.  1.
          4   -1    0    0  501    0  0.00000000000E+00 -0.00000000000E+00 -0.62998266676E+02  0.63011066522E+02  0.12700000000E+01 0.  1.
         25    2    1    2    0    0  0.00000000000E+00  0.00000000000E+00 -0.10217019792E+01  0.12500064203E+03  0.12499646648E+03 0.  0.
    9000005    1    3    3    0    0  0.47813311612E+02  0.40134686211E+02 -0.33610959529E+01  0.62523617702E+02  0.10000000000E+01 0.  0.
    9000005    1    3    3    0    0 -0.47813311612E+02 -0.40134686211E+02  0.23393939738E+01  0.62477024327E+02  0.10000000000E+01 0.  0.
<mgrwt>
<rscale>  0 0.12499647E+03</rscale>
<asrwt>0</asrwt>
<pdfrwt beam="2">  1        4 0.96940265E-02 0.12499647E+03</pdfrwt>
<pdfrwt beam="1">  1       -4 0.95368415E-02 0.12499647E+03</pdfrwt>
<totfact> 0.10453683E+04</totfact>
</mgrwt>
</event>
<event>
 5    1  0.3282316E-002  0.1249953E+03  0.7818608E-02  0.1235077E+00
         -4   -1    0    0    0  501 -0.00000000000E+00  0.00000000000E+00  0.24832733667E+01  0.27891838616E+01  0.12700000000E+01 0.  1.
          4   -1    0    0  501    0  0.00000000000E+00 -0.00000000000E+00 -0.14813386299E+04  0.14813391743E+04  0.12700000000E+01 0.  1.
         25    2    1    2    0    0  0.00000000000E+00  0.00000000000E+00 -0.14788553565E+04  0.14841283581E+04  0.12499527179E+03 0.  0.
    9000005    1    3    3    0    0 -0.38970893648E+02  0.19186736256E+02 -0.12728221083E+04  0.12735634969E+04  0.10000000000E+01 0.  0.
    9000005    1    3    3    0    0  0.38970893648E+02 -0.19186736256E+02 -0.20603324824E+03  0.21056486122E+03  0.10000000000E+01 0.  0.
<mgrwt>
<rscale>  0 0.12499527E+03</rscale>
<asrwt>0</asrwt>
<pdfrwt beam="2">  1        4 0.22792116E+00 0.12499527E+03</pdfrwt>
<pdfrwt beam="1">  1       -4 0.40561669E-03 0.12499527E+03</pdfrwt>
<totfact> 0.18246338E+03</totfact>
</mgrwt>
</event>
<event>
 5    1  0.3282316E-002  0.1250005E+03  0.7818608E-02  0.1235069E+00
         -4   -1    0    0    0  501 -0.00000000000E+00  0.00000000000E+00  0.79027339062E+01  0.80041303833E+01  0.12700000000E+01 0.  1.
          4   -1    0    0  501    0  0.00000000000E+00 -0.00000000000E+00 -0.49104150981E+03  0.49104315213E+03  0.12700000000E+01 0.  1.
         25    2    1    2    0    0  0.00000000000E+00  0.00000000000E+00 -0.48313877590E+03  0.49904728251E+03  0.12500045362E+03 0.  0.
    9000005    1    3    3    0    0  0.18878541340E+02  0.48972958096E+01 -0.45394348928E+01  0.20049670783E+02  0.10000000000E+01 0.  0.
    9000005    1    3    3    0    0 -0.18878541340E+02 -0.48972958096E+01 -0.47859934101E+03  0.47899761173E+03  0.10000000000E+01 0.  0.
<mgrwt>
<rscale>  0 0.12500045E+03</rscale>
<asrwt>0</asrwt>
<pdfrwt beam="2">  1        4 0.75552750E-01 0.12500045E+03</pdfrwt>
<pdfrwt beam="1">  1       -4 0.12237317E-02 0.12500045E+03</pdfrwt>
<totfact> 0.55937814E+03</totfact>
</mgrwt>
</event>
<event>
 5    1  0.3282316E-002  0.1249998E+03  0.7818608E-02  0.1235070E+00
          4   -1    0    0  501    0  0.00000000000E+00  0.00000000000E+00  0.25373913108E+02  0.25405675870E+02  0.12700000000E+01 0.  1.
         -4   -1    0    0    0  501 -0.00000000000E+00 -0.00000000000E+00 -0.15381628506E+03  0.15382152791E+03  0.12700000000E+01 0.  1.
         25    2    1    2    0    0  0.00000000000E+00  0.00000000000E+00 -0.12844237195E+03  0.17922720378E+03  0.12499979065E+03 0.  0.
    9000005    1    3    3    0    0 -0.10532377162E+02 -0.60069878384E+02 -0.44670921913E+02  0.75602992813E+02  0.10000000000E+01 0.  0.
    9000005    1    3    3    0    0  0.10532377162E+02  0.60069878384E+02 -0.83771450037E+02  0.10362421097E+03  0.10000000000E+01 0.  0.
<mgrwt>
<rscale>  0 0.12499979E+03</rscale>
<asrwt>0</asrwt>
<pdfrwt beam="1">  1        4 0.39065256E-02 0.12499979E+03</pdfrwt>
<pdfrwt beam="2">  1       -4 0.23666890E-01 0.12499979E+03</pdfrwt>
<totfact> 0.93756735E+03</totfact>
</mgrwt>
</event>
<event>
 5    1  0.3282316E-002  0.1249992E+03  0.7818608E-02  0.1235070E+00
          4   -1    0    0  501    0  0.00000000000E+00  0.00000000000E+00  0.61825175007E+02  0.61838217671E+02  0.12700000000E+01 0. -1.
         -4   -1    0    0    0  501 -0.00000000000E+00 -0.00000000000E+00 -0.63155338843E+02  0.63168106861E+02  0.12700000000E+01 0. -1.
         25    2    1    2    0    0  0.00000000000E+00  0.00000000000E+00 -0.13301638355E+01  0.12500632453E+03  0.12499924735E+03 0.  0.
    9000005    1    3    3    0    0 -0.15587919516E+02 -0.59491458229E+02 -0.11755620636E+02  0.62621174163E+02  0.10000000000E+01 0.  0.
    9000005    1    3    3    0    0  0.15587919516E+02  0.59491458229E+02  0.10425456800E+02  0.62385150369E+02  0.10000000000E+01 0.  0.
<mgrwt>
<rscale>  0 0.12499925E+03</rscale>
<asrwt>0</asrwt>
<pdfrwt beam="1">  1        4 0.95135508E-02 0.12499925E+03</pdfrwt>
<pdfrwt beam="2">  1       -4 0.97181914E-02 0.12499925E+03</pdfrwt>
<totfact> 0.10452903E+04</totfact>
</mgrwt>
</event>
<event>
 5    1  0.3282316E-002  0.1249678E+03  0.7818608E-02  0.1235120E+00
         -4   -1    0    0    0  501 -0.00000000000E+00  0.00000000000E+00  0.11476323105E+02  0.11546380040E+02  0.12700000000E+01 0. -1.
          4   -1    0    0  501    0  0.00000000000E+00 -0.00000000000E+00 -0.33909271135E+03  0.33909508960E+03  0.12700000000E+01 0. -1.
         25    2    1    2    0    0  0.00000000000E+00  0.00000000000E+00 -0.32761638824E+03  0.35064146964E+03  0.12496776538E+03 0.  0.
    9000005    1    3    3    0    0 -0.61413124087E+02  0.19385365381E+01 -0.19554114785E+03  0.20496992520E+03  0.10000000000E+01 0.  0.
    9000005    1    3    3    0    0  0.61413124087E+02 -0.19385365381E+01 -0.13207524039E+03  0.14567154444E+03  0.10000000000E+01 0.  0.
<mgrwt>
<rscale>  0 0.12496777E+03</rscale>
<asrwt>0</asrwt>
<pdfrwt beam="2">  1        4 0.52173674E-01 0.12496777E+03</pdfrwt>
<pdfrwt beam="1">  1       -4 0.17711604E-02 0.12496777E+03</pdfrwt>
<totfact> 0.69703758E+03</totfact>
</mgrwt>
</event>
<event>
 4    1  0.3282316E-002  0.1251291E+03  0.7818608E-02  0.1234868E+00
         -4   -1    0    0    0  501 -0.00000000000E+00  0.00000000000E+00  0.29619253821E+01  0.32227165511E+01  0.12700000000E+01 0. -1.
          4   -1    0    0  501    0  0.00000000000E+00 -0.00000000000E+00 -0.12655597130E+04  0.12655603502E+04  0.12700000000E+01 0. -1.
    9000005    1    1    2    0    0 -0.17176200733E+02 -0.41820296858E+02 -0.19289333347E+03  0.19812318693E+03  0.10000000000E+01 0.  0.
    9000005    1    1    2    0    0  0.17176200733E+02  0.41820296858E+02 -0.10697044542E+04  0.10706598799E+04  0.10000000000E+01 0.  0.
<mgrwt>
<rscale>  0 0.12512912E+03</rscale>
<asrwt>0</asrwt>
<pdfrwt beam="2">  1        4 0.19472119E+00 0.12512912E+03</pdfrwt>
<pdfrwt beam="1">  1       -4 0.47579171E-03 0.12512912E+03</pdfrwt>
<totfact> 0.22912936E+03</totfact>
</mgrwt>
</event>
<event>
 5    1  0.3282316E-002  0.1250004E+03  0.7818608E-02  0.1235069E+00
         -4   -1    0    0    0  501 -0.00000000000E+00  0.00000000000E+00  0.22104180623E+03  0.22104545460E+03  0.12700000000E+01 0. -1.
          4   -1    0    0  501    0  0.00000000000E+00 -0.00000000000E+00 -0.17645480668E+02  0.17691124555E+02  0.12700000000E+01 0. -1.
         25    2    1    2    0    0  0.00000000000E+00  0.00000000000E+00  0.20339632556E+03  0.23873657916E+03  0.12500035591E+03 0.  0.
    9000005    1    3    3    0    0 -0.29949910785E+02  0.42933089859E+02  0.36509012868E+02  0.63829110768E+02  0.10000000000E+01 0.  0.
    9000005    1    3    3    0    0  0.29949910785E+02 -0.42933089859E+02  0.16688731269E+03  0.17490746839E+03  0.10000000000E+01 0.  0.
<mgrwt>
<rscale>  0 0.12500036E+03</rscale>
<asrwt>0</asrwt>
<pdfrwt beam="2">  1        4 0.27184811E-02 0.12500036E+03</pdfrwt>
<pdfrwt beam="1">  1       -4 0.34010222E-01 0.12500036E+03</pdfrwt>
<totfact> 0.83985225E+03</totfact>
</mgrwt>
</event>
<event>
 5    1  0.3282316E-002  0.1250002E+03  0.7818608E-02  0.1235069E+00
         -4   -1    0    0    0  501 -0.00000000000E+00  0.00000000000E+00  0.43392101919E+02  0.43410683120E+02  0.12700000000E+01 0. -1.
          4   -1    0    0  501    0  0.00000000000E+00 -0.00000000000E+00 -0.89980032711E+02  0.89988994809E+02  0.12700000000E+01 0. -1.
         25    2    1    2    0    0  0.00000000000E+00  0.00000000000E+00 -0.46587930792E+02  0.13339967793E+03  0.12500015510E+03 0.  0.
    9000005    1    3    3    0    0  0.34892412587E+02  0.40665253999E+02  0.11024584797E+02  0.54714575836E+02  0.10000000000E+01 0.  0.
    9000005    1    3    3    0    0 -0.34892412587E+02 -0.40665253999E+02 -0.57612515589E+02  0.78685102094E+02  0.10000000000E+01 0.  0.
<mgrwt>
<rscale>  0 0.12500016E+03</rscale>
<asrwt>0</asrwt>
<pdfrwt beam="2">  1        4 0.13845201E-01 0.12500016E+03</pdfrwt>
<pdfrwt beam="1">  1       -4 0.66778267E-02 0.12500016E+03</pdfrwt>
<totfact> 0.10271877E+04</totfact>
</mgrwt>
</event>
<event>
 5    1  0.3282316E-002  0.1250001E+03  0.7818608E-02  0.1235069E+00
          4   -1    0    0  501    0  0.00000000000E+00  0.00000000000E+00  0.17736142185E+03  0.17736596872E+03  0.12700000000E+01 0. -1.
         -4   -1    0    0    0  501 -0.00000000000E+00 -0.00000000000E+00 -0.22001136855E+02  0.22037761295E+02  0.12700000000E+01 0. -1.
         25    2    1    2    0    0  0.00000000000E+00  0.00000000000E+00  0.15536028500E+03  0.19940373002E+03  0.12500011756E+03 0.  0.
    9000005    1    3    3    0    0  0.41214625530E+02  0.46721161797E+02  0.85453510407E+02  0.10575828458E+03  0.10000000000E+01 0.  0.
    9000005    1    3    3    0    0 -0.41214625530E+02 -0.46721161797E+02  0.69906774589E+02  0.93645445434E+02  0.10000000000E+01 0.  0.
<mgrwt>
<rscale>  0 0.12500012E+03</rscale>
<asrwt>0</asrwt>
<pdfrwt beam="1">  1        4 0.27289541E-01 0.12500012E+03</pdfrwt>
<pdfrwt beam="2">  1       -4 0.33879571E-02 0.12500012E+03</pdfrwt>
<totfact> 0.90235930E+03</totfact>
</mgrwt>
</event>
<event>
 5    1  0.3282316E-002  0.1249969E+03  0.7818608E-02  0.1235074E+00
         -4   -1    0    0    0  501 -0.00000000000E+00  0.00000000000E+00  0.83814545063E+01  0.84771268506E+01  0.12700000000E+01 0. -1.
          4   -1    0    0  501    0  0.00000000000E+00 -0.00000000000E+00 -0.46329465747E+03  0.46329639816E+03  0.12700000000E+01 0. -1.
         25    2    1    2    0    0  0.00000000000E+00  0.00000000000E+00 -0.45491320297E+03  0.47177352501E+03  0.12499694661E+03 0.  0.
    9000005    1    3    3    0    0  0.12529824380E+02 -0.59683624347E+02 -0.17599229167E+03  0.18626169290E+03  0.10000000000E+01 0.  0.
    9000005    1    3    3    0    0 -0.12529824380E+02  0.59683624347E+02 -0.27892091130E+03  0.28551183211E+03  0.10000000000E+01 0.  0.
<mgrwt>
<rscale>  0 0.12499695E+03</rscale>
<asrwt>0</asrwt>
<pdfrwt beam="2">  1        4 0.71283575E-01 0.12499695E+03</pdfrwt>
<pdfrwt beam="1">  1       -4 0.12969482E-02 0.12499695E+03</pdfrwt>
<totfact> 0.58126807E+03</totfact>
</mgrwt>
</event>
<event>
 5    1  0.3282316E-002  0.1249984E+03  0.7818608E-02  0.1235072E+00
          4   -1    0    0  501    0  0.00000000000E+00  0.00000000000E+00  0.92236785460E+02  0.92245528303E+02  0.12700000000E+01 0.  1.
         -4   -1    0    0    0  501 -0.00000000000E+00 -0.00000000000E+00 -0.42328907619E+02  0.42347955325E+02  0.12700000000E+01 0.  1.
         25    2    1    2    0    0  0.00000000000E+00  0.00000000000E+00  0.49907877841E+02  0.13459348363E+03  0.12499843825E+03 0.  0.
    9000005    1    3    3    0    0  0.59225907130E+02 -0.39627380031E+01  0.45991910482E+02  0.75097717659E+02  0.10000000000E+01 0.  0.
    9000005    1    3    3    0    0 -0.59225907130E+02  0.39627380031E+01  0.39159673591E+01  0.59495765969E+02  0.10000000000E+01 0.  0.
<mgrwt>
<rscale>  0 0.12499844E+03</rscale>
<asrwt>0</asrwt>
<pdfrwt beam="1">  1        4 0.14192412E-01 0.12499844E+03</pdfrwt>
<pdfrwt beam="2">  1       -4 0.65142774E-02 0.12499844E+03</pdfrwt>
<totfact> 0.10247007E+04</totfact>
</mgrwt>
</event>
<event>
 5    1  0.3282316E-002  0.1249959E+03  0.7818608E-02  0.1235076E+00
          4   -1    0    0  501    0  0.00000000000E+00  0.00000000000E+00  0.37465372424E+02  0.37486891453E+02  0.12700000000E+01 0. -1.
         -4   -1    0    0    0  501 -0.00000000000E+00 -0.00000000000E+00 -0.10420069885E+03  0.10420843795E+03  0.12700000000E+01 0. -1.
         25    2    1    2    0    0  0.00000000000E+00  0.00000000000E+00 -0.66735326427E+02  0.14169532941E+03  0.12499585026E+03 0.  0.
    9000005    1    3    3    0    0  0.19048387747E+02 -0.17911900805E+02 -0.97706977544E+02  0.10115004067E+03  0.10000000000E+01 0.  0.
    9000005    1    3    3    0    0 -0.19048387747E+02  0.17911900805E+02  0.30971651116E+02  0.40545288741E+02  0.10000000000E+01 0.  0.
<mgrwt>
<rscale>  0 0.12499585E+03</rscale>
<asrwt>0</asrwt>
<pdfrwt beam="1">  1        4 0.57661541E-02 0.12499585E+03</pdfrwt>
<pdfrwt beam="2">  1       -4 0.16033127E-01 0.12499585E+03</pdfrwt>
<totfact> 0.10099513E+04</totfact>
</mgrwt>
</event>
<event>
 5    1  0.3282316E-002  0.1250024E+03  0.7818608E-02  0.1235066E+00
         -4   -1    0    0    0  501 -0.00000000000E+00  0.00000000000E+00  0.24645116474E+02  0.24677817286E+02  0.12700000000E+01 0.  1.
          4   -1    0    0  501    0  0.00000000000E+00 -0.00000000000E+00 -0.15836566289E+03  0.15837075514E+03  0.12700000000E+01 0.  1.
         25    2    1    2    0    0  0.00000000000E+00  0.00000000000E+00 -0.13372054641E+03  0.18304857242E+03  0.12500238131E+03 0.  0.
    9000005    1    3    3    0    0  0.22749503856E+02 -0.50386248391E+02 -0.10953036858E+03  0.12269562174E+03  0.10000000000E+01 0.  0.
    9000005    1    3    3    0    0 -0.22749503856E+02  0.50386248391E+02 -0.24190177839E+02  0.60352950686E+02  0.10000000000E+01 0.  0.
<mgrwt>
<rscale>  0 0.12500238E+03</rscale>
<asrwt>0</asrwt>
<pdfrwt beam="2">  1        4 0.24366855E-01 0.12500238E+03</pdfrwt>
<pdfrwt beam="1">  1       -4 0.37944636E-02 0.12500238E+03</pdfrwt>
<totfact> 0.93066143E+03</totfact>
</mgrwt>
</event>
<event>
 5    1  0.3282316E-002  0.1250022E+03  0.7818608E-02  0.1235066E+00
          4   -1    0    0  501    0  0.00000000000E+00  0.00000000000E+00  0.14410290928E+03  0.14410850552E+03  0.12700000000E+01 0. -1.
         -4   -1    0    0    0  501 -0.00000000000E+00 -0.00000000000E+00 -0.27087311450E+02  0.27117067349E+02  0.12700000000E+01 0. -1.
         25    2    1    2    0    0  0.00000000000E+00  0.00000000000E+00  0.11701559783E+03  0.17122557287E+03  0.12500218665E+03 0.  0.
    9000005    1    3    3    0    0  0.37986378023E+02  0.47749293159E+02  0.40006795485E+02  0.72969196223E+02  0.10000000000E+01 0.  0.
    9000005    1    3    3    0    0 -0.37986378023E+02 -0.47749293159E+02  0.77008802343E+02  0.98256376642E+02  0.10000000000E+01 0.  0.
<mgrwt>
<rscale>  0 0.12500219E+03</rscale>
<asrwt>0</asrwt>
<pdfrwt beam="1">  1        4 0.22172398E-01 0.12500219E+03</pdfrwt>
<pdfrwt beam="2">  1       -4 0.41699980E-02 0.12500219E+03</pdfrwt>
<totfact> 0.95216026E+03</totfact>
</mgrwt>
</event>
<event>
 5    1  0.3282316E-002  0.1250017E+03  0.7818608E-02  0.1235067E+00
         -4   -1    0    0    0  501 -0.00000000000E+00  0.00000000000E+00  0.92071069048E+01  0.92942841336E+01  0.12700000000E+01 0. -1.
          4   -1    0    0  501    0  0.00000000000E+00 -0.00000000000E+00 -0.42218901444E+03  0.42219092460E+03  0.12700000000E+01 0. -1.
         25    2    1    2    0    0  0.00000000000E+00  0.00000000000E+00 -0.41298190753E+03  0.43148520873E+03  0.12500171760E+03 0.  0.
    9000005    1    3    3    0    0 -0.60935985280E+02 -0.10320346309E+02 -0.23843739544E+03  0.24631909263E+03  0.10000000000E+01 0.  0.
    9000005    1    3    3    0    0  0.60935985280E+02  0.10320346309E+02 -0.17454451209E+03  0.18516611610E+03  0.10000000000E+01 0.  0.
<mgrwt>
<rscale>  0 0.12500172E+03</rscale>
<asrwt>0</asrwt>
<pdfrwt beam="2">  1        4 0.64958994E-01 0.12500172E+03</pdfrwt>
<pdfrwt beam="1">  1       -4 0.14233312E-02 0.12500172E+03</pdfrwt>
<totfact> 0.61599271E+03</totfact>
</mgrwt>
</event>
<event>
 5    1  0.3282316E-002  0.1250006E+03  0.7818608E-02  0.1235068E+00
          4   -1    0    0  501    0  0.00000000000E+00  0.00000000000E+00  0.11040701992E+02  0.11113505319E+02  0.12700000000E+01 0.  1.
         -4   -1    0    0    0  501 -0.00000000000E+00 -0.00000000000E+00 -0.35257152651E+03  0.35257381384E+03  0.12700000000E+01 0.  1.
         25    2    1    2    0    0  0.00000000000E+00  0.00000000000E+00 -0.34153082452E+03  0.36368731916E+03  0.12500064808E+03 0.  0.
    9000005    1    3    3    0    0  0.28807129204E+02 -0.45285982059E+02 -0.26389704831E+03  0.26930154654E+03  0.10000000000E+01 0.  0.
    9000005    1    3    3    0    0 -0.28807129204E+02  0.45285982059E+02 -0.77633776208E+02  0.94385772616E+02  0.10000000000E+01 0.  0.
<mgrwt>
<rscale>  0 0.12500065E+03</rscale>
<asrwt>0</asrwt>
<pdfrwt beam="1">  1        4 0.17043460E-02 0.12500065E+03</pdfrwt>
<pdfrwt beam="2">  1       -4 0.54247541E-01 0.12500065E+03</pdfrwt>
<totfact> 0.68243599E+03</totfact>
</mgrwt>
</event>
<event>
 5    1  0.3282316E-002  0.1250012E+03  0.7818608E-02  0.1235067E+00
          4   -1    0    0  501    0  0.00000000000E+00  0.00000000000E+00  0.10246289016E+03  0.10247076052E+03  0.12700000000E+01 0.  1.
         -4   -1    0    0    0  501 -0.00000000000E+00 -0.00000000000E+00 -0.38104367123E+02  0.38125525489E+02  0.12700000000E+01 0.  1.
         25    2    1    2    0    0  0.00000000000E+00  0.00000000000E+00  0.64358523042E+02  0.14059628601E+03  0.12500118460E+03 0.  0.
    9000005    1    3    3    0    0 -0.53330238644E+02  0.18090220128E+02  0.17077478645E+01  0.56349683414E+02  0.10000000000E+01 0.  0.
    9000005    1    3    3    0    0  0.53330238644E+02 -0.18090220128E+02  0.62650775177E+02  0.84246602593E+02  0.10000000000E+01 0.  0.
<mgrwt>
<rscale>  0 0.12500118E+03</rscale>
<asrwt>0</asrwt>
<pdfrwt beam="1">  1        4 0.15765754E-01 0.12500118E+03</pdfrwt>
<pdfrwt beam="2">  1       -4 0.58644434E-02 0.12500118E+03</pdfrwt>
<totfact> 0.10120972E+04</totfact>
</mgrwt>
</event>
<event>
 5    1  0.3282316E-002  0.1250089E+03  0.7818608E-02  0.1235055E+00
          4   -1    0    0  501    0  0.00000000000E+00  0.00000000000E+00  0.13927174779E+02  0.13984959682E+02  0.12700000000E+01 0.  1.
         -4   -1    0    0    0  501 -0.00000000000E+00 -0.00000000000E+00 -0.27987662053E+03  0.27987950196E+03  0.12700000000E+01 0.  1.
         25    2    1    2    0    0  0.00000000000E+00  0.00000000000E+00 -0.26594944575E+03  0.29386446164E+03  0.12500885618E+03 0.  0.
    9000005    1    3    3    0    0  0.49723079818E+02  0.17992918619E+02 -0.54667117833E+02  0.76063286539E+02  0.10000000000E+01 0.  0.
    9000005    1    3    3    0    0 -0.49723079818E+02 -0.17992918619E+02 -0.21128232792E+03  0.21780117510E+03  0.10000000000E+01 0.  0.
<mgrwt>
<rscale>  0 0.12500886E+03</rscale>
<asrwt>0</asrwt>
<pdfrwt beam="1">  1        4 0.21473091E-02 0.12500886E+03</pdfrwt>
<pdfrwt beam="2">  1       -4 0.43062604E-01 0.12500886E+03</pdfrwt>
<totfact> 0.76359954E+03</totfact>
</mgrwt>
</event>
<event>
 5    1  0.3282316E-002  0.1250058E+03  0.7818608E-02  0.1235060E+00
          4   -1    0    0  501    0  0.00000000000E+00  0.00000000000E+00  0.17959481479E+02  0.18004329340E+02  0.12700000000E+01 0.  1.
         -4   -1    0    0    0  501 -0.00000000000E+00 -0.00000000000E+00 -0.21720558330E+03  0.21720929611E+03  0.12700000000E+01 0.  1.
         25    2    1    2    0    0  0.00000000000E+00  0.00000000000E+00 -0.19924610182E+03  0.23521362545E+03  0.12500576189E+03 0.  0.
    9000005    1    3    3    0    0  0.40038433579E+02  0.44553015132E+02 -0.13315410914E+03  0.14601049312E+03  0.10000000000E+01 0.  0.
    9000005    1    3    3    0    0 -0.40038433579E+02 -0.44553015132E+02 -0.66091992682E+02  0.89203132330E+02  0.10000000000E+01 0.  0.
<mgrwt>
<rscale>  0 0.12500576E+03</rscale>
<asrwt>0</asrwt>
<pdfrwt beam="1">  1        4 0.27667327E-02 0.12500576E+03</pdfrwt>
<pdfrwt beam="2">  1       -4 0.33419977E-01 0.12500576E+03</pdfrwt>
<totfact> 0.84504558E+03</totfact>
</mgrwt>
</event>
<event>
 5    1  0.3282316E-002  0.1249919E+03  0.7818608E-02  0.1235082E+00
          4   -1    0    0  501    0  0.00000000000E+00  0.00000000000E+00  0.21069696906E+02  0.21107937552E+02  0.12700000000E+01 0. -1.
         -4   -1    0    0    0  501 -0.00000000000E+00 -0.00000000000E+00 -0.18516406952E+03  0.18516842479E+03  0.12700000000E+01 0. -1.
         25    2    1    2    0    0  0.00000000000E+00  0.00000000000E+00 -0.16409437261E+03  0.20627636235E+03  0.12499189790E+03 0.  0.
    9000005    1    3    3    0    0  0.17279947178E+02 -0.46594857650E+02 -0.14456497161E+03  0.15287154199E+03  0.10000000000E+01 0.  0.
    9000005    1    3    3    0    0 -0.17279947178E+02  0.46594857650E+02 -0.19529401007E+02  0.53404820359E+02  0.10000000000E+01 0.  0.
<mgrwt>
<rscale>  0 0.12499190E+03</rscale>
<asrwt>0</asrwt>
<pdfrwt beam="1">  1        4 0.32447686E-02 0.12499190E+03</pdfrwt>
<pdfrwt beam="2">  1       -4 0.28490055E-01 0.12499190E+03</pdfrwt>
<totfact> 0.89103778E+03</totfact>
</mgrwt>
</event>
<event>
 5    1  0.3282316E-002  0.1250003E+03  0.7818608E-02  0.1235069E+00
         -4   -1    0    0    0  501 -0.00000000000E+00  0.00000000000E+00  0.62654954801E+02  0.62667824768E+02  0.12700000000E+01 0. -1.
          4   -1    0    0  501    0  0.00000000000E+00 -0.00000000000E+00 -0.62319982559E+02  0.62332921688E+02  0.12700000000E+01 0. -1.
         25    2    1    2    0    0  0.00000000000E+00  0.00000000000E+00  0.33497224240E+00  0.12500074646E+03  0.12500029763E+03 0.  0.
    9000005    1    3    3    0    0 -0.40338722960E+02 -0.44962276033E+02 -0.15846620395E+02  0.62457459235E+02  0.10000000000E+01 0.  0.
    9000005    1    3    3    0    0  0.40338722960E+02  0.44962276033E+02  0.16181592637E+02  0.62543287221E+02  0.10000000000E+01 0.  0.
<mgrwt>
<rscale>  0 0.12500030E+03</rscale>
<asrwt>0</asrwt>
<pdfrwt beam="2">  1        4 0.95896750E-02 0.12500030E+03</pdfrwt>
<pdfrwt beam="1">  1       -4 0.96412091E-02 0.12500030E+03</pdfrwt>
<totfact> 0.10452776E+04</totfact>
</mgrwt>
</event>
<event>
 5    1  0.3282316E-002  0.1249975E+03  0.7818608E-02  0.1235073E+00
         -4   -1    0    0    0  501 -0.00000000000E+00  0.00000000000E+00  0.72035302696E+03  0.72035414648E+03  0.12700000000E+01 0. -1.
          4   -1    0    0  501    0  0.00000000000E+00 -0.00000000000E+00 -0.53469693576E+01  0.54957239115E+01  0.12700000000E+01 0. -1.
         25    2    1    2    0    0  0.00000000000E+00  0.00000000000E+00  0.71500605761E+03  0.72584987039E+03  0.12499748773E+03 0.  0.
    9000005    1    3    3    0    0 -0.43095115008E+02  0.19115949841E+02  0.59569167517E+03  0.59755516929E+03  0.10000000000E+01 0.  0.
    9000005    1    3    3    0    0  0.43095115008E+02 -0.19115949841E+02  0.11931438243E+03  0.12829470110E+03  0.10000000000E+01 0.  0.
<mgrwt>
<rscale>  0 0.12499749E+03</rscale>
<asrwt>0</asrwt>
<pdfrwt beam="2">  1        4 0.83413931E-03 0.12499749E+03</pdfrwt>
<pdfrwt beam="1">  1       -4 0.11083509E+00 0.12499749E+03</pdfrwt>
<totfact> 0.41759002E+03</totfact>
</mgrwt>
</event>
<event>
 5    1  0.3282316E-002  0.1250003E+03  0.7818608E-02  0.1235069E+00
          4   -1    0    0  501    0  0.00000000000E+00  0.00000000000E+00  0.48747789526E+02  0.48764330034E+02  0.12700000000E+01 0.  1.
         -4   -1    0    0    0  501 -0.00000000000E+00 -0.00000000000E+00 -0.80097118980E+02  0.80107186749E+02  0.12700000000E+01 0.  1.
         25    2    1    2    0    0  0.00000000000E+00  0.00000000000E+00 -0.31349329454E+02  0.12887151678E+03  0.12500034952E+03 0.  0.
    9000005    1    3    3    0    0 -0.45187853540E+02  0.42928051355E+02 -0.11005370441E+02  0.63299904259E+02  0.10000000000E+01 0.  0.
    9000005    1    3    3    0    0  0.45187853540E+02 -0.42928051355E+02 -0.20343959012E+02  0.65571612524E+02  0.10000000000E+01 0.  0.
<mgrwt>
<rscale>  0 0.12500035E+03</rscale>
<asrwt>0</asrwt>
<pdfrwt beam="1">  1        4 0.75017067E-02 0.12500035E+03</pdfrwt>
<pdfrwt beam="2">  1       -4 0.12324680E-01 0.12500035E+03</pdfrwt>
<totfact> 0.10368627E+04</totfact>
</mgrwt>
</event>
<event>
 5    1  0.3282316E-002  0.1250012E+03  0.7818608E-02  0.1235067E+00
          4   -1    0    0  501    0  0.00000000000E+00  0.00000000000E+00  0.53451023091E+02  0.53466108606E+02  0.12700000000E+01 0.  1.
         -4   -1    0    0    0  501 -0.00000000000E+00 -0.00000000000E+00 -0.73051365598E+02  0.73062404257E+02  0.12700000000E+01 0.  1.
         25    2    1    2    0    0  0.00000000000E+00  0.00000000000E+00 -0.19600342507E+02  0.12652851286E+03  0.12500116456E+03 0.  0.
    9000005    1    3    3    0    0  0.95390744424E+01  0.61142336390E+02 -0.18621210957E+02  0.64630710486E+02  0.10000000000E+01 0.  0.
    9000005    1    3    3    0    0 -0.95390744424E+01 -0.61142336390E+02 -0.97913155053E+00  0.61897802377E+02  0.10000000000E+01 0.  0.
<mgrwt>
<rscale>  0 0.12500116E+03</rscale>
<asrwt>0</asrwt>
<pdfrwt beam="1">  1        4 0.82252439E-02 0.12500116E+03</pdfrwt>
<pdfrwt beam="2">  1       -4 0.11240681E-01 0.12500116E+03</pdfrwt>
<totfact> 0.10419132E+04</totfact>
</mgrwt>
</event>
<event>
 5    1  0.3282316E-002  0.1249741E+03  0.7818608E-02  0.1235110E+00
          4   -1    0    0  501    0  0.00000000000E+00  0.00000000000E+00  0.11009032761E+03  0.11009765272E+03  0.12700000000E+01 0. -1.
         -4   -1    0    0    0  501 -0.00000000000E+00 -0.00000000000E+00 -0.35447668011E+02  0.35470411154E+02  0.12700000000E+01 0. -1.
         25    2    1    2    0    0  0.00000000000E+00  0.00000000000E+00  0.74642659602E+02  0.14556806387E+03  0.12497413567E+03 0.  0.
    9000005    1    3    3    0    0  0.19078365876E+02 -0.44170011882E+02  0.83747343669E+02  0.96589810880E+02  0.10000000000E+01 0.  0.
    9000005    1    3    3    0    0 -0.19078365876E+02  0.44170011882E+02 -0.91046840674E+01  0.48978252992E+02  0.10000000000E+01 0.  0.
<mgrwt>
<rscale>  0 0.12497414E+03</rscale>
<asrwt>0</asrwt>
<pdfrwt beam="1">  1        4 0.16939286E-01 0.12497414E+03</pdfrwt>
<pdfrwt beam="2">  1       -4 0.54558003E-02 0.12497414E+03</pdfrwt>
<totfact> 0.10025297E+04</totfact>
</mgrwt>
</event>
<event>
 5    1  0.3282316E-002  0.1249987E+03  0.7818608E-02  0.1235071E+00
          4   -1    0    0  501    0  0.00000000000E+00  0.00000000000E+00  0.11488995854E+02  0.11558975981E+02  0.12700000000E+01 0. -1.
         -4   -1    0    0    0  501 -0.00000000000E+00 -0.00000000000E+00 -0.33888880479E+03  0.33889118447E+03  0.12700000000E+01 0. -1.
         25    2    1    2    0    0  0.00000000000E+00  0.00000000000E+00 -0.32739980893E+03  0.35045016045E+03  0.12499872027E+03 0.  0.
    9000005    1    3    3    0    0  0.17963257960E+02  0.46224406818E+02 -0.27030406265E+03  0.27481750436E+03  0.10000000000E+01 0.  0.
    9000005    1    3    3    0    0 -0.17963257960E+02 -0.46224406818E+02 -0.57095746287E+02  0.75632656084E+02  0.10000000000E+01 0.  0.
<mgrwt>
<rscale>  0 0.12499872E+03</rscale>
<asrwt>0</asrwt>
<pdfrwt beam="1">  1        4 0.17731042E-02 0.12499872E+03</pdfrwt>
<pdfrwt beam="2">  1       -4 0.52142298E-01 0.12499872E+03</pdfrwt>
<totfact> 0.69677038E+03</totfact>
</mgrwt>
</event>
<event>
 5    1  0.3282316E-002  0.1250008E+03  0.7818608E-02  0.1235068E+00
         -4   -1    0    0    0  501 -0.00000000000E+00  0.00000000000E+00  0.46581451432E+02  0.46598760901E+02  0.12700000000E+01 0.  1.
          4   -1    0    0  501    0  0.00000000000E+00 -0.00000000000E+00 -0.83821864466E+02  0.83831484912E+02  0.12700000000E+01 0.  1.
         25    2    1    2    0    0  0.00000000000E+00  0.00000000000E+00 -0.37240413035E+02  0.13043024581E+03  0.12500080264E+03 0.  0.
    9000005    1    3    3    0    0  0.16333749401E+02 -0.59871637881E+02 -0.10959957932E+02  0.63027970537E+02  0.10000000000E+01 0.  0.
    9000005    1    3    3    0    0 -0.16333749401E+02  0.59871637881E+02 -0.26280455103E+02  0.67402275277E+02  0.10000000000E+01 0.  0.
<mgrwt>
<rscale>  0 0.12500080E+03</rscale>
<asrwt>0</asrwt>
<pdfrwt beam="2">  1        4 0.12897743E-01 0.12500080E+03</pdfrwt>
<pdfrwt beam="1">  1       -4 0.71684487E-02 0.12500080E+03</pdfrwt>
<totfact> 0.10335125E+04</totfact>
</mgrwt>
</event>
<event>
 5    1  0.3282316E-002  0.1249920E+03  0.7818608E-02  0.1235082E+00
         -4   -1    0    0    0  501 -0.00000000000E+00  0.00000000000E+00  0.19100207932E+02  0.19142383421E+02  0.12700000000E+01 0. -1.
          4   -1    0    0  501    0  0.00000000000E+00 -0.00000000000E+00 -0.20421757031E+03  0.20422151925E+03  0.12700000000E+01 0. -1.
         25    2    1    2    0    0  0.00000000000E+00  0.00000000000E+00 -0.18511736238E+03  0.22336390267E+03  0.12499198039E+03 0.  0.
    9000005    1    3    3    0    0 -0.34368076322E+02  0.27668554971E+02 -0.17163402446E+03  0.17721724509E+03  0.10000000000E+01 0.  0.
    9000005    1    3    3    0    0  0.34368076322E+02 -0.27668554971E+02 -0.13483337917E+02  0.46146657578E+02  0.10000000000E+01 0.  0.
<mgrwt>
<rscale>  0 0.12499198E+03</rscale>
<asrwt>0</asrwt>
<pdfrwt beam="2">  1        4 0.31421634E-01 0.12499198E+03</pdfrwt>
<pdfrwt beam="1">  1       -4 0.29420417E-02 0.12499198E+03</pdfrwt>
<totfact> 0.86354303E+03</totfact>
</mgrwt>
</event>
<event>
 5    1  0.3282316E-002  0.1250437E+03  0.7818608E-02  0.1235001E+00
          4   -1    0    0  501    0  0.00000000000E+00  0.00000000000E+00  0.45986082404E+02  0.46003615889E+02  0.12700000000E+01 0.  1.
         -4   -1    0    0    0  501 -0.00000000000E+00 -0.00000000000E+00 -0.84965058189E+02  0.84974549208E+02  0.12700000000E+01 0.  1.
         25    2    1    2    0    0  0.00000000000E+00  0.00000000000E+00 -0.38978975785E+02  0.13097816510E+03  0.12504366909E+03 0.  0.
    9000005    1    3    3    0    0 -0.43455274232E+02 -0.44667663644E+02 -0.14313431448E+02  0.63948693136E+02  0.10000000000E+01 0.  0.
    9000005    1    3    3    0    0  0.43455274232E+02  0.44667663644E+02 -0.24665544337E+02  0.67029471961E+02  0.10000000000E+01 0.  0.
<mgrwt>
<rscale>  0 0.12504367E+03</rscale>
<asrwt>0</asrwt>
<pdfrwt beam="1">  1        4 0.70768607E-02 0.12504367E+03</pdfrwt>
<pdfrwt beam="2">  1       -4 0.13073626E-01 0.12504367E+03</pdfrwt>
<totfact> 0.10313393E+04</totfact>
</mgrwt>
</event>
<event>
 5    1  0.3282316E-002  0.1249990E+03  0.7818608E-02  0.1235071E+00
         -4   -1    0    0    0  501 -0.00000000000E+00  0.00000000000E+00  0.36615674795E+02  0.36637692895E+02  0.12700000000E+01 0. -1.
          4   -1    0    0  501    0  0.00000000000E+00 -0.00000000000E+00 -0.10662290468E+03  0.10663046799E+03  0.12700000000E+01 0. -1.
         25    2    1    2    0    0  0.00000000000E+00  0.00000000000E+00 -0.70007229890E+02  0.14326816088E+03  0.12499901474E+03 0.  0.
    9000005    1    3    3    0    0 -0.27955027089E+02 -0.54547318112E+01 -0.98756493178E+02  0.10278658757E+03  0.10000000000E+01 0.  0.
    9000005    1    3    3    0    0  0.27955027089E+02  0.54547318112E+01  0.28749263288E+02  0.40481573318E+02  0.10000000000E+01 0.  0.
<mgrwt>
<rscale>  0 0.12499901E+03</rscale>
<asrwt>0</asrwt>
<pdfrwt beam="2">  1        4 0.16405799E-01 0.12499901E+03</pdfrwt>
<pdfrwt beam="1">  1       -4 0.56354563E-02 0.12499901E+03</pdfrwt>
<totfact> 0.10066518E+04</totfact>
</mgrwt>
</event>
<event>
 5    1  0.3282316E-002  0.1250003E+03  0.7818608E-02  0.1235069E+00
          4   -1    0    0  501    0  0.00000000000E+00  0.00000000000E+00  0.47536677031E+03  0.47536846679E+03  0.12700000000E+01 0.  1.
         -4   -1    0    0    0  501 -0.00000000000E+00 -0.00000000000E+00 -0.81665855917E+01  0.82647456238E+01  0.12700000000E+01 0.  1.
         25    2    1    2    0    0  0.00000000000E+00  0.00000000000E+00  0.46720018472E+03  0.48363321241E+03  0.12500028618E+03 0.  0.
    9000005    1    3    3    0    0 -0.27305232920E+02  0.76461717422E+01  0.18137454626E+02  0.33675019635E+02  0.10000000000E+01 0.  0.
    9000005    1    3    3    0    0  0.27305232920E+02 -0.76461717422E+01  0.44906273010E+03  0.44995819278E+03  0.10000000000E+01 0.  0.
<mgrwt>
<rscale>  0 0.12500029E+03</rscale>
<asrwt>0</asrwt>
<pdfrwt beam="1">  1        4 0.73141042E-01 0.12500029E+03</pdfrwt>
<pdfrwt beam="2">  1       -4 0.12640789E-02 0.12500029E+03</pdfrwt>
<totfact> 0.57156603E+03</totfact>
</mgrwt>
</event>
<event>
 5    1  0.3282316E-002  0.1249995E+03  0.7818608E-02  0.1235070E+00
          4   -1    0    0  501    0  0.00000000000E+00  0.00000000000E+00  0.61825103143E+02  0.61838145821E+02  0.12700000000E+01 0.  1.
         -4   -1    0    0    0  501 -0.00000000000E+00 -0.00000000000E+00 -0.63155710460E+02  0.63168478403E+02  0.12700000000E+01 0.  1.
         25    2    1    2    0    0  0.00000000000E+00  0.00000000000E+00 -0.13306073174E+01  0.12500662422E+03  0.12499954234E+03 0.  0.
    9000005    1    3    3    0    0  0.59046037867E+02 -0.15118100898E+02  0.13127860921E+02  0.62356493607E+02  0.10000000000E+01 0.  0.
    9000005    1    3    3    0    0 -0.59046037867E+02  0.15118100898E+02 -0.14458468238E+02  0.62650130617E+02  0.10000000000E+01 0.  0.
<mgrwt>
<rscale>  0 0.12499954E+03</rscale>
<asrwt>0</asrwt>
<pdfrwt beam="1">  1        4 0.95135397E-02 0.12499954E+03</pdfrwt>
<pdfrwt beam="2">  1       -4 0.97182486E-02 0.12499954E+03</pdfrwt>
<totfact> 0.10452827E+04</totfact>
</mgrwt>
</event>
<event>
 5    1  0.3282316E-002  0.1249803E+03  0.7818608E-02  0.1235100E+00
          4   -1    0    0  501    0  0.00000000000E+00  0.00000000000E+00  0.43659347992E+03  0.43659532706E+03  0.12700000000E+01 0. -1.
         -4   -1    0    0    0  501 -0.00000000000E+00 -0.00000000000E+00 -0.88973344227E+01  0.89875168890E+01  0.12700000000E+01 0. -1.
         25    2    1    2    0    0  0.00000000000E+00  0.00000000000E+00  0.42769614550E+03  0.44558284395E+03  0.12498031024E+03 0.  0.
    9000005    1    3    3    0    0  0.39845061753E+02  0.23251903729E+01  0.38523801596E+03  0.38730138703E+03  0.10000000000E+01 0.  0.
    9000005    1    3    3    0    0 -0.39845061753E+02 -0.23251903729E+01  0.42458129540E+02  0.58281456917E+02  0.10000000000E+01 0.  0.
<mgrwt>
<rscale>  0 0.12498031E+03</rscale>
<asrwt>0</asrwt>
<pdfrwt beam="1">  1        4 0.67175311E-01 0.12498031E+03</pdfrwt>
<pdfrwt beam="2">  1       -4 0.13758998E-02 0.12498031E+03</pdfrwt>
<totfact> 0.60374554E+03</totfact>
</mgrwt>
</event>
<event>
 5    1  0.3282316E-002  0.1249982E+03  0.7818608E-02  0.1235072E+00
          4   -1    0    0  501    0  0.00000000000E+00  0.00000000000E+00  0.29458860149E+02  0.29486222906E+02  0.12700000000E+01 0.  1.
         -4   -1    0    0    0  501 -0.00000000000E+00 -0.00000000000E+00 -0.13250440737E+03  0.13251049344E+03  0.12700000000E+01 0.  1.
         25    2    1    2    0    0  0.00000000000E+00  0.00000000000E+00 -0.10304554722E+03  0.16199671635E+03  0.12499820521E+03 0.  0.
    9000005    1    3    3    0    0 -0.18745965661E+02 -0.59422435273E+02 -0.45347974069E+02  0.77070589686E+02  0.10000000000E+01 0.  0.
    9000005    1    3    3    0    0  0.18745965661E+02  0.59422435273E+02 -0.57697573150E+02  0.84926126662E+02  0.10000000000E+01 0.  0.
<mgrwt>
<rscale>  0 0.12499821E+03</rscale>
<asrwt>0</asrwt>
<pdfrwt beam="1">  1        4 0.45347054E-02 0.12499821E+03</pdfrwt>
<pdfrwt beam="2">  1       -4 0.20387866E-01 0.12499821E+03</pdfrwt>
<totfact> 0.96963120E+03</totfact>
</mgrwt>
</event>
<event>
 5    1  0.3282316E-002  0.1250005E+03  0.7818608E-02  0.1235069E+00
         -4   -1    0    0    0  501 -0.00000000000E+00  0.00000000000E+00  0.78710535493E+02  0.78720780596E+02  0.12700000000E+01 0. -1.
          4   -1    0    0  501    0  0.00000000000E+00 -0.00000000000E+00 -0.49606810992E+02  0.49623065169E+02  0.12700000000E+01 0. -1.
         25    2    1    2    0    0  0.00000000000E+00  0.00000000000E+00  0.29103724501E+02  0.12834384576E+03  0.12500046386E+03 0.  0.
    9000005    1    3    3    0    0 -0.55039214875E+02 -0.30044899250E+01 -0.15679461041E+02  0.57316556354E+02  0.10000000000E+01 0.  0.
    9000005    1    3    3    0    0  0.55039214875E+02  0.30044899250E+01  0.44783185542E+02  0.71027289411E+02  0.10000000000E+01 0.  0.
<mgrwt>
<rscale>  0 0.12500046E+03</rscale>
<asrwt>0</asrwt>
<pdfrwt beam="2">  1        4 0.76338555E-02 0.12500046E+03</pdfrwt>
<pdfrwt beam="1">  1       -4 0.12111352E-01 0.12500046E+03</pdfrwt>
<totfact> 0.10379960E+04</totfact>
</mgrwt>
</event>
<event>
 5    1  0.3282316E-002  0.1249977E+03  0.7818608E-02  0.1235073E+00
         -4   -1    0    0    0  501 -0.00000000000E+00  0.00000000000E+00  0.10948918070E+03  0.10949654602E+03  0.12700000000E+01 0.  1.
          4   -1    0    0  501    0  0.00000000000E+00 -0.00000000000E+00 -0.35655864324E+02  0.35678474753E+02  0.12700000000E+01 0.  1.
         25    2    1    2    0    0  0.00000000000E+00  0.00000000000E+00  0.73833316373E+02  0.14517502077E+03  0.12499771218E+03 0.  0.
    9000005    1    3    3    0    0 -0.45353339429E+02  0.46266453952E+01  0.86556735998E+02  0.97833531019E+02  0.10000000000E+01 0.  0.
    9000005    1    3    3    0    0  0.45353339429E+02 -0.46266453952E+01 -0.12723419625E+02  0.47341489752E+02  0.10000000000E+01 0.  0.
<mgrwt>
<rscale>  0 0.12499771E+03</rscale>
<asrwt>0</asrwt>
<pdfrwt beam="2">  1        4 0.54878234E-02 0.12499771E+03</pdfrwt>
<pdfrwt beam="1">  1       -4 0.16846795E-01 0.12499771E+03</pdfrwt>
<totfact> 0.10027950E+04</totfact>
</mgrwt>
</event>
<event>
 5    1  0.3282316E-002  0.1250090E+03  0.7818608E-02  0.1235055E+00
         -4   -1    0    0    0  501 -0.00000000000E+00  0.00000000000E+00  0.21808593378E+02  0.21845540624E+02  0.12700000000E+01 0.  1.
          4   -1    0    0  501    0  0.00000000000E+00 -0.00000000000E+00 -0.17895014261E+03  0.17895464912E+03  0.12700000000E+01 0.  1.
         25    2    1    2    0    0  0.00000000000E+00  0.00000000000E+00 -0.15714154924E+03  0.20080018974E+03  0.12500899850E+03 0.  0.
    9000005    1    3    3    0    0  0.39392637797E+02  0.46939513489E+02 -0.98290482938E+02  0.11583227907E+03  0.10000000000E+01 0.  0.
    9000005    1    3    3    0    0 -0.39392637797E+02 -0.46939513489E+02 -0.58851066298E+02  0.84967910670E+02  0.10000000000E+01 0.  0.
<mgrwt>
<rscale>  0 0.12500900E+03</rscale>
<asrwt>0</asrwt>
<pdfrwt beam="2">  1        4 0.27533979E-01 0.12500900E+03</pdfrwt>
<pdfrwt beam="1">  1       -4 0.33583571E-02 0.12500900E+03</pdfrwt>
<totfact> 0.89982605E+03</totfact>
</mgrwt>
</event>
<event>
 5    1  0.3282316E-002  0.1249998E+03  0.7818608E-02  0.1235070E+00
          4   -1    0    0  501    0  0.00000000000E+00  0.00000000000E+00  0.84677234940E+02  0.84686758216E+02  0.12700000000E+01 0. -1.
         -4   -1    0    0    0  501 -0.00000000000E+00 -0.00000000000E+00 -0.46110055625E+02  0.46127541987E+02  0.12700000000E+01 0. -1.
         25    2    1    2    0    0  0.00000000000E+00  0.00000000000E+00  0.38567179315E+02  0.13081430020E+03  0.12499981527E+03 0.  0.
    9000005    1    3    3    0    0 -0.62286977785E+02 -0.63479028323E+00  0.14033468941E+02  0.63859289151E+02  0.10000000000E+01 0.  0.
    9000005    1    3    3    0    0  0.62286977785E+02  0.63479028323E+00  0.24533710374E+02  0.66955011052E+02  0.10000000000E+01 0.  0.
<mgrwt>
<rscale>  0 0.12499982E+03</rscale>
<asrwt>0</asrwt>
<pdfrwt beam="1">  1        4 0.13029345E-01 0.12499982E+03</pdfrwt>
<pdfrwt beam="2">  1       -4 0.70959324E-02 0.12499982E+03</pdfrwt>
<totfact> 0.10327115E+04</totfact>
</mgrwt>
</event>
<event>
 5    1  0.3282316E-002  0.1249970E+03  0.7818608E-02  0.1235074E+00
         -4   -1    0    0    0  501 -0.00000000000E+00  0.00000000000E+00  0.13580620899E+03  0.13581214710E+03  0.12700000000E+01 0.  1.
          4   -1    0    0  501    0  0.00000000000E+00 -0.00000000000E+00 -0.28741463378E+02  0.28769508462E+02  0.12700000000E+01 0.  1.
         25    2    1    2    0    0  0.00000000000E+00  0.00000000000E+00  0.10706474561E+03  0.16458165556E+03  0.12499704634E+03 0.  0.
    9000005    1    3    3    0    0 -0.21065177080E+02 -0.48084402596E+02  0.98168049018E+02  0.11132752268E+03  0.10000000000E+01 0.  0.
    9000005    1    3    3    0    0  0.21065177080E+02  0.48084402596E+02  0.88966965923E+01  0.53254132879E+02  0.10000000000E+01 0.  0.
<mgrwt>
<rscale>  0 0.12499705E+03</rscale>
<asrwt>0</asrwt>
<pdfrwt beam="2">  1        4 0.44243777E-02 0.12499705E+03</pdfrwt>
<pdfrwt beam="1">  1       -4 0.20895877E-01 0.12499705E+03</pdfrwt>
<totfact> 0.96473080E+03</totfact>
</mgrwt>
</event>
<event>
 5    1  0.3282316E-002  0.1249993E+03  0.7818608E-02  0.1235070E+00
         -4   -1    0    0    0  501 -0.00000000000E+00  0.00000000000E+00  0.52712909661E+02  0.52728206350E+02  0.12700000000E+01 0. -1.
          4   -1    0    0  501    0  0.00000000000E+00 -0.00000000000E+00 -0.74071924762E+02  0.74082811353E+02  0.12700000000E+01 0. -1.
         25    2    1    2    0    0  0.00000000000E+00  0.00000000000E+00 -0.21359015102E+02  0.12681101770E+03  0.12499930674E+03 0.  0.
    9000005    1    3    3    0    0 -0.70541006253E+00  0.47897012574E+02 -0.51393270424E+02  0.70263003507E+02  0.10000000000E+01 0.  0.
    9000005    1    3    3    0    0  0.70541006253E+00 -0.47897012574E+02  0.30034255323E+02  0.56548014197E+02  0.10000000000E+01 0.  0.
<mgrwt>
<rscale>  0 0.12499931E+03</rscale>
<asrwt>0</asrwt>
<pdfrwt beam="2">  1        4 0.11397695E-01 0.12499931E+03</pdfrwt>
<pdfrwt beam="1">  1       -4 0.81116925E-02 0.12499931E+03</pdfrwt>
<totfact> 0.10413417E+04</totfact>
</mgrwt>
</event>
<event>
 5    1  0.3282316E-002  0.1249994E+03  0.7818608E-02  0.1235070E+00
         -4   -1    0    0    0  501 -0.00000000000E+00  0.00000000000E+00  0.27354790964E+02  0.27384256219E+02  0.12700000000E+01 0.  1.
          4   -1    0    0  501    0  0.00000000000E+00 -0.00000000000E+00 -0.14268900518E+03  0.14269465687E+03  0.12700000000E+01 0.  1.
         25    2    1    2    0    0  0.00000000000E+00  0.00000000000E+00 -0.11533421421E+03  0.17007891309E+03  0.12499942283E+03 0.  0.
    9000005    1    3    3    0    0 -0.38758295641E+02 -0.30318282029E+02 -0.11007921703E+03  0.12058124949E+03  0.10000000000E+01 0.  0.
    9000005    1    3    3    0    0  0.38758295641E+02  0.30318282029E+02 -0.52549971832E+01  0.49497663598E+02  0.10000000000E+01 0.  0.
<mgrwt>
<rscale>  0 0.12499942E+03</rscale>
<asrwt>0</asrwt>
<pdfrwt beam="2">  1        4 0.21954855E-01 0.12499942E+03</pdfrwt>
<pdfrwt beam="1">  1       -4 0.42111308E-02 0.12499942E+03</pdfrwt>
<totfact> 0.95435167E+03</totfact>
</mgrwt>
</event>
<event>
 5    1  0.3282316E-002  0.1249953E+03  0.7818608E-02  0.1235077E+00
          4   -1    0    0  501    0  0.00000000000E+00  0.00000000000E+00  0.28058940402E+02  0.28087666982E+02  0.12700000000E+01 0.  1.
         -4   -1    0    0    0  501 -0.00000000000E+00 -0.00000000000E+00 -0.13910246083E+03  0.13910825823E+03  0.12700000000E+01 0.  1.
         25    2    1    2    0    0  0.00000000000E+00  0.00000000000E+00 -0.11104352042E+03  0.16719592521E+03  0.12499525583E+03 0.  0.
    9000005    1    3    3    0    0  0.82057073364E+01 -0.53499172332E+02 -0.13744828481E+02  0.55851726769E+02  0.10000000000E+01 0.  0.
    9000005    1    3    3    0    0 -0.82057073364E+01  0.53499172332E+02 -0.97298691943E+02  0.11134419844E+03  0.10000000000E+01 0.  0.
<mgrwt>
<rscale>  0 0.12499526E+03</rscale>
<asrwt>0</asrwt>
<pdfrwt beam="1">  1        4 0.43194158E-02 0.12499526E+03</pdfrwt>
<pdfrwt beam="2">  1       -4 0.21403034E-01 0.12499526E+03</pdfrwt>
<totfact> 0.95983355E+03</totfact>
</mgrwt>
</event>
<event>
 5    1  0.3282316E-002  0.1249992E+03  0.7818608E-02  0.1235071E+00
          4   -1    0    0  501    0  0.00000000000E+00  0.00000000000E+00  0.19107944684E+02  0.19150103135E+02  0.12700000000E+01 0.  1.
         -4   -1    0    0    0  501 -0.00000000000E+00 -0.00000000000E+00 -0.20415854367E+03  0.20416249375E+03  0.12700000000E+01 0.  1.
         25    2    1    2    0    0  0.00000000000E+00  0.00000000000E+00 -0.18505059899E+03  0.22331259689E+03  0.12499916696E+03 0.  0.
    9000005    1    3    3    0    0  0.49355442802E+02  0.30999582816E+02 -0.52248884537E+02  0.78280775445E+02  0.10000000000E+01 0.  0.
    9000005    1    3    3    0    0 -0.49355442802E+02 -0.30999582816E+02 -0.13280171445E+03  0.14503182144E+03  0.10000000000E+01 0.  0.
<mgrwt>
<rscale>  0 0.12499917E+03</rscale>
<asrwt>0</asrwt>
<pdfrwt beam="1">  1        4 0.29432308E-02 0.12499917E+03</pdfrwt>
<pdfrwt beam="2">  1       -4 0.31412552E-01 0.12499917E+03</pdfrwt>
<totfact> 0.86348480E+03</totfact>
</mgrwt>
</event>
<event>
 5    1  0.3282316E-002  0.1249997E+03  0.7818608E-02  0.1235070E+00
          4   -1    0    0  501    0  0.00000000000E+00  0.00000000000E+00  0.45188404150E+02  0.45206247020E+02  0.12700000000E+01 0. -1.
         -4   -1    0    0    0  501 -0.00000000000E+00 -0.00000000000E+00 -0.86403585662E+02  0.86412918683E+02  0.12700000000E+01 0. -1.
         25    2    1    2    0    0  0.00000000000E+00  0.00000000000E+00 -0.41215181512E+02  0.13161916570E+03  0.12499965437E+03 0.  0.
    9000005    1    3    3    0    0 -0.37510964179E+02 -0.47077902550E+02 -0.29308715381E+01  0.60274300910E+02  0.10000000000E+01 0.  0.
    9000005    1    3    3    0    0  0.37510964179E+02  0.47077902550E+02 -0.38284309974E+02  0.71344864793E+02  0.10000000000E+01 0.  0.
<mgrwt>
<rscale>  0 0.12499965E+03</rscale>
<asrwt>0</asrwt>
<pdfrwt beam="1">  1        4 0.69541526E-02 0.12499965E+03</pdfrwt>
<pdfrwt beam="2">  1       -4 0.13294950E-01 0.12499965E+03</pdfrwt>
<totfact> 0.10309914E+04</totfact>
</mgrwt>
</event>
<event>
 5    1  0.3282316E-002  0.1249994E+03  0.7818608E-02  0.1235070E+00
          4   -1    0    0  501    0  0.00000000000E+00  0.00000000000E+00  0.13294885513E+03  0.13295492086E+03  0.12700000000E+01 0. -1.
         -4   -1    0    0    0  501 -0.00000000000E+00 -0.00000000000E+00 -0.29360845589E+02  0.29388299606E+02  0.12700000000E+01 0. -1.
         25    2    1    2    0    0  0.00000000000E+00  0.00000000000E+00  0.10358800955E+03  0.16234322047E+03  0.12499938204E+03 0.  0.
    9000005    1    3    3    0    0 -0.22742902623E+02  0.49332388759E+02  0.11673551114E+02  0.55571539442E+02  0.10000000000E+01 0.  0.
    9000005    1    3    3    0    0  0.22742902623E+02 -0.49332388759E+02  0.91914458432E+02  0.10677168103E+03  0.10000000000E+01 0.  0.
<mgrwt>
<rscale>  0 0.12499938E+03</rscale>
<asrwt>0</asrwt>
<pdfrwt beam="1">  1        4 0.20456248E-01 0.12499938E+03</pdfrwt>
<pdfrwt beam="2">  1       -4 0.45196317E-02 0.12499938E+03</pdfrwt>
<totfact> 0.96894269E+03</totfact>
</mgrwt>
</event>
<event>
 5    1  0.3282316E-002  0.1250002E+03  0.7818608E-02  0.1235069E+00
         -4   -1    0    0    0  501 -0.00000000000E+00  0.00000000000E+00  0.11753047486E+03  0.11753733629E+03  0.12700000000E+01 0. -1.
          4   -1    0    0  501    0  0.00000000000E+00 -0.00000000000E+00 -0.33216192845E+02  0.33240462799E+02  0.12700000000E+01 0. -1.
         25    2    1    2    0    0  0.00000000000E+00  0.00000000000E+00  0.84314282019E+02  0.15077779909E+03  0.12500018618E+03 0.  0.
    9000005    1    3    3    0    0 -0.44380195443E+02  0.43787734504E+02  0.36997928699E+02  0.72503890713E+02  0.10000000000E+01 0.  0.
    9000005    1    3    3    0    0  0.44380195443E+02 -0.43787734504E+02  0.47316353320E+02  0.78273908373E+02  0.10000000000E+01 0.  0.
<mgrwt>
<rscale>  0 0.12500019E+03</rscale>
<asrwt>0</asrwt>
<pdfrwt beam="2">  1        4 0.51125783E-02 0.12500019E+03</pdfrwt>
<pdfrwt beam="1">  1       -4 0.18084006E-01 0.12500019E+03</pdfrwt>
<totfact> 0.99148466E+03</totfact>
</mgrwt>
</event>
<event>
 5    1  0.3282316E-002  0.1249993E+03  0.7818608E-02  0.1235070E+00
         -4   -1    0    0    0  501 -0.00000000000E+00  0.00000000000E+00  0.69675948869E+01  0.70823921459E+01  0.12700000000E+01 0. -1.
          4   -1    0    0  501    0  0.00000000000E+00 -0.00000000000E+00 -0.55592889744E+03  0.55593034807E+03  0.12700000000E+01 0. -1.
         25    2    1    2    0    0  0.00000000000E+00  0.00000000000E+00 -0.54896130255E+03  0.56301274022E+03  0.12499933579E+03 0.  0.
    9000005    1    3    3    0    0  0.47108140826E+02  0.25835949165E+02 -0.13073372840E+03  0.14134702311E+03  0.10000000000E+01 0.  0.
    9000005    1    3    3    0    0 -0.47108140826E+02 -0.25835949165E+02 -0.41822757415E+03  0.42166571710E+03  0.10000000000E+01 0.  0.
<mgrwt>
<rscale>  0 0.12499934E+03</rscale>
<asrwt>0</asrwt>
<pdfrwt beam="2">  1        4 0.85536430E-01 0.12499934E+03</pdfrwt>
<pdfrwt beam="1">  1       -4 0.10808803E-02 0.12499934E+03</pdfrwt>
<totfact> 0.51289570E+03</totfact>
</mgrwt>
</event>
<event>
 5    1  0.3282316E-002  0.1249979E+03  0.7818608E-02  0.1235073E+00
          4   -1    0    0  501    0  0.00000000000E+00  0.00000000000E+00  0.46030119291E+02  0.46047636008E+02  0.12700000000E+01 0.  1.
         -4   -1    0    0    0  501 -0.00000000000E+00 -0.00000000000E+00 -0.84821687068E+02  0.84831194128E+02  0.12700000000E+01 0.  1.
         25    2    1    2    0    0  0.00000000000E+00  0.00000000000E+00 -0.38791567777E+02  0.13087883014E+03  0.12499792977E+03 0.  0.
    9000005    1    3    3    0    0  0.40061995405E+02  0.47671315817E+02 -0.13894766359E+02  0.63808952035E+02  0.10000000000E+01 0.  0.
    9000005    1    3    3    0    0 -0.40061995405E+02 -0.47671315817E+02 -0.24896801418E+02  0.67069878101E+02  0.10000000000E+01 0.  0.
<mgrwt>
<rscale>  0 0.12499793E+03</rscale>
<asrwt>0</asrwt>
<pdfrwt beam="1">  1        4 0.70836356E-02 0.12499793E+03</pdfrwt>
<pdfrwt beam="2">  1       -4 0.13051569E-01 0.12499793E+03</pdfrwt>
<totfact> 0.10326170E+04</totfact>
</mgrwt>
</event>
<event>
 5    1  0.3282316E-002  0.1250017E+03  0.7818608E-02  0.1235067E+00
          4   -1    0    0  501    0  0.00000000000E+00  0.00000000000E+00  0.15162307720E+02  0.15215402571E+02  0.12700000000E+01 0. -1.
         -4   -1    0    0    0  501 -0.00000000000E+00 -0.00000000000E+00 -0.25713116344E+03  0.25713429976E+03  0.12700000000E+01 0. -1.
         25    2    1    2    0    0  0.00000000000E+00  0.00000000000E+00 -0.24196885572E+03  0.27234970233E+03  0.12500173287E+03 0.  0.
    9000005    1    3    3    0    0  0.24657143797E+02 -0.12437491329E+02  0.11566666027E+01  0.27658702218E+02  0.10000000000E+01 0.  0.
    9000005    1    3    3    0    0 -0.24657143797E+02  0.12437491329E+02 -0.24312552232E+03  0.24469100011E+03  0.10000000000E+01 0.  0.
<mgrwt>
<rscale>  0 0.12500173E+03</rscale>
<asrwt>0</asrwt>
<pdfrwt beam="1">  1        4 0.23369884E-02 0.12500173E+03</pdfrwt>
<pdfrwt beam="2">  1       -4 0.39562963E-01 0.12500173E+03</pdfrwt>
<totfact> 0.79200487E+03</totfact>
</mgrwt>
</event>
<event>
 5    1  0.3282316E-002  0.1249905E+03  0.7818608E-02  0.1235084E+00
          4   -1    0    0  501    0  0.00000000000E+00  0.00000000000E+00  0.65613734085E+02  0.65626023806E+02  0.12700000000E+01 0.  1.
         -4   -1    0    0    0  501 -0.00000000000E+00 -0.00000000000E+00 -0.59500340067E+02  0.59513892227E+02  0.12700000000E+01 0.  1.
         25    2    1    2    0    0  0.00000000000E+00  0.00000000000E+00  0.61133940182E+01  0.12513991603E+03  0.12499049963E+03 0.  0.
    9000005    1    3    3    0    0 -0.53873669798E+02  0.57730670907E+01 -0.28108566588E+02  0.61047457906E+02  0.10000000000E+01 0.  0.
    9000005    1    3    3    0    0  0.53873669798E+02 -0.57730670907E+01  0.34221960606E+02  0.64092458127E+02  0.10000000000E+01 0.  0.
<mgrwt>
<rscale>  0 0.12499050E+03</rscale>
<asrwt>0</asrwt>
<pdfrwt beam="1">  1        4 0.10096408E-01 0.12499050E+03</pdfrwt>
<pdfrwt beam="2">  1       -4 0.91558863E-02 0.12499050E+03</pdfrwt>
<totfact> 0.10452068E+04</totfact>
</mgrwt>
</event>
<event>
 5    1  0.3282316E-002  0.1250053E+03  0.7818608E-02  0.1235061E+00
         -4   -1    0    0    0  501 -0.00000000000E+00  0.00000000000E+00  0.31858337816E+02  0.31883641392E+02  0.12700000000E+01 0.  1.
          4   -1    0    0  501    0  0.00000000000E+00 -0.00000000000E+00 -0.12254629153E+03  0.12255287213E+03  0.12700000000E+01 0.  1.
         25    2    1    2    0    0  0.00000000000E+00  0.00000000000E+00 -0.90687953710E+02  0.15443651352E+03  0.12500532693E+03 0.  0.
    9000005    1    3    3    0    0  0.60107236181E+02 -0.78622643223E+01 -0.64116474296E+02  0.88241811619E+02  0.10000000000E+01 0.  0.
    9000005    1    3    3    0    0 -0.60107236181E+02  0.78622643223E+01 -0.26571479414E+02  0.66194701901E+02  0.10000000000E+01 0.  0.
<mgrwt>
<rscale>  0 0.12500533E+03</rscale>
<asrwt>0</asrwt>
<pdfrwt beam="2">  1        4 0.18855728E-01 0.12500533E+03</pdfrwt>
<pdfrwt beam="1">  1       -4 0.49037354E-02 0.12500533E+03</pdfrwt>
<totfact> 0.98414441E+03</totfact>
</mgrwt>
</event>
<event>
 5    1  0.3282316E-002  0.1250021E+03  0.7818608E-02  0.1235066E+00
         -4   -1    0    0    0  501 -0.00000000000E+00  0.00000000000E+00  0.32027564282E+02  0.32052734264E+02  0.12700000000E+01 0. -1.
          4   -1    0    0  501    0  0.00000000000E+00 -0.00000000000E+00 -0.12189290755E+03  0.12189952343E+03  0.12700000000E+01 0. -1.
         25    2    1    2    0    0  0.00000000000E+00  0.00000000000E+00 -0.89865343270E+02  0.15395225769E+03  0.12500207089E+03 0.  0.
    9000005    1    3    3    0    0 -0.41997153992E+02  0.31806331218E+02 -0.35323779282E+01  0.52809860280E+02  0.10000000000E+01 0.  0.
    9000005    1    3    3    0    0  0.41997153992E+02 -0.31806331218E+02 -0.86332965341E+02  0.10114239741E+03  0.10000000000E+01 0.  0.
<mgrwt>
<rscale>  0 0.12500207E+03</rscale>
<asrwt>0</asrwt>
<pdfrwt beam="2">  1        4 0.18755200E-01 0.12500207E+03</pdfrwt>
<pdfrwt beam="1">  1       -4 0.49297627E-02 0.12500207E+03</pdfrwt>
<totfact> 0.98516988E+03</totfact>
</mgrwt>
</event>
<event>
 5    1  0.3282316E-002  0.1250013E+03  0.7818608E-02  0.1235067E+00
         -4   -1    0    0    0  501 -0.00000000000E+00  0.00000000000E+00  0.87677601641E+02  0.87686799061E+02  0.12700000000E+01 0.  1.
          4   -1    0    0  501    0  0.00000000000E+00 -0.00000000000E+00 -0.44532771318E+02  0.44550876773E+02  0.12700000000E+01 0.  1.
         25    2    1    2    0    0  0.00000000000E+00  0.00000000000E+00  0.43144830323E+02  0.13223767583E+03  0.12500130610E+03 0.  0.
    9000005    1    3    3    0    0  0.15580281794E+02 -0.14375267911E+02  0.83762856069E+02  0.86409545567E+02  0.10000000000E+01 0.  0.
    9000005    1    3    3    0    0 -0.15580281794E+02  0.14375267911E+02 -0.40618025746E+02  0.45828130267E+02  0.10000000000E+01 0.  0.
<mgrwt>
<rscale>  0 0.12500131E+03</rscale>
<asrwt>0</asrwt>
<pdfrwt beam="2">  1        4 0.68532959E-02 0.12500131E+03</pdfrwt>
<pdfrwt beam="1">  1       -4 0.13490962E-01 0.12500131E+03</pdfrwt>
<totfact> 0.10296325E+04</totfact>
</mgrwt>
</event>
<event>
 5    1  0.3282316E-002  0.1249967E+03  0.7818608E-02  0.1235074E+00
          4   -1    0    0  501    0  0.00000000000E+00  0.00000000000E+00  0.22727418142E+03  0.22727772975E+03  0.12700000000E+01 0.  1.
         -4   -1    0    0    0  501 -0.00000000000E+00 -0.00000000000E+00 -0.17159338928E+02  0.17206272474E+02  0.12700000000E+01 0.  1.
         25    2    1    2    0    0  0.00000000000E+00  0.00000000000E+00  0.21011484249E+03  0.24448400222E+03  0.12499672119E+03 0.  0.
    9000005    1    3    3    0    0 -0.37007028911E+02 -0.50206601959E+02  0.97527241473E+02  0.11577040165E+03  0.10000000000E+01 0.  0.
    9000005    1    3    3    0    0  0.37007028911E+02  0.50206601959E+02  0.11258760102E+03  0.12871360057E+03  0.10000000000E+01 0.  0.
<mgrwt>
<rscale>  0 0.12499672E+03</rscale>
<asrwt>0</asrwt>
<pdfrwt beam="1">  1        4 0.34969143E-01 0.12499672E+03</pdfrwt>
<pdfrwt beam="2">  1       -4 0.26437814E-02 0.12499672E+03</pdfrwt>
<totfact> 0.83140128E+03</totfact>
</mgrwt>
</event>
<event>
 5    1  0.3282316E-002  0.1249739E+03  0.7818608E-02  0.1235110E+00
         -4   -1    0    0    0  501 -0.00000000000E+00  0.00000000000E+00  0.35554771150E+04  0.35554773418E+04  0.12700000000E+01 0.  1.
          4   -1    0    0  501    0  0.00000000000E+00 -0.00000000000E+00 -0.73072700743E+00  0.14652173762E+01  0.12700000000E+01 0.  1.
         25    2    1    2    0    0  0.00000000000E+00  0.00000000000E+00  0.35547463880E+04  0.35569425592E+04  0.12497394316E+03 0.  0.
    9000005    1    3    3    0    0 -0.25913781552E+02 -0.34799426307E+02  0.49784161619E+03  0.49972972591E+03  0.10000000000E+01 0.  0.
    9000005    1    3    3    0    0  0.25913781552E+02  0.34799426307E+02  0.30569047718E+04  0.30572128333E+04  0.10000000000E+01 0.  0.
<mgrwt>
<rscale>  0 0.12497394E+03</rscale>
<asrwt>0</asrwt>
<pdfrwt beam="2">  1        4 0.16894236E-03 0.12497394E+03</pdfrwt>
<pdfrwt beam="1">  1       -4 0.54703320E+00 0.12497394E+03</pdfrwt>
<totfact> 0.50140529E+01</totfact>
</mgrwt>
</event>
<event>
 5    1  0.3282316E-002  0.1250000E+03  0.7818608E-02  0.1235069E+00
          4   -1    0    0  501    0  0.00000000000E+00  0.00000000000E+00  0.21743137975E+03  0.21743508870E+03  0.12700000000E+01 0.  1.
         -4   -1    0    0    0  501 -0.00000000000E+00 -0.00000000000E+00 -0.17939112520E+02  0.17984011177E+02  0.12700000000E+01 0.  1.
         25    2    1    2    0    0  0.00000000000E+00  0.00000000000E+00  0.19949226723E+03  0.23541909988E+03  0.12499995162E+03 0.  0.
    9000005    1    3    3    0    0 -0.53342923239E+02 -0.32325175414E+02  0.10700683419E+03  0.12386220969E+03  0.10000000000E+01 0.  0.
    9000005    1    3    3    0    0  0.53342923239E+02  0.32325175414E+02  0.92485433038E+02  0.11155689019E+03  0.10000000000E+01 0.  0.
<mgrwt>
<rscale>  0 0.12499995E+03</rscale>
<asrwt>0</asrwt>
<pdfrwt beam="1">  1        4 0.33454720E-01 0.12499995E+03</pdfrwt>
<pdfrwt beam="2">  1       -4 0.27636026E-02 0.12499995E+03</pdfrwt>
<totfact> 0.84484467E+03</totfact>
</mgrwt>
</event>
<event>
 5    1  0.3282316E-002  0.1249949E+03  0.7818608E-02  0.1235077E+00
          4   -1    0    0  501    0  0.00000000000E+00  0.00000000000E+00  0.22743599840E+03  0.22743954421E+03  0.12700000000E+01 0. -1.
         -4   -1    0    0    0  501 -0.00000000000E+00 -0.00000000000E+00 -0.17146591259E+02  0.17193559602E+02  0.12700000000E+01 0. -1.
         25    2    1    2    0    0  0.00000000000E+00  0.00000000000E+00  0.21028940714E+03  0.24463310381E+03  0.12499488279E+03 0.  0.
    9000005    1    3    3    0    0 -0.29253660382E+02  0.48389467542E+02  0.15720670778E+03  0.16706964472E+03  0.10000000000E+01 0.  0.
    9000005    1    3    3    0    0  0.29253660382E+02 -0.48389467542E+02  0.53082699363E+02  0.77563459092E+02  0.10000000000E+01 0.  0.
<mgrwt>
<rscale>  0 0.12499488E+03</rscale>
<asrwt>0</asrwt>
<pdfrwt beam="1">  1        4 0.34994040E-01 0.12499488E+03</pdfrwt>
<pdfrwt beam="2">  1       -4 0.26418228E-02 0.12499488E+03</pdfrwt>
<totfact> 0.83121629E+03</totfact>
</mgrwt>
</event>
<event>
 5    1  0.3282316E-002  0.1249957E+03  0.7818608E-02  0.1235076E+00
         -4   -1    0    0    0  501 -0.00000000000E+00  0.00000000000E+00  0.38709213149E+02  0.38730041087E+02  0.12700000000E+01 0.  1.
          4   -1    0    0  501    0  0.00000000000E+00 -0.00000000000E+00 -0.10085374259E+03  0.10086173851E+03  0.12700000000E+01 0.  1.
         25    2    1    2    0    0  0.00000000000E+00  0.00000000000E+00 -0.62144529445E+02  0.13959177960E+03  0.12499568949E+03 0.  0.
    9000005    1    3    3    0    0 -0.45277677225E+02  0.41812836853E+02 -0.42602596790E+02  0.74929050667E+02  0.10000000000E+01 0.  0.
    9000005    1    3    3    0    0  0.45277677225E+02 -0.41812836853E+02 -0.19541932654E+02  0.64662728929E+02  0.10000000000E+01 0.  0.
<mgrwt>
<rscale>  0 0.12499569E+03</rscale>
<asrwt>0</asrwt>
<pdfrwt beam="2">  1        4 0.15518178E-01 0.12499569E+03</pdfrwt>
<pdfrwt beam="1">  1       -4 0.59574808E-02 0.12499569E+03</pdfrwt>
<totfact> 0.10143038E+04</totfact>
</mgrwt>
</event>
<event>
 5    1  0.3282316E-002  0.1250101E+03  0.7818608E-02  0.1235053E+00
          4   -1    0    0  501    0  0.00000000000E+00  0.00000000000E+00  0.69502558544E+03  0.69502674576E+03  0.12700000000E+01 0.  1.
         -4   -1    0    0    0  501 -0.00000000000E+00 -0.00000000000E+00 -0.55482956088E+01  0.56917909451E+01  0.12700000000E+01 0.  1.
         25    2    1    2    0    0  0.00000000000E+00  0.00000000000E+00  0.68947728984E+03  0.70071853671E+03  0.12501013752E+03 0.  0.
    9000005    1    3    3    0    0  0.57605227696E+02 -0.12223776684E+02  0.22741506113E+03  0.23491784309E+03  0.10000000000E+01 0.  0.
    9000005    1    3    3    0    0 -0.57605227696E+02  0.12223776684E+02  0.46206222871E+03  0.46580069361E+03  0.10000000000E+01 0.  0.
<mgrwt>
<rscale>  0 0.12501014E+03</rscale>
<asrwt>0</asrwt>
<pdfrwt beam="1">  1        4 0.10693809E+00 0.12501014E+03</pdfrwt>
<pdfrwt beam="2">  1       -4 0.86471172E-03 0.12501014E+03</pdfrwt>
<totfact> 0.43039257E+03</totfact>
</mgrwt>
</event>
<event>
 5    1  0.3282316E-002  0.1250003E+03  0.7818608E-02  0.1235069E+00
          4   -1    0    0  501    0  0.00000000000E+00  0.00000000000E+00  0.57521637994E+02  0.57535656227E+02  0.12700000000E+01 0. -1.
         -4   -1    0    0    0  501 -0.00000000000E+00 -0.00000000000E+00 -0.67881271473E+02  0.67893150735E+02  0.12700000000E+01 0. -1.
         25    2    1    2    0    0  0.00000000000E+00  0.00000000000E+00 -0.10359633479E+02  0.12542880696E+03  0.12500025444E+03 0.  0.
    9000005    1    3    3    0    0 -0.77255864031E+01  0.60398403154E+02 -0.19285540474E+02  0.63879447871E+02  0.10000000000E+01 0.  0.
    9000005    1    3    3    0    0  0.77255864031E+01 -0.60398403154E+02  0.89259069957E+01  0.61549359091E+02  0.10000000000E+01 0.  0.
<mgrwt>
<rscale>  0 0.12500025E+03</rscale>
<asrwt>0</asrwt>
<pdfrwt beam="1">  1        4 0.88514749E-02 0.12500025E+03</pdfrwt>
<pdfrwt beam="2">  1       -4 0.10445265E-01 0.12500025E+03</pdfrwt>
<totfact> 0.10443469E+04</totfact>
</mgrwt>
</event>
<event>
 5    1  0.3282316E-002  0.1250017E+03  0.7818608E-02  0.1235067E+00
         -4   -1    0    0    0  501 -0.00000000000E+00  0.00000000000E+00  0.33155164710E+02  0.33179479305E+02  0.12700000000E+01 0.  1.
          4   -1    0    0  501    0  0.00000000000E+00 -0.00000000000E+00 -0.11774957725E+03  0.11775642591E+03  0.12700000000E+01 0.  1.
         25    2    1    2    0    0  0.00000000000E+00  0.00000000000E+00 -0.84594412542E+02  0.15093590521E+03  0.12500173139E+03 0.  0.
    9000005    1    3    3    0    0  0.20504835322E+02 -0.11004433068E+02  0.27734130847E+02  0.36217783374E+02  0.10000000000E+01 0.  0.
    9000005    1    3    3    0    0 -0.20504835322E+02  0.11004433068E+02 -0.11232854339E+03  0.11471812184E+03  0.10000000000E+01 0.  0.
<mgrwt>
<rscale>  0 0.12500173E+03</rscale>
<asrwt>0</asrwt>
<pdfrwt beam="2">  1        4 0.18117717E-01 0.12500173E+03</pdfrwt>
<pdfrwt beam="1">  1       -4 0.51031918E-02 0.12500173E+03</pdfrwt>
<totfact> 0.99113604E+03</totfact>
</mgrwt>
</event>
<event>
 5    1  0.3282316E-002  0.1250001E+03  0.7818608E-02  0.1235069E+00
          4   -1    0    0  501    0  0.00000000000E+00  0.00000000000E+00  0.13666491915E+03  0.13667081995E+03  0.12700000000E+01 0.  1.
         -4   -1    0    0    0  501 -0.00000000000E+00 -0.00000000000E+00 -0.28562076932E+02  0.28590297981E+02  0.12700000000E+01 0.  1.
         25    2    1    2    0    0  0.00000000000E+00  0.00000000000E+00  0.10810284221E+03  0.16526111793E+03  0.12500005042E+03 0.  0.
    9000005    1    3    3    0    0  0.37256553545E+02 -0.33534016751E+01 -0.12131710224E+02  0.39337952130E+02  0.10000000000E+01 0.  0.
    9000005    1    3    3    0    0 -0.37256553545E+02  0.33534016751E+01  0.12023455244E+03  0.12592316580E+03  0.10000000000E+01 0.  0.
<mgrwt>
<rscale>  0 0.12500005E+03</rscale>
<asrwt>0</asrwt>
<pdfrwt beam="1">  1        4 0.21027997E-01 0.12500005E+03</pdfrwt>
<pdfrwt beam="2">  1       -4 0.43967904E-02 0.12500005E+03</pdfrwt>
<totfact> 0.96337854E+03</totfact>
</mgrwt>
</event>
<event>
 5    1  0.3282316E-002  0.1249647E+03  0.7818608E-02  0.1235124E+00
          4   -1    0    0  501    0  0.00000000000E+00  0.00000000000E+00  0.92260182579E+01  0.93130184631E+01  0.12700000000E+01 0.  1.
         -4   -1    0    0    0  501 -0.00000000000E+00 -0.00000000000E+00 -0.42108232543E+03  0.42108424061E+03  0.12700000000E+01 0.  1.
         25    2    1    2    0    0  0.00000000000E+00  0.00000000000E+00 -0.41185630717E+03  0.43039725907E+03  0.12496472646E+03 0.  0.
    9000005    1    3    3    0    0  0.46439550850E+02 -0.39578778759E+02 -0.15972849178E+03  0.17098918883E+03  0.10000000000E+01 0.  0.
    9000005    1    3    3    0    0 -0.46439550850E+02  0.39578778759E+02 -0.25212781539E+03  0.25940807024E+03  0.10000000000E+01 0.  0.
<mgrwt>
<rscale>  0 0.12496473E+03</rscale>
<asrwt>0</asrwt>
<pdfrwt beam="1">  1        4 0.14262274E-02 0.12496473E+03</pdfrwt>
<pdfrwt beam="2">  1       -4 0.64788721E-01 0.12496473E+03</pdfrwt>
<totfact> 0.61748015E+03</totfact>
</mgrwt>
</event>
<event>
 5    1  0.3282316E-002  0.1250006E+03  0.7818608E-02  0.1235068E+00
          4   -1    0    0  501    0  0.00000000000E+00  0.00000000000E+00  0.37855367341E+02  0.37876664802E+02  0.12700000000E+01 0. -1.
         -4   -1    0    0    0  501 -0.00000000000E+00 -0.00000000000E+00 -0.10313554779E+03  0.10314336682E+03  0.12700000000E+01 0. -1.
         25    2    1    2    0    0  0.00000000000E+00  0.00000000000E+00 -0.65280180452E+02  0.14102003162E+03  0.12500058943E+03 0.  0.
    9000005    1    3    3    0    0  0.12499888218E+02  0.59536493052E+02 -0.16509225022E+02  0.63042808640E+02  0.10000000000E+01 0.  0.
    9000005    1    3    3    0    0 -0.12499888218E+02 -0.59536493052E+02 -0.48770955430E+02  0.77977222981E+02  0.10000000000E+01 0.  0.
<mgrwt>
<rscale>  0 0.12500059E+03</rscale>
<asrwt>0</asrwt>
<pdfrwt beam="1">  1        4 0.58261424E-02 0.12500059E+03</pdfrwt>
<pdfrwt beam="2">  1       -4 0.15869247E-01 0.12500059E+03</pdfrwt>
<totfact> 0.10112354E+04</totfact>
</mgrwt>
</event>
<event>
 5    1  0.3282316E-002  0.1249989E+03  0.7818608E-02  0.1235071E+00
          4   -1    0    0  501    0  0.00000000000E+00  0.00000000000E+00  0.48845975949E+02  0.48862483220E+02  0.12700000000E+01 0. -1.
         -4   -1    0    0    0  501 -0.00000000000E+00 -0.00000000000E+00 -0.79934351609E+02  0.79944439877E+02  0.12700000000E+01 0. -1.
         25    2    1    2    0    0  0.00000000000E+00  0.00000000000E+00 -0.31088375660E+02  0.12880692310E+03  0.12499894534E+03 0.  0.
    9000005    1    3    3    0    0  0.46845994713E+02  0.39142885207E+02 -0.17778895952E+01  0.61080877322E+02  0.10000000000E+01 0.  0.
    9000005    1    3    3    0    0 -0.46845994713E+02 -0.39142885207E+02 -0.29310486065E+02  0.67726045775E+02  0.10000000000E+01 0.  0.
<mgrwt>
<rscale>  0 0.12499895E+03</rscale>
<asrwt>0</asrwt>
<pdfrwt beam="1">  1        4 0.75168113E-02 0.12499895E+03</pdfrwt>
<pdfrwt beam="2">  1       -4 0.12299638E-01 0.12499895E+03</pdfrwt>
<totfact> 0.10370344E+04</totfact>
</mgrwt>
</event>
<event>
 5    1  0.3282316E-002  0.1250039E+03  0.7818608E-02  0.1235063E+00
          4   -1    0    0  501    0  0.00000000000E+00  0.00000000000E+00  0.25264971125E+03  0.25265290319E+03  0.12700000000E+01 0. -1.
         -4   -1    0    0    0  501 -0.00000000000E+00 -0.00000000000E+00 -0.15432712266E+02  0.15484879976E+02  0.12700000000E+01 0. -1.
         25    2    1    2    0    0  0.00000000000E+00  0.00000000000E+00  0.23721699898E+03  0.26813778317E+03  0.12500386457E+03 0.  0.
    9000005    1    3    3    0    0 -0.34412969248E+02  0.49114995272E+02  0.80904873284E+02  0.10071312593E+03  0.10000000000E+01 0.  0.
    9000005    1    3    3    0    0  0.34412969248E+02 -0.49114995272E+02  0.15631212570E+03  0.16742465724E+03  0.10000000000E+01 0.  0.
<mgrwt>
<rscale>  0 0.12500386E+03</rscale>
<asrwt>0</asrwt>
<pdfrwt beam="1">  1        4 0.38873444E-01 0.12500386E+03</pdfrwt>
<pdfrwt beam="2">  1       -4 0.23785219E-02 0.12500386E+03</pdfrwt>
<totfact> 0.79770572E+03</totfact>
</mgrwt>
</event>
<event>
 5    1  0.3282316E-002  0.1249976E+03  0.7818608E-02  0.1235073E+00
         -4   -1    0    0    0  501 -0.00000000000E+00  0.00000000000E+00  0.27921886973E+02  0.27950754411E+02  0.12700000000E+01 0.  1.
          4   -1    0    0  501    0  0.00000000000E+00 -0.00000000000E+00 -0.13978972390E+03  0.13979549280E+03  0.12700000000E+01 0.  1.
         25    2    1    2    0    0  0.00000000000E+00  0.00000000000E+00 -0.11186783692E+03  0.16774624721E+03  0.12499756204E+03 0.  0.
    9000005    1    3    3    0    0 -0.34556669365E+02  0.48077764913E+01 -0.12550861519E+03  0.13027160320E+03  0.10000000000E+01 0.  0.
    9000005    1    3    3    0    0  0.34556669365E+02 -0.48077764913E+01  0.13640778266E+02  0.37474644015E+02  0.10000000000E+01 0.  0.
<mgrwt>
<rscale>  0 0.12499756E+03</rscale>
<asrwt>0</asrwt>
<pdfrwt beam="2">  1        4 0.21508775E-01 0.12499756E+03</pdfrwt>
<pdfrwt beam="1">  1       -4 0.42983394E-02 0.12499756E+03</pdfrwt>
<totfact> 0.95875059E+03</totfact>
</mgrwt>
</event>
<event>
 5    1  0.3282316E-002  0.1250022E+03  0.7818608E-02  0.1235066E+00
         -4   -1    0    0    0  501 -0.00000000000E+00  0.00000000000E+00  0.89856910929E+03  0.89857000677E+03  0.12700000000E+01 0.  1.
          4   -1    0    0  501    0  0.00000000000E+00 -0.00000000000E+00 -0.42536701449E+01  0.44392127345E+01  0.12700000000E+01 0.  1.
         25    2    1    2    0    0  0.00000000000E+00  0.00000000000E+00  0.89431543915E+03  0.90300921951E+03  0.12500218326E+03 0.  0.
    9000005    1    3    3    0    0  0.47881957434E+02  0.35943342428E+02  0.31777426874E+03  0.32336680656E+03  0.10000000000E+01 0.  0.
    9000005    1    3    3    0    0 -0.47881957434E+02 -0.35943342428E+02  0.57654117041E+03  0.57964241295E+03  0.10000000000E+01 0.  0.
<mgrwt>
<rscale>  0 0.12500218E+03</rscale>
<asrwt>0</asrwt>
<pdfrwt beam="2">  1        4 0.66875257E-03 0.12500218E+03</pdfrwt>
<pdfrwt beam="1">  1       -4 0.13825569E+00 0.12500218E+03</pdfrwt>
<totfact> 0.34043341E+03</totfact>
</mgrwt>
</event>
<event>
 5    1  0.3282316E-002  0.1249982E+03  0.7818608E-02  0.1235072E+00
          4   -1    0    0  501    0  0.00000000000E+00  0.00000000000E+00  0.13743514753E+02  0.13802068605E+02  0.12700000000E+01 0. -1.
         -4   -1    0    0    0  501 -0.00000000000E+00 -0.00000000000E+00 -0.28355270225E+03  0.28355554633E+03  0.12700000000E+01 0. -1.
         25    2    1    2    0    0  0.00000000000E+00  0.00000000000E+00 -0.26980918749E+03  0.29735761493E+03  0.12499821399E+03 0.  0.
    9000005    1    3    3    0    0  0.52519362125E+02  0.29233993360E+02 -0.94238109978E+02  0.11177983332E+03  0.10000000000E+01 0.  0.
    9000005    1    3    3    0    0 -0.52519362125E+02 -0.29233993360E+02 -0.17557107752E+03  0.18557778161E+03  0.10000000000E+01 0.  0.
<mgrwt>
<rscale>  0 0.12499821E+03</rscale>
<asrwt>0</asrwt>
<pdfrwt beam="1">  1        4 0.21191100E-02 0.12499821E+03</pdfrwt>
<pdfrwt beam="2">  1       -4 0.43628211E-01 0.12499821E+03</pdfrwt>
<totfact> 0.75934508E+03</totfact>
</mgrwt>
</event>
<event>
 5    1  0.3282316E-002  0.1249996E+03  0.7818608E-02  0.1235070E+00
         -4   -1    0    0    0  501 -0.00000000000E+00  0.00000000000E+00  0.16395258661E+03  0.16395750534E+03  0.12700000000E+01 0.  1.
          4   -1    0    0  501    0  0.00000000000E+00 -0.00000000000E+00 -0.23803114457E+02  0.23836970400E+02  0.12700000000E+01 0.  1.
         25    2    1    2    0    0  0.00000000000E+00  0.00000000000E+00  0.14014947216E+03  0.18779447574E+03  0.12499956229E+03 0.  0.
    9000005    1    3    3    0    0 -0.61960128038E+02  0.34956387809E+01  0.81109236647E+02  0.10213219486E+03  0.10000000000E+01 0.  0.
    9000005    1    3    3    0    0  0.61960128038E+02 -0.34956387809E+01  0.59040235511E+02  0.85662280883E+02  0.10000000000E+01 0.  0.
<mgrwt>
<rscale>  0 0.12499956E+03</rscale>
<asrwt>0</asrwt>
<pdfrwt beam="2">  1        4 0.36650003E-02 0.12499956E+03</pdfrwt>
<pdfrwt beam="1">  1       -4 0.25226457E-01 0.12499956E+03</pdfrwt>
<totfact> 0.92233395E+03</totfact>
</mgrwt>
</event>
<event>
 5    1  0.3282316E-002  0.1250012E+03  0.7818608E-02  0.1235067E+00
         -4   -1    0    0    0  501 -0.00000000000E+00  0.00000000000E+00  0.75913774883E+03  0.75913881115E+03  0.12700000000E+01 0.  1.
          4   -1    0    0  501    0  0.00000000000E+00 -0.00000000000E+00 -0.50662998979E+01  0.52230541501E+01  0.12700000000E+01 0.  1.
         25    2    1    2    0    0  0.00000000000E+00  0.00000000000E+00  0.75407144893E+03  0.76436186530E+03  0.12500124413E+03 0.  0.
    9000005    1    3    3    0    0  0.53475253922E+02  0.30037859239E+02  0.45027397525E+03  0.45443319482E+03  0.10000000000E+01 0.  0.
    9000005    1    3    3    0    0 -0.53475253922E+02 -0.30037859239E+02  0.30379747368E+03  0.30992867048E+03  0.10000000000E+01 0.  0.
<mgrwt>
<rscale>  0 0.12500124E+03</rscale>
<asrwt>0</asrwt>
<pdfrwt beam="2">  1        4 0.79157114E-03 0.12500124E+03</pdfrwt>
<pdfrwt beam="1">  1       -4 0.11680247E+00 0.12500124E+03</pdfrwt>
<totfact> 0.39895393E+03</totfact>
</mgrwt>
</event>
<event>
 5    1  0.3282316E-002  0.1250009E+03  0.7818608E-02  0.1235068E+00
         -4   -1    0    0    0  501 -0.00000000000E+00  0.00000000000E+00  0.70210442165E+02  0.70221927409E+02  0.12700000000E+01 0. -1.
          4   -1    0    0  501    0  0.00000000000E+00 -0.00000000000E+00 -0.55613801176E+02  0.55628300183E+02  0.12700000000E+01 0. -1.
         25    2    1    2    0    0  0.00000000000E+00  0.00000000000E+00  0.14596640989E+02  0.12585022759E+03  0.12500087142E+03 0.  0.
    9000005    1    3    3    0    0  0.50577374859E+02 -0.13743577603E+02 -0.26967444603E+02  0.58950825621E+02  0.10000000000E+01 0.  0.
    9000005    1    3    3    0    0 -0.50577374859E+02  0.13743577603E+02  0.41564085592E+02  0.66899401971E+02  0.10000000000E+01 0.  0.
<mgrwt>
<rscale>  0 0.12500087E+03</rscale>
<asrwt>0</asrwt>
<pdfrwt beam="2">  1        4 0.85579682E-02 0.12500087E+03</pdfrwt>
<pdfrwt beam="1">  1       -4 0.10803605E-01 0.12500087E+03</pdfrwt>
<totfact> 0.10434037E+04</totfact>
</mgrwt>
</event>
<event>
 5    1  0.3282316E-002  0.1250001E+03  0.7818608E-02  0.1235069E+00
          4   -1    0    0  501    0  0.00000000000E+00  0.00000000000E+00  0.89329939473E+02  0.89338966785E+02  0.12700000000E+01 0. -1.
         -4   -1    0    0    0  501 -0.00000000000E+00 -0.00000000000E+00 -0.43707959814E+02  0.43726406794E+02  0.12700000000E+01 0. -1.
         25    2    1    2    0    0  0.00000000000E+00  0.00000000000E+00  0.45621979658E+02  0.13306537358E+03  0.12500011447E+03 0.  0.
    9000005    1    3    3    0    0  0.26329335035E+02 -0.55059505317E+02  0.37111849455E+02  0.71435792003E+02  0.10000000000E+01 0.  0.
    9000005    1    3    3    0    0 -0.26329335035E+02  0.55059505317E+02  0.85101302036E+01  0.61629581576E+02  0.10000000000E+01 0.  0.
<mgrwt>
<rscale>  0 0.12500011E+03</rscale>
<asrwt>0</asrwt>
<pdfrwt beam="1">  1        4 0.13745181E-01 0.12500011E+03</pdfrwt>
<pdfrwt beam="2">  1       -4 0.67264149E-02 0.12500011E+03</pdfrwt>
<totfact> 0.10278984E+04</totfact>
</mgrwt>
</event>
<event>
 5    1  0.3282316E-002  0.1250017E+03  0.7818608E-02  0.1235067E+00
          4   -1    0    0  501    0  0.00000000000E+00  0.00000000000E+00  0.55836466768E+02  0.55850907971E+02  0.12700000000E+01 0.  1.
         -4   -1    0    0    0  501 -0.00000000000E+00 -0.00000000000E+00 -0.69931382471E+02  0.69942913538E+02  0.12700000000E+01 0.  1.
         25    2    1    2    0    0  0.00000000000E+00  0.00000000000E+00 -0.14094915703E+02  0.12579382151E+03  0.12500167551E+03 0.  0.
    9000005    1    3    3    0    0 -0.80345960335E+01 -0.30268559818E+02  0.47374952687E+02  0.56799001655E+02  0.10000000000E+01 0.  0.
    9000005    1    3    3    0    0  0.80345960335E+01  0.30268559818E+02 -0.61469868389E+02  0.68994819854E+02  0.10000000000E+01 0.  0.
<mgrwt>
<rscale>  0 0.12500168E+03</rscale>
<asrwt>0</asrwt>
<pdfrwt beam="1">  1        4 0.85922235E-02 0.12500168E+03</pdfrwt>
<pdfrwt beam="2">  1       -4 0.10760672E-01 0.12500168E+03</pdfrwt>
<totfact> 0.10435087E+04</totfact>
</mgrwt>
</event>
<event>
 5    1  0.3282316E-002  0.1250021E+03  0.7818608E-02  0.1235066E+00
         -4   -1    0    0    0  501 -0.00000000000E+00  0.00000000000E+00  0.53994830426E+02  0.54009764050E+02  0.12700000000E+01 0. -1.
          4   -1    0    0  501    0  0.00000000000E+00 -0.00000000000E+00 -0.72316762063E+02  0.72327912836E+02  0.12700000000E+01 0. -1.
         25    2    1    2    0    0  0.00000000000E+00  0.00000000000E+00 -0.18321931637E+02  0.12633767689E+03  0.12500206167E+03 0.  0.
    9000005    1    3    3    0    0 -0.46646923257E+02 -0.78855674521E+01  0.32107425195E+02  0.57183952085E+02  0.10000000000E+01 0.  0.
    9000005    1    3    3    0    0  0.46646923257E+02  0.78855674521E+01 -0.50429356832E+02  0.69153724801E+02  0.10000000000E+01 0.  0.
<mgrwt>
<rscale>  0 0.12500206E+03</rscale>
<asrwt>0</asrwt>
<pdfrwt beam="2">  1        4 0.11127662E-01 0.12500206E+03</pdfrwt>
<pdfrwt beam="1">  1       -4 0.83089035E-02 0.12500206E+03</pdfrwt>
<totfact> 0.10423085E+04</totfact>
</mgrwt>
</event>
<event>
 5    1  0.3282316E-002  0.1250029E+03  0.7818608E-02  0.1235065E+00
          4   -1    0    0  501    0  0.00000000000E+00  0.00000000000E+00  0.13636613659E+03  0.13637205032E+03  0.12700000000E+01 0.  1.
         -4   -1    0    0    0  501 -0.00000000000E+00 -0.00000000000E+00 -0.28626040621E+02  0.28654198674E+02  0.12700000000E+01 0.  1.
         25    2    1    2    0    0  0.00000000000E+00  0.00000000000E+00  0.10774009597E+03  0.16502624900E+03  0.12500293828E+03 0.  0.
    9000005    1    3    3    0    0 -0.18503905541E+02 -0.15159804351E+02 -0.22349217805E+02  0.32752125500E+02  0.10000000000E+01 0.  0.
    9000005    1    3    3    0    0  0.18503905541E+02  0.15159804351E+02  0.13008931378E+03  0.13227412350E+03  0.10000000000E+01 0.  0.
<mgrwt>
<rscale>  0 0.12500294E+03</rscale>
<asrwt>0</asrwt>
<pdfrwt beam="1">  1        4 0.20982026E-01 0.12500294E+03</pdfrwt>
<pdfrwt beam="2">  1       -4 0.44066272E-02 0.12500294E+03</pdfrwt>
<totfact> 0.96376060E+03</totfact>
</mgrwt>
</event>
<event>
 5    1  0.3282316E-002  0.1250064E+03  0.7818608E-02  0.1235059E+00
         -4   -1    0    0    0  501 -0.00000000000E+00  0.00000000000E+00  0.34937723654E+01  0.37174380077E+01  0.12700000000E+01 0.  1.
          4   -1    0    0  501    0  0.00000000000E+00 -0.00000000000E+00 -0.10832701000E+04  0.10832708444E+04  0.12700000000E+01 0.  1.
         25    2    1    2    0    0  0.00000000000E+00  0.00000000000E+00 -0.10797763276E+04  0.10869882825E+04  0.12500643383E+03 0.  0.
    9000005    1    3    3    0    0 -0.20960272726E+02  0.58682289519E+02 -0.49845178142E+03  0.50233268113E+03  0.10000000000E+01 0.  0.
    9000005    1    3    3    0    0  0.20960272726E+02 -0.58682289519E+02 -0.58132454621E+03  0.58465560133E+03  0.10000000000E+01 0.  0.
<mgrwt>
<rscale>  0 0.12500643E+03</rscale>
<asrwt>0</asrwt>
<pdfrwt beam="2">  1        4 0.16667394E+00 0.12500643E+03</pdfrwt>
<pdfrwt beam="1">  1       -4 0.55476662E-03 0.12500643E+03</pdfrwt>
<totfact> 0.27863495E+03</totfact>
</mgrwt>
</event>
<event>
 5    1  0.3282316E-002  0.1249949E+03  0.7818608E-02  0.1235077E+00
          4   -1    0    0  501    0  0.00000000000E+00  0.00000000000E+00  0.87556014347E+03  0.87556106454E+03  0.12700000000E+01 0.  1.
         -4   -1    0    0    0  501 -0.00000000000E+00 -0.00000000000E+00 -0.43697371778E+01  0.45505497473E+01  0.12700000000E+01 0.  1.
         25    2    1    2    0    0  0.00000000000E+00  0.00000000000E+00  0.87119040630E+03  0.88011161429E+03  0.12499491823E+03 0.  0.
    9000005    1    3    3    0    0 -0.56105646191E+02  0.23316169026E+02  0.53846514954E+03  0.54188301740E+03  0.10000000000E+01 0.  0.
    9000005    1    3    3    0    0  0.56105646191E+02 -0.23316169026E+02  0.33272525675E+03  0.33822859689E+03  0.10000000000E+01 0.  0.
<mgrwt>
<rscale>  0 0.12499492E+03</rscale>
<asrwt>0</asrwt>
<pdfrwt beam="1">  1        4 0.13471551E+00 0.12499492E+03</pdfrwt>
<pdfrwt beam="2">  1       -4 0.68624690E-03 0.12499492E+03</pdfrwt>
<totfact> 0.34929678E+03</totfact>
</mgrwt>
</event>
<event>
 5    1  0.3282316E-002  0.1249998E+03  0.7818608E-02  0.1235070E+00
          4   -1    0    0  501    0  0.00000000000E+00  0.00000000000E+00  0.16848404400E+04  0.16848409187E+04  0.12700000000E+01 0. -1.
         -4   -1    0    0    0  501 -0.00000000000E+00 -0.00000000000E+00 -0.21440252841E+01  0.24919358778E+01  0.12700000000E+01 0. -1.
         25    2    1    2    0    0  0.00000000000E+00  0.00000000000E+00  0.16826964147E+04  0.16873328546E+04  0.12499975149E+03 0.  0.
    9000005    1    3    3    0    0  0.63800848274E+01  0.56673428211E+02  0.11861998432E+04  0.11875704825E+04  0.10000000000E+01 0.  0.
    9000005    1    3    3    0    0 -0.63800848274E+01 -0.56673428211E+02  0.49649657156E+03  0.49976237205E+03  0.10000000000E+01 0.  0.
<mgrwt>
<rscale>  0 0.12499975E+03</rscale>
<asrwt>0</asrwt>
<pdfrwt beam="1">  1        4 0.25923238E+00 0.12499975E+03</pdfrwt>
<pdfrwt beam="2">  1       -4 0.35665009E-03 0.12499975E+03</pdfrwt>
<totfact> 0.14520500E+03</totfact>
</mgrwt>
</event>
<event>
 5    1  0.3282316E-002  0.1250006E+03  0.7818608E-02  0.1235068E+00
          4   -1    0    0  501    0  0.00000000000E+00  0.00000000000E+00  0.80937167691E+02  0.80947130980E+02  0.12700000000E+01 0.  1.
         -4   -1    0    0    0  501 -0.00000000000E+00 -0.00000000000E+00 -0.48241888471E+02  0.48258602376E+02  0.12700000000E+01 0.  1.
         25    2    1    2    0    0  0.00000000000E+00  0.00000000000E+00  0.32695279220E+02  0.12920573336E+03  0.12500056099E+03 0.  0.
    9000005    1    3    3    0    0 -0.43857131904E+02  0.39887912842E+02  0.36781120283E+02  0.69773522335E+02  0.10000000000E+01 0.  0.
    9000005    1    3    3    0    0  0.43857131904E+02 -0.39887912842E+02 -0.40858410633E+01  0.59432211021E+02  0.10000000000E+01 0.  0.
<mgrwt>
<rscale>  0 0.12500056E+03</rscale>
<asrwt>0</asrwt>
<pdfrwt beam="1">  1        4 0.12453924E-01 0.12500056E+03</pdfrwt>
<pdfrwt beam="2">  1       -4 0.74238811E-02 0.12500056E+03</pdfrwt>
<totfact> 0.10361397E+04</totfact>
</mgrwt>
</event>
<event>
 5    1  0.3282316E-002  0.1249997E+03  0.7818608E-02  0.1235070E+00
          4   -1    0    0  501    0  0.00000000000E+00  0.00000000000E+00  0.68653125794E+01  0.69817918053E+01  0.12700000000E+01 0. -1.
         -4   -1    0    0    0  501 -0.00000000000E+00 -0.00000000000E+00 -0.56407735760E+03  0.56407878728E+03  0.12700000000E+01 0. -1.
         25    2    1    2    0    0  0.00000000000E+00  0.00000000000E+00 -0.55721204502E+03  0.57106057908E+03  0.12499968747E+03 0.  0.
    9000005    1    3    3    0    0 -0.28118528445E+02 -0.81019627171E+01 -0.53086549390E+03  0.53167232960E+03  0.10000000000E+01 0.  0.
    9000005    1    3    3    0    0  0.28118528445E+02  0.81019627171E+01 -0.26346551116E+02  0.39388249486E+02  0.10000000000E+01 0.  0.
<mgrwt>
<rscale>  0 0.12499969E+03</rscale>
<asrwt>0</asrwt>
<pdfrwt beam="1">  1        4 0.10652723E-02 0.12499969E+03</pdfrwt>
<pdfrwt beam="2">  1       -4 0.86790166E-01 0.12499969E+03</pdfrwt>
<totfact> 0.50747196E+03</totfact>
</mgrwt>
</event>
<event>
 5    1  0.3282316E-002  0.1249983E+03  0.7818608E-02  0.1235072E+00
          4   -1    0    0  501    0  0.00000000000E+00  0.00000000000E+00  0.52969930167E+03  0.52970082414E+03  0.12700000000E+01 0.  1.
         -4   -1    0    0    0  501 -0.00000000000E+00 -0.00000000000E+00 -0.73180456559E+01  0.74274283720E+01  0.12700000000E+01 0.  1.
         25    2    1    2    0    0  0.00000000000E+00  0.00000000000E+00  0.52238125602E+03  0.53712825251E+03  0.12499833202E+03 0.  0.
    9000005    1    3    3    0    0  0.55753023877E+00  0.46181362372E+02  0.80298388484E+02  0.92638330424E+02  0.10000000000E+01 0.  0.
    9000005    1    3    3    0    0 -0.55753023877E+00 -0.46181362372E+02  0.44208286753E+03  0.44448992208E+03  0.10000000000E+01 0.  0.
<mgrwt>
<rscale>  0 0.12499833E+03</rscale>
<asrwt>0</asrwt>
<pdfrwt beam="1">  1        4 0.81500739E-01 0.12499833E+03</pdfrwt>
<pdfrwt beam="2">  1       -4 0.11343842E-02 0.12499833E+03</pdfrwt>
<totfact> 0.53096456E+03</totfact>
</mgrwt>
</event>
<event>
 5    1  0.3282316E-002  0.1249995E+03  0.7818608E-02  0.1235070E+00
          4   -1    0    0  501    0  0.00000000000E+00  0.00000000000E+00  0.77660758883E+01  0.78692334253E+01  0.12700000000E+01 0.  1.
         -4   -1    0    0    0  501 -0.00000000000E+00 -0.00000000000E+00 -0.49956228893E+03  0.49956390324E+03  0.12700000000E+01 0.  1.
         25    2    1    2    0    0  0.00000000000E+00  0.00000000000E+00 -0.49179621304E+03  0.50743313667E+03  0.12499949210E+03 0.  0.
    9000005    1    3    3    0    0 -0.61247905739E+02 -0.10639486253E+02 -0.21999567738E+03  0.22861234151E+03  0.10000000000E+01 0.  0.
    9000005    1    3    3    0    0  0.61247905739E+02  0.10639486253E+02 -0.27180053566E+03  0.27882079515E+03  0.10000000000E+01 0.  0.
<mgrwt>
<rscale>  0 0.12499949E+03</rscale>
<asrwt>0</asrwt>
<pdfrwt beam="1">  1        4 0.12028407E-02 0.12499949E+03</pdfrwt>
<pdfrwt beam="2">  1       -4 0.76863771E-01 0.12499949E+03</pdfrwt>
<totfact> 0.55292852E+03</totfact>
</mgrwt>
</event>
<event>
 5    1  0.3282316E-002  0.1250005E+03  0.7818608E-02  0.1235068E+00
          4   -1    0    0  501    0  0.00000000000E+00  0.00000000000E+00  0.46509433449E+03  0.46509606843E+03  0.12700000000E+01 0.  1.
         -4   -1    0    0    0  501 -0.00000000000E+00 -0.00000000000E+00 -0.83491334128E+01  0.84451719192E+01  0.12700000000E+01 0.  1.
         25    2    1    2    0    0  0.00000000000E+00  0.00000000000E+00  0.45674520107E+03  0.47354124035E+03  0.12500051044E+03 0.  0.
    9000005    1    3    3    0    0  0.34512549804E+02  0.22293901939E+02  0.40675144164E+03  0.40882254027E+03  0.10000000000E+01 0.  0.
    9000005    1    3    3    0    0 -0.34512549804E+02 -0.22293901939E+02  0.49993759429E+02  0.64718700076E+02  0.10000000000E+01 0.  0.
<mgrwt>
<rscale>  0 0.12500051E+03</rscale>
<asrwt>0</asrwt>
<pdfrwt beam="1">  1        4 0.71560520E-01 0.12500051E+03</pdfrwt>
<pdfrwt beam="2">  1       -4 0.12920026E-02 0.12500051E+03</pdfrwt>
<totfact> 0.57976649E+03</totfact>
</mgrwt>
</event>
<event>
 5    1  0.3282316E-002  0.1250003E+03  0.7818608E-02  0.1235069E+00
          4   -1    0    0  501    0  0.00000000000E+00  0.00000000000E+00  0.14884075419E+02  0.14938159227E+02  0.12700000000E+01 0.  1.
         -4   -1    0    0    0  501 -0.00000000000E+00 -0.00000000000E+00 -0.26191460672E+03  0.26191768575E+03  0.12700000000E+01 0.  1.
         25    2    1    2    0    0  0.00000000000E+00  0.00000000000E+00 -0.24703053130E+03  0.27685584498E+03  0.12500030203E+03 0.  0.
    9000005    1    3    3    0    0 -0.51403658028E+02 -0.68374783801E+01 -0.20075519500E+03  0.20734689650E+03  0.10000000000E+01 0.  0.
    9000005    1    3    3    0    0  0.51403658028E+02  0.68374783801E+01 -0.46275336295E+02  0.69508948478E+02  0.10000000000E+01 0.  0.
<mgrwt>
<rscale>  0 0.12500030E+03</rscale>
<asrwt>0</asrwt>
<pdfrwt beam="1">  1        4 0.22942551E-02 0.12500030E+03</pdfrwt>
<pdfrwt beam="2">  1       -4 0.40298949E-01 0.12500030E+03</pdfrwt>
<totfact> 0.78596326E+03</totfact>
</mgrwt>
</event>
<event>
 5    1  0.3282316E-002  0.1249984E+03  0.7818608E-02  0.1235072E+00
          4   -1    0    0  501    0  0.00000000000E+00  0.00000000000E+00  0.24305131336E+03  0.24305463136E+03  0.12700000000E+01 0.  1.
         -4   -1    0    0    0  501 -0.00000000000E+00 -0.00000000000E+00 -0.16042774161E+02  0.16092964387E+02  0.12700000000E+01 0.  1.
         25    2    1    2    0    0  0.00000000000E+00  0.00000000000E+00  0.22700853920E+03  0.25914759575E+03  0.12499839804E+03 0.  0.
    9000005    1    3    3    0    0  0.49436171755E+02  0.14767397939E+02  0.18660177236E+03  0.19360586915E+03  0.10000000000E+01 0.  0.
    9000005    1    3    3    0    0 -0.49436171755E+02 -0.14767397939E+02  0.40406766838E+02  0.65541726602E+02  0.10000000000E+01 0.  0.
<mgrwt>
<rscale>  0 0.12499840E+03</rscale>
<asrwt>0</asrwt>
<pdfrwt beam="1">  1        4 0.37396624E-01 0.12499840E+03</pdfrwt>
<pdfrwt beam="2">  1       -4 0.24722352E-02 0.12499840E+03</pdfrwt>
<totfact> 0.81028722E+03</totfact>
</mgrwt>
</event>
<event>
 5    1  0.3282316E-002  0.1250002E+03  0.7818608E-02  0.1235069E+00
          4   -1    0    0  501    0  0.00000000000E+00  0.00000000000E+00  0.29381212534E+02  0.29408647537E+02  0.12700000000E+01 0. -1.
         -4   -1    0    0    0  501 -0.00000000000E+00 -0.00000000000E+00 -0.13285846708E+03  0.13286453693E+03  0.12700000000E+01 0. -1.
         25    2    1    2    0    0  0.00000000000E+00  0.00000000000E+00 -0.10347725454E+03  0.16227318447E+03  0.12500017676E+03 0.  0.
    9000005    1    3    3    0    0  0.22901669661E+01  0.20215046091E+02 -0.12844544240E+03  0.13005046953E+03  0.10000000000E+01 0.  0.
    9000005    1    3    3    0    0 -0.22901669661E+01 -0.20215046091E+02  0.24968187853E+02  0.32222714936E+02  0.10000000000E+01 0.  0.
<mgrwt>
<rscale>  0 0.12500018E+03</rscale>
<asrwt>0</asrwt>
<pdfrwt beam="1">  1        4 0.45227639E-02 0.12500018E+03</pdfrwt>
<pdfrwt beam="2">  1       -4 0.20442341E-01 0.12500018E+03</pdfrwt>
<totfact> 0.96905930E+03</totfact>
</mgrwt>
</event>
<event>
 5    1  0.3282316E-002  0.1249995E+03  0.7818608E-02  0.1235070E+00
         -4   -1    0    0    0  501 -0.00000000000E+00  0.00000000000E+00  0.34170373949E+01  0.36454141820E+01  0.12700000000E+01 0.  1.
          4   -1    0    0  501    0  0.00000000000E+00 -0.00000000000E+00 -0.11059653217E+04  0.11059660509E+04  0.12700000000E+01 0.  1.
         25    2    1    2    0    0  0.00000000000E+00  0.00000000000E+00 -0.11025482843E+04  0.11096114651E+04  0.12499953671E+03 0.  0.
    9000005    1    3    3    0    0 -0.10669234181E+02  0.46345039721E+02 -0.91114840840E+03  0.91238923569E+03  0.10000000000E+01 0.  0.
    9000005    1    3    3    0    0  0.10669234181E+02 -0.46345039721E+02 -0.19139987593E+03  0.19722222940E+03  0.10000000000E+01 0.  0.
<mgrwt>
<rscale>  0 0.12499954E+03</rscale>
<asrwt>0</asrwt>
<pdfrwt beam="2">  1        4 0.17016586E+00 0.12499954E+03</pdfrwt>
<pdfrwt beam="1">  1       -4 0.54332248E-03 0.12499954E+03</pdfrwt>
<totfact> 0.27204111E+03</totfact>
</mgrwt>
</event>
<event>
 4    1  0.3282316E-002  0.1250619E+03  0.7818608E-02  0.1234973E+00
          4   -1    0    0  501    0  0.00000000000E+00  0.00000000000E+00  0.23478697634E+03  0.23479041113E+03  0.12700000000E+01 0.  1.
         -4   -1    0    0    0  501 -0.00000000000E+00 -0.00000000000E+00 -0.16626130002E+02  0.16674564427E+02  0.12700000000E+01 0.  1.
    9000005    1    1    2    0    0 -0.91065516123E+01 -0.26592928093E+01  0.23334119704E+03  0.23353611146E+03  0.10000000000E+01 0.  0.
    9000005    1    1    2    0    0  0.91065516123E+01  0.26592928093E+01 -0.15180350699E+02  0.17928864099E+02  0.10000000000E+01 0.  0.
<mgrwt>
<rscale>  0 0.12506190E+03</rscale>
<asrwt>0</asrwt>
<pdfrwt beam="1">  1        4 0.36125062E-01 0.12506190E+03</pdfrwt>
<pdfrwt beam="2">  1       -4 0.25618562E-02 0.12506190E+03</pdfrwt>
<totfact> 0.82005832E+03</totfact>
</mgrwt>
</event>
<event>
 5    1  0.3282316E-002  0.1250028E+03  0.7818608E-02  0.1235065E+00
         -4   -1    0    0    0  501 -0.00000000000E+00  0.00000000000E+00  0.20879393945E+03  0.20879780183E+03  0.12700000000E+01 0.  1.
          4   -1    0    0  501    0  0.00000000000E+00 -0.00000000000E+00 -0.18683892516E+02  0.18727005621E+02  0.12700000000E+01 0.  1.
         25    2    1    2    0    0  0.00000000000E+00  0.00000000000E+00  0.19011004693E+03  0.22752480745E+03  0.12500283222E+03 0.  0.
    9000005    1    3    3    0    0 -0.43072925630E+02 -0.96448856405E+01  0.14532323947E+02  0.46481062602E+02  0.10000000000E+01 0.  0.
    9000005    1    3    3    0    0  0.43072925630E+02  0.96448856405E+01  0.17557772298E+03  0.18104374485E+03  0.10000000000E+01 0.  0.
<mgrwt>
<rscale>  0 0.12500283E+03</rscale>
<asrwt>0</asrwt>
<pdfrwt beam="2">  1        4 0.28780584E-02 0.12500283E+03</pdfrwt>
<pdfrwt beam="1">  1       -4 0.32125759E-01 0.12500283E+03</pdfrwt>
<totfact> 0.85685702E+03</totfact>
</mgrwt>
</event>
<event>
 5    1  0.3282316E-002  0.1249999E+03  0.7818608E-02  0.1235070E+00
          4   -1    0    0  501    0  0.00000000000E+00  0.00000000000E+00  0.27790127849E+03  0.27790418041E+03  0.12700000000E+01 0. -1.
         -4   -1    0    0    0  501 -0.00000000000E+00 -0.00000000000E+00 -0.14024550949E+02  0.14081936277E+02  0.12700000000E+01 0. -1.
         25    2    1    2    0    0  0.00000000000E+00  0.00000000000E+00  0.26387672755E+03  0.29198611669E+03  0.12499985999E+03 0.  0.
    9000005    1    3    3    0    0 -0.10550156556E+02 -0.56345670650E+02  0.73817324153E+02  0.93467308453E+02  0.10000000000E+01 0.  0.
    9000005    1    3    3    0    0  0.10550156556E+02  0.56345670650E+02  0.19005940339E+03  0.19851880823E+03  0.10000000000E+01 0.  0.
<mgrwt>
<rscale>  0 0.12499986E+03</rscale>
<asrwt>0</asrwt>
<pdfrwt beam="1">  1        4 0.42758678E-01 0.12499986E+03</pdfrwt>
<pdfrwt beam="2">  1       -4 0.21622608E-02 0.12499986E+03</pdfrwt>
<totfact> 0.76615447E+03</totfact>
</mgrwt>
</event>
<event>
 5    1  0.3282316E-002  0.1249996E+03  0.7818608E-02  0.1235070E+00
          4   -1    0    0  501    0  0.00000000000E+00  0.00000000000E+00  0.50369686456E+03  0.50369846562E+03  0.12700000000E+01 0. -1.
         -4   -1    0    0    0  501 -0.00000000000E+00 -0.00000000000E+00 -0.77014942690E+01  0.78055053633E+01  0.12700000000E+01 0. -1.
         25    2    1    2    0    0  0.00000000000E+00  0.00000000000E+00  0.49599537029E+03  0.51150397098E+03  0.12499961992E+03 0.  0.
    9000005    1    3    3    0    0  0.20611070591E+02 -0.44358052264E+02  0.40715522963E+03  0.41008393537E+03  0.10000000000E+01 0.  0.
    9000005    1    3    3    0    0 -0.20611070591E+02  0.44358052264E+02  0.88840140662E+02  0.10142003562E+03  0.10000000000E+01 0.  0.
<mgrwt>
<rscale>  0 0.12499962E+03</rscale>
<asrwt>0</asrwt>
<pdfrwt beam="1">  1        4 0.77499970E-01 0.12499962E+03</pdfrwt>
<pdfrwt beam="2">  1       -4 0.11929690E-02 0.12499962E+03</pdfrwt>
<totfact> 0.54983166E+03</totfact>
</mgrwt>
</event>
<event>
 5    1  0.3282316E-002  0.1249918E+03  0.7818608E-02  0.1235082E+00
          4   -1    0    0  501    0  0.00000000000E+00  0.00000000000E+00  0.16970248368E+02  0.17017703419E+02  0.12700000000E+01 0. -1.
         -4   -1    0    0    0  501 -0.00000000000E+00 -0.00000000000E+00 -0.22978136280E+03  0.22978487242E+03  0.12700000000E+01 0. -1.
         25    2    1    2    0    0  0.00000000000E+00  0.00000000000E+00 -0.21281111443E+03  0.24680257583E+03  0.12499176378E+03 0.  0.
    9000005    1    3    3    0    0 -0.56350904062E+02 -0.20581308779E+02 -0.14093031485E+03  0.15317104264E+03  0.10000000000E+01 0.  0.
    9000005    1    3    3    0    0  0.56350904062E+02  0.20581308779E+02 -0.71880799588E+02  0.93631533199E+02  0.10000000000E+01 0.  0.
<mgrwt>
<rscale>  0 0.12499176E+03</rscale>
<asrwt>0</asrwt>
<pdfrwt beam="1">  1        4 0.26147280E-02 0.12499176E+03</pdfrwt>
<pdfrwt beam="2">  1       -4 0.35354897E-01 0.12499176E+03</pdfrwt>
<totfact> 0.82809759E+03</totfact>
</mgrwt>
</event>
<event>
 5    1  0.3282316E-002  0.1249989E+03  0.7818608E-02  0.1235071E+00
          4   -1    0    0  501    0  0.00000000000E+00  0.00000000000E+00  0.67921570042E+01  0.69098695191E+01  0.12700000000E+01 0. -1.
         -4   -1    0    0    0  501 -0.00000000000E+00 -0.00000000000E+00 -0.57004237264E+03  0.57004378735E+03  0.12700000000E+01 0. -1.
         25    2    1    2    0    0  0.00000000000E+00  0.00000000000E+00 -0.56325021563E+03  0.57695365687E+03  0.12499886707E+03 0.  0.
    9000005    1    3    3    0    0  0.22967506642E+02  0.13421390381E+02 -0.20623738256E+02  0.33674599638E+02  0.10000000000E+01 0.  0.
    9000005    1    3    3    0    0 -0.22967506642E+02 -0.13421390381E+02 -0.54262647738E+03  0.54327905724E+03  0.10000000000E+01 0.  0.
<mgrwt>
<rscale>  0 0.12499887E+03</rscale>
<asrwt>0</asrwt>
<pdfrwt beam="1">  1        4 0.10541113E-02 0.12499887E+03</pdfrwt>
<pdfrwt beam="2">  1       -4 0.87707953E-01 0.12499887E+03</pdfrwt>
<totfact> 0.50356711E+03</totfact>
</mgrwt>
</event>
<event>
 4    1  0.3282316E-002  0.1226313E+03  0.7818608E-02  0.1238818E+00
         -4   -1    0    0    0  501 -0.00000000000E+00  0.00000000000E+00  0.20810083805E+03  0.20810471330E+03  0.12700000000E+01 0. -1.
          4   -1    0    0  501    0  0.00000000000E+00 -0.00000000000E+00 -0.18039903405E+02  0.18084551829E+02  0.12700000000E+01 0. -1.
    9000005    1    1    2    0    0 -0.14459302828E+02  0.30472924675E+02  0.18945807612E+03  0.19243968713E+03  0.10000000000E+01 0.  0.
    9000005    1    1    2    0    0  0.14459302828E+02 -0.30472924675E+02  0.60285852699E+00  0.33749577997E+02  0.10000000000E+01 0.  0.
<mgrwt>
<rscale>  0 0.12263126E+03</rscale>
<asrwt>0</asrwt>
<pdfrwt beam="2">  1        4 0.27791024E-02 0.12263126E+03</pdfrwt>
<pdfrwt beam="1">  1       -4 0.32019245E-01 0.12263126E+03</pdfrwt>
<totfact> 0.90602108E+03</totfact>
</mgrwt>
</event>
<event>
 5    1  0.3282316E-002  0.1249838E+03  0.7818608E-02  0.1235095E+00
          4   -1    0    0  501    0  0.00000000000E+00  0.00000000000E+00  0.18746278038E+01  0.22643165421E+01  0.12700000000E+01 0. -1.
         -4   -1    0    0    0  501 -0.00000000000E+00 -0.00000000000E+00 -0.18866790861E+04  0.18866795136E+04  0.12700000000E+01 0. -1.
         25    2    1    2    0    0  0.00000000000E+00  0.00000000000E+00 -0.18848044583E+04  0.18889438301E+04  0.12498378778E+03 0.  0.
    9000005    1    3    3    0    0 -0.23678698948E+02  0.19874250291E+02 -0.17630770274E+04  0.17633483125E+04  0.10000000000E+01 0.  0.
    9000005    1    3    3    0    0  0.23678698948E+02 -0.19874250291E+02 -0.12172743094E+03  0.12559551764E+03  0.10000000000E+01 0.  0.
<mgrwt>
<rscale>  0 0.12498379E+03</rscale>
<asrwt>0</asrwt>
<pdfrwt beam="1">  1        4 0.31841472E-03 0.12498379E+03</pdfrwt>
<pdfrwt beam="2">  1       -4 0.29028695E+00 0.12498379E+03</pdfrwt>
<totfact> 0.11385432E+03</totfact>
</mgrwt>
</event>
<event>
 5    1  0.3282316E-002  0.1249997E+03  0.7818608E-02  0.1235070E+00
          4   -1    0    0  501    0  0.00000000000E+00  0.00000000000E+00  0.17287492842E+02  0.17334079403E+02  0.12700000000E+01 0.  1.
         -4   -1    0    0    0  501 -0.00000000000E+00 -0.00000000000E+00 -0.22560474728E+03  0.22560832187E+03  0.12700000000E+01 0.  1.
         25    2    1    2    0    0  0.00000000000E+00  0.00000000000E+00 -0.20831725444E+03  0.24294240127E+03  0.12499972735E+03 0.  0.
    9000005    1    3    3    0    0 -0.47592294555E+01  0.57504953575E+02 -0.57523181312E+02  0.81482429633E+02  0.10000000000E+01 0.  0.
    9000005    1    3    3    0    0  0.47592294555E+01 -0.57504953575E+02 -0.15079407313E+03  0.16145997164E+03  0.10000000000E+01 0.  0.
<mgrwt>
<rscale>  0 0.12499973E+03</rscale>
<asrwt>0</asrwt>
<pdfrwt beam="1">  1        4 0.26634730E-02 0.12499973E+03</pdfrwt>
<pdfrwt beam="2">  1       -4 0.34712279E-01 0.12499973E+03</pdfrwt>
<totfact> 0.83361599E+03</totfact>
</mgrwt>
</event>
<event>
 5    1  0.3282316E-002  0.1249999E+03  0.7818608E-02  0.1235069E+00
         -4   -1    0    0    0  501 -0.00000000000E+00  0.00000000000E+00  0.74024091539E+01  0.75105633132E+01  0.12700000000E+01 0.  1.
          4   -1    0    0  501    0  0.00000000000E+00 -0.00000000000E+00 -0.52376304953E+03  0.52376458925E+03  0.12700000000E+01 0.  1.
         25    2    1    2    0    0  0.00000000000E+00  0.00000000000E+00 -0.51636064037E+03  0.53127515256E+03  0.12499990721E+03 0.  0.
    9000005    1    3    3    0    0  0.35585392508E+02  0.51367080136E+02 -0.25567623577E+03  0.26320378914E+03  0.10000000000E+01 0.  0.
    9000005    1    3    3    0    0 -0.35585392508E+02 -0.51367080136E+02 -0.26068440461E+03  0.26807136342E+03  0.10000000000E+01 0.  0.
<mgrwt>
<rscale>  0 0.12499991E+03</rscale>
<asrwt>0</asrwt>
<pdfrwt beam="2">  1        4 0.80587340E-01 0.12499991E+03</pdfrwt>
<pdfrwt beam="1">  1       -4 0.11472706E-02 0.12499991E+03</pdfrwt>
<totfact> 0.53517029E+03</totfact>
</mgrwt>
</event>
<event>
 5    1  0.3282316E-002  0.1250023E+03  0.7818608E-02  0.1235066E+00
         -4   -1    0    0    0  501 -0.00000000000E+00  0.00000000000E+00  0.99191202516E+01  0.10000092328E+02  0.12700000000E+01 0. -1.
          4   -1    0    0  501    0  0.00000000000E+00 -0.00000000000E+00 -0.39214170202E+03  0.39214375854E+03  0.12700000000E+01 0. -1.
         25    2    1    2    0    0  0.00000000000E+00  0.00000000000E+00 -0.38222258176E+03  0.40214385086E+03  0.12500229909E+03 0.  0.
    9000005    1    3    3    0    0 -0.36002285866E+02  0.45034557229E+02 -0.11355884371E+03  0.12736124574E+03  0.10000000000E+01 0.  0.
    9000005    1    3    3    0    0  0.36002285866E+02 -0.45034557229E+02 -0.26866373806E+03  0.27478260512E+03  0.10000000000E+01 0.  0.
<mgrwt>
<rscale>  0 0.12500230E+03</rscale>
<asrwt>0</asrwt>
<pdfrwt beam="2">  1        4 0.60335868E-01 0.12500230E+03</pdfrwt>
<pdfrwt beam="1">  1       -4 0.15324056E-02 0.12500230E+03</pdfrwt>
<totfact> 0.64341554E+03</totfact>
</mgrwt>
</event>
<event>
 5    1  0.3282316E-002  0.1250070E+03  0.7818608E-02  0.1235058E+00
         -4   -1    0    0    0  501 -0.00000000000E+00  0.00000000000E+00  0.29094549308E+02  0.29122254368E+02  0.12700000000E+01 0. -1.
          4   -1    0    0  501    0  0.00000000000E+00 -0.00000000000E+00 -0.13418095734E+03  0.13418696737E+03  0.12700000000E+01 0. -1.
         25    2    1    2    0    0  0.00000000000E+00  0.00000000000E+00 -0.10508640803E+03  0.16330922174E+03  0.12500699481E+03 0.  0.
    9000005    1    3    3    0    0  0.41545783263E+02 -0.29063807926E+02 -0.48116399751E+01  0.50940248501E+02  0.10000000000E+01 0.  0.
    9000005    1    3    3    0    0 -0.41545783263E+02  0.29063807926E+02 -0.10027476805E+03  0.11236897324E+03  0.10000000000E+01 0.  0.
<mgrwt>
<rscale>  0 0.12500699E+03</rscale>
<asrwt>0</asrwt>
<pdfrwt beam="2">  1        4 0.20645817E-01 0.12500699E+03</pdfrwt>
<pdfrwt beam="1">  1       -4 0.44786781E-02 0.12500699E+03</pdfrwt>
<totfact> 0.96693363E+03</totfact>
</mgrwt>
</event>
<event>
 5    1  0.3282316E-002  0.1249988E+03  0.7818608E-02  0.1235071E+00
          4   -1    0    0  501    0  0.00000000000E+00  0.00000000000E+00  0.15733979440E+02  0.15785151536E+02  0.12700000000E+01 0.  1.
         -4   -1    0    0    0  501 -0.00000000000E+00 -0.00000000000E+00 -0.24780786148E+03  0.24781111580E+03  0.12700000000E+01 0.  1.
         25    2    1    2    0    0  0.00000000000E+00  0.00000000000E+00 -0.23207388204E+03  0.26359626733E+03  0.12499882170E+03 0.  0.
    9000005    1    3    3    0    0 -0.12821562036E+02 -0.60734783190E+02 -0.13125387602E+03  0.14519533846E+03  0.10000000000E+01 0.  0.
    9000005    1    3    3    0    0  0.12821562036E+02  0.60734783190E+02 -0.10082000603E+03  0.11840092887E+03  0.10000000000E+01 0.  0.
<mgrwt>
<rscale>  0 0.12499882E+03</rscale>
<asrwt>0</asrwt>
<pdfrwt beam="1">  1        4 0.24247990E-02 0.12499882E+03</pdfrwt>
<pdfrwt beam="2">  1       -4 0.38128470E-01 0.12499882E+03</pdfrwt>
<totfact> 0.80406120E+03</totfact>
</mgrwt>
</event>
<event>
 5    1  0.3282316E-002  0.1249978E+03  0.7818608E-02  0.1235073E+00
          4   -1    0    0  501    0  0.00000000000E+00  0.00000000000E+00  0.83339455769E+03  0.83339552536E+03  0.12700000000E+01 0.  1.
         -4   -1    0    0    0  501 -0.00000000000E+00 -0.00000000000E+00 -0.45999680873E+01  0.47720652137E+01  0.12700000000E+01 0.  1.
         25    2    1    2    0    0  0.00000000000E+00  0.00000000000E+00  0.82879458960E+03  0.83816759057E+03  0.12499775250E+03 0.  0.
    9000005    1    3    3    0    0 -0.27304915384E+02 -0.55372717885E+02  0.47920593117E+03  0.48316769424E+03  0.10000000000E+01 0.  0.
    9000005    1    3    3    0    0  0.27304915384E+02  0.55372717885E+02  0.34958865844E+03  0.35499989633E+03  0.10000000000E+01 0.  0.
<mgrwt>
<rscale>  0 0.12499775E+03</rscale>
<asrwt>0</asrwt>
<pdfrwt beam="1">  1        4 0.12822788E+00 0.12499775E+03</pdfrwt>
<pdfrwt beam="2">  1       -4 0.72099995E-03 0.12499775E+03</pdfrwt>
<totfact> 0.36618260E+03</totfact>
</mgrwt>
</event>
<event>
 5    1  0.3282316E-002  0.1249996E+03  0.7818608E-02  0.1235070E+00
         -4   -1    0    0    0  501 -0.00000000000E+00  0.00000000000E+00  0.11488447794E+03  0.11489149738E+03  0.12700000000E+01 0. -1.
          4   -1    0    0  501    0  0.00000000000E+00 -0.00000000000E+00 -0.33981382420E+02  0.34005106252E+02  0.12700000000E+01 0. -1.
         25    2    1    2    0    0  0.00000000000E+00  0.00000000000E+00  0.80903095518E+02  0.14889660364E+03  0.12499955084E+03 0.  0.
    9000005    1    3    3    0    0 -0.14935872666E+02  0.48750099777E+00 -0.31827524269E+02  0.35175406900E+02  0.10000000000E+01 0.  0.
    9000005    1    3    3    0    0  0.14935872666E+02 -0.48750099777E+00  0.11273061979E+03  0.11372119674E+03  0.10000000000E+01 0.  0.
<mgrwt>
<rscale>  0 0.12499955E+03</rscale>
<asrwt>0</asrwt>
<pdfrwt beam="2">  1        4 0.52302698E-02 0.12499955E+03</pdfrwt>
<pdfrwt beam="1">  1       -4 0.17676900E-01 0.12499955E+03</pdfrwt>
<totfact> 0.99525105E+03</totfact>
</mgrwt>
</event>
<event>
 5    1  0.3282316E-002  0.1250002E+03  0.7818608E-02  0.1235069E+00
          4   -1    0    0  501    0  0.00000000000E+00  0.00000000000E+00  0.55774187618E+02  0.55788644942E+02  0.12700000000E+01 0. -1.
         -4   -1    0    0    0  501 -0.00000000000E+00 -0.00000000000E+00 -0.70007792675E+02  0.70019311159E+02  0.12700000000E+01 0. -1.
         25    2    1    2    0    0  0.00000000000E+00  0.00000000000E+00 -0.14233605056E+02  0.12580795610E+03  0.12500018522E+03 0.  0.
    9000005    1    3    3    0    0  0.27175615020E+02 -0.48748069793E+02 -0.35412053967E+02  0.66105233730E+02  0.10000000000E+01 0.  0.
    9000005    1    3    3    0    0 -0.27175615020E+02  0.48748069793E+02  0.21178448911E+02  0.59702722371E+02  0.10000000000E+01 0.  0.
<mgrwt>
<rscale>  0 0.12500019E+03</rscale>
<asrwt>0</asrwt>
<pdfrwt beam="1">  1        4 0.85826423E-02 0.12500019E+03</pdfrwt>
<pdfrwt beam="2">  1       -4 0.10772428E-01 0.12500019E+03</pdfrwt>
<totfact> 0.10435127E+04</totfact>
</mgrwt>
</event>
<event>
 5    1  0.3282316E-002  0.1250027E+03  0.7818608E-02  0.1235065E+00
         -4   -1    0    0    0  501 -0.00000000000E+00  0.00000000000E+00  0.42121190856E+03  0.42121382315E+03  0.12700000000E+01 0.  1.
          4   -1    0    0  501    0  0.00000000000E+00 -0.00000000000E+00 -0.92288201658E+01  0.93157942041E+01  0.12700000000E+01 0.  1.
         25    2    1    2    0    0  0.00000000000E+00  0.00000000000E+00  0.41198308840E+03  0.43052961736E+03  0.12500274516E+03 0.  0.
    9000005    1    3    3    0    0 -0.51120568338E+02  0.31511336526E+02  0.14642201523E+03  0.15826143997E+03  0.10000000000E+01 0.  0.
    9000005    1    3    3    0    0  0.51120568338E+02 -0.31511336526E+02  0.26556107317E+03  0.27226817739E+03  0.10000000000E+01 0.  0.
<mgrwt>
<rscale>  0 0.12500275E+03</rscale>
<asrwt>0</asrwt>
<pdfrwt beam="2">  1        4 0.14266560E-02 0.12500275E+03</pdfrwt>
<pdfrwt beam="1">  1       -4 0.64808675E-01 0.12500275E+03</pdfrwt>
<totfact> 0.61684276E+03</totfact>
</mgrwt>
</event>
<event>
 5    1  0.3282316E-002  0.1249967E+03  0.7818608E-02  0.1235074E+00
          4   -1    0    0  501    0  0.00000000000E+00  0.00000000000E+00  0.24069571221E+01  0.27214596429E+01  0.12700000000E+01 0.  1.
         -4   -1    0    0    0  501 -0.00000000000E+00 -0.00000000000E+00 -0.15229801328E+04  0.15229806623E+04  0.12700000000E+01 0.  1.
         25    2    1    2    0    0  0.00000000000E+00  0.00000000000E+00 -0.15205731757E+04  0.15257021220E+04  0.12499672945E+03 0.  0.
    9000005    1    3    3    0    0 -0.53971530764E+02  0.43917493826E+01 -0.37958032278E+03  0.38342461454E+03  0.10000000000E+01 0.  0.
    9000005    1    3    3    0    0  0.53971530764E+02 -0.43917493826E+01 -0.11409928529E+04  0.11422775074E+04  0.10000000000E+01 0.  0.
<mgrwt>
<rscale>  0 0.12499673E+03</rscale>
<asrwt>0</asrwt>
<pdfrwt beam="1">  1        4 0.39453555E-03 0.12499673E+03</pdfrwt>
<pdfrwt beam="2">  1       -4 0.23432815E+00 0.12499673E+03</pdfrwt>
<totfact> 0.17431995E+03</totfact>
</mgrwt>
</event>
<event>
 5    1  0.3282316E-002  0.1249738E+03  0.7818608E-02  0.1235110E+00
          4   -1    0    0  501    0  0.00000000000E+00  0.00000000000E+00  0.75018316391E+02  0.75029065662E+02  0.12700000000E+01 0. -1.
         -4   -1    0    0    0  501 -0.00000000000E+00 -0.00000000000E+00 -0.52026573251E+02  0.52042071675E+02  0.12700000000E+01 0. -1.
         25    2    1    2    0    0  0.00000000000E+00  0.00000000000E+00  0.22991743141E+02  0.12707113734E+03  0.12497381202E+03 0.  0.
    9000005    1    3    3    0    0 -0.25254181625E+01  0.27955983110E+02 -0.45259324202E+02  0.53266510640E+02  0.10000000000E+01 0.  0.
    9000005    1    3    3    0    0  0.25254181625E+01 -0.27955983110E+02  0.68251067343E+02  0.73804626697E+02  0.10000000000E+01 0.  0.
<mgrwt>
<rscale>  0 0.12497381E+03</rscale>
<asrwt>0</asrwt>
<pdfrwt beam="1">  1        4 0.11543298E-01 0.12497381E+03</pdfrwt>
<pdfrwt beam="2">  1       -4 0.80061073E-02 0.12497381E+03</pdfrwt>
<totfact> 0.10413755E+04</totfact>
</mgrwt>
</event>
<event>
 5    1  0.3282316E-002  0.1249975E+03  0.7818608E-02  0.1235073E+00
         -4   -1    0    0    0  501 -0.00000000000E+00  0.00000000000E+00  0.16861625875E+01  0.21109344546E+01  0.12700000000E+01 0. -1.
          4   -1    0    0  501    0  0.00000000000E+00 -0.00000000000E+00 -0.20569868346E+04  0.20569872267E+04  0.12700000000E+01 0. -1.
         25    2    1    2    0    0  0.00000000000E+00  0.00000000000E+00 -0.20553006720E+04  0.20590981611E+04  0.12499753880E+03 0.  0.
    9000005    1    3    3    0    0 -0.27569509647E+02 -0.56015013127E+02 -0.10722697194E+04  0.10740861747E+04  0.10000000000E+01 0.  0.
    9000005    1    3    3    0    0  0.27569509647E+02  0.56015013127E+02 -0.98303095267E+03  0.98501198646E+03  0.10000000000E+01 0.  0.
<mgrwt>
<rscale>  0 0.12499754E+03</rscale>
<asrwt>0</asrwt>
<pdfrwt beam="2">  1        4 0.31649044E+00 0.12499754E+03</pdfrwt>
<pdfrwt beam="1">  1       -4 0.29211619E-03 0.12499754E+03</pdfrwt>
<totfact> 0.91101193E+02</totfact>
</mgrwt>
</event>
<event>
 5    1  0.3282316E-002  0.1249996E+03  0.7818608E-02  0.1235070E+00
          4   -1    0    0  501    0  0.00000000000E+00  0.00000000000E+00  0.34473456306E+03  0.34473690238E+03  0.12700000000E+01 0. -1.
         -4   -1    0    0    0  501 -0.00000000000E+00 -0.00000000000E+00 -0.11293140232E+02  0.11364326478E+02  0.12700000000E+01 0. -1.
         25    2    1    2    0    0  0.00000000000E+00  0.00000000000E+00  0.33344142282E+03  0.35610122886E+03  0.12499961097E+03 0.  0.
    9000005    1    3    3    0    0  0.61558062392E+02 -0.95004614365E+01  0.18112679985E+03  0.19153999957E+03  0.10000000000E+01 0.  0.
    9000005    1    3    3    0    0 -0.61558062392E+02  0.95004614365E+01  0.15231462298E+03  0.16456122929E+03  0.10000000000E+01 0.  0.
<mgrwt>
<rscale>  0 0.12499961E+03</rscale>
<asrwt>0</asrwt>
<pdfrwt beam="1">  1        4 0.53041745E-01 0.12499961E+03</pdfrwt>
<pdfrwt beam="2">  1       -4 0.17430619E-02 0.12499961E+03</pdfrwt>
<totfact> 0.69059111E+03</totfact>
</mgrwt>
</event>
<event>
 5    1  0.3282316E-002  0.1249973E+03  0.7818608E-02  0.1235073E+00
          4   -1    0    0  501    0  0.00000000000E+00  0.00000000000E+00  0.15732990816E+03  0.15733503393E+03  0.12700000000E+01 0. -1.
         -4   -1    0    0    0  501 -0.00000000000E+00 -0.00000000000E+00 -0.24805556897E+02  0.24838046481E+02  0.12700000000E+01 0. -1.
         25    2    1    2    0    0  0.00000000000E+00  0.00000000000E+00  0.13252435127E+03  0.18217308041E+03  0.12499731017E+03 0.  0.
    9000005    1    3    3    0    0 -0.31700614843E+02 -0.55232449632E+01  0.14433461480E+03  0.14788142631E+03  0.10000000000E+01 0.  0.
    9000005    1    3    3    0    0  0.31700614843E+02  0.55232449632E+01 -0.11810263540E+02  0.34291654104E+02  0.10000000000E+01 0.  0.
<mgrwt>
<rscale>  0 0.12499731E+03</rscale>
<asrwt>0</asrwt>
<pdfrwt beam="1">  1        4 0.24207495E-01 0.12499731E+03</pdfrwt>
<pdfrwt beam="2">  1       -4 0.38191330E-02 0.12499731E+03</pdfrwt>
<totfact> 0.93232919E+03</totfact>
</mgrwt>
</event>
<event>
 5    1  0.3282316E-002  0.1250153E+03  0.7818608E-02  0.1235045E+00
         -4   -1    0    0    0  501 -0.00000000000E+00  0.00000000000E+00  0.20031018455E+03  0.20031421052E+03  0.12700000000E+01 0.  1.
          4   -1    0    0  501    0  0.00000000000E+00 -0.00000000000E+00 -0.19480891323E+02  0.19522244409E+02  0.12700000000E+01 0.  1.
         25    2    1    2    0    0  0.00000000000E+00  0.00000000000E+00  0.18082929323E+03  0.21983645492E+03  0.12501533356E+03 0.  0.
    9000005    1    3    3    0    0 -0.50167948110E+02  0.26327260743E+02  0.44014176713E+02  0.71750926318E+02  0.10000000000E+01 0.  0.
    9000005    1    3    3    0    0  0.50167948110E+02 -0.26327260743E+02  0.13681511651E+03  0.14808552861E+03  0.10000000000E+01 0.  0.
<mgrwt>
<rscale>  0 0.12501533E+03</rscale>
<asrwt>0</asrwt>
<pdfrwt beam="2">  1        4 0.30005510E-02 0.12501533E+03</pdfrwt>
<pdfrwt beam="1">  1       -4 0.30820441E-01 0.12501533E+03</pdfrwt>
<totfact> 0.86864480E+03</totfact>
</mgrwt>
</event>
<event>
 5    1  0.3282316E-002  0.1250035E+03  0.7818608E-02  0.1235064E+00
          4   -1    0    0  501    0  0.00000000000E+00  0.00000000000E+00  0.74909958108E+02  0.74920722926E+02  0.12700000000E+01 0. -1.
         -4   -1    0    0    0  501 -0.00000000000E+00 -0.00000000000E+00 -0.52126593602E+02  0.52142062296E+02  0.12700000000E+01 0. -1.
         25    2    1    2    0    0  0.00000000000E+00  0.00000000000E+00  0.22783364507E+02  0.12706278522E+03  0.12500347871E+03 0.  0.
    9000005    1    3    3    0    0 -0.32262395022E+02  0.19686399292E+02 -0.39198208730E+02  0.54460224176E+02  0.10000000000E+01 0.  0.
    9000005    1    3    3    0    0  0.32262395022E+02 -0.19686399292E+02  0.61981573237E+02  0.72602561047E+02  0.10000000000E+01 0.  0.
<mgrwt>
<rscale>  0 0.12500348E+03</rscale>
<asrwt>0</asrwt>
<pdfrwt beam="1">  1        4 0.11526627E-01 0.12500348E+03</pdfrwt>
<pdfrwt beam="2">  1       -4 0.80214939E-02 0.12500348E+03</pdfrwt>
<totfact> 0.10406965E+04</totfact>
</mgrwt>
</event>
<event>
 5    1  0.3282316E-002  0.1250009E+03  0.7818608E-02  0.1235068E+00
         -4   -1    0    0    0  501 -0.00000000000E+00  0.00000000000E+00  0.27457476690E+02  0.27486831868E+02  0.12700000000E+01 0. -1.
          4   -1    0    0  501    0  0.00000000000E+00 -0.00000000000E+00 -0.14215922580E+03  0.14216489855E+03  0.12700000000E+01 0. -1.
         25    2    1    2    0    0  0.00000000000E+00  0.00000000000E+00 -0.11470174911E+03  0.16965173042E+03  0.12500087354E+03 0.  0.
    9000005    1    3    3    0    0 -0.49878042928E+02  0.37649507220E+02 -0.57359029404E+02  0.84831378713E+02  0.10000000000E+01 0.  0.
    9000005    1    3    3    0    0  0.49878042928E+02 -0.37649507220E+02 -0.57342719705E+02  0.84820351705E+02  0.10000000000E+01 0.  0.
<mgrwt>
<rscale>  0 0.12500087E+03</rscale>
<asrwt>0</asrwt>
<pdfrwt beam="2">  1        4 0.21873344E-01 0.12500087E+03</pdfrwt>
<pdfrwt beam="1">  1       -4 0.42269217E-02 0.12500087E+03</pdfrwt>
<totfact> 0.95511716E+03</totfact>
</mgrwt>
</event>
<event>
 5    1  0.3282316E-002  0.1250039E+03  0.7818608E-02  0.1235063E+00
          4   -1    0    0  501    0  0.00000000000E+00  0.00000000000E+00  0.13164703836E+02  0.13225820470E+02  0.12700000000E+01 0. -1.
         -4   -1    0    0    0  501 -0.00000000000E+00 -0.00000000000E+00 -0.29599005811E+03  0.29599278268E+03  0.12700000000E+01 0. -1.
         25    2    1    2    0    0  0.00000000000E+00  0.00000000000E+00 -0.28282535427E+03  0.30921860315E+03  0.12500385400E+03 0.  0.
    9000005    1    3    3    0    0  0.35813033393E+02  0.16464407863E+01 -0.14790437278E+02  0.38794860007E+02  0.10000000000E+01 0.  0.
    9000005    1    3    3    0    0 -0.35813033393E+02 -0.16464407863E+01 -0.26803491699E+03  0.27042374314E+03  0.10000000000E+01 0.  0.
<mgrwt>
<rscale>  0 0.12500385E+03</rscale>
<asrwt>0</asrwt>
<pdfrwt beam="1">  1        4 0.20302501E-02 0.12500385E+03</pdfrwt>
<pdfrwt beam="2">  1       -4 0.45541838E-01 0.12500385E+03</pdfrwt>
<totfact> 0.74450471E+03</totfact>
</mgrwt>
</event>
<event>
 5    1  0.3282316E-002  0.1250001E+03  0.7818608E-02  0.1235069E+00
         -4   -1    0    0    0  501 -0.00000000000E+00  0.00000000000E+00  0.14222560437E+03  0.14223127448E+03  0.12700000000E+01 0.  1.
          4   -1    0    0  501    0  0.00000000000E+00 -0.00000000000E+00 -0.27444314126E+02  0.27473683369E+02  0.12700000000E+01 0.  1.
         25    2    1    2    0    0  0.00000000000E+00  0.00000000000E+00  0.11478129025E+03  0.16970495784E+03  0.12500011251E+03 0.  0.
    9000005    1    3    3    0    0  0.48826485247E+02  0.30785219835E+02  0.24878064141E+02  0.62862337669E+02  0.10000000000E+01 0.  0.
    9000005    1    3    3    0    0 -0.48826485247E+02 -0.30785219835E+02  0.89903226105E+02  0.10684262018E+03  0.10000000000E+01 0.  0.
<mgrwt>
<rscale>  0 0.12500011E+03</rscale>
<asrwt>0</asrwt>
<pdfrwt beam="2">  1        4 0.42248975E-02 0.12500011E+03</pdfrwt>
<pdfrwt beam="1">  1       -4 0.21883557E-01 0.12500011E+03</pdfrwt>
<totfact> 0.95503416E+03</totfact>
</mgrwt>
</event>
<event>
 5    1  0.3282316E-002  0.1250213E+03  0.7818608E-02  0.1235036E+00
          4   -1    0    0  501    0  0.00000000000E+00  0.00000000000E+00  0.20843993322E+02  0.20882647285E+02  0.12700000000E+01 0. -1.
         -4   -1    0    0    0  501 -0.00000000000E+00 -0.00000000000E+00 -0.18725339920E+03  0.18725770588E+03  0.12700000000E+01 0. -1.
         25    2    1    2    0    0  0.00000000000E+00  0.00000000000E+00 -0.16640940588E+03  0.20814035316E+03  0.12502126320E+03 0.  0.
    9000005    1    3    3    0    0 -0.31310256134E+02  0.53574738132E+02 -0.70746811612E+02  0.94110021031E+02  0.10000000000E+01 0.  0.
    9000005    1    3    3    0    0  0.31310256134E+02 -0.53574738132E+02 -0.95662594263E+02  0.11403033213E+03  0.10000000000E+01 0.  0.
<mgrwt>
<rscale>  0 0.12502126E+03</rscale>
<asrwt>0</asrwt>
<pdfrwt beam="1">  1        4 0.32100730E-02 0.12502126E+03</pdfrwt>
<pdfrwt beam="2">  1       -4 0.28811519E-01 0.12502126E+03</pdfrwt>
<totfact> 0.88738291E+03</totfact>
</mgrwt>
</event>
<event>
 4    1  0.3282316E-002  0.1249154E+03  0.7818608E-02  0.1235202E+00
         -4   -1    0    0    0  501 -0.00000000000E+00  0.00000000000E+00  0.21721116785E+02  0.21758212573E+02  0.12700000000E+01 0.  1.
          4   -1    0    0  501    0  0.00000000000E+00 -0.00000000000E+00 -0.17940062824E+03  0.17940512343E+03  0.12700000000E+01 0.  1.
    9000005    1    1    2    0    0 -0.46949114327E+02  0.24657380343E+02 -0.25726957834E+02  0.58949826979E+02  0.10000000000E+01 0.  0.
    9000005    1    1    2    0    0  0.46949114327E+02 -0.24657380343E+02 -0.13195255362E+03  0.14221350902E+03  0.10000000000E+01 0.  0.
<mgrwt>
<rscale>  0 0.12491541E+03</rscale>
<asrwt>0</asrwt>
<pdfrwt beam="2">  1        4 0.27603295E-01 0.12491541E+03</pdfrwt>
<pdfrwt beam="1">  1       -4 0.33449097E-02 0.12491541E+03</pdfrwt>
<totfact> 0.90110113E+03</totfact>
</mgrwt>
</event>
<event>
 5    1  0.3282316E-002  0.1249976E+03  0.7818608E-02  0.1235073E+00
          4   -1    0    0  501    0  0.00000000000E+00  0.00000000000E+00  0.19485811882E+02  0.19527154547E+02  0.12700000000E+01 0.  1.
         -4   -1    0    0    0  501 -0.00000000000E+00 -0.00000000000E+00 -0.20020284813E+03  0.20020687625E+03  0.12700000000E+01 0.  1.
         25    2    1    2    0    0  0.00000000000E+00  0.00000000000E+00 -0.18071703625E+03  0.21973403080E+03  0.12499758838E+03 0.  0.
    9000005    1    3    3    0    0 -0.16403278361E+02 -0.50271273230E+02 -0.14889523129E+03  0.15800967804E+03  0.10000000000E+01 0.  0.
    9000005    1    3    3    0    0  0.16403278361E+02  0.50271273230E+02 -0.31821804960E+02  0.61724352763E+02  0.10000000000E+01 0.  0.
<mgrwt>
<rscale>  0 0.12499759E+03</rscale>
<asrwt>0</asrwt>
<pdfrwt beam="1">  1        4 0.30013074E-02 0.12499759E+03</pdfrwt>
<pdfrwt beam="2">  1       -4 0.30803927E-01 0.12499759E+03</pdfrwt>
<totfact> 0.86915136E+03</totfact>
</mgrwt>
</event>
<event>
 5    1  0.3282316E-002  0.1249993E+03  0.7818608E-02  0.1235070E+00
          4   -1    0    0  501    0  0.00000000000E+00  0.00000000000E+00  0.13576969520E+02  0.13636238534E+02  0.12700000000E+01 0. -1.
         -4   -1    0    0    0  501 -0.00000000000E+00 -0.00000000000E+00 -0.28702117028E+03  0.28702397999E+03  0.12700000000E+01 0. -1.
         25    2    1    2    0    0  0.00000000000E+00  0.00000000000E+00 -0.27344420076E+03  0.30066021852E+03  0.12499934429E+03 0.  0.
    9000005    1    3    3    0    0 -0.12897313658E+02 -0.14909913652E+01  0.10308986992E+02  0.16608400514E+02  0.10000000000E+01 0.  0.
    9000005    1    3    3    0    0  0.12897313658E+02  0.14909913652E+01 -0.28375318775E+03  0.28405181801E+03  0.10000000000E+01 0.  0.
<mgrwt>
<rscale>  0 0.12499934E+03</rscale>
<asrwt>0</asrwt>
<pdfrwt beam="1">  1        4 0.20935400E-02 0.12499934E+03</pdfrwt>
<pdfrwt beam="2">  1       -4 0.44161874E-01 0.12499934E+03</pdfrwt>
<totfact> 0.75517198E+03</totfact>
</mgrwt>
</event>
<event>
 5    1  0.3282316E-002  0.1250005E+03  0.7818608E-02  0.1235069E+00
         -4   -1    0    0    0  501 -0.00000000000E+00  0.00000000000E+00  0.37571357164E+03  0.37571571808E+03  0.12700000000E+01 0. -1.
          4   -1    0    0  501    0  0.00000000000E+00 -0.00000000000E+00 -0.10355995871E+02  0.10433578028E+02  0.12700000000E+01 0. -1.
         25    2    1    2    0    0  0.00000000000E+00  0.00000000000E+00  0.36535757577E+03  0.38614929611E+03  0.12500048286E+03 0.  0.
    9000005    1    3    3    0    0 -0.53589915649E+02 -0.28661014532E+02  0.13770519665E+03  0.15052260294E+03  0.10000000000E+01 0.  0.
    9000005    1    3    3    0    0  0.53589915649E+02  0.28661014532E+02  0.22765237912E+03  0.23562669317E+03  0.10000000000E+01 0.  0.
<mgrwt>
<rscale>  0 0.12500048E+03</rscale>
<asrwt>0</asrwt>
<pdfrwt beam="2">  1        4 0.15993628E-02 0.12500048E+03</pdfrwt>
<pdfrwt beam="1">  1       -4 0.57808231E-01 0.12500048E+03</pdfrwt>
<totfact> 0.65921848E+03</totfact>
</mgrwt>
</event>
<event>
 5    1  0.3282316E-002  0.1249995E+03  0.7818608E-02  0.1235070E+00
         -4   -1    0    0    0  501 -0.00000000000E+00  0.00000000000E+00  0.17392336024E+03  0.17392799699E+03  0.12700000000E+01 0. -1.
          4   -1    0    0  501    0  0.00000000000E+00 -0.00000000000E+00 -0.22436520728E+02  0.22472435613E+02  0.12700000000E+01 0. -1.
         25    2    1    2    0    0  0.00000000000E+00  0.00000000000E+00  0.15148683951E+03  0.19640043260E+03  0.12499946952E+03 0.  0.
    9000005    1    3    3    0    0 -0.84172378717E+01 -0.58240468169E+02  0.10879171814E+03  0.12369090493E+03  0.10000000000E+01 0.  0.
    9000005    1    3    3    0    0  0.84172378717E+01  0.58240468169E+02  0.42695121371E+02  0.72709527676E+02  0.10000000000E+01 0.  0.
<mgrwt>
<rscale>  0 0.12499947E+03</rscale>
<asrwt>0</asrwt>
<pdfrwt beam="2">  1        4 0.34548918E-02 0.12499947E+03</pdfrwt>
<pdfrwt beam="1">  1       -4 0.26760559E-01 0.12499947E+03</pdfrwt>
<totfact> 0.90746510E+03</totfact>
</mgrwt>
</event>
<event>
 5    1  0.3282316E-002  0.1249969E+03  0.7818608E-02  0.1235074E+00
         -4   -1    0    0    0  501 -0.00000000000E+00  0.00000000000E+00  0.38052927200E+03  0.38053139128E+03  0.12700000000E+01 0.  1.
          4   -1    0    0  501    0  0.00000000000E+00 -0.00000000000E+00 -0.10223352272E+02  0.10301933395E+02  0.12700000000E+01 0.  1.
         25    2    1    2    0    0  0.00000000000E+00  0.00000000000E+00  0.37030591973E+03  0.39083332467E+03  0.12499685392E+03 0.  0.
    9000005    1    3    3    0    0  0.60024087604E+02 -0.39897007766E+01  0.23805362484E+03  0.24553887086E+03  0.10000000000E+01 0.  0.
    9000005    1    3    3    0    0 -0.60024087604E+02  0.39897007766E+01  0.13225229489E+03  0.14529445381E+03  0.10000000000E+01 0.  0.
<mgrwt>
<rscale>  0 0.12499685E+03</rscale>
<asrwt>0</asrwt>
<pdfrwt beam="2">  1        4 0.15790314E-02 0.12499685E+03</pdfrwt>
<pdfrwt beam="1">  1       -4 0.58549163E-01 0.12499685E+03</pdfrwt>
<totfact> 0.65458753E+03</totfact>
</mgrwt>
</event>
<event>
 5    1  0.3282316E-002  0.1249999E+03  0.7818608E-02  0.1235069E+00
         -4   -1    0    0    0  501 -0.00000000000E+00  0.00000000000E+00  0.10130677666E+03  0.10131473682E+03  0.12700000000E+01 0. -1.
          4   -1    0    0  501    0  0.00000000000E+00 -0.00000000000E+00 -0.38538611286E+02  0.38559531375E+02  0.12700000000E+01 0. -1.
         25    2    1    2    0    0  0.00000000000E+00  0.00000000000E+00  0.62768165370E+02  0.13987426819E+03  0.12499987327E+03 0.  0.
    9000005    1    3    3    0    0  0.45271578318E+02 -0.37674039143E+02  0.54759919553E+02  0.80426971957E+02  0.10000000000E+01 0.  0.
    9000005    1    3    3    0    0 -0.45271578318E+02  0.37674039143E+02  0.80082458167E+01  0.59447296236E+02  0.10000000000E+01 0.  0.
<mgrwt>
<rscale>  0 0.12499987E+03</rscale>
<asrwt>0</asrwt>
<pdfrwt beam="2">  1        4 0.59312388E-02 0.12499987E+03</pdfrwt>
<pdfrwt beam="1">  1       -4 0.15587879E-01 0.12499987E+03</pdfrwt>
<totfact> 0.10136221E+04</totfact>
</mgrwt>
</event>
<event>
 5    1  0.3282316E-002  0.1250020E+03  0.7818608E-02  0.1235066E+00
          4   -1    0    0  501    0  0.00000000000E+00  0.00000000000E+00  0.92944824490E+01  0.93808477227E+01  0.12700000000E+01 0. -1.
         -4   -1    0    0    0  501 -0.00000000000E+00 -0.00000000000E+00 -0.41825875898E+03  0.41826068709E+03  0.12700000000E+01 0. -1.
         25    2    1    2    0    0  0.00000000000E+00  0.00000000000E+00 -0.40896427653E+03  0.42764153481E+03  0.12500201125E+03 0.  0.
    9000005    1    3    3    0    0 -0.39090549577E+02 -0.47369299323E+02 -0.16496105216E+03  0.17602576605E+03  0.10000000000E+01 0.  0.
    9000005    1    3    3    0    0  0.39090549577E+02  0.47369299323E+02 -0.24400322438E+03  0.25161576876E+03  0.10000000000E+01 0.  0.
<mgrwt>
<rscale>  0 0.12500201E+03</rscale>
<asrwt>0</asrwt>
<pdfrwt beam="1">  1        4 0.14367125E-02 0.12500201E+03</pdfrwt>
<pdfrwt beam="2">  1       -4 0.64354279E-01 0.12500201E+03</pdfrwt>
<totfact> 0.61947614E+03</totfact>
</mgrwt>
</event>
<event>
 5    1  0.3282316E-002  0.1249967E+03  0.7818608E-02  0.1235074E+00
         -4   -1    0    0    0  501 -0.00000000000E+00  0.00000000000E+00  0.23342315177E+02  0.23376838491E+02  0.12700000000E+01 0.  1.
          4   -1    0    0  501    0  0.00000000000E+00 -0.00000000000E+00 -0.16717693904E+03  0.16718176290E+03  0.12700000000E+01 0.  1.
         25    2    1    2    0    0  0.00000000000E+00  0.00000000000E+00 -0.14383462386E+03  0.19055860139E+03  0.12499672613E+03 0.  0.
    9000005    1    3    3    0    0 -0.41355459592E+02  0.37920088028E+02 -0.11385760500E+03  0.12693605213E+03  0.10000000000E+01 0.  0.
    9000005    1    3    3    0    0  0.41355459592E+02 -0.37920088028E+02 -0.29977018853E+02  0.63622549253E+02  0.10000000000E+01 0.  0.
<mgrwt>
<rscale>  0 0.12499673E+03</rscale>
<asrwt>0</asrwt>
<pdfrwt beam="2">  1        4 0.25722555E-01 0.12499673E+03</pdfrwt>
<pdfrwt beam="1">  1       -4 0.35941522E-02 0.12499673E+03</pdfrwt>
<totfact> 0.91756939E+03</totfact>
</mgrwt>
</event>
<event>
 5    1  0.3282316E-002  0.1249942E+03  0.7818608E-02  0.1235078E+00
         -4   -1    0    0    0  501 -0.00000000000E+00  0.00000000000E+00  0.45262272909E+02  0.45280086671E+02  0.12700000000E+01 0.  1.
          4   -1    0    0  501    0  0.00000000000E+00 -0.00000000000E+00 -0.86255064430E+02  0.86264413520E+02  0.12700000000E+01 0.  1.
         25    2    1    2    0    0  0.00000000000E+00  0.00000000000E+00 -0.40992791521E+02  0.13154450019E+03  0.12499418616E+03 0.  0.
    9000005    1    3    3    0    0  0.51134875810E+02  0.16511826899E+02 -0.54065815634E+02  0.76233380955E+02  0.10000000000E+01 0.  0.
    9000005    1    3    3    0    0 -0.51134875810E+02 -0.16511826899E+02  0.13073024113E+02  0.55311119235E+02  0.10000000000E+01 0.  0.
<mgrwt>
<rscale>  0 0.12499419E+03</rscale>
<asrwt>0</asrwt>
<pdfrwt beam="2">  1        4 0.13272099E-01 0.12499419E+03</pdfrwt>
<pdfrwt beam="1">  1       -4 0.69655161E-02 0.12499419E+03</pdfrwt>
<totfact> 0.10312783E+04</totfact>
</mgrwt>
</event>
<event>
 5    1  0.3282316E-002  0.1249943E+03  0.7818608E-02  0.1235078E+00
         -4   -1    0    0    0  501 -0.00000000000E+00  0.00000000000E+00  0.19990379525E+03  0.19990782940E+03  0.12700000000E+01 0.  1.
          4   -1    0    0  501    0  0.00000000000E+00 -0.00000000000E+00 -0.19514009059E+02  0.19555292111E+02  0.12700000000E+01 0.  1.
         25    2    1    2    0    0  0.00000000000E+00  0.00000000000E+00  0.18038978619E+03  0.21946312151E+03  0.12499434684E+03 0.  0.
    9000005    1    3    3    0    0 -0.16556816844E+02 -0.48316177240E+02  0.15341082443E+03  0.16169249277E+03  0.10000000000E+01 0.  0.
    9000005    1    3    3    0    0  0.16556816844E+02  0.48316177240E+02  0.26978961762E+02  0.57770628738E+02  0.10000000000E+01 0.  0.
<mgrwt>
<rscale>  0 0.12499435E+03</rscale>
<asrwt>0</asrwt>
<pdfrwt beam="2">  1        4 0.30056410E-02 0.12499435E+03</pdfrwt>
<pdfrwt beam="1">  1       -4 0.30757917E-01 0.12499435E+03</pdfrwt>
<totfact> 0.86964354E+03</totfact>
</mgrwt>
</event>
<event>
 5    1  0.3282316E-002  0.1249931E+03  0.7818608E-02  0.1235080E+00
          4   -1    0    0  501    0  0.00000000000E+00  0.00000000000E+00  0.84784785343E+02  0.84794296540E+02  0.12700000000E+01 0. -1.
         -4   -1    0    0    0  501 -0.00000000000E+00 -0.00000000000E+00 -0.46046620983E+02  0.46064131425E+02  0.12700000000E+01 0. -1.
         25    2    1    2    0    0  0.00000000000E+00  0.00000000000E+00  0.38738164361E+02  0.13085842796E+03  0.12499313098E+03 0.  0.
    9000005    1    3    3    0    0  0.52633873786E+02 -0.14811463391E+02 -0.12301333516E+02  0.56053785990E+02  0.10000000000E+01 0.  0.
    9000005    1    3    3    0    0 -0.52633873786E+02  0.14811463391E+02  0.51039497876E+02  0.74804641975E+02  0.10000000000E+01 0.  0.
<mgrwt>
<rscale>  0 0.12499313E+03</rscale>
<asrwt>0</asrwt>
<pdfrwt beam="1">  1        4 0.13045892E-01 0.12499313E+03</pdfrwt>
<pdfrwt beam="2">  1       -4 0.70861742E-02 0.12499313E+03</pdfrwt>
<totfact> 0.10327726E+04</totfact>
</mgrwt>
</event>
<event>
 5    1  0.3282316E-002  0.1250009E+03  0.7818608E-02  0.1235068E+00
          4   -1    0    0  501    0  0.00000000000E+00  0.00000000000E+00  0.46685223314E+03  0.46685396055E+03  0.12700000000E+01 0. -1.
         -4   -1    0    0    0  501 -0.00000000000E+00 -0.00000000000E+00 -0.83173870496E+01  0.84137879301E+01  0.12700000000E+01 0. -1.
         25    2    1    2    0    0  0.00000000000E+00  0.00000000000E+00  0.45853484609E+03  0.47526774848E+03  0.12500091069E+03 0.  0.
    9000005    1    3    3    0    0 -0.11882188889E+02  0.99426865409E+01 -0.91797348735E+00  0.15552687992E+02  0.10000000000E+01 0.  0.
    9000005    1    3    3    0    0  0.11882188889E+02 -0.99426865409E+01  0.45945281957E+03  0.45971506049E+03  0.10000000000E+01 0.  0.
<mgrwt>
<rscale>  0 0.12500091E+03</rscale>
<asrwt>0</asrwt>
<pdfrwt beam="1">  1        4 0.71830999E-01 0.12500091E+03</pdfrwt>
<pdfrwt beam="2">  1       -4 0.12871458E-02 0.12500091E+03</pdfrwt>
<totfact> 0.57834502E+03</totfact>
</mgrwt>
</event>
<event>
 5    1  0.3282316E-002  0.1250035E+03  0.7818608E-02  0.1235064E+00
          4   -1    0    0  501    0  0.00000000000E+00  0.00000000000E+00  0.12304856871E+03  0.12305512245E+03  0.12700000000E+01 0. -1.
         -4   -1    0    0    0  501 -0.00000000000E+00 -0.00000000000E+00 -0.31727281305E+02  0.31752689319E+02  0.12700000000E+01 0. -1.
         25    2    1    2    0    0  0.00000000000E+00  0.00000000000E+00  0.91321287402E+02  0.15480781177E+03  0.12500352416E+03 0.  0.
    9000005    1    3    3    0    0 -0.33543223622E+02  0.49196226257E+01 -0.19355267637E+02  0.39050952908E+02  0.10000000000E+01 0.  0.
    9000005    1    3    3    0    0  0.33543223622E+02 -0.49196226257E+01  0.11067655504E+03  0.11575685886E+03  0.10000000000E+01 0.  0.
<mgrwt>
<rscale>  0 0.12500352E+03</rscale>
<asrwt>0</asrwt>
<pdfrwt beam="1">  1        4 0.18933008E-01 0.12500352E+03</pdfrwt>
<pdfrwt beam="2">  1       -4 0.48835787E-02 0.12500352E+03</pdfrwt>
<totfact> 0.98345446E+03</totfact>
</mgrwt>
</event>
<event>
 5    1  0.3282316E-002  0.1250014E+03  0.7818608E-02  0.1235067E+00
         -4   -1    0    0    0  501 -0.00000000000E+00  0.00000000000E+00  0.79063601153E+02  0.79073800511E+02  0.12700000000E+01 0.  1.
          4   -1    0    0  501    0  0.00000000000E+00 -0.00000000000E+00 -0.49385950891E+02  0.49402277735E+02  0.12700000000E+01 0.  1.
         25    2    1    2    0    0  0.00000000000E+00  0.00000000000E+00  0.29677650262E+02  0.12847607825E+03  0.12500135902E+03 0.  0.
    9000005    1    3    3    0    0 -0.17587810337E+02  0.15217033944E+02  0.74455026634E+02  0.78009231413E+02  0.10000000000E+01 0.  0.
    9000005    1    3    3    0    0  0.17587810337E+02 -0.15217033944E+02 -0.44777376372E+02  0.50466846833E+02  0.10000000000E+01 0.  0.
<mgrwt>
<rscale>  0 0.12500136E+03</rscale>
<asrwt>0</asrwt>
<pdfrwt beam="2">  1        4 0.75998792E-02 0.12500136E+03</pdfrwt>
<pdfrwt beam="1">  1       -4 0.12165671E-01 0.12500136E+03</pdfrwt>
<totfact> 0.10376901E+04</totfact>
</mgrwt>
</event>
<event>
 5    1  0.3282316E-002  0.1250012E+03  0.7818608E-02  0.1235067E+00
         -4   -1    0    0    0  501 -0.00000000000E+00  0.00000000000E+00  0.10356262535E+03  0.10357041213E+03  0.12700000000E+01 0. -1.
          4   -1    0    0  501    0  0.00000000000E+00 -0.00000000000E+00 -0.37699556314E+02  0.37720941747E+02  0.12700000000E+01 0. -1.
         25    2    1    2    0    0  0.00000000000E+00  0.00000000000E+00  0.65863069032E+02  0.14129135388E+03  0.12500121126E+03 0.  0.
    9000005    1    3    3    0    0 -0.97537589127E+01 -0.10958178659E+02 -0.35731171685E+02  0.38638505696E+02  0.10000000000E+01 0.  0.
    9000005    1    3    3    0    0  0.97537589127E+01  0.10958178659E+02  0.10159424072E+03  0.10265284818E+03  0.10000000000E+01 0.  0.
<mgrwt>
<rscale>  0 0.12500121E+03</rscale>
<asrwt>0</asrwt>
<pdfrwt beam="2">  1        4 0.58021757E-02 0.12500121E+03</pdfrwt>
<pdfrwt beam="1">  1       -4 0.15934956E-01 0.12500121E+03</pdfrwt>
<totfact> 0.10106616E+04</totfact>
</mgrwt>
</event>
<event>
 5    1  0.3282316E-002  0.1249980E+03  0.7818608E-02  0.1235072E+00
         -4   -1    0    0    0  501 -0.00000000000E+00  0.00000000000E+00  0.41137644264E+03  0.41137840301E+03  0.12700000000E+01 0. -1.
          4   -1    0    0  501    0  0.00000000000E+00 -0.00000000000E+00 -0.94507915507E+01  0.95357412368E+01  0.12700000000E+01 0. -1.
         25    2    1    2    0    0  0.00000000000E+00  0.00000000000E+00  0.40192565109E+03  0.42091414424E+03  0.12499795126E+03 0.  0.
    9000005    1    3    3    0    0  0.58427731569E+02 -0.21671557459E+02  0.18528891561E+03  0.19549025159E+03  0.10000000000E+01 0.  0.
    9000005    1    3    3    0    0 -0.58427731569E+02  0.21671557459E+02  0.21663673548E+03  0.22542389265E+03  0.10000000000E+01 0.  0.
<mgrwt>
<rscale>  0 0.12499795E+03</rscale>
<asrwt>0</asrwt>
<pdfrwt beam="2">  1        4 0.14606537E-02 0.12499795E+03</pdfrwt>
<pdfrwt beam="1">  1       -4 0.63295353E-01 0.12499795E+03</pdfrwt>
<totfact> 0.62571128E+03</totfact>
</mgrwt>
</event>
<event>
 5    1  0.3282316E-002  0.1249859E+03  0.7818608E-02  0.1235091E+00
         -4   -1    0    0    0  501 -0.00000000000E+00  0.00000000000E+00  0.26405821289E+02  0.26436344262E+02  0.12700000000E+01 0.  1.
          4   -1    0    0  501    0  0.00000000000E+00 -0.00000000000E+00 -0.14777928430E+03  0.14778474133E+03  0.12700000000E+01 0.  1.
         25    2    1    2    0    0  0.00000000000E+00  0.00000000000E+00 -0.12137346301E+03  0.17422108559E+03  0.12498587576E+03 0.  0.
    9000005    1    3    3    0    0  0.61445676965E+02  0.83834604324E+01 -0.50024001717E+02  0.79682208643E+02  0.10000000000E+01 0.  0.
    9000005    1    3    3    0    0 -0.61445676965E+02 -0.83834604324E+01 -0.71349461297E+02  0.94538876944E+02  0.10000000000E+01 0.  0.
<mgrwt>
<rscale>  0 0.12498588E+03</rscale>
<asrwt>0</asrwt>
<pdfrwt beam="2">  1        4 0.22738042E-01 0.12498588E+03</pdfrwt>
<pdfrwt beam="1">  1       -4 0.40652018E-02 0.12498588E+03</pdfrwt>
<totfact> 0.94697695E+03</totfact>
</mgrwt>
</event>
<event>
 5    1  0.3282316E-002  0.1250119E+03  0.7818608E-02  0.1235051E+00
          4   -1    0    0  501    0  0.00000000000E+00  0.00000000000E+00  0.80406953192E+01  0.81403735305E+01  0.12700000000E+01 0. -1.
         -4   -1    0    0    0  501 -0.00000000000E+00 -0.00000000000E+00 -0.48280848030E+03  0.48281015062E+03  0.12700000000E+01 0. -1.
         25    2    1    2    0    0  0.00000000000E+00  0.00000000000E+00 -0.47476778498E+03  0.49095052415E+03  0.12501186950E+03 0.  0.
    9000005    1    3    3    0    0 -0.11531559242E+01 -0.62442561443E+02 -0.22809980576E+03  0.23649719795E+03  0.10000000000E+01 0.  0.
    9000005    1    3    3    0    0  0.11531559242E+01  0.62442561443E+02 -0.24666797922E+03  0.25445332621E+03  0.10000000000E+01 0.  0.
<mgrwt>
<rscale>  0 0.12501187E+03</rscale>
<asrwt>0</asrwt>
<pdfrwt beam="1">  1        4 0.12448265E-02 0.12501187E+03</pdfrwt>
<pdfrwt beam="2">  1       -4 0.74286001E-01 0.12501187E+03</pdfrwt>
<totfact> 0.56558637E+03</totfact>
</mgrwt>
</event>
<event>
 4    1  0.3282316E-002  0.1249172E+03  0.7818608E-02  0.1235199E+00
          4   -1    0    0  501    0  0.00000000000E+00  0.00000000000E+00  0.57865869905E+02  0.57879804767E+02  0.12700000000E+01 0. -1.
         -4   -1    0    0    0  501 -0.00000000000E+00 -0.00000000000E+00 -0.67387841114E+02  0.67399807344E+02  0.12700000000E+01 0. -1.
    9000005    1    1    2    0    0  0.30883732206E+02 -0.44538414649E+02 -0.35876836421E+02  0.65004789716E+02  0.10000000000E+01 0.  0.
    9000005    1    1    2    0    0 -0.30883732206E+02  0.44538414649E+02  0.26354865212E+02  0.60274822395E+02  0.10000000000E+01 0.  0.
<mgrwt>
<rscale>  0 0.12491723E+03</rscale>
<asrwt>0</asrwt>
<pdfrwt beam="1">  1        4 0.89044339E-02 0.12491723E+03</pdfrwt>
<pdfrwt beam="2">  1       -4 0.10369353E-01 0.12491723E+03</pdfrwt>
<totfact> 0.10466358E+04</totfact>
</mgrwt>
</event>
<event>
 5    1  0.3282316E-002  0.1249971E+03  0.7818608E-02  0.1235074E+00
         -4   -1    0    0    0  501 -0.00000000000E+00  0.00000000000E+00  0.14768822259E+02  0.14823326580E+02  0.12700000000E+01 0.  1.
          4   -1    0    0  501    0  0.00000000000E+00 -0.00000000000E+00 -0.26393757478E+03  0.26394063021E+03  0.12700000000E+01 0.  1.
         25    2    1    2    0    0  0.00000000000E+00  0.00000000000E+00 -0.24916875252E+03  0.27876395680E+03  0.12499710548E+03 0.  0.
    9000005    1    3    3    0    0  0.32775816380E+02  0.39462479949E+02 -0.20417114089E+03  0.21051934884E+03  0.10000000000E+01 0.  0.
    9000005    1    3    3    0    0 -0.32775816380E+02 -0.39462479949E+02 -0.44997611627E+02  0.68244607957E+02  0.10000000000E+01 0.  0.
<mgrwt>
<rscale>  0 0.12499711E+03</rscale>
<asrwt>0</asrwt>
<pdfrwt beam="2">  1        4 0.40610205E-01 0.12499711E+03</pdfrwt>
<pdfrwt beam="1">  1       -4 0.22765544E-02 0.12499711E+03</pdfrwt>
<totfact> 0.78347324E+03</totfact>
</mgrwt>
</event>
<event>
 5    1  0.3282316E-002  0.1250001E+03  0.7818608E-02  0.1235069E+00
          4   -1    0    0  501    0  0.00000000000E+00  0.00000000000E+00  0.83084780694E+01  0.84049811320E+01  0.12700000000E+01 0.  1.
         -4   -1    0    0    0  501 -0.00000000000E+00 -0.00000000000E+00 -0.46734072960E+03  0.46734245521E+03  0.12700000000E+01 0.  1.
         25    2    1    2    0    0  0.00000000000E+00  0.00000000000E+00 -0.45903225153E+03  0.47574743635E+03  0.12500006097E+03 0.  0.
    9000005    1    3    3    0    0  0.19915368287E+02  0.30594423653E+02 -0.42255886662E+03  0.42413398403E+03  0.10000000000E+01 0.  0.
    9000005    1    3    3    0    0 -0.19915368287E+02 -0.30594423653E+02 -0.36473384915E+02  0.51613452315E+02  0.10000000000E+01 0.  0.
<mgrwt>
<rscale>  0 0.12500006E+03</rscale>
<asrwt>0</asrwt>
<pdfrwt beam="1">  1        4 0.12857838E-02 0.12500006E+03</pdfrwt>
<pdfrwt beam="2">  1       -4 0.71906110E-01 0.12500006E+03</pdfrwt>
<totfact> 0.57796354E+03</totfact>
</mgrwt>
</event>
<event>
 5    1  0.3282316E-002  0.1249999E+03  0.7818608E-02  0.1235069E+00
          4   -1    0    0  501    0  0.00000000000E+00  0.00000000000E+00  0.48060121978E+01  0.49709811150E+01  0.12700000000E+01 0. -1.
         -4   -1    0    0    0  501 -0.00000000000E+00 -0.00000000000E+00 -0.79890254384E+03  0.79890355328E+03  0.12700000000E+01 0. -1.
         25    2    1    2    0    0  0.00000000000E+00  0.00000000000E+00 -0.79409653164E+03  0.80387453440E+03  0.12499986197E+03 0.  0.
    9000005    1    3    3    0    0  0.24554948608E+02 -0.52542954331E+02 -0.54670336902E+03  0.54977202662E+03  0.10000000000E+01 0.  0.
    9000005    1    3    3    0    0 -0.24554948608E+02  0.52542954331E+02 -0.24739316262E+03  0.25410250778E+03  0.10000000000E+01 0.  0.
<mgrwt>
<rscale>  0 0.12499986E+03</rscale>
<asrwt>0</asrwt>
<pdfrwt beam="1">  1        4 0.75215469E-03 0.12499986E+03</pdfrwt>
<pdfrwt beam="2">  1       -4 0.12292075E+00 0.12499986E+03</pdfrwt>
<totfact> 0.38092483E+03</totfact>
</mgrwt>
</event>
<event>
 5    1  0.3282316E-002  0.1249963E+03  0.7818608E-02  0.1235075E+00
          4   -1    0    0  501    0  0.00000000000E+00  0.00000000000E+00  0.12536858659E+02  0.12601020793E+02  0.12700000000E+01 0. -1.
         -4   -1    0    0    0  501 -0.00000000000E+00 -0.00000000000E+00 -0.31070211629E+03  0.31070471186E+03  0.12700000000E+01 0. -1.
         25    2    1    2    0    0  0.00000000000E+00  0.00000000000E+00 -0.29816525763E+03  0.32330573265E+03  0.12499630356E+03 0.  0.
    9000005    1    3    3    0    0 -0.62768822408E+01 -0.61488555953E+02 -0.17289791477E+03  0.18361625935E+03  0.10000000000E+01 0.  0.
    9000005    1    3    3    0    0  0.62768822408E+01  0.61488555953E+02 -0.12526734286E+03  0.13968947330E+03  0.10000000000E+01 0.  0.
<mgrwt>
<rscale>  0 0.12499630E+03</rscale>
<asrwt>0</asrwt>
<pdfrwt beam="1">  1        4 0.19338829E-02 0.12499630E+03</pdfrwt>
<pdfrwt beam="2">  1       -4 0.47805455E-01 0.12499630E+03</pdfrwt>
<totfact> 0.72770634E+03</totfact>
</mgrwt>
</event>
<event>
 5    1  0.3282316E-002  0.1249636E+03  0.7818608E-02  0.1235126E+00
         -4   -1    0    0    0  501 -0.00000000000E+00  0.00000000000E+00  0.46054667632E+01  0.47773658125E+01  0.12700000000E+01 0.  1.
          4   -1    0    0  501    0  0.00000000000E+00 -0.00000000000E+00 -0.83198035079E+03  0.83198132010E+03  0.12700000000E+01 0.  1.
         25    2    1    2    0    0  0.00000000000E+00  0.00000000000E+00 -0.82737488403E+03  0.83675868592E+03  0.12496359365E+03 0.  0.
    9000005    1    3    3    0    0 -0.50968314539E+02  0.16470667082E+02 -0.62899576380E+03  0.63127309687E+03  0.10000000000E+01 0.  0.
    9000005    1    3    3    0    0  0.50968314539E+02 -0.16470667082E+02 -0.19837912023E+03  0.20548558904E+03  0.10000000000E+01 0.  0.
<mgrwt>
<rscale>  0 0.12496359E+03</rscale>
<asrwt>0</asrwt>
<pdfrwt beam="2">  1        4 0.12801016E+00 0.12496359E+03</pdfrwt>
<pdfrwt beam="1">  1       -4 0.72183158E-03 0.12496359E+03</pdfrwt>
<totfact> 0.36704588E+03</totfact>
</mgrwt>
</event>
<event>
 5    1  0.3282316E-002  0.1250014E+03  0.7818608E-02  0.1235067E+00
          4   -1    0    0  501    0  0.00000000000E+00  0.00000000000E+00  0.27522957491E+02  0.27552242904E+02  0.12700000000E+01 0. -1.
         -4   -1    0    0    0  501 -0.00000000000E+00 -0.00000000000E+00 -0.14182261838E+03  0.14182830459E+03  0.12700000000E+01 0. -1.
         25    2    1    2    0    0  0.00000000000E+00  0.00000000000E+00 -0.11429966089E+03  0.16938054750E+03  0.12500142956E+03 0.  0.
    9000005    1    3    3    0    0 -0.49476152001E+02  0.36532375662E+02 -0.42131900421E+02  0.74556026728E+02  0.10000000000E+01 0.  0.
    9000005    1    3    3    0    0  0.49476152001E+02 -0.36532375662E+02 -0.72167760467E+02  0.94824520770E+02  0.10000000000E+01 0.  0.
<mgrwt>
<rscale>  0 0.12500143E+03</rscale>
<asrwt>0</asrwt>
<pdfrwt beam="1">  1        4 0.42369913E-02 0.12500143E+03</pdfrwt>
<pdfrwt beam="2">  1       -4 0.21821554E-01 0.12500143E+03</pdfrwt>
<totfact> 0.95561090E+03</totfact>
</mgrwt>
</event>
<event>
 5    1  0.3282316E-002  0.1250020E+03  0.7818608E-02  0.1235066E+00
         -4   -1    0    0    0  501 -0.00000000000E+00  0.00000000000E+00  0.27499548531E+03  0.27499841789E+03  0.12700000000E+01 0. -1.
          4   -1    0    0  501    0  0.00000000000E+00 -0.00000000000E+00 -0.14173833449E+02  0.14230616804E+02  0.12700000000E+01 0. -1.
         25    2    1    2    0    0  0.00000000000E+00  0.00000000000E+00  0.26082165186E+03  0.28922903470E+03  0.12500200170E+03 0.  0.
    9000005    1    3    3    0    0 -0.44269845883E+01 -0.48948934591E+02  0.41103763705E+02  0.64078980803E+02  0.10000000000E+01 0.  0.
    9000005    1    3    3    0    0  0.44269845883E+01  0.48948934591E+02  0.21971788816E+03  0.22515005389E+03  0.10000000000E+01 0.  0.
<mgrwt>
<rscale>  0 0.12500200E+03</rscale>
<asrwt>0</asrwt>
<pdfrwt beam="2">  1        4 0.21851833E-02 0.12500200E+03</pdfrwt>
<pdfrwt beam="1">  1       -4 0.42311592E-01 0.12500200E+03</pdfrwt>
<totfact> 0.76966678E+03</totfact>
</mgrwt>
</event>
<event>
 5    1  0.3282316E-002  0.1249994E+03  0.7818608E-02  0.1235070E+00
          4   -1    0    0  501    0  0.00000000000E+00  0.00000000000E+00  0.36942139835E+03  0.36942358135E+03  0.12700000000E+01 0.  1.
         -4   -1    0    0    0  501 -0.00000000000E+00 -0.00000000000E+00 -0.10533514641E+02  0.10609798806E+02  0.12700000000E+01 0.  1.
         25    2    1    2    0    0  0.00000000000E+00  0.00000000000E+00  0.35888788371E+03  0.38003338016E+03  0.12499942784E+03 0.  0.
    9000005    1    3    3    0    0  0.34645455147E+02  0.70646020105E+01  0.33609950593E+03  0.33795575753E+03  0.10000000000E+01 0.  0.
    9000005    1    3    3    0    0 -0.34645455147E+02 -0.70646020105E+01  0.22788377779E+02  0.42077622624E+02  0.10000000000E+01 0.  0.
<mgrwt>
<rscale>  0 0.12499943E+03</rscale>
<asrwt>0</asrwt>
<pdfrwt beam="1">  1        4 0.56840094E-01 0.12499943E+03</pdfrwt>
<pdfrwt beam="2">  1       -4 0.16265767E-02 0.12499943E+03</pdfrwt>
<totfact> 0.66543000E+03</totfact>
</mgrwt>
</event>
<event>
 5    1  0.3282316E-002  0.1250017E+03  0.7818608E-02  0.1235067E+00
          4   -1    0    0  501    0  0.00000000000E+00  0.00000000000E+00  0.11139728856E+03  0.11140452773E+03  0.12700000000E+01 0.  1.
         -4   -1    0    0    0  501 -0.00000000000E+00 -0.00000000000E+00 -0.35047029555E+02  0.35070032516E+02  0.12700000000E+01 0.  1.
         25    2    1    2    0    0  0.00000000000E+00  0.00000000000E+00  0.76350259005E+02  0.14647456025E+03  0.12500173898E+03 0.  0.
    9000005    1    3    3    0    0  0.24550509565E+02 -0.54605824734E+02  0.59163903289E+02  0.84177734985E+02  0.10000000000E+01 0.  0.
    9000005    1    3    3    0    0 -0.24550509565E+02  0.54605824734E+02  0.17186355716E+02  0.62296825261E+02  0.10000000000E+01 0.  0.
<mgrwt>
<rscale>  0 0.12500174E+03</rscale>
<asrwt>0</asrwt>
<pdfrwt beam="1">  1        4 0.17140371E-01 0.12500174E+03</pdfrwt>
<pdfrwt beam="2">  1       -4 0.53941770E-02 0.12500174E+03</pdfrwt>
<totfact> 0.10000723E+04</totfact>
</mgrwt>
</event>
<event>
 5    1  0.3282316E-002  0.1250034E+03  0.7818608E-02  0.1235064E+00
         -4   -1    0    0    0  501 -0.00000000000E+00  0.00000000000E+00  0.13461707645E+03  0.13462306702E+03  0.12700000000E+01 0. -1.
          4   -1    0    0  501    0  0.00000000000E+00 -0.00000000000E+00 -0.28998518346E+02  0.29026315065E+02  0.12700000000E+01 0. -1.
         25    2    1    2    0    0  0.00000000000E+00  0.00000000000E+00  0.10561855811E+03  0.16364938208E+03  0.12500336171E+03 0.  0.
    9000005    1    3    3    0    0  0.17149391378E+02 -0.59993409565E+02  0.48246092794E+02  0.78879631627E+02  0.10000000000E+01 0.  0.
    9000005    1    3    3    0    0 -0.17149391378E+02  0.59993409565E+02  0.57372465313E+02  0.84769750453E+02  0.10000000000E+01 0.  0.
<mgrwt>
<rscale>  0 0.12500336E+03</rscale>
<asrwt>0</asrwt>
<pdfrwt beam="2">  1        4 0.44639095E-02 0.12500336E+03</pdfrwt>
<pdfrwt beam="1">  1       -4 0.20712919E-01 0.12500336E+03</pdfrwt>
<totfact> 0.96636491E+03</totfact>
</mgrwt>
</event>
<event>
 5    1  0.3282316E-002  0.1249949E+03  0.7818608E-02  0.1235077E+00
          4   -1    0    0  501    0  0.00000000000E+00  0.00000000000E+00  0.69965239597E+03  0.69965354861E+03  0.12700000000E+01 0. -1.
         -4   -1    0    0    0  501 -0.00000000000E+00 -0.00000000000E+00 -0.55092720692E+01  0.56537579301E+01  0.12700000000E+01 0. -1.
         25    2    1    2    0    0  0.00000000000E+00  0.00000000000E+00  0.69414312390E+03  0.70530730654E+03  0.12499488071E+03 0.  0.
    9000005    1    3    3    0    0  0.50035015963E+02  0.17157790017E+02  0.53481610248E+03  0.53742641919E+03  0.10000000000E+01 0.  0.
    9000005    1    3    3    0    0 -0.50035015963E+02 -0.17157790017E+02  0.15932702142E+03  0.16788088735E+03  0.10000000000E+01 0.  0.
<mgrwt>
<rscale>  0 0.12499488E+03</rscale>
<asrwt>0</asrwt>
<pdfrwt beam="1">  1        4 0.10765005E+00 0.12499488E+03</pdfrwt>
<pdfrwt beam="2">  1       -4 0.85878311E-03 0.12499488E+03</pdfrwt>
<totfact> 0.42812793E+03</totfact>
</mgrwt>
</event>
<event>
 5    1  0.3282316E-002  0.1250001E+03  0.7818608E-02  0.1235069E+00
          4   -1    0    0  501    0  0.00000000000E+00  0.00000000000E+00  0.40944573288E+02  0.40964264692E+02  0.12700000000E+01 0. -1.
         -4   -1    0    0    0  501 -0.00000000000E+00 -0.00000000000E+00 -0.95356690674E+02  0.95365147492E+02  0.12700000000E+01 0. -1.
         25    2    1    2    0    0  0.00000000000E+00  0.00000000000E+00 -0.54412117386E+02  0.13632941218E+03  0.12500012043E+03 0.  0.
    9000005    1    3    3    0    0 -0.12244397705E+02 -0.81480507134E+00  0.39622934955E+02  0.41491760108E+02  0.10000000000E+01 0.  0.
    9000005    1    3    3    0    0  0.12244397705E+02  0.81480507134E+00 -0.94035052341E+02  0.94837652075E+02  0.10000000000E+01 0.  0.
<mgrwt>
<rscale>  0 0.12500012E+03</rscale>
<asrwt>0</asrwt>
<pdfrwt beam="1">  1        4 0.63013304E-02 0.12500012E+03</pdfrwt>
<pdfrwt beam="2">  1       -4 0.14672425E-01 0.12500012E+03</pdfrwt>
<totfact> 0.10210098E+04</totfact>
</mgrwt>
</event>
<event>
 5    1  0.3282316E-002  0.1249938E+03  0.7818608E-02  0.1235079E+00
         -4   -1    0    0    0  501 -0.00000000000E+00  0.00000000000E+00  0.39997932437E+02  0.40018089650E+02  0.12700000000E+01 0. -1.
          4   -1    0    0  501    0  0.00000000000E+00 -0.00000000000E+00 -0.97602739121E+02  0.97611001347E+02  0.12700000000E+01 0. -1.
         25    2    1    2    0    0  0.00000000000E+00  0.00000000000E+00 -0.57604806684E+02  0.13762909100E+03  0.12499381159E+03 0.  0.
    9000005    1    3    3    0    0 -0.40737587179E+02  0.15887478269E+02 -0.77957042413E+02  0.89388273486E+02  0.10000000000E+01 0.  0.
    9000005    1    3    3    0    0  0.40737587179E+02 -0.15887478269E+02  0.20352235729E+02  0.48240817511E+02  0.10000000000E+01 0.  0.
<mgrwt>
<rscale>  0 0.12499381E+03</rscale>
<asrwt>0</asrwt>
<pdfrwt beam="2">  1        4 0.15017992E-01 0.12499381E+03</pdfrwt>
<pdfrwt beam="1">  1       -4 0.61557142E-02 0.12499381E+03</pdfrwt>
<totfact> 0.10184369E+04</totfact>
</mgrwt>
</event>
<event>
 5    1  0.3282316E-002  0.1250060E+03  0.7818608E-02  0.1235060E+00
          4   -1    0    0  501    0  0.00000000000E+00  0.00000000000E+00  0.90869045663E+01  0.91752239535E+01  0.12700000000E+01 0. -1.
         -4   -1    0    0    0  501 -0.00000000000E+00 -0.00000000000E+00 -0.42774942530E+03  0.42775131063E+03  0.12700000000E+01 0. -1.
         25    2    1    2    0    0  0.00000000000E+00  0.00000000000E+00 -0.41866252074E+03  0.43692653458E+03  0.12500596128E+03 0.  0.
    9000005    1    3    3    0    0  0.14219265531E+02 -0.71992067892E+01  0.18812710849E+01  0.16079653962E+02  0.10000000000E+01 0.  0.
    9000005    1    3    3    0    0 -0.14219265531E+02  0.71992067892E+01 -0.42054379182E+03  0.42084688062E+03  0.10000000000E+01 0.  0.
<mgrwt>
<rscale>  0 0.12500596E+03</rscale>
<asrwt>0</asrwt>
<pdfrwt beam="1">  1        4 0.14049245E-02 0.12500596E+03</pdfrwt>
<pdfrwt beam="2">  1       -4 0.65814527E-01 0.12500596E+03</pdfrwt>
<totfact> 0.61105100E+03</totfact>
</mgrwt>
</event>
<event>
 5    1  0.3282316E-002  0.1249990E+03  0.7818608E-02  0.1235071E+00
          4   -1    0    0  501    0  0.00000000000E+00  0.00000000000E+00  0.21285516069E+02  0.21323369675E+02  0.12700000000E+01 0. -1.
         -4   -1    0    0    0  501 -0.00000000000E+00 -0.00000000000E+00 -0.18331087160E+03  0.18331527090E+03  0.12700000000E+01 0. -1.
         25    2    1    2    0    0  0.00000000000E+00  0.00000000000E+00 -0.16202535553E+03  0.20463864058E+03  0.12499902953E+03 0.  0.
    9000005    1    3    3    0    0  0.21987648120E+02 -0.54597845794E+02 -0.11538474801E+03  0.12953386240E+03  0.10000000000E+01 0.  0.
    9000005    1    3    3    0    0 -0.21987648120E+02  0.54597845794E+02 -0.46640607517E+02  0.75104778175E+02  0.10000000000E+01 0.  0.
<mgrwt>
<rscale>  0 0.12499903E+03</rscale>
<asrwt>0</asrwt>
<pdfrwt beam="1">  1        4 0.32779451E-02 0.12499903E+03</pdfrwt>
<pdfrwt beam="2">  1       -4 0.28204922E-01 0.12499903E+03</pdfrwt>
<totfact> 0.89360956E+03</totfact>
</mgrwt>
</event>
<event>
 5    1  0.3282316E-002  0.1250048E+03  0.7818608E-02  0.1235062E+00
         -4   -1    0    0    0  501 -0.00000000000E+00  0.00000000000E+00  0.23079082533E+03  0.23079431959E+03  0.12700000000E+01 0.  1.
          4   -1    0    0  501    0  0.00000000000E+00 -0.00000000000E+00 -0.16899355603E+02  0.16947009170E+02  0.12700000000E+01 0.  1.
         25    2    1    2    0    0  0.00000000000E+00  0.00000000000E+00  0.21389146973E+03  0.24774132876E+03  0.12500482053E+03 0.  0.
    9000005    1    3    3    0    0 -0.86398297415E+01  0.51216307719E+02  0.17582178243E+03  0.18333591032E+03  0.10000000000E+01 0.  0.
    9000005    1    3    3    0    0  0.86398297415E+01 -0.51216307719E+02  0.38069687293E+02  0.64405418444E+02  0.10000000000E+01 0.  0.
<mgrwt>
<rscale>  0 0.12500482E+03</rscale>
<asrwt>0</asrwt>
<pdfrwt beam="2">  1        4 0.26038354E-02 0.12500482E+03</pdfrwt>
<pdfrwt beam="1">  1       -4 0.35510214E-01 0.12500482E+03</pdfrwt>
<totfact> 0.82648899E+03</totfact>
</mgrwt>
</event>
<event>
 5    1  0.3282316E-002  0.1250072E+03  0.7818608E-02  0.1235058E+00
         -4   -1    0    0    0  501 -0.00000000000E+00  0.00000000000E+00  0.12410211431E+03  0.12410861242E+03  0.12700000000E+01 0.  1.
          4   -1    0    0  501    0  0.00000000000E+00 -0.00000000000E+00 -0.31459597465E+02  0.31485221497E+02  0.12700000000E+01 0.  1.
         25    2    1    2    0    0  0.00000000000E+00  0.00000000000E+00  0.92642516842E+02  0.15559383391E+03  0.12500722069E+03 0.  0.
    9000005    1    3    3    0    0  0.47858257485E+02 -0.15750223847E+02  0.92344405918E+02  0.10519967521E+03  0.10000000000E+01 0.  0.
    9000005    1    3    3    0    0 -0.47858257485E+02  0.15750223847E+02  0.29811092400E+00  0.50394158698E+02  0.10000000000E+01 0.  0.
<mgrwt>
<rscale>  0 0.12500722E+03</rscale>
<asrwt>0</asrwt>
<pdfrwt beam="2">  1        4 0.48424089E-02 0.12500722E+03</pdfrwt>
<pdfrwt beam="1">  1       -4 0.19095104E-01 0.12500722E+03</pdfrwt>
<totfact> 0.98183103E+03</totfact>
</mgrwt>
</event>
<event>
 5    1  0.3282316E-002  0.1249991E+03  0.7818608E-02  0.1235071E+00
         -4   -1    0    0    0  501 -0.00000000000E+00  0.00000000000E+00  0.10776075417E+03  0.10776823761E+03  0.12700000000E+01 0.  1.
          4   -1    0    0  501    0  0.00000000000E+00 -0.00000000000E+00 -0.36228914306E+02  0.36251167316E+02  0.12700000000E+01 0.  1.
         25    2    1    2    0    0  0.00000000000E+00  0.00000000000E+00  0.71531839860E+02  0.14401940493E+03  0.12499913953E+03 0.  0.
    9000005    1    3    3    0    0 -0.36880979380E+02 -0.36585601176E+02 -0.42538565111E+01  0.52132601591E+02  0.10000000000E+01 0.  0.
    9000005    1    3    3    0    0  0.36880979380E+02  0.36585601176E+02  0.75785696371E+02  0.91886803339E+02  0.10000000000E+01 0.  0.
<mgrwt>
<rscale>  0 0.12499914E+03</rscale>
<asrwt>0</asrwt>
<pdfrwt beam="2">  1        4 0.55759666E-02 0.12499914E+03</pdfrwt>
<pdfrwt beam="1">  1       -4 0.16580865E-01 0.12499914E+03</pdfrwt>
<totfact> 0.10051145E+04</totfact>
</mgrwt>
</event>
<event>
 5    1  0.3282316E-002  0.1250176E+03  0.7818608E-02  0.1235042E+00
          4   -1    0    0  501    0  0.00000000000E+00  0.00000000000E+00  0.24583803442E+03  0.24584131481E+03  0.12700000000E+01 0. -1.
         -4   -1    0    0    0  501 -0.00000000000E+00 -0.00000000000E+00 -0.15865241977E+02  0.15915992052E+02  0.12700000000E+01 0. -1.
         25    2    1    2    0    0  0.00000000000E+00  0.00000000000E+00  0.22997279245E+03  0.26175730686E+03  0.12501760849E+03 0.  0.
    9000005    1    3    3    0    0  0.27687646532E+02  0.47839419982E+02  0.53902492544E+02  0.77212010576E+02  0.10000000000E+01 0.  0.
    9000005    1    3    3    0    0 -0.27687646532E+02 -0.47839419982E+02  0.17607029990E+03  0.18454529629E+03  0.10000000000E+01 0.  0.
<mgrwt>
<rscale>  0 0.12501761E+03</rscale>
<asrwt>0</asrwt>
<pdfrwt beam="1">  1        4 0.37825395E-01 0.12501761E+03</pdfrwt>
<pdfrwt beam="2">  1       -4 0.24449625E-02 0.12501761E+03</pdfrwt>
<totfact> 0.80628472E+03</totfact>
</mgrwt>
</event>
<event>
 5    1  0.3282316E-002  0.1249996E+03  0.7818608E-02  0.1235070E+00
          4   -1    0    0  501    0  0.00000000000E+00  0.00000000000E+00  0.21185641933E+03  0.21186022588E+03  0.12700000000E+01 0.  1.
         -4   -1    0    0    0  501 -0.00000000000E+00 -0.00000000000E+00 -0.18412217600E+02  0.18455965348E+02  0.12700000000E+01 0.  1.
         25    2    1    2    0    0  0.00000000000E+00  0.00000000000E+00  0.19344420173E+03  0.23031619123E+03  0.12499955504E+03 0.  0.
    9000005    1    3    3    0    0  0.50109608443E+02  0.10797276969E+01  0.27951221101E+02  0.57396946184E+02  0.10000000000E+01 0.  0.
    9000005    1    3    3    0    0 -0.50109608443E+02 -0.10797276969E+01  0.16549298063E+03  0.17291924504E+03  0.10000000000E+01 0.  0.
<mgrwt>
<rscale>  0 0.12499956E+03</rscale>
<asrwt>0</asrwt>
<pdfrwt beam="1">  1        4 0.32596956E-01 0.12499956E+03</pdfrwt>
<pdfrwt beam="2">  1       -4 0.28363067E-02 0.12499956E+03</pdfrwt>
<totfact> 0.85261913E+03</totfact>
</mgrwt>
</event>
<event>
 5    1  0.3282316E-002  0.1249990E+03  0.7818608E-02  0.1235071E+00
          4   -1    0    0  501    0  0.00000000000E+00  0.00000000000E+00  0.70464392943E+01  0.71599725369E+01  0.12700000000E+01 0.  1.
         -4   -1    0    0    0  501 -0.00000000000E+00 -0.00000000000E+00 -0.54980446814E+03  0.54980593493E+03  0.12700000000E+01 0.  1.
         25    2    1    2    0    0  0.00000000000E+00  0.00000000000E+00 -0.54275802884E+03  0.55696590747E+03  0.12499897682E+03 0.  0.
    9000005    1    3    3    0    0 -0.42884592107E+01 -0.44509558999E+02 -0.76865950516E+02  0.88931805747E+02  0.10000000000E+01 0.  0.
    9000005    1    3    3    0    0  0.42884592107E+01  0.44509558999E+02 -0.46589207833E+03  0.46803410172E+03  0.10000000000E+01 0.  0.
<mgrwt>
<rscale>  0 0.12499898E+03</rscale>
<asrwt>0</asrwt>
<pdfrwt beam="1">  1        4 0.10929142E-02 0.12499898E+03</pdfrwt>
<pdfrwt beam="2">  1       -4 0.84594116E-01 0.12499898E+03</pdfrwt>
<totfact> 0.51703002E+03</totfact>
</mgrwt>
</event>
<event>
 5    1  0.3282316E-002  0.1249993E+03  0.7818608E-02  0.1235070E+00
         -4   -1    0    0    0  501 -0.00000000000E+00  0.00000000000E+00  0.53740663815E+03  0.53740813878E+03  0.12700000000E+01 0. -1.
          4   -1    0    0  501    0  0.00000000000E+00 -0.00000000000E+00 -0.72116308760E+01  0.73226033548E+01  0.12700000000E+01 0. -1.
         25    2    1    2    0    0  0.00000000000E+00  0.00000000000E+00  0.53019500727E+03  0.54473074213E+03  0.12499934275E+03 0.  0.
    9000005    1    3    3    0    0  0.57630535613E+02 -0.20658574168E+02  0.31972814812E+03  0.32553823742E+03  0.10000000000E+01 0.  0.
    9000005    1    3    3    0    0 -0.57630535613E+02  0.20658574168E+02  0.21046685915E+03  0.21919250472E+03  0.10000000000E+01 0.  0.
<mgrwt>
<rscale>  0 0.12499934E+03</rscale>
<asrwt>0</asrwt>
<pdfrwt beam="2">  1        4 0.11181332E-02 0.12499934E+03</pdfrwt>
<pdfrwt beam="1">  1       -4 0.82686616E-01 0.12499934E+03</pdfrwt>
<totfact> 0.52554247E+03</totfact>
</mgrwt>
</event>
<event>
 5    1  0.3282316E-002  0.1249988E+03  0.7818608E-02  0.1235071E+00
          4   -1    0    0  501    0  0.00000000000E+00  0.00000000000E+00  0.72298518283E+03  0.72298629827E+03  0.12700000000E+01 0. -1.
         -4   -1    0    0    0  501 -0.00000000000E+00 -0.00000000000E+00 -0.53270772168E+01  0.54763721270E+01  0.12700000000E+01 0. -1.
         25    2    1    2    0    0  0.00000000000E+00  0.00000000000E+00  0.71765810561E+03  0.72846267040E+03  0.12499882246E+03 0.  0.
    9000005    1    3    3    0    0  0.63317295725E+01 -0.56148516251E+02  0.20327820012E+03  0.21098761414E+03  0.10000000000E+01 0.  0.
    9000005    1    3    3    0    0 -0.63317295725E+01  0.56148516251E+02  0.51437990549E+03  0.51747505626E+03  0.10000000000E+01 0.  0.
<mgrwt>
<rscale>  0 0.12499882E+03</rscale>
<asrwt>0</asrwt>
<pdfrwt beam="1">  1        4 0.11124004E+00 0.12499882E+03</pdfrwt>
<pdfrwt beam="2">  1       -4 0.83112053E-03 0.12499882E+03</pdfrwt>
<totfact> 0.41627131E+03</totfact>
</mgrwt>
</event>
<event>
 5    1  0.3282316E-002  0.1250004E+03  0.7818608E-02  0.1235069E+00
          4   -1    0    0  501    0  0.00000000000E+00  0.00000000000E+00  0.18154441377E+03  0.18154885588E+03  0.12700000000E+01 0. -1.
         -4   -1    0    0    0  501 -0.00000000000E+00 -0.00000000000E+00 -0.21493459199E+02  0.21530947224E+02  0.12700000000E+01 0. -1.
         25    2    1    2    0    0  0.00000000000E+00  0.00000000000E+00  0.16005095457E+03  0.20307980310E+03  0.12500039348E+03 0.  0.
    9000005    1    3    3    0    0  0.28916442027E+02  0.20501133363E+02 -0.35889794498E+01  0.35641799368E+02  0.10000000000E+01 0.  0.
    9000005    1    3    3    0    0 -0.28916442027E+02 -0.20501133363E+02  0.16363993402E+03  0.16743800374E+03  0.10000000000E+01 0.  0.
<mgrwt>
<rscale>  0 0.12500039E+03</rscale>
<asrwt>0</asrwt>
<pdfrwt beam="1">  1        4 0.27933136E-01 0.12500039E+03</pdfrwt>
<pdfrwt beam="2">  1       -4 0.33099113E-02 0.12500039E+03</pdfrwt>
<totfact> 0.89617869E+03</totfact>
</mgrwt>
</event>
<event>
 5    1  0.3282316E-002  0.1249989E+03  0.7818608E-02  0.1235071E+00
         -4   -1    0    0    0  501 -0.00000000000E+00  0.00000000000E+00  0.14818874459E+02  0.14873195360E+02  0.12700000000E+01 0. -1.
          4   -1    0    0  501    0  0.00000000000E+00 -0.00000000000E+00 -0.26305696285E+03  0.26306002852E+03  0.12700000000E+01 0. -1.
         25    2    1    2    0    0  0.00000000000E+00  0.00000000000E+00 -0.24823808840E+03  0.27793322388E+03  0.12499891363E+03 0.  0.
    9000005    1    3    3    0    0 -0.20505869081E+02 -0.58639259578E+02 -0.13922053071E+03  0.15245461489E+03  0.10000000000E+01 0.  0.
    9000005    1    3    3    0    0  0.20505869081E+02  0.58639259578E+02 -0.10901755769E+03  0.12547860899E+03  0.10000000000E+01 0.  0.
<mgrwt>
<rscale>  0 0.12499891E+03</rscale>
<asrwt>0</asrwt>
<pdfrwt beam="2">  1        4 0.40474713E-01 0.12499891E+03</pdfrwt>
<pdfrwt beam="1">  1       -4 0.22842414E-02 0.12499891E+03</pdfrwt>
<totfact> 0.78454841E+03</totfact>
</mgrwt>
</event>
<event>
 5    1  0.3282316E-002  0.1249994E+03  0.7818608E-02  0.1235070E+00
          4   -1    0    0  501    0  0.00000000000E+00  0.00000000000E+00  0.13757672475E+03  0.13758258644E+03  0.12700000000E+01 0.  1.
         -4   -1    0    0    0  501 -0.00000000000E+00 -0.00000000000E+00 -0.28372293224E+02  0.28400702858E+02  0.12700000000E+01 0.  1.
         25    2    1    2    0    0  0.00000000000E+00  0.00000000000E+00  0.10920443152E+03  0.16598328930E+03  0.12499937785E+03 0.  0.
    9000005    1    3    3    0    0 -0.38257092686E+02 -0.76732229665E+01 -0.10215498994E+02  0.40346498128E+02  0.10000000000E+01 0.  0.
    9000005    1    3    3    0    0  0.38257092686E+02  0.76732229665E+01  0.11941993052E+03  0.12563679117E+03  0.10000000000E+01 0.  0.
<mgrwt>
<rscale>  0 0.12499938E+03</rscale>
<asrwt>0</asrwt>
<pdfrwt beam="1">  1        4 0.21168286E-01 0.12499938E+03</pdfrwt>
<pdfrwt beam="2">  1       -4 0.43676045E-02 0.12499938E+03</pdfrwt>
<totfact> 0.96202841E+03</totfact>
</mgrwt>
</event>
<event>
 5    1  0.3282316E-002  0.1249786E+03  0.7818608E-02  0.1235103E+00
          4   -1    0    0  501    0  0.00000000000E+00  0.00000000000E+00  0.33325225398E+03  0.33325467391E+03  0.12700000000E+01 0.  1.
         -4   -1    0    0    0  501 -0.00000000000E+00 -0.00000000000E+00 -0.11680698066E+02  0.11749536472E+02  0.12700000000E+01 0.  1.
         25    2    1    2    0    0  0.00000000000E+00  0.00000000000E+00  0.32157155591E+03  0.34500421038E+03  0.12497855659E+03 0.  0.
    9000005    1    3    3    0    0 -0.57469600607E+02 -0.24480841257E+02  0.15703786758E+03  0.16900875254E+03  0.10000000000E+01 0.  0.
    9000005    1    3    3    0    0  0.57469600607E+02  0.24480841257E+02  0.16453368833E+03  0.17599545784E+03  0.10000000000E+01 0.  0.
<mgrwt>
<rscale>  0 0.12497856E+03</rscale>
<asrwt>0</asrwt>
<pdfrwt beam="1">  1        4 0.51275059E-01 0.12497856E+03</pdfrwt>
<pdfrwt beam="2">  1       -4 0.18025119E-02 0.12497856E+03</pdfrwt>
<totfact> 0.70311041E+03</totfact>
</mgrwt>
</event>
<event>
 5    1  0.3282316E-002  0.1250031E+03  0.7818608E-02  0.1235064E+00
          4   -1    0    0  501    0  0.00000000000E+00  0.00000000000E+00  0.20602545538E+02  0.20641651645E+02  0.12700000000E+01 0. -1.
         -4   -1    0    0    0  501 -0.00000000000E+00 -0.00000000000E+00 -0.18938869147E+03  0.18939294960E+03  0.12700000000E+01 0. -1.
         25    2    1    2    0    0  0.00000000000E+00  0.00000000000E+00 -0.16878614594E+03  0.21003460124E+03  0.12500308260E+03 0.  0.
    9000005    1    3    3    0    0 -0.17288206079E+02 -0.34308920765E+02 -0.15750477322E+01  0.38463812718E+02  0.10000000000E+01 0.  0.
    9000005    1    3    3    0    0  0.17288206079E+02  0.34308920765E+02 -0.16721109820E+03  0.17157078853E+03  0.10000000000E+01 0.  0.
<mgrwt>
<rscale>  0 0.12500308E+03</rscale>
<asrwt>0</asrwt>
<pdfrwt beam="1">  1        4 0.31729582E-02 0.12500308E+03</pdfrwt>
<pdfrwt beam="2">  1       -4 0.29140056E-01 0.12500308E+03</pdfrwt>
<totfact> 0.88464134E+03</totfact>
</mgrwt>
</event>
<event>
 5    1  0.3282316E-002  0.1249994E+03  0.7818608E-02  0.1235070E+00
          4   -1    0    0  501    0  0.00000000000E+00  0.00000000000E+00  0.13853642004E+02  0.13911732343E+02  0.12700000000E+01 0. -1.
         -4   -1    0    0    0  501 -0.00000000000E+00 -0.00000000000E+00 -0.28131348756E+03  0.28131635428E+03  0.12700000000E+01 0. -1.
         25    2    1    2    0    0  0.00000000000E+00  0.00000000000E+00 -0.26745984556E+03  0.29522808662E+03  0.12499941657E+03 0.  0.
    9000005    1    3    3    0    0 -0.28002572498E+02  0.54674711763E+02 -0.16083916358E+03  0.17217347274E+03  0.10000000000E+01 0.  0.
    9000005    1    3    3    0    0  0.28002572498E+02 -0.54674711763E+02 -0.10662068197E+03  0.12305461388E+03  0.10000000000E+01 0.  0.
<mgrwt>
<rscale>  0 0.12499942E+03</rscale>
<asrwt>0</asrwt>
<pdfrwt beam="1">  1        4 0.21360187E-02 0.12499942E+03</pdfrwt>
<pdfrwt beam="2">  1       -4 0.43283683E-01 0.12499942E+03</pdfrwt>
<totfact> 0.76202333E+03</totfact>
</mgrwt>
</event>
<event>
 5    1  0.3282316E-002  0.1250017E+03  0.7818608E-02  0.1235067E+00
         -4   -1    0    0    0  501 -0.00000000000E+00  0.00000000000E+00  0.11607435050E+02  0.11676705376E+02  0.12700000000E+01 0.  1.
          4   -1    0    0  501    0  0.00000000000E+00 -0.00000000000E+00 -0.33546741473E+03  0.33546981868E+03  0.12700000000E+01 0.  1.
         25    2    1    2    0    0  0.00000000000E+00  0.00000000000E+00 -0.32385997968E+03  0.34714652406E+03  0.12500169089E+03 0.  0.
    9000005    1    3    3    0    0 -0.24036965039E+02  0.51072319939E+02 -0.87453155618E+02  0.10409232431E+03  0.10000000000E+01 0.  0.
    9000005    1    3    3    0    0  0.24036965039E+02 -0.51072319939E+02 -0.23640682406E+03  0.24305419975E+03  0.10000000000E+01 0.  0.
<mgrwt>
<rscale>  0 0.12500169E+03</rscale>
<asrwt>0</asrwt>
<pdfrwt beam="2">  1        4 0.51615878E-01 0.12500169E+03</pdfrwt>
<pdfrwt beam="1">  1       -4 0.17912729E-02 0.12500169E+03</pdfrwt>
<totfact> 0.70037000E+03</totfact>
</mgrwt>
</event>
<event>
 5    1  0.3282316E-002  0.1249968E+03  0.7818608E-02  0.1235074E+00
         -4   -1    0    0    0  501 -0.00000000000E+00  0.00000000000E+00  0.12069174040E+03  0.12069842212E+03  0.12700000000E+01 0. -1.
          4   -1    0    0  501    0  0.00000000000E+00 -0.00000000000E+00 -0.32343837954E+02  0.32368762003E+02  0.12700000000E+01 0. -1.
         25    2    1    2    0    0  0.00000000000E+00  0.00000000000E+00  0.88347902450E+02  0.15306718412E+03  0.12499684391E+03 0.  0.
    9000005    1    3    3    0    0  0.62075747784E+02 -0.57727402118E+01  0.49416728006E+02  0.79559638004E+02  0.10000000000E+01 0.  0.
    9000005    1    3    3    0    0 -0.62075747784E+02  0.57727402118E+01  0.38931174444E+02  0.73507546117E+02  0.10000000000E+01 0.  0.
<mgrwt>
<rscale>  0 0.12499684E+03</rscale>
<asrwt>0</asrwt>
<pdfrwt beam="2">  1        4 0.49784062E-02 0.12499684E+03</pdfrwt>
<pdfrwt beam="1">  1       -4 0.18570391E-01 0.12499684E+03</pdfrwt>
<totfact> 0.98702785E+03</totfact>
</mgrwt>
</event>
<event>
 5    1  0.3282316E-002  0.1250002E+03  0.7818608E-02  0.1235069E+00
          4   -1    0    0  501    0  0.00000000000E+00  0.00000000000E+00  0.49647322837E+02  0.49663563756E+02  0.12700000000E+01 0.  1.
         -4   -1    0    0    0  501 -0.00000000000E+00 -0.00000000000E+00 -0.78646016662E+02  0.78656270168E+02  0.12700000000E+01 0.  1.
         25    2    1    2    0    0  0.00000000000E+00  0.00000000000E+00 -0.28998693824E+02  0.12831983392E+03  0.12500022214E+03 0.  0.
    9000005    1    3    3    0    0 -0.35675013532E+02  0.45251682620E+02  0.10326408448E+02  0.58549603602E+02  0.10000000000E+01 0.  0.
    9000005    1    3    3    0    0  0.35675013532E+02 -0.45251682620E+02 -0.39325102272E+02  0.69770230322E+02  0.10000000000E+01 0.  0.
<mgrwt>
<rscale>  0 0.12500022E+03</rscale>
<asrwt>0</asrwt>
<pdfrwt beam="1">  1        4 0.76400877E-02 0.12500022E+03</pdfrwt>
<pdfrwt beam="2">  1       -4 0.12101425E-01 0.12500022E+03</pdfrwt>
<totfact> 0.10380534E+04</totfact>
</mgrwt>
</event>
<event>
 5    1  0.3282316E-002  0.1250004E+03  0.7818608E-02  0.1235069E+00
          4   -1    0    0  501    0  0.00000000000E+00  0.00000000000E+00  0.15307160125E+02  0.15359754266E+02  0.12700000000E+01 0. -1.
         -4   -1    0    0    0  501 -0.00000000000E+00 -0.00000000000E+00 -0.25470078021E+03  0.25470394645E+03  0.12700000000E+01 0. -1.
         25    2    1    2    0    0  0.00000000000E+00  0.00000000000E+00 -0.23939362008E+03  0.27006370072E+03  0.12500038844E+03 0.  0.
    9000005    1    3    3    0    0 -0.27675826062E+02  0.10071096345E+02 -0.23877748820E+03  0.24058900058E+03  0.10000000000E+01 0.  0.
    9000005    1    3    3    0    0  0.27675826062E+02 -0.10071096345E+02 -0.61613188513E+00  0.29474700139E+02  0.10000000000E+01 0.  0.
<mgrwt>
<rscale>  0 0.12500039E+03</rscale>
<asrwt>0</asrwt>
<pdfrwt beam="1">  1        4 0.23592372E-02 0.12500039E+03</pdfrwt>
<pdfrwt beam="2">  1       -4 0.39189022E-01 0.12500039E+03</pdfrwt>
<totfact> 0.79513497E+03</totfact>
</mgrwt>
</event>
<event>
 5    1  0.3282316E-002  0.1249972E+03  0.7818608E-02  0.1235074E+00
          4   -1    0    0  501    0  0.00000000000E+00  0.00000000000E+00  0.15905873666E+04  0.15905878736E+04  0.12700000000E+01 0. -1.
         -4   -1    0    0    0  501 -0.00000000000E+00 -0.00000000000E+00 -0.22910053943E+01  0.26194666856E+01  0.12700000000E+01 0. -1.
         25    2    1    2    0    0  0.00000000000E+00  0.00000000000E+00  0.15882963612E+04  0.15932073403E+04  0.12499719263E+03 0.  0.
    9000005    1    3    3    0    0 -0.43687140387E+02  0.33426506454E+02  0.41621920375E+03  0.41983963979E+03  0.10000000000E+01 0.  0.
    9000005    1    3    3    0    0  0.43687140387E+02 -0.33426506454E+02  0.11720771575E+04  0.11733677005E+04  0.10000000000E+01 0.  0.
<mgrwt>
<rscale>  0 0.12499719E+03</rscale>
<asrwt>0</asrwt>
<pdfrwt beam="1">  1        4 0.24473029E+00 0.12499719E+03</pdfrwt>
<pdfrwt beam="2">  1       -4 0.37776880E-03 0.12499719E+03</pdfrwt>
<totfact> 0.16170227E+03</totfact>
</mgrwt>
</event>
<event>
 5    1  0.3282316E-002  0.1250012E+03  0.7818608E-02  0.1235067E+00
          4   -1    0    0  501    0  0.00000000000E+00  0.00000000000E+00  0.19297548703E+02  0.19339293833E+02  0.12700000000E+01 0.  1.
         -4   -1    0    0    0  501 -0.00000000000E+00 -0.00000000000E+00 -0.20216350057E+03  0.20216748963E+03  0.12700000000E+01 0.  1.
         25    2    1    2    0    0  0.00000000000E+00  0.00000000000E+00 -0.18286595187E+03  0.22150678346E+03  0.12500119506E+03 0.  0.
    9000005    1    3    3    0    0 -0.19850286642E+02 -0.39648932208E+02 -0.16946809550E+03  0.17517564641E+03  0.10000000000E+01 0.  0.
    9000005    1    3    3    0    0  0.19850286642E+02  0.39648932208E+02 -0.13397856372E+02  0.46331137050E+02  0.10000000000E+01 0.  0.
<mgrwt>
<rscale>  0 0.12500120E+03</rscale>
<asrwt>0</asrwt>
<pdfrwt beam="1">  1        4 0.29723718E-02 0.12500120E+03</pdfrwt>
<pdfrwt beam="2">  1       -4 0.31105593E-01 0.12500120E+03</pdfrwt>
<totfact> 0.86628170E+03</totfact>
</mgrwt>
</event>
<event>
 5    1  0.3282316E-002  0.1249981E+03  0.7818608E-02  0.1235072E+00
          4   -1    0    0  501    0  0.00000000000E+00  0.00000000000E+00  0.83579773186E+02  0.83589421495E+02  0.12700000000E+01 0. -1.
         -4   -1    0    0    0  501 -0.00000000000E+00 -0.00000000000E+00 -0.46714413957E+02  0.46731674177E+02  0.12700000000E+01 0. -1.
         25    2    1    2    0    0  0.00000000000E+00  0.00000000000E+00  0.36865359229E+02  0.13032109567E+03  0.12499813305E+03 0.  0.
    9000005    1    3    3    0    0 -0.22337515222E+02 -0.15067149875E+02  0.77217701885E+02  0.81789712532E+02  0.10000000000E+01 0.  0.
    9000005    1    3    3    0    0  0.22337515222E+02  0.15067149875E+02 -0.40352342656E+02  0.48531383140E+02  0.10000000000E+01 0.  0.
<mgrwt>
<rscale>  0 0.12499813E+03</rscale>
<asrwt>0</asrwt>
<pdfrwt beam="1">  1        4 0.12860497E-01 0.12499813E+03</pdfrwt>
<pdfrwt beam="2">  1       -4 0.71889028E-02 0.12499813E+03</pdfrwt>
<totfact> 0.10338079E+04</totfact>
</mgrwt>
</event>
<event>
 5    1  0.3282316E-002  0.1250147E+03  0.7818608E-02  0.1235046E+00
          4   -1    0    0  501    0  0.00000000000E+00  0.00000000000E+00  0.45025835598E+03  0.45026014706E+03  0.12700000000E+01 0. -1.
         -4   -1    0    0    0  501 -0.00000000000E+00 -0.00000000000E+00 -0.86293338947E+01  0.87222877427E+01  0.12700000000E+01 0. -1.
         25    2    1    2    0    0  0.00000000000E+00  0.00000000000E+00  0.44162902208E+03  0.45898243480E+03  0.12501472837E+03 0.  0.
    9000005    1    3    3    0    0  0.33292764488E+02  0.30931261133E+02  0.63284219221E+02  0.77916901151E+02  0.10000000000E+01 0.  0.
    9000005    1    3    3    0    0 -0.33292764488E+02 -0.30931261133E+02  0.37834480286E+03  0.38106553365E+03  0.10000000000E+01 0.  0.
<mgrwt>
<rscale>  0 0.12501473E+03</rscale>
<asrwt>0</asrwt>
<pdfrwt beam="1">  1        4 0.69277783E-01 0.12501473E+03</pdfrwt>
<pdfrwt beam="2">  1       -4 0.13348783E-02 0.12501473E+03</pdfrwt>
<totfact> 0.59174286E+03</totfact>
</mgrwt>
</event>
<event>
 5    1  0.3282316E-002  0.1250027E+03  0.7818608E-02  0.1235065E+00
         -4   -1    0    0    0  501 -0.00000000000E+00  0.00000000000E+00  0.94212877774E+01  0.95065011116E+01  0.12700000000E+01 0.  1.
          4   -1    0    0  501    0  0.00000000000E+00 -0.00000000000E+00 -0.41268428309E+03  0.41268623724E+03  0.12700000000E+01 0.  1.
         25    2    1    2    0    0  0.00000000000E+00  0.00000000000E+00 -0.40326299531E+03  0.42219273835E+03  0.12500265969E+03 0.  0.
    9000005    1    3    3    0    0  0.57338295505E+02  0.87170479190E+01 -0.12301917362E+03  0.13600876492E+03  0.10000000000E+01 0.  0.
    9000005    1    3    3    0    0 -0.57338295505E+02 -0.87170479190E+01 -0.28024382169E+03  0.28618397344E+03  0.10000000000E+01 0.  0.
<mgrwt>
<rscale>  0 0.12500266E+03</rscale>
<asrwt>0</asrwt>
<pdfrwt beam="2">  1        4 0.63496581E-01 0.12500266E+03</pdfrwt>
<pdfrwt beam="1">  1       -4 0.14561344E-02 0.12500266E+03</pdfrwt>
<totfact> 0.62446447E+03</totfact>
</mgrwt>
</event>
<event>
 5    1  0.3282316E-002  0.1250019E+03  0.7818608E-02  0.1235066E+00
         -4   -1    0    0    0  501 -0.00000000000E+00  0.00000000000E+00  0.19450964696E+02  0.19492381271E+02  0.12700000000E+01 0. -1.
          4   -1    0    0  501    0  0.00000000000E+00 -0.00000000000E+00 -0.20057450469E+03  0.20057852535E+03  0.12700000000E+01 0. -1.
         25    2    1    2    0    0  0.00000000000E+00  0.00000000000E+00 -0.18112353999E+03  0.22007090662E+03  0.12500186879E+03 0.  0.
    9000005    1    3    3    0    0  0.35411582921E+01 -0.49926637686E+02 -0.15643889329E+03  0.16425387754E+03  0.10000000000E+01 0.  0.
    9000005    1    3    3    0    0 -0.35411582921E+01  0.49926637686E+02 -0.24684646705E+02  0.55817029083E+02  0.10000000000E+01 0.  0.
<mgrwt>
<rscale>  0 0.12500187E+03</rscale>
<asrwt>0</asrwt>
<pdfrwt beam="2">  1        4 0.30861110E-01 0.12500187E+03</pdfrwt>
<pdfrwt beam="1">  1       -4 0.29959514E-02 0.12500187E+03</pdfrwt>
<totfact> 0.86853506E+03</totfact>
</mgrwt>
</event>
<event>
 5    1  0.3282316E-002  0.1250015E+03  0.7818608E-02  0.1235067E+00
          4   -1    0    0  501    0  0.00000000000E+00  0.00000000000E+00  0.26947556086E+02  0.26977466134E+02  0.12700000000E+01 0.  1.
         -4   -1    0    0    0  501 -0.00000000000E+00 -0.00000000000E+00 -0.14484788037E+03  0.14485344783E+03  0.12700000000E+01 0.  1.
         25    2    1    2    0    0  0.00000000000E+00  0.00000000000E+00 -0.11790032429E+03  0.17183091396E+03  0.12500150610E+03 0.  0.
    9000005    1    3    3    0    0  0.20629423079E+02 -0.57472616437E+02 -0.77221347161E+02  0.98452075621E+02  0.10000000000E+01 0.  0.
    9000005    1    3    3    0    0 -0.20629423079E+02  0.57472616437E+02 -0.40678977124E+02  0.73378838343E+02  0.10000000000E+01 0.  0.
<mgrwt>
<rscale>  0 0.12500151E+03</rscale>
<asrwt>0</asrwt>
<pdfrwt beam="1">  1        4 0.41485070E-02 0.12500151E+03</pdfrwt>
<pdfrwt beam="2">  1       -4 0.22287018E-01 0.12500151E+03</pdfrwt>
<totfact> 0.95105262E+03</totfact>
</mgrwt>
</event>
<event>
 5    1  0.3282316E-002  0.1249995E+03  0.7818608E-02  0.1235070E+00
         -4   -1    0    0    0  501 -0.00000000000E+00  0.00000000000E+00  0.77557003268E+01  0.78589940552E+01  0.12700000000E+01 0. -1.
          4   -1    0    0  501    0  0.00000000000E+00 -0.00000000000E+00 -0.50022162462E+03  0.50022323681E+03  0.12700000000E+01 0. -1.
         25    2    1    2    0    0  0.00000000000E+00  0.00000000000E+00 -0.49246592430E+03  0.50808223086E+03  0.12499946689E+03 0.  0.
    9000005    1    3    3    0    0  0.16752571512E+02 -0.29882144623E+02 -0.45867302531E+03  0.45995166634E+03  0.10000000000E+01 0.  0.
    9000005    1    3    3    0    0 -0.16752571512E+02  0.29882144623E+02 -0.33792898989E+02  0.48130564526E+02  0.10000000000E+01 0.  0.
<mgrwt>
<rscale>  0 0.12499947E+03</rscale>
<asrwt>0</asrwt>
<pdfrwt beam="2">  1        4 0.76965218E-01 0.12499947E+03</pdfrwt>
<pdfrwt beam="1">  1       -4 0.12012547E-02 0.12499947E+03</pdfrwt>
<totfact> 0.55243351E+03</totfact>
</mgrwt>
</event>
<event>
 5    1  0.3282316E-002  0.1250000E+03  0.7818608E-02  0.1235069E+00
         -4   -1    0    0    0  501 -0.00000000000E+00  0.00000000000E+00  0.90403209359E+03  0.90403298565E+03  0.12700000000E+01 0.  1.
          4   -1    0    0  501    0  0.00000000000E+00 -0.00000000000E+00 -0.42266835699E+01  0.44133608509E+01  0.12700000000E+01 0.  1.
         25    2    1    2    0    0  0.00000000000E+00  0.00000000000E+00  0.89980541002E+03  0.90844634650E+03  0.12499995427E+03 0.  0.
    9000005    1    3    3    0    0 -0.25279700009E+02  0.47066791786E+02  0.21430539074E+03  0.22086680742E+03  0.10000000000E+01 0.  0.
    9000005    1    3    3    0    0  0.25279700009E+02 -0.47066791786E+02  0.68550001928E+03  0.68757953908E+03  0.10000000000E+01 0.  0.
<mgrwt>
<rscale>  0 0.12499995E+03</rscale>
<asrwt>0</asrwt>
<pdfrwt beam="2">  1        4 0.66468761E-03 0.12499995E+03</pdfrwt>
<pdfrwt beam="1">  1       -4 0.13909625E+00 0.12499995E+03</pdfrwt>
<totfact> 0.33838600E+03</totfact>
</mgrwt>
</event>
<event>
 5    1  0.3282316E-002  0.1249976E+03  0.7818608E-02  0.1235073E+00
         -4   -1    0    0    0  501 -0.00000000000E+00  0.00000000000E+00  0.28453496795E+03  0.28453780221E+03  0.12700000000E+01 0.  1.
          4   -1    0    0  501    0  0.00000000000E+00 -0.00000000000E+00 -0.13695724205E+02  0.13754481506E+02  0.12700000000E+01 0.  1.
         25    2    1    2    0    0  0.00000000000E+00  0.00000000000E+00  0.27083924374E+03  0.29829228371E+03  0.12499756226E+03 0.  0.
    9000005    1    3    3    0    0 -0.47427432548E+02  0.40690320833E+02  0.13497910716E+03  0.14874616949E+03  0.10000000000E+01 0.  0.
    9000005    1    3    3    0    0  0.47427432548E+02 -0.40690320833E+02  0.13586013658E+03  0.14954611422E+03  0.10000000000E+01 0.  0.
<mgrwt>
<rscale>  0 0.12499756E+03</rscale>
<asrwt>0</asrwt>
<pdfrwt beam="2">  1        4 0.21117726E-02 0.12499756E+03</pdfrwt>
<pdfrwt beam="1">  1       -4 0.43779342E-01 0.12499756E+03</pdfrwt>
<totfact> 0.75817658E+03</totfact>
</mgrwt>
</event>
<event>
 5    1  0.3282316E-002  0.1250027E+03  0.7818608E-02  0.1235065E+00
          4   -1    0    0  501    0  0.00000000000E+00  0.00000000000E+00  0.48040178896E+01  0.49690530168E+01  0.12700000000E+01 0. -1.
         -4   -1    0    0    0  501 -0.00000000000E+00 -0.00000000000E+00 -0.79925931518E+03  0.79926032418E+03  0.12700000000E+01 0. -1.
         25    2    1    2    0    0  0.00000000000E+00  0.00000000000E+00 -0.79445529729E+03  0.80422937719E+03  0.12500268696E+03 0.  0.
    9000005    1    3    3    0    0 -0.16851643317E+02  0.53424992523E+02 -0.57543178354E+03  0.57815304653E+03  0.10000000000E+01 0.  0.
    9000005    1    3    3    0    0  0.16851643317E+02 -0.53424992523E+02 -0.21902351375E+03  0.22607633066E+03  0.10000000000E+01 0.  0.
<mgrwt>
<rscale>  0 0.12500269E+03</rscale>
<asrwt>0</asrwt>
<pdfrwt beam="1">  1        4 0.75185293E-03 0.12500269E+03</pdfrwt>
<pdfrwt beam="2">  1       -4 0.12297564E+00 0.12500269E+03</pdfrwt>
<totfact> 0.38074404E+03</totfact>
</mgrwt>
</event>
<event>
 5    1  0.3282316E-002  0.1250070E+03  0.7818608E-02  0.1235058E+00
         -4   -1    0    0    0  501 -0.00000000000E+00  0.00000000000E+00  0.34699019787E+02  0.34722253299E+02  0.12700000000E+01 0. -1.
          4   -1    0    0  501    0  0.00000000000E+00 -0.00000000000E+00 -0.11252325165E+03  0.11253041839E+03  0.12700000000E+01 0. -1.
         25    2    1    2    0    0  0.00000000000E+00  0.00000000000E+00 -0.77824231868E+02  0.14725267169E+03  0.12500695282E+03 0.  0.
    9000005    1    3    3    0    0  0.19838086911E+02  0.14460710756E+02  0.28787280140E+02  0.37846655674E+02  0.10000000000E+01 0.  0.
    9000005    1    3    3    0    0 -0.19838086911E+02 -0.14460710756E+02 -0.10661151201E+03  0.10940601602E+03  0.10000000000E+01 0.  0.
<mgrwt>
<rscale>  0 0.12500695E+03</rscale>
<asrwt>0</asrwt>
<pdfrwt beam="2">  1        4 0.17313608E-01 0.12500695E+03</pdfrwt>
<pdfrwt beam="1">  1       -4 0.53406493E-02 0.12500695E+03</pdfrwt>
<totfact> 0.99838555E+03</totfact>
</mgrwt>
</event>
<event>
 5    1  0.3282316E-002  0.1250019E+03  0.7818608E-02  0.1235066E+00
          4   -1    0    0  501    0  0.00000000000E+00  0.00000000000E+00  0.35181050443E+02  0.35203965832E+02  0.12700000000E+01 0. -1.
         -4   -1    0    0    0  501 -0.00000000000E+00 -0.00000000000E+00 -0.11097349841E+03  0.11098076522E+03  0.12700000000E+01 0. -1.
         25    2    1    2    0    0  0.00000000000E+00  0.00000000000E+00 -0.75792447965E+02  0.14618473105E+03  0.12500192168E+03 0.  0.
    9000005    1    3    3    0    0 -0.28934761620E+02  0.50805652346E+02 -0.12090206770E+02  0.59712710875E+02  0.10000000000E+01 0.  0.
    9000005    1    3    3    0    0  0.28934761620E+02 -0.50805652346E+02 -0.63702241195E+02  0.86472020178E+02  0.10000000000E+01 0.  0.
<mgrwt>
<rscale>  0 0.12500192E+03</rscale>
<asrwt>0</asrwt>
<pdfrwt beam="1">  1        4 0.54147910E-02 0.12500192E+03</pdfrwt>
<pdfrwt beam="2">  1       -4 0.17075168E-01 0.12500192E+03</pdfrwt>
<totfact> 0.10006540E+04</totfact>
</mgrwt>
</event>
<event>
 5    1  0.3282316E-002  0.1250002E+03  0.7818608E-02  0.1235069E+00
          4   -1    0    0  501    0  0.00000000000E+00  0.00000000000E+00  0.13755889785E+02  0.13814391184E+02  0.12700000000E+01 0. -1.
         -4   -1    0    0    0  501 -0.00000000000E+00 -0.00000000000E+00 -0.28330780805E+03  0.28331065458E+03  0.12700000000E+01 0. -1.
         25    2    1    2    0    0  0.00000000000E+00  0.00000000000E+00 -0.26955191826E+03  0.29712504577E+03  0.12500022474E+03 0.  0.
    9000005    1    3    3    0    0  0.53278825823E+02 -0.14866351478E+02 -0.65653895334E+02  0.85854968754E+02  0.10000000000E+01 0.  0.
    9000005    1    3    3    0    0 -0.53278825823E+02  0.14866351478E+02 -0.20389802293E+03  0.21127007701E+03  0.10000000000E+01 0.  0.
<mgrwt>
<rscale>  0 0.12500022E+03</rscale>
<asrwt>0</asrwt>
<pdfrwt beam="1">  1        4 0.21210100E-02 0.12500022E+03</pdfrwt>
<pdfrwt beam="2">  1       -4 0.43590531E-01 0.12500022E+03</pdfrwt>
<totfact> 0.75960511E+03</totfact>
</mgrwt>
</event>
<event>
 5    1  0.3282316E-002  0.1249965E+03  0.7818608E-02  0.1235075E+00
          4   -1    0    0  501    0  0.00000000000E+00  0.00000000000E+00  0.27933977323E+03  0.27934266020E+03  0.12700000000E+01 0. -1.
         -4   -1    0    0    0  501 -0.00000000000E+00 -0.00000000000E+00 -0.13951281984E+02  0.14008967450E+02  0.12700000000E+01 0. -1.
         25    2    1    2    0    0  0.00000000000E+00  0.00000000000E+00  0.26538849124E+03  0.29335162765E+03  0.12499650459E+03 0.  0.
    9000005    1    3    3    0    0 -0.13598028973E+02 -0.13301633459E+02  0.27239152825E+03  0.27305674228E+03  0.10000000000E+01 0.  0.
    9000005    1    3    3    0    0  0.13598028973E+02  0.13301633459E+02 -0.70030370062E+01  0.20294885364E+02  0.10000000000E+01 0.  0.
<mgrwt>
<rscale>  0 0.12499650E+03</rscale>
<asrwt>0</asrwt>
<pdfrwt beam="1">  1        4 0.42980013E-01 0.12499650E+03</pdfrwt>
<pdfrwt beam="2">  1       -4 0.21510103E-02 0.12499650E+03</pdfrwt>
<totfact> 0.76446368E+03</totfact>
</mgrwt>
</event>
<event>
 5    1  0.3282316E-002  0.1249932E+03  0.7818608E-02  0.1235080E+00
         -4   -1    0    0    0  501 -0.00000000000E+00  0.00000000000E+00  0.95949371018E+01  0.96786216987E+01  0.12700000000E+01 0.  1.
          4   -1    0    0  501    0  0.00000000000E+00 -0.00000000000E+00 -0.40521913637E+03  0.40522112652E+03  0.12700000000E+01 0.  1.
         25    2    1    2    0    0  0.00000000000E+00  0.00000000000E+00 -0.39562419926E+03  0.41489974822E+03  0.12499317592E+03 0.  0.
    9000005    1    3    3    0    0  0.69469830677E+00  0.54576541829E+02 -0.96816640453E+02  0.11114649519E+03  0.10000000000E+01 0.  0.
    9000005    1    3    3    0    0 -0.69469830677E+00 -0.54576541829E+02 -0.29880755881E+03  0.30375325303E+03  0.10000000000E+01 0.  0.
<mgrwt>
<rscale>  0 0.12499318E+03</rscale>
<asrwt>0</asrwt>
<pdfrwt beam="2">  1        4 0.62347983E-01 0.12499318E+03</pdfrwt>
<pdfrwt beam="1">  1       -4 0.14827349E-02 0.12499318E+03</pdfrwt>
<totfact> 0.63138515E+03</totfact>
</mgrwt>
</event>
<event>
 5    1  0.3282316E-002  0.1250050E+03  0.7818608E-02  0.1235062E+00
         -4   -1    0    0    0  501 -0.00000000000E+00  0.00000000000E+00  0.16521857430E+02  0.16570596638E+02  0.12700000000E+01 0.  1.
          4   -1    0    0  501    0  0.00000000000E+00 -0.00000000000E+00 -0.23604935461E+03  0.23605277103E+03  0.12700000000E+01 0.  1.
         25    2    1    2    0    0  0.00000000000E+00  0.00000000000E+00 -0.21952749718E+03  0.25262336767E+03  0.12500497540E+03 0.  0.
    9000005    1    3    3    0    0  0.57818116035E+02 -0.22163475944E+02 -0.12684091805E+03  0.14115159474E+03  0.10000000000E+01 0.  0.
    9000005    1    3    3    0    0 -0.57818116035E+02  0.22163475944E+02 -0.92686579133E+02  0.11147177293E+03  0.10000000000E+01 0.  0.
<mgrwt>
<rscale>  0 0.12500498E+03</rscale>
<asrwt>0</asrwt>
<pdfrwt beam="2">  1        4 0.36319295E-01 0.12500498E+03</pdfrwt>
<pdfrwt beam="1">  1       -4 0.25458364E-02 0.12500498E+03</pdfrwt>
<totfact> 0.81943462E+03</totfact>
</mgrwt>
</event>
<event>
 5    1  0.3282316E-002  0.1250007E+03  0.7818608E-02  0.1235068E+00
          4   -1    0    0  501    0  0.00000000000E+00  0.00000000000E+00  0.19729122400E+03  0.19729531157E+03  0.12700000000E+01 0. -1.
         -4   -1    0    0    0  501 -0.00000000000E+00 -0.00000000000E+00 -0.19774981928E+02  0.19815721290E+02  0.12700000000E+01 0. -1.
         25    2    1    2    0    0  0.00000000000E+00  0.00000000000E+00  0.17751624207E+03  0.21711103286E+03  0.12500073756E+03 0.  0.
    9000005    1    3    3    0    0 -0.23456584624E+02  0.51358991331E+02  0.13527723798E+03  0.14659088808E+03  0.10000000000E+01 0.  0.
    9000005    1    3    3    0    0  0.23456584624E+02 -0.51358991331E+02  0.42239004091E+02  0.70520144777E+02  0.10000000000E+01 0.  0.
<mgrwt>
<rscale>  0 0.12500074E+03</rscale>
<asrwt>0</asrwt>
<pdfrwt beam="1">  1        4 0.30355944E-01 0.12500074E+03</pdfrwt>
<pdfrwt beam="2">  1       -4 0.30457532E-02 0.12500074E+03</pdfrwt>
<totfact> 0.87326126E+03</totfact>
</mgrwt>
</event>
<event>
 5    1  0.3282316E-002  0.1249770E+03  0.7818608E-02  0.1235105E+00
         -4   -1    0    0    0  501 -0.00000000000E+00  0.00000000000E+00  0.68473139679E+02  0.68484916277E+02  0.12700000000E+01 0.  1.
          4   -1    0    0  501    0  0.00000000000E+00 -0.00000000000E+00 -0.57003148870E+02  0.57017294579E+02  0.12700000000E+01 0.  1.
         25    2    1    2    0    0  0.00000000000E+00  0.00000000000E+00  0.11469990808E+02  0.12550221086E+03  0.12497697484E+03 0.  0.
    9000005    1    3    3    0    0  0.31729467494E+02  0.23670611610E+02 -0.42808145695E+02  0.58314614800E+02  0.10000000000E+01 0.  0.
    9000005    1    3    3    0    0 -0.31729467494E+02 -0.23670611610E+02  0.54278136504E+02  0.67187596056E+02  0.10000000000E+01 0.  0.
<mgrwt>
<rscale>  0 0.12497697E+03</rscale>
<asrwt>0</asrwt>
<pdfrwt beam="2">  1        4 0.87717092E-02 0.12497697E+03</pdfrwt>
<pdfrwt beam="1">  1       -4 0.10536323E-01 0.12497697E+03</pdfrwt>
<totfact> 0.10447330E+04</totfact>
</mgrwt>
</event>
<event>
 5    1  0.3282316E-002  0.1250103E+03  0.7818608E-02  0.1235053E+00
         -4   -1    0    0    0  501 -0.00000000000E+00  0.00000000000E+00  0.77716754941E+02  0.77727131032E+02  0.12700000000E+01 0.  1.
          4   -1    0    0  501    0  0.00000000000E+00 -0.00000000000E+00 -0.50249190234E+02  0.50265236686E+02  0.12700000000E+01 0.  1.
         25    2    1    2    0    0  0.00000000000E+00  0.00000000000E+00  0.27467564707E+02  0.12799236772E+03  0.12501031591E+03 0.  0.
    9000005    1    3    3    0    0  0.59161224322E+02 -0.24130906643E+01 -0.67438517835E+01  0.59601619162E+02  0.10000000000E+01 0.  0.
    9000005    1    3    3    0    0 -0.59161224322E+02  0.24130906643E+01  0.34211416491E+02  0.68390748557E+02  0.10000000000E+01 0.  0.
<mgrwt>
<rscale>  0 0.12501032E+03</rscale>
<asrwt>0</asrwt>
<pdfrwt beam="2">  1        4 0.77326771E-02 0.12501032E+03</pdfrwt>
<pdfrwt beam="1">  1       -4 0.11958456E-01 0.12501032E+03</pdfrwt>
<totfact> 0.10385234E+04</totfact>
</mgrwt>
</event>
<event>
 5    1  0.3282316E-002  0.1250017E+03  0.7818608E-02  0.1235067E+00
          4   -1    0    0  501    0  0.00000000000E+00  0.00000000000E+00  0.17687169083E+02  0.17732705664E+02  0.12700000000E+01 0. -1.
         -4   -1    0    0    0  501 -0.00000000000E+00 -0.00000000000E+00 -0.22052685998E+03  0.22053051687E+03  0.12700000000E+01 0. -1.
         25    2    1    2    0    0  0.00000000000E+00  0.00000000000E+00 -0.20283969089E+03  0.23826322253E+03  0.12500169203E+03 0.  0.
    9000005    1    3    3    0    0 -0.52090295001E+02 -0.34174605629E+02 -0.11076804552E+03  0.12708997762E+03  0.10000000000E+01 0.  0.
    9000005    1    3    3    0    0  0.52090295001E+02  0.34174605629E+02 -0.92071645377E+02  0.11117324492E+03  0.10000000000E+01 0.  0.
<mgrwt>
<rscale>  0 0.12500169E+03</rscale>
<asrwt>0</asrwt>
<pdfrwt beam="1">  1        4 0.27248872E-02 0.12500169E+03</pdfrwt>
<pdfrwt beam="2">  1       -4 0.33930991E-01 0.12500169E+03</pdfrwt>
<totfact> 0.84053541E+03</totfact>
</mgrwt>
</event>
<event>
 5    1  0.3282316E-002  0.1249990E+03  0.7818608E-02  0.1235071E+00
         -4   -1    0    0    0  501 -0.00000000000E+00  0.00000000000E+00  0.90784719285E+02  0.90793601954E+02  0.12700000000E+01 0. -1.
          4   -1    0    0  501    0  0.00000000000E+00 -0.00000000000E+00 -0.43006541595E+02  0.43025289307E+02  0.12700000000E+01 0. -1.
         25    2    1    2    0    0  0.00000000000E+00  0.00000000000E+00  0.47778177690E+02  0.13381889126E+03  0.12499896558E+03 0.  0.
    9000005    1    3    3    0    0 -0.53911079314E+02  0.26811618519E+02  0.59778175348E+01  0.60514474821E+02  0.10000000000E+01 0.  0.
    9000005    1    3    3    0    0  0.53911079314E+02 -0.26811618519E+02  0.41800360155E+02  0.73304416440E+02  0.10000000000E+01 0.  0.
<mgrwt>
<rscale>  0 0.12499897E+03</rscale>
<asrwt>0</asrwt>
<pdfrwt beam="2">  1        4 0.66185165E-02 0.12499897E+03</pdfrwt>
<pdfrwt beam="1">  1       -4 0.13969005E-01 0.12499897E+03</pdfrwt>
<totfact> 0.10263265E+04</totfact>
</mgrwt>
</event>
<event>
 5    1  0.3282316E-002  0.1250040E+03  0.7818608E-02  0.1235063E+00
         -4   -1    0    0    0  501 -0.00000000000E+00  0.00000000000E+00  0.22158081537E+03  0.22158445487E+03  0.12700000000E+01 0. -1.
          4   -1    0    0  501    0  0.00000000000E+00 -0.00000000000E+00 -0.17603486332E+02  0.17649238823E+02  0.12700000000E+01 0. -1.
         25    2    1    2    0    0  0.00000000000E+00  0.00000000000E+00  0.20397732904E+03  0.23923369369E+03  0.12500403768E+03 0.  0.
    9000005    1    3    3    0    0 -0.56881250823E+02 -0.15548125582E+02  0.62382486134E+02  0.85847512955E+02  0.10000000000E+01 0.  0.
    9000005    1    3    3    0    0  0.56881250823E+02  0.15548125582E+02  0.14159484290E+03  0.15338618074E+03  0.10000000000E+01 0.  0.
<mgrwt>
<rscale>  0 0.12500404E+03</rscale>
<asrwt>0</asrwt>
<pdfrwt beam="2">  1        4 0.27120281E-02 0.12500404E+03</pdfrwt>
<pdfrwt beam="1">  1       -4 0.34093156E-01 0.12500404E+03</pdfrwt>
<totfact> 0.83904074E+03</totfact>
</mgrwt>
</event>
<event>
 5    1  0.3282316E-002  0.1249998E+03  0.7818608E-02  0.1235070E+00
         -4   -1    0    0    0  501 -0.00000000000E+00  0.00000000000E+00  0.40262244149E+02  0.40282269101E+02  0.12700000000E+01 0. -1.
          4   -1    0    0  501    0  0.00000000000E+00 -0.00000000000E+00 -0.96971569359E+02  0.96979885357E+02  0.12700000000E+01 0. -1.
         25    2    1    2    0    0  0.00000000000E+00  0.00000000000E+00 -0.56709325210E+02  0.13726215446E+03  0.12499980592E+03 0.  0.
    9000005    1    3    3    0    0 -0.54637897462E+02 -0.29025807821E+02 -0.18691360017E+02  0.64638721352E+02  0.10000000000E+01 0.  0.
    9000005    1    3    3    0    0  0.54637897462E+02  0.29025807821E+02 -0.38017965193E+02  0.72623433106E+02  0.10000000000E+01 0.  0.
<mgrwt>
<rscale>  0 0.12499981E+03</rscale>
<asrwt>0</asrwt>
<pdfrwt beam="2">  1        4 0.14920883E-01 0.12499981E+03</pdfrwt>
<pdfrwt beam="1">  1       -4 0.61963715E-02 0.12499981E+03</pdfrwt>
<totfact> 0.10190652E+04</totfact>
</mgrwt>
</event>
<event>
 5    1  0.3282316E-002  0.1249998E+03  0.7818608E-02  0.1235070E+00
          4   -1    0    0  501    0  0.00000000000E+00  0.00000000000E+00  0.12743285828E+03  0.12743918655E+03  0.12700000000E+01 0.  1.
         -4   -1    0    0    0  501 -0.00000000000E+00 -0.00000000000E+00 -0.30633052929E+02  0.30659367765E+02  0.12700000000E+01 0.  1.
         25    2    1    2    0    0  0.00000000000E+00  0.00000000000E+00  0.96799805351E+02  0.15809855432E+03  0.12499980225E+03 0.  0.
    9000005    1    3    3    0    0 -0.61619669076E+02  0.23053199057E+01  0.61232354708E+02  0.86906267783E+02  0.10000000000E+01 0.  0.
    9000005    1    3    3    0    0  0.61619669076E+02 -0.23053199057E+01  0.35567450643E+02  0.71192286535E+02  0.10000000000E+01 0.  0.
<mgrwt>
<rscale>  0 0.12499980E+03</rscale>
<asrwt>0</asrwt>
<pdfrwt beam="1">  1        4 0.19607566E-01 0.12499980E+03</pdfrwt>
<pdfrwt beam="2">  1       -4 0.47152883E-02 0.12499980E+03</pdfrwt>
<totfact> 0.97711060E+03</totfact>
</mgrwt>
</event>
<event>
 5    1  0.3282316E-002  0.1250202E+03  0.7818608E-02  0.1235038E+00
          4   -1    0    0  501    0  0.00000000000E+00  0.00000000000E+00  0.41566004551E+02  0.41585401698E+02  0.12700000000E+01 0. -1.
         -4   -1    0    0    0  501 -0.00000000000E+00 -0.00000000000E+00 -0.93961776691E+02  0.93970359044E+02  0.12700000000E+01 0. -1.
         25    2    1    2    0    0  0.00000000000E+00  0.00000000000E+00 -0.52395772140E+02  0.13555576074E+03  0.12502018770E+03 0.  0.
    9000005    1    3    3    0    0 -0.49067969237E+02 -0.16332468806E+02  0.11861364087E+02  0.53067005760E+02  0.10000000000E+01 0.  0.
    9000005    1    3    3    0    0  0.49067969237E+02  0.16332468806E+02 -0.64257136227E+02  0.82488754982E+02  0.10000000000E+01 0.  0.
<mgrwt>
<rscale>  0 0.12502019E+03</rscale>
<asrwt>0</asrwt>
<pdfrwt beam="1">  1        4 0.63969222E-02 0.12502019E+03</pdfrwt>
<pdfrwt beam="2">  1       -4 0.14457810E-01 0.12502019E+03</pdfrwt>
<totfact> 0.10221716E+04</totfact>
</mgrwt>
</event>
<event>
 5    1  0.3282316E-002  0.1249544E+03  0.7818608E-02  0.1235140E+00
          4   -1    0    0  501    0  0.00000000000E+00  0.00000000000E+00  0.52622940276E+02  0.52638263110E+02  0.12700000000E+01 0. -1.
         -4   -1    0    0    0  501 -0.00000000000E+00 -0.00000000000E+00 -0.74145280755E+02  0.74156156577E+02  0.12700000000E+01 0. -1.
         25    2    1    2    0    0  0.00000000000E+00  0.00000000000E+00 -0.21522340479E+02  0.12679441969E+03  0.12495444660E+03 0.  0.
    9000005    1    3    3    0    0 -0.25074970141E+02  0.43500679326E+02  0.26952495768E+02  0.56995616125E+02  0.10000000000E+01 0.  0.
    9000005    1    3    3    0    0  0.25074970141E+02 -0.43500679326E+02 -0.48474836247E+02  0.69798803561E+02  0.10000000000E+01 0.  0.
<mgrwt>
<rscale>  0 0.12495445E+03</rscale>
<asrwt>0</asrwt>
<pdfrwt beam="1">  1        4 0.80978522E-02 0.12495445E+03</pdfrwt>
<pdfrwt beam="2">  1       -4 0.11408982E-01 0.12495445E+03</pdfrwt>
<totfact> 0.10424330E+04</totfact>
</mgrwt>
</event>
<event>
 5    1  0.3282316E-002  0.1249965E+03  0.7818608E-02  0.1235075E+00
          4   -1    0    0  501    0  0.00000000000E+00  0.00000000000E+00  0.42869541166E+02  0.42888348765E+02  0.12700000000E+01 0.  1.
         -4   -1    0    0    0  501 -0.00000000000E+00 -0.00000000000E+00 -0.91071160533E+02  0.91080015266E+02  0.12700000000E+01 0.  1.
         25    2    1    2    0    0  0.00000000000E+00  0.00000000000E+00 -0.48201619367E+02  0.13396836403E+03  0.12499650576E+03 0.  0.
    9000005    1    3    3    0    0  0.43316040248E+02  0.38190590472E+02  0.14926984734E+01  0.57775675609E+02  0.10000000000E+01 0.  0.
    9000005    1    3    3    0    0 -0.43316040248E+02 -0.38190590472E+02 -0.49694317840E+02  0.76192688422E+02  0.10000000000E+01 0.  0.
<mgrwt>
<rscale>  0 0.12499651E+03</rscale>
<asrwt>0</asrwt>
<pdfrwt beam="1">  1        4 0.65974419E-02 0.12499651E+03</pdfrwt>
<pdfrwt beam="2">  1       -4 0.14013076E-01 0.12499651E+03</pdfrwt>
<totfact> 0.10260670E+04</totfact>
</mgrwt>
</event>
<event>
 5    1  0.3282316E-002  0.1249964E+03  0.7818608E-02  0.1235075E+00
         -4   -1    0    0    0  501 -0.00000000000E+00  0.00000000000E+00  0.19442469313E+03  0.19442884096E+03  0.12700000000E+01 0. -1.
          4   -1    0    0  501    0  0.00000000000E+00 -0.00000000000E+00 -0.20065733521E+02  0.20105883759E+02  0.12700000000E+01 0. -1.
         25    2    1    2    0    0  0.00000000000E+00  0.00000000000E+00  0.17435895961E+03  0.21453472472E+03  0.12499640521E+03 0.  0.
    9000005    1    3    3    0    0  0.42496302829E+02  0.37912329218E+02  0.13133096987E+03  0.14315063433E+03  0.10000000000E+01 0.  0.
    9000005    1    3    3    0    0 -0.42496302829E+02 -0.37912329218E+02  0.43027989737E+02  0.71384090396E+02  0.10000000000E+01 0.  0.
<mgrwt>
<rscale>  0 0.12499641E+03</rscale>
<asrwt>0</asrwt>
<pdfrwt beam="2">  1        4 0.30904436E-02 0.12499641E+03</pdfrwt>
<pdfrwt beam="1">  1       -4 0.29914897E-01 0.12499641E+03</pdfrwt>
<totfact> 0.87747664E+03</totfact>
</mgrwt>
</event>
<event>
 5    1  0.3282316E-002  0.1250018E+03  0.7818608E-02  0.1235066E+00
          4   -1    0    0  501    0  0.00000000000E+00  0.00000000000E+00  0.58846176768E+02  0.58859879547E+02  0.12700000000E+01 0. -1.
         -4   -1    0    0    0  501 -0.00000000000E+00 -0.00000000000E+00 -0.66355093844E+02  0.66367246282E+02  0.12700000000E+01 0. -1.
         25    2    1    2    0    0  0.00000000000E+00  0.00000000000E+00 -0.75089170758E+01  0.12522712583E+03  0.12500179682E+03 0.  0.
    9000005    1    3    3    0    0  0.64276332115E+01  0.31107013024E+02  0.50160781684E+02  0.59380676547E+02  0.10000000000E+01 0.  0.
    9000005    1    3    3    0    0 -0.64276332115E+01 -0.31107013024E+02 -0.57669698760E+02  0.65846449282E+02  0.10000000000E+01 0.  0.
<mgrwt>
<rscale>  0 0.12500180E+03</rscale>
<asrwt>0</asrwt>
<pdfrwt beam="1">  1        4 0.90552468E-02 0.12500180E+03</pdfrwt>
<pdfrwt beam="2">  1       -4 0.10210465E-01 0.12500180E+03</pdfrwt>
<totfact> 0.10447507E+04</totfact>
</mgrwt>
</event>
<event>
 5    1  0.3282316E-002  0.1249950E+03  0.7818608E-02  0.1235077E+00
          4   -1    0    0  501    0  0.00000000000E+00  0.00000000000E+00  0.10572490579E+04  0.10572498207E+04  0.12700000000E+01 0. -1.
         -4   -1    0    0    0  501 -0.00000000000E+00 -0.00000000000E+00 -0.35845043083E+01  0.38028372482E+01  0.12700000000E+01 0. -1.
         25    2    1    2    0    0  0.00000000000E+00  0.00000000000E+00  0.10536645536E+04  0.10610526579E+04  0.12499500551E+03 0.  0.
    9000005    1    3    3    0    0  0.78290151395E+00 -0.23266807385E+02  0.34558776323E+02  0.41680526407E+02  0.10000000000E+01 0.  0.
    9000005    1    3    3    0    0 -0.78290151395E+00  0.23266807385E+02  0.10191057773E+04  0.10193721315E+04  0.10000000000E+01 0.  0.
<mgrwt>
<rscale>  0 0.12499501E+03</rscale>
<asrwt>0</asrwt>
<pdfrwt beam="1">  1        4 0.16267074E+00 0.12499501E+03</pdfrwt>
<pdfrwt beam="2">  1       -4 0.56831507E-03 0.12499501E+03</pdfrwt>
<totfact> 0.28655241E+03</totfact>
</mgrwt>
</event>
<event>
 5    1  0.3282316E-002  0.1249986E+03  0.7818608E-02  0.1235071E+00
         -4   -1    0    0    0  501 -0.00000000000E+00  0.00000000000E+00  0.16055215203E+03  0.16055717493E+03  0.12700000000E+01 0.  1.
          4   -1    0    0  501    0  0.00000000000E+00 -0.00000000000E+00 -0.24307570750E+02  0.24340725047E+02  0.12700000000E+01 0.  1.
         25    2    1    2    0    0  0.00000000000E+00  0.00000000000E+00  0.13624458128E+03  0.18489789998E+03  0.12499858994E+03 0.  0.
    9000005    1    3    3    0    0 -0.53298004651E+02 -0.12784551935E+02  0.11252391445E+03  0.12516690214E+03  0.10000000000E+01 0.  0.
    9000005    1    3    3    0    0  0.53298004651E+02  0.12784551935E+02  0.23720666832E+02  0.59730997839E+02  0.10000000000E+01 0.  0.
<mgrwt>
<rscale>  0 0.12499859E+03</rscale>
<asrwt>0</asrwt>
<pdfrwt beam="2">  1        4 0.37425630E-02 0.12499859E+03</pdfrwt>
<pdfrwt beam="1">  1       -4 0.24703268E-01 0.12499859E+03</pdfrwt>
<totfact> 0.92745652E+03</totfact>
</mgrwt>
</event>
<event>
 5    1  0.3282316E-002  0.1250001E+03  0.7818608E-02  0.1235069E+00
          4   -1    0    0  501    0  0.00000000000E+00  0.00000000000E+00  0.46007532397E+02  0.46025057711E+02  0.12700000000E+01 0.  1.
         -4   -1    0    0    0  501 -0.00000000000E+00 -0.00000000000E+00 -0.84866255976E+02  0.84875758043E+02  0.12700000000E+01 0.  1.
         25    2    1    2    0    0  0.00000000000E+00  0.00000000000E+00 -0.38858723579E+02  0.13090081575E+03  0.12500009267E+03 0.  0.
    9000005    1    3    3    0    0  0.37699145305E+02 -0.40447488101E+02 -0.49925009865E+02  0.74503231208E+02  0.10000000000E+01 0.  0.
    9000005    1    3    3    0    0 -0.37699145305E+02  0.40447488101E+02  0.11066286285E+02  0.56397584546E+02  0.10000000000E+01 0.  0.
<mgrwt>
<rscale>  0 0.12500009E+03</rscale>
<asrwt>0</asrwt>
<pdfrwt beam="1">  1        4 0.70801609E-02 0.12500009E+03</pdfrwt>
<pdfrwt beam="2">  1       -4 0.13058426E-01 0.12500009E+03</pdfrwt>
<totfact> 0.10325194E+04</totfact>
</mgrwt>
</event>
<event>
 5    1  0.3282316E-002  0.1250007E+03  0.7818608E-02  0.1235068E+00
         -4   -1    0    0    0  501 -0.00000000000E+00  0.00000000000E+00  0.34928008099E+02  0.34951089393E+02  0.12700000000E+01 0.  1.
          4   -1    0    0  501    0  0.00000000000E+00 -0.00000000000E+00 -0.11177472562E+03  0.11178194035E+03  0.12700000000E+01 0.  1.
         25    2    1    2    0    0  0.00000000000E+00  0.00000000000E+00 -0.76846717521E+02  0.14673302974E+03  0.12500065609E+03 0.  0.
    9000005    1    3    3    0    0 -0.35103387839E+02 -0.11754697591E+02 -0.97524172402E+02  0.10431867022E+03  0.10000000000E+01 0.  0.
    9000005    1    3    3    0    0  0.35103387839E+02  0.11754697591E+02  0.20677454881E+02  0.42414359522E+02  0.10000000000E+01 0.  0.
<mgrwt>
<rscale>  0 0.12500066E+03</rscale>
<asrwt>0</asrwt>
<pdfrwt beam="2">  1        4 0.17198442E-01 0.12500066E+03</pdfrwt>
<pdfrwt beam="1">  1       -4 0.53758702E-02 0.12500066E+03</pdfrwt>
<totfact> 0.99957476E+03</totfact>
</mgrwt>
</event>
<event>
 5    1  0.3282316E-002  0.1249997E+03  0.7818608E-02  0.1235070E+00
          4   -1    0    0  501    0  0.00000000000E+00  0.00000000000E+00  0.10222901615E+04  0.10222909504E+04  0.12700000000E+01 0. -1.
         -4   -1    0    0    0  501 -0.00000000000E+00 -0.00000000000E+00 -0.37147223497E+01  0.39258199316E+01  0.12700000000E+01 0. -1.
         25    2    1    2    0    0  0.00000000000E+00  0.00000000000E+00  0.10185754391E+04  0.10262167703E+04  0.12499973760E+03 0.  0.
    9000005    1    3    3    0    0 -0.43102863358E+02  0.37490571256E+02  0.71727717163E+03  0.71954912321E+03  0.10000000000E+01 0.  0.
    9000005    1    3    3    0    0  0.43102863358E+02 -0.37490571256E+02  0.30129826751E+03  0.30666764709E+03  0.10000000000E+01 0.  0.
<mgrwt>
<rscale>  0 0.12499974E+03</rscale>
<asrwt>0</asrwt>
<pdfrwt beam="1">  1        4 0.15729175E+00 0.12499974E+03</pdfrwt>
<pdfrwt beam="2">  1       -4 0.58779455E-03 0.12499974E+03</pdfrwt>
<totfact> 0.29749303E+03</totfact>
</mgrwt>
</event>
<event>
 5    1  0.3282316E-002  0.1250015E+03  0.7818608E-02  0.1235067E+00
         -4   -1    0    0    0  501 -0.00000000000E+00  0.00000000000E+00  0.29184086078E+02  0.29211706219E+02  0.12700000000E+01 0.  1.
          4   -1    0    0  501    0  0.00000000000E+00 -0.00000000000E+00 -0.13375793947E+03  0.13376396851E+03  0.12700000000E+01 0.  1.
         25    2    1    2    0    0  0.00000000000E+00  0.00000000000E+00 -0.10457385340E+03  0.16297567473E+03  0.12500151895E+03 0.  0.
    9000005    1    3    3    0    0 -0.25690182577E+01  0.41076106059E+02 -0.11359968169E+03  0.12082935911E+03  0.10000000000E+01 0.  0.
    9000005    1    3    3    0    0  0.25690182577E+01 -0.41076106059E+02  0.90258282940E+01  0.42146315618E+02  0.10000000000E+01 0.  0.
<mgrwt>
<rscale>  0 0.12500152E+03</rscale>
<asrwt>0</asrwt>
<pdfrwt beam="2">  1        4 0.20580733E-01 0.12500152E+03</pdfrwt>
<pdfrwt beam="1">  1       -4 0.44924479E-02 0.12500152E+03</pdfrwt>
<totfact> 0.96768844E+03</totfact>
</mgrwt>
</event>
<event>
 5    1  0.3282316E-002  0.1250001E+03  0.7818608E-02  0.1235069E+00
          4   -1    0    0  501    0  0.00000000000E+00  0.00000000000E+00  0.35099577119E+01  0.37326536324E+01  0.12700000000E+01 0.  1.
         -4   -1    0    0    0  501 -0.00000000000E+00 -0.00000000000E+00 -0.10784636849E+04  0.10784644327E+04  0.12700000000E+01 0.  1.
         25    2    1    2    0    0  0.00000000000E+00  0.00000000000E+00 -0.10749537272E+04  0.10821970863E+04  0.12500007208E+03 0.  0.
    9000005    1    3    3    0    0 -0.62319982894E+02  0.36532952029E+01 -0.56215879608E+03  0.56561527459E+03  0.10000000000E+01 0.  0.
    9000005    1    3    3    0    0  0.62319982894E+02 -0.36532952029E+01 -0.51279493111E+03  0.51658181173E+03  0.10000000000E+01 0.  0.
<mgrwt>
<rscale>  0 0.12500007E+03</rscale>
<asrwt>0</asrwt>
<pdfrwt beam="1">  1        4 0.55718233E-03 0.12500007E+03</pdfrwt>
<pdfrwt beam="2">  1       -4 0.16593442E+00 0.12500007E+03</pdfrwt>
<totfact> 0.28010362E+03</totfact>
</mgrwt>
</event>
<event>
 5    1  0.3282316E-002  0.1249988E+03  0.7818608E-02  0.1235071E+00
          4   -1    0    0  501    0  0.00000000000E+00  0.00000000000E+00  0.73606303648E+02  0.73617259095E+02  0.12700000000E+01 0.  1.
         -4   -1    0    0    0  501 -0.00000000000E+00 -0.00000000000E+00 -0.53046015006E+02  0.53061215666E+02  0.12700000000E+01 0.  1.
         25    2    1    2    0    0  0.00000000000E+00  0.00000000000E+00  0.20560288642E+02  0.12667847476E+03  0.12499884199E+03 0.  0.
    9000005    1    3    3    0    0  0.83613963053E+01  0.54660545074E+02 -0.19222707384E+02  0.58550837868E+02  0.10000000000E+01 0.  0.
    9000005    1    3    3    0    0 -0.83613963053E+01 -0.54660545074E+02  0.39782996026E+02  0.68127636894E+02  0.10000000000E+01 0.  0.
<mgrwt>
<rscale>  0 0.12499884E+03</rscale>
<asrwt>0</asrwt>
<pdfrwt beam="1">  1        4 0.11326059E-01 0.12499884E+03</pdfrwt>
<pdfrwt beam="2">  1       -4 0.81629374E-02 0.12499884E+03</pdfrwt>
<totfact> 0.10416411E+04</totfact>
</mgrwt>
</event>
<event>
 5    1  0.3282316E-002  0.1249973E+03  0.7818608E-02  0.1235074E+00
         -4   -1    0    0    0  501 -0.00000000000E+00  0.00000000000E+00  0.44167188420E+02  0.44185443677E+02  0.12700000000E+01 0.  1.
          4   -1    0    0  501    0  0.00000000000E+00 -0.00000000000E+00 -0.88397398576E+02  0.88406521111E+02  0.12700000000E+01 0.  1.
         25    2    1    2    0    0  0.00000000000E+00  0.00000000000E+00 -0.44230210156E+02  0.13259196479E+03  0.12499727051E+03 0.  0.
    9000005    1    3    3    0    0  0.58485452835E+02 -0.21989151960E+02 -0.21049894137E+02  0.65940647862E+02  0.10000000000E+01 0.  0.
    9000005    1    3    3    0    0 -0.58485452835E+02  0.21989151960E+02 -0.23180316019E+02  0.66651316926E+02  0.10000000000E+01 0.  0.
<mgrwt>
<rscale>  0 0.12499727E+03</rscale>
<asrwt>0</asrwt>
<pdfrwt beam="2">  1        4 0.13601706E-01 0.12499727E+03</pdfrwt>
<pdfrwt beam="1">  1       -4 0.67970580E-02 0.12499727E+03</pdfrwt>
<totfact> 0.10289713E+04</totfact>
</mgrwt>
</event>
<event>
 5    1  0.3282316E-002  0.1250004E+03  0.7818608E-02  0.1235069E+00
          4   -1    0    0  501    0  0.00000000000E+00  0.00000000000E+00  0.30627330899E+02  0.30653650647E+02  0.12700000000E+01 0.  1.
         -4   -1    0    0    0  501 -0.00000000000E+00 -0.00000000000E+00 -0.12745787647E+03  0.12746420350E+03  0.12700000000E+01 0.  1.
         25    2    1    2    0    0  0.00000000000E+00  0.00000000000E+00 -0.96830545568E+02  0.15811785415E+03  0.12500040498E+03 0.  0.
    9000005    1    3    3    0    0 -0.73950833167E+01  0.61998266638E+02 -0.51714554023E+02  0.81079389620E+02  0.10000000000E+01 0.  0.
    9000005    1    3    3    0    0  0.73950833167E+01 -0.61998266638E+02 -0.45115991545E+02  0.77038464525E+02  0.10000000000E+01 0.  0.
<mgrwt>
<rscale>  0 0.12500040E+03</rscale>
<asrwt>0</asrwt>
<pdfrwt beam="1">  1        4 0.47144084E-02 0.12500040E+03</pdfrwt>
<pdfrwt beam="2">  1       -4 0.19611415E-01 0.12500040E+03</pdfrwt>
<totfact> 0.97705990E+03</totfact>
</mgrwt>
</event>
<event>
 4    1  0.3282316E-002  0.1249138E+03  0.7818608E-02  0.1235204E+00
          4   -1    0    0  501    0  0.00000000000E+00  0.00000000000E+00  0.28995380138E+03  0.28995658268E+03  0.12700000000E+01 0. -1.
         -4   -1    0    0    0  501 -0.00000000000E+00 -0.00000000000E+00 -0.13420579840E+02  0.13480536460E+02  0.12700000000E+01 0. -1.
    9000005    1    1    2    0    0  0.25247451665E+01 -0.32200275992E+02  0.84334948907E+01  0.33396945192E+02  0.10000000000E+01 0.  0.
    9000005    1    1    2    0    0 -0.25247451665E+01  0.32200275992E+02  0.26809972665E+03  0.27004017394E+03  0.10000000000E+01 0.  0.
<mgrwt>
<rscale>  0 0.12491382E+03</rscale>
<asrwt>0</asrwt>
<pdfrwt beam="1">  1        4 0.44613103E-01 0.12491382E+03</pdfrwt>
<pdfrwt beam="2">  1       -4 0.20695306E-02 0.12491382E+03</pdfrwt>
<totfact> 0.75313662E+03</totfact>
</mgrwt>
</event>
<event>
 5    1  0.3282316E-002  0.1249945E+03  0.7818608E-02  0.1235078E+00
         -4   -1    0    0    0  501 -0.00000000000E+00  0.00000000000E+00  0.56623437922E+02  0.56637678467E+02  0.12700000000E+01 0. -1.
          4   -1    0    0  501    0  0.00000000000E+00 -0.00000000000E+00 -0.68951629437E+02  0.68963324326E+02  0.12700000000E+01 0. -1.
         25    2    1    2    0    0  0.00000000000E+00  0.00000000000E+00 -0.12328191515E+02  0.12560100279E+03  0.12499451027E+03 0.  0.
    9000005    1    3    3    0    0 -0.34689132358E+02  0.47578441844E+02 -0.27190800951E+02  0.64864348363E+02  0.10000000000E+01 0.  0.
    9000005    1    3    3    0    0  0.34689132358E+02 -0.47578441844E+02  0.14862609436E+02  0.60736654430E+02  0.10000000000E+01 0.  0.
<mgrwt>
<rscale>  0 0.12499451E+03</rscale>
<asrwt>0</asrwt>
<pdfrwt beam="2">  1        4 0.10609938E-01 0.12499451E+03</pdfrwt>
<pdfrwt beam="1">  1       -4 0.87132932E-02 0.12499451E+03</pdfrwt>
<totfact> 0.10441018E+04</totfact>
</mgrwt>
</event>
<event>
 5    1  0.3282316E-002  0.1249988E+03  0.7818608E-02  0.1235071E+00
         -4   -1    0    0    0  501 -0.00000000000E+00  0.00000000000E+00  0.25531030449E+02  0.25562597986E+02  0.12700000000E+01 0.  1.
          4   -1    0    0  501    0  0.00000000000E+00 -0.00000000000E+00 -0.15286849765E+03  0.15287377301E+03  0.12700000000E+01 0.  1.
         25    2    1    2    0    0  0.00000000000E+00  0.00000000000E+00 -0.12733746721E+03  0.17843637100E+03  0.12499883176E+03 0.  0.
    9000005    1    3    3    0    0 -0.18853961613E+01  0.61643759726E+02 -0.49275047364E+02  0.78946425660E+02  0.10000000000E+01 0.  0.
    9000005    1    3    3    0    0  0.18853961613E+01 -0.61643759726E+02 -0.78062419841E+02  0.99489945338E+02  0.10000000000E+01 0.  0.
<mgrwt>
<rscale>  0 0.12499883E+03</rscale>
<asrwt>0</asrwt>
<pdfrwt beam="2">  1        4 0.23521064E-01 0.12499883E+03</pdfrwt>
<pdfrwt beam="1">  1       -4 0.39306850E-02 0.12499883E+03</pdfrwt>
<totfact> 0.93901681E+03</totfact>
</mgrwt>
</event>
<event>
 5    1  0.3282316E-002  0.1249980E+03  0.7818608E-02  0.1235072E+00
         -4   -1    0    0    0  501 -0.00000000000E+00  0.00000000000E+00  0.98087730112E+02  0.98095951489E+02  0.12700000000E+01 0.  1.
          4   -1    0    0  501    0  0.00000000000E+00 -0.00000000000E+00 -0.39802719574E+02  0.39822975598E+02  0.12700000000E+01 0.  1.
         25    2    1    2    0    0  0.00000000000E+00  0.00000000000E+00  0.58285010538E+02  0.13791892709E+03  0.12499795196E+03 0.  0.
    9000005    1    3    3    0    0 -0.34031902395E+01  0.48235479349E+02 -0.14533074495E+02  0.50502014080E+02  0.10000000000E+01 0.  0.
    9000005    1    3    3    0    0  0.34031902395E+01 -0.48235479349E+02  0.72818085033E+02  0.87416913007E+02  0.10000000000E+01 0.  0.
<mgrwt>
<rscale>  0 0.12499795E+03</rscale>
<asrwt>0</asrwt>
<pdfrwt beam="2">  1        4 0.61256860E-02 0.12499795E+03</pdfrwt>
<pdfrwt beam="1">  1       -4 0.15092610E-01 0.12499795E+03</pdfrwt>
<totfact> 0.10177370E+04</totfact>
</mgrwt>
</event>
<event>
 5    1  0.3282316E-002  0.1250004E+03  0.7818608E-02  0.1235069E+00
         -4   -1    0    0    0  501 -0.00000000000E+00  0.00000000000E+00  0.34340792427E+02  0.34364268136E+02  0.12700000000E+01 0. -1.
          4   -1    0    0  501    0  0.00000000000E+00 -0.00000000000E+00 -0.11368437083E+03  0.11369146437E+03  0.12700000000E+01 0. -1.
         25    2    1    2    0    0  0.00000000000E+00  0.00000000000E+00 -0.79343578400E+02  0.14805573251E+03  0.12500038598E+03 0.  0.
    9000005    1    3    3    0    0 -0.20620360960E+01  0.26487318994E+01 -0.11358332065E+03  0.11363731123E+03  0.10000000000E+01 0.  0.
    9000005    1    3    3    0    0  0.20620360960E+01 -0.26487318994E+01  0.34239742252E+02  0.34418421274E+02  0.10000000000E+01 0.  0.
<mgrwt>
<rscale>  0 0.12500039E+03</rscale>
<asrwt>0</asrwt>
<pdfrwt beam="2">  1        4 0.17492254E-01 0.12500039E+03</pdfrwt>
<pdfrwt beam="1">  1       -4 0.52855504E-02 0.12500039E+03</pdfrwt>
<totfact> 0.99691813E+03</totfact>
</mgrwt>
</event>
<event>
 5    1  0.3282316E-002  0.1250067E+03  0.7818608E-02  0.1235059E+00
          4   -1    0    0  501    0  0.00000000000E+00  0.00000000000E+00  0.31774672100E+03  0.31774925901E+03  0.12700000000E+01 0.  1.
         -4   -1    0    0    0  501 -0.00000000000E+00 -0.00000000000E+00 -0.12259516088E+02  0.12325122097E+02  0.12700000000E+01 0.  1.
         25    2    1    2    0    0  0.00000000000E+00  0.00000000000E+00  0.30548720491E+03  0.33007438111E+03  0.12500665864E+03 0.  0.
    9000005    1    3    3    0    0 -0.43247758967E+02  0.21380655768E+02  0.47848578752E+02  0.67955776688E+02  0.10000000000E+01 0.  0.
    9000005    1    3    3    0    0  0.43247758967E+02 -0.21380655768E+02  0.25763862616E+03  0.26211860442E+03  0.10000000000E+01 0.  0.
<mgrwt>
<rscale>  0 0.12500666E+03</rscale>
<asrwt>0</asrwt>
<pdfrwt beam="1">  1        4 0.48889348E-01 0.12500666E+03</pdfrwt>
<pdfrwt beam="2">  1       -4 0.18913214E-02 0.12500666E+03</pdfrwt>
<totfact> 0.71963103E+03</totfact>
</mgrwt>
</event>
<event>
 5    1  0.3282316E-002  0.1250053E+03  0.7818608E-02  0.1235061E+00
         -4   -1    0    0    0  501 -0.00000000000E+00  0.00000000000E+00  0.14011291024E+03  0.14011866584E+03  0.12700000000E+01 0. -1.
          4   -1    0    0  501    0  0.00000000000E+00 -0.00000000000E+00 -0.27860875047E+02  0.27889805635E+02  0.12700000000E+01 0. -1.
         25    2    1    2    0    0  0.00000000000E+00  0.00000000000E+00  0.11225203519E+03  0.16800847147E+03  0.12500530821E+03 0.  0.
    9000005    1    3    3    0    0  0.19357027109E+02  0.38538564288E+02 -0.46623000844E+01  0.43389543418E+02  0.10000000000E+01 0.  0.
    9000005    1    3    3    0    0 -0.19357027109E+02 -0.38538564288E+02  0.11691433528E+03  0.12461892805E+03  0.10000000000E+01 0.  0.
<mgrwt>
<rscale>  0 0.12500531E+03</rscale>
<asrwt>0</asrwt>
<pdfrwt beam="2">  1        4 0.42889566E-02 0.12500531E+03</pdfrwt>
<pdfrwt beam="1">  1       -4 0.21558501E-01 0.12500531E+03</pdfrwt>
<totfact> 0.95809228E+03</totfact>
</mgrwt>
</event>
<event>
 5    1  0.3282316E-002  0.1249991E+03  0.7818608E-02  0.1235071E+00
         -4   -1    0    0    0  501 -0.00000000000E+00  0.00000000000E+00  0.13742686793E+03  0.13743273601E+03  0.12700000000E+01 0.  1.
          4   -1    0    0  501    0  0.00000000000E+00 -0.00000000000E+00 -0.28403141082E+02  0.28431519892E+02  0.12700000000E+01 0.  1.
         25    2    1    2    0    0  0.00000000000E+00  0.00000000000E+00  0.10902372684E+03  0.16586425590E+03  0.12499911348E+03 0.  0.
    9000005    1    3    3    0    0  0.32621410019E+02 -0.48397145902E+02  0.24877931949E+02  0.63453539075E+02  0.10000000000E+01 0.  0.
    9000005    1    3    3    0    0 -0.32621410019E+02  0.48397145902E+02  0.84145794894E+02  0.10241071683E+03  0.10000000000E+01 0.  0.
<mgrwt>
<rscale>  0 0.12499911E+03</rscale>
<asrwt>0</asrwt>
<pdfrwt beam="2">  1        4 0.43723483E-02 0.12499911E+03</pdfrwt>
<pdfrwt beam="1">  1       -4 0.21145230E-01 0.12499911E+03</pdfrwt>
<totfact> 0.96225882E+03</totfact>
</mgrwt>
</event>
<event>
 5    1  0.3282316E-002  0.1250019E+03  0.7818608E-02  0.1235066E+00
          4   -1    0    0  501    0  0.00000000000E+00  0.00000000000E+00  0.78049175431E+03  0.78049278756E+03  0.12700000000E+01 0. -1.
         -4   -1    0    0    0  501 -0.00000000000E+00 -0.00000000000E+00 -0.49233906285E+01  0.50845526137E+01  0.12700000000E+01 0. -1.
         25    2    1    2    0    0  0.00000000000E+00  0.00000000000E+00  0.77556836368E+03  0.78557734018E+03  0.12500188264E+03 0.  0.
    9000005    1    3    3    0    0  0.14401139217E+02 -0.14893043525E+02  0.17254478014E+02  0.26979854850E+02  0.10000000000E+01 0.  0.
    9000005    1    3    3    0    0 -0.14401139217E+02  0.14893043525E+02  0.75831388566E+03  0.75859748533E+03  0.10000000000E+01 0.  0.
<mgrwt>
<rscale>  0 0.12500188E+03</rscale>
<asrwt>0</asrwt>
<pdfrwt beam="1">  1        4 0.12008814E+00 0.12500188E+03</pdfrwt>
<pdfrwt beam="2">  1       -4 0.76992119E-03 0.12500188E+03</pdfrwt>
<totfact> 0.38915154E+03</totfact>
</mgrwt>
</event>
<event>
 5    1  0.3282316E-002  0.1249998E+03  0.7818608E-02  0.1235070E+00
          4   -1    0    0  501    0  0.00000000000E+00  0.00000000000E+00  0.39739481813E+02  0.39759770054E+02  0.12700000000E+01 0.  1.
         -4   -1    0    0    0  501 -0.00000000000E+00 -0.00000000000E+00 -0.98246580213E+02  0.98254788298E+02  0.12700000000E+01 0.  1.
         25    2    1    2    0    0  0.00000000000E+00  0.00000000000E+00 -0.58507098399E+02  0.13801455835E+03  0.12499975102E+03 0.  0.
    9000005    1    3    3    0    0  0.52843669538E+02 -0.11577929248E+02 -0.63795572700E+02  0.83650325475E+02  0.10000000000E+01 0.  0.
    9000005    1    3    3    0    0 -0.52843669538E+02  0.11577929248E+02  0.52884743002E+01  0.54364232878E+02  0.10000000000E+01 0.  0.
<mgrwt>
<rscale>  0 0.12499975E+03</rscale>
<asrwt>0</asrwt>
<pdfrwt beam="1">  1        4 0.61159585E-02 0.12499975E+03</pdfrwt>
<pdfrwt beam="2">  1       -4 0.15117050E-01 0.12499975E+03</pdfrwt>
<totfact> 0.10174959E+04</totfact>
</mgrwt>
</event>
<event>
 5    1  0.3282316E-002  0.1250024E+03  0.7818608E-02  0.1235066E+00
         -4   -1    0    0    0  501 -0.00000000000E+00  0.00000000000E+00  0.62098043585E+03  0.62098173452E+03  0.12700000000E+01 0. -1.
          4   -1    0    0  501    0  0.00000000000E+00 -0.00000000000E+00 -0.62252755595E+01  0.63534994918E+01  0.12700000000E+01 0. -1.
         25    2    1    2    0    0  0.00000000000E+00  0.00000000000E+00  0.61475516029E+03  0.62733523401E+03  0.12500235490E+03 0.  0.
    9000005    1    3    3    0    0  0.26151402636E+02 -0.54187168973E+02  0.39213853997E+03  0.39672884906E+03  0.10000000000E+01 0.  0.
    9000005    1    3    3    0    0 -0.26151402636E+02  0.54187168973E+02  0.22261662032E+03  0.23060638496E+03  0.10000000000E+01 0.  0.
<mgrwt>
<rscale>  0 0.12500235E+03</rscale>
<asrwt>0</asrwt>
<pdfrwt beam="2">  1        4 0.96769750E-03 0.12500235E+03</pdfrwt>
<pdfrwt beam="1">  1       -4 0.95545462E-01 0.12500235E+03</pdfrwt>
<totfact> 0.47183922E+03</totfact>
</mgrwt>
</event>
<event>
 5    1  0.3282316E-002  0.1250008E+03  0.7818608E-02  0.1235068E+00
          4   -1    0    0  501    0  0.00000000000E+00  0.00000000000E+00  0.54187650537E+03  0.54187799362E+03  0.12700000000E+01 0.  1.
         -4   -1    0    0    0  501 -0.00000000000E+00 -0.00000000000E+00 -0.71513877524E+01  0.72632807178E+01  0.12700000000E+01 0.  1.
         25    2    1    2    0    0  0.00000000000E+00  0.00000000000E+00  0.53472511761E+03  0.54914127434E+03  0.12500075109E+03 0.  0.
    9000005    1    3    3    0    0 -0.52400265247E+02 -0.28343606614E+02  0.35026883253E+03  0.35530044029E+03  0.10000000000E+01 0.  0.
    9000005    1    3    3    0    0  0.52400265247E+02  0.28343606614E+02  0.18445628509E+03  0.19384083404E+03  0.10000000000E+01 0.  0.
<mgrwt>
<rscale>  0 0.12500075E+03</rscale>
<asrwt>0</asrwt>
<pdfrwt beam="1">  1        4 0.83374324E-01 0.12500075E+03</pdfrwt>
<pdfrwt beam="2">  1       -4 0.11089353E-02 0.12500075E+03</pdfrwt>
<totfact> 0.52242979E+03</totfact>
</mgrwt>
</event>
<event>
 5    1  0.3282316E-002  0.1249963E+03  0.7818608E-02  0.1235075E+00
          4   -1    0    0  501    0  0.00000000000E+00  0.00000000000E+00  0.35296072201E+02  0.35318912962E+02  0.12700000000E+01 0. -1.
         -4   -1    0    0    0  501 -0.00000000000E+00 -0.00000000000E+00 -0.11060203632E+03  0.11060932754E+03  0.12700000000E+01 0. -1.
         25    2    1    2    0    0  0.00000000000E+00  0.00000000000E+00 -0.75305964123E+02  0.14592824050E+03  0.12499625252E+03 0.  0.
    9000005    1    3    3    0    0  0.24305845491E-01  0.61650635348E+02 -0.49571057454E+02  0.79114418197E+02  0.10000000000E+01 0.  0.
    9000005    1    3    3    0    0 -0.24305845491E-01 -0.61650635348E+02 -0.25734906669E+02  0.66813822304E+02  0.10000000000E+01 0.  0.
<mgrwt>
<rscale>  0 0.12499625E+03</rscale>
<asrwt>0</asrwt>
<pdfrwt beam="1">  1        4 0.54324828E-02 0.12499625E+03</pdfrwt>
<pdfrwt beam="2">  1       -4 0.17018016E-01 0.12499625E+03</pdfrwt>
<totfact> 0.10013008E+04</totfact>
</mgrwt>
</event>
<event>
 5    1  0.3282316E-002  0.1249985E+03  0.7818608E-02  0.1235072E+00
          4   -1    0    0  501    0  0.00000000000E+00  0.00000000000E+00  0.44150414185E+03  0.44150596845E+03  0.12700000000E+01 0.  1.
         -4   -1    0    0    0  501 -0.00000000000E+00 -0.00000000000E+00 -0.87999524966E+01  0.88911227605E+01  0.12700000000E+01 0.  1.
         25    2    1    2    0    0  0.00000000000E+00  0.00000000000E+00  0.43270418936E+03  0.45039709121E+03  0.12499849711E+03 0.  0.
    9000005    1    3    3    0    0  0.44960027037E+02 -0.43099059684E+02  0.23480364008E+03  0.24292526087E+03  0.10000000000E+01 0.  0.
    9000005    1    3    3    0    0 -0.44960027037E+02  0.43099059684E+02  0.19790054928E+03  0.20747183033E+03  0.10000000000E+01 0.  0.
<mgrwt>
<rscale>  0 0.12499850E+03</rscale>
<asrwt>0</asrwt>
<pdfrwt beam="1">  1        4 0.67930879E-01 0.12499850E+03</pdfrwt>
<pdfrwt beam="2">  1       -4 0.13609922E-02 0.12499850E+03</pdfrwt>
<totfact> 0.59931386E+03</totfact>
</mgrwt>
</event>
<event>
 5    1  0.3282316E-002  0.1249978E+03  0.7818608E-02  0.1235073E+00
         -4   -1    0    0    0  501 -0.00000000000E+00  0.00000000000E+00  0.20674902660E+02  0.20713872163E+02  0.12700000000E+01 0. -1.
          4   -1    0    0  501    0  0.00000000000E+00 -0.00000000000E+00 -0.18871102983E+03  0.18871530325E+03  0.12700000000E+01 0. -1.
         25    2    1    2    0    0  0.00000000000E+00  0.00000000000E+00 -0.16803612717E+03  0.20942917541E+03  0.12499775789E+03 0.  0.
    9000005    1    3    3    0    0 -0.60654430995E+02  0.14148247679E+02 -0.75478629228E+02  0.97862946930E+02  0.10000000000E+01 0.  0.
    9000005    1    3    3    0    0  0.60654430995E+02 -0.14148247679E+02 -0.92557497941E+02  0.11156622848E+03  0.10000000000E+01 0.  0.
<mgrwt>
<rscale>  0 0.12499776E+03</rscale>
<asrwt>0</asrwt>
<pdfrwt beam="2">  1        4 0.29035791E-01 0.12499776E+03</pdfrwt>
<pdfrwt beam="1">  1       -4 0.31840808E-02 0.12499776E+03</pdfrwt>
<totfact> 0.88573629E+03</totfact>
</mgrwt>
</event>
<event>
 5    1  0.3282316E-002  0.1250019E+03  0.7818608E-02  0.1235066E+00
          4   -1    0    0  501    0  0.00000000000E+00  0.00000000000E+00  0.53019266648E+02  0.53034474975E+02  0.12700000000E+01 0.  1.
         -4   -1    0    0    0  501 -0.00000000000E+00 -0.00000000000E+00 -0.73647006924E+02  0.73657956318E+02  0.12700000000E+01 0.  1.
         25    2    1    2    0    0  0.00000000000E+00  0.00000000000E+00 -0.20627740276E+02  0.12669243129E+03  0.12500187390E+03 0.  0.
    9000005    1    3    3    0    0 -0.16419475974E+02 -0.11906739716E+02  0.49595594762E+02  0.53591908547E+02  0.10000000000E+01 0.  0.
    9000005    1    3    3    0    0  0.16419475974E+02  0.11906739716E+02 -0.70223335038E+02  0.73100522746E+02  0.10000000000E+01 0.  0.
<mgrwt>
<rscale>  0 0.12500187E+03</rscale>
<asrwt>0</asrwt>
<pdfrwt beam="1">  1        4 0.81588224E-02 0.12500187E+03</pdfrwt>
<pdfrwt beam="2">  1       -4 0.11332321E-01 0.12500187E+03</pdfrwt>
<totfact> 0.10415394E+04</totfact>
</mgrwt>
</event>
<event>
 5    1  0.3282316E-002  0.1249955E+03  0.7818608E-02  0.1235076E+00
         -4   -1    0    0    0  501 -0.00000000000E+00  0.00000000000E+00  0.21761728502E+03  0.21762099080E+03  0.12700000000E+01 0.  1.
          4   -1    0    0  501    0  0.00000000000E+00 -0.00000000000E+00 -0.17922455408E+02  0.17967395689E+02  0.12700000000E+01 0.  1.
         25    2    1    2    0    0  0.00000000000E+00  0.00000000000E+00  0.19969482961E+03  0.23558838649E+03  0.12499545143E+03 0.  0.
    9000005    1    3    3    0    0 -0.27430692550E+02  0.32246275627E+02  0.18647947440E+03  0.19122724585E+03  0.10000000000E+01 0.  0.
    9000005    1    3    3    0    0  0.27430692550E+02 -0.32246275627E+02  0.13215355215E+02  0.44361140641E+02  0.10000000000E+01 0.  0.
<mgrwt>
<rscale>  0 0.12499545E+03</rscale>
<asrwt>0</asrwt>
<pdfrwt beam="2">  1        4 0.27610430E-02 0.12499545E+03</pdfrwt>
<pdfrwt beam="1">  1       -4 0.33483323E-01 0.12499545E+03</pdfrwt>
<totfact> 0.84467385E+03</totfact>
</mgrwt>
</event>
<event>
 5    1  0.3282316E-002  0.1249959E+03  0.7818608E-02  0.1235076E+00
         -4   -1    0    0    0  501 -0.00000000000E+00  0.00000000000E+00  0.49614774522E+03  0.49614937064E+03  0.12700000000E+01 0.  1.
          4   -1    0    0  501    0  0.00000000000E+00 -0.00000000000E+00 -0.78197805759E+01  0.79222388411E+01  0.12700000000E+01 0.  1.
         25    2    1    2    0    0  0.00000000000E+00  0.00000000000E+00  0.48832796464E+03  0.50407160948E+03  0.12499594566E+03 0.  0.
    9000005    1    3    3    0    0 -0.20137246171E+02 -0.51109448575E+02  0.12403866849E+03  0.13566235918E+03  0.10000000000E+01 0.  0.
    9000005    1    3    3    0    0  0.20137246171E+02  0.51109448575E+02  0.36428929615E+03  0.36840925030E+03  0.10000000000E+01 0.  0.
<mgrwt>
<rscale>  0 0.12499595E+03</rscale>
<asrwt>0</asrwt>
<pdfrwt beam="2">  1        4 0.12110495E-02 0.12499595E+03</pdfrwt>
<pdfrwt beam="1">  1       -4 0.76338438E-01 0.12499595E+03</pdfrwt>
<totfact> 0.55554784E+03</totfact>
</mgrwt>
</event>
<event>
 5    1  0.3282316E-002  0.1250183E+03  0.7818608E-02  0.1235041E+00
         -4   -1    0    0    0  501 -0.00000000000E+00  0.00000000000E+00  0.48302558096E+02  0.48319251014E+02  0.12700000000E+01 0. -1.
          4   -1    0    0  501    0  0.00000000000E+00 -0.00000000000E+00 -0.80858514941E+02  0.80868487920E+02  0.12700000000E+01 0. -1.
         25    2    1    2    0    0  0.00000000000E+00  0.00000000000E+00 -0.32555956846E+02  0.12918773893E+03  0.12501832492E+03 0.  0.
    9000005    1    3    3    0    0 -0.29727180081E+02  0.53221661642E+02 -0.20287959431E+01  0.61003004160E+02  0.10000000000E+01 0.  0.
    9000005    1    3    3    0    0  0.29727180081E+02 -0.53221661642E+02 -0.30527160902E+02  0.68184734775E+02  0.10000000000E+01 0.  0.
<mgrwt>
<rscale>  0 0.12501832E+03</rscale>
<asrwt>0</asrwt>
<pdfrwt beam="2">  1        4 0.12441823E-01 0.12501832E+03</pdfrwt>
<pdfrwt beam="1">  1       -4 0.74332140E-02 0.12501832E+03</pdfrwt>
<totfact> 0.10357629E+04</totfact>
</mgrwt>
</event>
<event>
 5    1  0.3282316E-002  0.1250011E+03  0.7818608E-02  0.1235068E+00
          4   -1    0    0  501    0  0.00000000000E+00  0.00000000000E+00  0.79988909076E+02  0.79998990463E+02  0.12700000000E+01 0. -1.
         -4   -1    0    0    0  501 -0.00000000000E+00 -0.00000000000E+00 -0.48814366634E+02  0.48830884590E+02  0.12700000000E+01 0. -1.
         25    2    1    2    0    0  0.00000000000E+00  0.00000000000E+00  0.31174542442E+02  0.12882987505E+03  0.12500113843E+03 0.  0.
    9000005    1    3    3    0    0  0.46654005728E+02  0.14084723199E+02 -0.24730578249E+02  0.54658733782E+02  0.10000000000E+01 0.  0.
    9000005    1    3    3    0    0 -0.46654005728E+02 -0.14084723199E+02  0.55905120691E+02  0.74171141272E+02  0.10000000000E+01 0.  0.
<mgrwt>
<rscale>  0 0.12500114E+03</rscale>
<asrwt>0</asrwt>
<pdfrwt beam="1">  1        4 0.12308032E-01 0.12500114E+03</pdfrwt>
<pdfrwt beam="2">  1       -4 0.75119487E-02 0.12500114E+03</pdfrwt>
<totfact> 0.10369337E+04</totfact>
</mgrwt>
</event>
<event>
 5    1  0.3282316E-002  0.1250004E+03  0.7818608E-02  0.1235069E+00
         -4   -1    0    0    0  501 -0.00000000000E+00  0.00000000000E+00  0.42465177056E+01  0.44323597128E+01  0.12700000000E+01 0. -1.
          4   -1    0    0  501    0  0.00000000000E+00 -0.00000000000E+00 -0.89999405682E+03  0.89999495288E+03  0.12700000000E+01 0. -1.
         25    2    1    2    0    0  0.00000000000E+00  0.00000000000E+00 -0.89574753911E+03  0.90442731259E+03  0.12500043974E+03 0.  0.
    9000005    1    3    3    0    0 -0.36400620693E+02 -0.13984360829E+02 -0.94544260450E+02  0.10227504446E+03  0.10000000000E+01 0.  0.
    9000005    1    3    3    0    0  0.36400620693E+02  0.13984360829E+02 -0.80120327866E+03  0.80215226813E+03  0.10000000000E+01 0.  0.
<mgrwt>
<rscale>  0 0.12500044E+03</rscale>
<asrwt>0</asrwt>
<pdfrwt beam="2">  1        4 0.13847484E+00 0.12500044E+03</pdfrwt>
<pdfrwt beam="1">  1       -4 0.66767560E-03 0.12500044E+03</pdfrwt>
<totfact> 0.33990666E+03</totfact>
</mgrwt>
</event>
<event>
 5    1  0.3282316E-002  0.1250001E+03  0.7818608E-02  0.1235069E+00
          4   -1    0    0  501    0  0.00000000000E+00  0.00000000000E+00  0.12320390214E+02  0.12385673782E+02  0.12700000000E+01 0. -1.
         -4   -1    0    0    0  501 -0.00000000000E+00 -0.00000000000E+00 -0.31615167114E+03  0.31615422196E+03  0.12700000000E+01 0. -1.
         25    2    1    2    0    0  0.00000000000E+00  0.00000000000E+00 -0.30383128092E+03  0.32853989574E+03  0.12500006330E+03 0.  0.
    9000005    1    3    3    0    0  0.20108055986E+02  0.33982127906E+02 -0.27922325587E+03  0.28200309493E+03  0.10000000000E+01 0.  0.
    9000005    1    3    3    0    0 -0.20108055986E+02 -0.33982127906E+02 -0.24608025054E+02  0.46536800810E+02  0.10000000000E+01 0.  0.
<mgrwt>
<rscale>  0 0.12500006E+03</rscale>
<asrwt>0</asrwt>
<pdfrwt beam="1">  1        4 0.19006629E-02 0.12500006E+03</pdfrwt>
<pdfrwt beam="2">  1       -4 0.48643931E-01 0.12500006E+03</pdfrwt>
<totfact> 0.72151701E+03</totfact>
</mgrwt>
</event>
<event>
 4    1  0.3282316E-002  0.1247354E+03  0.7818608E-02  0.1235483E+00
          4   -1    0    0  501    0  0.00000000000E+00  0.00000000000E+00  0.21932826221E+02  0.21969564540E+02  0.12700000000E+01 0. -1.
         -4   -1    0    0    0  501 -0.00000000000E+00 -0.00000000000E+00 -0.17716000166E+03  0.17716455370E+03  0.12700000000E+01 0. -1.
    9000005    1    1    2    0    0  0.13766726684E+02  0.60646939020E+02 -0.84956623805E+02  0.10529103430E+03  0.10000000000E+01 0.  0.
    9000005    1    1    2    0    0 -0.13766726684E+02 -0.60646939020E+02 -0.70270551631E+02  0.93843083936E+02  0.10000000000E+01 0.  0.
<mgrwt>
<rscale>  0 0.12473540E+03</rscale>
<asrwt>0</asrwt>
<pdfrwt beam="1">  1        4 0.33774572E-02 0.12473540E+03</pdfrwt>
<pdfrwt beam="2">  1       -4 0.27258560E-01 0.12473540E+03</pdfrwt>
<totfact> 0.90818434E+03</totfact>
</mgrwt>
</event>
<event>
 5    1  0.3282316E-002  0.1249998E+03  0.7818608E-02  0.1235070E+00
          4   -1    0    0  501    0  0.00000000000E+00  0.00000000000E+00  0.12072913160E+02  0.12139527675E+02  0.12700000000E+01 0. -1.
         -4   -1    0    0    0  501 -0.00000000000E+00 -0.00000000000E+00 -0.32259591618E+03  0.32259841605E+03  0.12700000000E+01 0. -1.
         25    2    1    2    0    0  0.00000000000E+00  0.00000000000E+00 -0.31052300302E+03  0.33473794373E+03  0.12499982225E+03 0.  0.
    9000005    1    3    3    0    0 -0.88781301547E+01  0.36561548369E+02 -0.21643024279E+02  0.43416454416E+02  0.10000000000E+01 0.  0.
    9000005    1    3    3    0    0  0.88781301547E+01 -0.36561548369E+02 -0.28887997874E+03  0.29132148931E+03  0.10000000000E+01 0.  0.
<mgrwt>
<rscale>  0 0.12499982E+03</rscale>
<asrwt>0</asrwt>
<pdfrwt beam="1">  1        4 0.18626880E-02 0.12499982E+03</pdfrwt>
<pdfrwt beam="2">  1       -4 0.49635451E-01 0.12499982E+03</pdfrwt>
<totfact> 0.71437145E+03</totfact>
</mgrwt>
</event>
<event>
 5    1  0.3282316E-002  0.1249995E+03  0.7818608E-02  0.1235070E+00
          4   -1    0    0  501    0  0.00000000000E+00  0.00000000000E+00  0.19536576407E+03  0.19536989192E+03  0.12700000000E+01 0. -1.
         -4   -1    0    0    0  501 -0.00000000000E+00 -0.00000000000E+00 -0.19969891049E+02  0.20010233595E+02  0.12700000000E+01 0. -1.
         25    2    1    2    0    0  0.00000000000E+00  0.00000000000E+00  0.17539587302E+03  0.21538012552E+03  0.12499954478E+03 0.  0.
    9000005    1    3    3    0    0 -0.36732603782E+02 -0.35551481029E+02  0.14963254835E+03  0.15812682096E+03  0.10000000000E+01 0.  0.
    9000005    1    3    3    0    0  0.36732603782E+02  0.35551481029E+02  0.25763324672E+02  0.57253304552E+02  0.10000000000E+01 0.  0.
<mgrwt>
<rscale>  0 0.12499954E+03</rscale>
<asrwt>0</asrwt>
<pdfrwt beam="1">  1        4 0.30059691E-01 0.12499954E+03</pdfrwt>
<pdfrwt beam="2">  1       -4 0.30757118E-02 0.12499954E+03</pdfrwt>
<totfact> 0.87605596E+03</totfact>
</mgrwt>
</event>
<event>
 5    1  0.3282316E-002  0.1249972E+03  0.7818608E-02  0.1235074E+00
          4   -1    0    0  501    0  0.00000000000E+00  0.00000000000E+00  0.13813811027E+02  0.13872068162E+02  0.12700000000E+01 0. -1.
         -4   -1    0    0    0  501 -0.00000000000E+00 -0.00000000000E+00 -0.28211119268E+03  0.28211405129E+03  0.12700000000E+01 0. -1.
         25    2    1    2    0    0  0.00000000000E+00  0.00000000000E+00 -0.26829738165E+03  0.29598611945E+03  0.12499719159E+03 0.  0.
    9000005    1    3    3    0    0  0.39899906740E+02 -0.34109986089E+02 -0.53862503545E+02  0.75217438117E+02  0.10000000000E+01 0.  0.
    9000005    1    3    3    0    0 -0.39899906740E+02  0.34109986089E+02 -0.21443487810E+03  0.22076868133E+03  0.10000000000E+01 0.  0.
<mgrwt>
<rscale>  0 0.12499719E+03</rscale>
<asrwt>0</asrwt>
<pdfrwt beam="1">  1        4 0.21299031E-02 0.12499719E+03</pdfrwt>
<pdfrwt beam="2">  1       -4 0.43406419E-01 0.12499719E+03</pdfrwt>
<totfact> 0.76109855E+03</totfact>
</mgrwt>
</event>
<event>
 5    1  0.3282316E-002  0.1249823E+03  0.7818608E-02  0.1235097E+00
          4   -1    0    0  501    0  0.00000000000E+00  0.00000000000E+00  0.10175098625E+03  0.10175891166E+03  0.12700000000E+01 0.  1.
         -4   -1    0    0    0  501 -0.00000000000E+00 -0.00000000000E+00 -0.38359493889E+02  0.38380511610E+02  0.12700000000E+01 0.  1.
         25    2    1    2    0    0  0.00000000000E+00  0.00000000000E+00  0.63391492360E+02  0.14013942327E+03  0.12498230535E+03 0.  0.
    9000005    1    3    3    0    0 -0.40672494153E+02 -0.33912322635E+02  0.68881610792E+02  0.86890584717E+02  0.10000000000E+01 0.  0.
    9000005    1    3    3    0    0  0.40672494153E+02  0.33912322635E+02 -0.54901184323E+01  0.53248838555E+02  0.10000000000E+01 0.  0.
<mgrwt>
<rscale>  0 0.12498231E+03</rscale>
<asrwt>0</asrwt>
<pdfrwt beam="1">  1        4 0.15656224E-01 0.12498231E+03</pdfrwt>
<pdfrwt beam="2">  1       -4 0.59036870E-02 0.12498231E+03</pdfrwt>
<totfact> 0.10134737E+04</totfact>
</mgrwt>
</event>
<event>
 5    1  0.3282316E-002  0.1250006E+03  0.7818608E-02  0.1235068E+00
         -4   -1    0    0    0  501 -0.00000000000E+00  0.00000000000E+00  0.69581017763E+02  0.69592606884E+02  0.12700000000E+01 0.  1.
          4   -1    0    0  501    0  0.00000000000E+00 -0.00000000000E+00 -0.56116659982E+02  0.56131029097E+02  0.12700000000E+01 0.  1.
         25    2    1    2    0    0  0.00000000000E+00  0.00000000000E+00  0.13464357781E+02  0.12572363598E+03  0.12500057485E+03 0.  0.
    9000005    1    3    3    0    0 -0.28523980008E+02 -0.55586014786E+02  0.53591990346E+01  0.62714778877E+02  0.10000000000E+01 0.  0.
    9000005    1    3    3    0    0  0.28523980008E+02  0.55586014786E+02  0.81051587462E+01  0.63008857104E+02  0.10000000000E+01 0.  0.
<mgrwt>
<rscale>  0 0.12500057E+03</rscale>
<asrwt>0</asrwt>
<pdfrwt beam="2">  1        4 0.86353292E-02 0.12500057E+03</pdfrwt>
<pdfrwt beam="1">  1       -4 0.10706769E-01 0.12500057E+03</pdfrwt>
<totfact> 0.10436889E+04</totfact>
</mgrwt>
</event>
<event>
 5    1  0.3282316E-002  0.1250015E+03  0.7818608E-02  0.1235067E+00
         -4   -1    0    0    0  501 -0.00000000000E+00  0.00000000000E+00  0.78046604174E+02  0.78056936419E+02  0.12700000000E+01 0. -1.
          4   -1    0    0  501    0  0.00000000000E+00 -0.00000000000E+00 -0.50029692847E+02  0.50045809678E+02  0.12700000000E+01 0. -1.
         25    2    1    2    0    0  0.00000000000E+00  0.00000000000E+00  0.28016911328E+02  0.12810274610E+03  0.12500146494E+03 0.  0.
    9000005    1    3    3    0    0 -0.30026876317E+02  0.38257049952E+02  0.54226552718E+02  0.72847334831E+02  0.10000000000E+01 0.  0.
    9000005    1    3    3    0    0  0.30026876317E+02 -0.38257049952E+02 -0.26209641390E+02  0.55255411266E+02  0.10000000000E+01 0.  0.
<mgrwt>
<rscale>  0 0.12500146E+03</rscale>
<asrwt>0</asrwt>
<pdfrwt beam="2">  1        4 0.76989104E-02 0.12500146E+03</pdfrwt>
<pdfrwt beam="1">  1       -4 0.12009204E-01 0.12500146E+03</pdfrwt>
<totfact> 0.10384926E+04</totfact>
</mgrwt>
</event>
<event>
 5    1  0.3282316E-002  0.1249996E+03  0.7818608E-02  0.1235070E+00
         -4   -1    0    0    0  501 -0.00000000000E+00  0.00000000000E+00  0.19444356628E+03  0.19444771371E+03  0.12700000000E+01 0.  1.
          4   -1    0    0  501    0  0.00000000000E+00 -0.00000000000E+00 -0.20064800324E+02  0.20104952426E+02  0.12700000000E+01 0.  1.
         25    2    1    2    0    0  0.00000000000E+00  0.00000000000E+00  0.17437876595E+03  0.21455266613E+03  0.12499957012E+03 0.  0.
    9000005    1    3    3    0    0 -0.56505968406E+02  0.64470802861E+01  0.42736441920E+02  0.71146980103E+02  0.10000000000E+01 0.  0.
    9000005    1    3    3    0    0  0.56505968406E+02 -0.64470802861E+01  0.13164232403E+03  0.14340568603E+03  0.10000000000E+01 0.  0.
<mgrwt>
<rscale>  0 0.12499957E+03</rscale>
<asrwt>0</asrwt>
<pdfrwt beam="2">  1        4 0.30903002E-02 0.12499957E+03</pdfrwt>
<pdfrwt beam="1">  1       -4 0.29917800E-01 0.12499957E+03</pdfrwt>
<totfact> 0.87738571E+03</totfact>
</mgrwt>
</event>
<event>
 5    1  0.3282316E-002  0.1249978E+03  0.7818608E-02  0.1235073E+00
         -4   -1    0    0    0  501 -0.00000000000E+00  0.00000000000E+00  0.39804793081E+02  0.39825048050E+02  0.12700000000E+01 0. -1.
          4   -1    0    0  501    0  0.00000000000E+00 -0.00000000000E+00 -0.98082335024E+02  0.98090556854E+02  0.12700000000E+01 0. -1.
         25    2    1    2    0    0  0.00000000000E+00  0.00000000000E+00 -0.58277541944E+02  0.13791560490E+03  0.12499776870E+03 0.  0.
    9000005    1    3    3    0    0 -0.56785115589E+02 -0.13422306390E+02 -0.44572993951E+01  0.58528413435E+02  0.10000000000E+01 0.  0.
    9000005    1    3    3    0    0  0.56785115589E+02  0.13422306390E+02 -0.53820242549E+02  0.79387191469E+02  0.10000000000E+01 0.  0.
<mgrwt>
<rscale>  0 0.12499777E+03</rscale>
<asrwt>0</asrwt>
<pdfrwt beam="2">  1        4 0.15091780E-01 0.12499777E+03</pdfrwt>
<pdfrwt beam="1">  1       -4 0.61260049E-02 0.12499777E+03</pdfrwt>
<totfact> 0.10177482E+04</totfact>
</mgrwt>
</event>
<event>
 5    1  0.3282316E-002  0.1249983E+03  0.7818608E-02  0.1235072E+00
          4   -1    0    0  501    0  0.00000000000E+00  0.00000000000E+00  0.14249402128E+03  0.14249968071E+03  0.12700000000E+01 0.  1.
         -4   -1    0    0    0  501 -0.00000000000E+00 -0.00000000000E+00 -0.27391766513E+02  0.27421192037E+02  0.12700000000E+01 0.  1.
         25    2    1    2    0    0  0.00000000000E+00  0.00000000000E+00  0.11510225477E+03  0.16992087274E+03  0.12499829575E+03 0.  0.
    9000005    1    3    3    0    0 -0.40920525329E+02 -0.29009516372E+02  0.10821632193E+03  0.11928039976E+03  0.10000000000E+01 0.  0.
    9000005    1    3    3    0    0  0.40920525329E+02  0.29009516372E+02  0.68859328375E+01  0.50640472987E+02  0.10000000000E+01 0.  0.
<mgrwt>
<rscale>  0 0.12499830E+03</rscale>
<asrwt>0</asrwt>
<pdfrwt beam="1">  1        4 0.21924856E-01 0.12499830E+03</pdfrwt>
<pdfrwt beam="2">  1       -4 0.42168168E-02 0.12499830E+03</pdfrwt>
<totfact> 0.95467038E+03</totfact>
</mgrwt>
</event>
<event>
 5    1  0.3282316E-002  0.1250038E+03  0.7818608E-02  0.1235063E+00
          4   -1    0    0  501    0  0.00000000000E+00  0.00000000000E+00  0.95835040057E+01  0.96672875735E+01  0.12700000000E+01 0. -1.
         -4   -1    0    0    0  501 -0.00000000000E+00 -0.00000000000E+00 -0.40576706724E+03  0.40576905470E+03  0.12700000000E+01 0. -1.
         25    2    1    2    0    0  0.00000000000E+00  0.00000000000E+00 -0.39618356323E+03  0.41543634228E+03  0.12500375478E+03 0.  0.
    9000005    1    3    3    0    0  0.22375916413E+02  0.42364771892E+02 -0.64740161494E+02  0.80546533401E+02  0.10000000000E+01 0.  0.
    9000005    1    3    3    0    0 -0.22375916413E+02 -0.42364771892E+02 -0.33144340174E+03  0.33488980888E+03  0.10000000000E+01 0.  0.
<mgrwt>
<rscale>  0 0.12500375E+03</rscale>
<asrwt>0</asrwt>
<pdfrwt beam="1">  1        4 0.14809833E-02 0.12500375E+03</pdfrwt>
<pdfrwt beam="2">  1       -4 0.62432287E-01 0.12500375E+03</pdfrwt>
<totfact> 0.63073437E+03</totfact>
</mgrwt>
</event>
<event>
 5    1  0.3282316E-002  0.1249986E+03  0.7818608E-02  0.1235071E+00
          4   -1    0    0  501    0  0.00000000000E+00  0.00000000000E+00  0.57574381563E+02  0.57588386957E+02  0.12700000000E+01 0. -1.
         -4   -1    0    0    0  501 -0.00000000000E+00 -0.00000000000E+00 -0.67817316958E+02  0.67829207421E+02  0.12700000000E+01 0. -1.
         25    2    1    2    0    0  0.00000000000E+00  0.00000000000E+00 -0.10242935395E+02  0.12541759438E+03  0.12499862101E+03 0.  0.
    9000005    1    3    3    0    0  0.47190159458E+02 -0.40888734886E+02 -0.25903104768E+01  0.62502075955E+02  0.10000000000E+01 0.  0.
    9000005    1    3    3    0    0 -0.47190159458E+02  0.40888734886E+02 -0.76526249178E+01  0.62915518423E+02  0.10000000000E+01 0.  0.
<mgrwt>
<rscale>  0 0.12499862E+03</rscale>
<asrwt>0</asrwt>
<pdfrwt beam="1">  1        4 0.88595891E-02 0.12499862E+03</pdfrwt>
<pdfrwt beam="2">  1       -4 0.10435425E-01 0.12499862E+03</pdfrwt>
<totfact> 0.10444102E+04</totfact>
</mgrwt>
</event>
<event>
 5    1  0.3282316E-002  0.1249952E+03  0.7818608E-02  0.1235077E+00
          4   -1    0    0  501    0  0.00000000000E+00  0.00000000000E+00  0.12957582791E+04  0.12957589015E+04  0.12700000000E+01 0. -1.
         -4   -1    0    0    0  501 -0.00000000000E+00 -0.00000000000E+00 -0.28799980206E+01  0.31475845658E+01  0.12700000000E+01 0. -1.
         25    2    1    2    0    0  0.00000000000E+00  0.00000000000E+00  0.12928782811E+04  0.12989064860E+04  0.12499523909E+03 0.  0.
    9000005    1    3    3    0    0 -0.30223125365E+02 -0.54613174754E+02  0.67746875634E+03  0.68033885085E+03  0.10000000000E+01 0.  0.
    9000005    1    3    3    0    0  0.30223125365E+02  0.54613174754E+02  0.61540952471E+03  0.61856763516E+03  0.10000000000E+01 0.  0.
<mgrwt>
<rscale>  0 0.12499524E+03</rscale>
<asrwt>0</asrwt>
<pdfrwt beam="1">  1        4 0.19936810E+00 0.12499524E+03</pdfrwt>
<pdfrwt beam="2">  1       -4 0.46370797E-03 0.12499524E+03</pdfrwt>
<totfact> 0.22256643E+03</totfact>
</mgrwt>
</event>
<event>
 5    1  0.3282316E-002  0.1249998E+03  0.7818608E-02  0.1235070E+00
         -4   -1    0    0    0  501 -0.00000000000E+00  0.00000000000E+00  0.79375020460E+03  0.79375122060E+03  0.12700000000E+01 0.  1.
          4   -1    0    0  501    0  0.00000000000E+00 -0.00000000000E+00 -0.48382725357E+01  0.50021776387E+01  0.12700000000E+01 0.  1.
         25    2    1    2    0    0  0.00000000000E+00  0.00000000000E+00  0.78891193207E+03  0.79875339824E+03  0.12499981857E+03 0.  0.
    9000005    1    3    3    0    0  0.60786904217E+02  0.37759605086E+01  0.30501073393E+03  0.31103352458E+03  0.10000000000E+01 0.  0.
    9000005    1    3    3    0    0 -0.60786904217E+02 -0.37759605086E+01  0.48390119814E+03  0.48771987366E+03  0.10000000000E+01 0.  0.
<mgrwt>
<rscale>  0 0.12499982E+03</rscale>
<asrwt>0</asrwt>
<pdfrwt beam="2">  1        4 0.75703649E-03 0.12499982E+03</pdfrwt>
<pdfrwt beam="1">  1       -4 0.12212800E+00 0.12499982E+03</pdfrwt>
<totfact> 0.38320617E+03</totfact>
</mgrwt>
</event>
<event>
 5    1  0.3282316E-002  0.1249995E+03  0.7818608E-02  0.1235070E+00
         -4   -1    0    0    0  501 -0.00000000000E+00  0.00000000000E+00  0.38995112154E+02  0.39015787470E+02  0.12700000000E+01 0. -1.
          4   -1    0    0  501    0  0.00000000000E+00 -0.00000000000E+00 -0.10012073076E+03  0.10012878522E+03  0.12700000000E+01 0. -1.
         25    2    1    2    0    0  0.00000000000E+00  0.00000000000E+00 -0.61125618611E+02  0.13914457269E+03  0.12499948343E+03 0.  0.
    9000005    1    3    3    0    0  0.44347613376E+02 -0.13117193179E+02  0.16222365215E+02  0.49019758284E+02  0.10000000000E+01 0.  0.
    9000005    1    3    3    0    0 -0.44347613376E+02  0.13117193179E+02 -0.77347983826E+02  0.90124814402E+02  0.10000000000E+01 0.  0.
<mgrwt>
<rscale>  0 0.12499948E+03</rscale>
<asrwt>0</asrwt>
<pdfrwt beam="2">  1        4 0.15405399E-01 0.12499948E+03</pdfrwt>
<pdfrwt beam="1">  1       -4 0.60014580E-02 0.12499948E+03</pdfrwt>
<totfact> 0.10151464E+04</totfact>
</mgrwt>
</event>
<event>
 5    1  0.3282316E-002  0.1250091E+03  0.7818608E-02  0.1235055E+00
          4   -1    0    0  501    0  0.00000000000E+00  0.00000000000E+00  0.26900580938E+03  0.26900880725E+03  0.12700000000E+01 0. -1.
         -4   -1    0    0    0  501 -0.00000000000E+00 -0.00000000000E+00 -0.14492318032E+02  0.14547858328E+02  0.12700000000E+01 0. -1.
         25    2    1    2    0    0  0.00000000000E+00  0.00000000000E+00  0.25451349135E+03  0.28355666558E+03  0.12500906094E+03 0.  0.
    9000005    1    3    3    0    0  0.12387944022E+02 -0.54607026975E+02  0.19021668984E+03  0.19828963071E+03  0.10000000000E+01 0.  0.
    9000005    1    3    3    0    0 -0.12387944022E+02  0.54607026975E+02  0.64296801506E+02  0.85267034873E+02  0.10000000000E+01 0.  0.
<mgrwt>
<rscale>  0 0.12500906E+03</rscale>
<asrwt>0</asrwt>
<pdfrwt beam="1">  1        4 0.41390010E-01 0.12500906E+03</pdfrwt>
<pdfrwt beam="2">  1       -4 0.22340904E-02 0.12500906E+03</pdfrwt>
<totfact> 0.77693223E+03</totfact>
</mgrwt>
</event>
<event>
 5    1  0.3282316E-002  0.1249992E+03  0.7818608E-02  0.1235070E+00
          4   -1    0    0  501    0  0.00000000000E+00  0.00000000000E+00  0.19159285367E+03  0.19159706281E+03  0.12700000000E+01 0.  1.
         -4   -1    0    0    0  501 -0.00000000000E+00 -0.00000000000E+00 -0.20363820578E+02  0.20403384242E+02  0.12700000000E+01 0.  1.
         25    2    1    2    0    0  0.00000000000E+00  0.00000000000E+00  0.17122903309E+03  0.21200044705E+03  0.12499923110E+03 0.  0.
    9000005    1    3    3    0    0 -0.25377102297E+02  0.57001302381E+02  0.79725622292E+02  0.10124386719E+03  0.10000000000E+01 0.  0.
    9000005    1    3    3    0    0  0.25377102297E+02 -0.57001302381E+02  0.91503410802E+02  0.11075657986E+03  0.10000000000E+01 0.  0.
<mgrwt>
<rscale>  0 0.12499923E+03</rscale>
<asrwt>0</asrwt>
<pdfrwt beam="1">  1        4 0.29479191E-01 0.12499923E+03</pdfrwt>
<pdfrwt beam="2">  1       -4 0.31362626E-02 0.12499923E+03</pdfrwt>
<totfact> 0.88151735E+03</totfact>
</mgrwt>
</event>
<event>
 5    1  0.3282316E-002  0.1249968E+03  0.7818608E-02  0.1235074E+00
          4   -1    0    0  501    0  0.00000000000E+00  0.00000000000E+00  0.50434826922E+01  0.52009246934E+01  0.12700000000E+01 0. -1.
         -4   -1    0    0    0  501 -0.00000000000E+00 -0.00000000000E+00 -0.76241456227E+03  0.76241562003E+03  0.12700000000E+01 0. -1.
         25    2    1    2    0    0  0.00000000000E+00  0.00000000000E+00 -0.75737107958E+03  0.76761654472E+03  0.12499683015E+03 0.  0.
    9000005    1    3    3    0    0  0.19121646712E+02  0.48292962837E+02 -0.16531438600E+03  0.17328500758E+03  0.10000000000E+01 0.  0.
    9000005    1    3    3    0    0 -0.19121646712E+02 -0.48292962837E+02 -0.59205669358E+03  0.59433153714E+03  0.10000000000E+01 0.  0.
<mgrwt>
<rscale>  0 0.12499683E+03</rscale>
<asrwt>0</asrwt>
<pdfrwt beam="1">  1        4 0.78811331E-03 0.12499683E+03</pdfrwt>
<pdfrwt beam="2">  1       -4 0.11730665E+00 0.12499683E+03</pdfrwt>
<totfact> 0.39748155E+03</totfact>
</mgrwt>
</event>
<event>
 5    1  0.3282316E-002  0.1250001E+03  0.7818608E-02  0.1235069E+00
          4   -1    0    0  501    0  0.00000000000E+00  0.00000000000E+00  0.46284959382E+02  0.46302379690E+02  0.12700000000E+01 0.  1.
         -4   -1    0    0    0  501 -0.00000000000E+00 -0.00000000000E+00 -0.84357675085E+02  0.84367234432E+02  0.12700000000E+01 0.  1.
         25    2    1    2    0    0  0.00000000000E+00  0.00000000000E+00 -0.38072715704E+02  0.13066961412E+03  0.12500006550E+03 0.  0.
    9000005    1    3    3    0    0  0.60893502663E+01  0.78323249008E+01  0.45461609690E+02  0.46542276004E+02  0.10000000000E+01 0.  0.
    9000005    1    3    3    0    0 -0.60893502663E+01 -0.78323249008E+01 -0.83534325393E+02  0.84127338119E+02  0.10000000000E+01 0.  0.
<mgrwt>
<rscale>  0 0.12500007E+03</rscale>
<asrwt>0</asrwt>
<pdfrwt beam="1">  1        4 0.71228384E-02 0.12500007E+03</pdfrwt>
<pdfrwt beam="2">  1       -4 0.12980179E-01 0.12500007E+03</pdfrwt>
<totfact> 0.10330162E+04</totfact>
</mgrwt>
</event>
<event>
 5    1  0.3282316E-002  0.1249760E+03  0.7818608E-02  0.1235107E+00
          4   -1    0    0  501    0  0.00000000000E+00  0.00000000000E+00  0.21540221675E+03  0.21540596064E+03  0.12700000000E+01 0.  1.
         -4   -1    0    0    0  501 -0.00000000000E+00 -0.00000000000E+00 -0.18101555379E+02  0.18146052109E+02  0.12700000000E+01 0.  1.
         25    2    1    2    0    0  0.00000000000E+00  0.00000000000E+00  0.19730066137E+03  0.23355201275E+03  0.12497596442E+03 0.  0.
    9000005    1    3    3    0    0  0.39058534538E+02 -0.31555775970E+02  0.29167766989E+02  0.58078350084E+02  0.10000000000E+01 0.  0.
    9000005    1    3    3    0    0 -0.39058534538E+02  0.31555775970E+02  0.16813289438E+03  0.17547366267E+03  0.10000000000E+01 0.  0.
<mgrwt>
<rscale>  0 0.12497596E+03</rscale>
<asrwt>0</asrwt>
<pdfrwt beam="1">  1        4 0.33142510E-01 0.12497596E+03</pdfrwt>
<pdfrwt beam="2">  1       -4 0.27885658E-02 0.12497596E+03</pdfrwt>
<totfact> 0.84812613E+03</totfact>
</mgrwt>
</event>
<event>
 5    1  0.3282316E-002  0.1250146E+03  0.7818608E-02  0.1235047E+00
          4   -1    0    0  501    0  0.00000000000E+00  0.00000000000E+00  0.45984829015E+02  0.46002362978E+02  0.12700000000E+01 0.  1.
         -4   -1    0    0    0  501 -0.00000000000E+00 -0.00000000000E+00 -0.84927810367E+02  0.84937305548E+02  0.12700000000E+01 0.  1.
         25    2    1    2    0    0  0.00000000000E+00  0.00000000000E+00 -0.38942981352E+02  0.13093966853E+03  0.12501456314E+03 0.  0.
    9000005    1    3    3    0    0  0.54197342513E+02  0.25102386198E+02 -0.38746937617E+02  0.71202576519E+02  0.10000000000E+01 0.  0.
    9000005    1    3    3    0    0 -0.54197342513E+02 -0.25102386198E+02 -0.19604373522E+00  0.59737092007E+02  0.10000000000E+01 0.  0.
<mgrwt>
<rscale>  0 0.12501456E+03</rscale>
<asrwt>0</asrwt>
<pdfrwt beam="1">  1        4 0.70766682E-02 0.12501456E+03</pdfrwt>
<pdfrwt beam="2">  1       -4 0.13067896E-01 0.12501456E+03</pdfrwt>
<totfact> 0.10320991E+04</totfact>
</mgrwt>
</event>
<event>
 5    1  0.3282316E-002  0.1249984E+03  0.7818608E-02  0.1235072E+00
         -4   -1    0    0    0  501 -0.00000000000E+00  0.00000000000E+00  0.20449678852E+02  0.20489076727E+02  0.12700000000E+01 0.  1.
          4   -1    0    0  501    0  0.00000000000E+00 -0.00000000000E+00 -0.19078757024E+03  0.19079179714E+03  0.12700000000E+01 0.  1.
         25    2    1    2    0    0  0.00000000000E+00  0.00000000000E+00 -0.17033789139E+03  0.21128087387E+03  0.12499844168E+03 0.  0.
    9000005    1    3    3    0    0  0.11483235509E-01 -0.61583224554E+02 -0.10310960467E+03  0.12010447225E+03  0.10000000000E+01 0.  0.
    9000005    1    3    3    0    0 -0.11483235509E-01  0.61583224554E+02 -0.67228286717E+02  0.91176401625E+02  0.10000000000E+01 0.  0.
<mgrwt>
<rscale>  0 0.12499844E+03</rscale>
<asrwt>0</asrwt>
<pdfrwt beam="2">  1        4 0.29355288E-01 0.12499844E+03</pdfrwt>
<pdfrwt beam="1">  1       -4 0.31494603E-02 0.12499844E+03</pdfrwt>
<totfact> 0.88270199E+03</totfact>
</mgrwt>
</event>
<event>
 5    1  0.3282316E-002  0.1250008E+03  0.7818608E-02  0.1235068E+00
          4   -1    0    0  501    0  0.00000000000E+00  0.00000000000E+00  0.26673522093E+01  0.29542626505E+01  0.12700000000E+01 0.  1.
         -4   -1    0    0    0  501 -0.00000000000E+00 -0.00000000000E+00 -0.13894564567E+04  0.13894570371E+04  0.12700000000E+01 0.  1.
         25    2    1    2    0    0  0.00000000000E+00  0.00000000000E+00 -0.13867891045E+04  0.13924112997E+04  0.12500082943E+03 0.  0.
    9000005    1    3    3    0    0 -0.50733497900E+02 -0.29931235487E+02 -0.92586420171E+03  0.92773664726E+03  0.10000000000E+01 0.  0.
    9000005    1    3    3    0    0  0.50733497900E+02  0.29931235487E+02 -0.46092490277E+03  0.46467465248E+03  0.10000000000E+01 0.  0.
<mgrwt>
<rscale>  0 0.12500083E+03</rscale>
<asrwt>0</asrwt>
<pdfrwt beam="1">  1        4 0.43247767E-03 0.12500083E+03</pdfrwt>
<pdfrwt beam="2">  1       -4 0.21378410E+00 0.12500083E+03</pdfrwt>
<totfact> 0.20144074E+03</totfact>
</mgrwt>
</event>
<event>
 5    1  0.3282316E-002  0.1249933E+03  0.7818608E-02  0.1235080E+00
         -4   -1    0    0    0  501 -0.00000000000E+00  0.00000000000E+00  0.20054896144E+02  0.20095068036E+02  0.12700000000E+01 0.  1.
          4   -1    0    0  501    0  0.00000000000E+00 -0.00000000000E+00 -0.19452001120E+03  0.19452415700E+03  0.12700000000E+01 0.  1.
         25    2    1    2    0    0  0.00000000000E+00  0.00000000000E+00 -0.17446511506E+03  0.21461922504E+03  0.12499334136E+03 0.  0.
    9000005    1    3    3    0    0 -0.12914048229E+02  0.53927135889E+02 -0.13669792336E+03  0.14752027277E+03  0.10000000000E+01 0.  0.
    9000005    1    3    3    0    0  0.12914048229E+02 -0.53927135889E+02 -0.37767191694E+02  0.67098952267E+02  0.10000000000E+01 0.  0.
<mgrwt>
<rscale>  0 0.12499334E+03</rscale>
<asrwt>0</asrwt>
<pdfrwt beam="2">  1        4 0.29929563E-01 0.12499334E+03</pdfrwt>
<pdfrwt beam="1">  1       -4 0.30887778E-02 0.12499334E+03</pdfrwt>
<totfact> 0.87740070E+03</totfact>
</mgrwt>
</event>
<event>
 5    1  0.3282316E-002  0.1250001E+03  0.7818608E-02  0.1235069E+00
         -4   -1    0    0    0  501 -0.00000000000E+00  0.00000000000E+00  0.28287791452E+02  0.28316285865E+02  0.12700000000E+01 0.  1.
          4   -1    0    0  501    0  0.00000000000E+00 -0.00000000000E+00 -0.13798879211E+03  0.13799463630E+03  0.12700000000E+01 0.  1.
         25    2    1    2    0    0  0.00000000000E+00  0.00000000000E+00 -0.10970100066E+03  0.16631092217E+03  0.12500005315E+03 0.  0.
    9000005    1    3    3    0    0 -0.81410201160E+01  0.52894924896E+02 -0.11920821590E+02  0.54838447058E+02  0.10000000000E+01 0.  0.
    9000005    1    3    3    0    0  0.81410201160E+01 -0.52894924896E+02 -0.97780179068E+02  0.11147247511E+03  0.10000000000E+01 0.  0.
<mgrwt>
<rscale>  0 0.12500005E+03</rscale>
<asrwt>0</asrwt>
<pdfrwt beam="2">  1        4 0.21231686E-01 0.12500005E+03</pdfrwt>
<pdfrwt beam="1">  1       -4 0.43546094E-02 0.12500005E+03</pdfrwt>
<totfact> 0.96139584E+03</totfact>
</mgrwt>
</event>
<event>
 5    1  0.3282316E-002  0.1249992E+03  0.7818608E-02  0.1235071E+00
         -4   -1    0    0    0  501 -0.00000000000E+00  0.00000000000E+00  0.14537076697E+02  0.14592446638E+02  0.12700000000E+01 0.  1.
          4   -1    0    0  501    0  0.00000000000E+00 -0.00000000000E+00 -0.26813830882E+03  0.26814131640E+03  0.12700000000E+01 0.  1.
         25    2    1    2    0    0  0.00000000000E+00  0.00000000000E+00 -0.25360123213E+03  0.28273376304E+03  0.12499918329E+03 0.  0.
    9000005    1    3    3    0    0 -0.40509694003E+02  0.19462140440E+01 -0.23433833794E+03  0.23782405195E+03  0.10000000000E+01 0.  0.
    9000005    1    3    3    0    0  0.40509694003E+02 -0.19462140440E+01 -0.19262894188E+02  0.44909711086E+02  0.10000000000E+01 0.  0.
<mgrwt>
<rscale>  0 0.12499918E+03</rscale>
<asrwt>0</asrwt>
<pdfrwt beam="2">  1        4 0.41256535E-01 0.12499918E+03</pdfrwt>
<pdfrwt beam="1">  1       -4 0.22409641E-02 0.12499918E+03</pdfrwt>
<totfact> 0.77818433E+03</totfact>
</mgrwt>
</event>
<event>
 5    1  0.3282316E-002  0.1249943E+03  0.7818608E-02  0.1235078E+00
         -4   -1    0    0    0  501 -0.00000000000E+00  0.00000000000E+00  0.97280102822E+02  0.97288392448E+02  0.12700000000E+01 0. -1.
          4   -1    0    0  501    0  0.00000000000E+00 -0.00000000000E+00 -0.40130937250E+02  0.40151027690E+02  0.12700000000E+01 0. -1.
         25    2    1    2    0    0  0.00000000000E+00  0.00000000000E+00  0.57149165572E+02  0.13743942014E+03  0.12499426820E+03 0.  0.
    9000005    1    3    3    0    0 -0.64721384724E+01 -0.34450972903E+02 -0.28307451037E+02  0.45067392809E+02  0.10000000000E+01 0.  0.
    9000005    1    3    3    0    0  0.64721384724E+01  0.34450972903E+02  0.85456616610E+02  0.92372027328E+02  0.10000000000E+01 0.  0.
<mgrwt>
<rscale>  0 0.12499427E+03</rscale>
<asrwt>0</asrwt>
<pdfrwt beam="2">  1        4 0.61761735E-02 0.12499427E+03</pdfrwt>
<pdfrwt beam="1">  1       -4 0.14968353E-01 0.12499427E+03</pdfrwt>
<totfact> 0.10188223E+04</totfact>
</mgrwt>
</event>
<event>
 5    1  0.3282316E-002  0.1250011E+03  0.7818608E-02  0.1235068E+00
         -4   -1    0    0    0  501 -0.00000000000E+00  0.00000000000E+00  0.11442775462E+03  0.11443480208E+03  0.12700000000E+01 0.  1.
          4   -1    0    0  501    0  0.00000000000E+00 -0.00000000000E+00 -0.34117940038E+02  0.34141568980E+02  0.12700000000E+01 0.  1.
         25    2    1    2    0    0  0.00000000000E+00  0.00000000000E+00  0.80309814583E+02  0.14857637106E+03  0.12500108687E+03 0.  0.
    9000005    1    3    3    0    0  0.60117763295E+02  0.19745785470E+01  0.60300671414E+02  0.85177552190E+02  0.10000000000E+01 0.  0.
    9000005    1    3    3    0    0 -0.60117763295E+02 -0.19745785470E+01  0.20009143169E+02  0.63398818872E+02  0.10000000000E+01 0.  0.
<mgrwt>
<rscale>  0 0.12500109E+03</rscale>
<asrwt>0</asrwt>
<pdfrwt beam="2">  1        4 0.52512735E-02 0.12500109E+03</pdfrwt>
<pdfrwt beam="1">  1       -4 0.17606630E-01 0.12500109E+03</pdfrwt>
<totfact> 0.99585800E+03</totfact>
</mgrwt>
</event>
<event>
 5    1  0.3282316E-002  0.1249994E+03  0.7818608E-02  0.1235070E+00
          4   -1    0    0  501    0  0.00000000000E+00  0.00000000000E+00  0.57708671081E+02  0.57722643892E+02  0.12700000000E+01 0. -1.
         -4   -1    0    0    0  501 -0.00000000000E+00 -0.00000000000E+00 -0.67660357288E+02  0.67672275330E+02  0.12700000000E+01 0. -1.
         25    2    1    2    0    0  0.00000000000E+00  0.00000000000E+00 -0.99516862075E+01  0.12539491922E+03  0.12499939883E+03 0.  0.
    9000005    1    3    3    0    0 -0.44253204336E+02 -0.34069091107E+02  0.23151480934E+02  0.60465197695E+02  0.10000000000E+01 0.  0.
    9000005    1    3    3    0    0  0.44253204336E+02  0.34069091107E+02 -0.33103167141E+02  0.64929721528E+02  0.10000000000E+01 0.  0.
<mgrwt>
<rscale>  0 0.12499940E+03</rscale>
<asrwt>0</asrwt>
<pdfrwt beam="1">  1        4 0.88802487E-02 0.12499940E+03</pdfrwt>
<pdfrwt beam="2">  1       -4 0.10411277E-01 0.12499940E+03</pdfrwt>
<totfact> 0.10444421E+04</totfact>
</mgrwt>
</event>
<event>
 5    1  0.3282316E-002  0.1249998E+03  0.7818608E-02  0.1235070E+00
          4   -1    0    0  501    0  0.00000000000E+00  0.00000000000E+00  0.81098841364E+02  0.81108784793E+02  0.12700000000E+01 0. -1.
         -4   -1    0    0    0  501 -0.00000000000E+00 -0.00000000000E+00 -0.48145116208E+02  0.48161863696E+02  0.12700000000E+01 0. -1.
         25    2    1    2    0    0  0.00000000000E+00  0.00000000000E+00  0.32953725156E+02  0.12927064849E+03  0.12499981024E+03 0.  0.
    9000005    1    3    3    0    0  0.48955710935E+02  0.10409732596E+02  0.55174796395E+02  0.74500216933E+02  0.10000000000E+01 0.  0.
    9000005    1    3    3    0    0 -0.48955710935E+02 -0.10409732596E+02 -0.22221071239E+02  0.54770431556E+02  0.10000000000E+01 0.  0.
<mgrwt>
<rscale>  0 0.12499981E+03</rscale>
<asrwt>0</asrwt>
<pdfrwt beam="1">  1        4 0.12478798E-01 0.12499981E+03</pdfrwt>
<pdfrwt beam="2">  1       -4 0.74089942E-02 0.12499981E+03</pdfrwt>
<totfact> 0.10360179E+04</totfact>
</mgrwt>
</event>
<event>
 5    1  0.3282316E-002  0.1249967E+03  0.7818608E-02  0.1235074E+00
          4   -1    0    0  501    0  0.00000000000E+00  0.00000000000E+00  0.34035326309E+03  0.34035563253E+03  0.12700000000E+01 0.  1.
         -4   -1    0    0    0  501 -0.00000000000E+00 -0.00000000000E+00 -0.11438891574E+02  0.11509176358E+02  0.12700000000E+01 0.  1.
         25    2    1    2    0    0  0.00000000000E+00  0.00000000000E+00  0.32891437151E+03  0.35186480889E+03  0.12499671974E+03 0.  0.
    9000005    1    3    3    0    0 -0.27587155034E+02 -0.10273168323E+02  0.92886418457E+01  0.30884753158E+02  0.10000000000E+01 0.  0.
    9000005    1    3    3    0    0  0.27587155034E+02  0.10273168323E+02  0.31962572967E+03  0.32098005573E+03  0.10000000000E+01 0.  0.
<mgrwt>
<rscale>  0 0.12499672E+03</rscale>
<asrwt>0</asrwt>
<pdfrwt beam="1">  1        4 0.52367620E-01 0.12499672E+03</pdfrwt>
<pdfrwt beam="2">  1       -4 0.17654186E-02 0.12499672E+03</pdfrwt>
<totfact> 0.69524941E+03</totfact>
</mgrwt>
</event>
<event>
 5    1  0.3282316E-002  0.1250016E+03  0.7818608E-02  0.1235067E+00
         -4   -1    0    0    0  501 -0.00000000000E+00  0.00000000000E+00  0.58928190252E+03  0.58928327104E+03  0.12700000000E+01 0. -1.
          4   -1    0    0  501    0  0.00000000000E+00 -0.00000000000E+00 -0.65667892862E+01  0.66884692964E+01  0.12700000000E+01 0. -1.
         25    2    1    2    0    0  0.00000000000E+00  0.00000000000E+00  0.58271511323E+03  0.59597174034E+03  0.12500164838E+03 0.  0.
    9000005    1    3    3    0    0 -0.56695215799E+01 -0.62069529754E+02  0.31298795590E+03  0.31913512897E+03  0.10000000000E+01 0.  0.
    9000005    1    3    3    0    0  0.56695215799E+01  0.62069529754E+02  0.26972715733E+03  0.27683661138E+03  0.10000000000E+01 0.  0.
<mgrwt>
<rscale>  0 0.12500165E+03</rscale>
<asrwt>0</asrwt>
<pdfrwt beam="2">  1        4 0.10197401E-02 0.12500165E+03</pdfrwt>
<pdfrwt beam="1">  1       -4 0.90668262E-01 0.12500165E+03</pdfrwt>
<totfact> 0.49121083E+03</totfact>
</mgrwt>
</event>
<event>
 5    1  0.3282316E-002  0.1249967E+03  0.7818608E-02  0.1235074E+00
          4   -1    0    0  501    0  0.00000000000E+00  0.00000000000E+00  0.51382530314E+02  0.51398222941E+02  0.12700000000E+01 0. -1.
         -4   -1    0    0    0  501 -0.00000000000E+00 -0.00000000000E+00 -0.75986284262E+02  0.75996896621E+02  0.12700000000E+01 0. -1.
         25    2    1    2    0    0  0.00000000000E+00  0.00000000000E+00 -0.24603753948E+02  0.12739511956E+03  0.12499668708E+03 0.  0.
    9000005    1    3    3    0    0  0.32268463578E+02  0.51463233365E+02  0.26536365323E+01  0.60809209146E+02  0.10000000000E+01 0.  0.
    9000005    1    3    3    0    0 -0.32268463578E+02 -0.51463233365E+02 -0.27257390480E+02  0.66585910416E+02  0.10000000000E+01 0.  0.
<mgrwt>
<rscale>  0 0.12499669E+03</rscale>
<asrwt>0</asrwt>
<pdfrwt beam="1">  1        4 0.79070282E-02 0.12499669E+03</pdfrwt>
<pdfrwt beam="2">  1       -4 0.11692221E-01 0.12499669E+03</pdfrwt>
<totfact> 0.10401350E+04</totfact>
</mgrwt>
</event>
<event>
 5    1  0.3282316E-002  0.1249993E+03  0.7818608E-02  0.1235070E+00
         -4   -1    0    0    0  501 -0.00000000000E+00  0.00000000000E+00  0.13560726383E+03  0.13561321065E+03  0.12700000000E+01 0. -1.
          4   -1    0    0  501    0  0.00000000000E+00 -0.00000000000E+00 -0.28784685856E+02  0.28812688869E+02  0.12700000000E+01 0. -1.
         25    2    1    2    0    0  0.00000000000E+00  0.00000000000E+00  0.10682257797E+03  0.16442589952E+03  0.12499925307E+03 0.  0.
    9000005    1    3    3    0    0 -0.17782437068E+02  0.48412639360E+02  0.69936371655E+01  0.52056792820E+02  0.10000000000E+01 0.  0.
    9000005    1    3    3    0    0  0.17782437068E+02 -0.48412639360E+02  0.99828940806E+02  0.11236910670E+03  0.10000000000E+01 0.  0.
<mgrwt>
<rscale>  0 0.12499925E+03</rscale>
<asrwt>0</asrwt>
<pdfrwt beam="2">  1        4 0.44310247E-02 0.12499925E+03</pdfrwt>
<pdfrwt beam="1">  1       -4 0.20865268E-01 0.12499925E+03</pdfrwt>
<totfact> 0.96497847E+03</totfact>
</mgrwt>
</event>
<event>
 5    1  0.3282316E-002  0.1250066E+03  0.7818608E-02  0.1235059E+00
          4   -1    0    0  501    0  0.00000000000E+00  0.00000000000E+00  0.25995841080E+02  0.26026844862E+02  0.12700000000E+01 0.  1.
         -4   -1    0    0    0  501 -0.00000000000E+00 -0.00000000000E+00 -0.15015701369E+03  0.15016238431E+03  0.12700000000E+01 0.  1.
         25    2    1    2    0    0  0.00000000000E+00  0.00000000000E+00 -0.12416117261E+03  0.17618922917E+03  0.12500659059E+03 0.  0.
    9000005    1    3    3    0    0  0.59439481145E+02  0.16179120308E+02 -0.76919653280E+02  0.98551757536E+02  0.10000000000E+01 0.  0.
    9000005    1    3    3    0    0 -0.59439481145E+02 -0.16179120308E+02 -0.47241519331E+02  0.77637471632E+02  0.10000000000E+01 0.  0.
<mgrwt>
<rscale>  0 0.12500659E+03</rscale>
<asrwt>0</asrwt>
<pdfrwt beam="1">  1        4 0.40021583E-02 0.12500659E+03</pdfrwt>
<pdfrwt beam="2">  1       -4 0.23103876E-01 0.12500659E+03</pdfrwt>
<totfact> 0.94293546E+03</totfact>
</mgrwt>
</event>
<event>
 5    1  0.3282316E-002  0.1249998E+03  0.7818608E-02  0.1235070E+00
         -4   -1    0    0    0  501 -0.00000000000E+00  0.00000000000E+00  0.20109908239E+02  0.20149970457E+02  0.12700000000E+01 0. -1.
          4   -1    0    0  501    0  0.00000000000E+00 -0.00000000000E+00 -0.19400891163E+03  0.19401306835E+03  0.12700000000E+01 0. -1.
         25    2    1    2    0    0  0.00000000000E+00  0.00000000000E+00 -0.17389900339E+03  0.21416303881E+03  0.12499977525E+03 0.  0.
    9000005    1    3    3    0    0  0.40920801977E+02  0.30911995687E+02 -0.14813094915E+03  0.15676045933E+03  0.10000000000E+01 0.  0.
    9000005    1    3    3    0    0 -0.40920801977E+02 -0.30911995687E+02 -0.25768054236E+02  0.57402579480E+02  0.10000000000E+01 0.  0.
<mgrwt>
<rscale>  0 0.12499978E+03</rscale>
<asrwt>0</asrwt>
<pdfrwt beam="2">  1        4 0.29850925E-01 0.12499978E+03</pdfrwt>
<pdfrwt beam="1">  1       -4 0.30972336E-02 0.12499978E+03</pdfrwt>
<totfact> 0.87800925E+03</totfact>
</mgrwt>
</event>
<event>
 5    1  0.3282316E-002  0.1249988E+03  0.7818608E-02  0.1235071E+00
          4   -1    0    0  501    0  0.00000000000E+00  0.00000000000E+00  0.71196773462E+02  0.71208099619E+02  0.12700000000E+01 0. -1.
         -4   -1    0    0    0  501 -0.00000000000E+00 -0.00000000000E+00 -0.54841448756E+02  0.54856151903E+02  0.12700000000E+01 0. -1.
         25    2    1    2    0    0  0.00000000000E+00  0.00000000000E+00  0.16355324706E+02  0.12606425152E+03  0.12499879546E+03 0.  0.
    9000005    1    3    3    0    0  0.57883342434E+02 -0.19997354257E+02  0.20725546163E+02  0.64660063195E+02  0.10000000000E+01 0.  0.
    9000005    1    3    3    0    0 -0.57883342434E+02  0.19997354257E+02 -0.43702214567E+01  0.61404188328E+02  0.10000000000E+01 0.  0.
<mgrwt>
<rscale>  0 0.12499880E+03</rscale>
<asrwt>0</asrwt>
<pdfrwt beam="1">  1        4 0.10955352E-01 0.12499880E+03</pdfrwt>
<pdfrwt beam="2">  1       -4 0.84391483E-02 0.12499880E+03</pdfrwt>
<totfact> 0.10429833E+04</totfact>
</mgrwt>
</event>
<event>
 5    1  0.3282316E-002  0.1250253E+03  0.7818608E-02  0.1235030E+00
         -4   -1    0    0    0  501 -0.00000000000E+00  0.00000000000E+00  0.32376975169E+03  0.32377224250E+03  0.12700000000E+01 0. -1.
          4   -1    0    0  501    0  0.00000000000E+00 -0.00000000000E+00 -0.12033827994E+02  0.12100657676E+02  0.12700000000E+01 0. -1.
         25    2    1    2    0    0  0.00000000000E+00  0.00000000000E+00  0.31173592370E+03  0.33587290017E+03  0.12502527323E+03 0.  0.
    9000005    1    3    3    0    0 -0.17409601298E+02  0.58186056982E+02  0.11619238989E+03  0.13111210056E+03  0.10000000000E+01 0.  0.
    9000005    1    3    3    0    0  0.17409601298E+02 -0.58186056982E+02  0.19554353381E+03  0.20476079961E+03  0.10000000000E+01 0.  0.
<mgrwt>
<rscale>  0 0.12502527E+03</rscale>
<asrwt>0</asrwt>
<pdfrwt beam="2">  1        4 0.18566904E-02 0.12502527E+03</pdfrwt>
<pdfrwt beam="1">  1       -4 0.49816065E-01 0.12502527E+03</pdfrwt>
<totfact> 0.71267290E+03</totfact>
</mgrwt>
</event>
<event>
 5    1  0.3282316E-002  0.1249988E+03  0.7818608E-02  0.1235071E+00
         -4   -1    0    0    0  501 -0.00000000000E+00  0.00000000000E+00  0.34139886946E+02  0.34163500709E+02  0.12700000000E+01 0. -1.
          4   -1    0    0  501    0  0.00000000000E+00 -0.00000000000E+00 -0.11435006867E+03  0.11435712092E+03  0.12700000000E+01 0. -1.
         25    2    1    2    0    0  0.00000000000E+00  0.00000000000E+00 -0.80210181726E+02  0.14852062163E+03  0.12499880718E+03 0.  0.
    9000005    1    3    3    0    0 -0.42300208515E+02  0.40767432194E+02 -0.65418664497E+02  0.87931182368E+02  0.10000000000E+01 0.  0.
    9000005    1    3    3    0    0  0.42300208515E+02 -0.40767432194E+02 -0.14791517228E+02  0.60589439261E+02  0.10000000000E+01 0.  0.
<mgrwt>
<rscale>  0 0.12499881E+03</rscale>
<asrwt>0</asrwt>
<pdfrwt beam="2">  1        4 0.17594677E-01 0.12499881E+03</pdfrwt>
<pdfrwt beam="1">  1       -4 0.52546493E-02 0.12499881E+03</pdfrwt>
<totfact> 0.99602085E+03</totfact>
</mgrwt>
</event>
<event>
 5    1  0.3282316E-002  0.1249965E+03  0.7818608E-02  0.1235075E+00
          4   -1    0    0  501    0  0.00000000000E+00  0.00000000000E+00  0.77259201441E+02  0.77269638975E+02  0.12700000000E+01 0. -1.
         -4   -1    0    0    0  501 -0.00000000000E+00 -0.00000000000E+00 -0.50535667829E+02  0.50551623346E+02  0.12700000000E+01 0. -1.
         25    2    1    2    0    0  0.00000000000E+00  0.00000000000E+00  0.26723533612E+02  0.12782126232E+03  0.12499651136E+03 0.  0.
    9000005    1    3    3    0    0 -0.55200998362E+02 -0.28616675439E+02  0.69782911600E+01  0.62576040789E+02  0.10000000000E+01 0.  0.
    9000005    1    3    3    0    0  0.55200998362E+02  0.28616675439E+02  0.19745242452E+02  0.65245221532E+02  0.10000000000E+01 0.  0.
<mgrwt>
<rscale>  0 0.12499651E+03</rscale>
<asrwt>0</asrwt>
<pdfrwt beam="1">  1        4 0.11888061E-01 0.12499651E+03</pdfrwt>
<pdfrwt beam="2">  1       -4 0.77767484E-02 0.12499651E+03</pdfrwt>
<totfact> 0.10392168E+04</totfact>
</mgrwt>
</event>
<event>
 5    1  0.3282316E-002  0.1250009E+03  0.7818608E-02  0.1235068E+00
          4   -1    0    0  501    0  0.00000000000E+00  0.00000000000E+00  0.89546134723E+01  0.90442248114E+01  0.12700000000E+01 0.  1.
         -4   -1    0    0    0  501 -0.00000000000E+00 -0.00000000000E+00 -0.43397132439E+03  0.43397318269E+03  0.12700000000E+01 0.  1.
         25    2    1    2    0    0  0.00000000000E+00  0.00000000000E+00 -0.42501671091E+03  0.44301740750E+03  0.12500087515E+03 0.  0.
    9000005    1    3    3    0    0 -0.41100136078E+02 -0.46376761320E+02 -0.24114329148E+03  0.24898014419E+03  0.10000000000E+01 0.  0.
    9000005    1    3    3    0    0  0.41100136078E+02  0.46376761320E+02 -0.18387341944E+03  0.19403726331E+03  0.10000000000E+01 0.  0.
<mgrwt>
<rscale>  0 0.12500088E+03</rscale>
<asrwt>0</asrwt>
<pdfrwt beam="1">  1        4 0.13846693E-02 0.12500088E+03</pdfrwt>
<pdfrwt beam="2">  1       -4 0.66771839E-01 0.12500088E+03</pdfrwt>
<totfact> 0.60572346E+03</totfact>
</mgrwt>
</event>
<event>
 5    1  0.3282316E-002  0.1249865E+03  0.7818608E-02  0.1235090E+00
          4   -1    0    0  501    0  0.00000000000E+00  0.00000000000E+00  0.36711667384E+01  0.38846319286E+01  0.12700000000E+01 0. -1.
         -4   -1    0    0    0  501 -0.00000000000E+00 -0.00000000000E+00 -0.10335363745E+04  0.10335371548E+04  0.12700000000E+01 0. -1.
         25    2    1    2    0    0  0.00000000000E+00  0.00000000000E+00 -0.10298652077E+04  0.10374217867E+04  0.12498646880E+03 0.  0.
    9000005    1    3    3    0    0 -0.87924666628E+00 -0.49971787622E+02 -0.82621515650E+03  0.82772606426E+03  0.10000000000E+01 0.  0.
    9000005    1    3    3    0    0  0.87924666628E+00  0.49971787622E+02 -0.20365005124E+03  0.20969572242E+03  0.10000000000E+01 0.  0.
<mgrwt>
<rscale>  0 0.12498647E+03</rscale>
<asrwt>0</asrwt>
<pdfrwt beam="1">  1        4 0.58127613E-03 0.12498647E+03</pdfrwt>
<pdfrwt beam="2">  1       -4 0.15902185E+00 0.12498647E+03</pdfrwt>
<totfact> 0.29399502E+03</totfact>
</mgrwt>
</event>
<event>
 5    1  0.3282316E-002  0.1249891E+03  0.7818608E-02  0.1235086E+00
         -4   -1    0    0    0  501 -0.00000000000E+00  0.00000000000E+00  0.49769855844E+02  0.49786056790E+02  0.12700000000E+01 0.  1.
          4   -1    0    0  501    0  0.00000000000E+00 -0.00000000000E+00 -0.78438480352E+02  0.78448760984E+02  0.12700000000E+01 0.  1.
         25    2    1    2    0    0  0.00000000000E+00  0.00000000000E+00 -0.28668624508E+02  0.12823481777E+03  0.12498911336E+03 0.  0.
    9000005    1    3    3    0    0  0.11092308331E+02 -0.59694307118E+02  0.81809115725E+00  0.60729884567E+02  0.10000000000E+01 0.  0.
    9000005    1    3    3    0    0 -0.11092308331E+02  0.59694307118E+02 -0.29486715665E+02  0.67504933206E+02  0.10000000000E+01 0.  0.
<mgrwt>
<rscale>  0 0.12498911E+03</rscale>
<asrwt>0</asrwt>
<pdfrwt beam="2">  1        4 0.12069496E-01 0.12498911E+03</pdfrwt>
<pdfrwt beam="1">  1       -4 0.76589380E-02 0.12498911E+03</pdfrwt>
<totfact> 0.10384972E+04</totfact>
</mgrwt>
</event>
<event>
 5    1  0.3282316E-002  0.1250017E+03  0.7818608E-02  0.1235067E+00
          4   -1    0    0  501    0  0.00000000000E+00  0.00000000000E+00  0.13569188682E+03  0.13569782993E+03  0.12700000000E+01 0. -1.
         -4   -1    0    0    0  501 -0.00000000000E+00 -0.00000000000E+00 -0.28767851660E+02  0.28795871043E+02  0.12700000000E+01 0. -1.
         25    2    1    2    0    0  0.00000000000E+00  0.00000000000E+00  0.10692403516E+03  0.16449370097E+03  0.12500171345E+03 0.  0.
    9000005    1    3    3    0    0  0.19771390899E+02  0.39955136089E+02  0.11109375550E+03  0.11970857659E+03  0.10000000000E+01 0.  0.
    9000005    1    3    3    0    0 -0.19771390899E+02 -0.39955136089E+02 -0.41697203476E+01  0.44785124380E+02  0.10000000000E+01 0.  0.
<mgrwt>
<rscale>  0 0.12500171E+03</rscale>
<asrwt>0</asrwt>
<pdfrwt beam="1">  1        4 0.20878287E-01 0.12500171E+03</pdfrwt>
<pdfrwt beam="2">  1       -4 0.44284359E-02 0.12500171E+03</pdfrwt>
<totfact> 0.96479649E+03</totfact>
</mgrwt>
</event>
<event>
 5    1  0.3282316E-002  0.1249984E+03  0.7818608E-02  0.1235072E+00
          4   -1    0    0  501    0  0.00000000000E+00  0.00000000000E+00  0.11593525048E+03  0.11594220631E+03  0.12700000000E+01 0.  1.
         -4   -1    0    0    0  501 -0.00000000000E+00 -0.00000000000E+00 -0.33672562099E+02  0.33696503355E+02  0.12700000000E+01 0.  1.
         25    2    1    2    0    0  0.00000000000E+00  0.00000000000E+00  0.82262688377E+02  0.14963870966E+03  0.12499837411E+03 0.  0.
    9000005    1    3    3    0    0  0.31525997742E+02 -0.33973937863E+02 -0.90485049553E+01  0.47233382575E+02  0.10000000000E+01 0.  0.
    9000005    1    3    3    0    0 -0.31525997742E+02  0.33973937863E+02  0.91311193332E+02  0.10240532708E+03  0.10000000000E+01 0.  0.
<mgrwt>
<rscale>  0 0.12499837E+03</rscale>
<asrwt>0</asrwt>
<pdfrwt beam="1">  1        4 0.17838569E-01 0.12499837E+03</pdfrwt>
<pdfrwt beam="2">  1       -4 0.51827709E-02 0.12499837E+03</pdfrwt>
<totfact> 0.99379401E+03</totfact>
</mgrwt>
</event>
<event>
 5    1  0.3282316E-002  0.1250353E+03  0.7818608E-02  0.1235014E+00
          4   -1    0    0  501    0  0.00000000000E+00  0.00000000000E+00  0.93934514917E+01  0.94789150712E+01  0.12700000000E+01 0.  1.
         -4   -1    0    0    0  501 -0.00000000000E+00 -0.00000000000E+00 -0.41411220985E+03  0.41411415727E+03  0.12700000000E+01 0.  1.
         25    2    1    2    0    0  0.00000000000E+00  0.00000000000E+00 -0.40471875836E+03  0.42359307234E+03  0.12503526528E+03 0.  0.
    9000005    1    3    3    0    0  0.89294098220E+01  0.61450892357E+02 -0.17804556568E+03  0.18856608918E+03  0.10000000000E+01 0.  0.
    9000005    1    3    3    0    0 -0.89294098220E+01 -0.61450892357E+02 -0.22667319268E+03  0.23502698316E+03  0.10000000000E+01 0.  0.
<mgrwt>
<rscale>  0 0.12503527E+03</rscale>
<asrwt>0</asrwt>
<pdfrwt beam="1">  1        4 0.14518706E-02 0.12503527E+03</pdfrwt>
<pdfrwt beam="2">  1       -4 0.63716281E-01 0.12503527E+03</pdfrwt>
<totfact> 0.62272626E+03</totfact>
</mgrwt>
</event>
<event>
 5    1  0.3282316E-002  0.1249986E+03  0.7818608E-02  0.1235071E+00
          4   -1    0    0  501    0  0.00000000000E+00  0.00000000000E+00  0.82676789258E+02  0.82686542931E+02  0.12700000000E+01 0. -1.
         -4   -1    0    0    0  501 -0.00000000000E+00 -0.00000000000E+00 -0.47225098199E+02  0.47242171837E+02  0.12700000000E+01 0. -1.
         25    2    1    2    0    0  0.00000000000E+00  0.00000000000E+00  0.35451691058E+02  0.12992871477E+03  0.12499859408E+03 0.  0.
    9000005    1    3    3    0    0 -0.52810444206E+02 -0.21109511968E+02  0.44643316631E+02  0.72308922219E+02  0.10000000000E+01 0.  0.
    9000005    1    3    3    0    0  0.52810444206E+02  0.21109511968E+02 -0.91916255722E+01  0.57619792549E+02  0.10000000000E+01 0.  0.
<mgrwt>
<rscale>  0 0.12499859E+03</rscale>
<asrwt>0</asrwt>
<pdfrwt beam="1">  1        4 0.12721570E-01 0.12499859E+03</pdfrwt>
<pdfrwt beam="2">  1       -4 0.72674634E-02 0.12499859E+03</pdfrwt>
<totfact> 0.10346361E+04</totfact>
</mgrwt>
</event>
<event>
 5    1  0.3282316E-002  0.1250129E+03  0.7818608E-02  0.1235049E+00
          4   -1    0    0  501    0  0.00000000000E+00  0.00000000000E+00  0.57747234296E+02  0.57761197779E+02  0.12700000000E+01 0. -1.
         -4   -1    0    0    0  501 -0.00000000000E+00 -0.00000000000E+00 -0.67629745454E+02  0.67641668889E+02  0.12700000000E+01 0. -1.
         25    2    1    2    0    0  0.00000000000E+00  0.00000000000E+00 -0.98825111576E+01  0.12540286667E+03  0.12501285911E+03 0.  0.
    9000005    1    3    3    0    0 -0.47318030284E+02  0.95906149804E+01 -0.44752319933E+02  0.65838788150E+02  0.10000000000E+01 0.  0.
    9000005    1    3    3    0    0  0.47318030284E+02 -0.95906149804E+01  0.34869808775E+02  0.59564078518E+02  0.10000000000E+01 0.  0.
<mgrwt>
<rscale>  0 0.12501286E+03</rscale>
<asrwt>0</asrwt>
<pdfrwt beam="1">  1        4 0.88861813E-02 0.12501286E+03</pdfrwt>
<pdfrwt beam="2">  1       -4 0.10406567E-01 0.12501286E+03</pdfrwt>
<totfact> 0.10441075E+04</totfact>
</mgrwt>
</event>
<event>
 5    1  0.3282316E-002  0.1250014E+03  0.7818608E-02  0.1235067E+00
          4   -1    0    0  501    0  0.00000000000E+00  0.00000000000E+00  0.45732550184E+02  0.45750180834E+02  0.12700000000E+01 0. -1.
         -4   -1    0    0    0  501 -0.00000000000E+00 -0.00000000000E+00 -0.85378162180E+02  0.85387607282E+02  0.12700000000E+01 0. -1.
         25    2    1    2    0    0  0.00000000000E+00  0.00000000000E+00 -0.39645611996E+02  0.13113778812E+03  0.12500137968E+03 0.  0.
    9000005    1    3    3    0    0 -0.34792429136E+02 -0.92472275433E+00  0.34628620724E+02  0.49107123827E+02  0.10000000000E+01 0.  0.
    9000005    1    3    3    0    0  0.34792429136E+02  0.92472275433E+00 -0.74274232720E+02  0.82030664288E+02  0.10000000000E+01 0.  0.
<mgrwt>
<rscale>  0 0.12500138E+03</rscale>
<asrwt>0</asrwt>
<pdfrwt beam="1">  1        4 0.70378597E-02 0.12500138E+03</pdfrwt>
<pdfrwt beam="2">  1       -4 0.13137185E-01 0.12500138E+03</pdfrwt>
<totfact> 0.10319815E+04</totfact>
</mgrwt>
</event>
<event>
 5    1  0.3282316E-002  0.1249998E+03  0.7818608E-02  0.1235070E+00
          4   -1    0    0  501    0  0.00000000000E+00  0.00000000000E+00  0.39409088856E+02  0.39429547100E+02  0.12700000000E+01 0.  1.
         -4   -1    0    0    0  501 -0.00000000000E+00 -0.00000000000E+00 -0.99070005642E+02  0.99078145511E+02  0.12700000000E+01 0.  1.
         25    2    1    2    0    0  0.00000000000E+00  0.00000000000E+00 -0.59660916785E+02  0.13850769261E+03  0.12499982368E+03 0.  0.
    9000005    1    3    3    0    0  0.35930078833E+02 -0.19634015199E+02 -0.82141997382E+02  0.91786561389E+02  0.10000000000E+01 0.  0.
    9000005    1    3    3    0    0 -0.35930078833E+02  0.19634015199E+02  0.22481080597E+02  0.46721131221E+02  0.10000000000E+01 0.  0.
<mgrwt>
<rscale>  0 0.12499982E+03</rscale>
<asrwt>0</asrwt>
<pdfrwt beam="1">  1        4 0.60651366E-02 0.12499982E+03</pdfrwt>
<pdfrwt beam="2">  1       -4 0.15243739E-01 0.12499982E+03</pdfrwt>
<totfact> 0.10164649E+04</totfact>
</mgrwt>
</event>
<event>
 5    1  0.3282316E-002  0.1250036E+03  0.7818608E-02  0.1235064E+00
          4   -1    0    0  501    0  0.00000000000E+00  0.00000000000E+00  0.69761875800E+03  0.69761991400E+03  0.12700000000E+01 0. -1.
         -4   -1    0    0    0  501 -0.00000000000E+00 -0.00000000000E+00 -0.55265436465E+01  0.56705894471E+01  0.12700000000E+01 0. -1.
         25    2    1    2    0    0  0.00000000000E+00  0.00000000000E+00  0.69209221435E+03  0.70329050345E+03  0.12500359625E+03 0.  0.
    9000005    1    3    3    0    0 -0.53413696424E+02  0.11249252018E+02  0.17484927437E+03  0.18317433604E+03  0.10000000000E+01 0.  0.
    9000005    1    3    3    0    0  0.53413696424E+02 -0.11249252018E+02  0.51724293999E+03  0.52011616741E+03  0.10000000000E+01 0.  0.
<mgrwt>
<rscale>  0 0.12500360E+03</rscale>
<asrwt>0</asrwt>
<pdfrwt beam="1">  1        4 0.10733719E+00 0.12500360E+03</pdfrwt>
<pdfrwt beam="2">  1       -4 0.86140643E-03 0.12500360E+03</pdfrwt>
<totfact> 0.42910165E+03</totfact>
</mgrwt>
</event>
<event>
 5    1  0.3282316E-002  0.1249991E+03  0.7818608E-02  0.1235071E+00
          4   -1    0    0  501    0  0.00000000000E+00  0.00000000000E+00  0.32030990065E+03  0.32031241836E+03  0.12700000000E+01 0. -1.
         -4   -1    0    0    0  501 -0.00000000000E+00 -0.00000000000E+00 -0.12159414920E+02  0.12225558114E+02  0.12700000000E+01 0. -1.
         25    2    1    2    0    0  0.00000000000E+00  0.00000000000E+00  0.30815048573E+03  0.33253797647E+03  0.12499913576E+03 0.  0.
    9000005    1    3    3    0    0 -0.36405651627E+02  0.47486067116E+02  0.20202735280E+03  0.21070441220E+03  0.10000000000E+01 0.  0.
    9000005    1    3    3    0    0  0.36405651627E+02 -0.47486067116E+02  0.10612313293E+03  0.12183356427E+03  0.10000000000E+01 0.  0.
<mgrwt>
<rscale>  0 0.12499914E+03</rscale>
<asrwt>0</asrwt>
<pdfrwt beam="1">  1        4 0.49283730E-01 0.12499914E+03</pdfrwt>
<pdfrwt beam="2">  1       -4 0.18759608E-02 0.12499914E+03</pdfrwt>
<totfact> 0.71690671E+03</totfact>
</mgrwt>
</event>
<event>
 5    1  0.3282316E-002  0.1250001E+03  0.7818608E-02  0.1235069E+00
         -4   -1    0    0    0  501 -0.00000000000E+00  0.00000000000E+00  0.67948796336E+02  0.67960663796E+02  0.12700000000E+01 0.  1.
          4   -1    0    0  501    0  0.00000000000E+00 -0.00000000000E+00 -0.57464357800E+02  0.57478390003E+02  0.12700000000E+01 0.  1.
         25    2    1    2    0    0  0.00000000000E+00  0.00000000000E+00  0.10484438536E+02  0.12543905380E+03  0.12500013107E+03 0.  0.
    9000005    1    3    3    0    0  0.52029210230E+02 -0.23830196732E+02 -0.19952536194E+02  0.60613700547E+02  0.10000000000E+01 0.  0.
    9000005    1    3    3    0    0 -0.52029210230E+02  0.23830196732E+02  0.30436974731E+02  0.64825353252E+02  0.10000000000E+01 0.  0.
<mgrwt>
<rscale>  0 0.12500013E+03</rscale>
<asrwt>0</asrwt>
<pdfrwt beam="2">  1        4 0.88426627E-02 0.12500013E+03</pdfrwt>
<pdfrwt beam="1">  1       -4 0.10455653E-01 0.12500013E+03</pdfrwt>
<totfact> 0.10443271E+04</totfact>
</mgrwt>
</event>
<event>
 5    1  0.3282316E-002  0.1249939E+03  0.7818608E-02  0.1235079E+00
          4   -1    0    0  501    0  0.00000000000E+00  0.00000000000E+00  0.13017897210E+03  0.13018516688E+03  0.12700000000E+01 0. -1.
         -4   -1    0    0    0  501 -0.00000000000E+00 -0.00000000000E+00 -0.29983482839E+02  0.30010367261E+02  0.12700000000E+01 0. -1.
         25    2    1    2    0    0  0.00000000000E+00  0.00000000000E+00  0.10019548926E+03  0.16019553414E+03  0.12499389222E+03 0.  0.
    9000005    1    3    3    0    0  0.12847675853E+02  0.61153223971E+02  0.49716051973E+02  0.79859034559E+02  0.10000000000E+01 0.  0.
    9000005    1    3    3    0    0 -0.12847675853E+02 -0.61153223971E+02  0.50479437284E+02  0.80336499583E+02  0.10000000000E+01 0.  0.
<mgrwt>
<rscale>  0 0.12499389E+03</rscale>
<asrwt>0</asrwt>
<pdfrwt beam="1">  1        4 0.20030079E-01 0.12499389E+03</pdfrwt>
<pdfrwt beam="2">  1       -4 0.46153880E-02 0.12499389E+03</pdfrwt>
<totfact> 0.97318460E+03</totfact>
</mgrwt>
</event>
<event>
 5    1  0.3282316E-002  0.1250000E+03  0.7818608E-02  0.1235069E+00
          4   -1    0    0  501    0  0.00000000000E+00  0.00000000000E+00  0.99334496072E+02  0.99342614270E+02  0.12700000000E+01 0.  1.
         -4   -1    0    0    0  501 -0.00000000000E+00 -0.00000000000E+00 -0.39304192935E+02  0.39324705749E+02  0.12700000000E+01 0.  1.
         25    2    1    2    0    0  0.00000000000E+00  0.00000000000E+00  0.60030303137E+02  0.13866732002E+03  0.12499995339E+03 0.  0.
    9000005    1    3    3    0    0  0.41598416153E+02  0.46176536413E+02  0.37251098952E+02  0.72466165310E+02  0.10000000000E+01 0.  0.
    9000005    1    3    3    0    0 -0.41598416153E+02 -0.46176536413E+02  0.22779204185E+02  0.66201154709E+02  0.10000000000E+01 0.  0.
<mgrwt>
<rscale>  0 0.12499995E+03</rscale>
<asrwt>0</asrwt>
<pdfrwt beam="1">  1        4 0.15284433E-01 0.12499995E+03</pdfrwt>
<pdfrwt beam="2">  1       -4 0.60490013E-02 0.12499995E+03</pdfrwt>
<totfact> 0.10161292E+04</totfact>
</mgrwt>
</event>
<event>
 5    1  0.3282316E-002  0.1250049E+03  0.7818608E-02  0.1235062E+00
          4   -1    0    0  501    0  0.00000000000E+00  0.00000000000E+00  0.46672307509E+02  0.46689583294E+02  0.12700000000E+01 0. -1.
         -4   -1    0    0    0  501 -0.00000000000E+00 -0.00000000000E+00 -0.83664262147E+02  0.83673900713E+02  0.12700000000E+01 0. -1.
         25    2    1    2    0    0  0.00000000000E+00  0.00000000000E+00 -0.36991954638E+02  0.13036348401E+03  0.12500493292E+03 0.  0.
    9000005    1    3    3    0    0 -0.24742381294E+02 -0.42352442127E+02  0.21889277354E+02  0.53722018292E+02  0.10000000000E+01 0.  0.
    9000005    1    3    3    0    0  0.24742381294E+02  0.42352442127E+02 -0.58881231992E+02  0.76641465716E+02  0.10000000000E+01 0.  0.
<mgrwt>
<rscale>  0 0.12500493E+03</rscale>
<asrwt>0</asrwt>
<pdfrwt beam="1">  1        4 0.71824254E-02 0.12500493E+03</pdfrwt>
<pdfrwt beam="2">  1       -4 0.12873495E-01 0.12500493E+03</pdfrwt>
<totfact> 0.10335587E+04</totfact>
</mgrwt>
</event>
<event>
 5    1  0.3282316E-002  0.1250003E+03  0.7818608E-02  0.1235069E+00
          4   -1    0    0  501    0  0.00000000000E+00  0.00000000000E+00  0.20334076942E+02  0.20373698365E+02  0.12700000000E+01 0. -1.
         -4   -1    0    0    0  501 -0.00000000000E+00 -0.00000000000E+00 -0.19187580679E+03  0.19188000972E+03  0.12700000000E+01 0. -1.
         25    2    1    2    0    0  0.00000000000E+00  0.00000000000E+00 -0.17154172984E+03  0.21225370808E+03  0.12500028607E+03 0.  0.
    9000005    1    3    3    0    0  0.24886717480E+02  0.45139177696E+02 -0.25775651365E+02  0.57639207778E+02  0.10000000000E+01 0.  0.
    9000005    1    3    3    0    0 -0.24886717480E+02 -0.45139177696E+02 -0.14576607848E+03  0.15461450031E+03  0.10000000000E+01 0.  0.
<mgrwt>
<rscale>  0 0.12500029E+03</rscale>
<asrwt>0</asrwt>
<pdfrwt beam="1">  1        4 0.31316908E-02 0.12500029E+03</pdfrwt>
<pdfrwt beam="2">  1       -4 0.29522725E-01 0.12500029E+03</pdfrwt>
<totfact> 0.88108576E+03</totfact>
</mgrwt>
</event>
<event>
 5    1  0.3282316E-002  0.1250006E+03  0.7818608E-02  0.1235068E+00
         -4   -1    0    0    0  501 -0.00000000000E+00  0.00000000000E+00  0.77194641370E+02  0.77205087632E+02  0.12700000000E+01 0.  1.
          4   -1    0    0  501    0  0.00000000000E+00 -0.00000000000E+00 -0.50581288260E+02  0.50597229390E+02  0.12700000000E+01 0.  1.
         25    2    1    2    0    0  0.00000000000E+00  0.00000000000E+00  0.26613353110E+02  0.12780231702E+03  0.12500064669E+03 0.  0.
    9000005    1    3    3    0    0 -0.34233245142E+01  0.18222361676E+02 -0.47709356197E+02  0.51195275998E+02  0.10000000000E+01 0.  0.
    9000005    1    3    3    0    0  0.34233245142E+01 -0.18222361676E+02  0.74322709307E+02  0.76607041024E+02  0.10000000000E+01 0.  0.
<mgrwt>
<rscale>  0 0.12500065E+03</rscale>
<asrwt>0</asrwt>
<pdfrwt beam="2">  1        4 0.77837665E-02 0.12500065E+03</pdfrwt>
<pdfrwt beam="1">  1       -4 0.11878128E-01 0.12500065E+03</pdfrwt>
<totfact> 0.10391607E+04</totfact>
</mgrwt>
</event>
<event>
 5    1  0.3282316E-002  0.1250014E+03  0.7818608E-02  0.1235067E+00
          4   -1    0    0  501    0  0.00000000000E+00  0.00000000000E+00  0.44644762894E+02  0.44662822950E+02  0.12700000000E+01 0.  1.
         -4   -1    0    0    0  501 -0.00000000000E+00 -0.00000000000E+00 -0.87457825231E+02  0.87467045761E+02  0.12700000000E+01 0.  1.
         25    2    1    2    0    0  0.00000000000E+00  0.00000000000E+00 -0.42813062337E+02  0.13212986871E+03  0.12500137559E+03 0.  0.
    9000005    1    3    3    0    0  0.56486005910E+02 -0.16985592503E+02 -0.43227342852E+02  0.73135370283E+02  0.10000000000E+01 0.  0.
    9000005    1    3    3    0    0 -0.56486005910E+02  0.16985592503E+02  0.41428051501E+00  0.58994498427E+02  0.10000000000E+01 0.  0.
<mgrwt>
<rscale>  0 0.12500138E+03</rscale>
<asrwt>0</asrwt>
<pdfrwt beam="1">  1        4 0.68705236E-02 0.12500138E+03</pdfrwt>
<pdfrwt beam="2">  1       -4 0.13457148E-01 0.12500138E+03</pdfrwt>
<totfact> 0.10298608E+04</totfact>
</mgrwt>
</event>
<event>
 5    1  0.3282316E-002  0.1250018E+03  0.7818608E-02  0.1235066E+00
          4   -1    0    0  501    0  0.00000000000E+00  0.00000000000E+00  0.15984746444E+01  0.20415732141E+01  0.12700000000E+01 0.  1.
         -4   -1    0    0    0  501 -0.00000000000E+00 -0.00000000000E+00 -0.21458816359E+04  0.21458820117E+04  0.12700000000E+01 0.  1.
         25    2    1    2    0    0  0.00000000000E+00  0.00000000000E+00 -0.21442831612E+04  0.21479235849E+04  0.12500180415E+03 0.  0.
    9000005    1    3    3    0    0  0.18792284335E+02  0.14588555405E+02 -0.20651110889E+04  0.20652483592E+04  0.10000000000E+01 0.  0.
    9000005    1    3    3    0    0 -0.18792284335E+02 -0.14588555405E+02 -0.79172072377E+02  0.82675225695E+02  0.10000000000E+01 0.  0.
<mgrwt>
<rscale>  0 0.12500180E+03</rscale>
<asrwt>0</asrwt>
<pdfrwt beam="1">  1        4 0.28003431E-03 0.12500180E+03</pdfrwt>
<pdfrwt beam="2">  1       -4 0.33016773E+00 0.12500180E+03</pdfrwt>
<totfact> 0.80517656E+02</totfact>
</mgrwt>
</event>
<event>
 5    1  0.3282316E-002  0.1250000E+03  0.7818608E-02  0.1235069E+00
          4   -1    0    0  501    0  0.00000000000E+00  0.00000000000E+00  0.12022654593E+02  0.12089546040E+02  0.12700000000E+01 0. -1.
         -4   -1    0    0    0  501 -0.00000000000E+00 -0.00000000000E+00 -0.32393800247E+03  0.32394049198E+03  0.12700000000E+01 0. -1.
         25    2    1    2    0    0  0.00000000000E+00  0.00000000000E+00 -0.31191534787E+03  0.33603003802E+03  0.12500000884E+03 0.  0.
    9000005    1    3    3    0    0  0.30419618607E+02  0.34451915078E+01 -0.95033983209E+01  0.32070814151E+02  0.10000000000E+01 0.  0.
    9000005    1    3    3    0    0 -0.30419618607E+02 -0.34451915078E+01 -0.30241194955E+03  0.30395922386E+03  0.10000000000E+01 0.  0.
<mgrwt>
<rscale>  0 0.12500001E+03</rscale>
<asrwt>0</asrwt>
<pdfrwt beam="1">  1        4 0.18549764E-02 0.12500001E+03</pdfrwt>
<pdfrwt beam="2">  1       -4 0.49841946E-01 0.12500001E+03</pdfrwt>
<totfact> 0.71289258E+03</totfact>
</mgrwt>
</event>
<event>
 5    1  0.3282316E-002  0.1249996E+03  0.7818608E-02  0.1235070E+00
         -4   -1    0    0    0  501 -0.00000000000E+00  0.00000000000E+00  0.11994171764E+02  0.12061221178E+02  0.12700000000E+01 0. -1.
          4   -1    0    0  501    0  0.00000000000E+00 -0.00000000000E+00 -0.32470067667E+03  0.32470316034E+03  0.12700000000E+01 0. -1.
         25    2    1    2    0    0  0.00000000000E+00  0.00000000000E+00 -0.31270650491E+03  0.33676438151E+03  0.12499956178E+03 0.  0.
    9000005    1    3    3    0    0  0.52234179436E+01 -0.60834493483E+02 -0.12049983811E+03  0.13509008356E+03  0.10000000000E+01 0.  0.
    9000005    1    3    3    0    0 -0.52234179436E+01  0.60834493483E+02 -0.19220666680E+03  0.20167429795E+03  0.10000000000E+01 0.  0.
<mgrwt>
<rscale>  0 0.12499956E+03</rscale>
<asrwt>0</asrwt>
<pdfrwt beam="2">  1        4 0.49959292E-01 0.12499956E+03</pdfrwt>
<pdfrwt beam="1">  1       -4 0.18506061E-02 0.12499956E+03</pdfrwt>
<totfact> 0.71206301E+03</totfact>
</mgrwt>
</event>
<event>
 5    1  0.3282316E-002  0.1250011E+03  0.7818608E-02  0.1235068E+00
         -4   -1    0    0    0  501 -0.00000000000E+00  0.00000000000E+00  0.36352539829E+01  0.38507105215E+01  0.12700000000E+01 0. -1.
          4   -1    0    0  501    0  0.00000000000E+00 -0.00000000000E+00 -0.10434217028E+04  0.10434224757E+04  0.12700000000E+01 0. -1.
         25    2    1    2    0    0  0.00000000000E+00  0.00000000000E+00 -0.10397864488E+04  0.10472731862E+04  0.12500106965E+03 0.  0.
    9000005    1    3    3    0    0 -0.41784085227E+02 -0.12783713530E+02 -0.89419747144E+03  0.89526501721E+03  0.10000000000E+01 0.  0.
    9000005    1    3    3    0    0  0.41784085227E+02  0.12783713530E+02 -0.14558897741E+03  0.15200816903E+03  0.10000000000E+01 0.  0.
<mgrwt>
<rscale>  0 0.12500107E+03</rscale>
<asrwt>0</asrwt>
<pdfrwt beam="2">  1        4 0.16054282E+00 0.12500107E+03</pdfrwt>
<pdfrwt beam="1">  1       -4 0.57590371E-03 0.12500107E+03</pdfrwt>
<totfact> 0.29079429E+03</totfact>
</mgrwt>
</event>
<event>
 5    1  0.3282316E-002  0.1249981E+03  0.7818608E-02  0.1235072E+00
          4   -1    0    0  501    0  0.00000000000E+00  0.00000000000E+00  0.37846131944E+03  0.37846345029E+03  0.12700000000E+01 0. -1.
         -4   -1    0    0    0  501 -0.00000000000E+00 -0.00000000000E+00 -0.10279841590E+02  0.10357994165E+02  0.12700000000E+01 0. -1.
         25    2    1    2    0    0  0.00000000000E+00  0.00000000000E+00  0.36818147785E+03  0.38882144446E+03  0.12499806016E+03 0.  0.
    9000005    1    3    3    0    0 -0.45686495852E+01  0.57259735222E+02  0.10754300967E+03  0.12192640718E+03  0.10000000000E+01 0.  0.
    9000005    1    3    3    0    0  0.45686495852E+01 -0.57259735222E+02  0.26063846817E+03  0.26689503728E+03  0.10000000000E+01 0.  0.
<mgrwt>
<rscale>  0 0.12499806E+03</rscale>
<asrwt>0</asrwt>
<pdfrwt beam="1">  1        4 0.58231002E-01 0.12499806E+03</pdfrwt>
<pdfrwt beam="2">  1       -4 0.15876895E-02 0.12499806E+03</pdfrwt>
<totfact> 0.65657525E+03</totfact>
</mgrwt>
</event>
<event>
 5    1  0.3282316E-002  0.1249831E+03  0.7818608E-02  0.1235096E+00
         -4   -1    0    0    0  501 -0.00000000000E+00  0.00000000000E+00  0.51768428194E+03  0.51768583974E+03  0.12700000000E+01 0.  1.
          4   -1    0    0  501    0  0.00000000000E+00 -0.00000000000E+00 -0.74885531018E+01  0.75954807325E+01  0.12700000000E+01 0.  1.
         25    2    1    2    0    0  0.00000000000E+00  0.00000000000E+00  0.51019572884E+03  0.52528132048E+03  0.12498313451E+03 0.  0.
    9000005    1    3    3    0    0  0.54401908645E+02 -0.18376487809E+02  0.15155720560E+03  0.16207359297E+03  0.10000000000E+01 0.  0.
    9000005    1    3    3    0    0 -0.54401908645E+02  0.18376487809E+02  0.35863852324E+03  0.36320772750E+03  0.10000000000E+01 0.  0.
<mgrwt>
<rscale>  0 0.12498313E+03</rscale>
<asrwt>0</asrwt>
<pdfrwt beam="2">  1        4 0.11604301E-02 0.12498313E+03</pdfrwt>
<pdfrwt beam="1">  1       -4 0.79652085E-01 0.12498313E+03</pdfrwt>
<totfact> 0.53974844E+03</totfact>
</mgrwt>
</event>
<event>
 5    1  0.3282316E-002  0.1250007E+03  0.7818608E-02  0.1235068E+00
          4   -1    0    0  501    0  0.00000000000E+00  0.00000000000E+00  0.21425645384E+03  0.21426021776E+03  0.12700000000E+01 0.  1.
         -4   -1    0    0    0  501 -0.00000000000E+00 -0.00000000000E+00 -0.18205819907E+02  0.18250062424E+02  0.12700000000E+01 0.  1.
         25    2    1    2    0    0  0.00000000000E+00  0.00000000000E+00  0.19605063394E+03  0.23251028018E+03  0.12500071729E+03 0.  0.
    9000005    1    3    3    0    0 -0.23205115021E+02 -0.57007122707E+02  0.77905099987E+02  0.99289949171E+02  0.10000000000E+01 0.  0.
    9000005    1    3    3    0    0  0.23205115021E+02  0.57007122707E+02  0.11814553395E+03  0.13322033101E+03  0.10000000000E+01 0.  0.
<mgrwt>
<rscale>  0 0.12500072E+03</rscale>
<asrwt>0</asrwt>
<pdfrwt beam="1">  1        4 0.32966223E-01 0.12500072E+03</pdfrwt>
<pdfrwt beam="2">  1       -4 0.28045882E-02 0.12500072E+03</pdfrwt>
<totfact> 0.84924267E+03</totfact>
</mgrwt>
</event>
<event>
 5    1  0.3282316E-002  0.1250059E+03  0.7818608E-02  0.1235060E+00
         -4   -1    0    0    0  501 -0.00000000000E+00  0.00000000000E+00  0.83421450323E+01  0.84382630760E+01  0.12700000000E+01 0. -1.
          4   -1    0    0  501    0  0.00000000000E+00 -0.00000000000E+00 -0.46551943993E+03  0.46552117230E+03  0.12700000000E+01 0. -1.
         25    2    1    2    0    0  0.00000000000E+00  0.00000000000E+00 -0.45717729490E+03  0.47395943537E+03  0.12500586948E+03 0.  0.
    9000005    1    3    3    0    0 -0.44639719013E+02 -0.43311328482E+02 -0.20551304363E+03  0.21472118384E+03  0.10000000000E+01 0.  0.
    9000005    1    3    3    0    0  0.44639719013E+02  0.43311328482E+02 -0.25166425127E+03  0.25923825153E+03  0.10000000000E+01 0.  0.
<mgrwt>
<rscale>  0 0.12500587E+03</rscale>
<asrwt>0</asrwt>
<pdfrwt beam="2">  1        4 0.71625882E-01 0.12500587E+03</pdfrwt>
<pdfrwt beam="1">  1       -4 0.12909342E-02 0.12500587E+03</pdfrwt>
<totfact> 0.57935483E+03</totfact>
</mgrwt>
</event>
<event>
 5    1  0.3282316E-002  0.1249914E+03  0.7818608E-02  0.1235083E+00
          4   -1    0    0  501    0  0.00000000000E+00  0.00000000000E+00  0.13744117839E+03  0.13744704587E+03  0.12700000000E+01 0. -1.
         -4   -1    0    0    0  501 -0.00000000000E+00 -0.00000000000E+00 -0.28396691285E+02  0.28425076533E+02  0.12700000000E+01 0. -1.
         25    2    1    2    0    0  0.00000000000E+00  0.00000000000E+00  0.10904448711E+03  0.16587212240E+03  0.12499144299E+03 0.  0.
    9000005    1    3    3    0    0  0.33802817531E+00  0.54931010305E+02  0.14994663491E+02  0.56950593407E+02  0.10000000000E+01 0.  0.
    9000005    1    3    3    0    0 -0.33802817531E+00 -0.54931010305E+02  0.94049823616E+02  0.10892152899E+03  0.10000000000E+01 0.  0.
<mgrwt>
<rscale>  0 0.12499144E+03</rscale>
<asrwt>0</asrwt>
<pdfrwt beam="1">  1        4 0.21147431E-01 0.12499144E+03</pdfrwt>
<pdfrwt beam="2">  1       -4 0.43713566E-02 0.12499144E+03</pdfrwt>
<totfact> 0.96240978E+03</totfact>
</mgrwt>
</event>
<event>
 5    1  0.3282316E-002  0.1249981E+03  0.7818608E-02  0.1235072E+00
          4   -1    0    0  501    0  0.00000000000E+00  0.00000000000E+00  0.75553762907E+03  0.75553869645E+03  0.12700000000E+01 0. -1.
         -4   -1    0    0    0  501 -0.00000000000E+00 -0.00000000000E+00 -0.50909208438E+01  0.52469395878E+01  0.12700000000E+01 0. -1.
         25    2    1    2    0    0  0.00000000000E+00  0.00000000000E+00  0.75044670822E+03  0.76078563604E+03  0.12499808847E+03 0.  0.
    9000005    1    3    3    0    0 -0.47837037986E+02  0.38652774524E+02  0.44264530230E+03  0.44689851513E+03  0.10000000000E+01 0.  0.
    9000005    1    3    3    0    0  0.47837037986E+02 -0.38652774524E+02  0.30780140593E+03  0.31388712091E+03  0.10000000000E+01 0.  0.
<mgrwt>
<rscale>  0 0.12499809E+03</rscale>
<asrwt>0</asrwt>
<pdfrwt beam="1">  1        4 0.11624869E+00 0.12499809E+03</pdfrwt>
<pdfrwt beam="2">  1       -4 0.79530183E-03 0.12499809E+03</pdfrwt>
<totfact> 0.40065158E+03</totfact>
</mgrwt>
</event>
<event>
 5    1  0.3282316E-002  0.1249977E+03  0.7818608E-02  0.1235073E+00
         -4   -1    0    0    0  501 -0.00000000000E+00  0.00000000000E+00  0.37133648984E+01  0.39245354972E+01  0.12700000000E+01 0. -1.
          4   -1    0    0  501    0  0.00000000000E+00 -0.00000000000E+00 -0.10226110762E+04  0.10226118649E+04  0.12700000000E+01 0. -1.
         25    2    1    2    0    0  0.00000000000E+00  0.00000000000E+00 -0.10188977113E+04  0.10265364003E+04  0.12499774029E+03 0.  0.
    9000005    1    3    3    0    0  0.57358108193E+02 -0.23873428098E+02 -0.45422630532E+03  0.45845657329E+03  0.10000000000E+01 0.  0.
    9000005    1    3    3    0    0 -0.57358108193E+02  0.23873428098E+02 -0.56467140601E+03  0.56807982706E+03  0.10000000000E+01 0.  0.
<mgrwt>
<rscale>  0 0.12499774E+03</rscale>
<asrwt>0</asrwt>
<pdfrwt beam="2">  1        4 0.15734087E+00 0.12499774E+03</pdfrwt>
<pdfrwt beam="1">  1       -4 0.58759228E-03 0.12499774E+03</pdfrwt>
<totfact> 0.29740356E+03</totfact>
</mgrwt>
</event>
<event>
 5    1  0.3282316E-002  0.1250008E+03  0.7818608E-02  0.1235068E+00
         -4   -1    0    0    0  501 -0.00000000000E+00  0.00000000000E+00  0.31920772423E+03  0.31921025063E+03  0.12700000000E+01 0.  1.
          4   -1    0    0  501    0  0.00000000000E+00 -0.00000000000E+00 -0.12201944788E+02  0.12267858681E+02  0.12700000000E+01 0.  1.
         25    2    1    2    0    0  0.00000000000E+00  0.00000000000E+00  0.30700577944E+03  0.33147810931E+03  0.12500075337E+03 0.  0.
    9000005    1    3    3    0    0 -0.19607576539E+02  0.57148999239E+02  0.11117085629E+03  0.12653230599E+03  0.10000000000E+01 0.  0.
    9000005    1    3    3    0    0  0.19607576539E+02 -0.57148999239E+02  0.19583492315E+03  0.20494580332E+03  0.10000000000E+01 0.  0.
<mgrwt>
<rscale>  0 0.12500075E+03</rscale>
<asrwt>0</asrwt>
<pdfrwt beam="2">  1        4 0.18824871E-02 0.12500075E+03</pdfrwt>
<pdfrwt beam="1">  1       -4 0.49114141E-01 0.12500075E+03</pdfrwt>
<totfact> 0.71810240E+03</totfact>
</mgrwt>
</event>
<event>
 5    1  0.3282316E-002  0.1250021E+03  0.7818608E-02  0.1235066E+00
          4   -1    0    0  501    0  0.00000000000E+00  0.00000000000E+00  0.11271396482E+03  0.11272111943E+03  0.12700000000E+01 0.  1.
         -4   -1    0    0    0  501 -0.00000000000E+00 -0.00000000000E+00 -0.34637571702E+02  0.34660846404E+02  0.12700000000E+01 0.  1.
         25    2    1    2    0    0  0.00000000000E+00  0.00000000000E+00  0.78076393122E+02  0.14738196584E+03  0.12500208275E+03 0.  0.
    9000005    1    3    3    0    0  0.49130791647E+02  0.22053021879E+02  0.16568076505E+01  0.53887990067E+02  0.10000000000E+01 0.  0.
    9000005    1    3    3    0    0 -0.49130791647E+02 -0.22053021879E+02  0.76419585471E+02  0.93493975771E+02  0.10000000000E+01 0.  0.
<mgrwt>
<rscale>  0 0.12500208E+03</rscale>
<asrwt>0</asrwt>
<pdfrwt beam="1">  1        4 0.17342951E-01 0.12500208E+03</pdfrwt>
<pdfrwt beam="2">  1       -4 0.53311978E-02 0.12500208E+03</pdfrwt>
<totfact> 0.99823466E+03</totfact>
</mgrwt>
</event>
<event>
 5    1  0.3282316E-002  0.1250003E+03  0.7818608E-02  0.1235069E+00
         -4   -1    0    0    0  501 -0.00000000000E+00  0.00000000000E+00  0.90261945500E+01  0.91151021966E+01  0.12700000000E+01 0.  1.
          4   -1    0    0  501    0  0.00000000000E+00 -0.00000000000E+00 -0.43055935046E+03  0.43056122349E+03  0.12700000000E+01 0.  1.
         25    2    1    2    0    0  0.00000000000E+00  0.00000000000E+00 -0.42153315591E+03  0.43967632568E+03  0.12500027933E+03 0.  0.
    9000005    1    3    3    0    0 -0.24472669969E+02  0.55644332644E+02 -0.26174636835E+03  0.26871428074E+03  0.10000000000E+01 0.  0.
    9000005    1    3    3    0    0  0.24472669969E+02 -0.55644332644E+02 -0.15978678756E+03  0.17096204494E+03  0.10000000000E+01 0.  0.
<mgrwt>
<rscale>  0 0.12500028E+03</rscale>
<asrwt>0</asrwt>
<pdfrwt beam="2">  1        4 0.66246867E-01 0.12500028E+03</pdfrwt>
<pdfrwt beam="1">  1       -4 0.13956288E-02 0.12500028E+03</pdfrwt>
<totfact> 0.60868211E+03</totfact>
</mgrwt>
</event>
<event>
 5    1  0.3282316E-002  0.1249918E+03  0.7818608E-02  0.1235082E+00
         -4   -1    0    0    0  501 -0.00000000000E+00  0.00000000000E+00  0.14359483702E+03  0.14360045306E+03  0.12700000000E+01 0. -1.
          4   -1    0    0  501    0  0.00000000000E+00 -0.00000000000E+00 -0.27178735913E+02  0.27208391827E+02  0.12700000000E+01 0. -1.
         25    2    1    2    0    0  0.00000000000E+00  0.00000000000E+00  0.11641610111E+03  0.17080884489E+03  0.12499181131E+03 0.  0.
    9000005    1    3    3    0    0 -0.21951319225E+02 -0.33446087056E+02  0.12380631867E+03  0.13011343396E+03  0.10000000000E+01 0.  0.
    9000005    1    3    3    0    0  0.21951319225E+02  0.33446087056E+02 -0.73902175566E+01  0.40695410929E+02  0.10000000000E+01 0.  0.
<mgrwt>
<rscale>  0 0.12499181E+03</rscale>
<asrwt>0</asrwt>
<pdfrwt beam="2">  1        4 0.41840572E-02 0.12499181E+03</pdfrwt>
<pdfrwt beam="1">  1       -4 0.22094227E-01 0.12499181E+03</pdfrwt>
<totfact> 0.95315609E+03</totfact>
</mgrwt>
</event>
<event>
 5    1  0.3282316E-002  0.1250034E+03  0.7818608E-02  0.1235064E+00
          4   -1    0    0  501    0  0.00000000000E+00  0.00000000000E+00  0.42457250204E+02  0.42476240357E+02  0.12700000000E+01 0.  1.
         -4   -1    0    0    0  501 -0.00000000000E+00 -0.00000000000E+00 -0.91965433533E+02  0.91974202170E+02  0.12700000000E+01 0.  1.
         25    2    1    2    0    0  0.00000000000E+00  0.00000000000E+00 -0.49508183329E+02  0.13445044253E+03  0.12500344507E+03 0.  0.
    9000005    1    3    3    0    0  0.49206267730E+02 -0.11761066975E+02  0.14704753044E+02  0.52695438534E+02  0.10000000000E+01 0.  0.
    9000005    1    3    3    0    0 -0.49206267730E+02  0.11761066975E+02 -0.64212936372E+02  0.81755003993E+02  0.10000000000E+01 0.  0.
<mgrwt>
<rscale>  0 0.12500345E+03</rscale>
<asrwt>0</asrwt>
<pdfrwt beam="1">  1        4 0.65340200E-02 0.12500345E+03</pdfrwt>
<pdfrwt beam="2">  1       -4 0.14150663E-01 0.12500345E+03</pdfrwt>
<totfact> 0.10248871E+04</totfact>
</mgrwt>
</event>
<event>
 4    1  0.3282316E-002  0.1261968E+03  0.7818608E-02  0.1233211E+00
         -4   -1    0    0    0  501 -0.00000000000E+00  0.00000000000E+00  0.19680113771E+02  0.19721049111E+02  0.12700000000E+01 0. -1.
          4   -1    0    0  501    0  0.00000000000E+00 -0.00000000000E+00 -0.20205315889E+03  0.20205715013E+03  0.12700000000E+01 0. -1.
    9000005    1    1    2    0    0 -0.35426609831E+02  0.52179214380E+02 -0.94071773763E+02  0.11326170454E+03  0.10000000000E+01 0.  0.
    9000005    1    1    2    0    0  0.35426609831E+02 -0.52179214380E+02 -0.88301271355E+02  0.10851649469E+03  0.10000000000E+01 0.  0.
<mgrwt>
<rscale>  0 0.12619684E+03</rscale>
<asrwt>0</asrwt>
<pdfrwt beam="2">  1        4 0.31088556E-01 0.12619684E+03</pdfrwt>
<pdfrwt beam="1">  1       -4 0.30311658E-02 0.12619684E+03</pdfrwt>
<totfact> 0.84313448E+03</totfact>
</mgrwt>
</event>
<event>
 5    1  0.3282316E-002  0.1249945E+03  0.7818608E-02  0.1235078E+00
         -4   -1    0    0    0  501 -0.00000000000E+00  0.00000000000E+00  0.30553856425E+02  0.30580239411E+02  0.12700000000E+01 0.  1.
          4   -1    0    0  501    0  0.00000000000E+00 -0.00000000000E+00 -0.12775198559E+03  0.12775829806E+03  0.12700000000E+01 0.  1.
         25    2    1    2    0    0  0.00000000000E+00  0.00000000000E+00 -0.97198129167E+02  0.15833853747E+03  0.12499446441E+03 0.  0.
    9000005    1    3    3    0    0 -0.22276884108E+02 -0.21984337457E+02  0.19915599399E+02  0.37110669065E+02  0.10000000000E+01 0.  0.
    9000005    1    3    3    0    0  0.22276884108E+02  0.21984337457E+02 -0.11711372857E+03  0.12122786840E+03  0.10000000000E+01 0.  0.
<mgrwt>
<rscale>  0 0.12499446E+03</rscale>
<asrwt>0</asrwt>
<pdfrwt beam="2">  1        4 0.19656666E-01 0.12499446E+03</pdfrwt>
<pdfrwt beam="1">  1       -4 0.47031084E-02 0.12499446E+03</pdfrwt>
<totfact> 0.97676216E+03</totfact>
</mgrwt>
</event>
<event>
 5    1  0.3282316E-002  0.1249992E+03  0.7818608E-02  0.1235071E+00
         -4   -1    0    0    0  501 -0.00000000000E+00  0.00000000000E+00  0.10349183525E+03  0.10349962736E+03  0.12700000000E+01 0. -1.
          4   -1    0    0  501    0  0.00000000000E+00 -0.00000000000E+00 -0.37724131988E+02  0.37745503497E+02  0.12700000000E+01 0. -1.
         25    2    1    2    0    0  0.00000000000E+00  0.00000000000E+00  0.65767703259E+02  0.14124513085E+03  0.12499918479E+03 0.  0.
    9000005    1    3    3    0    0 -0.24791217195E+02  0.44818270778E+02 -0.75733921755E+01  0.51784535477E+02  0.10000000000E+01 0.  0.
    9000005    1    3    3    0    0  0.24791217195E+02 -0.44818270778E+02  0.73341095435E+02  0.89460595377E+02  0.10000000000E+01 0.  0.
<mgrwt>
<rscale>  0 0.12499918E+03</rscale>
<asrwt>0</asrwt>
<pdfrwt beam="2">  1        4 0.58059561E-02 0.12499918E+03</pdfrwt>
<pdfrwt beam="1">  1       -4 0.15924064E-01 0.12499918E+03</pdfrwt>
<totfact> 0.10108030E+04</totfact>
</mgrwt>
</event>
<event>
 5    1  0.3282316E-002  0.1250006E+03  0.7818608E-02  0.1235068E+00
          4   -1    0    0  501    0  0.00000000000E+00  0.00000000000E+00  0.19393605469E+03  0.19394021297E+03  0.12700000000E+01 0. -1.
         -4   -1    0    0    0  501 -0.00000000000E+00 -0.00000000000E+00 -0.20117737419E+02  0.20157784077E+02  0.12700000000E+01 0. -1.
         25    2    1    2    0    0  0.00000000000E+00  0.00000000000E+00  0.17381831727E+03  0.21409799705E+03  0.12500057969E+03 0.  0.
    9000005    1    3    3    0    0  0.27901215668E+02 -0.42083707618E+02  0.14997491067E+03  0.15824977129E+03  0.10000000000E+01 0.  0.
    9000005    1    3    3    0    0 -0.27901215668E+02  0.42083707618E+02  0.23843406603E+02  0.55848225764E+02  0.10000000000E+01 0.  0.
<mgrwt>
<rscale>  0 0.12500058E+03</rscale>
<asrwt>0</asrwt>
<pdfrwt beam="1">  1        4 0.29839716E-01 0.12500058E+03</pdfrwt>
<pdfrwt beam="2">  1       -4 0.30984370E-02 0.12500058E+03</pdfrwt>
<totfact> 0.87809829E+03</totfact>
</mgrwt>
</event>
<event>
 5    1  0.3282316E-002  0.1250017E+03  0.7818608E-02  0.1235067E+00
          4   -1    0    0  501    0  0.00000000000E+00  0.00000000000E+00  0.19263149035E+03  0.19263567680E+03  0.12700000000E+01 0.  1.
         -4   -1    0    0    0  501 -0.00000000000E+00 -0.00000000000E+00 -0.20254597423E+02  0.20294374018E+02  0.12700000000E+01 0.  1.
         25    2    1    2    0    0  0.00000000000E+00  0.00000000000E+00  0.17237689293E+03  0.21293005082E+03  0.12500165329E+03 0.  0.
    9000005    1    3    3    0    0 -0.19253642538E+02 -0.24647888622E+02  0.17834842540E+03  0.18107286380E+03  0.10000000000E+01 0.  0.
    9000005    1    3    3    0    0  0.19253642538E+02  0.24647888622E+02 -0.59715324648E+01  0.31857187015E+02  0.10000000000E+01 0.  0.
<mgrwt>
<rscale>  0 0.12500165E+03</rscale>
<asrwt>0</asrwt>
<pdfrwt beam="1">  1        4 0.29638996E-01 0.12500165E+03</pdfrwt>
<pdfrwt beam="2">  1       -4 0.31194737E-02 0.12500165E+03</pdfrwt>
<totfact> 0.87996338E+03</totfact>
</mgrwt>
</event>
<event>
 5    1  0.3282316E-002  0.1250013E+03  0.7818608E-02  0.1235067E+00
          4   -1    0    0  501    0  0.00000000000E+00  0.00000000000E+00  0.47081261288E+01  0.48764076578E+01  0.12700000000E+01 0. -1.
         -4   -1    0    0    0  501 -0.00000000000E+00 -0.00000000000E+00 -0.81496404089E+03  0.81496503044E+03  0.12700000000E+01 0. -1.
         25    2    1    2    0    0  0.00000000000E+00  0.00000000000E+00 -0.81025591476E+03  0.81984143810E+03  0.12500134487E+03 0.  0.
    9000005    1    3    3    0    0 -0.20114626937E+02 -0.45346401896E+00 -0.17082954675E+02  0.26412708813E+02  0.10000000000E+01 0.  0.
    9000005    1    3    3    0    0  0.20114626937E+02  0.45346401896E+00 -0.79317296009E+03  0.79342872929E+03  0.10000000000E+01 0.  0.
<mgrwt>
<rscale>  0 0.12500134E+03</rscale>
<asrwt>0</asrwt>
<pdfrwt beam="1">  1        4 0.73734860E-03 0.12500134E+03</pdfrwt>
<pdfrwt beam="2">  1       -4 0.12539199E+00 0.12500134E+03</pdfrwt>
<totfact> 0.37393088E+03</totfact>
</mgrwt>
</event>
<event>
 5    1  0.3282316E-002  0.1250020E+03  0.7818608E-02  0.1235066E+00
         -4   -1    0    0    0  501 -0.00000000000E+00  0.00000000000E+00  0.65838097618E+02  0.65850345465E+02  0.12700000000E+01 0.  1.
          4   -1    0    0  501    0  0.00000000000E+00 -0.00000000000E+00 -0.59308523612E+02  0.59322119593E+02  0.12700000000E+01 0.  1.
         25    2    1    2    0    0  0.00000000000E+00  0.00000000000E+00  0.65295740057E+01  0.12517246506E+03  0.12500204267E+03 0.  0.
    9000005    1    3    3    0    0 -0.29718226543E+02 -0.54213489733E+02 -0.58636827778E+01  0.62110049377E+02  0.10000000000E+01 0.  0.
    9000005    1    3    3    0    0  0.29718226543E+02  0.54213489733E+02  0.12393256783E+02  0.63062415682E+02  0.10000000000E+01 0.  0.
<mgrwt>
<rscale>  0 0.12500204E+03</rscale>
<asrwt>0</asrwt>
<pdfrwt beam="2">  1        4 0.91263762E-02 0.12500204E+03</pdfrwt>
<pdfrwt beam="1">  1       -4 0.10130926E-01 0.12500204E+03</pdfrwt>
<totfact> 0.10448635E+04</totfact>
</mgrwt>
</event>
<event>
 5    1  0.3282316E-002  0.1249977E+03  0.7818608E-02  0.1235073E+00
         -4   -1    0    0    0  501 -0.00000000000E+00  0.00000000000E+00  0.62926570980E+02  0.62939385406E+02  0.12700000000E+01 0.  1.
          4   -1    0    0  501    0  0.00000000000E+00 -0.00000000000E+00 -0.62048378593E+02  0.62061374348E+02  0.12700000000E+01 0.  1.
         25    2    1    2    0    0  0.00000000000E+00  0.00000000000E+00  0.87819238757E+00  0.12500075975E+03  0.12499767485E+03 0.  0.
    9000005    1    3    3    0    0 -0.66295996634E+01 -0.61645633918E+02 -0.73693553747E+01  0.62445521629E+02  0.10000000000E+01 0.  0.
    9000005    1    3    3    0    0  0.66295996634E+01  0.61645633918E+02  0.82475477622E+01  0.62555238126E+02  0.10000000000E+01 0.  0.
<mgrwt>
<rscale>  0 0.12499767E+03</rscale>
<asrwt>0</asrwt>
<pdfrwt beam="2">  1        4 0.95478898E-02 0.12499767E+03</pdfrwt>
<pdfrwt beam="1">  1       -4 0.96829963E-02 0.12499767E+03</pdfrwt>
<totfact> 0.10453395E+04</totfact>
</mgrwt>
</event>
<event>
 5    1  0.3282316E-002  0.1249996E+03  0.7818608E-02  0.1235070E+00
         -4   -1    0    0    0  501 -0.00000000000E+00  0.00000000000E+00  0.66214661926E+02  0.66226840133E+02  0.12700000000E+01 0.  1.
          4   -1    0    0  501    0  0.00000000000E+00 -0.00000000000E+00 -0.58968904321E+02  0.58982578587E+02  0.12700000000E+01 0.  1.
         25    2    1    2    0    0  0.00000000000E+00  0.00000000000E+00  0.72457576052E+01  0.12520941872E+03  0.12499959013E+03 0.  0.
    9000005    1    3    3    0    0 -0.50671618668E+02 -0.36085736711E+01  0.40078884842E+02  0.64714385978E+02  0.10000000000E+01 0.  0.
    9000005    1    3    3    0    0  0.50671618668E+02  0.36085736711E+01 -0.32833127237E+02  0.60495032742E+02  0.10000000000E+01 0.  0.
<mgrwt>
<rscale>  0 0.12499959E+03</rscale>
<asrwt>0</asrwt>
<pdfrwt beam="2">  1        4 0.90741278E-02 0.12499959E+03</pdfrwt>
<pdfrwt beam="1">  1       -4 0.10188860E-01 0.12499959E+03</pdfrwt>
<totfact> 0.10448413E+04</totfact>
</mgrwt>
</event>
<event>
 5    1  0.3282316E-002  0.1249994E+03  0.7818608E-02  0.1235070E+00
          4   -1    0    0  501    0  0.00000000000E+00  0.00000000000E+00  0.89637875097E+03  0.89637965065E+03  0.12700000000E+01 0.  1.
         -4   -1    0    0    0  501 -0.00000000000E+00 -0.00000000000E+00 -0.42643155212E+01  0.44494142159E+01  0.12700000000E+01 0.  1.
         25    2    1    2    0    0  0.00000000000E+00  0.00000000000E+00  0.89211443545E+03  0.90082906486E+03  0.12499935265E+03 0.  0.
    9000005    1    3    3    0    0  0.39025666435E+02 -0.44235389639E+02  0.59470292054E+03  0.59762223523E+03  0.10000000000E+01 0.  0.
    9000005    1    3    3    0    0 -0.39025666435E+02  0.44235389639E+02  0.29741151491E+03  0.30320682963E+03  0.10000000000E+01 0.  0.
<mgrwt>
<rscale>  0 0.12499935E+03</rscale>
<asrwt>0</asrwt>
<pdfrwt beam="1">  1        4 0.13791877E+00 0.12499935E+03</pdfrwt>
<pdfrwt beam="2">  1       -4 0.67035591E-03 0.12499935E+03</pdfrwt>
<totfact> 0.34128661E+03</totfact>
</mgrwt>
</event>
<event>
 5    1  0.3282316E-002  0.1250006E+03  0.7818608E-02  0.1235068E+00
         -4   -1    0    0    0  501 -0.00000000000E+00  0.00000000000E+00  0.61562270804E+02  0.61575369154E+02  0.12700000000E+01 0.  1.
          4   -1    0    0  501    0  0.00000000000E+00 -0.00000000000E+00 -0.63426381943E+02  0.63439095410E+02  0.12700000000E+01 0.  1.
         25    2    1    2    0    0  0.00000000000E+00  0.00000000000E+00 -0.18641111397E+01  0.12501446456E+03  0.12500056576E+03 0.  0.
    9000005    1    3    3    0    0  0.33075680884E+02  0.39534809565E+02 -0.36267040149E+02  0.63034118020E+02  0.10000000000E+01 0.  0.
    9000005    1    3    3    0    0 -0.33075680884E+02 -0.39534809565E+02  0.34402929009E+02  0.61980346545E+02  0.10000000000E+01 0.  0.
<mgrwt>
<rscale>  0 0.12500057E+03</rscale>
<asrwt>0</asrwt>
<pdfrwt beam="2">  1        4 0.97598904E-02 0.12500057E+03</pdfrwt>
<pdfrwt beam="1">  1       -4 0.94731042E-02 0.12500057E+03</pdfrwt>
<totfact> 0.10452415E+04</totfact>
</mgrwt>
</event>
<event>
 5    1  0.3282316E-002  0.1250055E+03  0.7818608E-02  0.1235061E+00
          4   -1    0    0  501    0  0.00000000000E+00  0.00000000000E+00  0.90987698362E+02  0.90996561216E+02  0.12700000000E+01 0. -1.
         -4   -1    0    0    0  501 -0.00000000000E+00 -0.00000000000E+00 -0.42915052457E+02  0.42933840119E+02  0.12700000000E+01 0. -1.
         25    2    1    2    0    0  0.00000000000E+00  0.00000000000E+00  0.48072645905E+02  0.13393040134E+03  0.12500549235E+03 0.  0.
    9000005    1    3    3    0    0 -0.46946108254E+02 -0.15788198657E+02  0.64867466959E+02  0.81621030174E+02  0.10000000000E+01 0.  0.
    9000005    1    3    3    0    0  0.46946108254E+02  0.15788198657E+02 -0.16794821054E+02  0.52309371161E+02  0.10000000000E+01 0.  0.
<mgrwt>
<rscale>  0 0.12500549E+03</rscale>
<asrwt>0</asrwt>
<pdfrwt beam="1">  1        4 0.14000234E-01 0.12500549E+03</pdfrwt>
<pdfrwt beam="2">  1       -4 0.66044427E-02 0.12500549E+03</pdfrwt>
<totfact> 0.10259394E+04</totfact>
</mgrwt>
</event>
<event>
 5    1  0.3282316E-002  0.1249956E+03  0.7818608E-02  0.1235076E+00
          4   -1    0    0  501    0  0.00000000000E+00  0.00000000000E+00  0.41037143182E+03  0.41037339698E+03  0.12700000000E+01 0. -1.
         -4   -1    0    0    0  501 -0.00000000000E+00 -0.00000000000E+00 -0.94737818154E+01  0.95585271818E+01  0.12700000000E+01 0. -1.
         25    2    1    2    0    0  0.00000000000E+00  0.00000000000E+00  0.40089765000E+03  0.41993192417E+03  0.12499558055E+03 0.  0.
    9000005    1    3    3    0    0  0.12112456924E+02 -0.26770863797E+02  0.38573118423E+03  0.38685001906E+03  0.10000000000E+01 0.  0.
    9000005    1    3    3    0    0 -0.12112456924E+02  0.26770863797E+02  0.15166465771E+02  0.33081905102E+02  0.10000000000E+01 0.  0.
<mgrwt>
<rscale>  0 0.12499558E+03</rscale>
<asrwt>0</asrwt>
<pdfrwt beam="1">  1        4 0.63140721E-01 0.12499558E+03</pdfrwt>
<pdfrwt beam="2">  1       -4 0.14641753E-02 0.12499558E+03</pdfrwt>
<totfact> 0.62665441E+03</totfact>
</mgrwt>
</event>
<event>
 5    1  0.3282316E-002  0.1250010E+03  0.7818608E-02  0.1235068E+00
          4   -1    0    0  501    0  0.00000000000E+00  0.00000000000E+00  0.26139737345E+03  0.26140045858E+03  0.12700000000E+01 0. -1.
         -4   -1    0    0    0  501 -0.00000000000E+00 -0.00000000000E+00 -0.14913801802E+02  0.14967778198E+02  0.12700000000E+01 0. -1.
         25    2    1    2    0    0  0.00000000000E+00  0.00000000000E+00  0.24648357165E+03  0.27636823678E+03  0.12500100483E+03 0.  0.
    9000005    1    3    3    0    0 -0.54093499162E+02 -0.21759488671E+02  0.17296215297E+03  0.18252804815E+03  0.10000000000E+01 0.  0.
    9000005    1    3    3    0    0  0.54093499162E+02  0.21759488671E+02  0.73521418673E+02  0.93840188632E+02  0.10000000000E+01 0.  0.
<mgrwt>
<rscale>  0 0.12500100E+03</rscale>
<asrwt>0</asrwt>
<pdfrwt beam="1">  1        4 0.40219369E-01 0.12500100E+03</pdfrwt>
<pdfrwt beam="2">  1       -4 0.22988204E-02 0.12500100E+03</pdfrwt>
<totfact> 0.78660370E+03</totfact>
</mgrwt>
</event>
<event>
 5    1  0.3282316E-002  0.1250002E+03  0.7818608E-02  0.1235069E+00
          4   -1    0    0  501    0  0.00000000000E+00  0.00000000000E+00  0.13091082962E+03  0.13091698977E+03  0.12700000000E+01 0. -1.
         -4   -1    0    0    0  501 -0.00000000000E+00 -0.00000000000E+00 -0.29818714249E+02  0.29845747092E+02  0.12700000000E+01 0. -1.
         25    2    1    2    0    0  0.00000000000E+00  0.00000000000E+00  0.10109211537E+03  0.16076273686E+03  0.12500016710E+03 0.  0.
    9000005    1    3    3    0    0 -0.54733826893E+02 -0.29971716164E+02  0.46248699211E+02  0.77679068963E+02  0.10000000000E+01 0.  0.
    9000005    1    3    3    0    0  0.54733826893E+02  0.29971716164E+02  0.54843416157E+02  0.83083667901E+02  0.10000000000E+01 0.  0.
<mgrwt>
<rscale>  0 0.12500017E+03</rscale>
<asrwt>0</asrwt>
<pdfrwt beam="1">  1        4 0.20142681E-01 0.12500017E+03</pdfrwt>
<pdfrwt beam="2">  1       -4 0.45900477E-02 0.12500017E+03</pdfrwt>
<totfact> 0.97195571E+03</totfact>
</mgrwt>
</event>
<event>
 5    1  0.3282316E-002  0.1250007E+03  0.7818608E-02  0.1235068E+00
         -4   -1    0    0    0  501 -0.00000000000E+00  0.00000000000E+00  0.21063015019E+04  0.21063018847E+04  0.12700000000E+01 0.  1.
          4   -1    0    0  501    0  0.00000000000E+00 -0.00000000000E+00 -0.16367261779E+01  0.20716593788E+01  0.12700000000E+01 0.  1.
         25    2    1    2    0    0  0.00000000000E+00  0.00000000000E+00  0.21046647757E+04  0.21083735441E+04  0.12500073408E+03 0.  0.
    9000005    1    3    3    0    0 -0.42122176012E+01 -0.37112859167E+02  0.18973936369E+04  0.18977615026E+04  0.10000000000E+01 0.  0.
    9000005    1    3    3    0    0  0.42122176012E+01  0.37112859167E+02  0.20727113875E+03  0.21061204156E+03  0.10000000000E+01 0.  0.
<mgrwt>
<rscale>  0 0.12500073E+03</rscale>
<asrwt>0</asrwt>
<pdfrwt beam="2">  1        4 0.28529011E-03 0.12500073E+03</pdfrwt>
<pdfrwt beam="1">  1       -4 0.32407961E+00 0.12500073E+03</pdfrwt>
<totfact> 0.85121412E+02</totfact>
</mgrwt>
</event>
<event>
 5    1  0.3282316E-002  0.1249990E+03  0.7818608E-02  0.1235071E+00
         -4   -1    0    0    0  501 -0.00000000000E+00  0.00000000000E+00  0.93360793516E+01  0.94220633441E+01  0.12700000000E+01 0. -1.
          4   -1    0    0  501    0  0.00000000000E+00 -0.00000000000E+00 -0.41639242932E+03  0.41639436607E+03  0.12700000000E+01 0. -1.
         25    2    1    2    0    0  0.00000000000E+00  0.00000000000E+00 -0.40705634997E+03  0.42581642942E+03  0.12499903804E+03 0.  0.
    9000005    1    3    3    0    0  0.42937379030E+02  0.31333082571E+02 -0.91587151299E+02  0.10589894648E+03  0.10000000000E+01 0.  0.
    9000005    1    3    3    0    0 -0.42937379030E+02 -0.31333082571E+02 -0.31546919867E+03  0.31991748294E+03  0.10000000000E+01 0.  0.
<mgrwt>
<rscale>  0 0.12499904E+03</rscale>
<asrwt>0</asrwt>
<pdfrwt beam="2">  1        4 0.64067122E-01 0.12499904E+03</pdfrwt>
<pdfrwt beam="1">  1       -4 0.14430834E-02 0.12499904E+03</pdfrwt>
<totfact> 0.62118370E+03</totfact>
</mgrwt>
</event>
<event>
 5    1  0.3282316E-002  0.1249997E+03  0.7818608E-02  0.1235070E+00
          4   -1    0    0  501    0  0.00000000000E+00  0.00000000000E+00  0.12936390826E+03  0.12937014207E+03  0.12700000000E+01 0.  1.
         -4   -1    0    0    0  501 -0.00000000000E+00 -0.00000000000E+00 -0.30175359611E+02  0.30202073235E+02  0.12700000000E+01 0.  1.
         25    2    1    2    0    0  0.00000000000E+00  0.00000000000E+00  0.99188548645E+02  0.15957221531E+03  0.12499969486E+03 0.  0.
    9000005    1    3    3    0    0  0.53071267629E+02 -0.26705454129E+02  0.24857240362E+02  0.64409806135E+02  0.10000000000E+01 0.  0.
    9000005    1    3    3    0    0 -0.53071267629E+02  0.26705454129E+02  0.74331308283E+02  0.95162409170E+02  0.10000000000E+01 0.  0.
<mgrwt>
<rscale>  0 0.12499969E+03</rscale>
<asrwt>0</asrwt>
<pdfrwt beam="1">  1        4 0.19904674E-01 0.12499969E+03</pdfrwt>
<pdfrwt beam="2">  1       -4 0.46448974E-02 0.12499969E+03</pdfrwt>
<totfact> 0.97425990E+03</totfact>
</mgrwt>
</event>
<event>
 5    1  0.3282316E-002  0.1249992E+03  0.7818608E-02  0.1235071E+00
         -4   -1    0    0    0  501 -0.00000000000E+00  0.00000000000E+00  0.23587587271E+03  0.23587929165E+03  0.12700000000E+01 0.  1.
          4   -1    0    0  501    0  0.00000000000E+00 -0.00000000000E+00 -0.16532510216E+02  0.16581218111E+02  0.12700000000E+01 0.  1.
         25    2    1    2    0    0  0.00000000000E+00  0.00000000000E+00  0.21934336250E+03  0.25246050976E+03  0.12499919326E+03 0.  0.
    9000005    1    3    3    0    0  0.37154136502E+02  0.21609042220E+02  0.18051777210E+02  0.46628823975E+02  0.10000000000E+01 0.  0.
    9000005    1    3    3    0    0 -0.37154136502E+02 -0.21609042220E+02  0.20129158529E+03  0.20583168578E+03  0.10000000000E+01 0.  0.
<mgrwt>
<rscale>  0 0.12499919E+03</rscale>
<asrwt>0</asrwt>
<pdfrwt beam="2">  1        4 0.25474730E-02 0.12499919E+03</pdfrwt>
<pdfrwt beam="1">  1       -4 0.36292604E-01 0.12499919E+03</pdfrwt>
<totfact> 0.81977376E+03</totfact>
</mgrwt>
</event>
<event>
 4    1  0.3282316E-002  0.1250624E+03  0.7818608E-02  0.1234972E+00
          4   -1    0    0  501    0  0.00000000000E+00  0.00000000000E+00  0.61684428343E+01  0.62978239893E+01  0.12700000000E+01 0.  1.
         -4   -1    0    0    0  501 -0.00000000000E+00 -0.00000000000E+00 -0.62718656060E+03  0.62718784642E+03  0.12700000000E+01 0.  1.
    9000005    1    1    2    0    0 -0.50796323110E+02 -0.27118956597E+02 -0.43390474703E+03  0.43770998817E+03  0.10000000000E+01 0.  0.
    9000005    1    1    2    0    0  0.50796323110E+02  0.27118956597E+02 -0.18711337074E+03  0.19577568224E+03  0.10000000000E+01 0.  0.
<mgrwt>
<rscale>  0 0.12506235E+03</rscale>
<asrwt>0</asrwt>
<pdfrwt beam="1">  1        4 0.95904300E-03 0.12506235E+03</pdfrwt>
<pdfrwt beam="2">  1       -4 0.96500242E-01 0.12506235E+03</pdfrwt>
<totfact> 0.46756007E+03</totfact>
</mgrwt>
</event>
<event>
 5    1  0.3282316E-002  0.1249971E+03  0.7818608E-02  0.1235074E+00
          4   -1    0    0  501    0  0.00000000000E+00  0.00000000000E+00  0.54320179760E+02  0.54335023964E+02  0.12700000000E+01 0.  1.
         -4   -1    0    0    0  501 -0.00000000000E+00 -0.00000000000E+00 -0.71877926493E+02  0.71889145335E+02  0.12700000000E+01 0.  1.
         25    2    1    2    0    0  0.00000000000E+00  0.00000000000E+00 -0.17557746733E+02  0.12622416930E+03  0.12499706575E+03 0.  0.
    9000005    1    3    3    0    0 -0.10798021607E+02 -0.56551118483E+02  0.15758649278E+02  0.59698922096E+02  0.10000000000E+01 0.  0.
    9000005    1    3    3    0    0  0.10798021607E+02  0.56551118483E+02 -0.33316396011E+02  0.66525247204E+02  0.10000000000E+01 0.  0.
<mgrwt>
<rscale>  0 0.12499707E+03</rscale>
<asrwt>0</asrwt>
<pdfrwt beam="1">  1        4 0.83589556E-02 0.12499707E+03</pdfrwt>
<pdfrwt beam="2">  1       -4 0.11060147E-01 0.12499707E+03</pdfrwt>
<totfact> 0.10426741E+04</totfact>
</mgrwt>
</event>
<event>
 5    1  0.3282316E-002  0.1249979E+03  0.7818608E-02  0.1235073E+00
          4   -1    0    0  501    0  0.00000000000E+00  0.00000000000E+00  0.22087484539E+03  0.22087849652E+03  0.12700000000E+01 0. -1.
         -4   -1    0    0    0  501 -0.00000000000E+00 -0.00000000000E+00 -0.17658161337E+02  0.17703772531E+02  0.12700000000E+01 0. -1.
         25    2    1    2    0    0  0.00000000000E+00  0.00000000000E+00  0.20321668405E+03  0.23858226905E+03  0.12499791370E+03 0.  0.
    9000005    1    3    3    0    0  0.52935452934E+00 -0.58533608256E+02  0.59849620186E+02  0.83722401710E+02  0.10000000000E+01 0.  0.
    9000005    1    3    3    0    0 -0.52935452934E+00  0.58533608256E+02  0.14336706386E+03  0.15485986734E+03  0.10000000000E+01 0.  0.
<mgrwt>
<rscale>  0 0.12499791E+03</rscale>
<asrwt>0</asrwt>
<pdfrwt beam="1">  1        4 0.33984534E-01 0.12499791E+03</pdfrwt>
<pdfrwt beam="2">  1       -4 0.27204297E-02 0.12499791E+03</pdfrwt>
<totfact> 0.84012875E+03</totfact>
</mgrwt>
</event>
<event>
 5    1  0.3282316E-002  0.1250026E+03  0.7818608E-02  0.1235065E+00
         -4   -1    0    0    0  501 -0.00000000000E+00  0.00000000000E+00  0.76667275965E+02  0.76677794073E+02  0.12700000000E+01 0.  1.
          4   -1    0    0  501    0  0.00000000000E+00 -0.00000000000E+00 -0.50930892610E+02  0.50946724351E+02  0.12700000000E+01 0.  1.
         25    2    1    2    0    0  0.00000000000E+00  0.00000000000E+00  0.25736383355E+02  0.12762451842E+03  0.12500262507E+03 0.  0.
    9000005    1    3    3    0    0  0.26212890884E+02  0.23096503586E+02 -0.40034161662E+02  0.53144126923E+02  0.10000000000E+01 0.  0.
    9000005    1    3    3    0    0 -0.26212890884E+02 -0.23096503586E+02  0.65770545017E+02  0.74480391501E+02  0.10000000000E+01 0.  0.
<mgrwt>
<rscale>  0 0.12500263E+03</rscale>
<asrwt>0</asrwt>
<pdfrwt beam="2">  1        4 0.78375489E-02 0.12500263E+03</pdfrwt>
<pdfrwt beam="1">  1       -4 0.11796992E-01 0.12500263E+03</pdfrwt>
<totfact> 0.10394989E+04</totfact>
</mgrwt>
</event>
<event>
 5    1  0.3282316E-002  0.1250015E+03  0.7818608E-02  0.1235067E+00
          4   -1    0    0  501    0  0.00000000000E+00  0.00000000000E+00  0.11674326760E+03  0.11675017528E+03  0.12700000000E+01 0.  1.
         -4   -1    0    0    0  501 -0.00000000000E+00 -0.00000000000E+00 -0.33441045810E+02  0.33465152694E+02  0.12700000000E+01 0.  1.
         25    2    1    2    0    0  0.00000000000E+00  0.00000000000E+00  0.83302221786E+02  0.15021532798E+03  0.12500153841E+03 0.  0.
    9000005    1    3    3    0    0  0.42505959607E+02 -0.44594208242E+02  0.54251643040E+02  0.82095315234E+02  0.10000000000E+01 0.  0.
    9000005    1    3    3    0    0 -0.42505959607E+02  0.44594208242E+02  0.29050578747E+02  0.68120012745E+02  0.10000000000E+01 0.  0.
<mgrwt>
<rscale>  0 0.12500154E+03</rscale>
<asrwt>0</asrwt>
<pdfrwt beam="1">  1        4 0.17962889E-01 0.12500154E+03</pdfrwt>
<pdfrwt beam="2">  1       -4 0.51471620E-02 0.12500154E+03</pdfrwt>
<totfact> 0.99257356E+03</totfact>
</mgrwt>
</event>
<event>
 5    1  0.3282316E-002  0.1250004E+03  0.7818608E-02  0.1235069E+00
          4   -1    0    0  501    0  0.00000000000E+00  0.00000000000E+00  0.88985667877E+03  0.88985758504E+03  0.12700000000E+01 0. -1.
         -4   -1    0    0    0  501 -0.00000000000E+00 -0.00000000000E+00 -0.42969981296E+01  0.44807469160E+01  0.12700000000E+01 0. -1.
         25    2    1    2    0    0  0.00000000000E+00  0.00000000000E+00  0.88555968064E+03  0.89433833196E+03  0.12500041611E+03 0.  0.
    9000005    1    3    3    0    0  0.17670082807E+02 -0.58981935483E+02  0.51922971637E+03  0.52286862489E+03  0.10000000000E+01 0.  0.
    9000005    1    3    3    0    0 -0.17670082807E+02  0.58981935483E+02  0.36632996428E+03  0.37146970706E+03  0.10000000000E+01 0.  0.
<mgrwt>
<rscale>  0 0.12500042E+03</rscale>
<asrwt>0</asrwt>
<pdfrwt beam="1">  1        4 0.13691532E+00 0.12500042E+03</pdfrwt>
<pdfrwt beam="2">  1       -4 0.67528042E-03 0.12500042E+03</pdfrwt>
<totfact> 0.34377301E+03</totfact>
</mgrwt>
</event>
<event>
 5    1  0.3282316E-002  0.1250039E+03  0.7818608E-02  0.1235063E+00
         -4   -1    0    0    0  501 -0.00000000000E+00  0.00000000000E+00  0.10955058208E+03  0.10955794327E+03  0.12700000000E+01 0. -1.
          4   -1    0    0  501    0  0.00000000000E+00 -0.00000000000E+00 -0.35639383426E+02  0.35662004305E+02  0.12700000000E+01 0. -1.
         25    2    1    2    0    0  0.00000000000E+00  0.00000000000E+00  0.73911198653E+02  0.14521994758E+03  0.12500387149E+03 0.  0.
    9000005    1    3    3    0    0 -0.48833198482E+02  0.29666637945E+02  0.66361237659E+02  0.87576278435E+02  0.10000000000E+01 0.  0.
    9000005    1    3    3    0    0  0.48833198482E+02 -0.29666637945E+02  0.75499609934E+01  0.57643669140E+02  0.10000000000E+01 0.  0.
<mgrwt>
<rscale>  0 0.12500387E+03</rscale>
<asrwt>0</asrwt>
<pdfrwt beam="2">  1        4 0.54852883E-02 0.12500387E+03</pdfrwt>
<pdfrwt beam="1">  1       -4 0.16856242E-01 0.12500387E+03</pdfrwt>
<totfact> 0.10025647E+04</totfact>
</mgrwt>
</event>
<event>
 5    1  0.3282316E-002  0.1249970E+03  0.7818608E-02  0.1235074E+00
         -4   -1    0    0    0  501 -0.00000000000E+00  0.00000000000E+00  0.17424484601E+02  0.17470705870E+02  0.12700000000E+01 0.  1.
          4   -1    0    0  501    0  0.00000000000E+00 -0.00000000000E+00 -0.22382595161E+03  0.22382955460E+03  0.12700000000E+01 0.  1.
         25    2    1    2    0    0  0.00000000000E+00  0.00000000000E+00 -0.20640146701E+03  0.24130026047E+03  0.12499700045E+03 0.  0.
    9000005    1    3    3    0    0 -0.49877118656E+02 -0.10669190493E+01 -0.30553334058E+02  0.58509584717E+02  0.10000000000E+01 0.  0.
    9000005    1    3    3    0    0  0.49877118656E+02  0.10669190493E+01 -0.17584813295E+03  0.18279067576E+03  0.10000000000E+01 0.  0.
<mgrwt>
<rscale>  0 0.12499700E+03</rscale>
<asrwt>0</asrwt>
<pdfrwt beam="2">  1        4 0.34438592E-01 0.12499700E+03</pdfrwt>
<pdfrwt beam="1">  1       -4 0.26845227E-02 0.12499700E+03</pdfrwt>
<totfact> 0.83609688E+03</totfact>
</mgrwt>
</event>
<event>
 5    1  0.3282316E-002  0.1249992E+03  0.7818608E-02  0.1235071E+00
         -4   -1    0    0    0  501 -0.00000000000E+00  0.00000000000E+00  0.38159799030E+02  0.38180926679E+02  0.12700000000E+01 0. -1.
          4   -1    0    0  501    0  0.00000000000E+00 -0.00000000000E+00 -0.10231090397E+03  0.10231878601E+03  0.12700000000E+01 0. -1.
         25    2    1    2    0    0  0.00000000000E+00  0.00000000000E+00 -0.64151104937E+02  0.14049971269E+03  0.12499922000E+03 0.  0.
    9000005    1    3    3    0    0 -0.37775056383E+02  0.11730832172E+02 -0.86455011439E+02  0.95079105544E+02  0.10000000000E+01 0.  0.
    9000005    1    3    3    0    0  0.37775056383E+02 -0.11730832172E+02  0.22303906502E+02  0.45420607145E+02  0.10000000000E+01 0.  0.
<mgrwt>
<rscale>  0 0.12499922E+03</rscale>
<asrwt>0</asrwt>
<pdfrwt beam="2">  1        4 0.15742371E-01 0.12499922E+03</pdfrwt>
<pdfrwt beam="1">  1       -4 0.58729698E-02 0.12499922E+03</pdfrwt>
<totfact> 0.10123417E+04</totfact>
</mgrwt>
</event>
<event>
 5    1  0.3282316E-002  0.1250014E+03  0.7818608E-02  0.1235067E+00
         -4   -1    0    0    0  501 -0.00000000000E+00  0.00000000000E+00  0.77009287704E+02  0.77019759105E+02  0.12700000000E+01 0. -1.
          4   -1    0    0  501    0  0.00000000000E+00 -0.00000000000E+00 -0.50703633381E+02  0.50719536059E+02  0.12700000000E+01 0. -1.
         25    2    1    2    0    0  0.00000000000E+00  0.00000000000E+00  0.26305654323E+02  0.12773929516E+03  0.12500136031E+03 0.  0.
    9000005    1    3    3    0    0  0.46049726476E+02 -0.18256409193E+02  0.52085345511E+02  0.71887112907E+02  0.10000000000E+01 0.  0.
    9000005    1    3    3    0    0 -0.46049726476E+02  0.18256409193E+02 -0.25779691188E+02  0.55852182257E+02  0.10000000000E+01 0.  0.
<mgrwt>
<rscale>  0 0.12500136E+03</rscale>
<asrwt>0</asrwt>
<pdfrwt beam="2">  1        4 0.78025878E-02 0.12500136E+03</pdfrwt>
<pdfrwt beam="1">  1       -4 0.11849611E-01 0.12500136E+03</pdfrwt>
<totfact> 0.10392803E+04</totfact>
</mgrwt>
</event>
<event>
 5    1  0.3282316E-002  0.1249993E+03  0.7818608E-02  0.1235070E+00
         -4   -1    0    0    0  501 -0.00000000000E+00  0.00000000000E+00  0.37314406185E+01  0.39416429429E+01  0.12700000000E+01 0. -1.
          4   -1    0    0  501    0  0.00000000000E+00 -0.00000000000E+00 -0.10179467733E+04  0.10179475656E+04  0.12700000000E+01 0. -1.
         25    2    1    2    0    0  0.00000000000E+00  0.00000000000E+00 -0.10142153327E+04  0.10218892085E+04  0.12499925340E+03 0.  0.
    9000005    1    3    3    0    0 -0.45124297308E+02 -0.19518190461E+02 -0.82246569840E+03  0.82393445553E+03  0.10000000000E+01 0.  0.
    9000005    1    3    3    0    0  0.45124297308E+02  0.19518190461E+02 -0.19174963433E+03  0.19795475299E+03  0.10000000000E+01 0.  0.
<mgrwt>
<rscale>  0 0.12499925E+03</rscale>
<asrwt>0</asrwt>
<pdfrwt beam="2">  1        4 0.15662321E+00 0.12499925E+03</pdfrwt>
<pdfrwt beam="1">  1       -4 0.59029895E-03 0.12499925E+03</pdfrwt>
<totfact> 0.29889503E+03</totfact>
</mgrwt>
</event>
<event>
 5    1  0.3282316E-002  0.1249963E+03  0.7818608E-02  0.1235075E+00
          4   -1    0    0  501    0  0.00000000000E+00  0.00000000000E+00  0.10303114666E+03  0.10303897361E+03  0.12700000000E+01 0. -1.
         -4   -1    0    0    0  501 -0.00000000000E+00 -0.00000000000E+00 -0.37891151399E+02  0.37912428758E+02  0.12700000000E+01 0. -1.
         25    2    1    2    0    0  0.00000000000E+00  0.00000000000E+00  0.65139995262E+02  0.14095140237E+03  0.12499631533E+03 0.  0.
    9000005    1    3    3    0    0  0.32809585324E+02  0.33690834886E+02  0.78974704072E+02  0.91921407341E+02  0.10000000000E+01 0.  0.
    9000005    1    3    3    0    0 -0.32809585324E+02 -0.33690834886E+02 -0.13834708809E+02  0.49029995026E+02  0.10000000000E+01 0.  0.
<mgrwt>
<rscale>  0 0.12499632E+03</rscale>
<asrwt>0</asrwt>
<pdfrwt beam="1">  1        4 0.15853184E-01 0.12499632E+03</pdfrwt>
<pdfrwt beam="2">  1       -4 0.58316467E-02 0.12499632E+03</pdfrwt>
<totfact> 0.10114745E+04</totfact>
</mgrwt>
</event>
<event>
 5    1  0.3282316E-002  0.1250007E+03  0.7818608E-02  0.1235068E+00
         -4   -1    0    0    0  501 -0.00000000000E+00  0.00000000000E+00  0.66376236823E+02  0.66388385391E+02  0.12700000000E+01 0.  1.
          4   -1    0    0  501    0  0.00000000000E+00 -0.00000000000E+00 -0.58826423702E+02  0.58840131081E+02  0.12700000000E+01 0.  1.
         25    2    1    2    0    0  0.00000000000E+00  0.00000000000E+00  0.75498131212E+01  0.12522851647E+03  0.12500072664E+03 0.  0.
    9000005    1    3    3    0    0 -0.45143339886E+02  0.27106912051E+02  0.37490202991E+02  0.64646895806E+02  0.10000000000E+01 0.  0.
    9000005    1    3    3    0    0  0.45143339886E+02 -0.27106912051E+02 -0.29940389870E+02  0.60581620666E+02  0.10000000000E+01 0.  0.
<mgrwt>
<rscale>  0 0.12500073E+03</rscale>
<asrwt>0</asrwt>
<pdfrwt beam="2">  1        4 0.90522080E-02 0.12500073E+03</pdfrwt>
<pdfrwt beam="1">  1       -4 0.10213718E-01 0.12500073E+03</pdfrwt>
<totfact> 0.10447730E+04</totfact>
</mgrwt>
</event>
<event>
 5    1  0.3282316E-002  0.1249979E+03  0.7818608E-02  0.1235073E+00
         -4   -1    0    0    0  501 -0.00000000000E+00  0.00000000000E+00  0.82730288633E+02  0.82740036000E+02  0.12700000000E+01 0.  1.
          4   -1    0    0  501    0  0.00000000000E+00 -0.00000000000E+00 -0.47194018377E+02  0.47211103255E+02  0.12700000000E+01 0.  1.
         25    2    1    2    0    0  0.00000000000E+00  0.00000000000E+00  0.35536270256E+02  0.12995113925E+03  0.12499788834E+03 0.  0.
    9000005    1    3    3    0    0 -0.92116848500E+01  0.59865467001E+02  0.33752331735E+02  0.69346587332E+02  0.10000000000E+01 0.  0.
    9000005    1    3    3    0    0  0.92116848500E+01 -0.59865467001E+02  0.17839385206E+01  0.60604551923E+02  0.10000000000E+01 0.  0.
<mgrwt>
<rscale>  0 0.12499789E+03</rscale>
<asrwt>0</asrwt>
<pdfrwt beam="2">  1        4 0.72626823E-02 0.12499789E+03</pdfrwt>
<pdfrwt beam="1">  1       -4 0.12729801E-01 0.12499789E+03</pdfrwt>
<totfact> 0.10346046E+04</totfact>
</mgrwt>
</event>
<event>
 5    1  0.3282316E-002  0.1249997E+03  0.7818608E-02  0.1235070E+00
         -4   -1    0    0    0  501 -0.00000000000E+00  0.00000000000E+00  0.25120570137E+02  0.25152652822E+02  0.12700000000E+01 0.  1.
          4   -1    0    0  501    0  0.00000000000E+00 -0.00000000000E+00 -0.15536543152E+03  0.15537062210E+03  0.12700000000E+01 0.  1.
         25    2    1    2    0    0  0.00000000000E+00  0.00000000000E+00 -0.13024486138E+03  0.18052327492E+03  0.12499971549E+03 0.  0.
    9000005    1    3    3    0    0  0.13295024183E+02 -0.60094066642E+02 -0.49489274329E+02  0.78982547358E+02  0.10000000000E+01 0.  0.
    9000005    1    3    3    0    0 -0.13295024183E+02  0.60094066642E+02 -0.80755587054E+02  0.10154072756E+03  0.10000000000E+01 0.  0.
<mgrwt>
<rscale>  0 0.12499972E+03</rscale>
<asrwt>0</asrwt>
<pdfrwt beam="2">  1        4 0.23905241E-01 0.12499972E+03</pdfrwt>
<pdfrwt beam="1">  1       -4 0.38675704E-02 0.12499972E+03</pdfrwt>
<totfact> 0.93523494E+03</totfact>
</mgrwt>
</event>
<event>
 5    1  0.3282316E-002  0.1249859E+03  0.7818608E-02  0.1235091E+00
          4   -1    0    0  501    0  0.00000000000E+00  0.00000000000E+00  0.55943624564E+01  0.57367056132E+01  0.12700000000E+01 0.  1.
         -4   -1    0    0    0  501 -0.00000000000E+00 -0.00000000000E+00 -0.68917711392E+03  0.68917828408E+03  0.12700000000E+01 0.  1.
         25    2    1    2    0    0  0.00000000000E+00  0.00000000000E+00 -0.68358275146E+03  0.69491498969E+03  0.12498585842E+03 0.  0.
    9000005    1    3    3    0    0  0.17277179688E+02  0.55132785339E+02 -0.20948780905E+03  0.21731145184E+03  0.10000000000E+01 0.  0.
    9000005    1    3    3    0    0 -0.17277179688E+02 -0.55132785339E+02 -0.47409494241E+03  0.47760353786E+03  0.10000000000E+01 0.  0.
<mgrwt>
<rscale>  0 0.12498586E+03</rscale>
<asrwt>0</asrwt>
<pdfrwt beam="1">  1        4 0.87171118E-03 0.12498586E+03</pdfrwt>
<pdfrwt beam="2">  1       -4 0.10603822E+00 0.12498586E+03</pdfrwt>
<totfact> 0.43369922E+03</totfact>
</mgrwt>
</event>
<event>
 5    1  0.3282316E-002  0.1249964E+03  0.7818608E-02  0.1235075E+00
         -4   -1    0    0    0  501 -0.00000000000E+00  0.00000000000E+00  0.55478555879E+03  0.55478701241E+03  0.12700000000E+01 0.  1.
          4   -1    0    0  501    0  0.00000000000E+00 -0.00000000000E+00 -0.69818598405E+01  0.70964263423E+01  0.12700000000E+01 0.  1.
         25    2    1    2    0    0  0.00000000000E+00  0.00000000000E+00  0.54780369895E+03  0.56188343875E+03  0.12499642461E+03 0.  0.
    9000005    1    3    3    0    0 -0.10901943766E+02 -0.51957097582E+02  0.12572160033E+03  0.13647458795E+03  0.10000000000E+01 0.  0.
    9000005    1    3    3    0    0  0.10901943766E+02  0.51957097582E+02  0.42208209862E+03  0.42540885080E+03  0.10000000000E+01 0.  0.
<mgrwt>
<rscale>  0 0.12499642E+03</rscale>
<asrwt>0</asrwt>
<pdfrwt beam="2">  1        4 0.10830565E-02 0.12499642E+03</pdfrwt>
<pdfrwt beam="1">  1       -4 0.85360581E-01 0.12499642E+03</pdfrwt>
<totfact> 0.51369578E+03</totfact>
</mgrwt>
</event>
<event>
 5    1  0.3282316E-002  0.1249995E+03  0.7818608E-02  0.1235070E+00
         -4   -1    0    0    0  501 -0.00000000000E+00  0.00000000000E+00  0.46457987516E+02  0.46475342969E+02  0.12700000000E+01 0. -1.
          4   -1    0    0  501    0  0.00000000000E+00 -0.00000000000E+00 -0.84042845731E+02  0.84052440884E+02  0.12700000000E+01 0. -1.
         25    2    1    2    0    0  0.00000000000E+00  0.00000000000E+00 -0.37584858214E+02  0.13052778385E+03  0.12499952316E+03 0.  0.
    9000005    1    3    3    0    0 -0.25390206760E+02  0.57100418112E+02 -0.18462463975E+02  0.65168880026E+02  0.10000000000E+01 0.  0.
    9000005    1    3    3    0    0  0.25390206760E+02 -0.57100418112E+02 -0.19122394240E+02  0.65358903826E+02  0.10000000000E+01 0.  0.
<mgrwt>
<rscale>  0 0.12499952E+03</rscale>
<asrwt>0</asrwt>
<pdfrwt beam="2">  1        4 0.12931742E-01 0.12499952E+03</pdfrwt>
<pdfrwt beam="1">  1       -4 0.71494558E-02 0.12499952E+03</pdfrwt>
<totfact> 0.10333335E+04</totfact>
</mgrwt>
</event>
<event>
 5    1  0.3282316E-002  0.1249864E+03  0.7818608E-02  0.1235091E+00
          4   -1    0    0  501    0  0.00000000000E+00  0.00000000000E+00  0.12775841244E+02  0.12838809115E+02  0.12700000000E+01 0. -1.
         -4   -1    0    0    0  501 -0.00000000000E+00 -0.00000000000E+00 -0.30487058960E+03  0.30487323481E+03  0.12700000000E+01 0. -1.
         25    2    1    2    0    0  0.00000000000E+00  0.00000000000E+00 -0.29209474836E+03  0.31771204393E+03  0.12498640261E+03 0.  0.
    9000005    1    3    3    0    0  0.62584699058E+01  0.21201871534E+02  0.25159330584E+01  0.22271455301E+02  0.10000000000E+01 0.  0.
    9000005    1    3    3    0    0 -0.62584699058E+01 -0.21201871534E+02 -0.29461068142E+03  0.29544058863E+03  0.10000000000E+01 0.  0.
<mgrwt>
<rscale>  0 0.12498640E+03</rscale>
<asrwt>0</asrwt>
<pdfrwt beam="1">  1        4 0.19705614E-02 0.12498640E+03</pdfrwt>
<pdfrwt beam="2">  1       -4 0.46908209E-01 0.12498640E+03</pdfrwt>
<totfact> 0.73451218E+03</totfact>
</mgrwt>
</event>
<event>
 5    1  0.3282316E-002  0.1249935E+03  0.7818608E-02  0.1235079E+00
         -4   -1    0    0    0  501 -0.00000000000E+00  0.00000000000E+00  0.35861811291E+02  0.35884291955E+02  0.12700000000E+01 0.  1.
          4   -1    0    0  501    0  0.00000000000E+00 -0.00000000000E+00 -0.10885345458E+03  0.10886086291E+03  0.12700000000E+01 0.  1.
         25    2    1    2    0    0  0.00000000000E+00  0.00000000000E+00 -0.72991643289E+02  0.14474515487E+03  0.12499351930E+03 0.  0.
    9000005    1    3    3    0    0  0.15153371282E+02 -0.60555118455E+02 -0.33160009843E+02  0.70690404477E+02  0.10000000000E+01 0.  0.
    9000005    1    3    3    0    0 -0.15153371282E+02  0.60555118455E+02 -0.39831633445E+02  0.74054750390E+02  0.10000000000E+01 0.  0.
<mgrwt>
<rscale>  0 0.12499352E+03</rscale>
<asrwt>0</asrwt>
<pdfrwt beam="2">  1        4 0.16748984E-01 0.12499352E+03</pdfrwt>
<pdfrwt beam="1">  1       -4 0.55195009E-02 0.12499352E+03</pdfrwt>
<totfact> 0.10037634E+04</totfact>
</mgrwt>
</event>
<event>
 5    1  0.3282316E-002  0.1249943E+03  0.7818608E-02  0.1235078E+00
         -4   -1    0    0    0  501 -0.00000000000E+00  0.00000000000E+00  0.10272633415E+01  0.16334533886E+01  0.12700000000E+01 0. -1.
          4   -1    0    0  501    0  0.00000000000E+00 -0.00000000000E+00 -0.29353639131E+04  0.29353641878E+04  0.12700000000E+01 0. -1.
         25    2    1    2    0    0  0.00000000000E+00  0.00000000000E+00 -0.29343366497E+04  0.29369976412E+04  0.12499428164E+03 0.  0.
    9000005    1    3    3    0    0 -0.30257764033E+02  0.53378049937E+02 -0.17453322972E+04  0.17464107696E+04  0.10000000000E+01 0.  0.
    9000005    1    3    3    0    0  0.30257764033E+02 -0.53378049937E+02 -0.11890043525E+04  0.11905868716E+04  0.10000000000E+01 0.  0.
<mgrwt>
<rscale>  0 0.12499428E+03</rscale>
<asrwt>0</asrwt>
<pdfrwt beam="2">  1        4 0.45163592E+00 0.12499428E+03</pdfrwt>
<pdfrwt beam="1">  1       -4 0.20469400E-03 0.12499428E+03</pdfrwt>
<totfact> 0.20711031E+02</totfact>
</mgrwt>
</event>
<event>
 5    1  0.3282316E-002  0.1250003E+03  0.7818608E-02  0.1235069E+00
          4   -1    0    0  501    0  0.00000000000E+00  0.00000000000E+00  0.87748998837E+02  0.87758188774E+02  0.12700000000E+01 0.  1.
         -4   -1    0    0    0  501 -0.00000000000E+00 -0.00000000000E+00 -0.44495800550E+02  0.44513921043E+02  0.12700000000E+01 0.  1.
         25    2    1    2    0    0  0.00000000000E+00  0.00000000000E+00  0.43253198287E+02  0.13227210982E+03  0.12500028749E+03 0.  0.
    9000005    1    3    3    0    0  0.55337355668E+01  0.59733468884E+02  0.30992236485E+01  0.60077572533E+02  0.10000000000E+01 0.  0.
    9000005    1    3    3    0    0 -0.55337355668E+01 -0.59733468884E+02  0.40153974639E+02  0.72194537284E+02  0.10000000000E+01 0.  0.
<mgrwt>
<rscale>  0 0.12500029E+03</rscale>
<asrwt>0</asrwt>
<pdfrwt beam="1">  1        4 0.13501947E-01 0.12500029E+03</pdfrwt>
<pdfrwt beam="2">  1       -4 0.68476086E-02 0.12500029E+03</pdfrwt>
<totfact> 0.10295827E+04</totfact>
</mgrwt>
</event>
<event>
 5    1  0.3282316E-002  0.1249842E+03  0.7818608E-02  0.1235094E+00
          4   -1    0    0  501    0  0.00000000000E+00  0.00000000000E+00  0.80446111498E+02  0.80456135597E+02  0.12700000000E+01 0.  1.
         -4   -1    0    0    0  501 -0.00000000000E+00 -0.00000000000E+00 -0.48523756370E+02  0.48540373219E+02  0.12700000000E+01 0.  1.
         25    2    1    2    0    0  0.00000000000E+00  0.00000000000E+00  0.31922355129E+02  0.12899650882E+03  0.12498424913E+03 0.  0.
    9000005    1    3    3    0    0 -0.18958420388E+02 -0.40424115834E+02  0.61076376482E+02  0.75662768973E+02  0.10000000000E+01 0.  0.
    9000005    1    3    3    0    0  0.18958420388E+02  0.40424115834E+02 -0.29154021353E+02  0.53333739843E+02  0.10000000000E+01 0.  0.
<mgrwt>
<rscale>  0 0.12498425E+03</rscale>
<asrwt>0</asrwt>
<pdfrwt beam="1">  1        4 0.12378374E-01 0.12498425E+03</pdfrwt>
<pdfrwt beam="2">  1       -4 0.74672426E-02 0.12498425E+03</pdfrwt>
<totfact> 0.10369708E+04</totfact>
</mgrwt>
</event>
<event>
 5    1  0.3282316E-002  0.1250043E+03  0.7818608E-02  0.1235063E+00
          4   -1    0    0  501    0  0.00000000000E+00  0.00000000000E+00  0.43242093643E+02  0.43260739275E+02  0.12700000000E+01 0.  1.
         -4   -1    0    0    0  501 -0.00000000000E+00 -0.00000000000E+00 -0.90298051690E+02  0.90306982228E+02  0.12700000000E+01 0.  1.
         25    2    1    2    0    0  0.00000000000E+00  0.00000000000E+00 -0.47055958047E+02  0.13356772150E+03  0.12500429208E+03 0.  0.
    9000005    1    3    3    0    0  0.24055972637E+02 -0.51653697285E+02  0.38958653081E+01  0.57122430176E+02  0.10000000000E+01 0.  0.
    9000005    1    3    3    0    0 -0.24055972637E+02  0.51653697285E+02 -0.50951823355E+02  0.76445291326E+02  0.10000000000E+01 0.  0.
<mgrwt>
<rscale>  0 0.12500429E+03</rscale>
<asrwt>0</asrwt>
<pdfrwt beam="1">  1        4 0.66547510E-02 0.12500429E+03</pdfrwt>
<pdfrwt beam="2">  1       -4 0.13894129E-01 0.12500429E+03</pdfrwt>
<totfact> 0.10267355E+04</totfact>
</mgrwt>
</event>
<event>
 5    1  0.3282316E-002  0.1249997E+03  0.7818608E-02  0.1235070E+00
          4   -1    0    0  501    0  0.00000000000E+00  0.00000000000E+00  0.93972999779E+02  0.93981581107E+02  0.12700000000E+01 0.  1.
         -4   -1    0    0    0  501 -0.00000000000E+00 -0.00000000000E+00 -0.41547441338E+02  0.41566847147E+02  0.12700000000E+01 0.  1.
         25    2    1    2    0    0  0.00000000000E+00  0.00000000000E+00  0.52425558441E+02  0.13554842825E+03  0.12499974890E+03 0.  0.
    9000005    1    3    3    0    0 -0.56532480098E+02 -0.23138721746E+02  0.11912292650E+02  0.62243268442E+02  0.10000000000E+01 0.  0.
    9000005    1    3    3    0    0  0.56532480098E+02  0.23138721746E+02  0.40513265791E+02  0.73305159812E+02  0.10000000000E+01 0.  0.
<mgrwt>
<rscale>  0 0.12499975E+03</rscale>
<asrwt>0</asrwt>
<pdfrwt beam="1">  1        4 0.14459537E-01 0.12499975E+03</pdfrwt>
<pdfrwt beam="2">  1       -4 0.63940669E-02 0.12499975E+03</pdfrwt>
<totfact> 0.10226582E+04</totfact>
</mgrwt>
</event>
<event>
 5    1  0.3282316E-002  0.1249997E+03  0.7818608E-02  0.1235070E+00
         -4   -1    0    0    0  501 -0.00000000000E+00  0.00000000000E+00  0.34351689495E+02  0.34375157762E+02  0.12700000000E+01 0.  1.
          4   -1    0    0  501    0  0.00000000000E+00 -0.00000000000E+00 -0.11364717305E+03  0.11365426891E+03  0.12700000000E+01 0.  1.
         25    2    1    2    0    0  0.00000000000E+00  0.00000000000E+00 -0.79295483551E+02  0.14802942667E+03  0.12499974980E+03 0.  0.
    9000005    1    3    3    0    0 -0.14097281953E+02 -0.32398040327E+02  0.21393576089E+02  0.41316479440E+02  0.10000000000E+01 0.  0.
    9000005    1    3    3    0    0  0.14097281953E+02  0.32398040327E+02 -0.10068905964E+03  0.10671294723E+03  0.10000000000E+01 0.  0.
<mgrwt>
<rscale>  0 0.12499975E+03</rscale>
<asrwt>0</asrwt>
<pdfrwt beam="2">  1        4 0.17486531E-01 0.12499975E+03</pdfrwt>
<pdfrwt beam="1">  1       -4 0.52872264E-02 0.12499975E+03</pdfrwt>
<totfact> 0.99698523E+03</totfact>
</mgrwt>
</event>
<event>
 5    1  0.3282316E-002  0.1249988E+03  0.7818608E-02  0.1235071E+00
          4   -1    0    0  501    0  0.00000000000E+00  0.00000000000E+00  0.51823100570E+03  0.51823256186E+03  0.12700000000E+01 0.  1.
         -4   -1    0    0    0  501 -0.00000000000E+00 -0.00000000000E+00 -0.74824450868E+01  0.75894587736E+01  0.12700000000E+01 0.  1.
         25    2    1    2    0    0  0.00000000000E+00  0.00000000000E+00  0.51074856061E+03  0.52582202063E+03  0.12499882084E+03 0.  0.
    9000005    1    3    3    0    0  0.29371431104E+02 -0.87421272776E+01  0.26275070176E+02  0.40379265312E+02  0.10000000000E+01 0.  0.
    9000005    1    3    3    0    0 -0.29371431104E+02  0.87421272776E+01  0.48447349044E+03  0.48544275532E+03  0.10000000000E+01 0.  0.
<mgrwt>
<rscale>  0 0.12499882E+03</rscale>
<asrwt>0</asrwt>
<pdfrwt beam="1">  1        4 0.79736212E-01 0.12499882E+03</pdfrwt>
<pdfrwt beam="2">  1       -4 0.11594967E-02 0.12499882E+03</pdfrwt>
<totfact> 0.53916505E+03</totfact>
</mgrwt>
</event>
<event>
 5    1  0.3282316E-002  0.1249927E+03  0.7818608E-02  0.1235081E+00
          4   -1    0    0  501    0  0.00000000000E+00  0.00000000000E+00  0.39974703891E+02  0.39994872811E+02  0.12700000000E+01 0.  1.
         -4   -1    0    0    0  501 -0.00000000000E+00 -0.00000000000E+00 -0.97657720040E+02  0.97665977615E+02  0.12700000000E+01 0.  1.
         25    2    1    2    0    0  0.00000000000E+00  0.00000000000E+00 -0.57683016150E+02  0.13766085043E+03  0.12499271734E+03 0.  0.
    9000005    1    3    3    0    0  0.32738028382E+02  0.40296320043E+02  0.94567416289E+01  0.52782590630E+02  0.10000000000E+01 0.  0.
    9000005    1    3    3    0    0 -0.32738028382E+02 -0.40296320043E+02 -0.67139757779E+02  0.84878259796E+02  0.10000000000E+01 0.  0.
<mgrwt>
<rscale>  0 0.12499272E+03</rscale>
<asrwt>0</asrwt>
<pdfrwt beam="1">  1        4 0.61521411E-02 0.12499272E+03</pdfrwt>
<pdfrwt beam="2">  1       -4 0.15026451E-01 0.12499272E+03</pdfrwt>
<totfact> 0.10183958E+04</totfact>
</mgrwt>
</event>
<event>
 5    1  0.3282316E-002  0.1250051E+03  0.7818608E-02  0.1235061E+00
         -4   -1    0    0    0  501 -0.00000000000E+00  0.00000000000E+00  0.22848880492E+02  0.22884148219E+02  0.12700000000E+01 0.  1.
          4   -1    0    0  501    0  0.00000000000E+00 -0.00000000000E+00 -0.17080458708E+03  0.17080930849E+03  0.12700000000E+01 0.  1.
         25    2    1    2    0    0  0.00000000000E+00  0.00000000000E+00 -0.14795570659E+03  0.19369345671E+03  0.12500505614E+03 0.  0.
    9000005    1    3    3    0    0 -0.21405332989E+02 -0.15531391860E+01  0.16967352152E+02  0.27376843513E+02  0.10000000000E+01 0.  0.
    9000005    1    3    3    0    0  0.21405332989E+02  0.15531391860E+01 -0.16492305874E+03  0.16631661320E+03  0.10000000000E+01 0.  0.
<mgrwt>
<rscale>  0 0.12500506E+03</rscale>
<asrwt>0</asrwt>
<pdfrwt beam="2">  1        4 0.26280704E-01 0.12500506E+03</pdfrwt>
<pdfrwt beam="1">  1       -4 0.35182886E-02 0.12500506E+03</pdfrwt>
<totfact> 0.91198282E+03</totfact>
</mgrwt>
</event>
<event>
 5    1  0.3282316E-002  0.1249965E+03  0.7818608E-02  0.1235075E+00
          4   -1    0    0  501    0  0.00000000000E+00  0.00000000000E+00  0.73453153301E+02  0.73464131587E+02  0.12700000000E+01 0. -1.
         -4   -1    0    0    0  501 -0.00000000000E+00 -0.00000000000E+00 -0.53154651453E+02  0.53169821056E+02  0.12700000000E+01 0. -1.
         25    2    1    2    0    0  0.00000000000E+00  0.00000000000E+00  0.20298501848E+02  0.12663395264E+03  0.12499651509E+03 0.  0.
    9000005    1    3    3    0    0 -0.55978792488E+02 -0.27211111263E+02  0.45119703945E+01  0.62413361241E+02  0.10000000000E+01 0.  0.
    9000005    1    3    3    0    0  0.55978792488E+02  0.27211111263E+02  0.15786531453E+02  0.64220591401E+02  0.10000000000E+01 0.  0.
<mgrwt>
<rscale>  0 0.12499652E+03</rscale>
<asrwt>0</asrwt>
<pdfrwt beam="1">  1        4 0.11302496E-01 0.12499652E+03</pdfrwt>
<pdfrwt beam="2">  1       -4 0.81796501E-02 0.12499652E+03</pdfrwt>
<totfact> 0.10417928E+04</totfact>
</mgrwt>
</event>
<event>
 4    1  0.3282316E-002  0.1250720E+03  0.7818608E-02  0.1234957E+00
          4   -1    0    0  501    0  0.00000000000E+00  0.00000000000E+00  0.15810374604E+02  0.15861300234E+02  0.12700000000E+01 0. -1.
         -4   -1    0    0    0  501 -0.00000000000E+00 -0.00000000000E+00 -0.24690320434E+03  0.24690647058E+03  0.12700000000E+01 0. -1.
    9000005    1    1    2    0    0  0.41507114878E+02  0.46651178271E+02 -0.12237956049E+03  0.13739333989E+03  0.10000000000E+01 0.  0.
    9000005    1    1    2    0    0 -0.41507114878E+02 -0.46651178271E+02 -0.10871326925E+03  0.12537443092E+03  0.10000000000E+01 0.  0.
<mgrwt>
<rscale>  0 0.12507200E+03</rscale>
<asrwt>0</asrwt>
<pdfrwt beam="1">  1        4 0.24365341E-02 0.12507200E+03</pdfrwt>
<pdfrwt beam="2">  1       -4 0.37989274E-01 0.12507200E+03</pdfrwt>
<totfact> 0.80390318E+03</totfact>
</mgrwt>
</event>
<event>
 5    1  0.3282316E-002  0.1250010E+03  0.7818608E-02  0.1235068E+00
          4   -1    0    0  501    0  0.00000000000E+00  0.00000000000E+00  0.21868982750E+03  0.21869351511E+03  0.12700000000E+01 0.  1.
         -4   -1    0    0    0  501 -0.00000000000E+00 -0.00000000000E+00 -0.17835917706E+02  0.17881075483E+02  0.12700000000E+01 0.  1.
         25    2    1    2    0    0  0.00000000000E+00  0.00000000000E+00  0.20085390979E+03  0.23657459059E+03  0.12500097534E+03 0.  0.
    9000005    1    3    3    0    0 -0.39345488301E+02 -0.44932663588E+02  0.65616859429E+02  0.88733217839E+02  0.10000000000E+01 0.  0.
    9000005    1    3    3    0    0  0.39345488301E+02  0.44932663588E+02  0.13523705036E+03  0.14784137275E+03  0.10000000000E+01 0.  0.
<mgrwt>
<rscale>  0 0.12500098E+03</rscale>
<asrwt>0</asrwt>
<pdfrwt beam="1">  1        4 0.33648346E-01 0.12500098E+03</pdfrwt>
<pdfrwt beam="2">  1       -4 0.27477447E-02 0.12500098E+03</pdfrwt>
<totfact> 0.84308346E+03</totfact>
</mgrwt>
</event>
<event>
 5    1  0.3282316E-002  0.1249993E+03  0.7818608E-02  0.1235070E+00
         -4   -1    0    0    0  501 -0.00000000000E+00  0.00000000000E+00  0.34688168519E+03  0.34688401004E+03  0.12700000000E+01 0.  1.
          4   -1    0    0  501    0  0.00000000000E+00 -0.00000000000E+00 -0.11222735651E+02  0.11294365652E+02  0.12700000000E+01 0.  1.
         25    2    1    2    0    0  0.00000000000E+00  0.00000000000E+00  0.33565894954E+03  0.35817837569E+03  0.12499927363E+03 0.  0.
    9000005    1    3    3    0    0 -0.71070262388E+01  0.60459578615E+02  0.20828545325E+03  0.21700161406E+03  0.10000000000E+01 0.  0.
    9000005    1    3    3    0    0  0.71070262388E+01 -0.60459578615E+02  0.12737349629E+03  0.14117676163E+03  0.10000000000E+01 0.  0.
<mgrwt>
<rscale>  0 0.12499927E+03</rscale>
<asrwt>0</asrwt>
<pdfrwt beam="2">  1        4 0.17322638E-02 0.12499927E+03</pdfrwt>
<pdfrwt beam="1">  1       -4 0.53372093E-01 0.12499927E+03</pdfrwt>
<totfact> 0.68835217E+03</totfact>
</mgrwt>
</event>
<event>
 5    1  0.3282316E-002  0.1249916E+03  0.7818608E-02  0.1235082E+00
          4   -1    0    0  501    0  0.00000000000E+00  0.00000000000E+00  0.20288548811E+02  0.20328258973E+02  0.12700000000E+01 0. -1.
         -4   -1    0    0    0  501 -0.00000000000E+00 -0.00000000000E+00 -0.19227871118E+03  0.19228290531E+03  0.12700000000E+01 0. -1.
         25    2    1    2    0    0  0.00000000000E+00  0.00000000000E+00 -0.17199016237E+03  0.21261116428E+03  0.12499156461E+03 0.  0.
    9000005    1    3    3    0    0 -0.24602275283E+02 -0.56919047806E+02 -0.99135032780E+02  0.11693504469E+03  0.10000000000E+01 0.  0.
    9000005    1    3    3    0    0  0.24602275283E+02  0.56919047806E+02 -0.72855129589E+02  0.95676119589E+02  0.10000000000E+01 0.  0.
<mgrwt>
<rscale>  0 0.12499156E+03</rscale>
<asrwt>0</asrwt>
<pdfrwt beam="1">  1        4 0.31246926E-02 0.12499156E+03</pdfrwt>
<pdfrwt beam="2">  1       -4 0.29584716E-01 0.12499156E+03</pdfrwt>
<totfact> 0.88067815E+03</totfact>
</mgrwt>
</event>
<event>
 5    1  0.3282316E-002  0.1250000E+03  0.7818608E-02  0.1235069E+00
         -4   -1    0    0    0  501 -0.00000000000E+00  0.00000000000E+00  0.93694019491E+03  0.93694105564E+03  0.12700000000E+01 0.  1.
          4   -1    0    0  501    0  0.00000000000E+00 -0.00000000000E+00 -0.40715581960E+01  0.42650306146E+01  0.12700000000E+01 0.  1.
         25    2    1    2    0    0  0.00000000000E+00  0.00000000000E+00  0.93286863671E+03  0.94120608625E+03  0.12500001373E+03 0.  0.
    9000005    1    3    3    0    0  0.21830132082E+02  0.63262865901E+01  0.90475259504E+03  0.90503858194E+03  0.10000000000E+01 0.  0.
    9000005    1    3    3    0    0 -0.21830132082E+02 -0.63262865901E+01  0.28116041676E+02  0.36167504313E+02  0.10000000000E+01 0.  0.
<mgrwt>
<rscale>  0 0.12500001E+03</rscale>
<asrwt>0</asrwt>
<pdfrwt beam="2">  1        4 0.64134151E-03 0.12500001E+03</pdfrwt>
<pdfrwt beam="1">  1       -4 0.14415977E+00 0.12500001E+03</pdfrwt>
<totfact> 0.32630212E+03</totfact>
</mgrwt>
</event>
<event>
 5    1  0.3282316E-002  0.1250006E+03  0.7818608E-02  0.1235068E+00
          4   -1    0    0  501    0  0.00000000000E+00  0.00000000000E+00  0.11203954696E+02  0.11275704006E+02  0.12700000000E+01 0.  1.
         -4   -1    0    0    0  501 -0.00000000000E+00 -0.00000000000E+00 -0.34746658250E+03  0.34746890343E+03  0.12700000000E+01 0.  1.
         25    2    1    2    0    0  0.00000000000E+00  0.00000000000E+00 -0.33626262780E+03  0.35874460744E+03  0.12500055404E+03 0.  0.
    9000005    1    3    3    0    0 -0.50810558643E+02  0.13545311417E+01 -0.27247014522E+03  0.27717237897E+03  0.10000000000E+01 0.  0.
    9000005    1    3    3    0    0  0.50810558643E+02 -0.13545311417E+01 -0.63792482577E+02  0.81572228470E+02  0.10000000000E+01 0.  0.
<mgrwt>
<rscale>  0 0.12500055E+03</rscale>
<asrwt>0</asrwt>
<pdfrwt beam="1">  1        4 0.17293833E-02 0.12500055E+03</pdfrwt>
<pdfrwt beam="2">  1       -4 0.53462087E-01 0.12500055E+03</pdfrwt>
<totfact> 0.68772297E+03</totfact>
</mgrwt>
</event>
<event>
 5    1  0.3282316E-002  0.1250007E+03  0.7818608E-02  0.1235068E+00
         -4   -1    0    0    0  501 -0.00000000000E+00  0.00000000000E+00  0.76258531072E+01  0.77308819428E+01  0.12700000000E+01 0.  1.
          4   -1    0    0  501    0  0.00000000000E+00 -0.00000000000E+00 -0.50863437467E+03  0.50863596019E+03  0.12700000000E+01 0.  1.
         25    2    1    2    0    0  0.00000000000E+00  0.00000000000E+00 -0.50100852156E+03  0.51636684213E+03  0.12500070789E+03 0.  0.
    9000005    1    3    3    0    0  0.12425139174E+02  0.47949516129E+02 -0.93108728950E+02  0.10546931112E+03  0.10000000000E+01 0.  0.
    9000005    1    3    3    0    0 -0.12425139174E+02 -0.47949516129E+02 -0.40789979261E+03  0.41089753102E+03  0.10000000000E+01 0.  0.
<mgrwt>
<rscale>  0 0.12500071E+03</rscale>
<asrwt>0</asrwt>
<pdfrwt beam="2">  1        4 0.78259617E-01 0.12500071E+03</pdfrwt>
<pdfrwt beam="1">  1       -4 0.11814097E-02 0.12500071E+03</pdfrwt>
<totfact> 0.54615654E+03</totfact>
</mgrwt>
</event>
<event>
 5    1  0.3282316E-002  0.1250048E+03  0.7818608E-02  0.1235062E+00
          4   -1    0    0  501    0  0.00000000000E+00  0.00000000000E+00  0.32744844754E+03  0.32745091036E+03  0.12700000000E+01 0.  1.
         -4   -1    0    0    0  501 -0.00000000000E+00 -0.00000000000E+00 -0.11893957798E+02  0.11961568965E+02  0.12700000000E+01 0.  1.
         25    2    1    2    0    0  0.00000000000E+00  0.00000000000E+00  0.31555448974E+03  0.33941247932E+03  0.12500478041E+03 0.  0.
    9000005    1    3    3    0    0 -0.21256830149E+02 -0.22141174816E+02  0.99681910902E+01  0.32286983195E+02  0.10000000000E+01 0.  0.
    9000005    1    3    3    0    0  0.21256830149E+02  0.22141174816E+02  0.30558629865E+03  0.30712549613E+03  0.10000000000E+01 0.  0.
<mgrwt>
<rscale>  0 0.12500478E+03</rscale>
<asrwt>0</asrwt>
<pdfrwt beam="1">  1        4 0.50382073E-01 0.12500478E+03</pdfrwt>
<pdfrwt beam="2">  1       -4 0.18352300E-02 0.12500478E+03</pdfrwt>
<totfact> 0.70897730E+03</totfact>
</mgrwt>
</event>
<event>
 5    1  0.3282316E-002  0.1250019E+03  0.7818608E-02  0.1235066E+00
          4   -1    0    0  501    0  0.00000000000E+00  0.00000000000E+00  0.21176004962E+03  0.21176385790E+03  0.12700000000E+01 0. -1.
         -4   -1    0    0    0  501 -0.00000000000E+00 -0.00000000000E+00 -0.18421312643E+02  0.18465038844E+02  0.12700000000E+01 0. -1.
         25    2    1    2    0    0  0.00000000000E+00  0.00000000000E+00  0.19333873697E+03  0.23022889675E+03  0.12500191072E+03 0.  0.
    9000005    1    3    3    0    0  0.30583039020E+02 -0.30135473902E+00 -0.37039337990E+01  0.30824214767E+02  0.10000000000E+01 0.  0.
    9000005    1    3    3    0    0 -0.30583039020E+02  0.30135473902E+00  0.19704267077E+03  0.19940468198E+03  0.10000000000E+01 0.  0.
<mgrwt>
<rscale>  0 0.12500191E+03</rscale>
<asrwt>0</asrwt>
<pdfrwt beam="1">  1        4 0.32582126E-01 0.12500191E+03</pdfrwt>
<pdfrwt beam="2">  1       -4 0.28377045E-02 0.12500191E+03</pdfrwt>
<totfact> 0.85270825E+03</totfact>
</mgrwt>
</event>
<event>
 5    1  0.3282316E-002  0.1250041E+03  0.7818608E-02  0.1235063E+00
         -4   -1    0    0    0  501 -0.00000000000E+00  0.00000000000E+00  0.75687390970E+02  0.75698045232E+02  0.12700000000E+01 0. -1.
          4   -1    0    0  501    0  0.00000000000E+00 -0.00000000000E+00 -0.51591638884E+02  0.51607267926E+02  0.12700000000E+01 0. -1.
         25    2    1    2    0    0  0.00000000000E+00  0.00000000000E+00  0.24095752086E+02  0.12730531316E+03  0.12500414989E+03 0.  0.
    9000005    1    3    3    0    0  0.25171047511E+02 -0.44189352623E+02  0.49037691910E+02  0.70653915291E+02  0.10000000000E+01 0.  0.
    9000005    1    3    3    0    0 -0.25171047511E+02  0.44189352623E+02 -0.24941939824E+02  0.56651397867E+02  0.10000000000E+01 0.  0.
<mgrwt>
<rscale>  0 0.12500415E+03</rscale>
<asrwt>0</asrwt>
<pdfrwt beam="2">  1        4 0.79391971E-02 0.12500415E+03</pdfrwt>
<pdfrwt beam="1">  1       -4 0.11646236E-01 0.12500415E+03</pdfrwt>
<totfact> 0.10401545E+04</totfact>
</mgrwt>
</event>
<event>
 5    1  0.3282316E-002  0.1250020E+03  0.7818608E-02  0.1235066E+00
         -4   -1    0    0    0  501 -0.00000000000E+00  0.00000000000E+00  0.11358147965E+02  0.11428929311E+02  0.12700000000E+01 0. -1.
          4   -1    0    0  501    0  0.00000000000E+00 -0.00000000000E+00 -0.34278690393E+03  0.34278925655E+03  0.12700000000E+01 0. -1.
         25    2    1    2    0    0  0.00000000000E+00  0.00000000000E+00 -0.33142875596E+03  0.35421818586E+03  0.12500201164E+03 0.  0.
    9000005    1    3    3    0    0 -0.12701928015E+02 -0.58807768957E+02 -0.21361003106E+03  0.22192327060E+03  0.10000000000E+01 0.  0.
    9000005    1    3    3    0    0  0.12701928015E+02  0.58807768957E+02 -0.11781872491E+03  0.13229491526E+03  0.10000000000E+01 0.  0.
<mgrwt>
<rscale>  0 0.12500201E+03</rscale>
<asrwt>0</asrwt>
<pdfrwt beam="2">  1        4 0.52742065E-01 0.12500201E+03</pdfrwt>
<pdfrwt beam="1">  1       -4 0.17530333E-02 0.12500201E+03</pdfrwt>
<totfact> 0.69259904E+03</totfact>
</mgrwt>
</event>
<event>
 5    1  0.3282316E-002  0.1250016E+03  0.7818608E-02  0.1235067E+00
          4   -1    0    0  501    0  0.00000000000E+00  0.00000000000E+00  0.46460002545E+02  0.46477357245E+02  0.12700000000E+01 0.  1.
         -4   -1    0    0    0  501 -0.00000000000E+00 -0.00000000000E+00 -0.84041930567E+02  0.84051525824E+02  0.12700000000E+01 0.  1.
         25    2    1    2    0    0  0.00000000000E+00  0.00000000000E+00 -0.37581928021E+02  0.13052888307E+03  0.12500155200E+03 0.  0.
    9000005    1    3    3    0    0 -0.52682261861E+02 -0.32548287062E+02 -0.27560860345E+02  0.67789473581E+02  0.10000000000E+01 0.  0.
    9000005    1    3    3    0    0  0.52682261861E+02  0.32548287062E+02 -0.10021067676E+02  0.62739409488E+02  0.10000000000E+01 0.  0.
<mgrwt>
<rscale>  0 0.12500155E+03</rscale>
<asrwt>0</asrwt>
<pdfrwt beam="1">  1        4 0.71497658E-02 0.12500155E+03</pdfrwt>
<pdfrwt beam="2">  1       -4 0.12931601E-01 0.12500155E+03</pdfrwt>
<totfact> 0.10332838E+04</totfact>
</mgrwt>
</event>
<event>
 5    1  0.3282316E-002  0.1250039E+03  0.7818608E-02  0.1235063E+00
         -4   -1    0    0    0  501 -0.00000000000E+00  0.00000000000E+00  0.38243409624E+03  0.38243620497E+03  0.12700000000E+01 0.  1.
          4   -1    0    0  501    0  0.00000000000E+00 -0.00000000000E+00 -0.10173192445E+02  0.10252158042E+02  0.12700000000E+01 0.  1.
         25    2    1    2    0    0  0.00000000000E+00  0.00000000000E+00  0.37226090380E+03  0.39268836301E+03  0.12500387972E+03 0.  0.
    9000005    1    3    3    0    0  0.54931124553E+02  0.29204311538E+02  0.16749995291E+03  0.17868283209E+03  0.10000000000E+01 0.  0.
    9000005    1    3    3    0    0 -0.54931124553E+02 -0.29204311538E+02  0.20476095088E+03  0.21400553092E+03  0.10000000000E+01 0.  0.
<mgrwt>
<rscale>  0 0.12500388E+03</rscale>
<asrwt>0</asrwt>
<pdfrwt beam="2">  1        4 0.15713432E-02 0.12500388E+03</pdfrwt>
<pdfrwt beam="1">  1       -4 0.58842243E-01 0.12500388E+03</pdfrwt>
<totfact> 0.65264588E+03</totfact>
</mgrwt>
</event>
<event>
 5    1  0.3282316E-002  0.1249946E+03  0.7818608E-02  0.1235078E+00
          4   -1    0    0  501    0  0.00000000000E+00  0.00000000000E+00  0.95156603009E+01  0.96000359875E+01  0.12700000000E+01 0.  1.
         -4   -1    0    0    0  501 -0.00000000000E+00 -0.00000000000E+00 -0.40857511790E+03  0.40857709170E+03  0.12700000000E+01 0.  1.
         25    2    1    2    0    0  0.00000000000E+00  0.00000000000E+00 -0.39905945760E+03  0.41817712769E+03  0.12499463759E+03 0.  0.
    9000005    1    3    3    0    0  0.14378210976E+02 -0.42735515052E+02 -0.54784151089E+02  0.70960273451E+02  0.10000000000E+01 0.  0.
    9000005    1    3    3    0    0 -0.14378210976E+02  0.42735515052E+02 -0.34427530651E+03  0.34721685424E+03  0.10000000000E+01 0.  0.
<mgrwt>
<rscale>  0 0.12499464E+03</rscale>
<asrwt>0</asrwt>
<pdfrwt beam="1">  1        4 0.14705903E-02 0.12499464E+03</pdfrwt>
<pdfrwt beam="2">  1       -4 0.62864339E-01 0.12499464E+03</pdfrwt>
<totfact> 0.62829920E+03</totfact>
</mgrwt>
</event>
<event>
 4    1  0.3282316E-002  0.1251369E+03  0.7818608E-02  0.1234855E+00
          4   -1    0    0  501    0  0.00000000000E+00  0.00000000000E+00  0.26831024546E+02  0.26861064353E+02  0.12700000000E+01 0.  1.
         -4   -1    0    0    0  501 -0.00000000000E+00 -0.00000000000E+00 -0.14579168750E+03  0.14579721892E+03  0.12700000000E+01 0.  1.
    9000005    1    1    2    0    0  0.53863417911E+02  0.18303080200E+02 -0.95394813383E+02  0.11107403366E+03  0.10000000000E+01 0.  0.
    9000005    1    1    2    0    0 -0.53863417911E+02 -0.18303080200E+02 -0.23565849573E+02  0.61584249609E+02  0.10000000000E+01 0.  0.
<mgrwt>
<rscale>  0 0.12513690E+03</rscale>
<asrwt>0</asrwt>
<pdfrwt beam="1">  1        4 0.41305863E-02 0.12513690E+03</pdfrwt>
<pdfrwt beam="2">  1       -4 0.22432226E-01 0.12513690E+03</pdfrwt>
<totfact> 0.94664378E+03</totfact>
</mgrwt>
</event>
<event>
 5    1  0.3282316E-002  0.1250147E+03  0.7818608E-02  0.1235046E+00
         -4   -1    0    0    0  501 -0.00000000000E+00  0.00000000000E+00  0.91957277051E+01  0.92830117972E+01  0.12700000000E+01 0.  1.
          4   -1    0    0  501    0  0.00000000000E+00 -0.00000000000E+00 -0.42279435832E+03  0.42279626574E+03  0.12700000000E+01 0.  1.
         25    2    1    2    0    0  0.00000000000E+00  0.00000000000E+00 -0.41359863061E+03  0.43207927754E+03  0.12501469847E+03 0.  0.
    9000005    1    3    3    0    0 -0.41743969285E+02  0.46490134657E+02 -0.20158382702E+03  0.21104722435E+03  0.10000000000E+01 0.  0.
    9000005    1    3    3    0    0  0.41743969285E+02 -0.46490134657E+02 -0.21201480360E+03  0.22103205319E+03  0.10000000000E+01 0.  0.
<mgrwt>
<rscale>  0 0.12501470E+03</rscale>
<asrwt>0</asrwt>
<pdfrwt beam="2">  1        4 0.65052132E-01 0.12501470E+03</pdfrwt>
<pdfrwt beam="1">  1       -4 0.14215886E-02 0.12501470E+03</pdfrwt>
<totfact> 0.61528035E+03</totfact>
</mgrwt>
</event>
<event>
 5    1  0.3282316E-002  0.1249998E+03  0.7818608E-02  0.1235070E+00
          4   -1    0    0  501    0  0.00000000000E+00  0.00000000000E+00  0.24072878195E+01  0.27217521280E+01  0.12700000000E+01 0.  1.
         -4   -1    0    0    0  501 -0.00000000000E+00 -0.00000000000E+00 -0.15228700581E+04  0.15228705876E+04  0.12700000000E+01 0.  1.
         25    2    1    2    0    0  0.00000000000E+00  0.00000000000E+00 -0.15204627702E+04  0.15255923397E+04  0.12499980563E+03 0.  0.
    9000005    1    3    3    0    0 -0.52439394417E+02  0.13755259477E+02 -0.38087331394E+03  0.38471363184E+03  0.10000000000E+01 0.  0.
    9000005    1    3    3    0    0  0.52439394417E+02 -0.13755259477E+02 -0.11395894563E+04  0.11408787079E+04  0.10000000000E+01 0.  0.
<mgrwt>
<rscale>  0 0.12499981E+03</rscale>
<asrwt>0</asrwt>
<pdfrwt beam="1">  1        4 0.39458349E-03 0.12499981E+03</pdfrwt>
<pdfrwt beam="2">  1       -4 0.23431121E+00 0.12499981E+03</pdfrwt>
<totfact> 0.17432934E+03</totfact>
</mgrwt>
</event>
<event>
 5    1  0.3282316E-002  0.1250001E+03  0.7818608E-02  0.1235069E+00
          4   -1    0    0  501    0  0.00000000000E+00  0.00000000000E+00  0.24970933495E+03  0.24971256448E+03  0.12700000000E+01 0. -1.
         -4   -1    0    0    0  501 -0.00000000000E+00 -0.00000000000E+00 -0.15614088047E+02  0.15665651775E+02  0.12700000000E+01 0. -1.
         25    2    1    2    0    0  0.00000000000E+00  0.00000000000E+00  0.23409524690E+03  0.26537821626E+03  0.12500005217E+03 0.  0.
    9000005    1    3    3    0    0  0.39572124763E+02  0.40790752230E+02  0.17222236936E+03  0.18135981648E+03  0.10000000000E+01 0.  0.
    9000005    1    3    3    0    0 -0.39572124763E+02 -0.40790752230E+02  0.61872877540E+02  0.84018399775E+02  0.10000000000E+01 0.  0.
<mgrwt>
<rscale>  0 0.12500005E+03</rscale>
<asrwt>0</asrwt>
<pdfrwt beam="1">  1        4 0.38421035E-01 0.12500005E+03</pdfrwt>
<pdfrwt beam="2">  1       -4 0.24063823E-02 0.12500005E+03</pdfrwt>
<totfact> 0.80157086E+03</totfact>
</mgrwt>
</event>
<event>
 5    1  0.3282316E-002  0.1250021E+03  0.7818608E-02  0.1235066E+00
          4   -1    0    0  501    0  0.00000000000E+00  0.00000000000E+00  0.10318867418E+01  0.16363649495E+01  0.12700000000E+01 0. -1.
         -4   -1    0    0    0  501 -0.00000000000E+00 -0.00000000000E+00 -0.29274388057E+04  0.29274390812E+04  0.12700000000E+01 0. -1.
         25    2    1    2    0    0  0.00000000000E+00  0.00000000000E+00 -0.29264069190E+04  0.29290754461E+04  0.12500205514E+03 0.  0.
    9000005    1    3    3    0    0  0.43773346730E+02 -0.26676932510E+01 -0.41996805327E+03  0.42225275397E+03  0.10000000000E+01 0.  0.
    9000005    1    3    3    0    0 -0.43773346730E+02  0.26676932510E+01 -0.25064388657E+04  0.25068226922E+04  0.10000000000E+01 0.  0.
<mgrwt>
<rscale>  0 0.12500206E+03</rscale>
<asrwt>0</asrwt>
<pdfrwt beam="1">  1        4 0.20527366E-03 0.12500206E+03</pdfrwt>
<pdfrwt beam="2">  1       -4 0.45041658E+00 0.12500206E+03</pdfrwt>
<totfact> 0.21044647E+02</totfact>
</mgrwt>
</event>
<event>
 5    1  0.3282316E-002  0.1250046E+03  0.7818608E-02  0.1235062E+00
         -4   -1    0    0    0  501 -0.00000000000E+00  0.00000000000E+00  0.20217493719E+02  0.20257343169E+02  0.12700000000E+01 0.  1.
          4   -1    0    0  501    0  0.00000000000E+00 -0.00000000000E+00 -0.19299336445E+03  0.19299754305E+03  0.12700000000E+01 0.  1.
         25    2    1    2    0    0  0.00000000000E+00  0.00000000000E+00 -0.17277587073E+03  0.21325488622E+03  0.12500457987E+03 0.  0.
    9000005    1    3    3    0    0  0.53930778944E+02  0.26194909761E+02 -0.56310739297E+02  0.82259355547E+02  0.10000000000E+01 0.  0.
    9000005    1    3    3    0    0 -0.53930778944E+02 -0.26194909761E+02 -0.11646513144E+03  0.13099553067E+03  0.10000000000E+01 0.  0.
<mgrwt>
<rscale>  0 0.12500458E+03</rscale>
<asrwt>0</asrwt>
<pdfrwt beam="2">  1        4 0.29694672E-01 0.12500458E+03</pdfrwt>
<pdfrwt beam="1">  1       -4 0.31137706E-02 0.12500458E+03</pdfrwt>
<totfact> 0.87938058E+03</totfact>
</mgrwt>
</event>
<event>
 5    1  0.3282316E-002  0.1250036E+03  0.7818608E-02  0.1235064E+00
          4   -1    0    0  501    0  0.00000000000E+00  0.00000000000E+00  0.31662815097E+01  0.34114862741E+01  0.12700000000E+01 0. -1.
         -4   -1    0    0    0  501 -0.00000000000E+00 -0.00000000000E+00 -0.11875360393E+04  0.11875367183E+04  0.12700000000E+01 0. -1.
         25    2    1    2    0    0  0.00000000000E+00  0.00000000000E+00 -0.11843697577E+04  0.11909482046E+04  0.12500361209E+03 0.  0.
    9000005    1    3    3    0    0 -0.12353021008E+02 -0.51956479536E+02 -0.28296489075E+03  0.28796215426E+03  0.10000000000E+01 0.  0.
    9000005    1    3    3    0    0  0.12353021008E+02  0.51956479536E+02 -0.90140486700E+03  0.90298605036E+03  0.10000000000E+01 0.  0.
<mgrwt>
<rscale>  0 0.12500361E+03</rscale>
<asrwt>0</asrwt>
<pdfrwt beam="1">  1        4 0.50603532E-03 0.12500361E+03</pdfrwt>
<pdfrwt beam="2">  1       -4 0.18271642E+00 0.12500361E+03</pdfrwt>
<totfact> 0.24949007E+03</totfact>
</mgrwt>
</event>
<event>
 5    1  0.3282316E-002  0.1249964E+03  0.7818608E-02  0.1235075E+00
         -4   -1    0    0    0  501 -0.00000000000E+00  0.00000000000E+00  0.48853718307E+01  0.50477478071E+01  0.12700000000E+01 0.  1.
          4   -1    0    0  501    0  0.00000000000E+00 -0.00000000000E+00 -0.78630178713E+03  0.78630281276E+03  0.12700000000E+01 0.  1.
         25    2    1    2    0    0  0.00000000000E+00  0.00000000000E+00 -0.78141641530E+03  0.79135056056E+03  0.12499638235E+03 0.  0.
    9000005    1    3    3    0    0  0.18021428638E+02 -0.24880600240E+02 -0.46194974299E+02  0.55486861588E+02  0.10000000000E+01 0.  0.
    9000005    1    3    3    0    0 -0.18021428638E+02  0.24880600240E+02 -0.73522144100E+03  0.73586369897E+03  0.10000000000E+01 0.  0.
<mgrwt>
<rscale>  0 0.12499638E+03</rscale>
<asrwt>0</asrwt>
<pdfrwt beam="2">  1        4 0.12098198E+00 0.12499638E+03</pdfrwt>
<pdfrwt beam="1">  1       -4 0.76416565E-03 0.12499638E+03</pdfrwt>
<totfact> 0.38656873E+03</totfact>
</mgrwt>
</event>
<event>
 5    1  0.3282316E-002  0.1249935E+03  0.7818608E-02  0.1235080E+00
         -4   -1    0    0    0  501 -0.00000000000E+00  0.00000000000E+00  0.83401421521E+01  0.84362830155E+01  0.12700000000E+01 0. -1.
          4   -1    0    0  501    0  0.00000000000E+00 -0.00000000000E+00 -0.46553749028E+03  0.46553922257E+03  0.12700000000E+01 0. -1.
         25    2    1    2    0    0  0.00000000000E+00  0.00000000000E+00 -0.45719734812E+03  0.47397550559E+03  0.12499345889E+03 0.  0.
    9000005    1    3    3    0    0  0.17864459916E+02  0.44214355846E+02 -0.38173140636E+03  0.38469977228E+03  0.10000000000E+01 0.  0.
    9000005    1    3    3    0    0 -0.17864459916E+02 -0.44214355846E+02 -0.75465941759E+02  0.89275733302E+02  0.10000000000E+01 0.  0.
<mgrwt>
<rscale>  0 0.12499346E+03</rscale>
<asrwt>0</asrwt>
<pdfrwt beam="2">  1        4 0.71628661E-01 0.12499346E+03</pdfrwt>
<pdfrwt beam="1">  1       -4 0.12906279E-02 0.12499346E+03</pdfrwt>
<totfact> 0.57949990E+03</totfact>
</mgrwt>
</event>
<event>
 5    1  0.3282316E-002  0.1249982E+03  0.7818608E-02  0.1235072E+00
          4   -1    0    0  501    0  0.00000000000E+00  0.00000000000E+00  0.11993754992E+03  0.11994427365E+03  0.12700000000E+01 0. -1.
         -4   -1    0    0    0  501 -0.00000000000E+00 -0.00000000000E+00 -0.32548098594E+02  0.32572866348E+02  0.12700000000E+01 0. -1.
         25    2    1    2    0    0  0.00000000000E+00  0.00000000000E+00  0.87389451324E+02  0.15251713999E+03  0.12499824714E+03 0.  0.
    9000005    1    3    3    0    0 -0.55578100454E+02  0.69366732012E+01  0.98786676596E+01  0.56882605073E+02  0.10000000000E+01 0.  0.
    9000005    1    3    3    0    0  0.55578100454E+02 -0.69366732012E+01  0.77510783664E+02  0.95634534920E+02  0.10000000000E+01 0.  0.
<mgrwt>
<rscale>  0 0.12499825E+03</rscale>
<asrwt>0</asrwt>
<pdfrwt beam="1">  1        4 0.18454354E-01 0.12499825E+03</pdfrwt>
<pdfrwt beam="2">  1       -4 0.50098221E-02 0.12499825E+03</pdfrwt>
<totfact> 0.98808186E+03</totfact>
</mgrwt>
</event>
<event>
 5    1  0.3282316E-002  0.1250007E+03  0.7818608E-02  0.1235068E+00
          4   -1    0    0  501    0  0.00000000000E+00  0.00000000000E+00  0.92496909158E+02  0.92505627417E+02  0.12700000000E+01 0. -1.
         -4   -1    0    0    0  501 -0.00000000000E+00 -0.00000000000E+00 -0.42211354457E+02  0.42230455185E+02  0.12700000000E+01 0. -1.
         25    2    1    2    0    0  0.00000000000E+00  0.00000000000E+00  0.50285554701E+02  0.13473608260E+03  0.12500069977E+03 0.  0.
    9000005    1    3    3    0    0  0.58334137402E+02 -0.90170274342E+01  0.30234448952E+01  0.59112770102E+02  0.10000000000E+01 0.  0.
    9000005    1    3    3    0    0 -0.58334137402E+02  0.90170274342E+01  0.47262109806E+02  0.75623312500E+02  0.10000000000E+01 0.  0.
<mgrwt>
<rscale>  0 0.12500070E+03</rscale>
<asrwt>0</asrwt>
<pdfrwt beam="1">  1        4 0.14232434E-01 0.12500070E+03</pdfrwt>
<pdfrwt beam="2">  1       -4 0.64961945E-02 0.12500070E+03</pdfrwt>
<totfact> 0.10243475E+04</totfact>
</mgrwt>
</event>
<event>
 5    1  0.3282316E-002  0.1250039E+03  0.7818608E-02  0.1235063E+00
          4   -1    0    0  501    0  0.00000000000E+00  0.00000000000E+00  0.99176853803E+01  0.99986690766E+01  0.12700000000E+01 0.  1.
         -4   -1    0    0    0  501 -0.00000000000E+00 -0.00000000000E+00 -0.39220782994E+03  0.39220988612E+03  0.12700000000E+01 0.  1.
         25    2    1    2    0    0  0.00000000000E+00  0.00000000000E+00 -0.38229014456E+03  0.40220855520E+03  0.12500386891E+03 0.  0.
    9000005    1    3    3    0    0  0.42073133755E+02  0.40513927025E+02 -0.26265657651E+03  0.26907434670E+03  0.10000000000E+01 0.  0.
    9000005    1    3    3    0    0 -0.42073133755E+02 -0.40513927025E+02 -0.11963356805E+03  0.13313420849E+03  0.10000000000E+01 0.  0.
<mgrwt>
<rscale>  0 0.12500387E+03</rscale>
<asrwt>0</asrwt>
<pdfrwt beam="1">  1        4 0.15321857E-02 0.12500387E+03</pdfrwt>
<pdfrwt beam="2">  1       -4 0.60346042E-01 0.12500387E+03</pdfrwt>
<totfact> 0.64333064E+03</totfact>
</mgrwt>
</event>
<event>
 5    1  0.3282316E-002  0.1249922E+03  0.7818608E-02  0.1235081E+00
         -4   -1    0    0    0  501 -0.00000000000E+00  0.00000000000E+00  0.91354394443E+02  0.91363221726E+02  0.12700000000E+01 0.  1.
          4   -1    0    0  501    0  0.00000000000E+00 -0.00000000000E+00 -0.42733666648E+02  0.42752534021E+02  0.12700000000E+01 0.  1.
         25    2    1    2    0    0  0.00000000000E+00  0.00000000000E+00  0.48620727795E+02  0.13411575575E+03  0.12499224283E+03 0.  0.
    9000005    1    3    3    0    0 -0.35028530966E+02 -0.15005187115E+01  0.79811323025E+02  0.87178534176E+02  0.10000000000E+01 0.  0.
    9000005    1    3    3    0    0  0.35028530966E+02  0.15005187115E+01 -0.31190595230E+02  0.46937221571E+02  0.10000000000E+01 0.  0.
<mgrwt>
<rscale>  0 0.12499224E+03</rscale>
<asrwt>0</asrwt>
<pdfrwt beam="2">  1        4 0.65765407E-02 0.12499224E+03</pdfrwt>
<pdfrwt beam="1">  1       -4 0.14056652E-01 0.12499224E+03</pdfrwt>
<totfact> 0.10258537E+04</totfact>
</mgrwt>
</event>
<event>
 5    1  0.3282316E-002  0.1250047E+03  0.7818608E-02  0.1235062E+00
          4   -1    0    0  501    0  0.00000000000E+00  0.00000000000E+00  0.67752408730E+01  0.68932422623E+01  0.12700000000E+01 0.  1.
         -4   -1    0    0    0  501 -0.00000000000E+00 -0.00000000000E+00 -0.57149421721E+03  0.57149562834E+03  0.12700000000E+01 0.  1.
         25    2    1    2    0    0  0.00000000000E+00  0.00000000000E+00 -0.56471897634E+03  0.57838887060E+03  0.12500465349E+03 0.  0.
    9000005    1    3    3    0    0 -0.81794141132E+01 -0.52430452545E+02 -0.43509652778E+03  0.43832162125E+03  0.10000000000E+01 0.  0.
    9000005    1    3    3    0    0  0.81794141132E+01  0.52430452545E+02 -0.12962244856E+03  0.14006724935E+03  0.10000000000E+01 0.  0.
<mgrwt>
<rscale>  0 0.12500465E+03</rscale>
<asrwt>0</asrwt>
<pdfrwt beam="1">  1        4 0.10515308E-02 0.12500465E+03</pdfrwt>
<pdfrwt beam="2">  1       -4 0.87931335E-01 0.12500465E+03</pdfrwt>
<totfact> 0.50255698E+03</totfact>
</mgrwt>
</event>
<event>
 5    1  0.3282316E-002  0.1249889E+03  0.7818608E-02  0.1235087E+00
         -4   -1    0    0    0  501 -0.00000000000E+00  0.00000000000E+00  0.39007150710E+03  0.39007357454E+03  0.12700000000E+01 0.  1.
          4   -1    0    0  501    0  0.00000000000E+00 -0.00000000000E+00 -0.99700438203E+01  0.10050605642E+02  0.12700000000E+01 0.  1.
         25    2    1    2    0    0  0.00000000000E+00  0.00000000000E+00  0.38010146328E+03  0.40012418018E+03  0.12498894822E+03 0.  0.
    9000005    1    3    3    0    0  0.37722638945E+02 -0.42435138982E+02  0.27358017489E+03  0.27941161501E+03  0.10000000000E+01 0.  0.
    9000005    1    3    3    0    0 -0.37722638945E+02  0.42435138982E+02  0.10652128839E+03  0.12071256517E+03  0.10000000000E+01 0.  0.
<mgrwt>
<rscale>  0 0.12498895E+03</rscale>
<asrwt>0</asrwt>
<pdfrwt beam="2">  1        4 0.15402090E-02 0.12498895E+03</pdfrwt>
<pdfrwt beam="1">  1       -4 0.60017357E-01 0.12498895E+03</pdfrwt>
<totfact> 0.64556461E+03</totfact>
</mgrwt>
</event>
<event>
 5    1  0.3282316E-002  0.1249898E+03  0.7818608E-02  0.1235085E+00
         -4   -1    0    0    0  501 -0.00000000000E+00  0.00000000000E+00  0.24741290140E+03  0.24741616091E+03  0.12700000000E+01 0. -1.
          4   -1    0    0  501    0  0.00000000000E+00 -0.00000000000E+00 -0.15756897808E+02  0.15807995715E+02  0.12700000000E+01 0. -1.
         25    2    1    2    0    0  0.00000000000E+00  0.00000000000E+00  0.23165600360E+03  0.26322415663E+03  0.12498981011E+03 0.  0.
    9000005    1    3    3    0    0 -0.27909791815E+02 -0.55472318887E+02  0.13049110166E+03  0.14451665044E+03  0.10000000000E+01 0.  0.
    9000005    1    3    3    0    0  0.27909791815E+02  0.55472318887E+02  0.10116490193E+03  0.11870750619E+03  0.10000000000E+01 0.  0.
<mgrwt>
<rscale>  0 0.12498981E+03</rscale>
<asrwt>0</asrwt>
<pdfrwt beam="2">  1        4 0.24283195E-02 0.12498981E+03</pdfrwt>
<pdfrwt beam="1">  1       -4 0.38067704E-01 0.12498981E+03</pdfrwt>
<totfact> 0.80473962E+03</totfact>
</mgrwt>
</event>
<event>
 5    1  0.3282316E-002  0.1250132E+03  0.7818608E-02  0.1235049E+00
         -4   -1    0    0    0  501 -0.00000000000E+00  0.00000000000E+00  0.81063277286E+02  0.81073225077E+02  0.12700000000E+01 0.  1.
          4   -1    0    0  501    0  0.00000000000E+00 -0.00000000000E+00 -0.48176605880E+02  0.48193342425E+02  0.12700000000E+01 0.  1.
         25    2    1    2    0    0  0.00000000000E+00  0.00000000000E+00  0.32886671406E+02  0.12926656750E+03  0.12501324857E+03 0.  0.
    9000005    1    3    3    0    0  0.67109746576E+01  0.21569431753E+02 -0.43812797836E+02  0.49303537613E+02  0.10000000000E+01 0.  0.
    9000005    1    3    3    0    0 -0.67109746576E+01 -0.21569431753E+02  0.76699469242E+02  0.79963029889E+02  0.10000000000E+01 0.  0.
<mgrwt>
<rscale>  0 0.12501325E+03</rscale>
<asrwt>0</asrwt>
<pdfrwt beam="2">  1        4 0.74138382E-02 0.12501325E+03</pdfrwt>
<pdfrwt beam="1">  1       -4 0.12473326E-01 0.12501325E+03</pdfrwt>
<totfact> 0.10357124E+04</totfact>
</mgrwt>
</event>
<event>
 5    1  0.3282316E-002  0.1250289E+03  0.7818608E-02  0.1235024E+00
         -4   -1    0    0    0  501 -0.00000000000E+00  0.00000000000E+00  0.57439905927E+03  0.57440046326E+03  0.12700000000E+01 0.  1.
          4   -1    0    0  501    0  0.00000000000E+00 -0.00000000000E+00 -0.67430394385E+01  0.68615946302E+01  0.12700000000E+01 0.  1.
         25    2    1    2    0    0  0.00000000000E+00  0.00000000000E+00  0.56765601984E+03  0.58126205789E+03  0.12502888902E+03 0.  0.
    9000005    1    3    3    0    0 -0.34300865702E+02  0.97164234406E+01  0.52252246898E+03  0.52373818732E+03  0.10000000000E+01 0.  0.
    9000005    1    3    3    0    0  0.34300865702E+02 -0.97164234406E+01  0.45133550860E+02  0.57523870572E+02  0.10000000000E+01 0.  0.
<mgrwt>
<rscale>  0 0.12502889E+03</rscale>
<asrwt>0</asrwt>
<pdfrwt beam="2">  1        4 0.10466182E-02 0.12502889E+03</pdfrwt>
<pdfrwt beam="1">  1       -4 0.88378324E-01 0.12502889E+03</pdfrwt>
<totfact> 0.50040451E+03</totfact>
</mgrwt>
</event>
<event>
 5    1  0.3282316E-002  0.1249980E+03  0.7818608E-02  0.1235072E+00
          4   -1    0    0  501    0  0.00000000000E+00  0.00000000000E+00  0.10122044322E+03  0.10122841017E+03  0.12700000000E+01 0.  1.
         -4   -1    0    0    0  501 -0.00000000000E+00 -0.00000000000E+00 -0.38570330147E+02  0.38591233041E+02  0.12700000000E+01 0.  1.
         25    2    1    2    0    0  0.00000000000E+00  0.00000000000E+00  0.62650113072E+02  0.13981964321E+03  0.12499798382E+03 0.  0.
    9000005    1    3    3    0    0 -0.33479982317E+02 -0.50184647614E+02  0.13091391701E+02  0.61739716623E+02  0.10000000000E+01 0.  0.
    9000005    1    3    3    0    0  0.33479982317E+02  0.50184647614E+02  0.49558721371E+02  0.78079926588E+02  0.10000000000E+01 0.  0.
<mgrwt>
<rscale>  0 0.12499798E+03</rscale>
<asrwt>0</asrwt>
<pdfrwt beam="1">  1        4 0.15574597E-01 0.12499798E+03</pdfrwt>
<pdfrwt beam="2">  1       -4 0.59361177E-02 0.12499798E+03</pdfrwt>
<totfact> 0.10137786E+04</totfact>
</mgrwt>
</event>
<event>
 5    1  0.3282316E-002  0.1249997E+03  0.7818608E-02  0.1235070E+00
         -4   -1    0    0    0  501 -0.00000000000E+00  0.00000000000E+00  0.53058351611E+01  0.54557113887E+01  0.12700000000E+01 0.  1.
          4   -1    0    0  501    0  0.00000000000E+00 -0.00000000000E+00 -0.72581004035E+03  0.72581115146E+03  0.12700000000E+01 0.  1.
         25    2    1    2    0    0  0.00000000000E+00  0.00000000000E+00 -0.72050420519E+03  0.73126686284E+03  0.12499965998E+03 0.  0.
    9000005    1    3    3    0    0  0.55619660086E+02 -0.17451328704E+02 -0.49199527621E+03  0.49543763207E+03  0.10000000000E+01 0.  0.
    9000005    1    3    3    0    0 -0.55619660086E+02  0.17451328704E+02 -0.22850892899E+03  0.23582923077E+03  0.10000000000E+01 0.  0.
<mgrwt>
<rscale>  0 0.12499966E+03</rscale>
<asrwt>0</asrwt>
<pdfrwt beam="2">  1        4 0.11167462E+00 0.12499966E+03</pdfrwt>
<pdfrwt beam="1">  1       -4 0.82789732E-03 0.12499966E+03</pdfrwt>
<totfact> 0.41486902E+03</totfact>
</mgrwt>
</event>
<event>
 5    1  0.3282316E-002  0.1249956E+03  0.7818608E-02  0.1235076E+00
          4   -1    0    0  501    0  0.00000000000E+00  0.00000000000E+00  0.74805691755E+03  0.74805799561E+03  0.12700000000E+01 0.  1.
         -4   -1    0    0    0  501 -0.00000000000E+00 -0.00000000000E+00 -0.51431710495E+01  0.52976512196E+01  0.12700000000E+01 0.  1.
         25    2    1    2    0    0  0.00000000000E+00  0.00000000000E+00  0.74291374650E+03  0.75335564683E+03  0.12499558340E+03 0.  0.
    9000005    1    3    3    0    0  0.61611246624E+02  0.78329191536E+01  0.41307135689E+03  0.41771550871E+03  0.10000000000E+01 0.  0.
    9000005    1    3    3    0    0 -0.61611246624E+02 -0.78329191536E+01  0.32984238961E+03  0.33564013812E+03  0.10000000000E+01 0.  0.
<mgrwt>
<rscale>  0 0.12499558E+03</rscale>
<asrwt>0</asrwt>
<pdfrwt beam="1">  1        4 0.11509760E+00 0.12499558E+03</pdfrwt>
<pdfrwt beam="2">  1       -4 0.80322343E-03 0.12499558E+03</pdfrwt>
<totfact> 0.40418063E+03</totfact>
</mgrwt>
</event>
<event>
 5    1  0.3282316E-002  0.1250024E+03  0.7818608E-02  0.1235066E+00
          4   -1    0    0  501    0  0.00000000000E+00  0.00000000000E+00  0.18935633467E+03  0.18936059352E+03  0.12700000000E+01 0. -1.
         -4   -1    0    0    0  501 -0.00000000000E+00 -0.00000000000E+00 -0.20605850671E+02  0.20644950517E+02  0.12700000000E+01 0. -1.
         25    2    1    2    0    0  0.00000000000E+00  0.00000000000E+00  0.16875048400E+03  0.21000554404E+03  0.12500241069E+03 0.  0.
    9000005    1    3    3    0    0  0.22242725978E+02  0.17604317829E+01 -0.13694334254E+02  0.26198716946E+02  0.10000000000E+01 0.  0.
    9000005    1    3    3    0    0 -0.22242725978E+02 -0.17604317829E+01  0.18244481825E+03  0.18380682709E+03  0.10000000000E+01 0.  0.
<mgrwt>
<rscale>  0 0.12500241E+03</rscale>
<asrwt>0</asrwt>
<pdfrwt beam="1">  1        4 0.29135081E-01 0.12500241E+03</pdfrwt>
<pdfrwt beam="2">  1       -4 0.31734660E-02 0.12500241E+03</pdfrwt>
<totfact> 0.88470205E+03</totfact>
</mgrwt>
</event>
<event>
 4    1  0.3282316E-002  0.1250630E+03  0.7818608E-02  0.1234971E+00
          4   -1    0    0  501    0  0.00000000000E+00  0.00000000000E+00  0.25318200528E+03  0.25318519051E+03  0.12700000000E+01 0.  1.
         -4   -1    0    0    0  501 -0.00000000000E+00 -0.00000000000E+00 -0.15414774776E+02  0.15467002987E+02  0.12700000000E+01 0.  1.
    9000005    1    1    2    0    0 -0.41912513917E+02  0.44217901352E+02  0.14905743930E+03  0.16103105860E+03  0.10000000000E+01 0.  0.
    9000005    1    1    2    0    0  0.41912513917E+02 -0.44217901352E+02  0.88709791197E+02  0.10762113490E+03  0.10000000000E+01 0.  0.
<mgrwt>
<rscale>  0 0.12506296E+03</rscale>
<asrwt>0</asrwt>
<pdfrwt beam="1">  1        4 0.38955340E-01 0.12506296E+03</pdfrwt>
<pdfrwt beam="2">  1       -4 0.23757664E-02 0.12506296E+03</pdfrwt>
<totfact> 0.79595430E+03</totfact>
</mgrwt>
</event>
<event>
 5    1  0.3282316E-002  0.1250004E+03  0.7818608E-02  0.1235069E+00
         -4   -1    0    0    0  501 -0.00000000000E+00  0.00000000000E+00  0.58003219210E+01  0.59377297335E+01  0.12700000000E+01 0.  1.
          4   -1    0    0  501    0  0.00000000000E+00 -0.00000000000E+00 -0.66543669381E+03  0.66543790572E+03  0.12700000000E+01 0.  1.
         25    2    1    2    0    0  0.00000000000E+00  0.00000000000E+00 -0.65963637189E+03  0.67137563545E+03  0.12500040305E+03 0.  0.
    9000005    1    3    3    0    0 -0.26383333309E+02 -0.11301681282E+02 -0.62796688428E+03  0.62862327035E+03  0.10000000000E+01 0.  0.
    9000005    1    3    3    0    0  0.26383333309E+02  0.11301681282E+02 -0.31669487608E+02  0.42752365100E+02  0.10000000000E+01 0.  0.
<mgrwt>
<rscale>  0 0.12500040E+03</rscale>
<asrwt>0</asrwt>
<pdfrwt beam="2">  1        4 0.10238548E+00 0.12500040E+03</pdfrwt>
<pdfrwt beam="1">  1       -4 0.90302080E-03 0.12500040E+03</pdfrwt>
<totfact> 0.44641036E+03</totfact>
</mgrwt>
</event>
<event>
 5    1  0.3282316E-002  0.1249963E+03  0.7818608E-02  0.1235075E+00
          4   -1    0    0  501    0  0.00000000000E+00  0.00000000000E+00  0.75534202437E+02  0.75544878303E+02  0.12700000000E+01 0.  1.
         -4   -1    0    0    0  501 -0.00000000000E+00 -0.00000000000E+00 -0.51689819222E+02  0.51705418586E+02  0.12700000000E+01 0.  1.
         25    2    1    2    0    0  0.00000000000E+00  0.00000000000E+00  0.23844383215E+02  0.12725029689E+03  0.12499633374E+03 0.  0.
    9000005    1    3    3    0    0 -0.58598349875E+02  0.21587360311E+02  0.14252602496E+02  0.64061824913E+02  0.10000000000E+01 0.  0.
    9000005    1    3    3    0    0  0.58598349875E+02 -0.21587360311E+02  0.95917807196E+01  0.63188471976E+02  0.10000000000E+01 0.  0.
<mgrwt>
<rscale>  0 0.12499633E+03</rscale>
<asrwt>0</asrwt>
<pdfrwt beam="1">  1        4 0.11622668E-01 0.12499633E+03</pdfrwt>
<pdfrwt beam="2">  1       -4 0.79543010E-02 0.12499633E+03</pdfrwt>
<totfact> 0.10404573E+04</totfact>
</mgrwt>
</event>
<event>
 5    1  0.3282316E-002  0.1250034E+03  0.7818608E-02  0.1235064E+00
          4   -1    0    0  501    0  0.00000000000E+00  0.00000000000E+00  0.20570272852E+02  0.20609440197E+02  0.12700000000E+01 0. -1.
         -4   -1    0    0    0  501 -0.00000000000E+00 -0.00000000000E+00 -0.18968615750E+03  0.18969040895E+03  0.12700000000E+01 0. -1.
         25    2    1    2    0    0  0.00000000000E+00  0.00000000000E+00 -0.16911588465E+03  0.21029984914E+03  0.12500337639E+03 0.  0.
    9000005    1    3    3    0    0  0.57900426844E+02 -0.20958757961E+02 -0.10249943933E+03  0.11957785759E+03  0.10000000000E+01 0.  0.
    9000005    1    3    3    0    0 -0.57900426844E+02  0.20958757961E+02 -0.66616445318E+02  0.90721991550E+02  0.10000000000E+01 0.  0.
<mgrwt>
<rscale>  0 0.12500338E+03</rscale>
<asrwt>0</asrwt>
<pdfrwt beam="1">  1        4 0.31679974E-02 0.12500338E+03</pdfrwt>
<pdfrwt beam="2">  1       -4 0.29185825E-01 0.12500338E+03</pdfrwt>
<totfact> 0.88420261E+03</totfact>
</mgrwt>
</event>
<event>
 5    1  0.3282316E-002  0.1250011E+03  0.7818608E-02  0.1235068E+00
         -4   -1    0    0    0  501 -0.00000000000E+00  0.00000000000E+00  0.17059790783E+03  0.17060263496E+03  0.12700000000E+01 0.  1.
          4   -1    0    0  501    0  0.00000000000E+00 -0.00000000000E+00 -0.22875142316E+02  0.22910369617E+02  0.12700000000E+01 0.  1.
         25    2    1    2    0    0  0.00000000000E+00  0.00000000000E+00  0.14772276551E+03  0.19351300457E+03  0.12500106995E+03 0.  0.
    9000005    1    3    3    0    0  0.14421586914E+02  0.58676661706E+02  0.98552536580E+02  0.11560508321E+03  0.10000000000E+01 0.  0.
    9000005    1    3    3    0    0 -0.14421586914E+02 -0.58676661706E+02  0.49170228930E+02  0.77907921363E+02  0.10000000000E+01 0.  0.
<mgrwt>
<rscale>  0 0.12500107E+03</rscale>
<asrwt>0</asrwt>
<pdfrwt beam="2">  1        4 0.35223262E-02 0.12500107E+03</pdfrwt>
<pdfrwt beam="1">  1       -4 0.26248905E-01 0.12500107E+03</pdfrwt>
<totfact> 0.91237446E+03</totfact>
</mgrwt>
</event>
<event>
 5    1  0.3282316E-002  0.1250251E+03  0.7818608E-02  0.1235030E+00
          4   -1    0    0  501    0  0.00000000000E+00  0.00000000000E+00  0.45137740946E+02  0.45155603835E+02  0.12700000000E+01 0. -1.
         -4   -1    0    0    0  501 -0.00000000000E+00 -0.00000000000E+00 -0.86535708036E+02  0.86545026808E+02  0.12700000000E+01 0. -1.
         25    2    1    2    0    0  0.00000000000E+00  0.00000000000E+00 -0.41397967090E+02  0.13170063064E+03  0.12502505522E+03 0.  0.
    9000005    1    3    3    0    0  0.56716102231E+02  0.21916660450E+02 -0.35955380568E+02  0.70645917429E+02  0.10000000000E+01 0.  0.
    9000005    1    3    3    0    0 -0.56716102231E+02 -0.21916660450E+02 -0.54425865217E+01  0.61054713214E+02  0.10000000000E+01 0.  0.
<mgrwt>
<rscale>  0 0.12502506E+03</rscale>
<asrwt>0</asrwt>
<pdfrwt beam="1">  1        4 0.69463588E-02 0.12502506E+03</pdfrwt>
<pdfrwt beam="2">  1       -4 0.13315277E-01 0.12502506E+03</pdfrwt>
<totfact> 0.10302268E+04</totfact>
</mgrwt>
</event>
<event>
 5    1  0.3282316E-002  0.1249930E+03  0.7818608E-02  0.1235080E+00
         -4   -1    0    0    0  501 -0.00000000000E+00  0.00000000000E+00  0.22915692128E+02  0.22950857189E+02  0.12700000000E+01 0.  1.
          4   -1    0    0  501    0  0.00000000000E+00 -0.00000000000E+00 -0.17027439677E+03  0.17027913289E+03  0.12700000000E+01 0.  1.
         25    2    1    2    0    0  0.00000000000E+00  0.00000000000E+00 -0.14735870465E+03  0.19322999008E+03  0.12499296472E+03 0.  0.
    9000005    1    3    3    0    0  0.25215432575E+02 -0.45341807846E+02 -0.12752362837E+03  0.13767706190E+03  0.10000000000E+01 0.  0.
    9000005    1    3    3    0    0 -0.25215432575E+02  0.45341807846E+02 -0.19835076271E+02  0.55552928180E+02  0.10000000000E+01 0.  0.
<mgrwt>
<rscale>  0 0.12499296E+03</rscale>
<asrwt>0</asrwt>
<pdfrwt beam="2">  1        4 0.26199130E-01 0.12499296E+03</pdfrwt>
<pdfrwt beam="1">  1       -4 0.35285605E-02 0.12499296E+03</pdfrwt>
<totfact> 0.91302708E+03</totfact>
</mgrwt>
</event>
<event>
 5    1  0.3282316E-002  0.1250035E+03  0.7818608E-02  0.1235064E+00
         -4   -1    0    0    0  501 -0.00000000000E+00  0.00000000000E+00  0.11778197056E+03  0.11778881734E+03  0.12700000000E+01 0.  1.
          4   -1    0    0  501    0  0.00000000000E+00 -0.00000000000E+00 -0.33147002162E+02  0.33171322740E+02  0.12700000000E+01 0.  1.
         25    2    1    2    0    0  0.00000000000E+00  0.00000000000E+00  0.84634968400E+02  0.15096014008E+03  0.12500354401E+03 0.  0.
    9000005    1    3    3    0    0 -0.49907772918E+02 -0.15238158445E+02  0.78980666566E+00  0.52197807090E+02  0.10000000000E+01 0.  0.
    9000005    1    3    3    0    0  0.49907772918E+02  0.15238158445E+02  0.83845161735E+02  0.98762332986E+02  0.10000000000E+01 0.  0.
<mgrwt>
<rscale>  0 0.12500354E+03</rscale>
<asrwt>0</asrwt>
<pdfrwt beam="2">  1        4 0.51019363E-02 0.12500354E+03</pdfrwt>
<pdfrwt beam="1">  1       -4 0.18122701E-01 0.12500354E+03</pdfrwt>
<totfact> 0.99104748E+03</totfact>
</mgrwt>
</event>
<event>
 5    1  0.3282316E-002  0.1250107E+03  0.7818608E-02  0.1235053E+00
          4   -1    0    0  501    0  0.00000000000E+00  0.00000000000E+00  0.97838562519E+02  0.97846804832E+02  0.12700000000E+01 0. -1.
         -4   -1    0    0    0  501 -0.00000000000E+00 -0.00000000000E+00 -0.39912282681E+02  0.39932483128E+02  0.12700000000E+01 0. -1.
         25    2    1    2    0    0  0.00000000000E+00  0.00000000000E+00  0.57926279838E+02  0.13777928796E+03  0.12501071272E+03 0.  0.
    9000005    1    3    3    0    0  0.51154633541E+02 -0.35412851148E+02  0.22437856318E+02  0.66146231603E+02  0.10000000000E+01 0.  0.
    9000005    1    3    3    0    0 -0.51154633541E+02  0.35412851148E+02  0.35488423521E+02  0.71633056357E+02  0.10000000000E+01 0.  0.
<mgrwt>
<rscale>  0 0.12501071E+03</rscale>
<asrwt>0</asrwt>
<pdfrwt beam="1">  1        4 0.15054274E-01 0.12501071E+03</pdfrwt>
<pdfrwt beam="2">  1       -4 0.61425391E-02 0.12501071E+03</pdfrwt>
<totfact> 0.10177359E+04</totfact>
</mgrwt>
</event>
<event>
 5    1  0.3282316E-002  0.1250002E+03  0.7818608E-02  0.1235069E+00
          4   -1    0    0  501    0  0.00000000000E+00  0.00000000000E+00  0.13290792360E+02  0.13351331827E+02  0.12700000000E+01 0.  1.
         -4   -1    0    0    0  501 -0.00000000000E+00 -0.00000000000E+00 -0.29317778274E+03  0.29318053344E+03  0.12700000000E+01 0.  1.
         25    2    1    2    0    0  0.00000000000E+00  0.00000000000E+00 -0.27988699038E+03  0.30653186527E+03  0.12500022818E+03 0.  0.
    9000005    1    3    3    0    0  0.24148253017E+02  0.39638160808E+02 -0.37330882619E+02  0.59572785004E+02  0.10000000000E+01 0.  0.
    9000005    1    3    3    0    0 -0.24148253017E+02 -0.39638160808E+02 -0.24255610776E+03  0.24695908027E+03  0.10000000000E+01 0.  0.
<mgrwt>
<rscale>  0 0.12500023E+03</rscale>
<asrwt>0</asrwt>
<pdfrwt beam="1">  1        4 0.20496060E-02 0.12500023E+03</pdfrwt>
<pdfrwt beam="2">  1       -4 0.45109138E-01 0.12500023E+03</pdfrwt>
<totfact> 0.74786355E+03</totfact>
</mgrwt>
</event>
<event>
 5    1  0.3282316E-002  0.1250012E+03  0.7818608E-02  0.1235067E+00
         -4   -1    0    0    0  501 -0.00000000000E+00  0.00000000000E+00  0.84779128765E+02  0.84788640596E+02  0.12700000000E+01 0. -1.
          4   -1    0    0  501    0  0.00000000000E+00 -0.00000000000E+00 -0.46055635504E+02  0.46073142520E+02  0.12700000000E+01 0. -1.
         25    2    1    2    0    0  0.00000000000E+00  0.00000000000E+00  0.38723493261E+02  0.13086178312E+03  0.12500118939E+03 0.  0.
    9000005    1    3    3    0    0  0.45957509555E+02  0.38804708787E+02  0.16132371546E+01  0.60178905296E+02  0.10000000000E+01 0.  0.
    9000005    1    3    3    0    0 -0.45957509555E+02 -0.38804708787E+02  0.37110256107E+02  0.70682877819E+02  0.10000000000E+01 0.  0.
<mgrwt>
<rscale>  0 0.12500119E+03</rscale>
<asrwt>0</asrwt>
<pdfrwt beam="2">  1        4 0.70875608E-02 0.12500119E+03</pdfrwt>
<pdfrwt beam="1">  1       -4 0.13045021E-01 0.12500119E+03</pdfrwt>
<totfact> 0.10325776E+04</totfact>
</mgrwt>
</event>
<event>
 5    1  0.3282316E-002  0.1249987E+03  0.7818608E-02  0.1235071E+00
          4   -1    0    0  501    0  0.00000000000E+00  0.00000000000E+00  0.41804366308E+01  0.43690903429E+01  0.12700000000E+01 0.  1.
         -4   -1    0    0    0  501 -0.00000000000E+00 -0.00000000000E+00 -0.91358528624E+03  0.91358616897E+03  0.12700000000E+01 0.  1.
         25    2    1    2    0    0  0.00000000000E+00  0.00000000000E+00 -0.90940484961E+03  0.91795525932E+03  0.12499871043E+03 0.  0.
    9000005    1    3    3    0    0 -0.37328683546E+02 -0.29664671051E+02 -0.15805384694E+03  0.16509222228E+03  0.10000000000E+01 0.  0.
    9000005    1    3    3    0    0  0.37328683546E+02  0.29664671051E+02 -0.75135100267E+03  0.75286303704E+03  0.10000000000E+01 0.  0.
<mgrwt>
<rscale>  0 0.12499871E+03</rscale>
<asrwt>0</asrwt>
<pdfrwt beam="1">  1        4 0.65772455E-03 0.12499871E+03</pdfrwt>
<pdfrwt beam="2">  1       -4 0.14056601E+00 0.12499871E+03</pdfrwt>
<totfact> 0.33482641E+03</totfact>
</mgrwt>
</event>
<event>
 5    1  0.3282316E-002  0.1250029E+03  0.7818608E-02  0.1235065E+00
         -4   -1    0    0    0  501 -0.00000000000E+00  0.00000000000E+00  0.10365213284E+03  0.10365991290E+03  0.12700000000E+01 0.  1.
          4   -1    0    0  501    0  0.00000000000E+00 -0.00000000000E+00 -0.37668007128E+02  0.37689410463E+02  0.12700000000E+01 0.  1.
         25    2    1    2    0    0  0.00000000000E+00  0.00000000000E+00  0.65984125712E+02  0.14134932336E+03  0.12500290544E+03 0.  0.
    9000005    1    3    3    0    0  0.10771230037E+02 -0.61025245663E+02  0.42131832118E+02  0.74941252208E+02  0.10000000000E+01 0.  0.
    9000005    1    3    3    0    0 -0.10771230037E+02  0.61025245663E+02  0.23852293594E+02  0.66408071155E+02  0.10000000000E+01 0.  0.
<mgrwt>
<rscale>  0 0.12500291E+03</rscale>
<asrwt>0</asrwt>
<pdfrwt beam="2">  1        4 0.57973229E-02 0.12500291E+03</pdfrwt>
<pdfrwt beam="1">  1       -4 0.15948727E-01 0.12500291E+03</pdfrwt>
<totfact> 0.10105035E+04</totfact>
</mgrwt>
</event>
<event>
 5    1  0.3282316E-002  0.1249978E+03  0.7818608E-02  0.1235073E+00
          4   -1    0    0  501    0  0.00000000000E+00  0.00000000000E+00  0.19571085563E+03  0.19571497621E+03  0.12700000000E+01 0.  1.
         -4   -1    0    0    0  501 -0.00000000000E+00 -0.00000000000E+00 -0.19934041362E+02  0.19974456314E+02  0.12700000000E+01 0.  1.
         25    2    1    2    0    0  0.00000000000E+00  0.00000000000E+00  0.17577681427E+03  0.21568943252E+03  0.12499777145E+03 0.  0.
    9000005    1    3    3    0    0  0.54759800296E+02 -0.89998863831E+01  0.13746527606E+03  0.14824754907E+03  0.10000000000E+01 0.  0.
    9000005    1    3    3    0    0 -0.54759800296E+02  0.89998863831E+01  0.38311538210E+02  0.67441883451E+02  0.10000000000E+01 0.  0.
<mgrwt>
<rscale>  0 0.12499777E+03</rscale>
<asrwt>0</asrwt>
<pdfrwt beam="1">  1        4 0.30112788E-01 0.12499777E+03</pdfrwt>
<pdfrwt beam="2">  1       -4 0.30702015E-02 0.12499777E+03</pdfrwt>
<totfact> 0.87559430E+03</totfact>
</mgrwt>
</event>
<event>
 5    1  0.3282316E-002  0.1249990E+03  0.7818608E-02  0.1235071E+00
         -4   -1    0    0    0  501 -0.00000000000E+00  0.00000000000E+00  0.49181483468E+03  0.49181647442E+03  0.12700000000E+01 0. -1.
          4   -1    0    0  501    0  0.00000000000E+00 -0.00000000000E+00 -0.78899574172E+01  0.79915160042E+01  0.12700000000E+01 0. -1.
         25    2    1    2    0    0  0.00000000000E+00  0.00000000000E+00  0.48392487726E+03  0.49980799042E+03  0.12499896183E+03 0.  0.
    9000005    1    3    3    0    0  0.59139633438E+02  0.84305295171E+01  0.31532315259E+03  0.32093342087E+03  0.10000000000E+01 0.  0.
    9000005    1    3    3    0    0 -0.59139633438E+02 -0.84305295171E+01  0.16860172467E+03  0.17887456955E+03  0.10000000000E+01 0.  0.
<mgrwt>
<rscale>  0 0.12499896E+03</rscale>
<asrwt>0</asrwt>
<pdfrwt beam="2">  1        4 0.12217779E-02 0.12499896E+03</pdfrwt>
<pdfrwt beam="1">  1       -4 0.75671761E-01 0.12499896E+03</pdfrwt>
<totfact> 0.55880540E+03</totfact>
</mgrwt>
</event>
<event>
 5    1  0.3282316E-002  0.1250028E+03  0.7818608E-02  0.1235065E+00
          4   -1    0    0  501    0  0.00000000000E+00  0.00000000000E+00  0.15370447290E+04  0.15370452537E+04  0.12700000000E+01 0. -1.
         -4   -1    0    0    0  501 -0.00000000000E+00 -0.00000000000E+00 -0.23823055894E+01  0.26996814481E+01  0.12700000000E+01 0. -1.
         25    2    1    2    0    0  0.00000000000E+00  0.00000000000E+00  0.15346624234E+04  0.15397449352E+04  0.12500284561E+03 0.  0.
    9000005    1    3    3    0    0  0.49530557514E+02  0.29007094689E+02  0.46292246155E+03  0.46646853385E+03  0.10000000000E+01 0.  0.
    9000005    1    3    3    0    0 -0.49530557514E+02 -0.29007094689E+02  0.10717399619E+04  0.10732764013E+04  0.10000000000E+01 0.  0.
<mgrwt>
<rscale>  0 0.12500285E+03</rscale>
<asrwt>0</asrwt>
<pdfrwt beam="1">  1        4 0.23649306E+00 0.12500285E+03</pdfrwt>
<pdfrwt beam="2">  1       -4 0.39096213E-03 0.12500285E+03</pdfrwt>
<totfact> 0.17161137E+03</totfact>
</mgrwt>
</event>
<event>
 5    1  0.3282316E-002  0.1250059E+03  0.7818608E-02  0.1235060E+00
          4   -1    0    0  501    0  0.00000000000E+00  0.00000000000E+00  0.40848604957E+02  0.40868342601E+02  0.12700000000E+01 0.  1.
         -4   -1    0    0    0  501 -0.00000000000E+00 -0.00000000000E+00 -0.95589511827E+02  0.95597948050E+02  0.12700000000E+01 0.  1.
         25    2    1    2    0    0  0.00000000000E+00  0.00000000000E+00 -0.54740906870E+02  0.13646629065E+03  0.12500592626E+03 0.  0.
    9000005    1    3    3    0    0 -0.24895251733E+01  0.80726196651E+01 -0.94968680835E+02  0.95348913278E+02  0.10000000000E+01 0.  0.
    9000005    1    3    3    0    0  0.24895251733E+01 -0.80726196651E+01  0.40227773965E+02  0.41117377373E+02  0.10000000000E+01 0.  0.
<mgrwt>
<rscale>  0 0.12500593E+03</rscale>
<asrwt>0</asrwt>
<pdfrwt beam="1">  1        4 0.62865680E-02 0.12500593E+03</pdfrwt>
<pdfrwt beam="2">  1       -4 0.14708246E-01 0.12500593E+03</pdfrwt>
<totfact> 0.10205893E+04</totfact>
</mgrwt>
</event>
<event>
 5    1  0.3282316E-002  0.1250048E+03  0.7818608E-02  0.1235062E+00
          4   -1    0    0  501    0  0.00000000000E+00  0.00000000000E+00  0.19731688234E+02  0.19772516798E+02  0.12700000000E+01 0.  1.
         -4   -1    0    0    0  501 -0.00000000000E+00 -0.00000000000E+00 -0.19773619370E+03  0.19774027207E+03  0.12700000000E+01 0.  1.
         25    2    1    2    0    0  0.00000000000E+00  0.00000000000E+00 -0.17800450546E+03  0.21751278887E+03  0.12500483733E+03 0.  0.
    9000005    1    3    3    0    0 -0.84681733460E+00 -0.17268944238E+02  0.15495776223E+02  0.23239032154E+02  0.10000000000E+01 0.  0.
    9000005    1    3    3    0    0  0.84681733460E+00  0.17268944238E+02 -0.19350028169E+03  0.19427375671E+03  0.10000000000E+01 0.  0.
<mgrwt>
<rscale>  0 0.12500484E+03</rscale>
<asrwt>0</asrwt>
<pdfrwt beam="1">  1        4 0.30390988E-02 0.12500484E+03</pdfrwt>
<pdfrwt beam="2">  1       -4 0.30424406E-01 0.12500484E+03</pdfrwt>
<totfact> 0.87254025E+03</totfact>
</mgrwt>
</event>
<event>
 5    1  0.3282316E-002  0.1249979E+03  0.7818608E-02  0.1235073E+00
         -4   -1    0    0    0  501 -0.00000000000E+00  0.00000000000E+00  0.92827143340E+01  0.93691880869E+01  0.12700000000E+01 0.  1.
          4   -1    0    0  501    0  0.00000000000E+00 -0.00000000000E+00 -0.41875631805E+03  0.41875824386E+03  0.12700000000E+01 0.  1.
         25    2    1    2    0    0  0.00000000000E+00  0.00000000000E+00 -0.40947360371E+03  0.42812743195E+03  0.12499786339E+03 0.  0.
    9000005    1    3    3    0    0 -0.51174792913E+02  0.24264697690E+02 -0.11428092120E+03  0.12754906481E+03  0.10000000000E+01 0.  0.
    9000005    1    3    3    0    0  0.51174792913E+02 -0.24264697690E+02 -0.29519268251E+03  0.30057836714E+03  0.10000000000E+01 0.  0.
<mgrwt>
<rscale>  0 0.12499786E+03</rscale>
<asrwt>0</asrwt>
<pdfrwt beam="2">  1        4 0.64430834E-01 0.12499786E+03</pdfrwt>
<pdfrwt beam="1">  1       -4 0.14349102E-02 0.12499786E+03</pdfrwt>
<totfact> 0.61909019E+03</totfact>
</mgrwt>
</event>
<event>
 5    1  0.3282316E-002  0.1249971E+03  0.7818608E-02  0.1235074E+00
          4   -1    0    0  501    0  0.00000000000E+00  0.00000000000E+00  0.71711671126E+03  0.71711783583E+03  0.12700000000E+01 0. -1.
         -4   -1    0    0    0  501 -0.00000000000E+00 -0.00000000000E+00 -0.53717332652E+01  0.55198204928E+01  0.12700000000E+01 0. -1.
         25    2    1    2    0    0  0.00000000000E+00  0.00000000000E+00  0.71174497799E+03  0.72263765632E+03  0.12499707452E+03 0.  0.
    9000005    1    3    3    0    0  0.53515648457E+02  0.21169409396E+02  0.49665463692E+03  0.49997889646E+03  0.10000000000E+01 0.  0.
    9000005    1    3    3    0    0 -0.53515648457E+02 -0.21169409396E+02  0.21509034107E+03  0.22265875987E+03  0.10000000000E+01 0.  0.
<mgrwt>
<rscale>  0 0.12499707E+03</rscale>
<asrwt>0</asrwt>
<pdfrwt beam="1">  1        4 0.11033706E+00 0.12499707E+03</pdfrwt>
<pdfrwt beam="2">  1       -4 0.83789881E-03 0.12499707E+03</pdfrwt>
<totfact> 0.41920983E+03</totfact>
</mgrwt>
</event>
<event>
 5    1  0.3282316E-002  0.1250001E+03  0.7818608E-02  0.1235069E+00
          4   -1    0    0  501    0  0.00000000000E+00  0.00000000000E+00  0.11416195498E+03  0.11416901885E+03  0.12700000000E+01 0.  1.
         -4   -1    0    0    0  501 -0.00000000000E+00 -0.00000000000E+00 -0.34196865856E+02  0.34220440300E+02  0.12700000000E+01 0.  1.
         25    2    1    2    0    0  0.00000000000E+00  0.00000000000E+00  0.79965089124E+02  0.14838945915E+03  0.12500006443E+03 0.  0.
    9000005    1    3    3    0    0 -0.44262394563E+02  0.20683763355E+02 -0.62734724497E+01  0.49267982459E+02  0.10000000000E+01 0.  0.
    9000005    1    3    3    0    0  0.44262394563E+02 -0.20683763355E+02  0.86238561573E+02  0.99121476690E+02  0.10000000000E+01 0.  0.
<mgrwt>
<rscale>  0 0.12500006E+03</rscale>
<asrwt>0</asrwt>
<pdfrwt beam="1">  1        4 0.17565735E-01 0.12500006E+03</pdfrwt>
<pdfrwt beam="2">  1       -4 0.52634130E-02 0.12500006E+03</pdfrwt>
<totfact> 0.99625564E+03</totfact>
</mgrwt>
</event>
<event>
 5    1  0.3282316E-002  0.1249993E+03  0.7818608E-02  0.1235070E+00
         -4   -1    0    0    0  501 -0.00000000000E+00  0.00000000000E+00  0.24121822300E+02  0.24155231547E+02  0.12700000000E+01 0. -1.
          4   -1    0    0  501    0  0.00000000000E+00 -0.00000000000E+00 -0.16178859523E+03  0.16179357974E+03  0.12700000000E+01 0. -1.
         25    2    1    2    0    0  0.00000000000E+00  0.00000000000E+00 -0.13766677293E+03  0.18594881129E+03  0.12499928020E+03 0.  0.
    9000005    1    3    3    0    0  0.19101390174E+02  0.58202889311E+02 -0.50446903912E+02  0.79362015757E+02  0.10000000000E+01 0.  0.
    9000005    1    3    3    0    0 -0.19101390174E+02 -0.58202889311E+02 -0.87219869018E+02  0.10658679553E+03  0.10000000000E+01 0.  0.
<mgrwt>
<rscale>  0 0.12499928E+03</rscale>
<asrwt>0</asrwt>
<pdfrwt beam="2">  1        4 0.24893506E-01 0.12499928E+03</pdfrwt>
<pdfrwt beam="1">  1       -4 0.37140031E-02 0.12499928E+03</pdfrwt>
<totfact> 0.92558519E+03</totfact>
</mgrwt>
</event>
<event>
 5    1  0.3282316E-002  0.1250011E+03  0.7818608E-02  0.1235068E+00
          4   -1    0    0  501    0  0.00000000000E+00  0.00000000000E+00  0.31928219975E+03  0.31928472556E+03  0.12700000000E+01 0.  1.
         -4   -1    0    0    0  501 -0.00000000000E+00 -0.00000000000E+00 -0.12199158730E+02  0.12265087596E+02  0.12700000000E+01 0.  1.
         25    2    1    2    0    0  0.00000000000E+00  0.00000000000E+00  0.30708304102E+03  0.33154981316E+03  0.12500113809E+03 0.  0.
    9000005    1    3    3    0    0 -0.30223148640E+02  0.16418305143E+02  0.15151574224E+02  0.37597468784E+02  0.10000000000E+01 0.  0.
    9000005    1    3    3    0    0  0.30223148640E+02 -0.16418305143E+02  0.29193146680E+03  0.29395234437E+03  0.10000000000E+01 0.  0.
<mgrwt>
<rscale>  0 0.12500114E+03</rscale>
<asrwt>0</asrwt>
<pdfrwt beam="1">  1        4 0.49125595E-01 0.12500114E+03</pdfrwt>
<pdfrwt beam="2">  1       -4 0.18820598E-02 0.12500114E+03</pdfrwt>
<totfact> 0.71801358E+03</totfact>
</mgrwt>
</event>
<event>
 5    1  0.3282316E-002  0.1250019E+03  0.7818608E-02  0.1235066E+00
         -4   -1    0    0    0  501 -0.00000000000E+00  0.00000000000E+00  0.12289488290E+02  0.12354935145E+02  0.12700000000E+01 0.  1.
          4   -1    0    0  501    0  0.00000000000E+00 -0.00000000000E+00 -0.31695191529E+03  0.31695445967E+03  0.12700000000E+01 0.  1.
         25    2    1    2    0    0  0.00000000000E+00  0.00000000000E+00 -0.30466242700E+03  0.32930939482E+03  0.12500193234E+03 0.  0.
    9000005    1    3    3    0    0 -0.18112327617E+02 -0.37149173199E+02 -0.27581998098E+03  0.27890102078E+03  0.10000000000E+01 0.  0.
    9000005    1    3    3    0    0  0.18112327617E+02  0.37149173199E+02 -0.28842446015E+02  0.50408374038E+02  0.10000000000E+01 0.  0.
<mgrwt>
<rscale>  0 0.12500193E+03</rscale>
<asrwt>0</asrwt>
<pdfrwt beam="2">  1        4 0.48767057E-01 0.12500193E+03</pdfrwt>
<pdfrwt beam="1">  1       -4 0.18959208E-02 0.12500193E+03</pdfrwt>
<totfact> 0.72059325E+03</totfact>
</mgrwt>
</event>
<event>
 5    1  0.3282316E-002  0.1249564E+03  0.7818608E-02  0.1235137E+00
         -4   -1    0    0    0  501 -0.00000000000E+00  0.00000000000E+00  0.78944846143E+01  0.79959857006E+01  0.12700000000E+01 0. -1.
          4   -1    0    0  501    0  0.00000000000E+00 -0.00000000000E+00 -0.49120136689E+03  0.49120300868E+03  0.12700000000E+01 0. -1.
         25    2    1    2    0    0  0.00000000000E+00  0.00000000000E+00 -0.48330688227E+03  0.49919899438E+03  0.12495636652E+03 0.  0.
    9000005    1    3    3    0    0 -0.48860321998E+02  0.23814397238E+01 -0.39686887460E+03  0.39987361247E+03  0.10000000000E+01 0.  0.
    9000005    1    3    3    0    0  0.48860321998E+02 -0.23814397238E+01 -0.86438007670E+02  0.99325381907E+02  0.10000000000E+01 0.  0.
<mgrwt>
<rscale>  0 0.12495637E+03</rscale>
<asrwt>0</asrwt>
<pdfrwt beam="2">  1        4 0.75577351E-01 0.12495637E+03</pdfrwt>
<pdfrwt beam="1">  1       -4 0.12224706E-02 0.12495637E+03</pdfrwt>
<totfact> 0.55980272E+03</totfact>
</mgrwt>
</event>
<event>
 5    1  0.3282316E-002  0.1250016E+03  0.7818608E-02  0.1235067E+00
          4   -1    0    0  501    0  0.00000000000E+00  0.00000000000E+00  0.59057546906E+03  0.59057683459E+03  0.12700000000E+01 0.  1.
         -4   -1    0    0    0  501 -0.00000000000E+00 -0.00000000000E+00 -0.65521385505E+01  0.66740856740E+01  0.12700000000E+01 0.  1.
         25    2    1    2    0    0  0.00000000000E+00  0.00000000000E+00  0.58402333051E+03  0.59725092026E+03  0.12500164470E+03 0.  0.
    9000005    1    3    3    0    0 -0.57267232973E+02  0.18232148864E+02  0.37385348502E+03  0.37865469162E+03  0.10000000000E+01 0.  0.
    9000005    1    3    3    0    0  0.57267232973E+02 -0.18232148864E+02  0.21016984549E+03  0.21859622865E+03  0.10000000000E+01 0.  0.
<mgrwt>
<rscale>  0 0.12500164E+03</rscale>
<asrwt>0</asrwt>
<pdfrwt beam="1">  1        4 0.90867233E-01 0.12500164E+03</pdfrwt>
<pdfrwt beam="2">  1       -4 0.10175071E-02 0.12500164E+03</pdfrwt>
<totfact> 0.49039839E+03</totfact>
</mgrwt>
</event>
<event>
 5    1  0.3282316E-002  0.1250578E+03  0.7818608E-02  0.1234979E+00
         -4   -1    0    0    0  501 -0.00000000000E+00  0.00000000000E+00  0.37216935093E+02  0.37238597688E+02  0.12700000000E+01 0. -1.
          4   -1    0    0  501    0  0.00000000000E+00 -0.00000000000E+00 -0.10500002291E+03  0.10500770310E+03  0.12700000000E+01 0. -1.
         25    2    1    2    0    0  0.00000000000E+00  0.00000000000E+00 -0.67783087813E+02  0.14224630079E+03  0.12505783900E+03 0.  0.
    9000005    1    3    3    0    0  0.13431424722E+02 -0.83800411673E+01 -0.10268799109E+03  0.10390597564E+03  0.10000000000E+01 0.  0.
    9000005    1    3    3    0    0 -0.13431424722E+02  0.83800411673E+01  0.34904903273E+02  0.38340325149E+02  0.10000000000E+01 0.  0.
<mgrwt>
<rscale>  0 0.12505784E+03</rscale>
<asrwt>0</asrwt>
<pdfrwt beam="2">  1        4 0.16156107E-01 0.12505784E+03</pdfrwt>
<pdfrwt beam="1">  1       -4 0.57279395E-02 0.12505784E+03</pdfrwt>
<totfact> 0.10074110E+04</totfact>
</mgrwt>
</event>
<event>
 5    1  0.3282316E-002  0.1249961E+03  0.7818608E-02  0.1235075E+00
          4   -1    0    0  501    0  0.00000000000E+00  0.00000000000E+00  0.17984621273E+02  0.18029406600E+02  0.12700000000E+01 0. -1.
         -4   -1    0    0    0  501 -0.00000000000E+00 -0.00000000000E+00 -0.21686924468E+03  0.21687296325E+03  0.12700000000E+01 0. -1.
         25    2    1    2    0    0  0.00000000000E+00  0.00000000000E+00 -0.19888462340E+03  0.23490236985E+03  0.12499611967E+03 0.  0.
    9000005    1    3    3    0    0  0.55868371528E+01 -0.21348033142E+02 -0.20931265148E+03  0.21047502783E+03  0.10000000000E+01 0.  0.
    9000005    1    3    3    0    0 -0.55868371528E+01  0.21348033142E+02  0.10428028080E+02  0.24427342017E+02  0.10000000000E+01 0.  0.
<mgrwt>
<rscale>  0 0.12499612E+03</rscale>
<asrwt>0</asrwt>
<pdfrwt beam="1">  1        4 0.27705960E-02 0.12499612E+03</pdfrwt>
<pdfrwt beam="2">  1       -4 0.33368228E-01 0.12499612E+03</pdfrwt>
<totfact> 0.84569794E+03</totfact>
</mgrwt>
</event>
<event>
 5    1  0.3282316E-002  0.1249911E+03  0.7818608E-02  0.1235083E+00
         -4   -1    0    0    0  501 -0.00000000000E+00  0.00000000000E+00  0.45380776102E+03  0.45380953809E+03  0.12700000000E+01 0.  1.
          4   -1    0    0  501    0  0.00000000000E+00 -0.00000000000E+00 -0.85578385891E+01  0.86515606290E+01  0.12700000000E+01 0.  1.
         25    2    1    2    0    0  0.00000000000E+00  0.00000000000E+00  0.44524992243E+03  0.46246109872E+03  0.12499109730E+03 0.  0.
    9000005    1    3    3    0    0  0.43833609803E+02 -0.27333689760E+02  0.35271276171E+03  0.35647693925E+03  0.10000000000E+01 0.  0.
    9000005    1    3    3    0    0 -0.43833609803E+02  0.27333689760E+02  0.92537160728E+02  0.10598415948E+03  0.10000000000E+01 0.  0.
<mgrwt>
<rscale>  0 0.12499110E+03</rscale>
<asrwt>0</asrwt>
<pdfrwt beam="2">  1        4 0.13239366E-02 0.12499110E+03</pdfrwt>
<pdfrwt beam="1">  1       -4 0.69823925E-01 0.12499110E+03</pdfrwt>
<totfact> 0.58910834E+03</totfact>
</mgrwt>
</event>
<event>
 5    1  0.3282316E-002  0.1250065E+03  0.7818608E-02  0.1235059E+00
         -4   -1    0    0    0  501 -0.00000000000E+00  0.00000000000E+00  0.29176444491E+03  0.29176720894E+03  0.12700000000E+01 0. -1.
          4   -1    0    0  501    0  0.00000000000E+00 -0.00000000000E+00 -0.13356811090E+02  0.13417052676E+02  0.12700000000E+01 0. -1.
         25    2    1    2    0    0  0.00000000000E+00  0.00000000000E+00  0.27840763382E+03  0.30518426162E+03  0.12500649171E+03 0.  0.
    9000005    1    3    3    0    0 -0.46984125223E+02  0.38371453774E+02  0.10252024776E+03  0.11912714925E+03  0.10000000000E+01 0.  0.
    9000005    1    3    3    0    0  0.46984125223E+02 -0.38371453774E+02  0.17588738606E+03  0.18605711237E+03  0.10000000000E+01 0.  0.
<mgrwt>
<rscale>  0 0.12500649E+03</rscale>
<asrwt>0</asrwt>
<pdfrwt beam="2">  1        4 0.20597406E-02 0.12500649E+03</pdfrwt>
<pdfrwt beam="1">  1       -4 0.44891684E-01 0.12500649E+03</pdfrwt>
<totfact> 0.74942304E+03</totfact>
</mgrwt>
</event>
<event>
 5    1  0.3282316E-002  0.1250018E+03  0.7818608E-02  0.1235066E+00
          4   -1    0    0  501    0  0.00000000000E+00  0.00000000000E+00  0.45089171901E+02  0.45107054024E+02  0.12700000000E+01 0.  1.
         -4   -1    0    0    0  501 -0.00000000000E+00 -0.00000000000E+00 -0.86596723530E+02  0.86606035737E+02  0.12700000000E+01 0.  1.
         25    2    1    2    0    0  0.00000000000E+00  0.00000000000E+00 -0.41507551629E+02  0.13171308976E+03  0.12500184468E+03 0.  0.
    9000005    1    3    3    0    0 -0.33250157956E+02  0.50886341167E+02 -0.36036721637E+02  0.70672753079E+02  0.10000000000E+01 0.  0.
    9000005    1    3    3    0    0  0.33250157956E+02 -0.50886341167E+02 -0.54708299923E+01  0.61040336682E+02  0.10000000000E+01 0.  0.
<mgrwt>
<rscale>  0 0.12500184E+03</rscale>
<asrwt>0</asrwt>
<pdfrwt beam="1">  1        4 0.69388876E-02 0.12500184E+03</pdfrwt>
<pdfrwt beam="2">  1       -4 0.13324665E-01 0.12500184E+03</pdfrwt>
<totfact> 0.10307397E+04</totfact>
</mgrwt>
</event>
<event>
 5    1  0.3282316E-002  0.1249965E+03  0.7818608E-02  0.1235075E+00
          4   -1    0    0  501    0  0.00000000000E+00  0.00000000000E+00  0.61021224322E+02  0.61034438785E+02  0.12700000000E+01 0.  1.
         -4   -1    0    0    0  501 -0.00000000000E+00 -0.00000000000E+00 -0.63984549144E+02  0.63997151727E+02  0.12700000000E+01 0.  1.
         25    2    1    2    0    0  0.00000000000E+00  0.00000000000E+00 -0.29633248219E+01  0.12503159051E+03  0.12499646928E+03 0.  0.
    9000005    1    3    3    0    0  0.22292085687E+02  0.45777380024E+02  0.34757286394E+02  0.61656910105E+02  0.10000000000E+01 0.  0.
    9000005    1    3    3    0    0 -0.22292085687E+02 -0.45777380024E+02 -0.37720611216E+02  0.63374680407E+02  0.10000000000E+01 0.  0.
<mgrwt>
<rscale>  0 0.12499647E+03</rscale>
<asrwt>0</asrwt>
<pdfrwt beam="1">  1        4 0.93898665E-02 0.12499647E+03</pdfrwt>
<pdfrwt beam="2">  1       -4 0.98457628E-02 0.12499647E+03</pdfrwt>
<totfact> 0.10453011E+04</totfact>
</mgrwt>
</event>
<event>
 5    1  0.3282316E-002  0.1249962E+03  0.7818608E-02  0.1235075E+00
         -4   -1    0    0    0  501 -0.00000000000E+00  0.00000000000E+00  0.74732826472E+01  0.75804256823E+01  0.12700000000E+01 0. -1.
          4   -1    0    0  501    0  0.00000000000E+00 -0.00000000000E+00 -0.51883586246E+03  0.51883741680E+03  0.12700000000E+01 0. -1.
         25    2    1    2    0    0  0.00000000000E+00  0.00000000000E+00 -0.51136257981E+03  0.52641784248E+03  0.12499622736E+03 0.  0.
    9000005    1    3    3    0    0  0.40492364884E+02  0.76625494492E+01 -0.45351586193E+03  0.45538553260E+03  0.10000000000E+01 0.  0.
    9000005    1    3    3    0    0 -0.40492364884E+02 -0.76625494492E+01 -0.57846717882E+02  0.71032309886E+02  0.10000000000E+01 0.  0.
<mgrwt>
<rscale>  0 0.12499623E+03</rscale>
<asrwt>0</asrwt>
<pdfrwt beam="2">  1        4 0.79829235E-01 0.12499623E+03</pdfrwt>
<pdfrwt beam="1">  1       -4 0.11580975E-02 0.12499623E+03</pdfrwt>
<totfact> 0.53875862E+03</totfact>
</mgrwt>
</event>
<event>
 5    1  0.3282316E-002  0.1250017E+03  0.7818608E-02  0.1235067E+00
          4   -1    0    0  501    0  0.00000000000E+00  0.00000000000E+00  0.96376763653E+01  0.97209930420E+01  0.12700000000E+01 0. -1.
         -4   -1    0    0    0  501 -0.00000000000E+00 -0.00000000000E+00 -0.40349265113E+03  0.40349464980E+03  0.12700000000E+01 0. -1.
         25    2    1    2    0    0  0.00000000000E+00  0.00000000000E+00 -0.39385497477E+03  0.41321564285E+03  0.12500170535E+03 0.  0.
    9000005    1    3    3    0    0 -0.33192972758E+02  0.35383734531E+02 -0.32713832399E+03  0.33071780287E+03  0.10000000000E+01 0.  0.
    9000005    1    3    3    0    0  0.33192972758E+02 -0.35383734531E+02 -0.66716650778E+02  0.82497839977E+02  0.10000000000E+01 0.  0.
<mgrwt>
<rscale>  0 0.12500171E+03</rscale>
<asrwt>0</asrwt>
<pdfrwt beam="1">  1        4 0.14892825E-02 0.12500171E+03</pdfrwt>
<pdfrwt beam="2">  1       -4 0.62082342E-01 0.12500171E+03</pdfrwt>
<totfact> 0.63285056E+03</totfact>
</mgrwt>
</event>
<event>
 5    1  0.3282316E-002  0.1249974E+03  0.7818608E-02  0.1235073E+00
          4   -1    0    0  501    0  0.00000000000E+00  0.00000000000E+00  0.31981143996E+03  0.31981396159E+03  0.12700000000E+01 0. -1.
         -4   -1    0    0    0  501 -0.00000000000E+00 -0.00000000000E+00 -0.12178126477E+02  0.12244168591E+02  0.12700000000E+01 0. -1.
         25    2    1    2    0    0  0.00000000000E+00  0.00000000000E+00  0.30763331348E+03  0.33205813018E+03  0.12499738500E+03 0.  0.
    9000005    1    3    3    0    0 -0.47921672117E+02 -0.34853303654E+02  0.10109645868E+03  0.11718674580E+03  0.10000000000E+01 0.  0.
    9000005    1    3    3    0    0  0.47921672117E+02  0.34853303654E+02  0.20653685480E+03  0.21487138438E+03  0.10000000000E+01 0.  0.
<mgrwt>
<rscale>  0 0.12499738E+03</rscale>
<asrwt>0</asrwt>
<pdfrwt beam="1">  1        4 0.49207040E-01 0.12499738E+03</pdfrwt>
<pdfrwt beam="2">  1       -4 0.18788318E-02 0.12499738E+03</pdfrwt>
<totfact> 0.71748706E+03</totfact>
</mgrwt>
</event>
<event>
 5    1  0.3282316E-002  0.1250005E+03  0.7818608E-02  0.1235068E+00
         -4   -1    0    0    0  501 -0.00000000000E+00  0.00000000000E+00  0.17777922951E+03  0.17778376570E+03  0.12700000000E+01 0.  1.
          4   -1    0    0  501    0  0.00000000000E+00 -0.00000000000E+00 -0.21949486965E+02  0.21986197443E+02  0.12700000000E+01 0.  1.
         25    2    1    2    0    0  0.00000000000E+00  0.00000000000E+00  0.15582974255E+03  0.19976996314E+03  0.12500051804E+03 0.  0.
    9000005    1    3    3    0    0 -0.23252584260E+02 -0.44178219302E+02  0.13798682114E+03  0.14674386032E+03  0.10000000000E+01 0.  0.
    9000005    1    3    3    0    0  0.23252584260E+02  0.44178219302E+02  0.17842921409E+02  0.53026102816E+02  0.10000000000E+01 0.  0.
<mgrwt>
<rscale>  0 0.12500052E+03</rscale>
<asrwt>0</asrwt>
<pdfrwt beam="2">  1        4 0.33800170E-02 0.12500052E+03</pdfrwt>
<pdfrwt beam="1">  1       -4 0.27353823E-01 0.12500052E+03</pdfrwt>
<totfact> 0.90173273E+03</totfact>
</mgrwt>
</event>
<event>
 5    1  0.3282316E-002  0.1249575E+03  0.7818608E-02  0.1235136E+00
         -4   -1    0    0    0  501 -0.00000000000E+00  0.00000000000E+00  0.12941829214E+02  0.13003993364E+02  0.12700000000E+01 0. -1.
          4   -1    0    0  501    0  0.00000000000E+00 -0.00000000000E+00 -0.30084021549E+03  0.30084289614E+03  0.12700000000E+01 0. -1.
         25    2    1    2    0    0  0.00000000000E+00  0.00000000000E+00 -0.28789838628E+03  0.31384688950E+03  0.12495754971E+03 0.  0.
    9000005    1    3    3    0    0 -0.12914136409E+01  0.46584930508E+02 -0.24843937508E+03  0.25277449750E+03  0.10000000000E+01 0.  0.
    9000005    1    3    3    0    0  0.12914136409E+01 -0.46584930508E+02 -0.39459011205E+02  0.61072392002E+02  0.10000000000E+01 0.  0.
<mgrwt>
<rscale>  0 0.12495755E+03</rscale>
<asrwt>0</asrwt>
<pdfrwt beam="2">  1        4 0.46288093E-01 0.12495755E+03</pdfrwt>
<pdfrwt beam="1">  1       -4 0.19960389E-02 0.12495755E+03</pdfrwt>
<totfact> 0.73963588E+03</totfact>
</mgrwt>
</event>
<event>
 5    1  0.3282316E-002  0.1249997E+03  0.7818608E-02  0.1235070E+00
         -4   -1    0    0    0  501 -0.00000000000E+00  0.00000000000E+00  0.36086200154E+02  0.36108541117E+02  0.12700000000E+01 0. -1.
          4   -1    0    0  501    0  0.00000000000E+00 -0.00000000000E+00 -0.10818760442E+03  0.10819505834E+03  0.12700000000E+01 0. -1.
         25    2    1    2    0    0  0.00000000000E+00  0.00000000000E+00 -0.72101404262E+02  0.14430359946E+03  0.12499966528E+03 0.  0.
    9000005    1    3    3    0    0  0.40543827272E+02  0.32642233452E+01 -0.90819608071E+02  0.99517125632E+02  0.10000000000E+01 0.  0.
    9000005    1    3    3    0    0 -0.40543827272E+02 -0.32642233452E+01  0.18718203809E+02  0.44786473826E+02  0.10000000000E+01 0.  0.
<mgrwt>
<rscale>  0 0.12499967E+03</rscale>
<asrwt>0</asrwt>
<pdfrwt beam="2">  1        4 0.16646539E-01 0.12499967E+03</pdfrwt>
<pdfrwt beam="1">  1       -4 0.55540151E-02 0.12499967E+03</pdfrwt>
<totfact> 0.10045233E+04</totfact>
</mgrwt>
</event>
<event>
 5    1  0.3282316E-002  0.1250023E+03  0.7818608E-02  0.1235066E+00
          4   -1    0    0  501    0  0.00000000000E+00  0.00000000000E+00  0.70057629950E+02  0.70069140241E+02  0.12700000000E+01 0.  1.
         -4   -1    0    0    0  501 -0.00000000000E+00 -0.00000000000E+00 -0.55736408087E+02  0.55750875208E+02  0.12700000000E+01 0.  1.
         25    2    1    2    0    0  0.00000000000E+00  0.00000000000E+00  0.14321221862E+02  0.12582001545E+03  0.12500231555E+03 0.  0.
    9000005    1    3    3    0    0 -0.48339685078E+02 -0.38287238989E+02 -0.30426072508E+01  0.61748645991E+02  0.10000000000E+01 0.  0.
    9000005    1    3    3    0    0  0.48339685078E+02  0.38287238989E+02  0.17363829113E+02  0.64071369458E+02  0.10000000000E+01 0.  0.
<mgrwt>
<rscale>  0 0.12500232E+03</rscale>
<asrwt>0</asrwt>
<pdfrwt beam="1">  1        4 0.10780095E-01 0.12500232E+03</pdfrwt>
<pdfrwt beam="2">  1       -4 0.85768303E-02 0.12500232E+03</pdfrwt>
<totfact> 0.10434360E+04</totfact>
</mgrwt>
</event>
<event>
 5    1  0.3282316E-002  0.1249994E+03  0.7818608E-02  0.1235070E+00
         -4   -1    0    0    0  501 -0.00000000000E+00  0.00000000000E+00  0.14080525980E+02  0.14137684106E+02  0.12700000000E+01 0.  1.
          4   -1    0    0  501    0  0.00000000000E+00 -0.00000000000E+00 -0.27679898008E+03  0.27680189355E+03  0.12700000000E+01 0.  1.
         25    2    1    2    0    0  0.00000000000E+00  0.00000000000E+00 -0.26271845410E+03  0.29093957765E+03  0.12499940689E+03 0.  0.
    9000005    1    3    3    0    0 -0.53446279831E+02 -0.23503006498E+02 -0.79506173716E+02  0.98646478909E+02  0.10000000000E+01 0.  0.
    9000005    1    3    3    0    0  0.53446279831E+02  0.23503006498E+02 -0.18321228038E+03  0.19229309874E+03  0.10000000000E+01 0.  0.
<mgrwt>
<rscale>  0 0.12499941E+03</rscale>
<asrwt>0</asrwt>
<pdfrwt beam="2">  1        4 0.42589075E-01 0.12499941E+03</pdfrwt>
<pdfrwt beam="1">  1       -4 0.21708559E-02 0.12499941E+03</pdfrwt>
<totfact> 0.76750614E+03</totfact>
</mgrwt>
</event>
<event>
 5    1  0.3282316E-002  0.1250001E+03  0.7818608E-02  0.1235069E+00
          4   -1    0    0  501    0  0.00000000000E+00  0.00000000000E+00  0.59694936041E+03  0.59695071136E+03  0.12700000000E+01 0. -1.
         -4   -1    0    0    0  501 -0.00000000000E+00 -0.00000000000E+00 -0.64807109353E+01  0.66039771522E+01  0.12700000000E+01 0. -1.
         25    2    1    2    0    0  0.00000000000E+00  0.00000000000E+00  0.59046864947E+03  0.60355468851E+03  0.12500014405E+03 0.  0.
    9000005    1    3    3    0    0 -0.98035778712E+01 -0.13095730027E+02  0.58645125037E+03  0.58668021727E+03  0.10000000000E+01 0.  0.
    9000005    1    3    3    0    0  0.98035778712E+01  0.13095730027E+02  0.40173991090E+01  0.16874471240E+02  0.10000000000E+01 0.  0.
<mgrwt>
<rscale>  0 0.12500014E+03</rscale>
<asrwt>0</asrwt>
<pdfrwt beam="1">  1        4 0.91847993E-01 0.12500014E+03</pdfrwt>
<pdfrwt beam="2">  1       -4 0.10066179E-02 0.12500014E+03</pdfrwt>
<totfact> 0.48643823E+03</totfact>
</mgrwt>
</event>
<event>
 5    1  0.3282316E-002  0.1249987E+03  0.7818608E-02  0.1235071E+00
          4   -1    0    0  501    0  0.00000000000E+00  0.00000000000E+00  0.11036255003E+03  0.11036985706E+03  0.12700000000E+01 0.  1.
         -4   -1    0    0    0  501 -0.00000000000E+00 -0.00000000000E+00 -0.35374100272E+02  0.35396890684E+02  0.12700000000E+01 0.  1.
         25    2    1    2    0    0  0.00000000000E+00  0.00000000000E+00  0.74988449754E+02  0.14576674775E+03  0.12499870860E+03 0.  0.
    9000005    1    3    3    0    0 -0.30207140970E+02  0.19714644478E+02  0.97002311879E+02  0.10349679745E+03  0.10000000000E+01 0.  0.
    9000005    1    3    3    0    0  0.30207140970E+02 -0.19714644478E+02 -0.22013862125E+02  0.42269950297E+02  0.10000000000E+01 0.  0.
<mgrwt>
<rscale>  0 0.12499871E+03</rscale>
<asrwt>0</asrwt>
<pdfrwt beam="1">  1        4 0.16981169E-01 0.12499871E+03</pdfrwt>
<pdfrwt beam="2">  1       -4 0.54444845E-02 0.12499871E+03</pdfrwt>
<totfact> 0.10015724E+04</totfact>
</mgrwt>
</event>
<event>
 5    1  0.3282316E-002  0.1250049E+03  0.7818608E-02  0.1235062E+00
          4   -1    0    0  501    0  0.00000000000E+00  0.00000000000E+00  0.14050217723E+03  0.14050791688E+03  0.12700000000E+01 0. -1.
         -4   -1    0    0    0  501 -0.00000000000E+00 -0.00000000000E+00 -0.27783437837E+02  0.27812448976E+02  0.12700000000E+01 0. -1.
         25    2    1    2    0    0  0.00000000000E+00  0.00000000000E+00  0.11271873939E+03  0.16832036585E+03  0.12500492531E+03 0.  0.
    9000005    1    3    3    0    0 -0.62197323107E+02 -0.52011803519E+01  0.60617101020E+02  0.87011448757E+02  0.10000000000E+01 0.  0.
    9000005    1    3    3    0    0  0.62197323107E+02  0.52011803519E+01  0.52101638369E+02  0.81308917097E+02  0.10000000000E+01 0.  0.
<mgrwt>
<rscale>  0 0.12500493E+03</rscale>
<asrwt>0</asrwt>
<pdfrwt beam="1">  1        4 0.21618393E-01 0.12500493E+03</pdfrwt>
<pdfrwt beam="2">  1       -4 0.42770482E-02 0.12500493E+03</pdfrwt>
<totfact> 0.95751646E+03</totfact>
</mgrwt>
</event>
<event>
 5    1  0.3282316E-002  0.1249996E+03  0.7818608E-02  0.1235070E+00
          4   -1    0    0  501    0  0.00000000000E+00  0.00000000000E+00  0.50508685604E+03  0.50508845269E+03  0.12700000000E+01 0. -1.
         -4   -1    0    0    0  501 -0.00000000000E+00 -0.00000000000E+00 -0.76800069598E+01  0.77843051651E+01  0.12700000000E+01 0. -1.
         25    2    1    2    0    0  0.00000000000E+00  0.00000000000E+00  0.49740684908E+03  0.51287275786E+03  0.12499956897E+03 0.  0.
    9000005    1    3    3    0    0  0.24525618183E+02 -0.88993156355E+00  0.48450705155E+03  0.48512924147E+03  0.10000000000E+01 0.  0.
    9000005    1    3    3    0    0 -0.24525618183E+02  0.88993156355E+00  0.12899797531E+02  0.27743516392E+02  0.10000000000E+01 0.  0.
<mgrwt>
<rscale>  0 0.12499957E+03</rscale>
<asrwt>0</asrwt>
<pdfrwt beam="1">  1        4 0.77713785E-01 0.12499957E+03</pdfrwt>
<pdfrwt beam="2">  1       -4 0.11896858E-02 0.12499957E+03</pdfrwt>
<totfact> 0.54879784E+03</totfact>
</mgrwt>
</event>
<event>
 5    1  0.3282316E-002  0.1250019E+03  0.7818608E-02  0.1235066E+00
          4   -1    0    0  501    0  0.00000000000E+00  0.00000000000E+00  0.28933803762E+03  0.28934082483E+03  0.12700000000E+01 0. -1.
         -4   -1    0    0    0  501 -0.00000000000E+00 -0.00000000000E+00 -0.13468323439E+02  0.13528068460E+02  0.12700000000E+01 0. -1.
         25    2    1    2    0    0  0.00000000000E+00  0.00000000000E+00  0.27586971418E+03  0.30286889329E+03  0.12500186927E+03 0.  0.
    9000005    1    3    3    0    0 -0.38706779507E+02  0.42971863040E+02  0.80568999432E+02  0.99182455416E+02  0.10000000000E+01 0.  0.
    9000005    1    3    3    0    0  0.38706779507E+02 -0.42971863040E+02  0.19530071475E+03  0.20368643787E+03  0.10000000000E+01 0.  0.
<mgrwt>
<rscale>  0 0.12500187E+03</rscale>
<asrwt>0</asrwt>
<pdfrwt beam="1">  1        4 0.44518357E-01 0.12500187E+03</pdfrwt>
<pdfrwt beam="2">  1       -4 0.20768598E-02 0.12500187E+03</pdfrwt>
<totfact> 0.75237248E+03</totfact>
</mgrwt>
</event>
<event>
 5    1  0.3282316E-002  0.1250082E+03  0.7818608E-02  0.1235056E+00
          4   -1    0    0  501    0  0.00000000000E+00  0.00000000000E+00  0.16012496407E+03  0.16013000037E+03  0.12700000000E+01 0. -1.
         -4   -1    0    0    0  501 -0.00000000000E+00 -0.00000000000E+00 -0.24376253438E+02  0.24409314445E+02  0.12700000000E+01 0. -1.
         25    2    1    2    0    0  0.00000000000E+00  0.00000000000E+00  0.13574871064E+03  0.18453931482E+03  0.12500818483E+03 0.  0.
    9000005    1    3    3    0    0  0.34286306368E+02 -0.20842129208E+01 -0.91987347557E+01  0.35574028012E+02  0.10000000000E+01 0.  0.
    9000005    1    3    3    0    0 -0.34286306368E+02  0.20842129208E+01  0.14494744539E+03  0.14896528681E+03  0.10000000000E+01 0.  0.
<mgrwt>
<rscale>  0 0.12500818E+03</rscale>
<asrwt>0</asrwt>
<pdfrwt beam="1">  1        4 0.24637540E-01 0.12500818E+03</pdfrwt>
<pdfrwt beam="2">  1       -4 0.37531235E-02 0.12500818E+03</pdfrwt>
<totfact> 0.92789213E+03</totfact>
</mgrwt>
</event>
<event>
 5    1  0.3282316E-002  0.1250007E+03  0.7818608E-02  0.1235068E+00
          4   -1    0    0  501    0  0.00000000000E+00  0.00000000000E+00  0.59181805943E+01  0.60529134759E+01  0.12700000000E+01 0.  1.
         -4   -1    0    0    0  501 -0.00000000000E+00 -0.00000000000E+00 -0.65248569893E+03  0.65248693490E+03  0.12700000000E+01 0.  1.
         25    2    1    2    0    0  0.00000000000E+00  0.00000000000E+00 -0.64656751834E+03  0.65853984837E+03  0.12500070450E+03 0.  0.
    9000005    1    3    3    0    0  0.40151644542E+01 -0.60364364850E+02 -0.40579867949E+03  0.41028471379E+03  0.10000000000E+01 0.  0.
    9000005    1    3    3    0    0 -0.40151644542E+01  0.60364364850E+02 -0.24076883884E+03  0.24825513458E+03  0.10000000000E+01 0.  0.
<mgrwt>
<rscale>  0 0.12500070E+03</rscale>
<asrwt>0</asrwt>
<pdfrwt beam="1">  1        4 0.92094898E-03 0.12500070E+03</pdfrwt>
<pdfrwt beam="2">  1       -4 0.10039282E+00 0.12500070E+03</pdfrwt>
<totfact> 0.45366657E+03</totfact>
</mgrwt>
</event>
<event>
 5    1  0.3282316E-002  0.1249995E+03  0.7818608E-02  0.1235070E+00
          4   -1    0    0  501    0  0.00000000000E+00  0.00000000000E+00  0.29121615510E+03  0.29121892433E+03  0.12700000000E+01 0. -1.
         -4   -1    0    0    0  501 -0.00000000000E+00 -0.00000000000E+00 -0.13380567804E+02  0.13440702912E+02  0.12700000000E+01 0. -1.
         25    2    1    2    0    0  0.00000000000E+00  0.00000000000E+00  0.27783558729E+03  0.30465962724E+03  0.12499949962E+03 0.  0.
    9000005    1    3    3    0    0 -0.61868278456E+01 -0.20854105964E+02 -0.38674470853E+01  0.22116232078E+02  0.10000000000E+01 0.  0.
    9000005    1    3    3    0    0  0.61868278456E+01  0.20854105964E+02  0.28170303438E+03  0.28254339517E+03  0.10000000000E+01 0.  0.
<mgrwt>
<rscale>  0 0.12499950E+03</rscale>
<asrwt>0</asrwt>
<pdfrwt beam="1">  1        4 0.44807319E-01 0.12499950E+03</pdfrwt>
<pdfrwt beam="2">  1       -4 0.20633879E-02 0.12499950E+03</pdfrwt>
<totfact> 0.75018872E+03</totfact>
</mgrwt>
</event>
<event>
 5    1  0.3282316E-002  0.1249999E+03  0.7818608E-02  0.1235070E+00
         -4   -1    0    0    0  501 -0.00000000000E+00  0.00000000000E+00  0.12458670530E+02  0.12523233263E+02  0.12700000000E+01 0. -1.
          4   -1    0    0  501    0  0.00000000000E+00 -0.00000000000E+00 -0.31265980585E+03  0.31266238516E+03  0.12700000000E+01 0. -1.
         25    2    1    2    0    0  0.00000000000E+00  0.00000000000E+00 -0.30020113532E+03  0.32518561842E+03  0.12499985913E+03 0.  0.
    9000005    1    3    3    0    0  0.23307358533E+02  0.56712945617E+02 -0.18149676866E+03  0.19157679451E+03  0.10000000000E+01 0.  0.
    9000005    1    3    3    0    0 -0.23307358533E+02 -0.56712945617E+02 -0.11870436666E+03  0.13360882391E+03  0.10000000000E+01 0.  0.
<mgrwt>
<rscale>  0 0.12499986E+03</rscale>
<asrwt>0</asrwt>
<pdfrwt beam="2">  1        4 0.48106667E-01 0.12499986E+03</pdfrwt>
<pdfrwt beam="1">  1       -4 0.19218836E-02 0.12499986E+03</pdfrwt>
<totfact> 0.72543809E+03</totfact>
</mgrwt>
</event>
<event>
 5    1  0.3282316E-002  0.1249995E+03  0.7818608E-02  0.1235070E+00
          4   -1    0    0  501    0  0.00000000000E+00  0.00000000000E+00  0.24062367204E+03  0.24062702352E+03  0.12700000000E+01 0. -1.
         -4   -1    0    0    0  501 -0.00000000000E+00 -0.00000000000E+00 -0.16205417155E+02  0.16255105203E+02  0.12700000000E+01 0. -1.
         25    2    1    2    0    0  0.00000000000E+00  0.00000000000E+00  0.22441825489E+03  0.25688212872E+03  0.12499949972E+03 0.  0.
    9000005    1    3    3    0    0  0.33692830952E+00 -0.55423552324E+02  0.17153381278E+03  0.18026850141E+03  0.10000000000E+01 0.  0.
    9000005    1    3    3    0    0 -0.33692830952E+00  0.55423552324E+02  0.52884442106E+02  0.76613627311E+02  0.10000000000E+01 0.  0.
<mgrwt>
<rscale>  0 0.12499950E+03</rscale>
<asrwt>0</asrwt>
<pdfrwt beam="1">  1        4 0.37023104E-01 0.12499950E+03</pdfrwt>
<pdfrwt beam="2">  1       -4 0.24972212E-02 0.12499950E+03</pdfrwt>
<totfact> 0.81346517E+03</totfact>
</mgrwt>
</event>
<event>
 5    1  0.3282316E-002  0.1249986E+03  0.7818608E-02  0.1235071E+00
          4   -1    0    0  501    0  0.00000000000E+00  0.00000000000E+00  0.20660153773E+03  0.20660544110E+03  0.12700000000E+01 0. -1.
         -4   -1    0    0    0  501 -0.00000000000E+00 -0.00000000000E+00 -0.18881341448E+02  0.18924004726E+02  0.12700000000E+01 0. -1.
         25    2    1    2    0    0  0.00000000000E+00  0.00000000000E+00  0.18772019628E+03  0.22552944583E+03  0.12499863536E+03 0.  0.
    9000005    1    3    3    0    0 -0.58680502471E+02  0.12824098941E+02  0.12497007524E+03  0.13865921747E+03  0.10000000000E+01 0.  0.
    9000005    1    3    3    0    0  0.58680502471E+02 -0.12824098941E+02  0.62750121040E+02  0.86870228355E+02  0.10000000000E+01 0.  0.
<mgrwt>
<rscale>  0 0.12499864E+03</rscale>
<asrwt>0</asrwt>
<pdfrwt beam="1">  1        4 0.31788433E-01 0.12499864E+03</pdfrwt>
<pdfrwt beam="2">  1       -4 0.29084039E-02 0.12499864E+03</pdfrwt>
<totfact> 0.86003435E+03</totfact>
</mgrwt>
</event>
<event>
 5    1  0.3282316E-002  0.1249932E+03  0.7818608E-02  0.1235080E+00
          4   -1    0    0  501    0  0.00000000000E+00  0.00000000000E+00  0.22647901158E+03  0.22648257237E+03  0.12700000000E+01 0.  1.
         -4   -1    0    0    0  501 -0.00000000000E+00 -0.00000000000E+00 -0.17218762617E+02  0.17265534630E+02  0.12700000000E+01 0.  1.
         25    2    1    2    0    0  0.00000000000E+00  0.00000000000E+00  0.20926024896E+03  0.24374810700E+03  0.12499315129E+03 0.  0.
    9000005    1    3    3    0    0 -0.33729716447E+02 -0.77640927994E+01  0.31719852206E+01  0.34771200711E+02  0.10000000000E+01 0.  0.
    9000005    1    3    3    0    0  0.33729716447E+02  0.77640927994E+01  0.20608826374E+03  0.20897690629E+03  0.10000000000E+01 0.  0.
<mgrwt>
<rscale>  0 0.12499315E+03</rscale>
<asrwt>0</asrwt>
<pdfrwt beam="1">  1        4 0.34846795E-01 0.12499315E+03</pdfrwt>
<pdfrwt beam="2">  1       -4 0.26529123E-02 0.12499315E+03</pdfrwt>
<totfact> 0.83255009E+03</totfact>
</mgrwt>
</event>
<event>
 5    1  0.3282316E-002  0.1250033E+03  0.7818608E-02  0.1235064E+00
          4   -1    0    0  501    0  0.00000000000E+00  0.00000000000E+00  0.14606922642E+04  0.14606928163E+04  0.12700000000E+01 0.  1.
         -4   -1    0    0    0  501 -0.00000000000E+00 -0.00000000000E+00 -0.25230318278E+01  0.28246397300E+01  0.12700000000E+01 0.  1.
         25    2    1    2    0    0  0.00000000000E+00  0.00000000000E+00  0.14581692323E+04  0.14635174560E+04  0.12500333544E+03 0.  0.
    9000005    1    3    3    0    0  0.33960194428E+02  0.42911313348E+02  0.37575200141E+03  0.37971731878E+03  0.10000000000E+01 0.  0.
    9000005    1    3    3    0    0 -0.33960194428E+02 -0.42911313348E+02  0.10824172309E+04  0.10838001372E+04  0.10000000000E+01 0.  0.
<mgrwt>
<rscale>  0 0.12500334E+03</rscale>
<asrwt>0</asrwt>
<pdfrwt beam="1">  1        4 0.22474569E+00 0.12500334E+03</pdfrwt>
<pdfrwt beam="2">  1       -4 0.41140080E-03 0.12500334E+03</pdfrwt>
<totfact> 0.18656130E+03</totfact>
</mgrwt>
</event>
<event>
 5    1  0.3282316E-002  0.1249924E+03  0.7818608E-02  0.1235081E+00
          4   -1    0    0  501    0  0.00000000000E+00  0.00000000000E+00  0.55330679696E+01  0.56769482256E+01  0.12700000000E+01 0.  1.
         -4   -1    0    0    0  501 -0.00000000000E+00 -0.00000000000E+00 -0.69669192677E+03  0.69669308431E+03  0.12700000000E+01 0.  1.
         25    2    1    2    0    0  0.00000000000E+00  0.00000000000E+00 -0.69115885880E+03  0.70237003253E+03  0.12499237779E+03 0.  0.
    9000005    1    3    3    0    0 -0.53691355244E+02  0.18097172538E+02 -0.19749140915E+03  0.20546076504E+03  0.10000000000E+01 0.  0.
    9000005    1    3    3    0    0  0.53691355244E+02 -0.18097172538E+02 -0.49366744965E+03  0.49690926749E+03  0.10000000000E+01 0.  0.
<mgrwt>
<rscale>  0 0.12499238E+03</rscale>
<asrwt>0</asrwt>
<pdfrwt beam="1">  1        4 0.86239853E-03 0.12499238E+03</pdfrwt>
<pdfrwt beam="2">  1       -4 0.10719446E+00 0.12499238E+03</pdfrwt>
<totfact> 0.42969064E+03</totfact>
</mgrwt>
</event>
<event>
 5    1  0.3282316E-002  0.1249979E+03  0.7818608E-02  0.1235073E+00
         -4   -1    0    0    0  501 -0.00000000000E+00  0.00000000000E+00  0.85941469866E+02  0.85950853066E+02  0.12700000000E+01 0.  1.
          4   -1    0    0  501    0  0.00000000000E+00 -0.00000000000E+00 -0.45430180844E+02  0.45447928792E+02  0.12700000000E+01 0.  1.
         25    2    1    2    0    0  0.00000000000E+00  0.00000000000E+00  0.40511289022E+02  0.13139878186E+03  0.12499790132E+03 0.  0.
    9000005    1    3    3    0    0 -0.52758245213E+02  0.67045055069E+01  0.54749618766E+02  0.76334157407E+02  0.10000000000E+01 0.  0.
    9000005    1    3    3    0    0  0.52758245213E+02 -0.67045055069E+01 -0.14238329744E+02  0.55064624451E+02  0.10000000000E+01 0.  0.
<mgrwt>
<rscale>  0 0.12499790E+03</rscale>
<asrwt>0</asrwt>
<pdfrwt beam="2">  1        4 0.69913457E-02 0.12499790E+03</pdfrwt>
<pdfrwt beam="1">  1       -4 0.13223851E-01 0.12499790E+03</pdfrwt>
<totfact> 0.10315036E+04</totfact>
</mgrwt>
</event>
<event>
 5    1  0.3282316E-002  0.1250373E+03  0.7818608E-02  0.1235011E+00
          4   -1    0    0  501    0  0.00000000000E+00  0.00000000000E+00  0.18604445673E+02  0.18647742459E+02  0.12700000000E+01 0. -1.
         -4   -1    0    0    0  501 -0.00000000000E+00 -0.00000000000E+00 -0.20979918867E+03  0.20980303255E+03  0.12700000000E+01 0. -1.
         25    2    1    2    0    0  0.00000000000E+00  0.00000000000E+00 -0.19119474300E+03  0.22845077501E+03  0.12503730184E+03 0.  0.
    9000005    1    3    3    0    0  0.50645469011E+02  0.31859959267E+02 -0.62530032044E+02  0.86550710241E+02  0.10000000000E+01 0.  0.
    9000005    1    3    3    0    0 -0.50645469011E+02 -0.31859959267E+02 -0.12866471095E+03  0.14190006476E+03  0.10000000000E+01 0.  0.
<mgrwt>
<rscale>  0 0.12503730E+03</rscale>
<asrwt>0</asrwt>
<pdfrwt beam="1">  1        4 0.28658488E-02 0.12503730E+03</pdfrwt>
<pdfrwt beam="2">  1       -4 0.32280423E-01 0.12503730E+03</pdfrwt>
<totfact> 0.85476883E+03</totfact>
</mgrwt>
</event>
<event>
 5    1  0.3282316E-002  0.1249983E+03  0.7818608E-02  0.1235072E+00
         -4   -1    0    0    0  501 -0.00000000000E+00  0.00000000000E+00  0.24284503541E+01  0.27404873877E+01  0.12700000000E+01 0.  1.
          4   -1    0    0  501    0  0.00000000000E+00 -0.00000000000E+00 -0.15110800862E+04  0.15110806199E+04  0.12700000000E+01 0.  1.
         25    2    1    2    0    0  0.00000000000E+00  0.00000000000E+00 -0.15086516358E+04  0.15138211073E+04  0.12499834600E+03 0.  0.
    9000005    1    3    3    0    0 -0.55194423686E+02  0.27690123905E+02 -0.63817688086E+03  0.64115824773E+03  0.10000000000E+01 0.  0.
    9000005    1    3    3    0    0  0.55194423686E+02 -0.27690123905E+02 -0.87047475496E+03  0.87266285953E+03  0.10000000000E+01 0.  0.
<mgrwt>
<rscale>  0 0.12499835E+03</rscale>
<asrwt>0</asrwt>
<pdfrwt beam="2">  1        4 0.23249720E+00 0.12499835E+03</pdfrwt>
<pdfrwt beam="1">  1       -4 0.39765286E-03 0.12499835E+03</pdfrwt>
<totfact> 0.17661038E+03</totfact>
</mgrwt>
</event>
<event>
 5    1  0.3282316E-002  0.1250015E+03  0.7818608E-02  0.1235067E+00
          4   -1    0    0  501    0  0.00000000000E+00  0.00000000000E+00  0.15277707322E+03  0.15278235174E+03  0.12700000000E+01 0. -1.
         -4   -1    0    0    0  501 -0.00000000000E+00 -0.00000000000E+00 -0.25547417041E+02  0.25578964354E+02  0.12700000000E+01 0. -1.
         25    2    1    2    0    0  0.00000000000E+00  0.00000000000E+00  0.12722965618E+03  0.17836131609E+03  0.12500149466E+03 0.  0.
    9000005    1    3    3    0    0 -0.34990608932E+02 -0.51738155098E+02  0.60703163460E+02  0.87103693724E+02  0.10000000000E+01 0.  0.
    9000005    1    3    3    0    0  0.34990608932E+02  0.51738155098E+02  0.66526492725E+02  0.91257622370E+02  0.10000000000E+01 0.  0.
<mgrwt>
<rscale>  0 0.12500149E+03</rscale>
<asrwt>0</asrwt>
<pdfrwt beam="1">  1        4 0.23506998E-01 0.12500149E+03</pdfrwt>
<pdfrwt beam="2">  1       -4 0.39332046E-02 0.12500149E+03</pdfrwt>
<totfact> 0.93909658E+03</totfact>
</mgrwt>
</event>
<event>
 5    1  0.3282316E-002  0.1250001E+03  0.7818608E-02  0.1235069E+00
          4   -1    0    0  501    0  0.00000000000E+00  0.00000000000E+00  0.21033667067E+02  0.21071973099E+02  0.12700000000E+01 0.  1.
         -4   -1    0    0    0  501 -0.00000000000E+00 -0.00000000000E+00 -0.18550511102E+03  0.18550945829E+03  0.12700000000E+01 0.  1.
         25    2    1    2    0    0  0.00000000000E+00  0.00000000000E+00 -0.16447144396E+03  0.20658143139E+03  0.12500012768E+03 0.  0.
    9000005    1    3    3    0    0 -0.62285607861E+02 -0.65794720221E+00 -0.73918420146E+02  0.96668829920E+02  0.10000000000E+01 0.  0.
    9000005    1    3    3    0    0  0.62285607861E+02  0.65794720221E+00 -0.90553023811E+02  0.10991260147E+03  0.10000000000E+01 0.  0.
<mgrwt>
<rscale>  0 0.12500013E+03</rscale>
<asrwt>0</asrwt>
<pdfrwt beam="1">  1        4 0.32392299E-02 0.12500013E+03</pdfrwt>
<pdfrwt beam="2">  1       -4 0.28542528E-01 0.12500013E+03</pdfrwt>
<totfact> 0.89036985E+03</totfact>
</mgrwt>
</event>
<event>
 5    1  0.3282316E-002  0.1249928E+03  0.7818608E-02  0.1235081E+00
         -4   -1    0    0    0  501 -0.00000000000E+00  0.00000000000E+00  0.17671049220E+02  0.17716627233E+02  0.12700000000E+01 0.  1.
          4   -1    0    0  501    0  0.00000000000E+00 -0.00000000000E+00 -0.22069595637E+03  0.22069961046E+03  0.12700000000E+01 0.  1.
         25    2    1    2    0    0  0.00000000000E+00  0.00000000000E+00 -0.20302490715E+03  0.23841623769E+03  0.12499275768E+03 0.  0.
    9000005    1    3    3    0    0 -0.60609508014E+02 -0.12564950431E+02 -0.11785499156E+03  0.13312471400E+03  0.10000000000E+01 0.  0.
    9000005    1    3    3    0    0  0.60609508014E+02  0.12564950431E+02 -0.85169915584E+02  0.10529152369E+03  0.10000000000E+01 0.  0.
<mgrwt>
<rscale>  0 0.12499276E+03</rscale>
<asrwt>0</asrwt>
<pdfrwt beam="2">  1        4 0.33957009E-01 0.12499276E+03</pdfrwt>
<pdfrwt beam="1">  1       -4 0.27224102E-02 0.12499276E+03</pdfrwt>
<totfact> 0.84047379E+03</totfact>
</mgrwt>
</event>
<event>
 5    1  0.3282316E-002  0.1249872E+03  0.7818608E-02  0.1235089E+00
          4   -1    0    0  501    0  0.00000000000E+00  0.00000000000E+00  0.31405974523E+01  0.33876617832E+01  0.12700000000E+01 0.  1.
         -4   -1    0    0    0  501 -0.00000000000E+00 -0.00000000000E+00 -0.11962280340E+04  0.11962287082E+04  0.12700000000E+01 0.  1.
         25    2    1    2    0    0  0.00000000000E+00  0.00000000000E+00 -0.11930874365E+04  0.11996163699E+04  0.12498721450E+03 0.  0.
    9000005    1    3    3    0    0  0.60414567817E+01 -0.59562213620E+02 -0.42477206139E+03  0.42897139838E+03  0.10000000000E+01 0.  0.
    9000005    1    3    3    0    0 -0.60414567817E+01  0.59562213620E+02 -0.76831537515E+03  0.77064497156E+03  0.10000000000E+01 0.  0.
<mgrwt>
<rscale>  0 0.12498721E+03</rscale>
<asrwt>0</asrwt>
<pdfrwt beam="1">  1        4 0.50222660E-03 0.12498721E+03</pdfrwt>
<pdfrwt beam="2">  1       -4 0.18405379E+00 0.12498721E+03</pdfrwt>
<totfact> 0.24729746E+03</totfact>
</mgrwt>
</event>
<event>
 5    1  0.3282316E-002  0.1250015E+03  0.7818608E-02  0.1235067E+00
          4   -1    0    0  501    0  0.00000000000E+00  0.00000000000E+00  0.89937223388E+01  0.90829478424E+01  0.12700000000E+01 0. -1.
         -4   -1    0    0    0  501 -0.00000000000E+00 -0.00000000000E+00 -0.43210701486E+03  0.43210888118E+03  0.12700000000E+01 0. -1.
         25    2    1    2    0    0  0.00000000000E+00  0.00000000000E+00 -0.42311329252E+03  0.44119182902E+03  0.12500148673E+03 0.  0.
    9000005    1    3    3    0    0 -0.12316705432E+02 -0.54962476919E+02 -0.11601439367E+03  0.12896865759E+03  0.10000000000E+01 0.  0.
    9000005    1    3    3    0    0  0.12316705432E+02  0.54962476919E+02 -0.30709889886E+03  0.31222317143E+03  0.10000000000E+01 0.  0.
<mgrwt>
<rscale>  0 0.12500149E+03</rscale>
<asrwt>0</asrwt>
<pdfrwt beam="1">  1        4 0.13906570E-02 0.12500149E+03</pdfrwt>
<pdfrwt beam="2">  1       -4 0.66484993E-01 0.12500149E+03</pdfrwt>
<totfact> 0.60732475E+03</totfact>
</mgrwt>
</event>
<event>
 5    1  0.3282316E-002  0.1250021E+03  0.7818608E-02  0.1235066E+00
         -4   -1    0    0    0  501 -0.00000000000E+00  0.00000000000E+00  0.83863088527E+02  0.83872704244E+02  0.12700000000E+01 0. -1.
          4   -1    0    0  501    0  0.00000000000E+00 -0.00000000000E+00 -0.46559538231E+02  0.46576855843E+02  0.12700000000E+01 0. -1.
         25    2    1    2    0    0  0.00000000000E+00  0.00000000000E+00  0.37303550296E+02  0.13044956009E+03  0.12500213143E+03 0.  0.
    9000005    1    3    3    0    0 -0.47650352100E+02 -0.39781262259E+02  0.26197241170E+02  0.67382492734E+02  0.10000000000E+01 0.  0.
    9000005    1    3    3    0    0  0.47650352100E+02  0.39781262259E+02  0.11106309126E+02  0.63067067354E+02  0.10000000000E+01 0.  0.
<mgrwt>
<rscale>  0 0.12500213E+03</rscale>
<asrwt>0</asrwt>
<pdfrwt beam="2">  1        4 0.71650777E-02 0.12500213E+03</pdfrwt>
<pdfrwt beam="1">  1       -4 0.12904085E-01 0.12500213E+03</pdfrwt>
<totfact> 0.10334403E+04</totfact>
</mgrwt>
</event>
<event>
 5    1  0.3282316E-002  0.1249950E+03  0.7818608E-02  0.1235077E+00
          4   -1    0    0  501    0  0.00000000000E+00  0.00000000000E+00  0.15518532330E+03  0.15519051990E+03  0.12700000000E+01 0. -1.
         -4   -1    0    0    0  501 -0.00000000000E+00 -0.00000000000E+00 -0.25147872194E+02  0.25179920093E+02  0.12700000000E+01 0. -1.
         25    2    1    2    0    0  0.00000000000E+00  0.00000000000E+00  0.13003745111E+03  0.18037044000E+03  0.12499502764E+03 0.  0.
    9000005    1    3    3    0    0  0.29267118171E+02 -0.13308795463E+02 -0.12304187430E+02  0.34439530645E+02  0.10000000000E+01 0.  0.
    9000005    1    3    3    0    0 -0.29267118171E+02  0.13308795463E+02  0.14234163854E+03  0.14593090935E+03  0.10000000000E+01 0.  0.
<mgrwt>
<rscale>  0 0.12499503E+03</rscale>
<asrwt>0</asrwt>
<pdfrwt beam="1">  1        4 0.23877530E-01 0.12499503E+03</pdfrwt>
<pdfrwt beam="2">  1       -4 0.38717684E-02 0.12499503E+03</pdfrwt>
<totfact> 0.93560795E+03</totfact>
</mgrwt>
</event>
<event>
 5    1  0.3282316E-002  0.1250011E+03  0.7818608E-02  0.1235068E+00
         -4   -1    0    0    0  501 -0.00000000000E+00  0.00000000000E+00  0.12156803712E+03  0.12157467067E+03  0.12700000000E+01 0. -1.
          4   -1    0    0  501    0  0.00000000000E+00 -0.00000000000E+00 -0.32112716254E+02  0.32137819546E+02  0.12700000000E+01 0. -1.
         25    2    1    2    0    0  0.00000000000E+00  0.00000000000E+00  0.89455320865E+02  0.15371249022E+03  0.12500110087E+03 0.  0.
    9000005    1    3    3    0    0  0.17182022172E+02  0.49486970675E+02  0.86629876082E+02  0.10124187663E+03  0.10000000000E+01 0.  0.
    9000005    1    3    3    0    0 -0.17182022172E+02 -0.49486970675E+02  0.28254447823E+01  0.52470613592E+02  0.10000000000E+01 0.  0.
<mgrwt>
<rscale>  0 0.12500110E+03</rscale>
<asrwt>0</asrwt>
<pdfrwt beam="2">  1        4 0.49428591E-02 0.12500110E+03</pdfrwt>
<pdfrwt beam="1">  1       -4 0.18705216E-01 0.12500110E+03</pdfrwt>
<totfact> 0.98566308E+03</totfact>
</mgrwt>
</event>
<event>
 5    1  0.3282316E-002  0.1250053E+03  0.7818608E-02  0.1235061E+00
         -4   -1    0    0    0  501 -0.00000000000E+00  0.00000000000E+00  0.37161288570E+01  0.39271508352E+01  0.12700000000E+01 0. -1.
          4   -1    0    0  501    0  0.00000000000E+00 -0.00000000000E+00 -0.10220152366E+04  0.10220160257E+04  0.12700000000E+01 0. -1.
         25    2    1    2    0    0  0.00000000000E+00  0.00000000000E+00 -0.10182991078E+04  0.10259431766E+04  0.12500531430E+03 0.  0.
    9000005    1    3    3    0    0 -0.51827562634E+02 -0.11578204069E+02 -0.23875623278E+03  0.24459290617E+03  0.10000000000E+01 0.  0.
    9000005    1    3    3    0    0  0.51827562634E+02  0.11578204069E+02 -0.77954287500E+03  0.78135027038E+03  0.10000000000E+01 0.  0.
<mgrwt>
<rscale>  0 0.12500531E+03</rscale>
<asrwt>0</asrwt>
<pdfrwt beam="2">  1        4 0.15724919E+00 0.12500531E+03</pdfrwt>
<pdfrwt beam="1">  1       -4 0.58800610E-03 0.12500531E+03</pdfrwt>
<totfact> 0.29754554E+03</totfact>
</mgrwt>
</event>
<event>
 5    1  0.3282316E-002  0.1249982E+03  0.7818608E-02  0.1235072E+00
         -4   -1    0    0    0  501 -0.00000000000E+00  0.00000000000E+00  0.31557037469E+03  0.31557293021E+03  0.12700000000E+01 0. -1.
          4   -1    0    0  501    0  0.00000000000E+00 -0.00000000000E+00 -0.12342836492E+02  0.12408001961E+02  0.12700000000E+01 0. -1.
         25    2    1    2    0    0  0.00000000000E+00  0.00000000000E+00  0.30322753820E+03  0.32798093217E+03  0.12499820778E+03 0.  0.
    9000005    1    3    3    0    0  0.54883571152E+02  0.29676633138E+02  0.16078951061E+03  0.17247369556E+03  0.10000000000E+01 0.  0.
    9000005    1    3    3    0    0 -0.54883571152E+02 -0.29676633138E+02  0.14243802758E+03  0.15550723661E+03  0.10000000000E+01 0.  0.
<mgrwt>
<rscale>  0 0.12499821E+03</rscale>
<asrwt>0</asrwt>
<pdfrwt beam="2">  1        4 0.19041073E-02 0.12499821E+03</pdfrwt>
<pdfrwt beam="1">  1       -4 0.48554495E-01 0.12499821E+03</pdfrwt>
<totfact> 0.72219715E+03</totfact>
</mgrwt>
</event>
<event>
 5    1  0.3282316E-002  0.1249986E+03  0.7818608E-02  0.1235072E+00
          4   -1    0    0  501    0  0.00000000000E+00  0.00000000000E+00  0.16611113325E+02  0.16659591408E+02  0.12700000000E+01 0. -1.
         -4   -1    0    0    0  501 -0.00000000000E+00 -0.00000000000E+00 -0.23476056694E+03  0.23476400212E+03  0.12700000000E+01 0. -1.
         25    2    1    2    0    0  0.00000000000E+00  0.00000000000E+00 -0.21814945362E+03  0.25142359353E+03  0.12499855707E+03 0.  0.
    9000005    1    3    3    0    0 -0.41570760631E+02 -0.40830761297E+01 -0.20256450086E+03  0.20682885838E+03  0.10000000000E+01 0.  0.
    9000005    1    3    3    0    0  0.41570760631E+02  0.40830761297E+01 -0.15584952752E+02  0.44594735142E+02  0.10000000000E+01 0.  0.
<mgrwt>
<rscale>  0 0.12499856E+03</rscale>
<asrwt>0</asrwt>
<pdfrwt beam="1">  1        4 0.25595494E-02 0.12499856E+03</pdfrwt>
<pdfrwt beam="2">  1       -4 0.36121001E-01 0.12499856E+03</pdfrwt>
<totfact> 0.82127549E+03</totfact>
</mgrwt>
</event>
<event>
 5    1  0.3282316E-002  0.1250024E+03  0.7818608E-02  0.1235066E+00
         -4   -1    0    0    0  501 -0.00000000000E+00  0.00000000000E+00  0.95930118484E+02  0.95938524756E+02  0.12700000000E+01 0. -1.
          4   -1    0    0  501    0  0.00000000000E+00 -0.00000000000E+00 -0.40701210222E+02  0.40721019309E+02  0.12700000000E+01 0. -1.
         25    2    1    2    0    0  0.00000000000E+00  0.00000000000E+00  0.55228908262E+02  0.13665954406E+03  0.12500239468E+03 0.  0.
    9000005    1    3    3    0    0  0.25627308584E+02 -0.52355540418E+02  0.52243975045E+02  0.78283424083E+02  0.10000000000E+01 0.  0.
    9000005    1    3    3    0    0 -0.25627308584E+02  0.52355540418E+02  0.29849332174E+01  0.58376119981E+02  0.10000000000E+01 0.  0.
<mgrwt>
<rscale>  0 0.12500239E+03</rscale>
<asrwt>0</asrwt>
<pdfrwt beam="2">  1        4 0.62638950E-02 0.12500239E+03</pdfrwt>
<pdfrwt beam="1">  1       -4 0.14760650E-01 0.12500239E+03</pdfrwt>
<totfact> 0.10202658E+04</totfact>
</mgrwt>
</event>
<event>
 5    1  0.3282316E-002  0.1250030E+03  0.7818608E-02  0.1235065E+00
         -4   -1    0    0    0  501 -0.00000000000E+00  0.00000000000E+00  0.28357973302E+01  0.31071927037E+01  0.12700000000E+01 0.  1.
          4   -1    0    0  501    0  0.00000000000E+00 -0.00000000000E+00 -0.13143648308E+04  0.13143654444E+04  0.12700000000E+01 0.  1.
         25    2    1    2    0    0  0.00000000000E+00  0.00000000000E+00 -0.13115290335E+04  0.13174726371E+04  0.12500297514E+03 0.  0.
    9000005    1    3    3    0    0 -0.50696940715E+01 -0.32335857075E+02 -0.12168523735E+04  0.12172929017E+04  0.10000000000E+01 0.  0.
    9000005    1    3    3    0    0  0.50696940715E+01  0.32335857075E+02 -0.94676659945E+02  0.10017973542E+03  0.10000000000E+01 0.  0.
<mgrwt>
<rscale>  0 0.12500298E+03</rscale>
<asrwt>0</asrwt>
<pdfrwt beam="2">  1        4 0.20223043E+00 0.12500298E+03</pdfrwt>
<pdfrwt beam="1">  1       -4 0.45720133E-03 0.12500298E+03</pdfrwt>
<totfact> 0.21818507E+03</totfact>
</mgrwt>
</event>
<event>
 5    1  0.3282316E-002  0.1250006E+03  0.7818608E-02  0.1235068E+00
         -4   -1    0    0    0  501 -0.00000000000E+00  0.00000000000E+00  0.11898758850E+02  0.11966342891E+02  0.12700000000E+01 0.  1.
          4   -1    0    0  501    0  0.00000000000E+00 -0.00000000000E+00 -0.32729543281E+03  0.32729789678E+03  0.12700000000E+01 0.  1.
         25    2    1    2    0    0  0.00000000000E+00  0.00000000000E+00 -0.31539667396E+03  0.33926423967E+03  0.12500064950E+03 0.  0.
    9000005    1    3    3    0    0  0.25813778313E+02 -0.56744469383E+02 -0.16953026755E+03  0.18063166270E+03  0.10000000000E+01 0.  0.
    9000005    1    3    3    0    0 -0.25813778313E+02  0.56744469383E+02 -0.14586640641E+03  0.15863257697E+03  0.10000000000E+01 0.  0.
<mgrwt>
<rscale>  0 0.12500065E+03</rscale>
<asrwt>0</asrwt>
<pdfrwt beam="2">  1        4 0.50358525E-01 0.12500065E+03</pdfrwt>
<pdfrwt beam="1">  1       -4 0.18359668E-02 0.12500065E+03</pdfrwt>
<totfact> 0.70920979E+03</totfact>
</mgrwt>
</event>
<event>
 5    1  0.3282316E-002  0.1249942E+03  0.7818608E-02  0.1235078E+00
         -4   -1    0    0    0  501 -0.00000000000E+00  0.00000000000E+00  0.61780101925E+02  0.61793154102E+02  0.12700000000E+01 0. -1.
          4   -1    0    0  501    0  0.00000000000E+00 -0.00000000000E+00 -0.63196336050E+02  0.63209095786E+02  0.12700000000E+01 0. -1.
         25    2    1    2    0    0  0.00000000000E+00  0.00000000000E+00 -0.14162341247E+01  0.12500224989E+03  0.12499422690E+03 0.  0.
    9000005    1    3    3    0    0 -0.48621296275E+02  0.38594187373E+02  0.64580556227E+01  0.62419934579E+02  0.10000000000E+01 0.  0.
    9000005    1    3    3    0    0  0.48621296275E+02 -0.38594187373E+02 -0.78742897473E+01  0.62582315309E+02  0.10000000000E+01 0.  0.
<mgrwt>
<rscale>  0 0.12499423E+03</rscale>
<asrwt>0</asrwt>
<pdfrwt beam="2">  1        4 0.97244988E-02 0.12499423E+03</pdfrwt>
<pdfrwt beam="1">  1       -4 0.95066165E-02 0.12499423E+03</pdfrwt>
<totfact> 0.10454178E+04</totfact>
</mgrwt>
</event>
<event>
 5    1  0.3282316E-002  0.1249992E+03  0.7818608E-02  0.1235070E+00
          4   -1    0    0  501    0  0.00000000000E+00  0.00000000000E+00  0.14989256599E+04  0.14989261979E+04  0.12700000000E+01 0. -1.
         -4   -1    0    0    0  501 -0.00000000000E+00 -0.00000000000E+00 -0.24507018696E+01  0.27602245658E+01  0.12700000000E+01 0. -1.
         25    2    1    2    0    0  0.00000000000E+00  0.00000000000E+00  0.14964749580E+04  0.15016864225E+04  0.12499924585E+03 0.  0.
    9000005    1    3    3    0    0  0.50466807780E+02  0.25037340612E+02  0.10731451416E+04  0.10746233117E+04  0.10000000000E+01 0.  0.
    9000005    1    3    3    0    0 -0.50466807780E+02 -0.25037340612E+02  0.42332981640E+03  0.42706311075E+03  0.10000000000E+01 0.  0.
<mgrwt>
<rscale>  0 0.12499925E+03</rscale>
<asrwt>0</asrwt>
<pdfrwt beam="1">  1        4 0.23062892E+00 0.12499925E+03</pdfrwt>
<pdfrwt beam="2">  1       -4 0.40087993E-03 0.12499925E+03</pdfrwt>
<totfact> 0.17897460E+03</totfact>
</mgrwt>
</event>
<event>
 5    1  0.3282316E-002  0.1249993E+03  0.7818608E-02  0.1235070E+00
         -4   -1    0    0    0  501 -0.00000000000E+00  0.00000000000E+00  0.11486320981E+02  0.11556317306E+02  0.12700000000E+01 0.  1.
          4   -1    0    0  501    0  0.00000000000E+00 -0.00000000000E+00 -0.33897032863E+03  0.33897270774E+03  0.12700000000E+01 0.  1.
         25    2    1    2    0    0  0.00000000000E+00  0.00000000000E+00 -0.32748400765E+03  0.35052902505E+03  0.12499928853E+03 0.  0.
    9000005    1    3    3    0    0 -0.42108958750E+02 -0.33410761815E+01 -0.34597977638E+02  0.54610871204E+02  0.10000000000E+01 0.  0.
    9000005    1    3    3    0    0  0.42108958750E+02  0.33410761815E+01 -0.29288603001E+03  0.29591815384E+03  0.10000000000E+01 0.  0.
<mgrwt>
<rscale>  0 0.12499929E+03</rscale>
<asrwt>0</asrwt>
<pdfrwt beam="2">  1        4 0.52154841E-01 0.12499929E+03</pdfrwt>
<pdfrwt beam="1">  1       -4 0.17726939E-02 0.12499929E+03</pdfrwt>
<totfact> 0.69667496E+03</totfact>
</mgrwt>
</event>
<event>
 5    1  0.3282316E-002  0.1249993E+03  0.7818608E-02  0.1235070E+00
          4   -1    0    0  501    0  0.00000000000E+00  0.00000000000E+00  0.98732380412E+03  0.98732462093E+03  0.12700000000E+01 0.  1.
         -4   -1    0    0    0  501 -0.00000000000E+00 -0.00000000000E+00 -0.38536026846E+01  0.40574811953E+01  0.12700000000E+01 0.  1.
         25    2    1    2    0    0  0.00000000000E+00  0.00000000000E+00  0.98347020144E+03  0.99138210212E+03  0.12499934116E+03 0.  0.
    9000005    1    3    3    0    0  0.50701956470E+02  0.27666061613E+01  0.78063469764E+03  0.78228503351E+03  0.10000000000E+01 0.  0.
    9000005    1    3    3    0    0 -0.50701956470E+02 -0.27666061613E+01  0.20283550380E+03  0.20909706861E+03  0.10000000000E+01 0.  0.
<mgrwt>
<rscale>  0 0.12499934E+03</rscale>
<asrwt>0</asrwt>
<pdfrwt beam="1">  1        4 0.15191196E+00 0.12499934E+03</pdfrwt>
<pdfrwt beam="2">  1       -4 0.60860678E-03 0.12499934E+03</pdfrwt>
<totfact> 0.30891137E+03</totfact>
</mgrwt>
</event>
<event>
 5    1  0.3282316E-002  0.1250139E+03  0.7818608E-02  0.1235048E+00
          4   -1    0    0  501    0  0.00000000000E+00  0.00000000000E+00  0.29244105593E+02  0.29271669101E+02  0.12700000000E+01 0.  1.
         -4   -1    0    0    0  501 -0.00000000000E+00 -0.00000000000E+00 -0.13351010007E+03  0.13351614030E+03  0.12700000000E+01 0.  1.
         25    2    1    2    0    0  0.00000000000E+00  0.00000000000E+00 -0.10426599448E+03  0.16278780941E+03  0.12501389237E+03 0.  0.
    9000005    1    3    3    0    0 -0.35648937990E+01  0.61983150640E+02 -0.61477636438E+02  0.87379169217E+02  0.10000000000E+01 0.  0.
    9000005    1    3    3    0    0  0.35648937990E+01 -0.61983150640E+02 -0.42788358043E+02  0.75408640188E+02  0.10000000000E+01 0.  0.
<mgrwt>
<rscale>  0 0.12501389E+03</rscale>
<asrwt>0</asrwt>
<pdfrwt beam="1">  1        4 0.45016781E-02 0.12501389E+03</pdfrwt>
<pdfrwt beam="2">  1       -4 0.20542600E-01 0.12501389E+03</pdfrwt>
<totfact> 0.96777780E+03</totfact>
</mgrwt>
</event>
<event>
 5    1  0.3282316E-002  0.1249967E+03  0.7818608E-02  0.1235074E+00
          4   -1    0    0  501    0  0.00000000000E+00  0.00000000000E+00  0.72346848997E+01  0.73453090879E+01  0.12700000000E+01 0. -1.
         -4   -1    0    0    0  501 -0.00000000000E+00 -0.00000000000E+00 -0.53569727976E+03  0.53569878517E+03  0.12700000000E+01 0. -1.
         25    2    1    2    0    0  0.00000000000E+00  0.00000000000E+00 -0.52846259486E+03  0.54304409426E+03  0.12499669656E+03 0.  0.
    9000005    1    3    3    0    0  0.31783620878E+02  0.50540189008E+02 -0.18406035740E+03  0.19350380986E+03  0.10000000000E+01 0.  0.
    9000005    1    3    3    0    0 -0.31783620878E+02 -0.50540189008E+02 -0.34440223745E+03  0.34954028441E+03  0.10000000000E+01 0.  0.
<mgrwt>
<rscale>  0 0.12499670E+03</rscale>
<asrwt>0</asrwt>
<pdfrwt beam="1">  1        4 0.11216542E-02 0.12499670E+03</pdfrwt>
<pdfrwt beam="2">  1       -4 0.82423560E-01 0.12499670E+03</pdfrwt>
<totfact> 0.52676625E+03</totfact>
</mgrwt>
</event>
<event>
 5    1  0.3282316E-002  0.1249964E+03  0.7818608E-02  0.1235075E+00
         -4   -1    0    0    0  501 -0.00000000000E+00  0.00000000000E+00  0.35419145239E+02  0.35441906685E+02  0.12700000000E+01 0.  1.
          4   -1    0    0  501    0  0.00000000000E+00 -0.00000000000E+00 -0.11021820137E+03  0.11022551798E+03  0.12700000000E+01 0.  1.
         25    2    1    2    0    0  0.00000000000E+00  0.00000000000E+00 -0.74799056130E+02  0.14566742466E+03  0.12499639919E+03 0.  0.
    9000005    1    3    3    0    0  0.26219773293E+02  0.93081445373E+01 -0.10260739828E+03  0.10631743153E+03  0.10000000000E+01 0.  0.
    9000005    1    3    3    0    0 -0.26219773293E+02 -0.93081445373E+01  0.27808342147E+02  0.39349993129E+02  0.10000000000E+01 0.  0.
<mgrwt>
<rscale>  0 0.12499640E+03</rscale>
<asrwt>0</asrwt>
<pdfrwt beam="2">  1        4 0.16958960E-01 0.12499640E+03</pdfrwt>
<pdfrwt beam="1">  1       -4 0.54514130E-02 0.12499640E+03</pdfrwt>
<totfact> 0.10018258E+04</totfact>
</mgrwt>
</event>
<event>
 5    1  0.3282316E-002  0.1249920E+03  0.7818608E-02  0.1235082E+00
         -4   -1    0    0    0  501 -0.00000000000E+00  0.00000000000E+00  0.19736501523E+03  0.19736910127E+03  0.12700000000E+01 0. -1.
          4   -1    0    0  501    0  0.00000000000E+00 -0.00000000000E+00 -0.19764799692E+02  0.19805559999E+02  0.12700000000E+01 0. -1.
         25    2    1    2    0    0  0.00000000000E+00  0.00000000000E+00  0.17760021553E+03  0.21717466127E+03  0.12499198750E+03 0.  0.
    9000005    1    3    3    0    0  0.10496769733E+01  0.17126514983E+02 -0.15599874014E+02  0.23211536064E+02  0.10000000000E+01 0.  0.
    9000005    1    3    3    0    0 -0.10496769733E+01 -0.17126514983E+02  0.19320008955E+03  0.19396312520E+03  0.10000000000E+01 0.  0.
<mgrwt>
<rscale>  0 0.12499199E+03</rscale>
<asrwt>0</asrwt>
<pdfrwt beam="2">  1        4 0.30441881E-02 0.12499199E+03</pdfrwt>
<pdfrwt beam="1">  1       -4 0.30367299E-01 0.12499199E+03</pdfrwt>
<totfact> 0.87333038E+03</totfact>
</mgrwt>
</event>
<event>
 4    1  0.3282316E-002  0.1254467E+03  0.7818608E-02  0.1234373E+00
          4   -1    0    0  501    0  0.00000000000E+00  0.00000000000E+00  0.47470297534E+02  0.47487283013E+02  0.12700000000E+01 0.  1.
         -4   -1    0    0    0  501 -0.00000000000E+00 -0.00000000000E+00 -0.82840764272E+02  0.82850498642E+02  0.12700000000E+01 0.  1.
    9000005    1    1    2    0    0  0.53229742007E+02  0.12063787145E+02  0.14410572693E+02  0.56458878839E+02  0.10000000000E+01 0.  0.
    9000005    1    1    2    0    0 -0.53229742007E+02 -0.12063787145E+02 -0.49781039431E+02  0.73878902816E+02  0.10000000000E+01 0.  0.
<mgrwt>
<rscale>  0 0.12544667E+03</rscale>
<asrwt>0</asrwt>
<pdfrwt beam="1">  1        4 0.73051781E-02 0.12544667E+03</pdfrwt>
<pdfrwt beam="2">  1       -4 0.12746788E-01 0.12544667E+03</pdfrwt>
<totfact> 0.10233751E+04</totfact>
</mgrwt>
</event>
<event>
 5    1  0.3282316E-002  0.1250060E+03  0.7818608E-02  0.1235060E+00
         -4   -1    0    0    0  501 -0.00000000000E+00  0.00000000000E+00  0.22830714381E+03  0.22831067608E+03  0.12700000000E+01 0.  1.
          4   -1    0    0  501    0  0.00000000000E+00 -0.00000000000E+00 -0.17084038996E+02  0.17131178839E+02  0.12700000000E+01 0.  1.
         25    2    1    2    0    0  0.00000000000E+00  0.00000000000E+00  0.21122310481E+03  0.24544185492E+03  0.12500601642E+03 0.  0.
    9000005    1    3    3    0    0 -0.88310305715E+01 -0.60985724202E+02  0.85170980670E+02  0.10513011750E+03  0.10000000000E+01 0.  0.
    9000005    1    3    3    0    0  0.88310305715E+01  0.60985724202E+02  0.12605212414E+03  0.14031173742E+03  0.10000000000E+01 0.  0.
<mgrwt>
<rscale>  0 0.12500602E+03</rscale>
<asrwt>0</asrwt>
<pdfrwt beam="2">  1        4 0.26322118E-02 0.12500602E+03</pdfrwt>
<pdfrwt beam="1">  1       -4 0.35128070E-01 0.12500602E+03</pdfrwt>
<totfact> 0.82982393E+03</totfact>
</mgrwt>
</event>
<event>
 5    1  0.3282316E-002  0.1250006E+03  0.7818608E-02  0.1235068E+00
          4   -1    0    0  501    0  0.00000000000E+00  0.00000000000E+00  0.25095461845E+02  0.25127576589E+02  0.12700000000E+01 0. -1.
         -4   -1    0    0    0  501 -0.00000000000E+00 -0.00000000000E+00 -0.15552280053E+03  0.15552798586E+03  0.12700000000E+01 0. -1.
         25    2    1    2    0    0  0.00000000000E+00  0.00000000000E+00 -0.13042733869E+03  0.18065556245E+03  0.12500056626E+03 0.  0.
    9000005    1    3    3    0    0 -0.57564882008E+01  0.50697974317E+02 -0.13067536602E+02  0.52679998758E+02  0.10000000000E+01 0.  0.
    9000005    1    3    3    0    0  0.57564882008E+01 -0.50697974317E+02 -0.11735980208E+03  0.12797556369E+03  0.10000000000E+01 0.  0.
<mgrwt>
<rscale>  0 0.12500057E+03</rscale>
<asrwt>0</asrwt>
<pdfrwt beam="1">  1        4 0.38637096E-02 0.12500057E+03</pdfrwt>
<pdfrwt beam="2">  1       -4 0.23929453E-01 0.12500057E+03</pdfrwt>
<totfact> 0.93497946E+03</totfact>
</mgrwt>
</event>
<event>
 5    1  0.3282316E-002  0.1250012E+03  0.7818608E-02  0.1235067E+00
         -4   -1    0    0    0  501 -0.00000000000E+00  0.00000000000E+00  0.54621028446E+02  0.54635790911E+02  0.12700000000E+01 0. -1.
          4   -1    0    0  501    0  0.00000000000E+00 -0.00000000000E+00 -0.71486852017E+02  0.71498132223E+02  0.12700000000E+01 0. -1.
         25    2    1    2    0    0  0.00000000000E+00  0.00000000000E+00 -0.16865823571E+02  0.12613392313E+03  0.12500124224E+03 0.  0.
    9000005    1    3    3    0    0  0.28315212751E+01  0.50010436924E+02 -0.46138151563E+02  0.68108665702E+02  0.10000000000E+01 0.  0.
    9000005    1    3    3    0    0 -0.28315212751E+01 -0.50010436924E+02  0.29272327991E+02  0.58025257432E+02  0.10000000000E+01 0.  0.
<mgrwt>
<rscale>  0 0.12500124E+03</rscale>
<asrwt>0</asrwt>
<pdfrwt beam="2">  1        4 0.10999981E-01 0.12500124E+03</pdfrwt>
<pdfrwt beam="1">  1       -4 0.84052384E-02 0.12500124E+03</pdfrwt>
<totfact> 0.10427732E+04</totfact>
</mgrwt>
</event>
<event>
 5    1  0.3282316E-002  0.1249952E+03  0.7818608E-02  0.1235077E+00
         -4   -1    0    0    0  501 -0.00000000000E+00  0.00000000000E+00  0.45055895903E+01  0.46811577153E+01  0.12700000000E+01 0.  1.
          4   -1    0    0  501    0  0.00000000000E+00 -0.00000000000E+00 -0.85016859392E+03  0.85016954250E+03  0.12700000000E+01 0.  1.
         25    2    1    2    0    0  0.00000000000E+00  0.00000000000E+00 -0.84566300433E+03  0.85485070021E+03  0.12499521095E+03 0.  0.
    9000005    1    3    3    0    0 -0.15627666236E+02  0.31564538153E+02 -0.69813255205E+02  0.78201244384E+02  0.10000000000E+01 0.  0.
    9000005    1    3    3    0    0  0.15627666236E+02 -0.31564538153E+02 -0.77584974913E+03  0.77664945583E+03  0.10000000000E+01 0.  0.
<mgrwt>
<rscale>  0 0.12499521E+03</rscale>
<asrwt>0</asrwt>
<pdfrwt beam="2">  1        4 0.13080862E+00 0.12499521E+03</pdfrwt>
<pdfrwt beam="1">  1       -4 0.70674651E-03 0.12499521E+03</pdfrwt>
<totfact> 0.35933435E+03</totfact>
</mgrwt>
</event>
<event>
 5    1  0.3282316E-002  0.1250008E+03  0.7818608E-02  0.1235068E+00
          4   -1    0    0  501    0  0.00000000000E+00  0.00000000000E+00  0.15588455734E+02  0.15640103970E+02  0.12700000000E+01 0.  1.
         -4   -1    0    0    0  501 -0.00000000000E+00 -0.00000000000E+00 -0.25012138481E+03  0.25012460902E+03  0.12700000000E+01 0.  1.
         25    2    1    2    0    0  0.00000000000E+00  0.00000000000E+00 -0.23453292907E+03  0.26576471299E+03  0.12500075140E+03 0.  0.
    9000005    1    3    3    0    0  0.58599043170E+02  0.13807129134E+02 -0.15289457144E+03  0.16432356694E+03  0.10000000000E+01 0.  0.
    9000005    1    3    3    0    0 -0.58599043170E+02 -0.13807129134E+02 -0.81638357630E+02  0.10144114605E+03  0.10000000000E+01 0.  0.
<mgrwt>
<rscale>  0 0.12500075E+03</rscale>
<asrwt>0</asrwt>
<pdfrwt beam="1">  1        4 0.24024451E-02 0.12500075E+03</pdfrwt>
<pdfrwt beam="2">  1       -4 0.38484431E-01 0.12500075E+03</pdfrwt>
<totfact> 0.80102473E+03</totfact>
</mgrwt>
</event>
<event>
 5    1  0.3282316E-002  0.1250006E+03  0.7818608E-02  0.1235068E+00
          4   -1    0    0  501    0  0.00000000000E+00  0.00000000000E+00  0.75803134894E+02  0.75813772890E+02  0.12700000000E+01 0.  1.
         -4   -1    0    0    0  501 -0.00000000000E+00 -0.00000000000E+00 -0.51509919559E+02  0.51525573388E+02  0.12700000000E+01 0.  1.
         25    2    1    2    0    0  0.00000000000E+00  0.00000000000E+00  0.24293215335E+02  0.12733934628E+03  0.12500059520E+03 0.  0.
    9000005    1    3    3    0    0  0.42823251283E+02 -0.41400341915E+02  0.31407178034E+02  0.67344116248E+02  0.10000000000E+01 0.  0.
    9000005    1    3    3    0    0 -0.42823251283E+02  0.41400341915E+02 -0.71139626992E+01  0.59995230030E+02  0.10000000000E+01 0.  0.
<mgrwt>
<rscale>  0 0.12500060E+03</rscale>
<asrwt>0</asrwt>
<pdfrwt beam="1">  1        4 0.11664043E-01 0.12500060E+03</pdfrwt>
<pdfrwt beam="2">  1       -4 0.79266255E-02 0.12500060E+03</pdfrwt>
<totfact> 0.10401642E+04</totfact>
</mgrwt>
</event>
<event>
 5    1  0.3282316E-002  0.1250016E+03  0.7818608E-02  0.1235067E+00
          4   -1    0    0  501    0  0.00000000000E+00  0.00000000000E+00  0.61029243835E+02  0.61042456562E+02  0.12700000000E+01 0.  1.
         -4   -1    0    0    0  501 -0.00000000000E+00 -0.00000000000E+00 -0.63981436997E+02  0.63994040193E+02  0.12700000000E+01 0.  1.
         25    2    1    2    0    0  0.00000000000E+00  0.00000000000E+00 -0.29521931621E+01  0.12503649675E+03  0.12500164029E+03 0.  0.
    9000005    1    3    3    0    0 -0.11880873193E+02 -0.39051113197E+02 -0.48809561496E+02  0.63635822326E+02  0.10000000000E+01 0.  0.
    9000005    1    3    3    0    0  0.11880873193E+02  0.39051113197E+02  0.45857368334E+02  0.61400674428E+02  0.10000000000E+01 0.  0.
<mgrwt>
<rscale>  0 0.12500164E+03</rscale>
<asrwt>0</asrwt>
<pdfrwt beam="1">  1        4 0.93911002E-02 0.12500164E+03</pdfrwt>
<pdfrwt beam="2">  1       -4 0.98452839E-02 0.12500164E+03</pdfrwt>
<totfact> 0.10451682E+04</totfact>
</mgrwt>
</event>
<event>
 5    1  0.3282316E-002  0.1249988E+03  0.7818608E-02  0.1235071E+00
         -4   -1    0    0    0  501 -0.00000000000E+00  0.00000000000E+00  0.43917478372E+02  0.43935837383E+02  0.12700000000E+01 0.  1.
          4   -1    0    0  501    0  0.00000000000E+00 -0.00000000000E+00 -0.88902059132E+02  0.88911129887E+02  0.12700000000E+01 0.  1.
         25    2    1    2    0    0  0.00000000000E+00  0.00000000000E+00 -0.44984580760E+02  0.13284696727E+03  0.12499881682E+03 0.  0.
    9000005    1    3    3    0    0  0.42032829229E+02 -0.45919713314E+02 -0.16690876901E+02  0.64459011593E+02  0.10000000000E+01 0.  0.
    9000005    1    3    3    0    0 -0.42032829229E+02  0.45919713314E+02 -0.28293703858E+02  0.68387955678E+02  0.10000000000E+01 0.  0.
<mgrwt>
<rscale>  0 0.12499882E+03</rscale>
<asrwt>0</asrwt>
<pdfrwt beam="2">  1        4 0.13679350E-01 0.12499882E+03</pdfrwt>
<pdfrwt beam="1">  1       -4 0.67586452E-02 0.12499882E+03</pdfrwt>
<totfact> 0.10283928E+04</totfact>
</mgrwt>
</event>
<event>
 5    1  0.3282316E-002  0.1250163E+03  0.7818608E-02  0.1235044E+00
         -4   -1    0    0    0  501 -0.00000000000E+00  0.00000000000E+00  0.90275908853E+02  0.90284841580E+02  0.12700000000E+01 0. -1.
          4   -1    0    0  501    0  0.00000000000E+00 -0.00000000000E+00 -0.43261029069E+02  0.43279666544E+02  0.12700000000E+01 0. -1.
         25    2    1    2    0    0  0.00000000000E+00  0.00000000000E+00  0.47014879783E+02  0.13356450812E+03  0.12501631457E+03 0.  0.
    9000005    1    3    3    0    0 -0.20707348035E+02 -0.57008353210E+02  0.39622693819E+02  0.72454844309E+02  0.10000000000E+01 0.  0.
    9000005    1    3    3    0    0  0.20707348035E+02  0.57008353210E+02  0.73921859642E+01  0.61109663816E+02  0.10000000000E+01 0.  0.
<mgrwt>
<rscale>  0 0.12501631E+03</rscale>
<asrwt>0</asrwt>
<pdfrwt beam="2">  1        4 0.66576638E-02 0.12501631E+03</pdfrwt>
<pdfrwt beam="1">  1       -4 0.13890722E-01 0.12501631E+03</pdfrwt>
<totfact> 0.10264639E+04</totfact>
</mgrwt>
</event>
<event>
 5    1  0.3282316E-002  0.1250022E+03  0.7818608E-02  0.1235066E+00
         -4   -1    0    0    0  501 -0.00000000000E+00  0.00000000000E+00  0.49243423037E+01  0.50854741297E+01  0.12700000000E+01 0. -1.
          4   -1    0    0  501    0  0.00000000000E+00 -0.00000000000E+00 -0.78034969049E+03  0.78035072393E+03  0.12700000000E+01 0. -1.
         25    2    1    2    0    0  0.00000000000E+00  0.00000000000E+00 -0.77542534818E+03  0.78543619806E+03  0.12500220247E+03 0.  0.
    9000005    1    3    3    0    0  0.36047664978E+02 -0.50261075320E+02 -0.33159052276E+03  0.33731125778E+03  0.10000000000E+01 0.  0.
    9000005    1    3    3    0    0 -0.36047664978E+02  0.50261075320E+02 -0.44383482543E+03  0.44812494029E+03  0.10000000000E+01 0.  0.
<mgrwt>
<rscale>  0 0.12500220E+03</rscale>
<asrwt>0</asrwt>
<pdfrwt beam="2">  1        4 0.12006618E+00 0.12500220E+03</pdfrwt>
<pdfrwt beam="1">  1       -4 0.77006599E-03 0.12500220E+03</pdfrwt>
<totfact> 0.38921376E+03</totfact>
</mgrwt>
</event>
<event>
 5    1  0.3282316E-002  0.1250084E+03  0.7818608E-02  0.1235056E+00
          4   -1    0    0  501    0  0.00000000000E+00  0.00000000000E+00  0.24815849578E+02  0.24848325704E+02  0.12700000000E+01 0.  1.
         -4   -1    0    0    0  501 -0.00000000000E+00 -0.00000000000E+00 -0.15729271797E+03  0.15729784495E+03  0.12700000000E+01 0.  1.
         25    2    1    2    0    0  0.00000000000E+00  0.00000000000E+00 -0.13247686839E+03  0.18214617066E+03  0.12500842702E+03 0.  0.
    9000005    1    3    3    0    0  0.60743622751E+02 -0.41094317414E-01 -0.87652290076E+02  0.10664761296E+03  0.10000000000E+01 0.  0.
    9000005    1    3    3    0    0 -0.60743622751E+02  0.41094317414E-01 -0.44824578317E+02  0.75498557701E+02  0.10000000000E+01 0.  0.
<mgrwt>
<rscale>  0 0.12500843E+03</rscale>
<asrwt>0</asrwt>
<pdfrwt beam="1">  1        4 0.38207157E-02 0.12500843E+03</pdfrwt>
<pdfrwt beam="2">  1       -4 0.24201772E-01 0.12500843E+03</pdfrwt>
<totfact> 0.93214496E+03</totfact>
</mgrwt>
</event>
<event>
 5    1  0.3282316E-002  0.1250012E+03  0.7818608E-02  0.1235067E+00
         -4   -1    0    0    0  501 -0.00000000000E+00  0.00000000000E+00  0.29416641188E+02  0.29444043180E+02  0.12700000000E+01 0.  1.
          4   -1    0    0  501    0  0.00000000000E+00 -0.00000000000E+00 -0.13270076917E+03  0.13270684624E+03  0.12700000000E+01 0.  1.
         25    2    1    2    0    0  0.00000000000E+00  0.00000000000E+00 -0.10328412798E+03  0.16215088942E+03  0.12500119938E+03 0.  0.
    9000005    1    3    3    0    0 -0.10185277677E+01  0.46733202407E+02 -0.10544508522E+03  0.11534598217E+03  0.10000000000E+01 0.  0.
    9000005    1    3    3    0    0  0.10185277677E+01 -0.46733202407E+02  0.21609572380E+01  0.46804907245E+02  0.10000000000E+01 0.  0.
<mgrwt>
<rscale>  0 0.12500120E+03</rscale>
<asrwt>0</asrwt>
<pdfrwt beam="2">  1        4 0.20418078E-01 0.12500120E+03</pdfrwt>
<pdfrwt beam="1">  1       -4 0.45282125E-02 0.12500120E+03</pdfrwt>
<totfact> 0.96927094E+03</totfact>
</mgrwt>
</event>
<event>
 5    1  0.3282316E-002  0.1250014E+03  0.7818608E-02  0.1235067E+00
         -4   -1    0    0    0  501 -0.00000000000E+00  0.00000000000E+00  0.19176320725E+03  0.19176741265E+03  0.12700000000E+01 0. -1.
          4   -1    0    0  501    0  0.00000000000E+00 -0.00000000000E+00 -0.20346410170E+02  0.20386007623E+02  0.12700000000E+01 0. -1.
         25    2    1    2    0    0  0.00000000000E+00  0.00000000000E+00  0.17141679708E+03  0.21215342028E+03  0.12500142165E+03 0.  0.
    9000005    1    3    3    0    0  0.50496713595E+02  0.31943701291E+02  0.11677336703E+03  0.13117674102E+03  0.10000000000E+01 0.  0.
    9000005    1    3    3    0    0 -0.50496713595E+02 -0.31943701291E+02  0.54643430049E+02  0.80976679258E+02  0.10000000000E+01 0.  0.
<mgrwt>
<rscale>  0 0.12500142E+03</rscale>
<asrwt>0</asrwt>
<pdfrwt beam="2">  1        4 0.31335863E-02 0.12500142E+03</pdfrwt>
<pdfrwt beam="1">  1       -4 0.29505402E-01 0.12500142E+03</pdfrwt>
<totfact> 0.88122601E+03</totfact>
</mgrwt>
</event>
<event>
 5    1  0.3282316E-002  0.1249999E+03  0.7818608E-02  0.1235069E+00
         -4   -1    0    0    0  501 -0.00000000000E+00  0.00000000000E+00  0.40620311602E+02  0.40640160121E+02  0.12700000000E+01 0.  1.
          4   -1    0    0  501    0  0.00000000000E+00 -0.00000000000E+00 -0.96117331497E+02  0.96125721397E+02  0.12700000000E+01 0.  1.
         25    2    1    2    0    0  0.00000000000E+00  0.00000000000E+00 -0.55497019894E+02  0.13676588152E+03  0.12499994852E+03 0.  0.
    9000005    1    3    3    0    0  0.19335464446E+02  0.55435998652E+02 -0.43271102360E+01  0.58878977699E+02  0.10000000000E+01 0.  0.
    9000005    1    3    3    0    0 -0.19335464446E+02 -0.55435998652E+02 -0.51169909658E+02  0.77886903818E+02  0.10000000000E+01 0.  0.
<mgrwt>
<rscale>  0 0.12499995E+03</rscale>
<asrwt>0</asrwt>
<pdfrwt beam="2">  1        4 0.14789454E-01 0.12499995E+03</pdfrwt>
<pdfrwt beam="1">  1       -4 0.62514509E-02 0.12499995E+03</pdfrwt>
<totfact> 0.10200995E+04</totfact>
</mgrwt>
</event>
<event>
 5    1  0.3282316E-002  0.1250000E+03  0.7818608E-02  0.1235069E+00
         -4   -1    0    0    0  501 -0.00000000000E+00  0.00000000000E+00  0.33251191792E+01  0.35593984823E+01  0.12700000000E+01 0. -1.
          4   -1    0    0  501    0  0.00000000000E+00 -0.00000000000E+00 -0.11345575791E+04  0.11345582899E+04  0.12700000000E+01 0. -1.
         25    2    1    2    0    0  0.00000000000E+00  0.00000000000E+00 -0.11312324599E+04  0.11381176884E+04  0.12499997697E+03 0.  0.
    9000005    1    3    3    0    0 -0.30686902463E+02 -0.48437426653E+02 -0.79184764517E+03  0.79392163558E+03  0.10000000000E+01 0.  0.
    9000005    1    3    3    0    0  0.30686902463E+02  0.48437426653E+02 -0.33938481471E+03  0.34419605277E+03  0.10000000000E+01 0.  0.
<mgrwt>
<rscale>  0 0.12499998E+03</rscale>
<asrwt>0</asrwt>
<pdfrwt beam="2">  1        4 0.17456510E+00 0.12499998E+03</pdfrwt>
<pdfrwt beam="1">  1       -4 0.52963386E-03 0.12499998E+03</pdfrwt>
<totfact> 0.26392303E+03</totfact>
</mgrwt>
</event>
<event>
 5    1  0.3282316E-002  0.1250014E+03  0.7818608E-02  0.1235067E+00
         -4   -1    0    0    0  501 -0.00000000000E+00  0.00000000000E+00  0.30375484885E+03  0.30375750378E+03  0.12700000000E+01 0. -1.
          4   -1    0    0  501    0  0.00000000000E+00 -0.00000000000E+00 -0.12826090575E+02  0.12888812957E+02  0.12700000000E+01 0. -1.
         25    2    1    2    0    0  0.00000000000E+00  0.00000000000E+00  0.29092875828E+03  0.31664631674E+03  0.12500139003E+03 0.  0.
    9000005    1    3    3    0    0 -0.46877010035E+02 -0.17143545495E+02  0.50210759970E+02  0.70805901158E+02  0.10000000000E+01 0.  0.
    9000005    1    3    3    0    0  0.46877010035E+02  0.17143545495E+02  0.24071799831E+03  0.24584041558E+03  0.10000000000E+01 0.  0.
<mgrwt>
<rscale>  0 0.12500139E+03</rscale>
<asrwt>0</asrwt>
<pdfrwt beam="2">  1        4 0.19782739E-02 0.12500139E+03</pdfrwt>
<pdfrwt beam="1">  1       -4 0.46736540E-01 0.12500139E+03</pdfrwt>
<totfact> 0.73554519E+03</totfact>
</mgrwt>
</event>
