<event>
 5    1  0.3327068E-002  0.1250083E+03  0.7818608E-02  0.1235056E+00
         -4   -1    0    0    0  501 -0.00000000000E+00  0.00000000000E+00  0.77148028742E+01  0.78186369265E+01  0.12700000000E+01 0.  1.
          4   -1    0    0  501    0  0.00000000000E+00 -0.00000000000E+00 -0.50290955494E+03  0.50291115850E+03  0.12700000000E+01 0.  1.
         25    2    1    2    0    0  0.00000000000E+00  0.00000000000E+00 -0.49519475206E+03  0.51072979543E+03  0.12500832560E+03 0.  0.
    9000005    1    3    3    0    0  0.61797501431E+02 -0.60817416169E+01 -0.27644378929E+03  0.28333387973E+03  0.10000000000E+01 0.  0.
    9000005    1    3    3    0    0 -0.61797501431E+02  0.60817416169E+01 -0.21875096277E+03  0.22739591570E+03  0.10000000000E+01 0.  0.
<mgrwt>
<rscale>  0 0.12500833E+03</rscale>
<asrwt>0</asrwt>
<pdfrwt beam="2">  1        4 0.77378786E-01 0.12500833E+03</pdfrwt>
<pdfrwt beam="1">  1       -4 0.11950037E-02 0.12500833E+03</pdfrwt>
<totfact> 0.55031312E+03</totfact>
</mgrwt>
</event>
<event>
 5    1  0.3327068E-002  0.1249955E+03  0.7818608E-02  0.1235076E+00
          4   -1    0    0  501    0  0.00000000000E+00  0.00000000000E+00  0.25849984777E+02  0.25881163285E+02  0.12700000000E+01 0.  1.
         -4   -1    0    0    0  501 -0.00000000000E+00 -0.00000000000E+00 -0.15097640724E+03  0.15098174871E+03  0.12700000000E+01 0.  1.
         25    2    1    2    0    0  0.00000000000E+00  0.00000000000E+00 -0.12512642247E+03  0.17686291200E+03  0.12499547208E+03 0.  0.
    9000005    1    3    3    0    0  0.39614343446E+02 -0.21355532739E+02 -0.12390784776E+03  0.13183136850E+03  0.10000000000E+01 0.  0.
    9000005    1    3    3    0    0 -0.39614343446E+02  0.21355532739E+02 -0.12185747093E+01  0.45031543495E+02  0.10000000000E+01 0.  0.
<mgrwt>
<rscale>  0 0.12499547E+03</rscale>
<asrwt>0</asrwt>
<pdfrwt beam="1">  1        4 0.39797300E-02 0.12499547E+03</pdfrwt>
<pdfrwt beam="2">  1       -4 0.23229948E-01 0.12499547E+03</pdfrwt>
<totfact> 0.94194322E+03</totfact>
</mgrwt>
</event>
<event>
 5    1  0.3327068E-002  0.1250039E+03  0.7818608E-02  0.1235063E+00
          4   -1    0    0  501    0  0.00000000000E+00  0.00000000000E+00  0.19472203264E+02  0.19513574761E+02  0.12700000000E+01 0. -1.
         -4   -1    0    0    0  501 -0.00000000000E+00 -0.00000000000E+00 -0.20036263715E+03  0.20036666206E+03  0.12700000000E+01 0. -1.
         25    2    1    2    0    0  0.00000000000E+00  0.00000000000E+00 -0.18089043388E+03  0.21988023682E+03  0.12500387783E+03 0.  0.
    9000005    1    3    3    0    0 -0.24964311531E+02  0.11225141924E+02  0.83759325735E+01  0.28642222468E+02  0.10000000000E+01 0.  0.
    9000005    1    3    3    0    0  0.24964311531E+02 -0.11225141924E+02 -0.18926636646E+03  0.19123801435E+03  0.10000000000E+01 0.  0.
<mgrwt>
<rscale>  0 0.12500388E+03</rscale>
<asrwt>0</asrwt>
<pdfrwt beam="1">  1        4 0.29992157E-02 0.12500388E+03</pdfrwt>
<pdfrwt beam="2">  1       -4 0.30828512E-01 0.12500388E+03</pdfrwt>
<totfact> 0.86879779E+03</totfact>
</mgrwt>
</event>
<event>
 5    1  0.3327068E-002  0.1249995E+03  0.7818608E-02  0.1235070E+00
         -4   -1    0    0    0  501 -0.00000000000E+00  0.00000000000E+00  0.14649017961E+02  0.14703966377E+02  0.12700000000E+01 0.  1.
          4   -1    0    0  501    0  0.00000000000E+00 -0.00000000000E+00 -0.26609825857E+03  0.26610128920E+03  0.12700000000E+01 0.  1.
         25    2    1    2    0    0  0.00000000000E+00  0.00000000000E+00 -0.25144924061E+03  0.28080525558E+03  0.12499948383E+03 0.  0.
    9000005    1    3    3    0    0  0.22946076705E+02  0.46244585263E+02 -0.20483459687E+03  0.21124226892E+03  0.10000000000E+01 0.  0.
    9000005    1    3    3    0    0 -0.22946076705E+02 -0.46244585263E+02 -0.46614643739E+02  0.69562986661E+02  0.10000000000E+01 0.  0.
<mgrwt>
<rscale>  0 0.12499948E+03</rscale>
<asrwt>0</asrwt>
<pdfrwt beam="2">  1        4 0.40942650E-01 0.12499948E+03</pdfrwt>
<pdfrwt beam="1">  1       -4 0.22581552E-02 0.12499948E+03</pdfrwt>
<totfact> 0.78072353E+03</totfact>
</mgrwt>
</event>
<event>
 5    1  0.3327068E-002  0.1249962E+03  0.7818608E-02  0.1235075E+00
          4   -1    0    0  501    0  0.00000000000E+00  0.00000000000E+00  0.69381541379E+01  0.70534305725E+01  0.12700000000E+01 0. -1.
         -4   -1    0    0    0  501 -0.00000000000E+00 -0.00000000000E+00 -0.55822125203E+03  0.55822269671E+03  0.12700000000E+01 0. -1.
         25    2    1    2    0    0  0.00000000000E+00  0.00000000000E+00 -0.55128309789E+03  0.56527612728E+03  0.12499618414E+03 0.  0.
    9000005    1    3    3    0    0 -0.16202803971E+02  0.10642422113E+02 -0.54430168177E+03  0.54464769603E+03  0.10000000000E+01 0.  0.
    9000005    1    3    3    0    0  0.16202803971E+02 -0.10642422113E+02 -0.69814161192E+01  0.20628431253E+02  0.10000000000E+01 0.  0.
<mgrwt>
<rscale>  0 0.12499618E+03</rscale>
<asrwt>0</asrwt>
<pdfrwt beam="1">  1        4 0.10763873E-02 0.12499618E+03</pdfrwt>
<pdfrwt beam="2">  1       -4 0.85889136E-01 0.12499618E+03</pdfrwt>
<totfact> 0.51139796E+03</totfact>
</mgrwt>
</event>
<event>
 5    1  0.3327068E-002  0.1250054E+03  0.7818608E-02  0.1235061E+00
          4   -1    0    0  501    0  0.00000000000E+00  0.00000000000E+00  0.12781782986E+03  0.12782413907E+03  0.12700000000E+01 0. -1.
         -4   -1    0    0    0  501 -0.00000000000E+00 -0.00000000000E+00 -0.30543468458E+02  0.30569860410E+02  0.12700000000E+01 0. -1.
         25    2    1    2    0    0  0.00000000000E+00  0.00000000000E+00  0.97274361401E+02  0.15839399948E+03  0.12500543063E+03 0.  0.
    9000005    1    3    3    0    0 -0.37034374811E+02 -0.39728156338E+02  0.87809090834E+02  0.10325360893E+03  0.10000000000E+01 0.  0.
    9000005    1    3    3    0    0  0.37034374811E+02  0.39728156338E+02  0.94652705672E+01  0.55140390555E+02  0.10000000000E+01 0.  0.
<mgrwt>
<rscale>  0 0.12500543E+03</rscale>
<asrwt>0</asrwt>
<pdfrwt beam="1">  1        4 0.19666797E-01 0.12500543E+03</pdfrwt>
<pdfrwt beam="2">  1       -4 0.47015106E-02 0.12500543E+03</pdfrwt>
<totfact> 0.97641384E+03</totfact>
</mgrwt>
</event>
<event>
 5    1  0.3327068E-002  0.1249960E+03  0.7818608E-02  0.1235076E+00
          4   -1    0    0  501    0  0.00000000000E+00  0.00000000000E+00  0.26637278048E+02  0.26667536103E+02  0.12700000000E+01 0. -1.
         -4   -1    0    0    0  501 -0.00000000000E+00 -0.00000000000E+00 -0.14652038225E+03  0.14652588616E+03  0.12700000000E+01 0. -1.
         25    2    1    2    0    0  0.00000000000E+00  0.00000000000E+00 -0.11988310421E+03  0.17319342227E+03  0.12499601130E+03 0.  0.
    9000005    1    3    3    0    0 -0.19473052879E+02  0.10284878427E+02  0.21089168608E+02  0.30507893164E+02  0.10000000000E+01 0.  0.
    9000005    1    3    3    0    0  0.19473052879E+02 -0.10284878427E+02 -0.14097227281E+03  0.14268552910E+03  0.10000000000E+01 0.  0.
<mgrwt>
<rscale>  0 0.12499601E+03</rscale>
<asrwt>0</asrwt>
<pdfrwt beam="1">  1        4 0.41007938E-02 0.12499601E+03</pdfrwt>
<pdfrwt beam="2">  1       -4 0.22544348E-01 0.12499601E+03</pdfrwt>
<totfact> 0.94865246E+03</totfact>
</mgrwt>
</event>
<event>
 5    1  0.3327068E-002  0.1249976E+03  0.7818608E-02  0.1235073E+00
          4   -1    0    0  501    0  0.00000000000E+00  0.00000000000E+00  0.97194773619E+02  0.97203070522E+02  0.12700000000E+01 0. -1.
         -4   -1    0    0    0  501 -0.00000000000E+00 -0.00000000000E+00 -0.40168317060E+02  0.40188388814E+02  0.12700000000E+01 0. -1.
         25    2    1    2    0    0  0.00000000000E+00  0.00000000000E+00  0.57026456559E+02  0.13739145934E+03  0.12499758538E+03 0.  0.
    9000005    1    3    3    0    0 -0.59373878717E+02 -0.16565712111E+02  0.17227823553E+02  0.64011547365E+02  0.10000000000E+01 0.  0.
    9000005    1    3    3    0    0  0.59373878717E+02  0.16565712111E+02  0.39798633006E+02  0.73379911971E+02  0.10000000000E+01 0.  0.
<mgrwt>
<rscale>  0 0.12499759E+03</rscale>
<asrwt>0</asrwt>
<pdfrwt beam="1">  1        4 0.14955224E-01 0.12499759E+03</pdfrwt>
<pdfrwt beam="2">  1       -4 0.61819233E-02 0.12499759E+03</pdfrwt>
<totfact> 0.10188462E+04</totfact>
</mgrwt>
</event>
<event>
 5    1  0.3327068E-002  0.1249971E+03  0.7818608E-02  0.1235074E+00
         -4   -1    0    0    0  501 -0.00000000000E+00  0.00000000000E+00  0.30968548492E+03  0.30968808900E+03  0.12700000000E+01 0. -1.
          4   -1    0    0  501    0  0.00000000000E+00 -0.00000000000E+00 -0.12578379639E+02  0.12642331049E+02  0.12700000000E+01 0. -1.
         25    2    1    2    0    0  0.00000000000E+00  0.00000000000E+00  0.29710710528E+03  0.32233042005E+03  0.12499707069E+03 0.  0.
    9000005    1    3    3    0    0 -0.44601236764E+02 -0.98723777709E+01  0.38592689557E+02  0.59809111772E+02  0.10000000000E+01 0.  0.
    9000005    1    3    3    0    0  0.44601236764E+02  0.98723777709E+01  0.25851441572E+03  0.26252130828E+03  0.10000000000E+01 0.  0.
<mgrwt>
<rscale>  0 0.12499707E+03</rscale>
<asrwt>0</asrwt>
<pdfrwt beam="2">  1        4 0.19402548E-02 0.12499707E+03</pdfrwt>
<pdfrwt beam="1">  1       -4 0.47649044E-01 0.12499707E+03</pdfrwt>
<totfact> 0.72884535E+03</totfact>
</mgrwt>
</event>
<event>
 5    1  0.3327068E-002  0.1249997E+03  0.7818608E-02  0.1235070E+00
          4   -1    0    0  501    0  0.00000000000E+00  0.00000000000E+00  0.29420242527E+03  0.29420516640E+03  0.12700000000E+01 0.  1.
         -4   -1    0    0    0  501 -0.00000000000E+00 -0.00000000000E+00 -0.13244182108E+02  0.13304933661E+02  0.12700000000E+01 0.  1.
         25    2    1    2    0    0  0.00000000000E+00  0.00000000000E+00  0.28095824316E+03  0.30751010006E+03  0.12499970895E+03 0.  0.
    9000005    1    3    3    0    0 -0.15315875688E+02  0.23147853566E+01 -0.84587008555E+01  0.17677214133E+02  0.10000000000E+01 0.  0.
    9000005    1    3    3    0    0  0.15315875688E+02 -0.23147853566E+01  0.28941694402E+03  0.28983288593E+03  0.10000000000E+01 0.  0.
<mgrwt>
<rscale>  0 0.12499971E+03</rscale>
<asrwt>0</asrwt>
<pdfrwt beam="1">  1        4 0.45266792E-01 0.12499971E+03</pdfrwt>
<pdfrwt beam="2">  1       -4 0.20424507E-02 0.12499971E+03</pdfrwt>
<totfact> 0.74666823E+03</totfact>
</mgrwt>
</event>
<event>
 5    1  0.3327068E-002  0.1249902E+03  0.7818608E-02  0.1235085E+00
          4   -1    0    0  501    0  0.00000000000E+00  0.00000000000E+00  0.54882219113E+01  0.56332477087E+01  0.12700000000E+01 0.  1.
         -4   -1    0    0    0  501 -0.00000000000E+00 -0.00000000000E+00 -0.70221460174E+03  0.70221575018E+03  0.12700000000E+01 0.  1.
         25    2    1    2    0    0  0.00000000000E+00  0.00000000000E+00 -0.69672637983E+03  0.70784899789E+03  0.12499022145E+03 0.  0.
    9000005    1    3    3    0    0 -0.34414238203E+02 -0.36634668236E+02 -0.13812058369E+03  0.14698549026E+03  0.10000000000E+01 0.  0.
    9000005    1    3    3    0    0  0.34414238203E+02  0.36634668236E+02 -0.55860579614E+03  0.56086350763E+03  0.10000000000E+01 0.  0.
<mgrwt>
<rscale>  0 0.12499022E+03</rscale>
<asrwt>0</asrwt>
<pdfrwt beam="1">  1        4 0.85558656E-03 0.12499022E+03</pdfrwt>
<pdfrwt beam="2">  1       -4 0.10804419E+00 0.12499022E+03</pdfrwt>
<totfact> 0.42684738E+03</totfact>
</mgrwt>
</event>
<event>
 5    1  0.3327068E-002  0.1250011E+03  0.7818608E-02  0.1235068E+00
         -4   -1    0    0    0  501 -0.00000000000E+00  0.00000000000E+00  0.27621294510E+02  0.27650475772E+02  0.12700000000E+01 0.  1.
          4   -1    0    0  501    0  0.00000000000E+00 -0.00000000000E+00 -0.14131744896E+03  0.14132315551E+03  0.12700000000E+01 0.  1.
         25    2    1    2    0    0  0.00000000000E+00  0.00000000000E+00 -0.11369615445E+03  0.16897363128E+03  0.12500109011E+03 0.  0.
    9000005    1    3    3    0    0  0.21710478807E+02  0.57777722357E+02 -0.43623574468E+02  0.75588533126E+02  0.10000000000E+01 0.  0.
    9000005    1    3    3    0    0 -0.21710478807E+02 -0.57777722357E+02 -0.70072579987E+02  0.93385098151E+02  0.10000000000E+01 0.  0.
<mgrwt>
<rscale>  0 0.12500109E+03</rscale>
<asrwt>0</asrwt>
<pdfrwt beam="2">  1        4 0.21743829E-01 0.12500109E+03</pdfrwt>
<pdfrwt beam="1">  1       -4 0.42521137E-02 0.12500109E+03</pdfrwt>
<totfact> 0.95637756E+03</totfact>
</mgrwt>
</event>
<event>
 5    1  0.3327068E-002  0.1249996E+03  0.7818608E-02  0.1235070E+00
         -4   -1    0    0    0  501 -0.00000000000E+00  0.00000000000E+00  0.24645335320E+02  0.24678035842E+02  0.12700000000E+01 0.  1.
          4   -1    0    0  501    0  0.00000000000E+00 -0.00000000000E+00 -0.15835732242E+03  0.15836241494E+03  0.12700000000E+01 0.  1.
         25    2    1    2    0    0  0.00000000000E+00  0.00000000000E+00 -0.13371198710E+03  0.18304045078E+03  0.12499964450E+03 0.  0.
    9000005    1    3    3    0    0 -0.20013275303E+02 -0.44474507987E+02 -0.12407196117E+03  0.13331678288E+03  0.10000000000E+01 0.  0.
    9000005    1    3    3    0    0  0.20013275303E+02  0.44474507987E+02 -0.96400259292E+01  0.49723667895E+02  0.10000000000E+01 0.  0.
<mgrwt>
<rscale>  0 0.12499964E+03</rscale>
<asrwt>0</asrwt>
<pdfrwt beam="2">  1        4 0.24365572E-01 0.12499964E+03</pdfrwt>
<pdfrwt beam="1">  1       -4 0.37944973E-02 0.12499964E+03</pdfrwt>
<totfact> 0.93073299E+03</totfact>
</mgrwt>
</event>
<event>
 5    1  0.3327068E-002  0.1249969E+03  0.7818608E-02  0.1235074E+00
          4   -1    0    0  501    0  0.00000000000E+00  0.00000000000E+00  0.32522315815E+03  0.32522563782E+03  0.12700000000E+01 0. -1.
         -4   -1    0    0    0  501 -0.00000000000E+00 -0.00000000000E+00 -0.11974282614E+02  0.12041442775E+02  0.12700000000E+01 0. -1.
         25    2    1    2    0    0  0.00000000000E+00  0.00000000000E+00  0.31324887554E+03  0.33726708060E+03  0.12499690248E+03 0.  0.
    9000005    1    3    3    0    0  0.96615091936E+01  0.48683111374E+02  0.25907328544E+03  0.26378657533E+03  0.10000000000E+01 0.  0.
    9000005    1    3    3    0    0 -0.96615091936E+01 -0.48683111374E+02  0.54175590098E+02  0.73480505274E+02  0.10000000000E+01 0.  0.
<mgrwt>
<rscale>  0 0.12499690E+03</rscale>
<asrwt>0</asrwt>
<pdfrwt beam="1">  1        4 0.50039697E-01 0.12499690E+03</pdfrwt>
<pdfrwt beam="2">  1       -4 0.18475539E-02 0.12499690E+03</pdfrwt>
<totfact> 0.71153301E+03</totfact>
</mgrwt>
</event>
<event>
 4    1  0.3327068E-002  0.1250880E+03  0.7818608E-02  0.1234932E+00
          4   -1    0    0  501    0  0.00000000000E+00  0.00000000000E+00  0.78342415637E+02  0.78352708874E+02  0.12700000000E+01 0. -1.
         -4   -1    0    0    0  501 -0.00000000000E+00 -0.00000000000E+00 -0.49909839956E+02  0.49925995478E+02  0.12700000000E+01 0. -1.
    9000005    1    1    2    0    0 -0.11273423655E+01 -0.59271821998E+02 -0.61996538432E+01  0.59614222225E+02  0.10000000000E+01 0.  0.
    9000005    1    1    2    0    0  0.11273423655E+01  0.59271821998E+02  0.34632229524E+02  0.68664482126E+02  0.10000000000E+01 0.  0.
<mgrwt>
<rscale>  0 0.12508803E+03</rscale>
<asrwt>0</asrwt>
<pdfrwt beam="1">  1        4 0.12054714E-01 0.12508803E+03</pdfrwt>
<pdfrwt beam="2">  1       -4 0.76804714E-02 0.12508803E+03</pdfrwt>
<totfact> 0.10360870E+04</totfact>
</mgrwt>
</event>
<event>
 5    1  0.3327068E-002  0.1249870E+03  0.7818608E-02  0.1235090E+00
          4   -1    0    0  501    0  0.00000000000E+00  0.00000000000E+00  0.15325201566E+03  0.15325727782E+03  0.12700000000E+01 0. -1.
         -4   -1    0    0    0  501 -0.00000000000E+00 -0.00000000000E+00 -0.25462216276E+02  0.25493869022E+02  0.12700000000E+01 0. -1.
         25    2    1    2    0    0  0.00000000000E+00  0.00000000000E+00  0.12778979939E+03  0.17875114684E+03  0.12498695800E+03 0.  0.
    9000005    1    3    3    0    0 -0.43032181721E+02 -0.59220275162E+01 -0.34446334450E+00  0.43450635537E+02  0.10000000000E+01 0.  0.
    9000005    1    3    3    0    0  0.43032181721E+02  0.59220275162E+01  0.12813426273E+03  0.13530051130E+03  0.10000000000E+01 0.  0.
<mgrwt>
<rscale>  0 0.12498696E+03</rscale>
<asrwt>0</asrwt>
<pdfrwt beam="1">  1        4 0.23580072E-01 0.12498696E+03</pdfrwt>
<pdfrwt beam="2">  1       -4 0.39201037E-02 0.12498696E+03</pdfrwt>
<totfact> 0.93869736E+03</totfact>
</mgrwt>
</event>
<event>
 5    1  0.3327068E-002  0.1250001E+03  0.7818608E-02  0.1235069E+00
         -4   -1    0    0    0  501 -0.00000000000E+00  0.00000000000E+00  0.42489467343E+02  0.42508443103E+02  0.12700000000E+01 0.  1.
          4   -1    0    0  501    0  0.00000000000E+00 -0.00000000000E+00 -0.91890783743E+02  0.91899559503E+02  0.12700000000E+01 0.  1.
         25    2    1    2    0    0  0.00000000000E+00  0.00000000000E+00 -0.49401316400E+02  0.13440800261E+03  0.12500008441E+03 0.  0.
    9000005    1    3    3    0    0 -0.85891285720E+01  0.61853768410E+02 -0.22157602667E+02  0.66269307769E+02  0.10000000000E+01 0.  0.
    9000005    1    3    3    0    0  0.85891285720E+01 -0.61853768410E+02 -0.27243713733E+02  0.68138694837E+02  0.10000000000E+01 0.  0.
<mgrwt>
<rscale>  0 0.12500008E+03</rscale>
<asrwt>0</asrwt>
<pdfrwt beam="2">  1        4 0.14139178E-01 0.12500008E+03</pdfrwt>
<pdfrwt beam="1">  1       -4 0.65389759E-02 0.12500008E+03</pdfrwt>
<totfact> 0.10250544E+04</totfact>
</mgrwt>
</event>
<event>
 5    1  0.3327068E-002  0.1249997E+03  0.7818608E-02  0.1235070E+00
         -4   -1    0    0    0  501 -0.00000000000E+00  0.00000000000E+00  0.33671927444E+02  0.33695869150E+02  0.12700000000E+01 0.  1.
          4   -1    0    0  501    0  0.00000000000E+00 -0.00000000000E+00 -0.11593992138E+03  0.11594687693E+03  0.12700000000E+01 0.  1.
         25    2    1    2    0    0  0.00000000000E+00  0.00000000000E+00 -0.82267993937E+02  0.14964274608E+03  0.12499971451E+03 0.  0.
    9000005    1    3    3    0    0  0.14281291558E+02  0.36868678387E+02 -0.99068595284E+02  0.10667165184E+03  0.10000000000E+01 0.  0.
    9000005    1    3    3    0    0 -0.14281291558E+02 -0.36868678387E+02  0.16800601347E+02  0.42971094240E+02  0.10000000000E+01 0.  0.
<mgrwt>
<rscale>  0 0.12499971E+03</rscale>
<asrwt>0</asrwt>
<pdfrwt beam="2">  1        4 0.17839287E-01 0.12499971E+03</pdfrwt>
<pdfrwt beam="1">  1       -4 0.51826733E-02 0.12499971E+03</pdfrwt>
<totfact> 0.99375597E+03</totfact>
</mgrwt>
</event>
<event>
 5    1  0.3327068E-002  0.1250004E+03  0.7818608E-02  0.1235069E+00
          4   -1    0    0  501    0  0.00000000000E+00  0.00000000000E+00  0.79933525047E+03  0.79933625937E+03  0.12700000000E+01 0. -1.
         -4   -1    0    0    0  501 -0.00000000000E+00 -0.00000000000E+00 -0.48033667896E+01  0.49684235443E+01  0.12700000000E+01 0. -1.
         25    2    1    2    0    0  0.00000000000E+00  0.00000000000E+00  0.79453188368E+03  0.80430468292E+03  0.12500043509E+03 0.  0.
    9000005    1    3    3    0    0  0.85908021152E+01 -0.53215131481E+02  0.60070186664E+03  0.60311639398E+03  0.10000000000E+01 0.  0.
    9000005    1    3    3    0    0 -0.85908021152E+01  0.53215131481E+02  0.19383001704E+03  0.20118828894E+03  0.10000000000E+01 0.  0.
<mgrwt>
<rscale>  0 0.12500044E+03</rscale>
<asrwt>0</asrwt>
<pdfrwt beam="1">  1        4 0.12298739E+00 0.12500044E+03</pdfrwt>
<pdfrwt beam="2">  1       -4 0.75175401E-03 0.12500044E+03</pdfrwt>
<totfact> 0.38072921E+03</totfact>
</mgrwt>
</event>
<event>
 5    1  0.3327068E-002  0.1249919E+03  0.7818608E-02  0.1235082E+00
          4   -1    0    0  501    0  0.00000000000E+00  0.00000000000E+00  0.15825453907E+03  0.15825963489E+03  0.12700000000E+01 0.  1.
         -4   -1    0    0    0  501 -0.00000000000E+00 -0.00000000000E+00 -0.24658318319E+02  0.24691001647E+02  0.12700000000E+01 0.  1.
         25    2    1    2    0    0  0.00000000000E+00  0.00000000000E+00  0.13359622075E+03  0.18295063654E+03  0.12499194058E+03 0.  0.
    9000005    1    3    3    0    0  0.38374460636E+02 -0.45177393756E+02  0.95746450994E+02  0.11261429311E+03  0.10000000000E+01 0.  0.
    9000005    1    3    3    0    0 -0.38374460636E+02  0.45177393756E+02  0.37849769753E+02  0.70336343422E+02  0.10000000000E+01 0.  0.
<mgrwt>
<rscale>  0 0.12499194E+03</rscale>
<asrwt>0</asrwt>
<pdfrwt beam="1">  1        4 0.24349759E-01 0.12499194E+03</pdfrwt>
<pdfrwt beam="2">  1       -4 0.37964934E-02 0.12499194E+03</pdfrwt>
<totfact> 0.93105377E+03</totfact>
</mgrwt>
</event>
<event>
 5    1  0.3327068E-002  0.1250028E+03  0.7818608E-02  0.1235065E+00
         -4   -1    0    0    0  501 -0.00000000000E+00  0.00000000000E+00  0.12686790216E+02  0.12750197881E+02  0.12700000000E+01 0.  1.
          4   -1    0    0  501    0  0.00000000000E+00 -0.00000000000E+00 -0.30708032972E+03  0.30708295590E+03  0.12700000000E+01 0.  1.
         25    2    1    2    0    0  0.00000000000E+00  0.00000000000E+00 -0.29439353951E+03  0.31983315378E+03  0.12500276058E+03 0.  0.
    9000005    1    3    3    0    0  0.32342108607E+02  0.51573899317E+02 -0.11105390075E+03  0.12664852131E+03  0.10000000000E+01 0.  0.
    9000005    1    3    3    0    0 -0.32342108607E+02 -0.51573899317E+02 -0.18333963876E+03  0.19318463247E+03  0.10000000000E+01 0.  0.
<mgrwt>
<rscale>  0 0.12500276E+03</rscale>
<asrwt>0</asrwt>
<pdfrwt beam="2">  1        4 0.47248201E-01 0.12500276E+03</pdfrwt>
<pdfrwt beam="1">  1       -4 0.19568936E-02 0.12500276E+03</pdfrwt>
<totfact> 0.73171498E+03</totfact>
</mgrwt>
</event>
<event>
 5    1  0.3327068E-002  0.1249991E+03  0.7818608E-02  0.1235071E+00
         -4   -1    0    0    0  501 -0.00000000000E+00  0.00000000000E+00  0.11011804636E+02  0.11084797758E+02  0.12700000000E+01 0. -1.
          4   -1    0    0  501    0  0.00000000000E+00 -0.00000000000E+00 -0.35348216080E+03  0.35348444223E+03  0.12700000000E+01 0. -1.
         25    2    1    2    0    0  0.00000000000E+00  0.00000000000E+00 -0.34247035616E+03  0.36456923999E+03  0.12499914360E+03 0.  0.
    9000005    1    3    3    0    0  0.11108175750E+01  0.43297993892E+02 -0.39851817865E+02  0.58865249323E+02  0.10000000000E+01 0.  0.
    9000005    1    3    3    0    0 -0.11108175750E+01 -0.43297993892E+02 -0.30261853830E+03  0.30570399067E+03  0.10000000000E+01 0.  0.
<mgrwt>
<rscale>  0 0.12499914E+03</rscale>
<asrwt>0</asrwt>
<pdfrwt beam="2">  1        4 0.54387653E-01 0.12499914E+03</pdfrwt>
<pdfrwt beam="1">  1       -4 0.16999144E-02 0.12499914E+03</pdfrwt>
<totfact> 0.68152244E+03</totfact>
</mgrwt>
</event>
<event>
 5    1  0.3327068E-002  0.1249976E+03  0.7818608E-02  0.1235073E+00
         -4   -1    0    0    0  501 -0.00000000000E+00  0.00000000000E+00  0.24130233725E+03  0.24130567930E+03  0.12700000000E+01 0. -1.
          4   -1    0    0  501    0  0.00000000000E+00 -0.00000000000E+00 -0.16159217224E+02  0.16209046896E+02  0.12700000000E+01 0. -1.
         25    2    1    2    0    0  0.00000000000E+00  0.00000000000E+00  0.22514312002E+03  0.25751472619E+03  0.12499763883E+03 0.  0.
    9000005    1    3    3    0    0  0.11883189901E+02 -0.31405538954E+02  0.39955474087E+01  0.33830200684E+02  0.10000000000E+01 0.  0.
    9000005    1    3    3    0    0 -0.11883189901E+02  0.31405538954E+02  0.22114757262E+03  0.22368452551E+03  0.10000000000E+01 0.  0.
<mgrwt>
<rscale>  0 0.12499764E+03</rscale>
<asrwt>0</asrwt>
<pdfrwt beam="2">  1        4 0.24901233E-02 0.12499764E+03</pdfrwt>
<pdfrwt beam="1">  1       -4 0.37127530E-01 0.12499764E+03</pdfrwt>
<totfact> 0.81260371E+03</totfact>
</mgrwt>
</event>
<event>
 5    1  0.3327068E-002  0.1249990E+03  0.7818608E-02  0.1235071E+00
          4   -1    0    0  501    0  0.00000000000E+00  0.00000000000E+00  0.89143732493E+01  0.90043850666E+01  0.12700000000E+01 0. -1.
         -4   -1    0    0    0  501 -0.00000000000E+00 -0.00000000000E+00 -0.43589793926E+03  0.43589978934E+03  0.12700000000E+01 0. -1.
         25    2    1    2    0    0  0.00000000000E+00  0.00000000000E+00 -0.42698356601E+03  0.44490417441E+03  0.12499903506E+03 0.  0.
    9000005    1    3    3    0    0 -0.37195886800E+02  0.39243069828E+02 -0.10197626222E+03  0.11542837858E+03  0.10000000000E+01 0.  0.
    9000005    1    3    3    0    0  0.37195886800E+02 -0.39243069828E+02 -0.32500730379E+03  0.32947579583E+03  0.10000000000E+01 0.  0.
<mgrwt>
<rscale>  0 0.12499904E+03</rscale>
<asrwt>0</asrwt>
<pdfrwt beam="1">  1        4 0.13785087E-02 0.12499904E+03</pdfrwt>
<pdfrwt beam="2">  1       -4 0.67068271E-01 0.12499904E+03</pdfrwt>
<totfact> 0.60409094E+03</totfact>
</mgrwt>
</event>
<event>
 5    1  0.3327068E-002  0.1250009E+03  0.7818608E-02  0.1235068E+00
         -4   -1    0    0    0  501 -0.00000000000E+00  0.00000000000E+00  0.37728655967E+03  0.37728869717E+03  0.12700000000E+01 0.  1.
          4   -1    0    0  501    0  0.00000000000E+00 -0.00000000000E+00 -0.10312558107E+02  0.10390464605E+02  0.12700000000E+01 0.  1.
         25    2    1    2    0    0  0.00000000000E+00  0.00000000000E+00  0.36697400157E+03  0.38767916177E+03  0.12500085858E+03 0.  0.
    9000005    1    3    3    0    0  0.32878507914E+02  0.17018509844E+02  0.33962939483E+03  0.34164272536E+03  0.10000000000E+01 0.  0.
    9000005    1    3    3    0    0 -0.32878507914E+02 -0.17018509844E+02  0.27344606739E+02  0.46036436414E+02  0.10000000000E+01 0.  0.
<mgrwt>
<rscale>  0 0.12500086E+03</rscale>
<asrwt>0</asrwt>
<pdfrwt beam="2">  1        4 0.15927045E-02 0.12500086E+03</pdfrwt>
<pdfrwt beam="1">  1       -4 0.58050248E-01 0.12500086E+03</pdfrwt>
<totfact> 0.65767750E+03</totfact>
</mgrwt>
</event>
<event>
 5    1  0.3327068E-002  0.1249971E+03  0.7818608E-02  0.1235074E+00
         -4   -1    0    0    0  501 -0.00000000000E+00  0.00000000000E+00  0.78444771105E+02  0.78455050912E+02  0.12700000000E+01 0.  1.
          4   -1    0    0  501    0  0.00000000000E+00 -0.00000000000E+00 -0.49772265936E+02  0.49788466098E+02  0.12700000000E+01 0.  1.
         25    2    1    2    0    0  0.00000000000E+00  0.00000000000E+00  0.28672505168E+02  0.12824351701E+03  0.12499714838E+03 0.  0.
    9000005    1    3    3    0    0  0.78045142660E+01  0.49003015393E+02  0.53307857084E+02  0.72834975029E+02  0.10000000000E+01 0.  0.
    9000005    1    3    3    0    0 -0.78045142660E+01 -0.49003015393E+02 -0.24635351916E+02  0.55408541982E+02  0.10000000000E+01 0.  0.
<mgrwt>
<rscale>  0 0.12499715E+03</rscale>
<asrwt>0</asrwt>
<pdfrwt beam="2">  1        4 0.76593087E-02 0.12499715E+03</pdfrwt>
<pdfrwt beam="1">  1       -4 0.12070463E-01 0.12499715E+03</pdfrwt>
<totfact> 0.10382900E+04</totfact>
</mgrwt>
</event>
<event>
 5    1  0.3327068E-002  0.1249999E+03  0.7818608E-02  0.1235069E+00
         -4   -1    0    0    0  501 -0.00000000000E+00  0.00000000000E+00  0.27722110781E+02  0.27751186032E+02  0.12700000000E+01 0. -1.
          4   -1    0    0  501    0  0.00000000000E+00 -0.00000000000E+00 -0.14080129914E+03  0.14080702660E+03  0.12700000000E+01 0. -1.
         25    2    1    2    0    0  0.00000000000E+00  0.00000000000E+00 -0.11307918836E+03  0.16855821263E+03  0.12499987282E+03 0.  0.
    9000005    1    3    3    0    0  0.42345865619E+02 -0.39036923003E+02 -0.89243419823E+02  0.10621883860E+03  0.10000000000E+01 0.  0.
    9000005    1    3    3    0    0 -0.42345865619E+02  0.39036923003E+02 -0.23835768537E+02  0.62339374029E+02  0.10000000000E+01 0.  0.
<mgrwt>
<rscale>  0 0.12499987E+03</rscale>
<asrwt>0</asrwt>
<pdfrwt beam="2">  1        4 0.21664415E-01 0.12499987E+03</pdfrwt>
<pdfrwt beam="1">  1       -4 0.42676173E-02 0.12499987E+03</pdfrwt>
<totfact> 0.95718008E+03</totfact>
</mgrwt>
</event>
<event>
 5    1  0.3327068E-002  0.1250080E+03  0.7818608E-02  0.1235057E+00
          4   -1    0    0  501    0  0.00000000000E+00  0.00000000000E+00  0.71897740988E+02  0.71908956738E+02  0.12700000000E+01 0.  1.
         -4   -1    0    0    0  501 -0.00000000000E+00 -0.00000000000E+00 -0.54314710642E+02  0.54329556340E+02  0.12700000000E+01 0.  1.
         25    2    1    2    0    0  0.00000000000E+00  0.00000000000E+00  0.17583030346E+02  0.12623851308E+03  0.12500799666E+03 0.  0.
    9000005    1    3    3    0    0  0.23712087731E+02 -0.42434198749E+02  0.48456973453E+02  0.68644028177E+02  0.10000000000E+01 0.  0.
    9000005    1    3    3    0    0 -0.23712087731E+02  0.42434198749E+02 -0.30873943107E+02  0.57594484901E+02  0.10000000000E+01 0.  0.
<mgrwt>
<rscale>  0 0.12500800E+03</rscale>
<asrwt>0</asrwt>
<pdfrwt beam="1">  1        4 0.11063196E-01 0.12500800E+03</pdfrwt>
<pdfrwt beam="2">  1       -4 0.83581141E-02 0.12500800E+03</pdfrwt>
<totfact> 0.10423855E+04</totfact>
</mgrwt>
</event>
<event>
 5    1  0.3327068E-002  0.1249909E+03  0.7818608E-02  0.1235083E+00
         -4   -1    0    0    0  501 -0.00000000000E+00  0.00000000000E+00  0.97675687781E+01  0.98497867913E+01  0.12700000000E+01 0.  1.
          4   -1    0    0  501    0  0.00000000000E+00 -0.00000000000E+00 -0.39810323308E+03  0.39810525881E+03  0.12700000000E+01 0.  1.
         25    2    1    2    0    0  0.00000000000E+00  0.00000000000E+00 -0.38833566430E+03  0.40795504560E+03  0.12499092391E+03 0.  0.
    9000005    1    3    3    0    0 -0.44198027649E+02 -0.22000518493E+02 -0.69148364140E+02  0.84970493262E+02  0.10000000000E+01 0.  0.
    9000005    1    3    3    0    0  0.44198027649E+02  0.22000518493E+02 -0.31918730016E+03  0.32298455233E+03  0.10000000000E+01 0.  0.
<mgrwt>
<rscale>  0 0.12499092E+03</rscale>
<asrwt>0</asrwt>
<pdfrwt beam="2">  1        4 0.61253119E-01 0.12499092E+03</pdfrwt>
<pdfrwt beam="1">  1       -4 0.15091835E-02 0.12499092E+03</pdfrwt>
<totfact> 0.63799159E+03</totfact>
</mgrwt>
</event>
<event>
 5    1  0.3327068E-002  0.1250040E+03  0.7818608E-02  0.1235063E+00
          4   -1    0    0  501    0  0.00000000000E+00  0.00000000000E+00  0.84975122393E+01  0.85918923560E+01  0.12700000000E+01 0.  1.
         -4   -1    0    0    0  501 -0.00000000000E+00 -0.00000000000E+00 -0.45708840073E+03  0.45709016504E+03  0.12700000000E+01 0.  1.
         25    2    1    2    0    0  0.00000000000E+00  0.00000000000E+00 -0.44859088849E+03  0.46568205740E+03  0.12500397333E+03 0.  0.
    9000005    1    3    3    0    0  0.28896879485E+02 -0.16063394609E+02 -0.42185908246E+03  0.42315381098E+03  0.10000000000E+01 0.  0.
    9000005    1    3    3    0    0 -0.28896879485E+02  0.16063394609E+02 -0.26731806031E+02  0.42528246426E+02  0.10000000000E+01 0.  0.
<mgrwt>
<rscale>  0 0.12500397E+03</rscale>
<asrwt>0</asrwt>
<pdfrwt beam="1">  1        4 0.13147057E-02 0.12500397E+03</pdfrwt>
<pdfrwt beam="2">  1       -4 0.70328669E-01 0.12500397E+03</pdfrwt>
<totfact> 0.58623812E+03</totfact>
</mgrwt>
</event>
<event>
 5    1  0.3327068E-002  0.1249976E+03  0.7818608E-02  0.1235073E+00
          4   -1    0    0  501    0  0.00000000000E+00  0.00000000000E+00  0.11263938843E+04  0.11263946003E+04  0.12700000000E+01 0. -1.
         -4   -1    0    0    0  501 -0.00000000000E+00 -0.00000000000E+00 -0.33507719546E+01  0.35833744839E+01  0.12700000000E+01 0. -1.
         25    2    1    2    0    0  0.00000000000E+00  0.00000000000E+00  0.11230431124E+04  0.11299779747E+04  0.12499756483E+03 0.  0.
    9000005    1    3    3    0    0 -0.44722907207E+02 -0.17207336650E+02  0.19892097997E+03  0.20461375109E+03  0.10000000000E+01 0.  0.
    9000005    1    3    3    0    0  0.44722907207E+02  0.17207336650E+02  0.92412213238E+03  0.92536422366E+03  0.10000000000E+01 0.  0.
<mgrwt>
<rscale>  0 0.12499756E+03</rscale>
<asrwt>0</asrwt>
<pdfrwt beam="1">  1        4 0.17330964E+00 0.12499756E+03</pdfrwt>
<pdfrwt beam="2">  1       -4 0.53344995E-03 0.12499756E+03</pdfrwt>
<totfact> 0.26623509E+03</totfact>
</mgrwt>
</event>
<event>
 5    1  0.3327068E-002  0.1249990E+03  0.7818608E-02  0.1235071E+00
         -4   -1    0    0    0  501 -0.00000000000E+00  0.00000000000E+00  0.17280140119E+03  0.17280606805E+03  0.12700000000E+01 0. -1.
          4   -1    0    0  501    0  0.00000000000E+00 -0.00000000000E+00 -0.22582246465E+02  0.22617929954E+02  0.12700000000E+01 0. -1.
         25    2    1    2    0    0  0.00000000000E+00  0.00000000000E+00  0.15021915472E+03  0.19542399800E+03  0.12499897819E+03 0.  0.
    9000005    1    3    3    0    0  0.20859240453E+02  0.37975455810E+02  0.14551389618E+03  0.15183061990E+03  0.10000000000E+01 0.  0.
    9000005    1    3    3    0    0 -0.20859240453E+02 -0.37975455810E+02  0.47052585408E+01  0.43593378101E+02  0.10000000000E+01 0.  0.
<mgrwt>
<rscale>  0 0.12499898E+03</rscale>
<asrwt>0</asrwt>
<pdfrwt beam="2">  1        4 0.34772955E-02 0.12499898E+03</pdfrwt>
<pdfrwt beam="1">  1       -4 0.26587936E-01 0.12499898E+03</pdfrwt>
<totfact> 0.90914107E+03</totfact>
</mgrwt>
</event>
<event>
 5    1  0.3327068E-002  0.1249989E+03  0.7818608E-02  0.1235071E+00
         -4   -1    0    0    0  501 -0.00000000000E+00  0.00000000000E+00  0.19390669683E+02  0.19432214767E+02  0.12700000000E+01 0. -1.
          4   -1    0    0  501    0  0.00000000000E+00 -0.00000000000E+00 -0.20118736887E+03  0.20119137728E+03  0.12700000000E+01 0. -1.
         25    2    1    2    0    0  0.00000000000E+00  0.00000000000E+00 -0.18179669918E+03  0.22062359205E+03  0.12499891813E+03 0.  0.
    9000005    1    3    3    0    0 -0.42850290182E+02  0.45469819770E+02 -0.88714800161E+02  0.10851252299E+03  0.10000000000E+01 0.  0.
    9000005    1    3    3    0    0  0.42850290182E+02 -0.45469819770E+02 -0.93081899023E+02  0.11211106905E+03  0.10000000000E+01 0.  0.
<mgrwt>
<rscale>  0 0.12499892E+03</rscale>
<asrwt>0</asrwt>
<pdfrwt beam="2">  1        4 0.30955405E-01 0.12499892E+03</pdfrwt>
<pdfrwt beam="1">  1       -4 0.29866842E-02 0.12499892E+03</pdfrwt>
<totfact> 0.86771868E+03</totfact>
</mgrwt>
</event>
<event>
 5    1  0.3327068E-002  0.1249973E+03  0.7818608E-02  0.1235073E+00
         -4   -1    0    0    0  501 -0.00000000000E+00  0.00000000000E+00  0.53303059883E+03  0.53303211178E+03  0.12700000000E+01 0. -1.
          4   -1    0    0  501    0  0.00000000000E+00 -0.00000000000E+00 -0.72715049606E+01  0.73815773648E+01  0.12700000000E+01 0. -1.
         25    2    1    2    0    0  0.00000000000E+00  0.00000000000E+00  0.52575909386E+03  0.54041368914E+03  0.12499732249E+03 0.  0.
    9000005    1    3    3    0    0 -0.25638099563E+02 -0.34053043868E+02  0.46044344723E+03  0.46241333247E+03  0.10000000000E+01 0.  0.
    9000005    1    3    3    0    0  0.25638099563E+02  0.34053043868E+02  0.65315646633E+02  0.78000356672E+02  0.10000000000E+01 0.  0.
<mgrwt>
<rscale>  0 0.12499732E+03</rscale>
<asrwt>0</asrwt>
<pdfrwt beam="2">  1        4 0.11272765E-02 0.12499732E+03</pdfrwt>
<pdfrwt beam="1">  1       -4 0.82013293E-01 0.12499732E+03</pdfrwt>
<totfact> 0.52862772E+03</totfact>
</mgrwt>
</event>
<event>
 5    1  0.3327068E-002  0.1249983E+03  0.7818608E-02  0.1235072E+00
          4   -1    0    0  501    0  0.00000000000E+00  0.00000000000E+00  0.11281607296E+04  0.11281614444E+04  0.12700000000E+01 0. -1.
         -4   -1    0    0    0  501 -0.00000000000E+00 -0.00000000000E+00 -0.33452019932E+01  0.35781666221E+01  0.12700000000E+01 0. -1.
         25    2    1    2    0    0  0.00000000000E+00  0.00000000000E+00  0.11248155276E+04  0.11317396110E+04  0.12499830436E+03 0.  0.
    9000005    1    3    3    0    0 -0.46595089170E+02  0.21272357310E+02  0.23828724174E+03  0.24373228160E+03  0.10000000000E+01 0.  0.
    9000005    1    3    3    0    0  0.46595089170E+02 -0.21272357310E+02  0.88652828583E+03  0.88800732942E+03  0.10000000000E+01 0.  0.
<mgrwt>
<rscale>  0 0.12499830E+03</rscale>
<asrwt>0</asrwt>
<pdfrwt beam="1">  1        4 0.17358102E+00 0.12499830E+03</pdfrwt>
<pdfrwt beam="2">  1       -4 0.53262226E-03 0.12499830E+03</pdfrwt>
<totfact> 0.26573380E+03</totfact>
</mgrwt>
</event>
<event>
 5    1  0.3327068E-002  0.1249970E+03  0.7818608E-02  0.1235074E+00
         -4   -1    0    0    0  501 -0.00000000000E+00  0.00000000000E+00  0.29693867921E+02  0.29721014318E+02  0.12700000000E+01 0. -1.
          4   -1    0    0  501    0  0.00000000000E+00 -0.00000000000E+00 -0.13145401713E+03  0.13146015184E+03  0.12700000000E+01 0. -1.
         25    2    1    2    0    0  0.00000000000E+00  0.00000000000E+00 -0.10176014921E+03  0.16118116615E+03  0.12499696138E+03 0.  0.
    9000005    1    3    3    0    0 -0.21995666609E+02  0.51899761670E+02 -0.16095978395E+02  0.58629984918E+02  0.10000000000E+01 0.  0.
    9000005    1    3    3    0    0  0.21995666609E+02 -0.51899761670E+02 -0.85664170818E+02  0.10255118124E+03  0.10000000000E+01 0.  0.
<mgrwt>
<rscale>  0 0.12499696E+03</rscale>
<asrwt>0</asrwt>
<pdfrwt beam="2">  1        4 0.20226255E-01 0.12499696E+03</pdfrwt>
<pdfrwt beam="1">  1       -4 0.45708475E-02 0.12499696E+03</pdfrwt>
<totfact> 0.97122180E+03</totfact>
</mgrwt>
</event>
<event>
 5    1  0.3327068E-002  0.1249999E+03  0.7818608E-02  0.1235069E+00
          4   -1    0    0  501    0  0.00000000000E+00  0.00000000000E+00  0.28245346169E+02  0.28273883359E+02  0.12700000000E+01 0.  1.
         -4   -1    0    0    0  501 -0.00000000000E+00 -0.00000000000E+00 -0.13819552661E+03  0.13820136206E+03  0.12700000000E+01 0.  1.
         25    2    1    2    0    0  0.00000000000E+00  0.00000000000E+00 -0.10995018044E+03  0.16647524542E+03  0.12499986063E+03 0.  0.
    9000005    1    3    3    0    0 -0.43589808879E+02 -0.41284784585E+02 -0.78070897280E+02  0.98491471095E+02  0.10000000000E+01 0.  0.
    9000005    1    3    3    0    0  0.43589808879E+02  0.41284784585E+02 -0.31879283160E+02  0.67983774323E+02  0.10000000000E+01 0.  0.
<mgrwt>
<rscale>  0 0.12499986E+03</rscale>
<asrwt>0</asrwt>
<pdfrwt beam="1">  1        4 0.43480820E-02 0.12499986E+03</pdfrwt>
<pdfrwt beam="2">  1       -4 0.21263494E-01 0.12499986E+03</pdfrwt>
<totfact> 0.96109033E+03</totfact>
</mgrwt>
</event>
<event>
 5    1  0.3327068E-002  0.1250005E+03  0.7818608E-02  0.1235069E+00
          4   -1    0    0  501    0  0.00000000000E+00  0.00000000000E+00  0.27198125608E+03  0.27198422116E+03  0.12700000000E+01 0.  1.
         -4   -1    0    0    0  501 -0.00000000000E+00 -0.00000000000E+00 -0.14331187479E+02  0.14387349810E+02  0.12700000000E+01 0.  1.
         25    2    1    2    0    0  0.00000000000E+00  0.00000000000E+00  0.25765006860E+03  0.28637157097E+03  0.12500047523E+03 0.  0.
    9000005    1    3    3    0    0 -0.40810067209E+02  0.31450627252E+02  0.47805326240E+02  0.70291911036E+02  0.10000000000E+01 0.  0.
    9000005    1    3    3    0    0  0.40810067209E+02 -0.31450627252E+02  0.20984474236E+03  0.21607965993E+03  0.10000000000E+01 0.  0.
<mgrwt>
<rscale>  0 0.12500048E+03</rscale>
<asrwt>0</asrwt>
<pdfrwt beam="1">  1        4 0.41847814E-01 0.12500048E+03</pdfrwt>
<pdfrwt beam="2">  1       -4 0.22093466E-02 0.12500048E+03</pdfrwt>
<totfact> 0.77339982E+03</totfact>
</mgrwt>
</event>
<event>
 5    1  0.3327068E-002  0.1250003E+03  0.7818608E-02  0.1235069E+00
         -4   -1    0    0    0  501 -0.00000000000E+00  0.00000000000E+00  0.98463201049E+01  0.99278859587E+01  0.12700000000E+01 0.  1.
          4   -1    0    0  501    0  0.00000000000E+00 -0.00000000000E+00 -0.39500474321E+03  0.39500678483E+03  0.12700000000E+01 0.  1.
         25    2    1    2    0    0  0.00000000000E+00  0.00000000000E+00 -0.38515842311E+03  0.40493467079E+03  0.12500030686E+03 0.  0.
    9000005    1    3    3    0    0 -0.36673629563E+02  0.47283625870E+02 -0.13421724150E+03  0.14695565418E+03  0.10000000000E+01 0.  0.
    9000005    1    3    3    0    0  0.36673629563E+02 -0.47283625870E+02 -0.25094118161E+03  0.25797901661E+03  0.10000000000E+01 0.  0.
<mgrwt>
<rscale>  0 0.12500031E+03</rscale>
<asrwt>0</asrwt>
<pdfrwt beam="2">  1        4 0.60776380E-01 0.12500031E+03</pdfrwt>
<pdfrwt beam="1">  1       -4 0.15212501E-02 0.12500031E+03</pdfrwt>
<totfact> 0.64075234E+03</totfact>
</mgrwt>
</event>
<event>
 5    1  0.3327068E-002  0.1250047E+03  0.7818608E-02  0.1235062E+00
         -4   -1    0    0    0  501 -0.00000000000E+00  0.00000000000E+00  0.26803192931E+03  0.26803493807E+03  0.12700000000E+01 0. -1.
          4   -1    0    0  501    0  0.00000000000E+00 -0.00000000000E+00 -0.14544159310E+02  0.14599502390E+02  0.12700000000E+01 0. -1.
         25    2    1    2    0    0  0.00000000000E+00  0.00000000000E+00  0.25348777000E+03  0.28263444046E+03  0.12500470950E+03 0.  0.
    9000005    1    3    3    0    0  0.52925894323E+02  0.29733953868E+02  0.16030158610E+03  0.17141428414E+03  0.10000000000E+01 0.  0.
    9000005    1    3    3    0    0 -0.52925894323E+02 -0.29733953868E+02  0.93186183899E+02  0.11122015632E+03  0.10000000000E+01 0.  0.
<mgrwt>
<rscale>  0 0.12500471E+03</rscale>
<asrwt>0</asrwt>
<pdfrwt beam="2">  1        4 0.22420519E-02 0.12500471E+03</pdfrwt>
<pdfrwt beam="1">  1       -4 0.41240164E-01 0.12500471E+03</pdfrwt>
<totfact> 0.77821947E+03</totfact>
</mgrwt>
</event>
<event>
 5    1  0.3327068E-002  0.1249973E+03  0.7818608E-02  0.1235074E+00
         -4   -1    0    0    0  501 -0.00000000000E+00  0.00000000000E+00  0.14395355243E+04  0.14395360845E+04  0.12700000000E+01 0.  1.
          4   -1    0    0  501    0  0.00000000000E+00 -0.00000000000E+00 -0.25642357530E+01  0.28615039747E+01  0.12700000000E+01 0.  1.
         25    2    1    2    0    0  0.00000000000E+00  0.00000000000E+00  0.14369712885E+04  0.14423975885E+04  0.12499727666E+03 0.  0.
    9000005    1    3    3    0    0  0.26052584848E+02 -0.92139465271E+01  0.13652546841E+04  0.13655346888E+04  0.10000000000E+01 0.  0.
    9000005    1    3    3    0    0 -0.26052584848E+02  0.92139465271E+01  0.71716604424E+02  0.76862899620E+02  0.10000000000E+01 0.  0.
<mgrwt>
<rscale>  0 0.12499728E+03</rscale>
<asrwt>0</asrwt>
<pdfrwt beam="2">  1        4 0.41740855E-03 0.12499728E+03</pdfrwt>
<pdfrwt beam="1">  1       -4 0.22148946E+00 0.12499728E+03</pdfrwt>
<totfact> 0.19090182E+03</totfact>
</mgrwt>
</event>
<event>
 5    1  0.3327068E-002  0.1250043E+03  0.7818608E-02  0.1235062E+00
          4   -1    0    0  501    0  0.00000000000E+00  0.00000000000E+00  0.13449368832E+03  0.13449968438E+03  0.12700000000E+01 0.  1.
         -4   -1    0    0    0  501 -0.00000000000E+00 -0.00000000000E+00 -0.29025602348E+02  0.29053373155E+02  0.12700000000E+01 0.  1.
         25    2    1    2    0    0  0.00000000000E+00  0.00000000000E+00  0.10546808598E+03  0.16355305754E+03  0.12500434181E+03 0.  0.
    9000005    1    3    3    0    0 -0.60917781005E+02 -0.13705544695E+02  0.49346536359E+02  0.79592076544E+02  0.10000000000E+01 0.  0.
    9000005    1    3    3    0    0  0.60917781005E+02  0.13705544695E+02  0.56121549616E+02  0.83960980993E+02  0.10000000000E+01 0.  0.
<mgrwt>
<rscale>  0 0.12500434E+03</rscale>
<asrwt>0</asrwt>
<pdfrwt beam="1">  1        4 0.20693934E-01 0.12500434E+03</pdfrwt>
<pdfrwt beam="2">  1       -4 0.44680748E-02 0.12500434E+03</pdfrwt>
<totfact> 0.96652695E+03</totfact>
</mgrwt>
</event>
<event>
 5    1  0.3327068E-002  0.1249993E+03  0.7818608E-02  0.1235070E+00
          4   -1    0    0  501    0  0.00000000000E+00  0.00000000000E+00  0.15137948732E+03  0.15138481457E+03  0.12700000000E+01 0.  1.
         -4   -1    0    0    0  501 -0.00000000000E+00 -0.00000000000E+00 -0.25782635880E+02  0.25813895733E+02  0.12700000000E+01 0.  1.
         25    2    1    2    0    0  0.00000000000E+00  0.00000000000E+00  0.12559685144E+03  0.17719871030E+03  0.12499925536E+03 0.  0.
    9000005    1    3    3    0    0  0.25560366722E+02 -0.52819405340E+02  0.93267933501E+02  0.11019586810E+03  0.10000000000E+01 0.  0.
    9000005    1    3    3    0    0 -0.25560366722E+02  0.52819405340E+02  0.32328917942E+02  0.67002842199E+02  0.10000000000E+01 0.  0.
<mgrwt>
<rscale>  0 0.12499926E+03</rscale>
<asrwt>0</asrwt>
<pdfrwt beam="1">  1        4 0.23291966E-01 0.12499926E+03</pdfrwt>
<pdfrwt beam="2">  1       -4 0.39693738E-02 0.12499926E+03</pdfrwt>
<totfact> 0.94125260E+03</totfact>
</mgrwt>
</event>
<event>
 5    1  0.3327068E-002  0.1250011E+03  0.7818608E-02  0.1235068E+00
          4   -1    0    0  501    0  0.00000000000E+00  0.00000000000E+00  0.50334435127E+02  0.50350454413E+02  0.12700000000E+01 0.  1.
         -4   -1    0    0    0  501 -0.00000000000E+00 -0.00000000000E+00 -0.77573686905E+02  0.77584082131E+02  0.12700000000E+01 0.  1.
         25    2    1    2    0    0  0.00000000000E+00  0.00000000000E+00 -0.27239251778E+02  0.12793453654E+03  0.12500107521E+03 0.  0.
    9000005    1    3    3    0    0 -0.10061497058E+02  0.57308887048E+02 -0.36953224422E+02  0.68935354158E+02  0.10000000000E+01 0.  0.
    9000005    1    3    3    0    0  0.10061497058E+02 -0.57308887048E+02  0.97139726437E+01  0.58999182386E+02  0.10000000000E+01 0.  0.
<mgrwt>
<rscale>  0 0.12500108E+03</rscale>
<asrwt>0</asrwt>
<pdfrwt beam="1">  1        4 0.77457911E-02 0.12500108E+03</pdfrwt>
<pdfrwt beam="2">  1       -4 0.11936445E-01 0.12500108E+03</pdfrwt>
<totfact> 0.10388649E+04</totfact>
</mgrwt>
</event>
<event>
 5    1  0.3327068E-002  0.1250059E+03  0.7818608E-02  0.1235060E+00
         -4   -1    0    0    0  501 -0.00000000000E+00  0.00000000000E+00  0.10943801841E+04  0.10943809210E+04  0.12700000000E+01 0. -1.
          4   -1    0    0  501    0  0.00000000000E+00 -0.00000000000E+00 -0.34559907637E+01  0.36819522212E+01  0.12700000000E+01 0. -1.
         25    2    1    2    0    0  0.00000000000E+00  0.00000000000E+00  0.10909241933E+04  0.10980628732E+04  0.12500591163E+03 0.  0.
    9000005    1    3    3    0    0 -0.15649388116E+02  0.47348908207E+02  0.21459255388E+03  0.22031292889E+03  0.10000000000E+01 0.  0.
    9000005    1    3    3    0    0  0.15649388116E+02 -0.47348908207E+02  0.87633163945E+03  0.87774994432E+03  0.10000000000E+01 0.  0.
<mgrwt>
<rscale>  0 0.12500591E+03</rscale>
<asrwt>0</asrwt>
<pdfrwt beam="2">  1        4 0.54912894E-03 0.12500591E+03</pdfrwt>
<pdfrwt beam="1">  1       -4 0.16838371E+00 0.12500591E+03</pdfrwt>
<totfact> 0.27536583E+03</totfact>
</mgrwt>
</event>
<event>
 5    1  0.3327068E-002  0.1249991E+03  0.7818608E-02  0.1235071E+00
          4   -1    0    0  501    0  0.00000000000E+00  0.00000000000E+00  0.41184692849E+02  0.41204269500E+02  0.12700000000E+01 0. -1.
         -4   -1    0    0    0  501 -0.00000000000E+00 -0.00000000000E+00 -0.94799370034E+02  0.94807876565E+02  0.12700000000E+01 0. -1.
         25    2    1    2    0    0  0.00000000000E+00  0.00000000000E+00 -0.53614677185E+02  0.13601214607E+03  0.12499908107E+03 0.  0.
    9000005    1    3    3    0    0  0.55074930347E+02  0.17217440694E+02 -0.52910624383E+02  0.78295736725E+02  0.10000000000E+01 0.  0.
    9000005    1    3    3    0    0 -0.55074930347E+02 -0.17217440694E+02 -0.70405280226E+00  0.57716409340E+02  0.10000000000E+01 0.  0.
<mgrwt>
<rscale>  0 0.12499908E+03</rscale>
<asrwt>0</asrwt>
<pdfrwt beam="1">  1        4 0.63382668E-02 0.12499908E+03</pdfrwt>
<pdfrwt beam="2">  1       -4 0.14586679E-01 0.12499908E+03</pdfrwt>
<totfact> 0.10216993E+04</totfact>
</mgrwt>
</event>
<event>
 5    1  0.3327068E-002  0.1250013E+03  0.7818608E-02  0.1235067E+00
          4   -1    0    0  501    0  0.00000000000E+00  0.00000000000E+00  0.16194445620E+02  0.16244167228E+02  0.12700000000E+01 0. -1.
         -4   -1    0    0    0  501 -0.00000000000E+00 -0.00000000000E+00 -0.24079317214E+03  0.24079652126E+03  0.12700000000E+01 0. -1.
         25    2    1    2    0    0  0.00000000000E+00  0.00000000000E+00 -0.22459872652E+03  0.25704068849E+03  0.12500131032E+03 0.  0.
    9000005    1    3    3    0    0 -0.45865127856E+02  0.17881883896E+01 -0.25093543636E+02  0.52321061755E+02  0.10000000000E+01 0.  0.
    9000005    1    3    3    0    0  0.45865127856E+02 -0.17881883896E+01 -0.19950518288E+03  0.20471962673E+03  0.10000000000E+01 0.  0.
<mgrwt>
<rscale>  0 0.12500131E+03</rscale>
<asrwt>0</asrwt>
<pdfrwt beam="1">  1        4 0.24955357E-02 0.12500131E+03</pdfrwt>
<pdfrwt beam="2">  1       -4 0.37049183E-01 0.12500131E+03</pdfrwt>
<totfact> 0.81320789E+03</totfact>
</mgrwt>
</event>
<event>
 5    1  0.3327068E-002  0.1250004E+03  0.7818608E-02  0.1235069E+00
          4   -1    0    0  501    0  0.00000000000E+00  0.00000000000E+00  0.70553530289E+01  0.71687451037E+01  0.12700000000E+01 0.  1.
         -4   -1    0    0    0  501 -0.00000000000E+00 -0.00000000000E+00 -0.54913354958E+03  0.54913501817E+03  0.12700000000E+01 0.  1.
         25    2    1    2    0    0  0.00000000000E+00  0.00000000000E+00 -0.54207819656E+03  0.55630376327E+03  0.12500042340E+03 0.  0.
    9000005    1    3    3    0    0  0.22283265906E+02 -0.57935397630E+02 -0.30319999859E+03  0.30949037688E+03  0.10000000000E+01 0.  0.
    9000005    1    3    3    0    0 -0.22283265906E+02  0.57935397630E+02 -0.23887819797E+03  0.24681338640E+03  0.10000000000E+01 0.  0.
<mgrwt>
<rscale>  0 0.12500042E+03</rscale>
<asrwt>0</asrwt>
<pdfrwt beam="1">  1        4 0.10942748E-02 0.12500042E+03</pdfrwt>
<pdfrwt beam="2">  1       -4 0.84490887E-01 0.12500042E+03</pdfrwt>
<totfact> 0.51746893E+03</totfact>
</mgrwt>
</event>
<event>
 5    1  0.3327068E-002  0.1250042E+03  0.7818608E-02  0.1235063E+00
         -4   -1    0    0    0  501 -0.00000000000E+00  0.00000000000E+00  0.11478331234E+03  0.11479033798E+03  0.12700000000E+01 0. -1.
          4   -1    0    0  501    0  0.00000000000E+00 -0.00000000000E+00 -0.34013869087E+02  0.34037570275E+02  0.12700000000E+01 0. -1.
         25    2    1    2    0    0  0.00000000000E+00  0.00000000000E+00  0.80769443258E+02  0.14882790825E+03  0.12500417317E+03 0.  0.
    9000005    1    3    3    0    0 -0.17003764394E+02  0.20697051431E+02  0.10760805384E+03  0.11089629928E+03  0.10000000000E+01 0.  0.
    9000005    1    3    3    0    0  0.17003764394E+02 -0.20697051431E+02 -0.26838610583E+02  0.37931608976E+02  0.10000000000E+01 0.  0.
<mgrwt>
<rscale>  0 0.12500417E+03</rscale>
<asrwt>0</asrwt>
<pdfrwt beam="2">  1        4 0.52352665E-02 0.12500417E+03</pdfrwt>
<pdfrwt beam="1">  1       -4 0.17661335E-01 0.12500417E+03</pdfrwt>
<totfact> 0.99528502E+03</totfact>
</mgrwt>
</event>
<event>
 5    1  0.3327068E-002  0.1249993E+03  0.7818608E-02  0.1235070E+00
         -4   -1    0    0    0  501 -0.00000000000E+00  0.00000000000E+00  0.49161646469E+03  0.49161810509E+03  0.12700000000E+01 0. -1.
          4   -1    0    0  501    0  0.00000000000E+00 -0.00000000000E+00 -0.78932293795E+01  0.79947464023E+01  0.12700000000E+01 0. -1.
         25    2    1    2    0    0  0.00000000000E+00  0.00000000000E+00  0.48372323531E+03  0.49961285150E+03  0.12499933199E+03 0.  0.
    9000005    1    3    3    0    0  0.61112598501E+02  0.14106632394E+00  0.29404232448E+03  0.30032758478E+03  0.10000000000E+01 0.  0.
    9000005    1    3    3    0    0 -0.61112598501E+02 -0.14106632394E+00  0.18968091083E+03  0.19928526672E+03  0.10000000000E+01 0.  0.
<mgrwt>
<rscale>  0 0.12499933E+03</rscale>
<asrwt>0</asrwt>
<pdfrwt beam="2">  1        4 0.12222778E-02 0.12499933E+03</pdfrwt>
<pdfrwt beam="1">  1       -4 0.75641263E-01 0.12499933E+03</pdfrwt>
<totfact> 0.55895224E+03</totfact>
</mgrwt>
</event>
<event>
 5    1  0.3327068E-002  0.1250079E+03  0.7818608E-02  0.1235057E+00
          4   -1    0    0  501    0  0.00000000000E+00  0.00000000000E+00  0.20896246818E+03  0.20896632745E+03  0.12700000000E+01 0.  1.
         -4   -1    0    0    0  501 -0.00000000000E+00 -0.00000000000E+00 -0.18670295255E+02  0.18713439687E+02  0.12700000000E+01 0.  1.
         25    2    1    2    0    0  0.00000000000E+00  0.00000000000E+00  0.19029217292E+03  0.22767976713E+03  0.12500786090E+03 0.  0.
    9000005    1    3    3    0    0 -0.86044208681E+01  0.60792543999E+02  0.11638398931E+03  0.13159028244E+03  0.10000000000E+01 0.  0.
    9000005    1    3    3    0    0  0.86044208681E+01 -0.60792543999E+02  0.73908183613E+02  0.96089484697E+02  0.10000000000E+01 0.  0.
<mgrwt>
<rscale>  0 0.12500786E+03</rscale>
<asrwt>0</asrwt>
<pdfrwt beam="1">  1        4 0.32151686E-01 0.12500786E+03</pdfrwt>
<pdfrwt beam="2">  1       -4 0.28759689E-02 0.12500786E+03</pdfrwt>
<totfact> 0.85652123E+03</totfact>
</mgrwt>
</event>
<event>
 5    1  0.3327068E-002  0.1249986E+03  0.7818608E-02  0.1235071E+00
          4   -1    0    0  501    0  0.00000000000E+00  0.00000000000E+00  0.14011843100E+04  0.14011848856E+04  0.12700000000E+01 0. -1.
         -4   -1    0    0    0  501 -0.00000000000E+00 -0.00000000000E+00 -0.26425110719E+01  0.29318534692E+01  0.12700000000E+01 0. -1.
         25    2    1    2    0    0  0.00000000000E+00  0.00000000000E+00  0.13985417989E+04  0.14041167390E+04  0.12499861376E+03 0.  0.
    9000005    1    3    3    0    0  0.26172643419E+02  0.22369371980E+02  0.11345130538E+03  0.11856472814E+03  0.10000000000E+01 0.  0.
    9000005    1    3    3    0    0 -0.26172643419E+02 -0.22369371980E+02  0.12850904936E+04  0.12855520109E+04  0.10000000000E+01 0.  0.
<mgrwt>
<rscale>  0 0.12499861E+03</rscale>
<asrwt>0</asrwt>
<pdfrwt beam="1">  1        4 0.21558922E+00 0.12499861E+03</pdfrwt>
<pdfrwt beam="2">  1       -4 0.42884134E-03 0.12499861E+03</pdfrwt>
<totfact> 0.19893341E+03</totfact>
</mgrwt>
</event>
<event>
 5    1  0.3327068E-002  0.1250000E+03  0.7818608E-02  0.1235069E+00
         -4   -1    0    0    0  501 -0.00000000000E+00  0.00000000000E+00  0.77386051034E+02  0.77396471461E+02  0.12700000000E+01 0. -1.
          4   -1    0    0  501    0  0.00000000000E+00 -0.00000000000E+00 -0.50455669493E+02  0.50471650300E+02  0.12700000000E+01 0. -1.
         25    2    1    2    0    0  0.00000000000E+00  0.00000000000E+00  0.26930381541E+02  0.12786812176E+03  0.12500004445E+03 0.  0.
    9000005    1    3    3    0    0  0.19931456727E+01 -0.29099571806E+00 -0.50427469951E+02  0.50477589422E+02  0.10000000000E+01 0.  0.
    9000005    1    3    3    0    0 -0.19931456727E+01  0.29099571806E+00  0.77357851492E+02  0.77390532339E+02  0.10000000000E+01 0.  0.
<mgrwt>
<rscale>  0 0.12500004E+03</rscale>
<asrwt>0</asrwt>
<pdfrwt beam="2">  1        4 0.77644415E-02 0.12500004E+03</pdfrwt>
<pdfrwt beam="1">  1       -4 0.11907577E-01 0.12500004E+03</pdfrwt>
<totfact> 0.10390326E+04</totfact>
</mgrwt>
</event>
<event>
 5    1  0.3327068E-002  0.1250015E+03  0.7818608E-02  0.1235067E+00
         -4   -1    0    0    0  501 -0.00000000000E+00  0.00000000000E+00  0.39205441466E+03  0.39205647164E+03  0.12700000000E+01 0.  1.
          4   -1    0    0  501    0  0.00000000000E+00 -0.00000000000E+00 -0.99212171132E+01  0.10002172214E+02  0.12700000000E+01 0.  1.
         25    2    1    2    0    0  0.00000000000E+00  0.00000000000E+00  0.38213319754E+03  0.40205864385E+03  0.12500148971E+03 0.  0.
    9000005    1    3    3    0    0  0.41773033629E+02 -0.32713052204E+01  0.41938791998E+02  0.59292074097E+02  0.10000000000E+01 0.  0.
    9000005    1    3    3    0    0 -0.41773033629E+02  0.32713052204E+01  0.34019440555E+03  0.34276656975E+03  0.10000000000E+01 0.  0.
<mgrwt>
<rscale>  0 0.12500149E+03</rscale>
<asrwt>0</asrwt>
<pdfrwt beam="2">  1        4 0.15327267E-02 0.12500149E+03</pdfrwt>
<pdfrwt beam="1">  1       -4 0.60322446E-01 0.12500149E+03</pdfrwt>
<totfact> 0.64350944E+03</totfact>
</mgrwt>
</event>
<event>
 5    1  0.3327068E-002  0.1250035E+03  0.7818608E-02  0.1235064E+00
          4   -1    0    0  501    0  0.00000000000E+00  0.00000000000E+00  0.60945380852E+03  0.60945513175E+03  0.12700000000E+01 0.  1.
         -4   -1    0    0    0  501 -0.00000000000E+00 -0.00000000000E+00 -0.63455340196E+01  0.64713755874E+01  0.12700000000E+01 0.  1.
         25    2    1    2    0    0  0.00000000000E+00  0.00000000000E+00  0.60310827450E+03  0.61592650734E+03  0.12500348664E+03 0.  0.
    9000005    1    3    3    0    0 -0.33300501466E+02 -0.28798829778E+02  0.52009262174E+03  0.52195366766E+03  0.10000000000E+01 0.  0.
    9000005    1    3    3    0    0  0.33300501466E+02  0.28798829778E+02  0.83015652764E+02  0.93972839684E+02  0.10000000000E+01 0.  0.
<mgrwt>
<rscale>  0 0.12500349E+03</rscale>
<asrwt>0</asrwt>
<pdfrwt beam="1">  1        4 0.93771944E-01 0.12500349E+03</pdfrwt>
<pdfrwt beam="2">  1       -4 0.98601752E-03 0.12500349E+03</pdfrwt>
<totfact> 0.47873798E+03</totfact>
</mgrwt>
</event>
<event>
 5    1  0.3327068E-002  0.1249996E+03  0.7818608E-02  0.1235070E+00
         -4   -1    0    0    0  501 -0.00000000000E+00  0.00000000000E+00  0.10631435378E+04  0.10631442963E+04  0.12700000000E+01 0. -1.
          4   -1    0    0  501    0  0.00000000000E+00 -0.00000000000E+00 -0.35636920037E+01  0.37832262286E+01  0.12700000000E+01 0. -1.
         25    2    1    2    0    0  0.00000000000E+00  0.00000000000E+00  0.10595798458E+04  0.10669275226E+04  0.12499955529E+03 0.  0.
    9000005    1    3    3    0    0 -0.29277002721E+01  0.34170579044E+02  0.97568224379E+03  0.97628532752E+03  0.10000000000E+01 0.  0.
    9000005    1    3    3    0    0  0.29277002721E+01 -0.34170579044E+02  0.83897601982E+02  0.90642195028E+02  0.10000000000E+01 0.  0.
<mgrwt>
<rscale>  0 0.12499956E+03</rscale>
<asrwt>0</asrwt>
<pdfrwt beam="2">  1        4 0.56520533E-03 0.12499956E+03</pdfrwt>
<pdfrwt beam="1">  1       -4 0.16357766E+00 0.12499956E+03</pdfrwt>
<totfact> 0.28472302E+03</totfact>
</mgrwt>
</event>
<event>
 5    1  0.3327068E-002  0.1250015E+03  0.7818608E-02  0.1235067E+00
          4   -1    0    0  501    0  0.00000000000E+00  0.00000000000E+00  0.12903171396E+02  0.12965520895E+02  0.12700000000E+01 0. -1.
         -4   -1    0    0    0  501 -0.00000000000E+00 -0.00000000000E+00 -0.30194937419E+03  0.30195204499E+03  0.12700000000E+01 0. -1.
         25    2    1    2    0    0  0.00000000000E+00  0.00000000000E+00 -0.28904620279E+03  0.31491756588E+03  0.12500146380E+03 0.  0.
    9000005    1    3    3    0    0 -0.61360490691E+02 -0.10262044959E+02 -0.12963525133E+03  0.14379401160E+03  0.10000000000E+01 0.  0.
    9000005    1    3    3    0    0  0.61360490691E+02  0.10262044959E+02 -0.15941095146E+03  0.17112355428E+03  0.10000000000E+01 0.  0.
<mgrwt>
<rscale>  0 0.12500146E+03</rscale>
<asrwt>0</asrwt>
<pdfrwt beam="1">  1        4 0.19901051E-02 0.12500146E+03</pdfrwt>
<pdfrwt beam="2">  1       -4 0.46458746E-01 0.12500146E+03</pdfrwt>
<totfact> 0.73762327E+03</totfact>
</mgrwt>
</event>
<event>
 5    1  0.3327068E-002  0.1249961E+03  0.7818608E-02  0.1235075E+00
         -4   -1    0    0    0  501 -0.00000000000E+00  0.00000000000E+00  0.36551941713E+02  0.36573998181E+02  0.12700000000E+01 0. -1.
          4   -1    0    0  501    0  0.00000000000E+00 -0.00000000000E+00 -0.10680381657E+03  0.10681136706E+03  0.12700000000E+01 0. -1.
         25    2    1    2    0    0  0.00000000000E+00  0.00000000000E+00 -0.70251874855E+02  0.14338536524E+03  0.12499614812E+03 0.  0.
    9000005    1    3    3    0    0  0.13856380485E+02  0.53227210615E+02 -0.69152528902E+02  0.88364062172E+02  0.10000000000E+01 0.  0.
    9000005    1    3    3    0    0 -0.13856380485E+02 -0.53227210615E+02 -0.10993459526E+01  0.55021303070E+02  0.10000000000E+01 0.  0.
<mgrwt>
<rscale>  0 0.12499615E+03</rscale>
<asrwt>0</asrwt>
<pdfrwt beam="2">  1        4 0.16433634E-01 0.12499615E+03</pdfrwt>
<pdfrwt beam="1">  1       -4 0.56256532E-02 0.12499615E+03</pdfrwt>
<totfact> 0.10064771E+04</totfact>
</mgrwt>
</event>
<event>
 5    1  0.3327068E-002  0.1249939E+03  0.7818608E-02  0.1235079E+00
         -4   -1    0    0    0  501 -0.00000000000E+00  0.00000000000E+00  0.13157809897E+03  0.13158422788E+03  0.12700000000E+01 0.  1.
          4   -1    0    0  501    0  0.00000000000E+00 -0.00000000000E+00 -0.29664380839E+02  0.29691554196E+02  0.12700000000E+01 0.  1.
         25    2    1    2    0    0  0.00000000000E+00  0.00000000000E+00  0.10191371813E+03  0.16127578208E+03  0.12499388762E+03 0.  0.
    9000005    1    3    3    0    0  0.37806110723E+02 -0.49703319387E+02  0.48029903693E+02  0.78788283487E+02  0.10000000000E+01 0.  0.
    9000005    1    3    3    0    0 -0.37806110723E+02  0.49703319387E+02  0.53883814436E+02  0.82487498593E+02  0.10000000000E+01 0.  0.
<mgrwt>
<rscale>  0 0.12499389E+03</rscale>
<asrwt>0</asrwt>
<pdfrwt beam="2">  1        4 0.45663127E-02 0.12499389E+03</pdfrwt>
<pdfrwt beam="1">  1       -4 0.20245346E-01 0.12499389E+03</pdfrwt>
<totfact> 0.97110726E+03</totfact>
</mgrwt>
</event>
<event>
 5    1  0.3327068E-002  0.1250039E+03  0.7818608E-02  0.1235063E+00
          4   -1    0    0  501    0  0.00000000000E+00  0.00000000000E+00  0.17191672803E+03  0.17192141890E+03  0.12700000000E+01 0. -1.
         -4   -1    0    0    0  501 -0.00000000000E+00 -0.00000000000E+00 -0.22700425760E+02  0.22735923770E+02  0.12700000000E+01 0. -1.
         25    2    1    2    0    0  0.00000000000E+00  0.00000000000E+00  0.14921630227E+03  0.19465734267E+03  0.12500390471E+03 0.  0.
    9000005    1    3    3    0    0  0.19564250438E+02 -0.58446966003E+02  0.58523873003E+02  0.84999126122E+02  0.10000000000E+01 0.  0.
    9000005    1    3    3    0    0 -0.19564250438E+02  0.58446966003E+02  0.90692429266E+02  0.10965821655E+03  0.10000000000E+01 0.  0.
<mgrwt>
<rscale>  0 0.12500390E+03</rscale>
<asrwt>0</asrwt>
<pdfrwt beam="1">  1        4 0.26451819E-01 0.12500390E+03</pdfrwt>
<pdfrwt beam="2">  1       -4 0.34954646E-02 0.12500390E+03</pdfrwt>
<totfact> 0.91035248E+03</totfact>
</mgrwt>
</event>
<event>
 5    1  0.3327068E-002  0.1250018E+03  0.7818608E-02  0.1235067E+00
         -4   -1    0    0    0  501 -0.00000000000E+00  0.00000000000E+00  0.17613243189E+03  0.17613701049E+03  0.12700000000E+01 0.  1.
          4   -1    0    0  501    0  0.00000000000E+00 -0.00000000000E+00 -0.22155486907E+02  0.22191856617E+02  0.12700000000E+01 0.  1.
         25    2    1    2    0    0  0.00000000000E+00  0.00000000000E+00  0.15397694499E+03  0.19832886711E+03  0.12500175975E+03 0.  0.
    9000005    1    3    3    0    0  0.48995982735E+02 -0.33567615514E+02  0.46142546756E+02  0.75216525821E+02  0.10000000000E+01 0.  0.
    9000005    1    3    3    0    0 -0.48995982735E+02  0.33567615514E+02  0.10783439823E+03  0.12311234129E+03  0.10000000000E+01 0.  0.
<mgrwt>
<rscale>  0 0.12500176E+03</rscale>
<asrwt>0</asrwt>
<pdfrwt beam="2">  1        4 0.34116865E-02 0.12500176E+03</pdfrwt>
<pdfrwt beam="1">  1       -4 0.27100446E-01 0.12500176E+03</pdfrwt>
<totfact> 0.90414414E+03</totfact>
</mgrwt>
</event>
<event>
 5    1  0.3327068E-002  0.1250058E+03  0.7818608E-02  0.1235060E+00
          4   -1    0    0  501    0  0.00000000000E+00  0.00000000000E+00  0.98711800538E+03  0.98711882236E+03  0.12700000000E+01 0.  1.
         -4   -1    0    0    0  501 -0.00000000000E+00 -0.00000000000E+00 -0.38548706148E+01  0.40586854346E+01  0.12700000000E+01 0.  1.
         25    2    1    2    0    0  0.00000000000E+00  0.00000000000E+00  0.98326313477E+03  0.99117750779E+03  0.12500583889E+03 0.  0.
    9000005    1    3    3    0    0  0.24432121682E+02 -0.23265868499E+02  0.90874674047E+03  0.90937333782E+03  0.10000000000E+01 0.  0.
    9000005    1    3    3    0    0 -0.24432121682E+02  0.23265868499E+02  0.74516394294E+02  0.81804169976E+02  0.10000000000E+01 0.  0.
<mgrwt>
<rscale>  0 0.12500584E+03</rscale>
<asrwt>0</asrwt>
<pdfrwt beam="1">  1        4 0.15188006E+00 0.12500584E+03</pdfrwt>
<pdfrwt beam="2">  1       -4 0.60879787E-03 0.12500584E+03</pdfrwt>
<totfact> 0.30893645E+03</totfact>
</mgrwt>
</event>
<event>
 5    1  0.3327068E-002  0.1250005E+03  0.7818608E-02  0.1235068E+00
          4   -1    0    0  501    0  0.00000000000E+00  0.00000000000E+00  0.73938616396E+02  0.73949522612E+02  0.12700000000E+01 0.  1.
         -4   -1    0    0    0  501 -0.00000000000E+00 -0.00000000000E+00 -0.52809006190E+02  0.52824275052E+02  0.12700000000E+01 0.  1.
         25    2    1    2    0    0  0.00000000000E+00  0.00000000000E+00  0.21129610206E+02  0.12677379766E+03  0.12500054138E+03 0.  0.
    9000005    1    3    3    0    0 -0.61518184312E+02 -0.95885670705E+01  0.16012807693E+02  0.64294926936E+02  0.10000000000E+01 0.  0.
    9000005    1    3    3    0    0  0.61518184312E+02  0.95885670705E+01  0.51168025135E+01  0.62478870728E+02  0.10000000000E+01 0.  0.
<mgrwt>
<rscale>  0 0.12500054E+03</rscale>
<asrwt>0</asrwt>
<pdfrwt beam="1">  1        4 0.11377185E-01 0.12500054E+03</pdfrwt>
<pdfrwt beam="2">  1       -4 0.81264760E-02 0.12500054E+03</pdfrwt>
<totfact> 0.10413937E+04</totfact>
</mgrwt>
</event>
<event>
 5    1  0.3327068E-002  0.1249995E+03  0.7818608E-02  0.1235070E+00
         -4   -1    0    0    0  501 -0.00000000000E+00  0.00000000000E+00  0.24268908262E+03  0.24269240558E+03  0.12700000000E+01 0. -1.
          4   -1    0    0  501    0  0.00000000000E+00 -0.00000000000E+00 -0.16067084535E+02  0.16117199058E+02  0.12700000000E+01 0. -1.
         25    2    1    2    0    0  0.00000000000E+00  0.00000000000E+00  0.22662199809E+03  0.25880960463E+03  0.12499952573E+03 0.  0.
    9000005    1    3    3    0    0  0.43164029392E+02  0.45085113016E+02  0.11966556899E+03  0.13496906776E+03  0.10000000000E+01 0.  0.
    9000005    1    3    3    0    0 -0.43164029392E+02 -0.45085113016E+02  0.10695642909E+03  0.12384053688E+03  0.10000000000E+01 0.  0.
<mgrwt>
<rscale>  0 0.12499953E+03</rscale>
<asrwt>0</asrwt>
<pdfrwt beam="2">  1        4 0.24759699E-02 0.12499953E+03</pdfrwt>
<pdfrwt beam="1">  1       -4 0.37340890E-01 0.12499953E+03</pdfrwt>
<totfact> 0.81074263E+03</totfact>
</mgrwt>
</event>
<event>
 5    1  0.3327068E-002  0.1250025E+03  0.7818608E-02  0.1235065E+00
         -4   -1    0    0    0  501 -0.00000000000E+00  0.00000000000E+00  0.53281238372E+02  0.53296371944E+02  0.12700000000E+01 0.  1.
          4   -1    0    0  501    0  0.00000000000E+00 -0.00000000000E+00 -0.73285712221E+02  0.73296715587E+02  0.12700000000E+01 0.  1.
         25    2    1    2    0    0  0.00000000000E+00  0.00000000000E+00 -0.20004473850E+02  0.12659308753E+03  0.12500252332E+03 0.  0.
    9000005    1    3    3    0    0  0.95946626792E+01  0.59330209106E+02  0.73409858935E+01  0.60555935616E+02  0.10000000000E+01 0.  0.
    9000005    1    3    3    0    0 -0.95946626792E+01 -0.59330209106E+02 -0.27345459743E+02  0.66037151915E+02  0.10000000000E+01 0.  0.
<mgrwt>
<rscale>  0 0.12500252E+03</rscale>
<asrwt>0</asrwt>
<pdfrwt beam="2">  1        4 0.11276735E-01 0.12500252E+03</pdfrwt>
<pdfrwt beam="1">  1       -4 0.81991242E-02 0.12500252E+03</pdfrwt>
<totfact> 0.10417406E+04</totfact>
</mgrwt>
</event>
<event>
 5    1  0.3327068E-002  0.1249994E+03  0.7818608E-02  0.1235070E+00
         -4   -1    0    0    0  501 -0.00000000000E+00  0.00000000000E+00  0.14251756725E+03  0.14252322573E+03  0.12700000000E+01 0. -1.
          4   -1    0    0  501    0  0.00000000000E+00 -0.00000000000E+00 -0.27387723061E+02  0.27417152924E+02  0.12700000000E+01 0. -1.
         25    2    1    2    0    0  0.00000000000E+00  0.00000000000E+00  0.11512984418E+03  0.16994037866E+03  0.12499940510E+03 0.  0.
    9000005    1    3    3    0    0 -0.48287014435E+02  0.16259864347E+02  0.83733596914E+01  0.51644284332E+02  0.10000000000E+01 0.  0.
    9000005    1    3    3    0    0  0.48287014435E+02 -0.16259864347E+02  0.10675648449E+03  0.11829609433E+03  0.10000000000E+01 0.  0.
<mgrwt>
<rscale>  0 0.12499941E+03</rscale>
<asrwt>0</asrwt>
<pdfrwt beam="2">  1        4 0.42161951E-02 0.12499941E+03</pdfrwt>
<pdfrwt beam="1">  1       -4 0.21928478E-01 0.12499941E+03</pdfrwt>
<totfact> 0.95461025E+03</totfact>
</mgrwt>
</event>
<event>
 5    1  0.3327068E-002  0.1250010E+03  0.7818608E-02  0.1235068E+00
          4   -1    0    0  501    0  0.00000000000E+00  0.00000000000E+00  0.87355899442E+01  0.88274249740E+01  0.12700000000E+01 0. -1.
         -4   -1    0    0    0  501 -0.00000000000E+00 -0.00000000000E+00 -0.44474151846E+03  0.44474333176E+03  0.12700000000E+01 0. -1.
         25    2    1    2    0    0  0.00000000000E+00  0.00000000000E+00 -0.43600592852E+03  0.45357075673E+03  0.12500104664E+03 0.  0.
    9000005    1    3    3    0    0 -0.34128907578E+02  0.24108253657E+02 -0.49390210094E+02  0.64702264876E+02  0.10000000000E+01 0.  0.
    9000005    1    3    3    0    0  0.34128907578E+02 -0.24108253657E+02 -0.38661571843E+03  0.38886849186E+03  0.10000000000E+01 0.  0.
<mgrwt>
<rscale>  0 0.12500105E+03</rscale>
<asrwt>0</asrwt>
<pdfrwt beam="1">  1        4 0.13511410E-02 0.12500105E+03</pdfrwt>
<pdfrwt beam="2">  1       -4 0.68428958E-01 0.12500105E+03</pdfrwt>
<totfact> 0.59654336E+03</totfact>
</mgrwt>
</event>
<event>
 5    1  0.3327068E-002  0.1249991E+03  0.7818608E-02  0.1235071E+00
         -4   -1    0    0    0  501 -0.00000000000E+00  0.00000000000E+00  0.15973750158E+03  0.15974255009E+03  0.12700000000E+01 0. -1.
          4   -1    0    0  501    0  0.00000000000E+00 -0.00000000000E+00 -0.24431894786E+02  0.24464880601E+02  0.12700000000E+01 0. -1.
         25    2    1    2    0    0  0.00000000000E+00  0.00000000000E+00  0.13530560679E+03  0.18420743070E+03  0.12499908117E+03 0.  0.
    9000005    1    3    3    0    0 -0.44681060211E+02  0.21097523833E+02  0.12403277664E+03  0.13351641223E+03  0.10000000000E+01 0.  0.
    9000005    1    3    3    0    0  0.44681060211E+02 -0.21097523833E+02  0.11272830153E+02  0.50691018466E+02  0.10000000000E+01 0.  0.
<mgrwt>
<rscale>  0 0.12499908E+03</rscale>
<asrwt>0</asrwt>
<pdfrwt beam="2">  1        4 0.37616788E-02 0.12499908E+03</pdfrwt>
<pdfrwt beam="1">  1       -4 0.24577926E-01 0.12499908E+03</pdfrwt>
<totfact> 0.92867000E+03</totfact>
</mgrwt>
</event>
<event>
 5    1  0.3327068E-002  0.1250272E+03  0.7818608E-02  0.1235027E+00
          4   -1    0    0  501    0  0.00000000000E+00  0.00000000000E+00  0.47709347014E+02  0.47726247417E+02  0.12700000000E+01 0. -1.
         -4   -1    0    0    0  501 -0.00000000000E+00 -0.00000000000E+00 -0.81875304448E+02  0.81885153590E+02  0.12700000000E+01 0. -1.
         25    2    1    2    0    0  0.00000000000E+00  0.00000000000E+00 -0.34165957435E+02  0.12961140101E+03  0.12502720753E+03 0.  0.
    9000005    1    3    3    0    0 -0.37117924610E+02 -0.40642938621E+02  0.13623361074E+02  0.56711416435E+02  0.10000000000E+01 0.  0.
    9000005    1    3    3    0    0  0.37117924610E+02  0.40642938621E+02 -0.47789318508E+02  0.72899984572E+02  0.10000000000E+01 0.  0.
<mgrwt>
<rscale>  0 0.12502721E+03</rscale>
<asrwt>0</asrwt>
<pdfrwt beam="1">  1        4 0.73419572E-02 0.12502721E+03</pdfrwt>
<pdfrwt beam="2">  1       -4 0.12598258E-01 0.12502721E+03</pdfrwt>
<totfact> 0.10346472E+04</totfact>
</mgrwt>
</event>
<event>
 5    1  0.3327068E-002  0.1249990E+03  0.7818608E-02  0.1235071E+00
         -4   -1    0    0    0  501 -0.00000000000E+00  0.00000000000E+00  0.36481195311E+03  0.36481416369E+03  0.12700000000E+01 0. -1.
          4   -1    0    0  501    0  0.00000000000E+00 -0.00000000000E+00 -0.10667490945E+02  0.10742823793E+02  0.12700000000E+01 0. -1.
         25    2    1    2    0    0  0.00000000000E+00  0.00000000000E+00  0.35414446216E+03  0.37555698749E+03  0.12499900307E+03 0.  0.
    9000005    1    3    3    0    0  0.45526105213E+02 -0.34554384930E+02  0.10115003450E+03  0.11618503024E+03  0.10000000000E+01 0.  0.
    9000005    1    3    3    0    0 -0.45526105213E+02  0.34554384930E+02  0.25299442767E+03  0.25937195724E+03  0.10000000000E+01 0.  0.
<mgrwt>
<rscale>  0 0.12499900E+03</rscale>
<asrwt>0</asrwt>
<pdfrwt beam="2">  1        4 0.16471170E-02 0.12499900E+03</pdfrwt>
<pdfrwt beam="1">  1       -4 0.56130892E-01 0.12499900E+03</pdfrwt>
<totfact> 0.67003019E+03</totfact>
</mgrwt>
</event>
<event>
 5    1  0.3327068E-002  0.1250001E+03  0.7818608E-02  0.1235069E+00
         -4   -1    0    0    0  501 -0.00000000000E+00  0.00000000000E+00  0.22900903520E+03  0.22901255665E+03  0.12700000000E+01 0.  1.
          4   -1    0    0  501    0  0.00000000000E+00 -0.00000000000E+00 -0.17029912862E+02  0.17077202116E+02  0.12700000000E+01 0.  1.
         25    2    1    2    0    0  0.00000000000E+00  0.00000000000E+00  0.21197912234E+03  0.24608975877E+03  0.12500008425E+03 0.  0.
    9000005    1    3    3    0    0  0.92436632744E+01  0.45344748967E+02  0.23311340322E+02  0.51826732071E+02  0.10000000000E+01 0.  0.
    9000005    1    3    3    0    0 -0.92436632744E+01 -0.45344748967E+02  0.18866778202E+03  0.19426302670E+03  0.10000000000E+01 0.  0.
<mgrwt>
<rscale>  0 0.12500008E+03</rscale>
<asrwt>0</asrwt>
<pdfrwt beam="2">  1        4 0.26238951E-02 0.12500008E+03</pdfrwt>
<pdfrwt beam="1">  1       -4 0.35236068E-01 0.12500008E+03</pdfrwt>
<totfact> 0.82898528E+03</totfact>
</mgrwt>
</event>
<event>
 5    1  0.3327068E-002  0.1250142E+03  0.7818608E-02  0.1235047E+00
         -4   -1    0    0    0  501 -0.00000000000E+00  0.00000000000E+00  0.11664424915E+02  0.11733358795E+02  0.12700000000E+01 0.  1.
          4   -1    0    0  501    0  0.00000000000E+00 -0.00000000000E+00 -0.33390480229E+03  0.33390721749E+03  0.12700000000E+01 0.  1.
         25    2    1    2    0    0  0.00000000000E+00  0.00000000000E+00 -0.32224037737E+03  0.34564057628E+03  0.12501418785E+03 0.  0.
    9000005    1    3    3    0    0 -0.60379659809E+02 -0.64741185596E+01 -0.12024965784E+03  0.13471673148E+03  0.10000000000E+01 0.  0.
    9000005    1    3    3    0    0  0.60379659809E+02  0.64741185596E+01 -0.20199071953E+03  0.21092384480E+03  0.10000000000E+01 0.  0.
<mgrwt>
<rscale>  0 0.12501419E+03</rscale>
<asrwt>0</asrwt>
<pdfrwt beam="2">  1        4 0.51375451E-01 0.12501419E+03</pdfrwt>
<pdfrwt beam="1">  1       -4 0.18000156E-02 0.12501419E+03</pdfrwt>
<totfact> 0.70184782E+03</totfact>
</mgrwt>
</event>
<event>
 5    1  0.3327068E-002  0.1250115E+03  0.7818608E-02  0.1235051E+00
          4   -1    0    0  501    0  0.00000000000E+00  0.00000000000E+00  0.94842370861E+02  0.94850873536E+02  0.12700000000E+01 0. -1.
         -4   -1    0    0    0  501 -0.00000000000E+00 -0.00000000000E+00 -0.41174192170E+02  0.41193773812E+02  0.12700000000E+01 0. -1.
         25    2    1    2    0    0  0.00000000000E+00  0.00000000000E+00  0.53668178691E+02  0.13604464735E+03  0.12501149014E+03 0.  0.
    9000005    1    3    3    0    0 -0.50990811948E+02  0.23596449557E+02 -0.29514278421E+01  0.56272251253E+02  0.10000000000E+01 0.  0.
    9000005    1    3    3    0    0  0.50990811948E+02 -0.23596449557E+02  0.56619606533E+02  0.79772396095E+02  0.10000000000E+01 0.  0.
<mgrwt>
<rscale>  0 0.12501149E+03</rscale>
<asrwt>0</asrwt>
<pdfrwt beam="1">  1        4 0.14593294E-01 0.12501149E+03</pdfrwt>
<pdfrwt beam="2">  1       -4 0.63366515E-02 0.12501149E+03</pdfrwt>
<totfact> 0.10213453E+04</totfact>
</mgrwt>
</event>
<event>
 5    1  0.3327068E-002  0.1249941E+03  0.7818608E-02  0.1235079E+00
         -4   -1    0    0    0  501 -0.00000000000E+00  0.00000000000E+00  0.49747915948E+03  0.49748078055E+03  0.12700000000E+01 0.  1.
          4   -1    0    0  501    0  0.00000000000E+00 -0.00000000000E+00 -0.77983403848E+01  0.79010766834E+01  0.12700000000E+01 0.  1.
         25    2    1    2    0    0  0.00000000000E+00  0.00000000000E+00  0.48968081909E+03  0.50538185723E+03  0.12499406798E+03 0.  0.
    9000005    1    3    3    0    0  0.44154488249E+01  0.48362248312E+02  0.40384213522E+03  0.40675284071E+03  0.10000000000E+01 0.  0.
    9000005    1    3    3    0    0 -0.44154488249E+01 -0.48362248312E+02  0.85838683873E+02  0.98629016518E+02  0.10000000000E+01 0.  0.
<mgrwt>
<rscale>  0 0.12499407E+03</rscale>
<asrwt>0</asrwt>
<pdfrwt beam="2">  1        4 0.12077722E-02 0.12499407E+03</pdfrwt>
<pdfrwt beam="1">  1       -4 0.76543283E-01 0.12499407E+03</pdfrwt>
<totfact> 0.55456436E+03</totfact>
</mgrwt>
</event>
<event>
 5    1  0.3327068E-002  0.1250024E+03  0.7818608E-02  0.1235066E+00
         -4   -1    0    0    0  501 -0.00000000000E+00  0.00000000000E+00  0.15673897886E+02  0.15725265496E+02  0.12700000000E+01 0. -1.
          4   -1    0    0  501    0  0.00000000000E+00 -0.00000000000E+00 -0.24876891068E+03  0.24877215242E+03  0.12700000000E+01 0. -1.
         25    2    1    2    0    0  0.00000000000E+00  0.00000000000E+00 -0.23309501280E+03  0.26449741792E+03  0.12500239636E+03 0.  0.
    9000005    1    3    3    0    0  0.19676868332E+02 -0.33577675179E+02 -0.22000718402E+03  0.22342515624E+03  0.10000000000E+01 0.  0.
    9000005    1    3    3    0    0 -0.19676868332E+02  0.33577675179E+02 -0.13087828773E+02  0.41072261683E+02  0.10000000000E+01 0.  0.
<mgrwt>
<rscale>  0 0.12500240E+03</rscale>
<asrwt>0</asrwt>
<pdfrwt beam="2">  1        4 0.38276338E-01 0.12500240E+03</pdfrwt>
<pdfrwt beam="1">  1       -4 0.24155698E-02 0.12500240E+03</pdfrwt>
<totfact> 0.80274746E+03</totfact>
</mgrwt>
</event>
<event>
 5    1  0.3327068E-002  0.1250057E+03  0.7818608E-02  0.1235060E+00
          4   -1    0    0  501    0  0.00000000000E+00  0.00000000000E+00  0.13979192221E+02  0.14036762987E+02  0.12700000000E+01 0. -1.
         -4   -1    0    0    0  501 -0.00000000000E+00 -0.00000000000E+00 -0.27882515833E+03  0.27882805063E+03  0.12700000000E+01 0. -1.
         25    2    1    2    0    0  0.00000000000E+00  0.00000000000E+00 -0.26484596611E+03  0.29286481362E+03  0.12500565303E+03 0.  0.
    9000005    1    3    3    0    0 -0.22603843185E+02  0.89435636990E+01  0.24604140528E+01  0.24453521131E+02  0.10000000000E+01 0.  0.
    9000005    1    3    3    0    0  0.22603843185E+02 -0.89435636990E+01 -0.26730638016E+03  0.26841129249E+03  0.10000000000E+01 0.  0.
<mgrwt>
<rscale>  0 0.12500565E+03</rscale>
<asrwt>0</asrwt>
<pdfrwt beam="1">  1        4 0.21552962E-02 0.12500565E+03</pdfrwt>
<pdfrwt beam="2">  1       -4 0.42900825E-01 0.12500565E+03</pdfrwt>
<totfact> 0.76493067E+03</totfact>
</mgrwt>
</event>
<event>
 5    1  0.3327068E-002  0.1249995E+03  0.7818608E-02  0.1235070E+00
         -4   -1    0    0    0  501 -0.00000000000E+00  0.00000000000E+00  0.17998712351E+03  0.17999160405E+03  0.12700000000E+01 0.  1.
          4   -1    0    0  501    0  0.00000000000E+00 -0.00000000000E+00 -0.21679443998E+02  0.21716610970E+02  0.12700000000E+01 0.  1.
         25    2    1    2    0    0  0.00000000000E+00  0.00000000000E+00  0.15830767951E+03  0.20170821502E+03  0.12499953046E+03 0.  0.
    9000005    1    3    3    0    0 -0.74798989281E+01 -0.38540631632E+02  0.69733214885E+00  0.39278689472E+02  0.10000000000E+01 0.  0.
    9000005    1    3    3    0    0  0.74798989281E+01  0.38540631632E+02  0.15761034736E+03  0.16242952555E+03  0.10000000000E+01 0.  0.
<mgrwt>
<rscale>  0 0.12499953E+03</rscale>
<asrwt>0</asrwt>
<pdfrwt beam="2">  1        4 0.33385028E-02 0.12499953E+03</pdfrwt>
<pdfrwt beam="1">  1       -4 0.27693530E-01 0.12499953E+03</pdfrwt>
<totfact> 0.89849143E+03</totfact>
</mgrwt>
</event>
<event>
 5    1  0.3327068E-002  0.1250000E+03  0.7818608E-02  0.1235069E+00
         -4   -1    0    0    0  501 -0.00000000000E+00  0.00000000000E+00  0.96229284542E+03  0.96229368347E+03  0.12700000000E+01 0. -1.
          4   -1    0    0  501    0  0.00000000000E+00 -0.00000000000E+00 -0.39591211831E+01  0.41578288255E+01  0.12700000000E+01 0. -1.
         25    2    1    2    0    0  0.00000000000E+00  0.00000000000E+00  0.95833372424E+03  0.96645151230E+03  0.12499999444E+03 0.  0.
    9000005    1    3    3    0    0  0.57098863728E+02  0.12045998338E+02  0.65202734366E+03  0.65463428202E+03  0.10000000000E+01 0.  0.
    9000005    1    3    3    0    0 -0.57098863728E+02 -0.12045998338E+02  0.30630638058E+03  0.31181723028E+03  0.10000000000E+01 0.  0.
<mgrwt>
<rscale>  0 0.12499999E+03</rscale>
<asrwt>0</asrwt>
<pdfrwt beam="2">  1        4 0.62444460E-03 0.12499999E+03</pdfrwt>
<pdfrwt beam="1">  1       -4 0.14806055E+00 0.12499999E+03</pdfrwt>
<totfact> 0.31738954E+03</totfact>
</mgrwt>
</event>
<event>
 5    1  0.3327068E-002  0.1249990E+03  0.7818608E-02  0.1235071E+00
         -4   -1    0    0    0  501 -0.00000000000E+00  0.00000000000E+00  0.17356738994E+02  0.17403140191E+02  0.12700000000E+01 0. -1.
          4   -1    0    0  501    0  0.00000000000E+00 -0.00000000000E+00 -0.22470460308E+03  0.22470819199E+03  0.12700000000E+01 0. -1.
         25    2    1    2    0    0  0.00000000000E+00  0.00000000000E+00 -0.20734786409E+03  0.24211133218E+03  0.12499904171E+03 0.  0.
    9000005    1    3    3    0    0 -0.25107351744E+02 -0.44539392191E+02 -0.17326933600E+03  0.18065823913E+03  0.10000000000E+01 0.  0.
    9000005    1    3    3    0    0  0.25107351744E+02  0.44539392191E+02 -0.34078528089E+02  0.61453093047E+02  0.10000000000E+01 0.  0.
<mgrwt>
<rscale>  0 0.12499904E+03</rscale>
<asrwt>0</asrwt>
<pdfrwt beam="2">  1        4 0.34573782E-01 0.12499904E+03</pdfrwt>
<pdfrwt beam="1">  1       -4 0.26741131E-02 0.12499904E+03</pdfrwt>
<totfact> 0.83485708E+03</totfact>
</mgrwt>
</event>
<event>
 5    1  0.3327068E-002  0.1249511E+03  0.7818608E-02  0.1235146E+00
         -4   -1    0    0    0  501 -0.00000000000E+00  0.00000000000E+00  0.79562342595E+03  0.79562443956E+03  0.12700000000E+01 0. -1.
          4   -1    0    0  501    0  0.00000000000E+00 -0.00000000000E+00 -0.48226005680E+01  0.49870207778E+01  0.12700000000E+01 0. -1.
         25    2    1    2    0    0  0.00000000000E+00  0.00000000000E+00  0.79080082539E+03  0.80061146034E+03  0.12495105039E+03 0.  0.
    9000005    1    3    3    0    0  0.44749504184E+01 -0.24360540023E+02  0.27952308067E+02  0.37360308052E+02  0.10000000000E+01 0.  0.
    9000005    1    3    3    0    0 -0.44749504184E+01  0.24360540023E+02  0.76284851732E+03  0.76325115229E+03  0.10000000000E+01 0.  0.
<mgrwt>
<rscale>  0 0.12495105E+03</rscale>
<asrwt>0</asrwt>
<pdfrwt beam="2">  1        4 0.75466440E-03 0.12495105E+03</pdfrwt>
<pdfrwt beam="1">  1       -4 0.12241630E+00 0.12495105E+03</pdfrwt>
<totfact> 0.38278369E+03</totfact>
</mgrwt>
</event>
<event>
 5    1  0.3327068E-002  0.1249905E+03  0.7818608E-02  0.1235084E+00
         -4   -1    0    0    0  501 -0.00000000000E+00  0.00000000000E+00  0.24761246587E+02  0.24793794235E+02  0.12700000000E+01 0.  1.
          4   -1    0    0  501    0  0.00000000000E+00 -0.00000000000E+00 -0.15759383113E+03  0.15759894832E+03  0.12700000000E+01 0.  1.
         25    2    1    2    0    0  0.00000000000E+00  0.00000000000E+00 -0.13283258454E+03  0.18239274255E+03  0.12499046771E+03 0.  0.
    9000005    1    3    3    0    0  0.33085700372E+02 -0.34205558964E+02 -0.73215737896E+01  0.48158999947E+02  0.10000000000E+01 0.  0.
    9000005    1    3    3    0    0 -0.33085700372E+02  0.34205558964E+02 -0.12551101075E+03  0.13423374260E+03  0.10000000000E+01 0.  0.
<mgrwt>
<rscale>  0 0.12499047E+03</rscale>
<asrwt>0</asrwt>
<pdfrwt beam="2">  1        4 0.24248101E-01 0.12499047E+03</pdfrwt>
<pdfrwt beam="1">  1       -4 0.38123200E-02 0.12499047E+03</pdfrwt>
<totfact> 0.93207982E+03</totfact>
</mgrwt>
</event>
<event>
 4    1  0.3327068E-002  0.1251254E+03  0.7818608E-02  0.1234873E+00
          4   -1    0    0  501    0  0.00000000000E+00  0.00000000000E+00  0.21241653238E+04  0.21241657034E+04  0.12700000000E+01 0. -1.
         -4   -1    0    0    0  501 -0.00000000000E+00 -0.00000000000E+00 -0.16233958344E+01  0.20611438657E+01  0.12700000000E+01 0. -1.
    9000005    1    1    2    0    0 -0.26910637684E+02 -0.49898463927E+02  0.15105531997E+04  0.15116170178E+04  0.10000000000E+01 0.  0.
    9000005    1    1    2    0    0  0.26910637684E+02  0.49898463927E+02  0.61198872820E+03  0.61460982954E+03  0.10000000000E+01 0.  0.
<mgrwt>
<rscale>  0 0.12512542E+03</rscale>
<asrwt>0</asrwt>
<pdfrwt beam="1">  1        4 0.32682957E+00 0.12512542E+03</pdfrwt>
<pdfrwt beam="2">  1       -4 0.28345429E-03 0.12512542E+03</pdfrwt>
<totfact> 0.82793516E+02</totfact>
</mgrwt>
</event>
<event>
 5    1  0.3327068E-002  0.1249991E+03  0.7818608E-02  0.1235071E+00
          4   -1    0    0  501    0  0.00000000000E+00  0.00000000000E+00  0.37943870504E+03  0.37944083041E+03  0.12700000000E+01 0. -1.
         -4   -1    0    0    0  501 -0.00000000000E+00 -0.00000000000E+00 -0.10253330111E+02  0.10331683230E+02  0.12700000000E+01 0. -1.
         25    2    1    2    0    0  0.00000000000E+00  0.00000000000E+00  0.36918537493E+03  0.38977251364E+03  0.12499908531E+03 0.  0.
    9000005    1    3    3    0    0 -0.26768957899E+02  0.54609907452E+02  0.13979747663E+03  0.15245705484E+03  0.10000000000E+01 0.  0.
    9000005    1    3    3    0    0  0.26768957899E+02 -0.54609907452E+02  0.22938789830E+03  0.23731545880E+03  0.10000000000E+01 0.  0.
<mgrwt>
<rscale>  0 0.12499909E+03</rscale>
<asrwt>0</asrwt>
<pdfrwt beam="1">  1        4 0.58381384E-01 0.12499909E+03</pdfrwt>
<pdfrwt beam="2">  1       -4 0.15836258E-02 0.12499909E+03</pdfrwt>
<totfact> 0.65561125E+03</totfact>
</mgrwt>
</event>
<event>
 5    1  0.3327068E-002  0.1250113E+03  0.7818608E-02  0.1235052E+00
          4   -1    0    0  501    0  0.00000000000E+00  0.00000000000E+00  0.56131650084E+03  0.56131793755E+03  0.12700000000E+01 0.  1.
         -4   -1    0    0    0  501 -0.00000000000E+00 -0.00000000000E+00 -0.69009517445E+01  0.70168393868E+01  0.12700000000E+01 0.  1.
         25    2    1    2    0    0  0.00000000000E+00  0.00000000000E+00  0.55441554910E+03  0.56833477694E+03  0.12501126988E+03 0.  0.
    9000005    1    3    3    0    0  0.46066854750E+02  0.30205321451E+02  0.14300135992E+03  0.15324785640E+03  0.10000000000E+01 0.  0.
    9000005    1    3    3    0    0 -0.46066854750E+02 -0.30205321451E+02  0.41141418917E+03  0.41508692054E+03  0.10000000000E+01 0.  0.
<mgrwt>
<rscale>  0 0.12501127E+03</rscale>
<asrwt>0</asrwt>
<pdfrwt beam="1">  1        4 0.86365427E-01 0.12501127E+03</pdfrwt>
<pdfrwt beam="2">  1       -4 0.10707096E-02 0.12501127E+03</pdfrwt>
<totfact> 0.50916822E+03</totfact>
</mgrwt>
</event>
<event>
 5    1  0.3327068E-002  0.1249998E+03  0.7818608E-02  0.1235070E+00
         -4   -1    0    0    0  501 -0.00000000000E+00  0.00000000000E+00  0.11837127697E+01  0.17361094208E+01  0.12700000000E+01 0.  1.
          4   -1    0    0  501    0  0.00000000000E+00 -0.00000000000E+00 -0.26751164511E+04  0.26751167525E+04  0.12700000000E+01 0.  1.
         25    2    1    2    0    0  0.00000000000E+00  0.00000000000E+00 -0.26739327383E+04  0.26768528620E+04  0.12499982240E+03 0.  0.
    9000005    1    3    3    0    0  0.33392163877E+01  0.38985314358E+02 -0.29350387000E+03  0.29610222358E+03  0.10000000000E+01 0.  0.
    9000005    1    3    3    0    0 -0.33392163877E+01 -0.38985314358E+02 -0.23804288683E+04  0.23807506384E+04  0.10000000000E+01 0.  0.
<mgrwt>
<rscale>  0 0.12499982E+03</rscale>
<asrwt>0</asrwt>
<pdfrwt beam="2">  1        4 0.41159497E+00 0.12499982E+03</pdfrwt>
<pdfrwt beam="1">  1       -4 0.22462704E-03 0.12499982E+03</pdfrwt>
<totfact> 0.34244148E+02</totfact>
</mgrwt>
</event>
<event>
 5    1  0.3327068E-002  0.1250001E+03  0.7818608E-02  0.1235069E+00
         -4   -1    0    0    0  501 -0.00000000000E+00  0.00000000000E+00  0.80545944276E+03  0.80546044399E+03  0.12700000000E+01 0.  1.
          4   -1    0    0  501    0  0.00000000000E+00 -0.00000000000E+00 -0.47655593828E+01  0.49318816117E+01  0.12700000000E+01 0.  1.
         25    2    1    2    0    0  0.00000000000E+00  0.00000000000E+00  0.80069388338E+03  0.81039232560E+03  0.12500010606E+03 0.  0.
    9000005    1    3    3    0    0 -0.37905344630E+02  0.21218378313E+02  0.69159926288E+03  0.69296289594E+03  0.10000000000E+01 0.  0.
    9000005    1    3    3    0    0  0.37905344630E+02 -0.21218378313E+02  0.10909462050E+03  0.11742942967E+03  0.10000000000E+01 0.  0.
<mgrwt>
<rscale>  0 0.12500011E+03</rscale>
<asrwt>0</asrwt>
<pdfrwt beam="2">  1        4 0.74603435E-03 0.12500011E+03</pdfrwt>
<pdfrwt beam="1">  1       -4 0.12392965E+00 0.12500011E+03</pdfrwt>
<totfact> 0.37804903E+03</totfact>
</mgrwt>
</event>
<event>
 5    1  0.3327068E-002  0.1249966E+03  0.7818608E-02  0.1235075E+00
         -4   -1    0    0    0  501 -0.00000000000E+00  0.00000000000E+00  0.17579864470E+02  0.17625678279E+02  0.12700000000E+01 0. -1.
          4   -1    0    0  501    0  0.00000000000E+00 -0.00000000000E+00 -0.22185129878E+03  0.22185493384E+03  0.12700000000E+01 0. -1.
         25    2    1    2    0    0  0.00000000000E+00  0.00000000000E+00 -0.20427143431E+03  0.23948061212E+03  0.12499657878E+03 0.  0.
    9000005    1    3    3    0    0  0.31465007308E+02 -0.30488692779E+02 -0.16766868314E+02  0.46922648533E+02  0.10000000000E+01 0.  0.
    9000005    1    3    3    0    0 -0.31465007308E+02  0.30488692779E+02 -0.18750456599E+03  0.19255796359E+03  0.10000000000E+01 0.  0.
<mgrwt>
<rscale>  0 0.12499658E+03</rscale>
<asrwt>0</asrwt>
<pdfrwt beam="2">  1        4 0.34134771E-01 0.12499658E+03</pdfrwt>
<pdfrwt beam="1">  1       -4 0.27083984E-02 0.12499658E+03</pdfrwt>
<totfact> 0.83881180E+03</totfact>
</mgrwt>
</event>
<event>
 5    1  0.3327068E-002  0.1249970E+03  0.7818608E-02  0.1235074E+00
          4   -1    0    0  501    0  0.00000000000E+00  0.00000000000E+00  0.10840111408E+03  0.10840855332E+03  0.12700000000E+01 0. -1.
         -4   -1    0    0    0  501 -0.00000000000E+00 -0.00000000000E+00 -0.36013563515E+02  0.36035949509E+02  0.12700000000E+01 0. -1.
         25    2    1    2    0    0  0.00000000000E+00  0.00000000000E+00  0.72387550566E+02  0.14444450283E+03  0.12499702765E+03 0.  0.
    9000005    1    3    3    0    0 -0.13506035334E+01 -0.62206765290E+02  0.42888030986E+02  0.75577040029E+02  0.10000000000E+01 0.  0.
    9000005    1    3    3    0    0  0.13506035334E+01  0.62206765290E+02  0.29499519579E+02  0.68867462804E+02  0.10000000000E+01 0.  0.
<mgrwt>
<rscale>  0 0.12499703E+03</rscale>
<asrwt>0</asrwt>
<pdfrwt beam="1">  1        4 0.16679389E-01 0.12499703E+03</pdfrwt>
<pdfrwt beam="2">  1       -4 0.55428425E-02 0.12499703E+03</pdfrwt>
<totfact> 0.10042959E+04</totfact>
</mgrwt>
</event>
<event>
 5    1  0.3327068E-002  0.1249878E+03  0.7818608E-02  0.1235088E+00
          4   -1    0    0  501    0  0.00000000000E+00  0.00000000000E+00  0.11396094075E+03  0.11396801707E+03  0.12700000000E+01 0.  1.
         -4   -1    0    0    0  501 -0.00000000000E+00 -0.00000000000E+00 -0.34250515656E+02  0.34274053200E+02  0.12700000000E+01 0.  1.
         25    2    1    2    0    0  0.00000000000E+00  0.00000000000E+00  0.79710425089E+02  0.14824207027E+03  0.12498783753E+03 0.  0.
    9000005    1    3    3    0    0  0.61261112307E+02  0.11990947651E+02  0.36546323947E+02  0.72341830918E+02  0.10000000000E+01 0.  0.
    9000005    1    3    3    0    0 -0.61261112307E+02 -0.11990947651E+02  0.43164101142E+02  0.75900239354E+02  0.10000000000E+01 0.  0.
<mgrwt>
<rscale>  0 0.12498784E+03</rscale>
<asrwt>0</asrwt>
<pdfrwt beam="1">  1        4 0.17534807E-01 0.12498784E+03</pdfrwt>
<pdfrwt beam="2">  1       -4 0.52716650E-02 0.12498784E+03</pdfrwt>
<totfact> 0.99682564E+03</totfact>
</mgrwt>
</event>
<event>
 5    1  0.3327068E-002  0.1249922E+03  0.7818608E-02  0.1235081E+00
          4   -1    0    0  501    0  0.00000000000E+00  0.00000000000E+00  0.21536512100E+03  0.21536886554E+03  0.12700000000E+01 0.  1.
         -4   -1    0    0    0  501 -0.00000000000E+00 -0.00000000000E+00 -0.18109402380E+02  0.18153879876E+02  0.12700000000E+01 0.  1.
         25    2    1    2    0    0  0.00000000000E+00  0.00000000000E+00  0.19725571862E+03  0.23352274541E+03  0.12499221615E+03 0.  0.
    9000005    1    3    3    0    0  0.33166654388E+02  0.27273794010E+02  0.18344277337E+03  0.18840418759E+03  0.10000000000E+01 0.  0.
    9000005    1    3    3    0    0 -0.33166654388E+02 -0.27273794010E+02  0.13812945253E+02  0.45118557818E+02  0.10000000000E+01 0.  0.
<mgrwt>
<rscale>  0 0.12499222E+03</rscale>
<asrwt>0</asrwt>
<pdfrwt beam="1">  1        4 0.33136805E-01 0.12499222E+03</pdfrwt>
<pdfrwt beam="2">  1       -4 0.27897713E-02 0.12499222E+03</pdfrwt>
<totfact> 0.84786314E+03</totfact>
</mgrwt>
</event>
<event>
 5    1  0.3327068E-002  0.1250045E+03  0.7818608E-02  0.1235062E+00
          4   -1    0    0  501    0  0.00000000000E+00  0.00000000000E+00  0.20790443426E+02  0.20829196764E+02  0.12700000000E+01 0.  1.
         -4   -1    0    0    0  501 -0.00000000000E+00 -0.00000000000E+00 -0.18768455330E+03  0.18768885009E+03  0.12700000000E+01 0.  1.
         25    2    1    2    0    0  0.00000000000E+00  0.00000000000E+00 -0.16689410988E+03  0.20851804686E+03  0.12500452773E+03 0.  0.
    9000005    1    3    3    0    0 -0.22859712865E+02  0.56579926406E+02 -0.10593084934E+03  0.12225464975E+03  0.10000000000E+01 0.  0.
    9000005    1    3    3    0    0  0.22859712865E+02 -0.56579926406E+02 -0.60963260539E+02  0.86263397104E+02  0.10000000000E+01 0.  0.
<mgrwt>
<rscale>  0 0.12500453E+03</rscale>
<asrwt>0</asrwt>
<pdfrwt beam="1">  1        4 0.32018414E-02 0.12500453E+03</pdfrwt>
<pdfrwt beam="2">  1       -4 0.28877857E-01 0.12500453E+03</pdfrwt>
<totfact> 0.88709496E+03</totfact>
</mgrwt>
</event>
<event>
 5    1  0.3327068E-002  0.1250025E+03  0.7818608E-02  0.1235065E+00
          4   -1    0    0  501    0  0.00000000000E+00  0.00000000000E+00  0.25352919946E+01  0.28355961450E+01  0.12700000000E+01 0.  1.
         -4   -1    0    0    0  501 -0.00000000000E+00 -0.00000000000E+00 -0.14543598242E+04  0.14543603787E+04  0.12700000000E+01 0.  1.
         25    2    1    2    0    0  0.00000000000E+00  0.00000000000E+00 -0.14518245322E+04  0.14571959749E+04  0.12500254720E+03 0.  0.
    9000005    1    3    3    0    0 -0.12920509226E+02  0.40121714623E+02 -0.12637584995E+04  0.12644616391E+04  0.10000000000E+01 0.  0.
    9000005    1    3    3    0    0  0.12920509226E+02 -0.40121714623E+02 -0.18806603270E+03  0.19273433581E+03  0.10000000000E+01 0.  0.
<mgrwt>
<rscale>  0 0.12500255E+03</rscale>
<asrwt>0</asrwt>
<pdfrwt beam="1">  1        4 0.41318906E-03 0.12500255E+03</pdfrwt>
<pdfrwt beam="2">  1       -4 0.22377018E+00 0.12500255E+03</pdfrwt>
<totfact> 0.18784864E+03</totfact>
</mgrwt>
</event>
<event>
 5    1  0.3327068E-002  0.1250000E+03  0.7818608E-02  0.1235069E+00
         -4   -1    0    0    0  501 -0.00000000000E+00  0.00000000000E+00  0.96016930739E+01  0.96853192971E+01  0.12700000000E+01 0. -1.
          4   -1    0    0  501    0  0.00000000000E+00 -0.00000000000E+00 -0.40498088954E+03  0.40498288086E+03  0.12700000000E+01 0. -1.
         25    2    1    2    0    0  0.00000000000E+00  0.00000000000E+00 -0.39537919647E+03  0.41466820016E+03  0.12500002891E+03 0.  0.
    9000005    1    3    3    0    0 -0.48395586317E+02 -0.39528037002E+02 -0.19500824281E+03  0.20477747251E+03  0.10000000000E+01 0.  0.
    9000005    1    3    3    0    0  0.48395586317E+02  0.39528037002E+02 -0.20037095365E+03  0.20989072765E+03  0.10000000000E+01 0.  0.
<mgrwt>
<rscale>  0 0.12500003E+03</rscale>
<asrwt>0</asrwt>
<pdfrwt beam="2">  1        4 0.62311325E-01 0.12500003E+03</pdfrwt>
<pdfrwt beam="1">  1       -4 0.14837698E-02 0.12500003E+03</pdfrwt>
<totfact> 0.63150714E+03</totfact>
</mgrwt>
</event>
<event>
 5    1  0.3327068E-002  0.1250428E+03  0.7818608E-02  0.1235002E+00
          4   -1    0    0  501    0  0.00000000000E+00  0.00000000000E+00  0.35805753096E+03  0.35805978324E+03  0.12700000000E+01 0. -1.
         -4   -1    0    0    0  501 -0.00000000000E+00 -0.00000000000E+00 -0.10877799064E+02  0.10951685371E+02  0.12700000000E+01 0. -1.
         25    2    1    2    0    0  0.00000000000E+00  0.00000000000E+00  0.34717973190E+03  0.36901146862E+03  0.12504278360E+03 0.  0.
    9000005    1    3    3    0    0  0.19614670720E+01  0.36762699779E+02  0.32268758370E+03  0.32478241966E+03  0.10000000000E+01 0.  0.
    9000005    1    3    3    0    0 -0.19614670720E+01 -0.36762699779E+02  0.24492148200E+02  0.44229048956E+02  0.10000000000E+01 0.  0.
<mgrwt>
<rscale>  0 0.12504278E+03</rscale>
<asrwt>0</asrwt>
<pdfrwt beam="1">  1        4 0.55091627E-01 0.12504278E+03</pdfrwt>
<pdfrwt beam="2">  1       -4 0.16793645E-02 0.12504278E+03</pdfrwt>
<totfact> 0.67618502E+03</totfact>
</mgrwt>
</event>
<event>
 5    1  0.3327068E-002  0.1250025E+03  0.7818608E-02  0.1235065E+00
          4   -1    0    0  501    0  0.00000000000E+00  0.00000000000E+00  0.14577053079E+01  0.19333403127E+01  0.12700000000E+01 0.  1.
         -4   -1    0    0    0  501 -0.00000000000E+00 -0.00000000000E+00 -0.23034762831E+04  0.23034766332E+04  0.12700000000E+01 0.  1.
         25    2    1    2    0    0  0.00000000000E+00  0.00000000000E+00 -0.23020185778E+04  0.23054099735E+04  0.12500245389E+03 0.  0.
    9000005    1    3    3    0    0 -0.56985230253E+02 -0.21486050157E+02 -0.89252105505E+03  0.89459700453E+03  0.10000000000E+01 0.  0.
    9000005    1    3    3    0    0  0.56985230253E+02  0.21486050157E+02 -0.14094975227E+04  0.14108129689E+04  0.10000000000E+01 0.  0.
<mgrwt>
<rscale>  0 0.12500245E+03</rscale>
<asrwt>0</asrwt>
<pdfrwt beam="1">  1        4 0.26087844E-03 0.12500245E+03</pdfrwt>
<pdfrwt beam="2">  1       -4 0.35441508E+00 0.12500245E+03</pdfrwt>
<totfact> 0.63830209E+02</totfact>
</mgrwt>
</event>
<event>
 5    1  0.3327068E-002  0.1250019E+03  0.7818608E-02  0.1235066E+00
         -4   -1    0    0    0  501 -0.00000000000E+00  0.00000000000E+00  0.28401961980E+03  0.28402245920E+03  0.12700000000E+01 0.  1.
          4   -1    0    0  501    0  0.00000000000E+00 -0.00000000000E+00 -0.13721628373E+02  0.13780275222E+02  0.12700000000E+01 0.  1.
         25    2    1    2    0    0  0.00000000000E+00  0.00000000000E+00  0.27029799143E+03  0.29780273442E+03  0.12500185783E+03 0.  0.
    9000005    1    3    3    0    0  0.89936778515E+00 -0.59313862609E+02  0.18198110000E+03  0.19140810828E+03  0.10000000000E+01 0.  0.
    9000005    1    3    3    0    0 -0.89936778515E+00  0.59313862609E+02  0.88316891430E+02  0.10639462614E+03  0.10000000000E+01 0.  0.
<mgrwt>
<rscale>  0 0.12500186E+03</rscale>
<asrwt>0</asrwt>
<pdfrwt beam="2">  1        4 0.21157495E-02 0.12500186E+03</pdfrwt>
<pdfrwt beam="1">  1       -4 0.43700055E-01 0.12500186E+03</pdfrwt>
<totfact> 0.75872158E+03</totfact>
</mgrwt>
</event>
<event>
 5    1  0.3327068E-002  0.1250010E+03  0.7818608E-02  0.1235068E+00
          4   -1    0    0  501    0  0.00000000000E+00  0.00000000000E+00  0.17770304101E+03  0.17770757914E+03  0.12700000000E+01 0.  1.
         -4   -1    0    0    0  501 -0.00000000000E+00 -0.00000000000E+00 -0.21959089218E+02  0.21995783671E+02  0.12700000000E+01 0.  1.
         25    2    1    2    0    0  0.00000000000E+00  0.00000000000E+00  0.15574395179E+03  0.19970336281E+03  0.12500101839E+03 0.  0.
    9000005    1    3    3    0    0  0.41097042920E+02  0.10675585500E+02  0.15112529192E+03  0.15698021825E+03  0.10000000000E+01 0.  0.
    9000005    1    3    3    0    0 -0.41097042920E+02 -0.10675585500E+02  0.46186598700E+01  0.42723144565E+02  0.10000000000E+01 0.  0.
<mgrwt>
<rscale>  0 0.12500102E+03</rscale>
<asrwt>0</asrwt>
<pdfrwt beam="1">  1        4 0.27342103E-01 0.12500102E+03</pdfrwt>
<pdfrwt beam="2">  1       -4 0.33814930E-02 0.12500102E+03</pdfrwt>
<totfact> 0.90183503E+03</totfact>
</mgrwt>
</event>
<event>
 5    1  0.3327068E-002  0.1249973E+03  0.7818608E-02  0.1235074E+00
         -4   -1    0    0    0  501 -0.00000000000E+00  0.00000000000E+00  0.49375253466E+02  0.49391583846E+02  0.12700000000E+01 0.  1.
          4   -1    0    0  501    0  0.00000000000E+00 -0.00000000000E+00 -0.79075588812E+02  0.79085786624E+02  0.12700000000E+01 0.  1.
         25    2    1    2    0    0  0.00000000000E+00  0.00000000000E+00 -0.29700335346E+02  0.12847737047E+03  0.12499729918E+03 0.  0.
    9000005    1    3    3    0    0  0.42999368353E+02 -0.19447541640E+02 -0.56953139777E+02  0.73971701921E+02  0.10000000000E+01 0.  0.
    9000005    1    3    3    0    0 -0.42999368353E+02  0.19447541640E+02  0.27252804431E+02  0.54505668549E+02  0.10000000000E+01 0.  0.
<mgrwt>
<rscale>  0 0.12499730E+03</rscale>
<asrwt>0</asrwt>
<pdfrwt beam="2">  1        4 0.12167516E-01 0.12499730E+03</pdfrwt>
<pdfrwt beam="1">  1       -4 0.75982335E-02 0.12499730E+03</pdfrwt>
<totfact> 0.10377824E+04</totfact>
</mgrwt>
</event>
<event>
 5    1  0.3327068E-002  0.1250012E+03  0.7818608E-02  0.1235067E+00
          4   -1    0    0  501    0  0.00000000000E+00  0.00000000000E+00  0.15333600579E+03  0.15334126506E+03  0.12700000000E+01 0.  1.
         -4   -1    0    0    0  501 -0.00000000000E+00 -0.00000000000E+00 -0.25454044378E+02  0.25485707272E+02  0.12700000000E+01 0.  1.
         25    2    1    2    0    0  0.00000000000E+00  0.00000000000E+00  0.12788196141E+03  0.17882697233E+03  0.12500115992E+03 0.  0.
    9000005    1    3    3    0    0 -0.31659530484E+02  0.14931068767E+02  0.13800226244E+03  0.14237586566E+03  0.10000000000E+01 0.  0.
    9000005    1    3    3    0    0  0.31659530484E+02 -0.14931068767E+02 -0.10120301026E+02  0.36451106675E+02  0.10000000000E+01 0.  0.
<mgrwt>
<rscale>  0 0.12500116E+03</rscale>
<asrwt>0</asrwt>
<pdfrwt beam="1">  1        4 0.23592996E-01 0.12500116E+03</pdfrwt>
<pdfrwt beam="2">  1       -4 0.39188469E-02 0.12500116E+03</pdfrwt>
<totfact> 0.93826138E+03</totfact>
</mgrwt>
</event>
<event>
 5    1  0.3327068E-002  0.1250021E+03  0.7818608E-02  0.1235066E+00
          4   -1    0    0  501    0  0.00000000000E+00  0.00000000000E+00  0.75339630499E+02  0.75350333932E+02  0.12700000000E+01 0.  1.
         -4   -1    0    0    0  501 -0.00000000000E+00 -0.00000000000E+00 -0.51828120233E+02  0.51843677984E+02  0.12700000000E+01 0.  1.
         25    2    1    2    0    0  0.00000000000E+00  0.00000000000E+00  0.23511510266E+02  0.12719401192E+03  0.12500210219E+03 0.  0.
    9000005    1    3    3    0    0 -0.17883468269E+02  0.56335680797E+02 -0.88942899351E+01  0.59779894293E+02  0.10000000000E+01 0.  0.
    9000005    1    3    3    0    0  0.17883468269E+02 -0.56335680797E+02  0.32405800201E+02  0.67414117623E+02  0.10000000000E+01 0.  0.
<mgrwt>
<rscale>  0 0.12500210E+03</rscale>
<asrwt>0</asrwt>
<pdfrwt beam="1">  1        4 0.11592732E-01 0.12500210E+03</pdfrwt>
<pdfrwt beam="2">  1       -4 0.79755771E-02 0.12500210E+03</pdfrwt>
<totfact> 0.10404440E+04</totfact>
</mgrwt>
</event>
<event>
 5    1  0.3327068E-002  0.1249992E+03  0.7818608E-02  0.1235071E+00
          4   -1    0    0  501    0  0.00000000000E+00  0.00000000000E+00  0.99588110219E+01  0.10039462982E+02  0.12700000000E+01 0. -1.
         -4   -1    0    0    0  501 -0.00000000000E+00 -0.00000000000E+00 -0.39057203020E+03  0.39057409499E+03  0.12700000000E+01 0. -1.
         25    2    1    2    0    0  0.00000000000E+00  0.00000000000E+00 -0.38061321918E+03  0.40061355797E+03  0.12499920086E+03 0.  0.
    9000005    1    3    3    0    0 -0.43986422242E+02 -0.10430680992E+02 -0.32858715352E+03  0.33168376792E+03  0.10000000000E+01 0.  0.
    9000005    1    3    3    0    0  0.43986422242E+02  0.10430680992E+02 -0.52026065666E+02  0.68929790050E+02  0.10000000000E+01 0.  0.
<mgrwt>
<rscale>  0 0.12499920E+03</rscale>
<asrwt>0</asrwt>
<pdfrwt beam="1">  1        4 0.15384879E-02 0.12499920E+03</pdfrwt>
<pdfrwt beam="2">  1       -4 0.60094356E-01 0.12499920E+03</pdfrwt>
<totfact> 0.64494302E+03</totfact>
</mgrwt>
</event>
<event>
 5    1  0.3327068E-002  0.1249997E+03  0.7818608E-02  0.1235070E+00
         -4   -1    0    0    0  501 -0.00000000000E+00  0.00000000000E+00  0.18963134502E+01  0.22823025000E+01  0.12700000000E+01 0.  1.
          4   -1    0    0  501    0  0.00000000000E+00 -0.00000000000E+00 -0.18692439709E+04  0.18692444024E+04  0.12700000000E+01 0.  1.
         25    2    1    2    0    0  0.00000000000E+00  0.00000000000E+00 -0.18673476575E+04  0.18715267049E+04  0.12499973245E+03 0.  0.
    9000005    1    3    3    0    0  0.21691167899E+01 -0.59224856730E+02 -0.12304660971E+04  0.12318928950E+04  0.10000000000E+01 0.  0.
    9000005    1    3    3    0    0 -0.21691167899E+01  0.59224856730E+02 -0.63688156039E+03  0.63963380984E+03  0.10000000000E+01 0.  0.
<mgrwt>
<rscale>  0 0.12499973E+03</rscale>
<asrwt>0</asrwt>
<pdfrwt beam="2">  1        4 0.28760438E+00 0.12499973E+03</pdfrwt>
<pdfrwt beam="1">  1       -4 0.32146668E-03 0.12499973E+03</pdfrwt>
<totfact> 0.11632966E+03</totfact>
</mgrwt>
</event>
<event>
 5    1  0.3327068E-002  0.1249992E+03  0.7818608E-02  0.1235071E+00
         -4   -1    0    0    0  501 -0.00000000000E+00  0.00000000000E+00  0.20096928019E+03  0.20097329296E+03  0.12700000000E+01 0.  1.
          4   -1    0    0  501    0  0.00000000000E+00 -0.00000000000E+00 -0.19411834846E+02  0.19453334730E+02  0.12700000000E+01 0.  1.
         25    2    1    2    0    0  0.00000000000E+00  0.00000000000E+00  0.18155744535E+03  0.22042662769E+03  0.12499916892E+03 0.  0.
    9000005    1    3    3    0    0  0.95174088347E+01  0.58714942933E+02  0.12456901761E+03  0.13804515834E+03  0.10000000000E+01 0.  0.
    9000005    1    3    3    0    0 -0.95174088347E+01 -0.58714942933E+02  0.56988427742E+02  0.82381469343E+02  0.10000000000E+01 0.  0.
<mgrwt>
<rscale>  0 0.12499917E+03</rscale>
<asrwt>0</asrwt>
<pdfrwt beam="2">  1        4 0.29899372E-02 0.12499917E+03</pdfrwt>
<pdfrwt beam="1">  1       -4 0.30921851E-01 0.12499917E+03</pdfrwt>
<totfact> 0.86802497E+03</totfact>
</mgrwt>
</event>
<event>
 5    1  0.3327068E-002  0.1250078E+03  0.7818608E-02  0.1235057E+00
          4   -1    0    0  501    0  0.00000000000E+00  0.00000000000E+00  0.26895795537E+03  0.26896095378E+03  0.12700000000E+01 0.  1.
         -4   -1    0    0    0  501 -0.00000000000E+00 -0.00000000000E+00 -0.14494620619E+02  0.14550152126E+02  0.12700000000E+01 0.  1.
         25    2    1    2    0    0  0.00000000000E+00  0.00000000000E+00  0.25446333475E+03  0.28351110590E+03  0.12500783351E+03 0.  0.
    9000005    1    3    3    0    0 -0.10903811650E+02 -0.13221183064E+02 -0.90726251728E+01  0.19416624774E+02  0.10000000000E+01 0.  0.
    9000005    1    3    3    0    0  0.10903811650E+02  0.13221183064E+02  0.26353595992E+03  0.26409448113E+03  0.10000000000E+01 0.  0.
<mgrwt>
<rscale>  0 0.12500783E+03</rscale>
<asrwt>0</asrwt>
<pdfrwt beam="1">  1        4 0.41382648E-01 0.12500783E+03</pdfrwt>
<pdfrwt beam="2">  1       -4 0.22344440E-02 0.12500783E+03</pdfrwt>
<totfact> 0.77701322E+03</totfact>
</mgrwt>
</event>
<event>
 5    1  0.3327068E-002  0.1250026E+03  0.7818608E-02  0.1235065E+00
          4   -1    0    0  501    0  0.00000000000E+00  0.00000000000E+00  0.13997624417E+02  0.14055119684E+02  0.12700000000E+01 0.  1.
         -4   -1    0    0    0  501 -0.00000000000E+00 -0.00000000000E+00 -0.27844575724E+03  0.27844865348E+03  0.12700000000E+01 0.  1.
         25    2    1    2    0    0  0.00000000000E+00  0.00000000000E+00 -0.26444813282E+03  0.29250377316E+03  0.12500256942E+03 0.  0.
    9000005    1    3    3    0    0 -0.59401430795E+02 -0.12807024728E+02 -0.16636381383E+03  0.17711710368E+03  0.10000000000E+01 0.  0.
    9000005    1    3    3    0    0  0.59401430795E+02  0.12807024728E+02 -0.98084318990E+02  0.11538666948E+03  0.10000000000E+01 0.  0.
<mgrwt>
<rscale>  0 0.12500257E+03</rscale>
<asrwt>0</asrwt>
<pdfrwt beam="1">  1        4 0.21581264E-02 0.12500257E+03</pdfrwt>
<pdfrwt beam="2">  1       -4 0.42842450E-01 0.12500257E+03</pdfrwt>
<totfact> 0.76544510E+03</totfact>
</mgrwt>
</event>
<event>
 5    1  0.3327068E-002  0.1249985E+03  0.7818608E-02  0.1235072E+00
         -4   -1    0    0    0  501 -0.00000000000E+00  0.00000000000E+00  0.11767029995E+03  0.11767715322E+03  0.12700000000E+01 0.  1.
          4   -1    0    0  501    0  0.00000000000E+00 -0.00000000000E+00 -0.33175818479E+02  0.33200117948E+02  0.12700000000E+01 0.  1.
         25    2    1    2    0    0  0.00000000000E+00  0.00000000000E+00  0.84494481469E+02  0.15087727117E+03  0.12499853422E+03 0.  0.
    9000005    1    3    3    0    0 -0.60873749657E+02 -0.22174791741E+01  0.59086435203E+02  0.84868942707E+02  0.10000000000E+01 0.  0.
    9000005    1    3    3    0    0  0.60873749657E+02  0.22174791741E+01  0.25408046266E+02  0.66008328461E+02  0.10000000000E+01 0.  0.
<mgrwt>
<rscale>  0 0.12499853E+03</rscale>
<asrwt>0</asrwt>
<pdfrwt beam="2">  1        4 0.51063685E-02 0.12499853E+03</pdfrwt>
<pdfrwt beam="1">  1       -4 0.18105519E-01 0.12499853E+03</pdfrwt>
<totfact> 0.99132384E+03</totfact>
</mgrwt>
</event>
<event>
 5    1  0.3327068E-002  0.1249981E+03  0.7818608E-02  0.1235072E+00
          4   -1    0    0  501    0  0.00000000000E+00  0.00000000000E+00  0.99632586901E+02  0.99640680812E+02  0.12700000000E+01 0.  1.
         -4   -1    0    0    0  501 -0.00000000000E+00 -0.00000000000E+00 -0.39185368851E+02  0.39205943835E+02  0.12700000000E+01 0.  1.
         25    2    1    2    0    0  0.00000000000E+00  0.00000000000E+00  0.60447218050E+02  0.13884662465E+03  0.12499807601E+03 0.  0.
    9000005    1    3    3    0    0  0.17468576334E+02 -0.35434916633E+02 -0.23559113864E+02  0.46008872210E+02  0.10000000000E+01 0.  0.
    9000005    1    3    3    0    0 -0.17468576334E+02  0.35434916633E+02  0.84006331914E+02  0.92837752437E+02  0.10000000000E+01 0.  0.
<mgrwt>
<rscale>  0 0.12499808E+03</rscale>
<asrwt>0</asrwt>
<pdfrwt beam="1">  1        4 0.15330296E-01 0.12499808E+03</pdfrwt>
<pdfrwt beam="2">  1       -4 0.60307235E-02 0.12499808E+03</pdfrwt>
<totfact> 0.10157986E+04</totfact>
</mgrwt>
</event>
<event>
 5    1  0.3327068E-002  0.1249983E+03  0.7818608E-02  0.1235072E+00
          4   -1    0    0  501    0  0.00000000000E+00  0.00000000000E+00  0.24544603944E+03  0.24544932506E+03  0.12700000000E+01 0. -1.
         -4   -1    0    0    0  501 -0.00000000000E+00 -0.00000000000E+00 -0.15885740782E+02  0.15936425578E+02  0.12700000000E+01 0. -1.
         25    2    1    2    0    0  0.00000000000E+00  0.00000000000E+00  0.22956029865E+03  0.26138575064E+03  0.12499831967E+03 0.  0.
    9000005    1    3    3    0    0  0.54649335794E+02 -0.15930054682E+02  0.60862304218E+02  0.83339886127E+02  0.10000000000E+01 0.  0.
    9000005    1    3    3    0    0 -0.54649335794E+02  0.15930054682E+02  0.16869799443E+03  0.17804586452E+03  0.10000000000E+01 0.  0.
<mgrwt>
<rscale>  0 0.12499832E+03</rscale>
<asrwt>0</asrwt>
<pdfrwt beam="1">  1        4 0.37765078E-01 0.12499832E+03</pdfrwt>
<pdfrwt beam="2">  1       -4 0.24481118E-02 0.12499832E+03</pdfrwt>
<totfact> 0.80715003E+03</totfact>
</mgrwt>
</event>
<event>
 5    1  0.3327068E-002  0.1250000E+03  0.7818608E-02  0.1235069E+00
         -4   -1    0    0    0  501 -0.00000000000E+00  0.00000000000E+00  0.11006134510E+03  0.11006867213E+03  0.12700000000E+01 0. -1.
          4   -1    0    0  501    0  0.00000000000E+00 -0.00000000000E+00 -0.35471675815E+02  0.35494403575E+02  0.12700000000E+01 0. -1.
         25    2    1    2    0    0  0.00000000000E+00  0.00000000000E+00  0.74589669283E+02  0.14556307571E+03  0.12499996098E+03 0.  0.
    9000005    1    3    3    0    0 -0.56849412879E+02  0.24476531969E+02  0.27257693505E+02  0.67638289579E+02  0.10000000000E+01 0.  0.
    9000005    1    3    3    0    0  0.56849412879E+02 -0.24476531969E+02  0.47331975778E+02  0.77924786127E+02  0.10000000000E+01 0.  0.
<mgrwt>
<rscale>  0 0.12499996E+03</rscale>
<asrwt>0</asrwt>
<pdfrwt beam="2">  1        4 0.54594930E-02 0.12499996E+03</pdfrwt>
<pdfrwt beam="1">  1       -4 0.16934826E-01 0.12499996E+03</pdfrwt>
<totfact> 0.10019569E+04</totfact>
</mgrwt>
</event>
<event>
 5    1  0.3327068E-002  0.1249986E+03  0.7818608E-02  0.1235072E+00
         -4   -1    0    0    0  501 -0.00000000000E+00  0.00000000000E+00  0.33009121677E+03  0.33009365988E+03  0.12700000000E+01 0.  1.
          4   -1    0    0  501    0  0.00000000000E+00 -0.00000000000E+00 -0.11797010872E+02  0.11865174483E+02  0.12700000000E+01 0.  1.
         25    2    1    2    0    0  0.00000000000E+00  0.00000000000E+00  0.31829420590E+03  0.34195883436E+03  0.12499857154E+03 0.  0.
    9000005    1    3    3    0    0 -0.38584224215E+02  0.46320552637E+02  0.20416787797E+03  0.21288461276E+03  0.10000000000E+01 0.  0.
    9000005    1    3    3    0    0  0.38584224215E+02 -0.46320552637E+02  0.11412632793E+03  0.12907422160E+03  0.10000000000E+01 0.  0.
<mgrwt>
<rscale>  0 0.12499857E+03</rscale>
<asrwt>0</asrwt>
<pdfrwt beam="2">  1        4 0.18203561E-02 0.12499857E+03</pdfrwt>
<pdfrwt beam="1">  1       -4 0.50788693E-01 0.12499857E+03</pdfrwt>
<totfact> 0.70620569E+03</totfact>
</mgrwt>
</event>
<event>
 5    1  0.3327068E-002  0.1249999E+03  0.7818608E-02  0.1235069E+00
          4   -1    0    0  501    0  0.00000000000E+00  0.00000000000E+00  0.24574945806E+02  0.24607739867E+02  0.12700000000E+01 0. -1.
         -4   -1    0    0    0  501 -0.00000000000E+00 -0.00000000000E+00 -0.15881105341E+03  0.15881613138E+03  0.12700000000E+01 0. -1.
         25    2    1    2    0    0  0.00000000000E+00  0.00000000000E+00 -0.13423610761E+03  0.18342387125E+03  0.12499993583E+03 0.  0.
    9000005    1    3    3    0    0  0.28886339017E+01 -0.52216085000E+02 -0.11731877179E+03  0.12845060511E+03  0.10000000000E+01 0.  0.
    9000005    1    3    3    0    0 -0.28886339017E+01  0.52216085000E+02 -0.16917335815E+02  0.54973266135E+02  0.10000000000E+01 0.  0.
<mgrwt>
<rscale>  0 0.12499994E+03</rscale>
<asrwt>0</asrwt>
<pdfrwt beam="1">  1        4 0.37836742E-02 0.12499994E+03</pdfrwt>
<pdfrwt beam="2">  1       -4 0.24435382E-01 0.12499994E+03</pdfrwt>
<totfact> 0.93004435E+03</totfact>
</mgrwt>
</event>
<event>
 5    1  0.3327068E-002  0.1249980E+03  0.7818608E-02  0.1235072E+00
         -4   -1    0    0    0  501 -0.00000000000E+00  0.00000000000E+00  0.27730271927E+02  0.27759338630E+02  0.12700000000E+01 0.  1.
          4   -1    0    0  501    0  0.00000000000E+00 -0.00000000000E+00 -0.14075560259E+03  0.14076133191E+03  0.12700000000E+01 0.  1.
         25    2    1    2    0    0  0.00000000000E+00  0.00000000000E+00 -0.11302533066E+03  0.16852067054E+03  0.12499796409E+03 0.  0.
    9000005    1    3    3    0    0 -0.38841376757E+02  0.27891050184E+02 -0.11075202795E+03  0.12063819844E+03  0.10000000000E+01 0.  0.
    9000005    1    3    3    0    0  0.38841376757E+02 -0.27891050184E+02 -0.22733027143E+01  0.47882472095E+02  0.10000000000E+01 0.  0.
<mgrwt>
<rscale>  0 0.12499796E+03</rscale>
<asrwt>0</asrwt>
<pdfrwt beam="2">  1        4 0.21657384E-01 0.12499796E+03</pdfrwt>
<pdfrwt beam="1">  1       -4 0.42688724E-02 0.12499796E+03</pdfrwt>
<totfact> 0.95729133E+03</totfact>
</mgrwt>
</event>
<event>
 5    1  0.3327068E-002  0.1250048E+03  0.7818608E-02  0.1235062E+00
          4   -1    0    0  501    0  0.00000000000E+00  0.00000000000E+00  0.37304031990E+04  0.37304034152E+04  0.12700000000E+01 0.  1.
         -4   -1    0    0    0  501 -0.00000000000E+00 -0.00000000000E+00 -0.66187958910E+00  0.14321258990E+01  0.12700000000E+01 0.  1.
         25    2    1    2    0    0  0.00000000000E+00  0.00000000000E+00  0.37297413194E+04  0.37318355411E+04  0.12500478376E+03 0.  0.
    9000005    1    3    3    0    0  0.36026263272E+02 -0.46640606208E+02  0.24855883255E+04  0.24862871036E+04  0.10000000000E+01 0.  0.
    9000005    1    3    3    0    0 -0.36026263272E+02  0.46640606208E+02  0.12441529939E+04  0.12455484375E+04  0.10000000000E+01 0.  0.
<mgrwt>
<rscale>  0 0.12500478E+03</rscale>
<asrwt>0</asrwt>
<pdfrwt beam="1">  1        4 0.57396150E+00 0.12500478E+03</pdfrwt>
<pdfrwt beam="2">  1       -4 0.16109564E-03 0.12500478E+03</pdfrwt>
<totfact> 0.31916772E+01</totfact>
</mgrwt>
</event>
<event>
 5    1  0.3327068E-002  0.1249808E+03  0.7818608E-02  0.1235099E+00
         -4   -1    0    0    0  501 -0.00000000000E+00  0.00000000000E+00  0.41810957126E+01  0.43697209703E+01  0.12700000000E+01 0.  1.
          4   -1    0    0  501    0  0.00000000000E+00 -0.00000000000E+00 -0.91318575135E+03  0.91318663447E+03  0.12700000000E+01 0.  1.
         25    2    1    2    0    0  0.00000000000E+00  0.00000000000E+00 -0.90900465564E+03  0.91755635544E+03  0.12498080426E+03 0.  0.
    9000005    1    3    3    0    0  0.79068608188E+01  0.28663718399E+02 -0.85795015315E+03  0.85846583653E+03  0.10000000000E+01 0.  0.
    9000005    1    3    3    0    0 -0.79068608188E+01 -0.28663718399E+02 -0.51054502495E+02  0.59090518914E+02  0.10000000000E+01 0.  0.
<mgrwt>
<rscale>  0 0.12498080E+03</rscale>
<asrwt>0</asrwt>
<pdfrwt beam="2">  1        4 0.14050454E+00 0.12498080E+03</pdfrwt>
<pdfrwt beam="1">  1       -4 0.65782379E-03 0.12498080E+03</pdfrwt>
<totfact> 0.33510604E+03</totfact>
</mgrwt>
</event>
<event>
 5    1  0.3327068E-002  0.1250020E+03  0.7818608E-02  0.1235066E+00
          4   -1    0    0  501    0  0.00000000000E+00  0.00000000000E+00  0.47466536491E+02  0.47483523316E+02  0.12700000000E+01 0. -1.
         -4   -1    0    0    0  501 -0.00000000000E+00 -0.00000000000E+00 -0.82260877708E+02  0.82270680690E+02  0.12700000000E+01 0. -1.
         25    2    1    2    0    0  0.00000000000E+00  0.00000000000E+00 -0.34794341216E+02  0.12975420401E+03  0.12500202909E+03 0.  0.
    9000005    1    3    3    0    0  0.28497114997E+02  0.15747689485E+02 -0.72766405698E+02  0.79724683038E+02  0.10000000000E+01 0.  0.
    9000005    1    3    3    0    0 -0.28497114997E+02 -0.15747689485E+02  0.37972064482E+02  0.50029520968E+02  0.10000000000E+01 0.  0.
<mgrwt>
<rscale>  0 0.12500203E+03</rscale>
<asrwt>0</asrwt>
<pdfrwt beam="1">  1        4 0.73046048E-02 0.12500203E+03</pdfrwt>
<pdfrwt beam="2">  1       -4 0.12657580E-01 0.12500203E+03</pdfrwt>
<totfact> 0.10349294E+04</totfact>
</mgrwt>
</event>
<event>
 5    1  0.3327068E-002  0.1250006E+03  0.7818608E-02  0.1235068E+00
         -4   -1    0    0    0  501 -0.00000000000E+00  0.00000000000E+00  0.14161635675E+03  0.14162205124E+03  0.12700000000E+01 0. -1.
          4   -1    0    0  501    0  0.00000000000E+00 -0.00000000000E+00 -0.27562727609E+02  0.27591970811E+02  0.12700000000E+01 0. -1.
         25    2    1    2    0    0  0.00000000000E+00  0.00000000000E+00  0.11405362914E+03  0.16921402205E+03  0.12500061976E+03 0.  0.
    9000005    1    3    3    0    0  0.36786476925E+02 -0.11849021600E+02 -0.94516270087E+01  0.39799214195E+02  0.10000000000E+01 0.  0.
    9000005    1    3    3    0    0 -0.36786476925E+02  0.11849021600E+02  0.12350525615E+03  0.12941480786E+03  0.10000000000E+01 0.  0.
<mgrwt>
<rscale>  0 0.12500062E+03</rscale>
<asrwt>0</asrwt>
<pdfrwt beam="2">  1        4 0.42431072E-02 0.12500062E+03</pdfrwt>
<pdfrwt beam="1">  1       -4 0.21789819E-01 0.12500062E+03</pdfrwt>
<totfact> 0.95593891E+03</totfact>
</mgrwt>
</event>
<event>
 5    1  0.3327068E-002  0.1249982E+03  0.7818608E-02  0.1235072E+00
          4   -1    0    0  501    0  0.00000000000E+00  0.00000000000E+00  0.62442654943E+02  0.62455568657E+02  0.12700000000E+01 0. -1.
         -4   -1    0    0    0  501 -0.00000000000E+00 -0.00000000000E+00 -0.62529767901E+02  0.62542663629E+02  0.12700000000E+01 0. -1.
         25    2    1    2    0    0  0.00000000000E+00  0.00000000000E+00 -0.87112958225E-01  0.12499823229E+03  0.12499820193E+03 0.  0.
    9000005    1    3    3    0    0  0.60572974568E+02 -0.15356524807E+02 -0.52263831346E+00  0.62499450022E+02  0.10000000000E+01 0.  0.
    9000005    1    3    3    0    0 -0.60572974568E+02  0.15356524807E+02  0.43552535524E+00  0.62498782264E+02  0.10000000000E+01 0.  0.
<mgrwt>
<rscale>  0 0.12499820E+03</rscale>
<asrwt>0</asrwt>
<pdfrwt beam="1">  1        4 0.96085477E-02 0.12499820E+03</pdfrwt>
<pdfrwt beam="2">  1       -4 0.96219496E-02 0.12499820E+03</pdfrwt>
<totfact> 0.10453326E+04</totfact>
</mgrwt>
</event>
<event>
 5    1  0.3327068E-002  0.1250003E+03  0.7818608E-02  0.1235069E+00
         -4   -1    0    0    0  501 -0.00000000000E+00  0.00000000000E+00  0.49734896484E+02  0.49751108815E+02  0.12700000000E+01 0. -1.
          4   -1    0    0  501    0  0.00000000000E+00 -0.00000000000E+00 -0.78507707128E+02  0.78517978696E+02  0.12700000000E+01 0. -1.
         25    2    1    2    0    0  0.00000000000E+00  0.00000000000E+00 -0.28772810644E+02  0.12826908751E+03  0.12500033671E+03 0.  0.
    9000005    1    3    3    0    0 -0.24227078519E+02 -0.40144968137E+02  0.28006147983E+02  0.54625215104E+02  0.10000000000E+01 0.  0.
    9000005    1    3    3    0    0  0.24227078519E+02  0.40144968137E+02 -0.56778958627E+02  0.73643872406E+02  0.10000000000E+01 0.  0.
<mgrwt>
<rscale>  0 0.12500034E+03</rscale>
<asrwt>0</asrwt>
<pdfrwt beam="2">  1        4 0.12080146E-01 0.12500034E+03</pdfrwt>
<pdfrwt beam="1">  1       -4 0.76535598E-02 0.12500034E+03</pdfrwt>
<totfact> 0.10381602E+04</totfact>
</mgrwt>
</event>
<event>
 5    1  0.3327068E-002  0.1250013E+03  0.7818608E-02  0.1235067E+00
         -4   -1    0    0    0  501 -0.00000000000E+00  0.00000000000E+00  0.11604092165E+04  0.11604099115E+04  0.12700000000E+01 0. -1.
          4   -1    0    0  501    0  0.00000000000E+00 -0.00000000000E+00 -0.32458352204E+01  0.34854477873E+01  0.12700000000E+01 0. -1.
         25    2    1    2    0    0  0.00000000000E+00  0.00000000000E+00  0.11571633813E+04  0.11638953593E+04  0.12500126530E+03 0.  0.
    9000005    1    3    3    0    0 -0.32699268688E+02  0.12634892027E+02  0.10602840835E+04  0.10608639029E+04  0.10000000000E+01 0.  0.
    9000005    1    3    3    0    0  0.32699268688E+02 -0.12634892027E+02  0.96879297803E+02  0.10303145642E+03  0.10000000000E+01 0.  0.
<mgrwt>
<rscale>  0 0.12500127E+03</rscale>
<asrwt>0</asrwt>
<pdfrwt beam="2">  1        4 0.51784427E-03 0.12500127E+03</pdfrwt>
<pdfrwt beam="1">  1       -4 0.17854305E+00 0.12500127E+03</pdfrwt>
<totfact> 0.25677099E+03</totfact>
</mgrwt>
</event>
<event>
 5    1  0.3327068E-002  0.1250013E+03  0.7818608E-02  0.1235067E+00
         -4   -1    0    0    0  501 -0.00000000000E+00  0.00000000000E+00  0.61748337085E+01  0.63040837025E+01  0.12700000000E+01 0.  1.
          4   -1    0    0  501    0  0.00000000000E+00 -0.00000000000E+00 -0.62593876490E+03  0.62594005328E+03  0.12700000000E+01 0.  1.
         25    2    1    2    0    0  0.00000000000E+00  0.00000000000E+00 -0.61976393119E+03  0.63224413698E+03  0.12500127338E+03 0.  0.
    9000005    1    3    3    0    0  0.40923524842E+02 -0.41348807674E+02 -0.19444753063E+03  0.20296625569E+03  0.10000000000E+01 0.  0.
    9000005    1    3    3    0    0 -0.40923524842E+02  0.41348807674E+02 -0.42531640056E+03  0.42927788129E+03  0.10000000000E+01 0.  0.
<mgrwt>
<rscale>  0 0.12500127E+03</rscale>
<asrwt>0</asrwt>
<pdfrwt beam="2">  1        4 0.96308264E-01 0.12500127E+03</pdfrwt>
<pdfrwt beam="1">  1       -4 0.96001632E-03 0.12500127E+03</pdfrwt>
<totfact> 0.46892245E+03</totfact>
</mgrwt>
</event>
<event>
 5    1  0.3327068E-002  0.1249983E+03  0.7818608E-02  0.1235072E+00
          4   -1    0    0  501    0  0.00000000000E+00  0.00000000000E+00  0.12585856397E+03  0.12586497140E+03  0.12700000000E+01 0. -1.
         -4   -1    0    0    0  501 -0.00000000000E+00 -0.00000000000E+00 -0.31015794038E+02  0.31041784417E+02  0.12700000000E+01 0. -1.
         25    2    1    2    0    0  0.00000000000E+00  0.00000000000E+00  0.94842769932E+02  0.15690675581E+03  0.12499831603E+03 0.  0.
    9000005    1    3    3    0    0  0.18914972930E+02  0.32558616681E+02  0.11002537376E+03  0.11629455100E+03  0.10000000000E+01 0.  0.
    9000005    1    3    3    0    0 -0.18914972930E+02 -0.32558616681E+02 -0.15182603825E+02  0.40612204816E+02  0.10000000000E+01 0.  0.
<mgrwt>
<rscale>  0 0.12499832E+03</rscale>
<asrwt>0</asrwt>
<pdfrwt beam="1">  1        4 0.19365348E-01 0.12499832E+03</pdfrwt>
<pdfrwt beam="2">  1       -4 0.47741528E-02 0.12499832E+03</pdfrwt>
<totfact> 0.97946183E+03</totfact>
</mgrwt>
</event>
<event>
 5    1  0.3327068E-002  0.1249997E+03  0.7818608E-02  0.1235070E+00
         -4   -1    0    0    0  501 -0.00000000000E+00  0.00000000000E+00  0.27540364205E+03  0.27540657028E+03  0.12700000000E+01 0.  1.
          4   -1    0    0  501    0  0.00000000000E+00 -0.00000000000E+00 -0.14152228083E+02  0.14209097780E+02  0.12700000000E+01 0.  1.
         25    2    1    2    0    0  0.00000000000E+00  0.00000000000E+00  0.26125141397E+03  0.28961566806E+03  0.12499973555E+03 0.  0.
    9000005    1    3    3    0    0 -0.21345993759E+02  0.39996290430E+02  0.23027737986E+03  0.23469986445E+03  0.10000000000E+01 0.  0.
    9000005    1    3    3    0    0  0.21345993759E+02 -0.39996290430E+02  0.30974034111E+02  0.54915803616E+02  0.10000000000E+01 0.  0.
<mgrwt>
<rscale>  0 0.12499974E+03</rscale>
<asrwt>0</asrwt>
<pdfrwt beam="2">  1        4 0.21818658E-02 0.12499974E+03</pdfrwt>
<pdfrwt beam="1">  1       -4 0.42374389E-01 0.12499974E+03</pdfrwt>
<totfact> 0.76920623E+03</totfact>
</mgrwt>
</event>
<event>
 5    1  0.3327068E-002  0.1250010E+03  0.7818608E-02  0.1235068E+00
          4   -1    0    0  501    0  0.00000000000E+00  0.00000000000E+00  0.92272507063E+02  0.92281246522E+02  0.12700000000E+01 0.  1.
         -4   -1    0    0    0  501 -0.00000000000E+00 -0.00000000000E+00 -0.42314267292E+02  0.42333321586E+02  0.12700000000E+01 0.  1.
         25    2    1    2    0    0  0.00000000000E+00  0.00000000000E+00  0.49958239770E+02  0.13461456811E+03  0.12500102490E+03 0.  0.
    9000005    1    3    3    0    0 -0.37182580880E+02  0.47936526019E+02  0.41127680850E+02  0.73300347746E+02  0.10000000000E+01 0.  0.
    9000005    1    3    3    0    0  0.37182580880E+02 -0.47936526019E+02  0.88305589206E+01  0.61314220361E+02  0.10000000000E+01 0.  0.
<mgrwt>
<rscale>  0 0.12500102E+03</rscale>
<asrwt>0</asrwt>
<pdfrwt beam="1">  1        4 0.14197908E-01 0.12500102E+03</pdfrwt>
<pdfrwt beam="2">  1       -4 0.65120252E-02 0.12500102E+03</pdfrwt>
<totfact> 0.10245964E+04</totfact>
</mgrwt>
</event>
<event>
 5    1  0.3327068E-002  0.1250009E+03  0.7818608E-02  0.1235068E+00
          4   -1    0    0  501    0  0.00000000000E+00  0.00000000000E+00  0.85552365999E+01  0.86489868355E+01  0.12700000000E+01 0.  1.
         -4   -1    0    0    0  501 -0.00000000000E+00 -0.00000000000E+00 -0.45401568724E+03  0.45401746350E+03  0.12700000000E+01 0.  1.
         25    2    1    2    0    0  0.00000000000E+00  0.00000000000E+00 -0.44546045064E+03  0.46266645034E+03  0.12500092471E+03 0.  0.
    9000005    1    3    3    0    0 -0.21218567867E+02  0.36870197370E+02 -0.39217028587E+03  0.39447201700E+03  0.10000000000E+01 0.  0.
    9000005    1    3    3    0    0  0.21218567867E+02 -0.36870197370E+02 -0.53290164775E+02  0.68194433337E+02  0.10000000000E+01 0.  0.
<mgrwt>
<rscale>  0 0.12500092E+03</rscale>
<asrwt>0</asrwt>
<pdfrwt beam="1">  1        4 0.13235388E-02 0.12500092E+03</pdfrwt>
<pdfrwt beam="2">  1       -4 0.69855897E-01 0.12500092E+03</pdfrwt>
<totfact> 0.58880804E+03</totfact>
</mgrwt>
</event>
<event>
 5    1  0.3327068E-002  0.1249964E+03  0.7818608E-02  0.1235075E+00
         -4   -1    0    0    0  501 -0.00000000000E+00  0.00000000000E+00  0.15280118966E+04  0.15280124244E+04  0.12700000000E+01 0.  1.
          4   -1    0    0  501    0  0.00000000000E+00 -0.00000000000E+00 -0.23979804629E+01  0.27135235950E+01  0.12700000000E+01 0.  1.
         25    2    1    2    0    0  0.00000000000E+00  0.00000000000E+00  0.15256139161E+04  0.15307259480E+04  0.12499642669E+03 0.  0.
    9000005    1    3    3    0    0 -0.24478123009E+02 -0.55945771919E+02  0.92523310252E+03  0.92724667802E+03  0.10000000000E+01 0.  0.
    9000005    1    3    3    0    0  0.24478123009E+02  0.55945771919E+02  0.60038081362E+03  0.60347926995E+03  0.10000000000E+01 0.  0.
<mgrwt>
<rscale>  0 0.12499643E+03</rscale>
<asrwt>0</asrwt>
<pdfrwt beam="2">  1        4 0.39323354E-03 0.12499643E+03</pdfrwt>
<pdfrwt beam="1">  1       -4 0.23510288E+00 0.12499643E+03</pdfrwt>
<totfact> 0.17335633E+03</totfact>
</mgrwt>
</event>
<event>
 5    1  0.3327068E-002  0.1249981E+03  0.7818608E-02  0.1235072E+00
         -4   -1    0    0    0  501 -0.00000000000E+00  0.00000000000E+00  0.19265367967E+03  0.19265786563E+03  0.12700000000E+01 0.  1.
          4   -1    0    0  501    0  0.00000000000E+00 -0.00000000000E+00 -0.20251092274E+02  0.20290875740E+02  0.12700000000E+01 0.  1.
         25    2    1    2    0    0  0.00000000000E+00  0.00000000000E+00  0.17240258739E+03  0.21294874137E+03  0.12499805723E+03 0.  0.
    9000005    1    3    3    0    0 -0.12412904521E+02 -0.85033660293E+01 -0.17127516666E+02  0.22819712085E+02  0.10000000000E+01 0.  0.
    9000005    1    3    3    0    0  0.12412904521E+02  0.85033660293E+01  0.18953010406E+03  0.19012902928E+03  0.10000000000E+01 0.  0.
<mgrwt>
<rscale>  0 0.12499806E+03</rscale>
<asrwt>0</asrwt>
<pdfrwt beam="2">  1        4 0.31189350E-02 0.12499806E+03</pdfrwt>
<pdfrwt beam="1">  1       -4 0.29642409E-01 0.12499806E+03</pdfrwt>
<totfact> 0.88000387E+03</totfact>
</mgrwt>
</event>
<event>
 5    1  0.3327068E-002  0.1249999E+03  0.7818608E-02  0.1235069E+00
          4   -1    0    0  501    0  0.00000000000E+00  0.00000000000E+00  0.97786324413E+01  0.98607582073E+01  0.12700000000E+01 0.  1.
         -4   -1    0    0    0  501 -0.00000000000E+00 -0.00000000000E+00 -0.39771376337E+03  0.39771579108E+03  0.12700000000E+01 0.  1.
         25    2    1    2    0    0  0.00000000000E+00  0.00000000000E+00 -0.38793513093E+03  0.40757654929E+03  0.12499991088E+03 0.  0.
    9000005    1    3    3    0    0  0.30601466341E+01 -0.43424045596E+02 -0.34015922527E+03  0.34293484916E+03  0.10000000000E+01 0.  0.
    9000005    1    3    3    0    0 -0.30601466341E+01  0.43424045596E+02 -0.47775905655E+02  0.64641700121E+02  0.10000000000E+01 0.  0.
<mgrwt>
<rscale>  0 0.12499991E+03</rscale>
<asrwt>0</asrwt>
<pdfrwt beam="1">  1        4 0.15108786E-02 0.12499991E+03</pdfrwt>
<pdfrwt beam="2">  1       -4 0.61193194E-01 0.12499991E+03</pdfrwt>
<totfact> 0.63822645E+03</totfact>
</mgrwt>
</event>
<event>
 5    1  0.3327068E-002  0.1250008E+03  0.7818608E-02  0.1235068E+00
          4   -1    0    0  501    0  0.00000000000E+00  0.00000000000E+00  0.69091997663E+02  0.69103668796E+02  0.12700000000E+01 0.  1.
         -4   -1    0    0    0  501 -0.00000000000E+00 -0.00000000000E+00 -0.56514054467E+02  0.56528322568E+02  0.12700000000E+01 0.  1.
         25    2    1    2    0    0  0.00000000000E+00  0.00000000000E+00  0.12577943196E+02  0.12563199136E+03  0.12500077039E+03 0.  0.
    9000005    1    3    3    0    0  0.33747106298E+02  0.50374147275E+02  0.21494023996E+02  0.64338285373E+02  0.10000000000E+01 0.  0.
    9000005    1    3    3    0    0 -0.33747106298E+02 -0.50374147275E+02 -0.89160808007E+01  0.61293705990E+02  0.10000000000E+01 0.  0.
<mgrwt>
<rscale>  0 0.12500077E+03</rscale>
<asrwt>0</asrwt>
<pdfrwt beam="1">  1        4 0.10631533E-01 0.12500077E+03</pdfrwt>
<pdfrwt beam="2">  1       -4 0.86964653E-02 0.12500077E+03</pdfrwt>
<totfact> 0.10438860E+04</totfact>
</mgrwt>
</event>
<event>
 5    1  0.3327068E-002  0.1249993E+03  0.7818608E-02  0.1235070E+00
         -4   -1    0    0    0  501 -0.00000000000E+00  0.00000000000E+00  0.36541262369E+02  0.36563325279E+02  0.12700000000E+01 0.  1.
          4   -1    0    0  501    0  0.00000000000E+00 -0.00000000000E+00 -0.10684036578E+03  0.10684791369E+03  0.12700000000E+01 0.  1.
         25    2    1    2    0    0  0.00000000000E+00  0.00000000000E+00 -0.70299103414E+02  0.14341123897E+03  0.12499927809E+03 0.  0.
    9000005    1    3    3    0    0  0.93075209450E+01 -0.38546561567E+02 -0.90562163550E+02  0.98868462219E+02  0.10000000000E+01 0.  0.
    9000005    1    3    3    0    0 -0.93075209450E+01  0.38546561567E+02  0.20263060136E+02  0.44542776753E+02  0.10000000000E+01 0.  0.
<mgrwt>
<rscale>  0 0.12499928E+03</rscale>
<asrwt>0</asrwt>
<pdfrwt beam="2">  1        4 0.16439257E-01 0.12499928E+03</pdfrwt>
<pdfrwt beam="1">  1       -4 0.56240105E-02 0.12499928E+03</pdfrwt>
<totfact> 0.10063532E+04</totfact>
</mgrwt>
</event>
<event>
 5    1  0.3327068E-002  0.1249980E+03  0.7818608E-02  0.1235072E+00
         -4   -1    0    0    0  501 -0.00000000000E+00  0.00000000000E+00  0.33171588278E+02  0.33195890843E+02  0.12700000000E+01 0. -1.
          4   -1    0    0  501    0  0.00000000000E+00 -0.00000000000E+00 -0.11768422600E+03  0.11769107846E+03  0.12700000000E+01 0. -1.
         25    2    1    2    0    0  0.00000000000E+00  0.00000000000E+00 -0.84512637724E+02  0.15088696931E+03  0.12499796627E+03 0.  0.
    9000005    1    3    3    0    0 -0.39893367809E+02 -0.47645266092E+02 -0.50224260429E+02  0.79906373411E+02  0.10000000000E+01 0.  0.
    9000005    1    3    3    0    0  0.39893367809E+02  0.47645266092E+02 -0.34288377296E+02  0.70980595895E+02  0.10000000000E+01 0.  0.
<mgrwt>
<rscale>  0 0.12499797E+03</rscale>
<asrwt>0</asrwt>
<pdfrwt beam="2">  1        4 0.18107662E-01 0.12499797E+03</pdfrwt>
<pdfrwt beam="1">  1       -4 0.51057179E-02 0.12499797E+03</pdfrwt>
<totfact> 0.99131724E+03</totfact>
</mgrwt>
</event>
<event>
 5    1  0.3327068E-002  0.1250028E+03  0.7818608E-02  0.1235065E+00
          4   -1    0    0  501    0  0.00000000000E+00  0.00000000000E+00  0.12238508638E+02  0.12304226659E+02  0.12700000000E+01 0.  1.
         -4   -1    0    0    0  501 -0.00000000000E+00 -0.00000000000E+00 -0.31826938195E+03  0.31827191580E+03  0.12700000000E+01 0.  1.
         25    2    1    2    0    0  0.00000000000E+00  0.00000000000E+00 -0.30603087331E+03  0.33057614246E+03  0.12500276214E+03 0.  0.
    9000005    1    3    3    0    0 -0.31774351017E+02  0.46869838746E+02 -0.22293525022E+03  0.23001634063E+03  0.10000000000E+01 0.  0.
    9000005    1    3    3    0    0  0.31774351017E+02 -0.46869838746E+02 -0.83095623090E+02  0.10055980183E+03  0.10000000000E+01 0.  0.
<mgrwt>
<rscale>  0 0.12500276E+03</rscale>
<asrwt>0</asrwt>
<pdfrwt beam="1">  1        4 0.18880979E-02 0.12500276E+03</pdfrwt>
<pdfrwt beam="2">  1       -4 0.48969764E-01 0.12500276E+03</pdfrwt>
<totfact> 0.71911244E+03</totfact>
</mgrwt>
</event>
<event>
 5    1  0.3327068E-002  0.1250020E+03  0.7818608E-02  0.1235066E+00
         -4   -1    0    0    0  501 -0.00000000000E+00  0.00000000000E+00  0.62047085001E+02  0.62060081027E+02  0.12700000000E+01 0. -1.
          4   -1    0    0  501    0  0.00000000000E+00 -0.00000000000E+00 -0.62932276312E+02  0.62945089576E+02  0.12700000000E+01 0. -1.
         25    2    1    2    0    0  0.00000000000E+00  0.00000000000E+00 -0.88519131056E+00  0.12500517060E+03  0.12500203644E+03 0.  0.
    9000005    1    3    3    0    0 -0.69941906994E+01 -0.73898529042E+01  0.61218083048E+02  0.62065951387E+02  0.10000000000E+01 0.  0.
    9000005    1    3    3    0    0  0.69941906994E+01  0.73898529042E+01 -0.62103274359E+02  0.62939219216E+02  0.10000000000E+01 0.  0.
<mgrwt>
<rscale>  0 0.12500204E+03</rscale>
<asrwt>0</asrwt>
<pdfrwt beam="2">  1        4 0.96838740E-02 0.12500204E+03</pdfrwt>
<pdfrwt beam="1">  1       -4 0.95476907E-02 0.12500204E+03</pdfrwt>
<totfact> 0.10452269E+04</totfact>
</mgrwt>
</event>
<event>
 5    1  0.3327068E-002  0.1250038E+03  0.7818608E-02  0.1235063E+00
          4   -1    0    0  501    0  0.00000000000E+00  0.00000000000E+00  0.67820581723E+02  0.67832471614E+02  0.12700000000E+01 0. -1.
         -4   -1    0    0    0  501 -0.00000000000E+00 -0.00000000000E+00 -0.57576389324E+02  0.57590394230E+02  0.12700000000E+01 0. -1.
         25    2    1    2    0    0  0.00000000000E+00  0.00000000000E+00  0.10244192399E+02  0.12542286584E+03  0.12500380714E+03 0.  0.
    9000005    1    3    3    0    0  0.46957953212E+02  0.39474804113E+02 -0.68417362333E+01  0.61734260215E+02  0.10000000000E+01 0.  0.
    9000005    1    3    3    0    0 -0.46957953212E+02 -0.39474804113E+02  0.17085928632E+02  0.63688605628E+02  0.10000000000E+01 0.  0.
<mgrwt>
<rscale>  0 0.12500381E+03</rscale>
<asrwt>0</asrwt>
<pdfrwt beam="1">  1        4 0.10435928E-01 0.12500381E+03</pdfrwt>
<pdfrwt beam="2">  1       -4 0.88598980E-02 0.12500381E+03</pdfrwt>
<totfact> 0.10442764E+04</totfact>
</mgrwt>
</event>
<event>
 5    1  0.3327068E-002  0.1249864E+03  0.7818608E-02  0.1235090E+00
         -4   -1    0    0    0  501 -0.00000000000E+00  0.00000000000E+00  0.37492659736E+01  0.39585218631E+01  0.12700000000E+01 0. -1.
          4   -1    0    0  501    0  0.00000000000E+00 -0.00000000000E+00 -0.10131554316E+04  0.10131562276E+04  0.12700000000E+01 0. -1.
         25    2    1    2    0    0  0.00000000000E+00  0.00000000000E+00 -0.10094061656E+04  0.10171147494E+04  0.12498642457E+03 0.  0.
    9000005    1    3    3    0    0  0.45336476942E+01  0.26314899920E+02 -0.96442576927E+03  0.96479588119E+03  0.10000000000E+01 0.  0.
    9000005    1    3    3    0    0 -0.45336476942E+01 -0.26314899920E+02 -0.44980396351E+02  0.52318868251E+02  0.10000000000E+01 0.  0.
<mgrwt>
<rscale>  0 0.12498642E+03</rscale>
<asrwt>0</asrwt>
<pdfrwt beam="2">  1        4 0.15588601E+00 0.12498642E+03</pdfrwt>
<pdfrwt beam="1">  1       -4 0.59296879E-03 0.12498642E+03</pdfrwt>
<totfact> 0.30053114E+03</totfact>
</mgrwt>
</event>
<event>
 5    1  0.3327068E-002  0.1249997E+03  0.7818608E-02  0.1235070E+00
          4   -1    0    0  501    0  0.00000000000E+00  0.00000000000E+00  0.35812229244E+02  0.35834741012E+02  0.12700000000E+01 0.  1.
         -4   -1    0    0    0  501 -0.00000000000E+00 -0.00000000000E+00 -0.10901492889E+03  0.10902232625E+03  0.12700000000E+01 0.  1.
         25    2    1    2    0    0  0.00000000000E+00  0.00000000000E+00 -0.73202699646E+02  0.14485706726E+03  0.12499973880E+03 0.  0.
    9000005    1    3    3    0    0  0.20249013112E+02 -0.23888538730E+02 -0.99271397283E+02  0.10409848766E+03  0.10000000000E+01 0.  0.
    9000005    1    3    3    0    0 -0.20249013112E+02  0.23888538730E+02  0.26068697637E+02  0.40758579602E+02  0.10000000000E+01 0.  0.
<mgrwt>
<rscale>  0 0.12499974E+03</rscale>
<asrwt>0</asrwt>
<pdfrwt beam="1">  1        4 0.55118745E-02 0.12499974E+03</pdfrwt>
<pdfrwt beam="2">  1       -4 0.16773828E-01 0.12499974E+03</pdfrwt>
<totfact> 0.10033952E+04</totfact>
</mgrwt>
</event>
<event>
 5    1  0.3327068E-002  0.1250036E+03  0.7818608E-02  0.1235064E+00
         -4   -1    0    0    0  501 -0.00000000000E+00  0.00000000000E+00  0.28093272472E+02  0.28121963982E+02  0.12700000000E+01 0. -1.
          4   -1    0    0  501    0  0.00000000000E+00 -0.00000000000E+00 -0.13895123271E+03  0.13895703642E+03  0.12700000000E+01 0. -1.
         25    2    1    2    0    0  0.00000000000E+00  0.00000000000E+00 -0.11085796024E+03  0.16707900040E+03  0.12500362006E+03 0.  0.
    9000005    1    3    3    0    0 -0.48395535409E+02 -0.36700421001E+02 -0.35765720767E+02  0.70492804818E+02  0.10000000000E+01 0.  0.
    9000005    1    3    3    0    0  0.48395535409E+02  0.36700421001E+02 -0.75092239468E+02  0.96586195585E+02  0.10000000000E+01 0.  0.
<mgrwt>
<rscale>  0 0.12500362E+03</rscale>
<asrwt>0</asrwt>
<pdfrwt beam="2">  1        4 0.21379766E-01 0.12500362E+03</pdfrwt>
<pdfrwt beam="1">  1       -4 0.43246955E-02 0.12500362E+03</pdfrwt>
<totfact> 0.95987301E+03</totfact>
</mgrwt>
</event>
<event>
 5    1  0.3327068E-002  0.1249918E+03  0.7818608E-02  0.1235082E+00
         -4   -1    0    0    0  501 -0.00000000000E+00  0.00000000000E+00  0.82866939191E+02  0.82876670487E+02  0.12700000000E+01 0. -1.
          4   -1    0    0  501    0  0.00000000000E+00 -0.00000000000E+00 -0.47111570569E+02  0.47128685336E+02  0.12700000000E+01 0. -1.
         25    2    1    2    0    0  0.00000000000E+00  0.00000000000E+00  0.35755368622E+02  0.13000535582E+03  0.12499178436E+03 0.  0.
    9000005    1    3    3    0    0  0.10176131464E+02  0.57178814294E+02  0.41862704781E+02  0.71599277281E+02  0.10000000000E+01 0.  0.
    9000005    1    3    3    0    0 -0.10176131464E+02 -0.57178814294E+02 -0.61073361591E+01  0.58406078541E+02  0.10000000000E+01 0.  0.
<mgrwt>
<rscale>  0 0.12499178E+03</rscale>
<asrwt>0</asrwt>
<pdfrwt beam="2">  1        4 0.72499990E-02 0.12499178E+03</pdfrwt>
<pdfrwt beam="1">  1       -4 0.12750825E-01 0.12499178E+03</pdfrwt>
<totfact> 0.10346312E+04</totfact>
</mgrwt>
</event>
<event>
 5    1  0.3327068E-002  0.1250444E+03  0.7818608E-02  0.1235000E+00
          4   -1    0    0  501    0  0.00000000000E+00  0.00000000000E+00  0.59511764630E+01  0.60851788219E+01  0.12700000000E+01 0.  1.
         -4   -1    0    0    0  501 -0.00000000000E+00 -0.00000000000E+00 -0.64940129968E+03  0.64940254151E+03  0.12700000000E+01 0.  1.
         25    2    1    2    0    0  0.00000000000E+00  0.00000000000E+00 -0.64345012322E+03  0.65548772034E+03  0.12504435391E+03 0.  0.
    9000005    1    3    3    0    0 -0.58253504960E+02  0.22629560183E+02 -0.31351197334E+03  0.31968159982E+03  0.10000000000E+01 0.  0.
    9000005    1    3    3    0    0  0.58253504960E+02 -0.22629560183E+02 -0.32993814988E+03  0.33580612052E+03  0.10000000000E+01 0.  0.
<mgrwt>
<rscale>  0 0.12504435E+03</rscale>
<asrwt>0</asrwt>
<pdfrwt beam="1">  1        4 0.92596952E-03 0.12504435E+03</pdfrwt>
<pdfrwt beam="2">  1       -4 0.99918240E-01 0.12504435E+03</pdfrwt>
<totfact> 0.45498051E+03</totfact>
</mgrwt>
</event>
<event>
 5    1  0.3327068E-002  0.1249993E+03  0.7818608E-02  0.1235070E+00
         -4   -1    0    0    0  501 -0.00000000000E+00  0.00000000000E+00  0.10342757832E+03  0.10343537527E+03  0.12700000000E+01 0. -1.
          4   -1    0    0  501    0  0.00000000000E+00 -0.00000000000E+00 -0.37747650865E+02  0.37769009066E+02  0.12700000000E+01 0. -1.
         25    2    1    2    0    0  0.00000000000E+00  0.00000000000E+00  0.65679927455E+02  0.14120438433E+03  0.12499930114E+03 0.  0.
    9000005    1    3    3    0    0 -0.52907534451E+02 -0.20982440605E+02  0.36931075798E+01  0.57044798703E+02  0.10000000000E+01 0.  0.
    9000005    1    3    3    0    0  0.52907534451E+02  0.20982440605E+02  0.61986819875E+02  0.84159585631E+02  0.10000000000E+01 0.  0.
<mgrwt>
<rscale>  0 0.12499930E+03</rscale>
<asrwt>0</asrwt>
<pdfrwt beam="2">  1        4 0.58095736E-02 0.12499930E+03</pdfrwt>
<pdfrwt beam="1">  1       -4 0.15914178E-01 0.12499930E+03</pdfrwt>
<totfact> 0.10108844E+04</totfact>
</mgrwt>
</event>
<event>
 5    1  0.3327068E-002  0.1249999E+03  0.7818608E-02  0.1235069E+00
         -4   -1    0    0    0  501 -0.00000000000E+00  0.00000000000E+00  0.31683090476E+03  0.31683345012E+03  0.12700000000E+01 0.  1.
          4   -1    0    0  501    0  0.00000000000E+00 -0.00000000000E+00 -0.12293814398E+02  0.12359238345E+02  0.12700000000E+01 0.  1.
         25    2    1    2    0    0  0.00000000000E+00  0.00000000000E+00  0.30453709037E+03  0.32919268846E+03  0.12499994692E+03 0.  0.
    9000005    1    3    3    0    0  0.10733834616E+02  0.12219370304E+02 -0.66351148568E+01  0.17594117350E+02  0.10000000000E+01 0.  0.
    9000005    1    3    3    0    0 -0.10733834616E+02 -0.12219370304E+02  0.31117220522E+03  0.31159857111E+03  0.10000000000E+01 0.  0.
<mgrwt>
<rscale>  0 0.12499995E+03</rscale>
<asrwt>0</asrwt>
<pdfrwt beam="2">  1        4 0.18965849E-02 0.12499995E+03</pdfrwt>
<pdfrwt beam="1">  1       -4 0.48748433E-01 0.12499995E+03</pdfrwt>
<totfact> 0.72076045E+03</totfact>
</mgrwt>
</event>
<event>
 5    1  0.3327068E-002  0.1250211E+03  0.7818608E-02  0.1235036E+00
          4   -1    0    0  501    0  0.00000000000E+00  0.00000000000E+00  0.63743491833E+02  0.63756142065E+02  0.12700000000E+01 0.  1.
         -4   -1    0    0    0  501 -0.00000000000E+00 -0.00000000000E+00 -0.61276180847E+02  0.61289340340E+02  0.12700000000E+01 0.  1.
         25    2    1    2    0    0  0.00000000000E+00  0.00000000000E+00  0.24673109853E+01  0.12504548240E+03  0.12502113840E+03 0.  0.
    9000005    1    3    3    0    0  0.30017410924E+02 -0.53862969499E+02 -0.89814042114E+01  0.62321184708E+02  0.10000000000E+01 0.  0.
    9000005    1    3    3    0    0 -0.30017410924E+02  0.53862969499E+02  0.11448715197E+02  0.62724297696E+02  0.10000000000E+01 0.  0.
<mgrwt>
<rscale>  0 0.12502114E+03</rscale>
<asrwt>0</asrwt>
<pdfrwt beam="1">  1        4 0.98086764E-02 0.12502114E+03</pdfrwt>
<pdfrwt beam="2">  1       -4 0.94290901E-02 0.12502114E+03</pdfrwt>
<totfact> 0.10446883E+04</totfact>
</mgrwt>
</event>
<event>
 5    1  0.3327068E-002  0.1250048E+03  0.7818608E-02  0.1235062E+00
          4   -1    0    0  501    0  0.00000000000E+00  0.00000000000E+00  0.41981350536E+02  0.42000555863E+02  0.12700000000E+01 0. -1.
         -4   -1    0    0    0  501 -0.00000000000E+00 -0.00000000000E+00 -0.93009528242E+02  0.93018198455E+02  0.12700000000E+01 0. -1.
         25    2    1    2    0    0  0.00000000000E+00  0.00000000000E+00 -0.51028177707E+02  0.13501875432E+03  0.12500475630E+03 0.  0.
    9000005    1    3    3    0    0  0.85970391970E+01  0.50735212861E+02  0.12789083336E+02  0.53033306134E+02  0.10000000000E+01 0.  0.
    9000005    1    3    3    0    0 -0.85970391970E+01 -0.50735212861E+02 -0.63817261043E+02  0.81985448184E+02  0.10000000000E+01 0.  0.
<mgrwt>
<rscale>  0 0.12500476E+03</rscale>
<asrwt>0</asrwt>
<pdfrwt beam="1">  1        4 0.64608136E-02 0.12500476E+03</pdfrwt>
<pdfrwt beam="2">  1       -4 0.14311302E-01 0.12500476E+03</pdfrwt>
<totfact> 0.10236578E+04</totfact>
</mgrwt>
</event>
<event>
 5    1  0.3327068E-002  0.1249584E+03  0.7818608E-02  0.1235134E+00
         -4   -1    0    0    0  501 -0.00000000000E+00  0.00000000000E+00  0.39657241414E+02  0.39677571707E+02  0.12700000000E+01 0. -1.
          4   -1    0    0  501    0  0.00000000000E+00 -0.00000000000E+00 -0.98385055047E+02  0.98393251580E+02  0.12700000000E+01 0. -1.
         25    2    1    2    0    0  0.00000000000E+00  0.00000000000E+00 -0.58727813633E+02  0.13807082329E+03  0.12495837767E+03 0.  0.
    9000005    1    3    3    0    0  0.62441455961E+02 -0.17818308972E+01 -0.28552931937E+02  0.68690467068E+02  0.10000000000E+01 0.  0.
    9000005    1    3    3    0    0 -0.62441455961E+02  0.17818308972E+01 -0.30174881696E+02  0.69380356220E+02  0.10000000000E+01 0.  0.
<mgrwt>
<rscale>  0 0.12495838E+03</rscale>
<asrwt>0</asrwt>
<pdfrwt beam="2">  1        4 0.15138357E-01 0.12495838E+03</pdfrwt>
<pdfrwt beam="1">  1       -4 0.61033085E-02 0.12495838E+03</pdfrwt>
<totfact> 0.10183274E+04</totfact>
</mgrwt>
</event>
<event>
 5    1  0.3327068E-002  0.1250259E+03  0.7818608E-02  0.1235029E+00
          4   -1    0    0  501    0  0.00000000000E+00  0.00000000000E+00  0.23929573874E+01  0.27090856498E+01  0.12700000000E+01 0. -1.
         -4   -1    0    0    0  501 -0.00000000000E+00 -0.00000000000E+00 -0.15315677376E+04  0.15315682642E+04  0.12700000000E+01 0. -1.
         25    2    1    2    0    0  0.00000000000E+00  0.00000000000E+00 -0.15291747802E+04  0.15342773498E+04  0.12502590802E+03 0.  0.
    9000005    1    3    3    0    0  0.44386708330E+02 -0.34295609753E+02 -0.42616922703E+03  0.42984599427E+03  0.10000000000E+01 0.  0.
    9000005    1    3    3    0    0 -0.44386708330E+02  0.34295609753E+02 -0.11030055532E+04  0.11044313555E+04  0.10000000000E+01 0.  0.
<mgrwt>
<rscale>  0 0.12502591E+03</rscale>
<asrwt>0</asrwt>
<pdfrwt beam="1">  1        4 0.39250658E-03 0.12502591E+03</pdfrwt>
<pdfrwt beam="2">  1       -4 0.23564943E+00 0.12502591E+03</pdfrwt>
<totfact> 0.17256670E+03</totfact>
</mgrwt>
</event>
<event>
 5    1  0.3327068E-002  0.1250002E+03  0.7818608E-02  0.1235069E+00
          4   -1    0    0  501    0  0.00000000000E+00  0.00000000000E+00  0.22909792455E+03  0.22910144464E+03  0.12700000000E+01 0. -1.
         -4   -1    0    0    0  501 -0.00000000000E+00 -0.00000000000E+00 -0.17023311271E+02  0.17070618812E+02  0.12700000000E+01 0. -1.
         25    2    1    2    0    0  0.00000000000E+00  0.00000000000E+00  0.21207461328E+03  0.24617206345E+03  0.12500017289E+03 0.  0.
    9000005    1    3    3    0    0 -0.19497711030E+02  0.57962926499E+02  0.13136495592E+03  0.14490553208E+03  0.10000000000E+01 0.  0.
    9000005    1    3    3    0    0  0.19497711030E+02 -0.57962926499E+02  0.80709657365E+02  0.10126653137E+03  0.10000000000E+01 0.  0.
<mgrwt>
<rscale>  0 0.12500017E+03</rscale>
<asrwt>0</asrwt>
<pdfrwt beam="1">  1        4 0.35249745E-01 0.12500017E+03</pdfrwt>
<pdfrwt beam="2">  1       -4 0.26228808E-02 0.12500017E+03</pdfrwt>
<totfact> 0.82886330E+03</totfact>
</mgrwt>
</event>
<event>
 5    1  0.3327068E-002  0.1250014E+03  0.7818608E-02  0.1235067E+00
          4   -1    0    0  501    0  0.00000000000E+00  0.00000000000E+00  0.17413121902E+03  0.17413585024E+03  0.12700000000E+01 0. -1.
         -4   -1    0    0    0  501 -0.00000000000E+00 -0.00000000000E+00 -0.22410373875E+02  0.22446330596E+02  0.12700000000E+01 0. -1.
         25    2    1    2    0    0  0.00000000000E+00  0.00000000000E+00  0.15172084515E+03  0.19658218083E+03  0.12500135587E+03 0.  0.
    9000005    1    3    3    0    0  0.39316363373E+02 -0.60546500007E+01  0.15165613471E+03  0.15678972674E+03  0.10000000000E+01 0.  0.
    9000005    1    3    3    0    0 -0.39316363373E+02  0.60546500007E+01  0.64710437144E-01  0.39792454095E+02  0.10000000000E+01 0.  0.
<mgrwt>
<rscale>  0 0.12500136E+03</rscale>
<asrwt>0</asrwt>
<pdfrwt beam="1">  1        4 0.26792542E-01 0.12500136E+03</pdfrwt>
<pdfrwt beam="2">  1       -4 0.34508718E-02 0.12500136E+03</pdfrwt>
<totfact> 0.90711727E+03</totfact>
</mgrwt>
</event>
<event>
 5    1  0.3327068E-002  0.1250000E+03  0.7818608E-02  0.1235069E+00
         -4   -1    0    0    0  501 -0.00000000000E+00  0.00000000000E+00  0.33080460919E+02  0.33104830381E+02  0.12700000000E+01 0. -1.
          4   -1    0    0  501    0  0.00000000000E+00 -0.00000000000E+00 -0.11801209769E+03  0.11801893111E+03  0.12700000000E+01 0. -1.
         25    2    1    2    0    0  0.00000000000E+00  0.00000000000E+00 -0.84931636769E+02  0.15112376149E+03  0.12500003345E+03 0.  0.
    9000005    1    3    3    0    0  0.11677235661E+02  0.53168584581E+02 -0.79572073423E+02  0.96415616411E+02  0.10000000000E+01 0.  0.
    9000005    1    3    3    0    0 -0.11677235661E+02 -0.53168584581E+02 -0.53595633463E+01  0.54708145082E+02  0.10000000000E+01 0.  0.
<mgrwt>
<rscale>  0 0.12500003E+03</rscale>
<asrwt>0</asrwt>
<pdfrwt beam="2">  1        4 0.18158107E-01 0.12500003E+03</pdfrwt>
<pdfrwt beam="1">  1       -4 0.50917020E-02 0.12500003E+03</pdfrwt>
<totfact> 0.99080089E+03</totfact>
</mgrwt>
</event>
<event>
 5    1  0.3327068E-002  0.1250140E+03  0.7818608E-02  0.1235047E+00
          4   -1    0    0  501    0  0.00000000000E+00  0.00000000000E+00  0.20475014032E+01  0.24093903785E+01  0.12700000000E+01 0. -1.
         -4   -1    0    0    0  501 -0.00000000000E+00 -0.00000000000E+00 -0.17529330790E+04  0.17529335391E+04  0.12700000000E+01 0. -1.
         25    2    1    2    0    0  0.00000000000E+00  0.00000000000E+00 -0.17508855776E+04  0.17553429294E+04  0.12501397556E+03 0.  0.
    9000005    1    3    3    0    0 -0.43710205591E+02  0.35662344061E+02 -0.12531839362E+04  0.12544534120E+04  0.10000000000E+01 0.  0.
    9000005    1    3    3    0    0  0.43710205591E+02 -0.35662344061E+02 -0.49770164138E+03  0.50088951744E+03  0.10000000000E+01 0.  0.
<mgrwt>
<rscale>  0 0.12501398E+03</rscale>
<asrwt>0</asrwt>
<pdfrwt beam="1">  1        4 0.34287462E-03 0.12501398E+03</pdfrwt>
<pdfrwt beam="2">  1       -4 0.26970878E+00 0.12501398E+03</pdfrwt>
<totfact> 0.13400219E+03</totfact>
</mgrwt>
</event>
<event>
 5    1  0.3327068E-002  0.1250216E+03  0.7818608E-02  0.1235036E+00
          4   -1    0    0  501    0  0.00000000000E+00  0.00000000000E+00  0.58955076462E+02  0.58968753935E+02  0.12700000000E+01 0. -1.
         -4   -1    0    0    0  501 -0.00000000000E+00 -0.00000000000E+00 -0.66253508346E+02  0.66265679413E+02  0.12700000000E+01 0. -1.
         25    2    1    2    0    0  0.00000000000E+00  0.00000000000E+00 -0.72984318835E+01  0.12523443335E+03  0.12502158289E+03 0.  0.
    9000005    1    3    3    0    0 -0.41849871305E+02 -0.29638913990E+02 -0.39441296915E+02  0.64703113164E+02  0.10000000000E+01 0.  0.
    9000005    1    3    3    0    0  0.41849871305E+02  0.29638913990E+02  0.32142865032E+02  0.60531320184E+02  0.10000000000E+01 0.  0.
<mgrwt>
<rscale>  0 0.12502158E+03</rscale>
<asrwt>0</asrwt>
<pdfrwt beam="1">  1        4 0.90720001E-02 0.12502158E+03</pdfrwt>
<pdfrwt beam="2">  1       -4 0.10194836E-01 0.12502158E+03</pdfrwt>
<totfact> 0.10442678E+04</totfact>
</mgrwt>
</event>
<event>
 5    1  0.3327068E-002  0.1250038E+03  0.7818608E-02  0.1235063E+00
          4   -1    0    0  501    0  0.00000000000E+00  0.00000000000E+00  0.32060778760E+02  0.32085922688E+02  0.12700000000E+01 0. -1.
         -4   -1    0    0    0  501 -0.00000000000E+00 -0.00000000000E+00 -0.12177006414E+03  0.12177668669E+03  0.12700000000E+01 0. -1.
         25    2    1    2    0    0  0.00000000000E+00  0.00000000000E+00 -0.89709285383E+02  0.15386260938E+03  0.12500378667E+03 0.  0.
    9000005    1    3    3    0    0  0.24983254203E+02  0.72886923263E+01  0.25079627928E+02  0.36156268660E+02  0.10000000000E+01 0.  0.
    9000005    1    3    3    0    0 -0.24983254203E+02 -0.72886923263E+01 -0.11478891331E+03  0.11770634072E+03  0.10000000000E+01 0.  0.
<mgrwt>
<rscale>  0 0.12500379E+03</rscale>
<asrwt>0</asrwt>
<pdfrwt beam="1">  1        4 0.49348712E-02 0.12500379E+03</pdfrwt>
<pdfrwt beam="2">  1       -4 0.18736299E-01 0.12500379E+03</pdfrwt>
<totfact> 0.98530849E+03</totfact>
</mgrwt>
</event>
<event>
 5    1  0.3327068E-002  0.1250024E+03  0.7818608E-02  0.1235065E+00
         -4   -1    0    0    0  501 -0.00000000000E+00  0.00000000000E+00  0.81250910971E+02  0.81260835792E+02  0.12700000000E+01 0.  1.
          4   -1    0    0  501    0  0.00000000000E+00 -0.00000000000E+00 -0.48057010698E+02  0.48073788879E+02  0.12700000000E+01 0.  1.
         25    2    1    2    0    0  0.00000000000E+00  0.00000000000E+00  0.33193900273E+02  0.12933462467E+03  0.12500244047E+03 0.  0.
    9000005    1    3    3    0    0 -0.60635232631E+02 -0.10579204190E+02  0.54125287026E+01  0.61796815973E+02  0.10000000000E+01 0.  0.
    9000005    1    3    3    0    0  0.60635232631E+02  0.10579204190E+02  0.27781371571E+02  0.67537808699E+02  0.10000000000E+01 0.  0.
<mgrwt>
<rscale>  0 0.12500244E+03</rscale>
<asrwt>0</asrwt>
<pdfrwt beam="2">  1        4 0.73954404E-02 0.12500244E+03</pdfrwt>
<pdfrwt beam="1">  1       -4 0.12502194E-01 0.12500244E+03</pdfrwt>
<totfact> 0.10358191E+04</totfact>
</mgrwt>
</event>
<event>
 5    1  0.3327068E-002  0.1249890E+03  0.7818608E-02  0.1235086E+00
         -4   -1    0    0    0  501 -0.00000000000E+00  0.00000000000E+00  0.25395076567E+03  0.25395394126E+03  0.12700000000E+01 0. -1.
          4   -1    0    0  501    0  0.00000000000E+00 -0.00000000000E+00 -0.15349722017E+02  0.15402170821E+02  0.12700000000E+01 0. -1.
         25    2    1    2    0    0  0.00000000000E+00  0.00000000000E+00  0.23860104365E+03  0.26935611208E+03  0.12498902786E+03 0.  0.
    9000005    1    3    3    0    0  0.16389472528E+02  0.59730934849E+02  0.10150809068E+03  0.11891716387E+03  0.10000000000E+01 0.  0.
    9000005    1    3    3    0    0 -0.16389472528E+02 -0.59730934849E+02  0.13709295297E+03  0.15043894822E+03  0.10000000000E+01 0.  0.
<mgrwt>
<rscale>  0 0.12498903E+03</rscale>
<asrwt>0</asrwt>
<pdfrwt beam="2">  1        4 0.23657747E-02 0.12498903E+03</pdfrwt>
<pdfrwt beam="1">  1       -4 0.39073624E-01 0.12498903E+03</pdfrwt>
<totfact> 0.79630168E+03</totfact>
</mgrwt>
</event>
<event>
 5    1  0.3327068E-002  0.1250024E+03  0.7818608E-02  0.1235066E+00
          4   -1    0    0  501    0  0.00000000000E+00  0.00000000000E+00  0.72782546259E+02  0.72793625683E+02  0.12700000000E+01 0.  1.
         -4   -1    0    0    0  501 -0.00000000000E+00 -0.00000000000E+00 -0.53649523174E+02  0.53664552889E+02  0.12700000000E+01 0.  1.
         25    2    1    2    0    0  0.00000000000E+00  0.00000000000E+00  0.19133023085E+02  0.12645817857E+03  0.12500239340E+03 0.  0.
    9000005    1    3    3    0    0  0.23521675760E+02  0.15661805327E+02 -0.46821647084E+02  0.54697605179E+02  0.10000000000E+01 0.  0.
    9000005    1    3    3    0    0 -0.23521675760E+02 -0.15661805327E+02  0.65954670169E+02  0.71760573393E+02  0.10000000000E+01 0.  0.
<mgrwt>
<rscale>  0 0.12500239E+03</rscale>
<asrwt>0</asrwt>
<pdfrwt beam="1">  1        4 0.11199323E-01 0.12500239E+03</pdfrwt>
<pdfrwt beam="2">  1       -4 0.82557812E-02 0.12500239E+03</pdfrwt>
<totfact> 0.10420377E+04</totfact>
</mgrwt>
</event>
<event>
 5    1  0.3327068E-002  0.1249931E+03  0.7818608E-02  0.1235080E+00
          4   -1    0    0  501    0  0.00000000000E+00  0.00000000000E+00  0.91076556386E+01  0.91957757276E+01  0.12700000000E+01 0. -1.
         -4   -1    0    0    0  501 -0.00000000000E+00 -0.00000000000E+00 -0.42669661356E+03  0.42669850354E+03  0.12700000000E+01 0. -1.
         25    2    1    2    0    0  0.00000000000E+00  0.00000000000E+00 -0.41758895792E+03  0.43589427926E+03  0.12499313949E+03 0.  0.
    9000005    1    3    3    0    0 -0.47355740982E+02 -0.90721943762E+01 -0.70177411195E+02  0.85151276895E+02  0.10000000000E+01 0.  0.
    9000005    1    3    3    0    0  0.47355740982E+02  0.90721943762E+01 -0.34741154672E+03  0.35074300237E+03  0.10000000000E+01 0.  0.
<mgrwt>
<rscale>  0 0.12499314E+03</rscale>
<asrwt>0</asrwt>
<pdfrwt beam="1">  1        4 0.14081020E-02 0.12499314E+03</pdfrwt>
<pdfrwt beam="2">  1       -4 0.65652541E-01 0.12499314E+03</pdfrwt>
<totfact> 0.61214585E+03</totfact>
</mgrwt>
</event>
<event>
 5    1  0.3327068E-002  0.1250140E+03  0.7818608E-02  0.1235047E+00
          4   -1    0    0  501    0  0.00000000000E+00  0.00000000000E+00  0.71139627432E+02  0.71150962686E+02  0.12700000000E+01 0.  1.
         -4   -1    0    0    0  501 -0.00000000000E+00 -0.00000000000E+00 -0.54898864252E+02  0.54913552026E+02  0.12700000000E+01 0.  1.
         25    2    1    2    0    0  0.00000000000E+00  0.00000000000E+00  0.16240763180E+02  0.12606451471E+03  0.12501399714E+03 0.  0.
    9000005    1    3    3    0    0 -0.10952277235E+02 -0.27706264311E+02  0.63523263039E+02  0.70169754210E+02  0.10000000000E+01 0.  0.
    9000005    1    3    3    0    0  0.10952277235E+02  0.27706264311E+02 -0.47282499859E+02  0.55894760502E+02  0.10000000000E+01 0.  0.
<mgrwt>
<rscale>  0 0.12501400E+03</rscale>
<asrwt>0</asrwt>
<pdfrwt beam="1">  1        4 0.10946560E-01 0.12501400E+03</pdfrwt>
<pdfrwt beam="2">  1       -4 0.84479809E-02 0.12501400E+03</pdfrwt>
<totfact> 0.10426250E+04</totfact>
</mgrwt>
</event>
<event>
 5    1  0.3327068E-002  0.1250020E+03  0.7818608E-02  0.1235066E+00
         -4   -1    0    0    0  501 -0.00000000000E+00  0.00000000000E+00  0.22108235252E+02  0.22144682567E+02  0.12700000000E+01 0.  1.
          4   -1    0    0  501    0  0.00000000000E+00 -0.00000000000E+00 -0.17650900666E+03  0.17651357549E+03  0.12700000000E+01 0.  1.
         25    2    1    2    0    0  0.00000000000E+00  0.00000000000E+00 -0.15440077141E+03  0.19865825806E+03  0.12500202111E+03 0.  0.
    9000005    1    3    3    0    0 -0.23954390104E+02 -0.35128777590E+02 -0.44150419609E+01  0.42759050688E+02  0.10000000000E+01 0.  0.
    9000005    1    3    3    0    0  0.23954390104E+02  0.35128777590E+02 -0.14998572945E+03  0.15589920737E+03  0.10000000000E+01 0.  0.
<mgrwt>
<rscale>  0 0.12500202E+03</rscale>
<asrwt>0</asrwt>
<pdfrwt beam="2">  1        4 0.27158386E-01 0.12500202E+03</pdfrwt>
<pdfrwt beam="1">  1       -4 0.34044222E-02 0.12500202E+03</pdfrwt>
<totfact> 0.90358161E+03</totfact>
</mgrwt>
</event>
<event>
 5    1  0.3327068E-002  0.1249967E+03  0.7818608E-02  0.1235075E+00
         -4   -1    0    0    0  501 -0.00000000000E+00  0.00000000000E+00  0.65323283059E+03  0.65323406514E+03  0.12700000000E+01 0.  1.
          4   -1    0    0  501    0  0.00000000000E+00 -0.00000000000E+00 -0.59108659404E+01  0.60457618350E+01  0.12700000000E+01 0.  1.
         25    2    1    2    0    0  0.00000000000E+00  0.00000000000E+00  0.64732196465E+03  0.65927982697E+03  0.12499665731E+03 0.  0.
    9000005    1    3    3    0    0  0.51449388871E+02  0.89384259304E+01  0.50469641071E+03  0.50739176389E+03  0.10000000000E+01 0.  0.
    9000005    1    3    3    0    0 -0.51449388871E+02 -0.89384259304E+01  0.14262555393E+03  0.15188806309E+03  0.10000000000E+01 0.  0.
<mgrwt>
<rscale>  0 0.12499666E+03</rscale>
<asrwt>0</asrwt>
<pdfrwt beam="2">  1        4 0.91983535E-03 0.12499666E+03</pdfrwt>
<pdfrwt beam="1">  1       -4 0.10050785E+00 0.12499666E+03</pdfrwt>
<totfact> 0.45328308E+03</totfact>
</mgrwt>
</event>
<event>
 5    1  0.3327068E-002  0.1249970E+03  0.7818608E-02  0.1235074E+00
         -4   -1    0    0    0  501 -0.00000000000E+00  0.00000000000E+00  0.51381589923E+02  0.51397282837E+02  0.12700000000E+01 0. -1.
          4   -1    0    0  501    0  0.00000000000E+00 -0.00000000000E+00 -0.75988032011E+02  0.75998644125E+02  0.12700000000E+01 0. -1.
         25    2    1    2    0    0  0.00000000000E+00  0.00000000000E+00 -0.24606442088E+02  0.12739592696E+03  0.12499698082E+03 0.  0.
    9000005    1    3    3    0    0  0.60775870953E+02 -0.13617961107E+01 -0.27055134994E+02  0.66547286258E+02  0.10000000000E+01 0.  0.
    9000005    1    3    3    0    0 -0.60775870953E+02  0.13617961107E+01  0.24486929062E+01  0.60848640705E+02  0.10000000000E+01 0.  0.
<mgrwt>
<rscale>  0 0.12499698E+03</rscale>
<asrwt>0</asrwt>
<pdfrwt beam="2">  1        4 0.11692490E-01 0.12499698E+03</pdfrwt>
<pdfrwt beam="1">  1       -4 0.79068834E-02 0.12499698E+03</pdfrwt>
<totfact> 0.10401264E+04</totfact>
</mgrwt>
</event>
<event>
 5    1  0.3327068E-002  0.1249971E+03  0.7818608E-02  0.1235074E+00
          4   -1    0    0  501    0  0.00000000000E+00  0.00000000000E+00  0.71913638767E+02  0.71924852039E+02  0.12700000000E+01 0.  1.
         -4   -1    0    0    0  501 -0.00000000000E+00 -0.00000000000E+00 -0.54293247690E+02  0.54308099255E+02  0.12700000000E+01 0.  1.
         25    2    1    2    0    0  0.00000000000E+00  0.00000000000E+00  0.17620391077E+02  0.12623295129E+03  0.12499711921E+03 0.  0.
    9000005    1    3    3    0    0  0.48846886289E+02  0.16934158783E+01 -0.30512989418E+02  0.57627497609E+02  0.10000000000E+01 0.  0.
    9000005    1    3    3    0    0 -0.48846886289E+02 -0.16934158783E+01  0.48133380495E+02  0.68605453685E+02  0.10000000000E+01 0.  0.
<mgrwt>
<rscale>  0 0.12499712E+03</rscale>
<asrwt>0</asrwt>
<pdfrwt beam="1">  1        4 0.11065642E-01 0.12499712E+03</pdfrwt>
<pdfrwt beam="2">  1       -4 0.83548123E-02 0.12499712E+03</pdfrwt>
<totfact> 0.10426536E+04</totfact>
</mgrwt>
</event>
<event>
 5    1  0.3327068E-002  0.1250035E+03  0.7818608E-02  0.1235064E+00
          4   -1    0    0  501    0  0.00000000000E+00  0.00000000000E+00  0.21710542864E+03  0.21710914316E+03  0.12700000000E+01 0. -1.
         -4   -1    0    0    0  501 -0.00000000000E+00 -0.00000000000E+00 -0.17967124779E+02  0.18011953609E+02  0.12700000000E+01 0. -1.
         25    2    1    2    0    0  0.00000000000E+00  0.00000000000E+00  0.19913830386E+03  0.23512109677E+03  0.12500346428E+03 0.  0.
    9000005    1    3    3    0    0  0.30708416499E+02 -0.14456444035E+01  0.20190847305E+03  0.20423792062E+03  0.10000000000E+01 0.  0.
    9000005    1    3    3    0    0 -0.30708416499E+02  0.14456444035E+01 -0.27701691884E+01  0.30883176148E+02  0.10000000000E+01 0.  0.
<mgrwt>
<rscale>  0 0.12500346E+03</rscale>
<asrwt>0</asrwt>
<pdfrwt beam="1">  1        4 0.33404568E-01 0.12500346E+03</pdfrwt>
<pdfrwt beam="2">  1       -4 0.27679072E-02 0.12500346E+03</pdfrwt>
<totfact> 0.84522871E+03</totfact>
</mgrwt>
</event>
<event>
 5    1  0.3327068E-002  0.1249986E+03  0.7818608E-02  0.1235071E+00
          4   -1    0    0  501    0  0.00000000000E+00  0.00000000000E+00  0.40733814038E+03  0.40734012018E+03  0.12700000000E+01 0.  1.
         -4   -1    0    0    0  501 -0.00000000000E+00 -0.00000000000E+00 -0.95454301023E+01  0.96295449445E+01  0.12700000000E+01 0.  1.
         25    2    1    2    0    0  0.00000000000E+00  0.00000000000E+00  0.39779271028E+03  0.41696966513E+03  0.12499864513E+03 0.  0.
    9000005    1    3    3    0    0 -0.59001496990E+02  0.18249523647E+02  0.16708478304E+03  0.17813631434E+03  0.10000000000E+01 0.  0.
    9000005    1    3    3    0    0  0.59001496990E+02 -0.18249523647E+02  0.23070792724E+03  0.23883335079E+03  0.10000000000E+01 0.  0.
<mgrwt>
<rscale>  0 0.12499865E+03</rscale>
<asrwt>0</asrwt>
<pdfrwt beam="1">  1        4 0.62674033E-01 0.12499865E+03</pdfrwt>
<pdfrwt beam="2">  1       -4 0.14751503E-02 0.12499865E+03</pdfrwt>
<totfact> 0.62937014E+03</totfact>
</mgrwt>
</event>
<event>
 5    1  0.3327068E-002  0.1249980E+03  0.7818608E-02  0.1235072E+00
         -4   -1    0    0    0  501 -0.00000000000E+00  0.00000000000E+00  0.13817924537E+03  0.13818508151E+03  0.12700000000E+01 0.  1.
          4   -1    0    0  501    0  0.00000000000E+00 -0.00000000000E+00 -0.28247840089E+02  0.28276374762E+02  0.12700000000E+01 0.  1.
         25    2    1    2    0    0  0.00000000000E+00  0.00000000000E+00  0.10993140528E+03  0.16646145627E+03  0.12499801021E+03 0.  0.
    9000005    1    3    3    0    0 -0.91956862180E+01 -0.59154765914E+02  0.31095751373E+02  0.67466975097E+02  0.10000000000E+01 0.  0.
    9000005    1    3    3    0    0  0.91956862180E+01  0.59154765914E+02  0.78835653909E+02  0.98994481172E+02  0.10000000000E+01 0.  0.
<mgrwt>
<rscale>  0 0.12499801E+03</rscale>
<asrwt>0</asrwt>
<pdfrwt beam="2">  1        4 0.43484654E-02 0.12499801E+03</pdfrwt>
<pdfrwt beam="1">  1       -4 0.21260989E-01 0.12499801E+03</pdfrwt>
<totfact> 0.96115625E+03</totfact>
</mgrwt>
</event>
<event>
 5    1  0.3327068E-002  0.1249682E+03  0.7818608E-02  0.1235119E+00
         -4   -1    0    0    0  501 -0.00000000000E+00  0.00000000000E+00  0.12298686395E+01  0.17679018272E+01  0.12700000000E+01 0. -1.
          4   -1    0    0  501    0  0.00000000000E+00 -0.00000000000E+00 -0.26042383954E+04  0.26042387051E+04  0.12700000000E+01 0. -1.
         25    2    1    2    0    0  0.00000000000E+00  0.00000000000E+00 -0.26030085268E+04  0.26060066069E+04  0.12496817513E+03 0.  0.
    9000005    1    3    3    0    0  0.14978535519E+02  0.51451784696E+01 -0.25617845491E+04  0.25618336998E+04  0.10000000000E+01 0.  0.
    9000005    1    3    3    0    0 -0.14978535519E+02 -0.51451784696E+01 -0.41223977670E+02  0.44172907112E+02  0.10000000000E+01 0.  0.
<mgrwt>
<rscale>  0 0.12496818E+03</rscale>
<asrwt>0</asrwt>
<pdfrwt beam="2">  1        4 0.40068985E+00 0.12496818E+03</pdfrwt>
<pdfrwt beam="1">  1       -4 0.23062363E-03 0.12496818E+03</pdfrwt>
<totfact> 0.38919324E+02</totfact>
</mgrwt>
</event>
<event>
 5    1  0.3327068E-002  0.1249997E+03  0.7818608E-02  0.1235070E+00
          4   -1    0    0  501    0  0.00000000000E+00  0.00000000000E+00  0.13277680497E+04  0.13277686571E+04  0.12700000000E+01 0.  1.
         -4   -1    0    0    0  501 -0.00000000000E+00 -0.00000000000E+00 -0.28042568944E+01  0.30784341361E+01  0.12700000000E+01 0.  1.
         25    2    1    2    0    0  0.00000000000E+00  0.00000000000E+00  0.13249637928E+04  0.13308470912E+04  0.12499971173E+03 0.  0.
    9000005    1    3    3    0    0  0.33420706262E+02 -0.50680411534E+02  0.50464176109E+03  0.50828117687E+03  0.10000000000E+01 0.  0.
    9000005    1    3    3    0    0 -0.33420706262E+02  0.50680411534E+02  0.82032203173E+03  0.82256591435E+03  0.10000000000E+01 0.  0.
<mgrwt>
<rscale>  0 0.12499971E+03</rscale>
<asrwt>0</asrwt>
<pdfrwt beam="1">  1        4 0.20429308E+00 0.12499971E+03</pdfrwt>
<pdfrwt beam="2">  1       -4 0.45256156E-03 0.12499971E+03</pdfrwt>
<totfact> 0.21512120E+03</totfact>
</mgrwt>
</event>
<event>
 5    1  0.3327068E-002  0.1250012E+03  0.7818608E-02  0.1235067E+00
         -4   -1    0    0    0  501 -0.00000000000E+00  0.00000000000E+00  0.26868137650E+03  0.26868437799E+03  0.12700000000E+01 0.  1.
          4   -1    0    0  501    0  0.00000000000E+00 -0.00000000000E+00 -0.14508043829E+02  0.14563524153E+02  0.12700000000E+01 0.  1.
         25    2    1    2    0    0  0.00000000000E+00  0.00000000000E+00  0.25417333267E+03  0.28324790214E+03  0.12500116411E+03 0.  0.
    9000005    1    3    3    0    0  0.22905209410E+02 -0.30283885754E+02  0.23955603362E+03  0.24254866645E+03  0.10000000000E+01 0.  0.
    9000005    1    3    3    0    0 -0.22905209410E+02  0.30283885754E+02  0.14617299052E+02  0.40699235694E+02  0.10000000000E+01 0.  0.
<mgrwt>
<rscale>  0 0.12500116E+03</rscale>
<asrwt>0</asrwt>
<pdfrwt beam="2">  1        4 0.22365055E-02 0.12500116E+03</pdfrwt>
<pdfrwt beam="1">  1       -4 0.41340092E-01 0.12500116E+03</pdfrwt>
<totfact> 0.77747408E+03</totfact>
</mgrwt>
</event>
<event>
 5    1  0.3327068E-002  0.1249976E+03  0.7818608E-02  0.1235073E+00
         -4   -1    0    0    0  501 -0.00000000000E+00  0.00000000000E+00  0.12172832039E+03  0.12173494521E+03  0.12700000000E+01 0. -1.
          4   -1    0    0  501    0  0.00000000000E+00 -0.00000000000E+00 -0.32068611817E+02  0.32093749608E+02  0.12700000000E+01 0. -1.
         25    2    1    2    0    0  0.00000000000E+00  0.00000000000E+00  0.89659708575E+02  0.15382869482E+03  0.12499761601E+03 0.  0.
    9000005    1    3    3    0    0  0.26099537607E+02 -0.51072226233E+02  0.75362523265E+02  0.94710443292E+02  0.10000000000E+01 0.  0.
    9000005    1    3    3    0    0 -0.26099537607E+02  0.51072226233E+02  0.14297185310E+02  0.59118251526E+02  0.10000000000E+01 0.  0.
<mgrwt>
<rscale>  0 0.12499762E+03</rscale>
<asrwt>0</asrwt>
<pdfrwt beam="2">  1        4 0.49360758E-02 0.12499762E+03</pdfrwt>
<pdfrwt beam="1">  1       -4 0.18729877E-01 0.12499762E+03</pdfrwt>
<totfact> 0.98551192E+03</totfact>
</mgrwt>
</event>
<event>
 5    1  0.3327068E-002  0.1249988E+03  0.7818608E-02  0.1235071E+00
          4   -1    0    0  501    0  0.00000000000E+00  0.00000000000E+00  0.45427039522E+03  0.45427217048E+03  0.12700000000E+01 0. -1.
         -4   -1    0    0    0  501 -0.00000000000E+00 -0.00000000000E+00 -0.85500979676E+01  0.86439039360E+01  0.12700000000E+01 0. -1.
         25    2    1    2    0    0  0.00000000000E+00  0.00000000000E+00  0.44572029725E+03  0.46291607442E+03  0.12499883428E+03 0.  0.
    9000005    1    3    3    0    0 -0.74742855401E+01 -0.53064294570E+02  0.10380449193E+03  0.11682489824E+03  0.10000000000E+01 0.  0.
    9000005    1    3    3    0    0  0.74742855401E+01  0.53064294570E+02  0.34191580532E+03  0.34609117618E+03  0.10000000000E+01 0.  0.
<mgrwt>
<rscale>  0 0.12499883E+03</rscale>
<asrwt>0</asrwt>
<pdfrwt beam="1">  1        4 0.69895117E-01 0.12499883E+03</pdfrwt>
<pdfrwt beam="2">  1       -4 0.13227519E-02 0.12499883E+03</pdfrwt>
<totfact> 0.58862485E+03</totfact>
</mgrwt>
</event>
<event>
 5    1  0.3327068E-002  0.1249996E+03  0.7818608E-02  0.1235070E+00
         -4   -1    0    0    0  501 -0.00000000000E+00  0.00000000000E+00  0.37114773001E+02  0.37136495189E+02  0.12700000000E+01 0.  1.
          4   -1    0    0  501    0  0.00000000000E+00 -0.00000000000E+00 -0.10519080215E+03  0.10519846842E+03  0.12700000000E+01 0.  1.
         25    2    1    2    0    0  0.00000000000E+00  0.00000000000E+00 -0.68076029151E+02  0.14233496361E+03  0.12499958448E+03 0.  0.
    9000005    1    3    3    0    0 -0.45464522000E+02  0.21451718386E+02  0.82319205307E+01  0.50950598604E+02  0.10000000000E+01 0.  0.
    9000005    1    3    3    0    0  0.45464522000E+02 -0.21451718386E+02 -0.76307949681E+02  0.91384365003E+02  0.10000000000E+01 0.  0.
<mgrwt>
<rscale>  0 0.12499958E+03</rscale>
<asrwt>0</asrwt>
<pdfrwt beam="2">  1        4 0.16185461E-01 0.12499958E+03</pdfrwt>
<pdfrwt beam="1">  1       -4 0.57122258E-02 0.12499958E+03</pdfrwt>
<totfact> 0.10085514E+04</totfact>
</mgrwt>
</event>
<event>
 5    1  0.3327068E-002  0.1250054E+03  0.7818608E-02  0.1235061E+00
         -4   -1    0    0    0  501 -0.00000000000E+00  0.00000000000E+00  0.90753957979E+03  0.90754046840E+03  0.12700000000E+01 0. -1.
          4   -1    0    0  501    0  0.00000000000E+00 -0.00000000000E+00 -0.42100108633E+01  0.43973959873E+01  0.12700000000E+01 0. -1.
         25    2    1    2    0    0  0.00000000000E+00  0.00000000000E+00  0.90332956893E+03  0.91193786439E+03  0.12500543351E+03 0.  0.
    9000005    1    3    3    0    0  0.10918510363E+02 -0.61533190138E+02  0.45016536619E+03  0.45448366777E+03  0.10000000000E+01 0.  0.
    9000005    1    3    3    0    0 -0.10918510363E+02  0.61533190138E+02  0.45316420274E+03  0.45745419661E+03  0.10000000000E+01 0.  0.
<mgrwt>
<rscale>  0 0.12500543E+03</rscale>
<asrwt>0</asrwt>
<pdfrwt beam="2">  1        4 0.66217602E-03 0.12500543E+03</pdfrwt>
<pdfrwt beam="1">  1       -4 0.13963607E+00 0.12500543E+03</pdfrwt>
<totfact> 0.33702886E+03</totfact>
</mgrwt>
</event>
<event>
 5    1  0.3327068E-002  0.1250005E+03  0.7818608E-02  0.1235069E+00
          4   -1    0    0  501    0  0.00000000000E+00  0.00000000000E+00  0.78507430767E+02  0.78517702371E+02  0.12700000000E+01 0.  1.
         -4   -1    0    0    0  501 -0.00000000000E+00 -0.00000000000E+00 -0.49735175657E+02  0.49751387896E+02  0.12700000000E+01 0.  1.
         25    2    1    2    0    0  0.00000000000E+00  0.00000000000E+00  0.28772255110E+02  0.12826909027E+03  0.12500046741E+03 0.  0.
    9000005    1    3    3    0    0  0.20885667468E+02 -0.58639168304E+02  0.87175443472E+01  0.62863015712E+02  0.10000000000E+01 0.  0.
    9000005    1    3    3    0    0 -0.20885667468E+02  0.58639168304E+02  0.20054710763E+02  0.65406074555E+02  0.10000000000E+01 0.  0.
<mgrwt>
<rscale>  0 0.12500047E+03</rscale>
<asrwt>0</asrwt>
<pdfrwt beam="1">  1        4 0.12080103E-01 0.12500047E+03</pdfrwt>
<pdfrwt beam="2">  1       -4 0.76536027E-02 0.12500047E+03</pdfrwt>
<totfact> 0.10381571E+04</totfact>
</mgrwt>
</event>
<event>
 5    1  0.3327068E-002  0.1250020E+03  0.7818608E-02  0.1235066E+00
          4   -1    0    0  501    0  0.00000000000E+00  0.00000000000E+00  0.14674729159E+03  0.14675278699E+03  0.12700000000E+01 0. -1.
         -4   -1    0    0    0  501 -0.00000000000E+00 -0.00000000000E+00 -0.26598586786E+02  0.26628888806E+02  0.12700000000E+01 0. -1.
         25    2    1    2    0    0  0.00000000000E+00  0.00000000000E+00  0.12014870480E+03  0.17338167580E+03  0.12500197693E+03 0.  0.
    9000005    1    3    3    0    0 -0.33972863449E+02  0.52442029491E+02  0.61496753549E+02  0.87676522543E+02  0.10000000000E+01 0.  0.
    9000005    1    3    3    0    0  0.33972863449E+02 -0.52442029491E+02  0.58651951256E+02  0.85705153253E+02  0.10000000000E+01 0.  0.
<mgrwt>
<rscale>  0 0.12500198E+03</rscale>
<asrwt>0</asrwt>
<pdfrwt beam="1">  1        4 0.22579260E-01 0.12500198E+03</pdfrwt>
<pdfrwt beam="2">  1       -4 0.40948439E-02 0.12500198E+03</pdfrwt>
<totfact> 0.94817865E+03</totfact>
</mgrwt>
</event>
<event>
 5    1  0.3327068E-002  0.1249991E+03  0.7818608E-02  0.1235071E+00
         -4   -1    0    0    0  501 -0.00000000000E+00  0.00000000000E+00  0.97358230122E+02  0.97366513096E+02  0.12700000000E+01 0. -1.
          4   -1    0    0  501    0  0.00000000000E+00 -0.00000000000E+00 -0.40101804647E+02  0.40121909675E+02  0.12700000000E+01 0. -1.
         25    2    1    2    0    0  0.00000000000E+00  0.00000000000E+00  0.57256425475E+02  0.13748842277E+03  0.12499907255E+03 0.  0.
    9000005    1    3    3    0    0  0.17080728380E+02  0.53906869131E+02 -0.62809781955E+00  0.56560554527E+02  0.10000000000E+01 0.  0.
    9000005    1    3    3    0    0 -0.17080728380E+02 -0.53906869131E+02  0.57884523295E+02  0.80927868244E+02  0.10000000000E+01 0.  0.
<mgrwt>
<rscale>  0 0.12499907E+03</rscale>
<asrwt>0</asrwt>
<pdfrwt beam="2">  1        4 0.61716922E-02 0.12499907E+03</pdfrwt>
<pdfrwt beam="1">  1       -4 0.14980373E-01 0.12499907E+03</pdfrwt>
<totfact> 0.10186096E+04</totfact>
</mgrwt>
</event>
<event>
 5    1  0.3327068E-002  0.1250022E+03  0.7818608E-02  0.1235066E+00
         -4   -1    0    0    0  501 -0.00000000000E+00  0.00000000000E+00  0.10528445479E+04  0.10528453139E+04  0.12700000000E+01 0. -1.
          4   -1    0    0  501    0  0.00000000000E+00 -0.00000000000E+00 -0.36008500065E+01  0.38182483902E+01  0.12700000000E+01 0. -1.
         25    2    1    2    0    0  0.00000000000E+00  0.00000000000E+00  0.10492436979E+04  0.10566635622E+04  0.12500218496E+03 0.  0.
    9000005    1    3    3    0    0 -0.46913239841E+02 -0.27156008926E+02  0.78749825029E+03  0.78936227115E+03  0.10000000000E+01 0.  0.
    9000005    1    3    3    0    0  0.46913239841E+02  0.27156008926E+02  0.26174544759E+03  0.26730129110E+03  0.10000000000E+01 0.  0.
<mgrwt>
<rscale>  0 0.12500218E+03</rscale>
<asrwt>0</asrwt>
<pdfrwt beam="2">  1        4 0.57075971E-03 0.12500218E+03</pdfrwt>
<pdfrwt beam="1">  1       -4 0.16199261E+00 0.12500218E+03</pdfrwt>
<totfact> 0.28786294E+03</totfact>
</mgrwt>
</event>
<event>
 5    1  0.3327068E-002  0.1249942E+03  0.7818608E-02  0.1235078E+00
         -4   -1    0    0    0  501 -0.00000000000E+00  0.00000000000E+00  0.65623272694E+03  0.65623395584E+03  0.12700000000E+01 0. -1.
          4   -1    0    0  501    0  0.00000000000E+00 -0.00000000000E+00 -0.58829917364E+01  0.60185124218E+01  0.12700000000E+01 0. -1.
         25    2    1    2    0    0  0.00000000000E+00  0.00000000000E+00  0.65034973520E+03  0.66225246827E+03  0.12499421446E+03 0.  0.
    9000005    1    3    3    0    0 -0.40082704081E+02  0.47324164248E+02  0.28458561933E+03  0.29126650067E+03  0.10000000000E+01 0.  0.
    9000005    1    3    3    0    0  0.40082704081E+02 -0.47324164248E+02  0.36576411588E+03  0.37098596759E+03  0.10000000000E+01 0.  0.
<mgrwt>
<rscale>  0 0.12499421E+03</rscale>
<asrwt>0</asrwt>
<pdfrwt beam="2">  1        4 0.91559531E-03 0.12499421E+03</pdfrwt>
<pdfrwt beam="1">  1       -4 0.10096935E+00 0.12499421E+03</pdfrwt>
<totfact> 0.45161264E+03</totfact>
</mgrwt>
</event>
<event>
 5    1  0.3327068E-002  0.1249993E+03  0.7818608E-02  0.1235070E+00
         -4   -1    0    0    0  501 -0.00000000000E+00  0.00000000000E+00  0.73190949814E+02  0.73201967423E+02  0.12700000000E+01 0.  1.
          4   -1    0    0  501    0  0.00000000000E+00 -0.00000000000E+00 -0.53347437241E+02  0.53362552040E+02  0.12700000000E+01 0.  1.
         25    2    1    2    0    0  0.00000000000E+00  0.00000000000E+00  0.19843512572E+02  0.12656451946E+03  0.12499925038E+03 0.  0.
    9000005    1    3    3    0    0  0.24788823859E+02 -0.17207745527E+02  0.65330048322E+02  0.71969490120E+02  0.10000000000E+01 0.  0.
    9000005    1    3    3    0    0 -0.24788823859E+02  0.17207745527E+02 -0.45486535750E+02  0.54595029343E+02  0.10000000000E+01 0.  0.
<mgrwt>
<rscale>  0 0.12499925E+03</rscale>
<asrwt>0</asrwt>
<pdfrwt beam="2">  1        4 0.82093082E-02 0.12499925E+03</pdfrwt>
<pdfrwt beam="1">  1       -4 0.11262156E-01 0.12499925E+03</pdfrwt>
<totfact> 0.10418798E+04</totfact>
</mgrwt>
</event>
<event>
 5    1  0.3327068E-002  0.1249968E+03  0.7818608E-02  0.1235074E+00
          4   -1    0    0  501    0  0.00000000000E+00  0.00000000000E+00  0.15762359530E+03  0.15762871152E+03  0.12700000000E+01 0. -1.
         -4   -1    0    0    0  501 -0.00000000000E+00 -0.00000000000E+00 -0.24759069157E+02  0.24791619663E+02  0.12700000000E+01 0. -1.
         25    2    1    2    0    0  0.00000000000E+00  0.00000000000E+00  0.13286452614E+03  0.18242033118E+03  0.12499677964E+03 0.  0.
    9000005    1    3    3    0    0 -0.26651267766E+02  0.20951174101E+01 -0.15999555952E+02  0.31171547622E+02  0.10000000000E+01 0.  0.
    9000005    1    3    3    0    0  0.26651267766E+02 -0.20951174101E+01  0.14886408209E+03  0.15124878356E+03  0.10000000000E+01 0.  0.
<mgrwt>
<rscale>  0 0.12499678E+03</rscale>
<asrwt>0</asrwt>
<pdfrwt beam="1">  1        4 0.24252682E-01 0.12499678E+03</pdfrwt>
<pdfrwt beam="2">  1       -4 0.38119850E-02 0.12499678E+03</pdfrwt>
<totfact> 0.93189868E+03</totfact>
</mgrwt>
</event>
<event>
 5    1  0.3327068E-002  0.1250001E+03  0.7818608E-02  0.1235069E+00
         -4   -1    0    0    0  501 -0.00000000000E+00  0.00000000000E+00  0.43120159944E+01  0.44951509358E+01  0.12700000000E+01 0.  1.
          4   -1    0    0  501    0  0.00000000000E+00 -0.00000000000E+00 -0.88687922876E+03  0.88688013807E+03  0.12700000000E+01 0.  1.
         25    2    1    2    0    0  0.00000000000E+00  0.00000000000E+00 -0.88256721277E+03  0.89137528901E+03  0.12500008322E+03 0.  0.
    9000005    1    3    3    0    0  0.26250962537E+01  0.36077538186E+02 -0.77898206107E+02  0.85893017217E+02  0.10000000000E+01 0.  0.
    9000005    1    3    3    0    0 -0.26250962537E+01 -0.36077538186E+02 -0.80466900666E+03  0.80548227179E+03  0.10000000000E+01 0.  0.
<mgrwt>
<rscale>  0 0.12500008E+03</rscale>
<asrwt>0</asrwt>
<pdfrwt beam="2">  1        4 0.13645697E+00 0.12500008E+03</pdfrwt>
<pdfrwt beam="1">  1       -4 0.67754503E-03 0.12500008E+03</pdfrwt>
<totfact> 0.34491290E+03</totfact>
</mgrwt>
</event>
<event>
 5    1  0.3327068E-002  0.1250066E+03  0.7818608E-02  0.1235059E+00
          4   -1    0    0  501    0  0.00000000000E+00  0.00000000000E+00  0.38751518977E+02  0.38772324189E+02  0.12700000000E+01 0.  1.
         -4   -1    0    0    0  501 -0.00000000000E+00 -0.00000000000E+00 -0.10076121536E+03  0.10076921861E+03  0.12700000000E+01 0.  1.
         25    2    1    2    0    0  0.00000000000E+00  0.00000000000E+00 -0.62009696380E+02  0.13954154280E+03  0.12500655872E+03 0.  0.
    9000005    1    3    3    0    0  0.29296410748E+02  0.47391645859E+02 -0.62605692190E+02  0.83813605546E+02  0.10000000000E+01 0.  0.
    9000005    1    3    3    0    0 -0.29296410748E+02 -0.47391645859E+02  0.59599581037E+00  0.55727937257E+02  0.10000000000E+01 0.  0.
<mgrwt>
<rscale>  0 0.12500656E+03</rscale>
<asrwt>0</asrwt>
<pdfrwt beam="1">  1        4 0.59639882E-02 0.12500656E+03</pdfrwt>
<pdfrwt beam="2">  1       -4 0.15503941E-01 0.12500656E+03</pdfrwt>
<totfact> 0.10141598E+04</totfact>
</mgrwt>
</event>
<event>
 5    1  0.3327068E-002  0.1249955E+03  0.7818608E-02  0.1235076E+00
         -4   -1    0    0    0  501 -0.00000000000E+00  0.00000000000E+00  0.12830428562E+04  0.12830434848E+04  0.12700000000E+01 0. -1.
          4   -1    0    0  501    0  0.00000000000E+00 -0.00000000000E+00 -0.29111936524E+01  0.31761530948E+01  0.12700000000E+01 0. -1.
         25    2    1    2    0    0  0.00000000000E+00  0.00000000000E+00  0.12801316626E+04  0.12862196378E+04  0.12499553315E+03 0.  0.
    9000005    1    3    3    0    0  0.30565495398E+01  0.35685814697E+02  0.11669916613E+04  0.11675415870E+04  0.10000000000E+01 0.  0.
    9000005    1    3    3    0    0 -0.30565495398E+01 -0.35685814697E+02  0.11314000129E+03  0.11867805087E+03  0.10000000000E+01 0.  0.
<mgrwt>
<rscale>  0 0.12499553E+03</rscale>
<asrwt>0</asrwt>
<pdfrwt beam="2">  1        4 0.46830497E-03 0.12499553E+03</pdfrwt>
<pdfrwt beam="1">  1       -4 0.19741199E+00 0.12499553E+03</pdfrwt>
<totfact> 0.22558255E+03</totfact>
</mgrwt>
</event>
<event>
 5    1  0.3327068E-002  0.1250001E+03  0.7818608E-02  0.1235069E+00
          4   -1    0    0  501    0  0.00000000000E+00  0.00000000000E+00  0.18593634240E+02  0.18636956142E+02  0.12700000000E+01 0. -1.
         -4   -1    0    0    0  501 -0.00000000000E+00 -0.00000000000E+00 -0.20979593910E+03  0.20979978303E+03  0.12700000000E+01 0. -1.
         25    2    1    2    0    0  0.00000000000E+00  0.00000000000E+00 -0.19120230486E+03  0.22843673918E+03  0.12500008969E+03 0.  0.
    9000005    1    3    3    0    0  0.25130183697E+02 -0.22613901131E+02 -0.19165046662E+03  0.19461196267E+03  0.10000000000E+01 0.  0.
    9000005    1    3    3    0    0 -0.25130183697E+02  0.22613901131E+02  0.44816176486E+00  0.33824776510E+02  0.10000000000E+01 0.  0.
<mgrwt>
<rscale>  0 0.12500009E+03</rscale>
<asrwt>0</asrwt>
<pdfrwt beam="1">  1        4 0.28641874E-02 0.12500009E+03</pdfrwt>
<pdfrwt beam="2">  1       -4 0.32279925E-01 0.12500009E+03</pdfrwt>
<totfact> 0.85550046E+03</totfact>
</mgrwt>
</event>
<event>
 5    1  0.3327068E-002  0.1250031E+03  0.7818608E-02  0.1235064E+00
         -4   -1    0    0    0  501 -0.00000000000E+00  0.00000000000E+00  0.15754758163E+04  0.15754763282E+04  0.12700000000E+01 0.  1.
          4   -1    0    0  501    0  0.00000000000E+00 -0.00000000000E+00 -0.23163642063E+01  0.26416743055E+01  0.12700000000E+01 0.  1.
         25    2    1    2    0    0  0.00000000000E+00  0.00000000000E+00  0.15731594521E+04  0.15781180025E+04  0.12500307215E+03 0.  0.
    9000005    1    3    3    0    0 -0.38209739626E+01 -0.48874250891E+02  0.12758799396E+04  0.12768218014E+04  0.10000000000E+01 0.  0.
    9000005    1    3    3    0    0  0.38209739626E+01  0.48874250891E+02  0.29727951256E+03  0.30129620116E+03  0.10000000000E+01 0.  0.
<mgrwt>
<rscale>  0 0.12500307E+03</rscale>
<asrwt>0</asrwt>
<pdfrwt beam="2">  1        4 0.38142573E-03 0.12500307E+03</pdfrwt>
<pdfrwt beam="1">  1       -4 0.24240674E+00 0.12500307E+03</pdfrwt>
<totfact> 0.16443718E+03</totfact>
</mgrwt>
</event>
<event>
 5    1  0.3327068E-002  0.1249804E+03  0.7818608E-02  0.1235100E+00
          4   -1    0    0  501    0  0.00000000000E+00  0.00000000000E+00  0.34031852965E+02  0.34055541637E+02  0.12700000000E+01 0. -1.
         -4   -1    0    0    0  501 -0.00000000000E+00 -0.00000000000E+00 -0.11467913879E+03  0.11468617080E+03  0.12700000000E+01 0. -1.
         25    2    1    2    0    0  0.00000000000E+00  0.00000000000E+00 -0.80647285824E+02  0.14874171244E+03  0.12498044771E+03 0.  0.
    9000005    1    3    3    0    0 -0.44225526968E+02  0.22024593718E+02 -0.85845503590E+02  0.99052665036E+02  0.10000000000E+01 0.  0.
    9000005    1    3    3    0    0  0.44225526968E+02 -0.22024593718E+02  0.51982177659E+01  0.49689047404E+02  0.10000000000E+01 0.  0.
<mgrwt>
<rscale>  0 0.12498045E+03</rscale>
<asrwt>0</asrwt>
<pdfrwt beam="1">  1        4 0.52380329E-02 0.12498045E+03</pdfrwt>
<pdfrwt beam="2">  1       -4 0.17645307E-01 0.12498045E+03</pdfrwt>
<totfact> 0.99598939E+03</totfact>
</mgrwt>
</event>
<event>
 5    1  0.3327068E-002  0.1249692E+03  0.7818608E-02  0.1235117E+00
          4   -1    0    0  501    0  0.00000000000E+00  0.00000000000E+00  0.68006657502E+03  0.68006776086E+03  0.12700000000E+01 0. -1.
         -4   -1    0    0    0  501 -0.00000000000E+00 -0.00000000000E+00 -0.56696554698E+01  0.58101543135E+01  0.12700000000E+01 0. -1.
         25    2    1    2    0    0  0.00000000000E+00  0.00000000000E+00  0.67439691955E+03  0.68587791517E+03  0.12496923390E+03 0.  0.
    9000005    1    3    3    0    0 -0.33022380632E+02 -0.15237053128E+02  0.61601013335E+03  0.61708356792E+03  0.10000000000E+01 0.  0.
    9000005    1    3    3    0    0  0.33022380632E+02  0.15237053128E+02  0.58386786200E+02  0.68794347249E+02  0.10000000000E+01 0.  0.
<mgrwt>
<rscale>  0 0.12496923E+03</rscale>
<asrwt>0</asrwt>
<pdfrwt beam="1">  1        4 0.10463651E+00 0.12496923E+03</pdfrwt>
<pdfrwt beam="2">  1       -4 0.88315362E-03 0.12496923E+03</pdfrwt>
<totfact> 0.43872273E+03</totfact>
</mgrwt>
</event>
<event>
 5    1  0.3327068E-002  0.1250012E+03  0.7818608E-02  0.1235067E+00
          4   -1    0    0  501    0  0.00000000000E+00  0.00000000000E+00  0.84433953476E+02  0.84443504188E+02  0.12700000000E+01 0. -1.
         -4   -1    0    0    0  501 -0.00000000000E+00 -0.00000000000E+00 -0.46243940714E+02  0.46261376469E+02  0.12700000000E+01 0. -1.
         25    2    1    2    0    0  0.00000000000E+00  0.00000000000E+00  0.38190012762E+02  0.13070488066E+03  0.12500115501E+03 0.  0.
    9000005    1    3    3    0    0 -0.36451562547E+02 -0.98387844423E+01 -0.32974860284E+02  0.50138403466E+02  0.10000000000E+01 0.  0.
    9000005    1    3    3    0    0  0.36451562547E+02  0.98387844423E+01  0.71164873045E+02  0.80566477191E+02  0.10000000000E+01 0.  0.
<mgrwt>
<rscale>  0 0.12500116E+03</rscale>
<asrwt>0</asrwt>
<pdfrwt beam="1">  1        4 0.12991915E-01 0.12500116E+03</pdfrwt>
<pdfrwt beam="2">  1       -4 0.71165284E-02 0.12500116E+03</pdfrwt>
<totfact> 0.10329151E+04</totfact>
</mgrwt>
</event>
<event>
 5    1  0.3327068E-002  0.1250343E+03  0.7818608E-02  0.1235016E+00
          4   -1    0    0  501    0  0.00000000000E+00  0.00000000000E+00  0.16971655468E+02  0.17019106596E+02  0.12700000000E+01 0.  1.
         -4   -1    0    0    0  501 -0.00000000000E+00 -0.00000000000E+00 -0.22991877696E+03  0.22992228448E+03  0.12700000000E+01 0.  1.
         25    2    1    2    0    0  0.00000000000E+00  0.00000000000E+00 -0.21294712149E+03  0.24694139107E+03  0.12503429159E+03 0.  0.
    9000005    1    3    3    0    0  0.28272300839E+01 -0.55781110029E+02 -0.51037610333E+02  0.75666129374E+02  0.10000000000E+01 0.  0.
    9000005    1    3    3    0    0 -0.28272300839E+01  0.55781110029E+02 -0.16190951116E+03  0.17127526170E+03  0.10000000000E+01 0.  0.
<mgrwt>
<rscale>  0 0.12503429E+03</rscale>
<asrwt>0</asrwt>
<pdfrwt beam="1">  1        4 0.26149440E-02 0.12503429E+03</pdfrwt>
<pdfrwt beam="2">  1       -4 0.35376037E-01 0.12503429E+03</pdfrwt>
<totfact> 0.82711099E+03</totfact>
</mgrwt>
</event>
<event>
 4    1  0.3327068E-002  0.1249303E+03  0.7818608E-02  0.1235178E+00
         -4   -1    0    0    0  501 -0.00000000000E+00  0.00000000000E+00  0.13764085930E+02  0.13822552640E+02  0.12700000000E+01 0.  1.
          4   -1    0    0  501    0  0.00000000000E+00 -0.00000000000E+00 -0.28282321013E+03  0.28282606154E+03  0.12700000000E+01 0.  1.
    9000005    1    1    2    0    0 -0.54020959208E+02  0.29700655663E+02 -0.11072467460E+03  0.12673336793E+03  0.10000000000E+01 0.  0.
    9000005    1    1    2    0    0  0.54020959208E+02 -0.29700655663E+02 -0.15833444960E+03  0.16991524625E+03  0.10000000000E+01 0.  0.
<mgrwt>
<rscale>  0 0.12493033E+03</rscale>
<asrwt>0</asrwt>
<pdfrwt beam="2">  1        4 0.43515976E-01 0.12493033E+03</pdfrwt>
<pdfrwt beam="1">  1       -4 0.21222687E-02 0.12493033E+03</pdfrwt>
<totfact> 0.76138881E+03</totfact>
</mgrwt>
</event>
<event>
 5    1  0.3327068E-002  0.1249972E+03  0.7818608E-02  0.1235074E+00
          4   -1    0    0  501    0  0.00000000000E+00  0.00000000000E+00  0.35255902244E+01  0.37473572595E+01  0.12700000000E+01 0.  1.
         -4   -1    0    0    0  501 -0.00000000000E+00 -0.00000000000E+00 -0.10739157589E+04  0.10739165098E+04  0.12700000000E+01 0.  1.
         25    2    1    2    0    0  0.00000000000E+00  0.00000000000E+00 -0.10703901686E+04  0.10776638671E+04  0.12499718901E+03 0.  0.
    9000005    1    3    3    0    0 -0.31572780539E+00  0.17926517184E+02 -0.19083360395E+02  0.26203708638E+02  0.10000000000E+01 0.  0.
    9000005    1    3    3    0    0  0.31572780539E+00 -0.17926517184E+02 -0.10513068082E+04  0.10514601584E+04  0.10000000000E+01 0.  0.
<mgrwt>
<rscale>  0 0.12499719E+03</rscale>
<asrwt>0</asrwt>
<pdfrwt beam="1">  1        4 0.55951612E-03 0.12499719E+03</pdfrwt>
<pdfrwt beam="2">  1       -4 0.16523467E+00 0.12499719E+03</pdfrwt>
<totfact> 0.28148249E+03</totfact>
</mgrwt>
</event>
<event>
 5    1  0.3327068E-002  0.1250032E+03  0.7818608E-02  0.1235064E+00
         -4   -1    0    0    0  501 -0.00000000000E+00  0.00000000000E+00  0.55394743534E+03  0.55394889117E+03  0.12700000000E+01 0. -1.
          4   -1    0    0  501    0  0.00000000000E+00 -0.00000000000E+00 -0.69933675329E+01  0.71077485501E+01  0.12700000000E+01 0. -1.
         25    2    1    2    0    0  0.00000000000E+00  0.00000000000E+00  0.54695406781E+03  0.56105663972E+03  0.12500320266E+03 0.  0.
    9000005    1    3    3    0    0  0.54521648074E+02 -0.26361984387E+02  0.34270313326E+03  0.34801437021E+03  0.10000000000E+01 0.  0.
    9000005    1    3    3    0    0 -0.54521648074E+02  0.26361984387E+02  0.20425093455E+03  0.21304226950E+03  0.10000000000E+01 0.  0.
<mgrwt>
<rscale>  0 0.12500320E+03</rscale>
<asrwt>0</asrwt>
<pdfrwt beam="2">  1        4 0.10848128E-02 0.12500320E+03</pdfrwt>
<pdfrwt beam="1">  1       -4 0.85231624E-01 0.12500320E+03</pdfrwt>
<totfact> 0.51418237E+03</totfact>
</mgrwt>
</event>
<event>
 5    1  0.3327068E-002  0.1249992E+03  0.7818608E-02  0.1235071E+00
         -4   -1    0    0    0  501 -0.00000000000E+00  0.00000000000E+00  0.10219374151E+02  0.10297985630E+02  0.12700000000E+01 0.  1.
          4   -1    0    0  501    0  0.00000000000E+00 -0.00000000000E+00 -0.38069026170E+03  0.38069238009E+03  0.12700000000E+01 0.  1.
         25    2    1    2    0    0  0.00000000000E+00  0.00000000000E+00 -0.37047088755E+03  0.39099036572E+03  0.12499915023E+03 0.  0.
    9000005    1    3    3    0    0  0.10004314082E+02  0.28171178434E+02 -0.13582960735E+02  0.32851155488E+02  0.10000000000E+01 0.  0.
    9000005    1    3    3    0    0 -0.10004314082E+02 -0.28171178434E+02 -0.35688792682E+03  0.35813921023E+03  0.10000000000E+01 0.  0.
<mgrwt>
<rscale>  0 0.12499915E+03</rscale>
<asrwt>0</asrwt>
<pdfrwt beam="2">  1        4 0.58573932E-01 0.12499915E+03</pdfrwt>
<pdfrwt beam="1">  1       -4 0.15784217E-02 0.12499915E+03</pdfrwt>
<totfact> 0.65439823E+03</totfact>
</mgrwt>
</event>
<event>
 5    1  0.3327068E-002  0.1250018E+03  0.7818608E-02  0.1235067E+00
          4   -1    0    0  501    0  0.00000000000E+00  0.00000000000E+00  0.53084497018E+03  0.53084648936E+03  0.12700000000E+01 0. -1.
         -4   -1    0    0    0  501 -0.00000000000E+00 -0.00000000000E+00 -0.73024232932E+01  0.74120365590E+01  0.12700000000E+01 0. -1.
         25    2    1    2    0    0  0.00000000000E+00  0.00000000000E+00  0.52354254688E+03  0.53825852591E+03  0.12500176928E+03 0.  0.
    9000005    1    3    3    0    0 -0.50391871648E+02  0.29348019929E+02  0.16503324051E+03  0.17503604621E+03  0.10000000000E+01 0.  0.
    9000005    1    3    3    0    0  0.50391871648E+02 -0.29348019929E+02  0.35850930638E+03  0.36322247970E+03  0.10000000000E+01 0.  0.
<mgrwt>
<rscale>  0 0.12500177E+03</rscale>
<asrwt>0</asrwt>
<pdfrwt beam="1">  1        4 0.81676999E-01 0.12500177E+03</pdfrwt>
<pdfrwt beam="2">  1       -4 0.11319985E-02 0.12500177E+03</pdfrwt>
<totfact> 0.53011482E+03</totfact>
</mgrwt>
</event>
<event>
 5    1  0.3327068E-002  0.1249992E+03  0.7818608E-02  0.1235071E+00
          4   -1    0    0  501    0  0.00000000000E+00  0.00000000000E+00  0.26451570013E+03  0.26451874889E+03  0.12700000000E+01 0. -1.
         -4   -1    0    0    0  501 -0.00000000000E+00 -0.00000000000E+00 -0.14736913917E+02  0.14791535816E+02  0.12700000000E+01 0. -1.
         25    2    1    2    0    0  0.00000000000E+00  0.00000000000E+00  0.24977878621E+03  0.27931028471E+03  0.12499917240E+03 0.  0.
    9000005    1    3    3    0    0  0.13678991206E+02 -0.60926993069E+02  0.13035592048E+03  0.14454369335E+03  0.10000000000E+01 0.  0.
    9000005    1    3    3    0    0 -0.13678991206E+02  0.60926993069E+02  0.11942286573E+03  0.13476659135E+03  0.10000000000E+01 0.  0.
<mgrwt>
<rscale>  0 0.12499917E+03</rscale>
<asrwt>0</asrwt>
<pdfrwt beam="1">  1        4 0.40699155E-01 0.12499917E+03</pdfrwt>
<pdfrwt beam="2">  1       -4 0.22716540E-02 0.12499917E+03</pdfrwt>
<totfact> 0.78271087E+03</totfact>
</mgrwt>
</event>
<event>
 5    1  0.3327068E-002  0.1249971E+03  0.7818608E-02  0.1235074E+00
          4   -1    0    0  501    0  0.00000000000E+00  0.00000000000E+00  0.21658439790E+02  0.21695642746E+02  0.12700000000E+01 0.  1.
         -4   -1    0    0    0  501 -0.00000000000E+00 -0.00000000000E+00 -0.18015430841E+03  0.18015878480E+03  0.12700000000E+01 0.  1.
         25    2    1    2    0    0  0.00000000000E+00  0.00000000000E+00 -0.15849586862E+03  0.20185442754E+03  0.12499707816E+03 0.  0.
    9000005    1    3    3    0    0  0.29317501493E+02  0.24357019020E+02  0.72150974000E+00  0.38135296585E+02  0.10000000000E+01 0.  0.
    9000005    1    3    3    0    0 -0.29317501493E+02 -0.24357019020E+02 -0.15921737836E+03  0.16371913096E+03  0.10000000000E+01 0.  0.
<mgrwt>
<rscale>  0 0.12499708E+03</rscale>
<asrwt>0</asrwt>
<pdfrwt beam="1">  1        4 0.33352739E-02 0.12499708E+03</pdfrwt>
<pdfrwt beam="2">  1       -4 0.27719253E-01 0.12499708E+03</pdfrwt>
<totfact> 0.89829555E+03</totfact>
</mgrwt>
</event>
<event>
 5    1  0.3327068E-002  0.1250032E+03  0.7818608E-02  0.1235064E+00
         -4   -1    0    0    0  501 -0.00000000000E+00  0.00000000000E+00  0.23410436596E+03  0.23410781076E+03  0.12700000000E+01 0.  1.
          4   -1    0    0  501    0  0.00000000000E+00 -0.00000000000E+00 -0.16659040523E+02  0.16707379541E+02  0.12700000000E+01 0.  1.
         25    2    1    2    0    0  0.00000000000E+00  0.00000000000E+00  0.21744532544E+03  0.25081519031E+03  0.12500316050E+03 0.  0.
    9000005    1    3    3    0    0 -0.22358743159E+01  0.62453253591E+02  0.10912151940E+03  0.12575338569E+03  0.10000000000E+01 0.  0.
    9000005    1    3    3    0    0  0.22358743159E+01 -0.62453253591E+02  0.10832380604E+03  0.12506180461E+03  0.10000000000E+01 0.  0.
<mgrwt>
<rscale>  0 0.12500316E+03</rscale>
<asrwt>0</asrwt>
<pdfrwt beam="2">  1        4 0.25669126E-02 0.12500316E+03</pdfrwt>
<pdfrwt beam="1">  1       -4 0.36020041E-01 0.12500316E+03</pdfrwt>
<totfact> 0.82206760E+03</totfact>
</mgrwt>
</event>
<event>
 5    1  0.3327068E-002  0.1249963E+03  0.7818608E-02  0.1235075E+00
         -4   -1    0    0    0  501 -0.00000000000E+00  0.00000000000E+00  0.84962112266E+01  0.85906056368E+01  0.12700000000E+01 0.  1.
          4   -1    0    0  501    0  0.00000000000E+00 -0.00000000000E+00 -0.45710159528E+03  0.45710335955E+03  0.12700000000E+01 0.  1.
         25    2    1    2    0    0  0.00000000000E+00  0.00000000000E+00 -0.44860538406E+03  0.46569396518E+03  0.12499631437E+03 0.  0.
    9000005    1    3    3    0    0 -0.25039509566E+01  0.61650609756E+02 -0.26117586362E+03  0.26836709782E+03  0.10000000000E+01 0.  0.
    9000005    1    3    3    0    0  0.25039509566E+01 -0.61650609756E+02 -0.18742952044E+03  0.19732686737E+03  0.10000000000E+01 0.  0.
<mgrwt>
<rscale>  0 0.12499631E+03</rscale>
<asrwt>0</asrwt>
<pdfrwt beam="2">  1        4 0.70330700E-01 0.12499631E+03</pdfrwt>
<pdfrwt beam="1">  1       -4 0.13145066E-02 0.12499631E+03</pdfrwt>
<totfact> 0.58632701E+03</totfact>
</mgrwt>
</event>
<event>
 5    1  0.3327068E-002  0.1249944E+03  0.7818608E-02  0.1235078E+00
          4   -1    0    0  501    0  0.00000000000E+00  0.00000000000E+00  0.19130170233E+03  0.19130591787E+03  0.12700000000E+01 0.  1.
         -4   -1    0    0    0  501 -0.00000000000E+00 -0.00000000000E+00 -0.20393305769E+02  0.20432812342E+02  0.12700000000E+01 0.  1.
         25    2    1    2    0    0  0.00000000000E+00  0.00000000000E+00  0.17090839656E+03  0.21173873022E+03  0.12499443931E+03 0.  0.
    9000005    1    3    3    0    0  0.57966460718E+02 -0.12548682535E+02  0.11879269048E+03  0.13277907709E+03  0.10000000000E+01 0.  0.
    9000005    1    3    3    0    0 -0.57966460718E+02  0.12548682535E+02  0.52115706077E+02  0.78959653124E+02  0.10000000000E+01 0.  0.
<mgrwt>
<rscale>  0 0.12499444E+03</rscale>
<asrwt>0</asrwt>
<pdfrwt beam="1">  1        4 0.29434393E-01 0.12499444E+03</pdfrwt>
<pdfrwt beam="2">  1       -4 0.31407950E-02 0.12499444E+03</pdfrwt>
<totfact> 0.88203672E+03</totfact>
</mgrwt>
</event>
<event>
 5    1  0.3327068E-002  0.1250020E+03  0.7818608E-02  0.1235066E+00
          4   -1    0    0  501    0  0.00000000000E+00  0.00000000000E+00  0.10157955709E+03  0.10158749588E+03  0.12700000000E+01 0. -1.
         -4   -1    0    0    0  501 -0.00000000000E+00 -0.00000000000E+00 -0.38436387931E+02  0.38457363627E+02  0.12700000000E+01 0. -1.
         25    2    1    2    0    0  0.00000000000E+00  0.00000000000E+00  0.63143169160E+02  0.14004485951E+03  0.12500201143E+03 0.  0.
    9000005    1    3    3    0    0 -0.31757499412E+02  0.22201660312E+00  0.91870361252E+02  0.97209831482E+02  0.10000000000E+01 0.  0.
    9000005    1    3    3    0    0  0.31757499412E+02 -0.22201660312E+00 -0.28727192091E+02  0.42835028023E+02  0.10000000000E+01 0.  0.
<mgrwt>
<rscale>  0 0.12500201E+03</rscale>
<asrwt>0</asrwt>
<pdfrwt beam="1">  1        4 0.15629848E-01 0.12500201E+03</pdfrwt>
<pdfrwt beam="2">  1       -4 0.59155147E-02 0.12500201E+03</pdfrwt>
<totfact> 0.10132197E+04</totfact>
</mgrwt>
</event>
<event>
 5    1  0.3327068E-002  0.1249986E+03  0.7818608E-02  0.1235072E+00
         -4   -1    0    0    0  501 -0.00000000000E+00  0.00000000000E+00  0.45065917496E+03  0.45066096445E+03  0.12700000000E+01 0.  1.
          4   -1    0    0  501    0  0.00000000000E+00 -0.00000000000E+00 -0.86193228239E+01  0.87123834823E+01  0.12700000000E+01 0.  1.
         25    2    1    2    0    0  0.00000000000E+00  0.00000000000E+00  0.44203985214E+03  0.45937334793E+03  0.12499856763E+03 0.  0.
    9000005    1    3    3    0    0  0.35506664895E+02 -0.44389511457E+02  0.12561002526E+03  0.13787686690E+03  0.10000000000E+01 0.  0.
    9000005    1    3    3    0    0 -0.35506664895E+02  0.44389511457E+02  0.31642982688E+03  0.32149648104E+03  0.10000000000E+01 0.  0.
<mgrwt>
<rscale>  0 0.12499857E+03</rscale>
<asrwt>0</asrwt>
<pdfrwt beam="2">  1        4 0.13333455E-02 0.12499857E+03</pdfrwt>
<pdfrwt beam="1">  1       -4 0.69339495E-01 0.12499857E+03</pdfrwt>
<totfact> 0.59162152E+03</totfact>
</mgrwt>
</event>
<event>
 5    1  0.3327068E-002  0.1250336E+03  0.7818608E-02  0.1235017E+00
          4   -1    0    0  501    0  0.00000000000E+00  0.00000000000E+00  0.49389179004E+02  0.49405504781E+02  0.12700000000E+01 0.  1.
         -4   -1    0    0    0  501 -0.00000000000E+00 -0.00000000000E+00 -0.79099244065E+02  0.79109438828E+02  0.12700000000E+01 0.  1.
         25    2    1    2    0    0  0.00000000000E+00  0.00000000000E+00 -0.29710065061E+02  0.12851494361E+03  0.12503360654E+03 0.  0.
    9000005    1    3    3    0    0  0.35599061571E+02 -0.49411722439E+02 -0.29337747939E+02  0.67605583744E+02  0.10000000000E+01 0.  0.
    9000005    1    3    3    0    0 -0.35599061571E+02  0.49411722439E+02 -0.37231712209E+00  0.60909359865E+02  0.10000000000E+01 0.  0.
<mgrwt>
<rscale>  0 0.12503361E+03</rscale>
<asrwt>0</asrwt>
<pdfrwt beam="1">  1        4 0.76003753E-02 0.12503361E+03</pdfrwt>
<pdfrwt beam="2">  1       -4 0.12171155E-01 0.12503361E+03</pdfrwt>
<totfact> 0.10368514E+04</totfact>
</mgrwt>
</event>
<event>
 5    1  0.3327068E-002  0.1250002E+03  0.7818608E-02  0.1235069E+00
          4   -1    0    0  501    0  0.00000000000E+00  0.00000000000E+00  0.25603121611E+02  0.25634600372E+02  0.12700000000E+01 0.  1.
         -4   -1    0    0    0  501 -0.00000000000E+00 -0.00000000000E+00 -0.15244183902E+03  0.15244712914E+03  0.12700000000E+01 0.  1.
         25    2    1    2    0    0  0.00000000000E+00  0.00000000000E+00 -0.12683871741E+03  0.17808172951E+03  0.12500016861E+03 0.  0.
    9000005    1    3    3    0    0 -0.15154962106E+02 -0.14421973727E+02 -0.14731181463E+03  0.14879326911E+03  0.10000000000E+01 0.  0.
    9000005    1    3    3    0    0  0.15154962106E+02  0.14421973727E+02  0.20473097226E+02  0.29288460401E+02  0.10000000000E+01 0.  0.
<mgrwt>
<rscale>  0 0.12500017E+03</rscale>
<asrwt>0</asrwt>
<pdfrwt beam="1">  1        4 0.39417702E-02 0.12500017E+03</pdfrwt>
<pdfrwt beam="2">  1       -4 0.23455419E-01 0.12500017E+03</pdfrwt>
<totfact> 0.93963087E+03</totfact>
</mgrwt>
</event>
<event>
 5    1  0.3327068E-002  0.1249994E+03  0.7818608E-02  0.1235070E+00
         -4   -1    0    0    0  501 -0.00000000000E+00  0.00000000000E+00  0.95272943489E+01  0.96115679059E+01  0.12700000000E+01 0.  1.
          4   -1    0    0  501    0  0.00000000000E+00 -0.00000000000E+00 -0.40811153173E+03  0.40811350778E+03  0.12700000000E+01 0.  1.
         25    2    1    2    0    0  0.00000000000E+00  0.00000000000E+00 -0.39858423738E+03  0.41772507569E+03  0.12499937827E+03 0.  0.
    9000005    1    3    3    0    0 -0.61759456574E+00 -0.16610096981E+02 -0.40060531861E+03  0.40095124148E+03  0.10000000000E+01 0.  0.
    9000005    1    3    3    0    0  0.61759456574E+00  0.16610096981E+02  0.20210812252E+01  0.16773834209E+02  0.10000000000E+01 0.  0.
<mgrwt>
<rscale>  0 0.12499938E+03</rscale>
<asrwt>0</asrwt>
<pdfrwt beam="2">  1        4 0.62793011E-01 0.12499938E+03</pdfrwt>
<pdfrwt beam="1">  1       -4 0.14723725E-02 0.12499938E+03</pdfrwt>
<totfact> 0.62865489E+03</totfact>
</mgrwt>
</event>
<event>
 5    1  0.3327068E-002  0.1250001E+03  0.7818608E-02  0.1235069E+00
          4   -1    0    0  501    0  0.00000000000E+00  0.00000000000E+00  0.11406909128E+03  0.11407616089E+03  0.12700000000E+01 0.  1.
         -4   -1    0    0    0  501 -0.00000000000E+00 -0.00000000000E+00 -0.34224759651E+02  0.34248314895E+02  0.12700000000E+01 0.  1.
         25    2    1    2    0    0  0.00000000000E+00  0.00000000000E+00  0.79844331625E+02  0.14832447579E+03  0.12500013130E+03 0.  0.
    9000005    1    3    3    0    0 -0.75833357418E+01  0.58140726034E+02  0.14268463389E+02  0.60352630864E+02  0.10000000000E+01 0.  0.
    9000005    1    3    3    0    0  0.75833357418E+01 -0.58140726034E+02  0.65575868236E+02  0.87971844926E+02  0.10000000000E+01 0.  0.
<mgrwt>
<rscale>  0 0.12500013E+03</rscale>
<asrwt>0</asrwt>
<pdfrwt beam="1">  1        4 0.17551446E-01 0.12500013E+03</pdfrwt>
<pdfrwt beam="2">  1       -4 0.52677035E-02 0.12500013E+03</pdfrwt>
<totfact> 0.99638448E+03</totfact>
</mgrwt>
</event>
<event>
 5    1  0.3327068E-002  0.1249969E+03  0.7818608E-02  0.1235074E+00
         -4   -1    0    0    0  501 -0.00000000000E+00  0.00000000000E+00  0.11322807431E+04  0.11322814554E+04  0.12700000000E+01 0. -1.
          4   -1    0    0  501    0  0.00000000000E+00 -0.00000000000E+00 -0.33320986019E+01  0.35659193896E+01  0.12700000000E+01 0. -1.
         25    2    1    2    0    0  0.00000000000E+00  0.00000000000E+00  0.11289486445E+04  0.11358473747E+04  0.12499686698E+03 0.  0.
    9000005    1    3    3    0    0 -0.52067320683E+02 -0.21834596526E+02  0.32110217558E+03  0.32602969597E+03  0.10000000000E+01 0.  0.
    9000005    1    3    3    0    0  0.52067320683E+02  0.21834596526E+02  0.80784646894E+03  0.80981767878E+03  0.10000000000E+01 0.  0.
<mgrwt>
<rscale>  0 0.12499687E+03</rscale>
<asrwt>0</asrwt>
<pdfrwt beam="2">  1        4 0.53067159E-03 0.12499687E+03</pdfrwt>
<pdfrwt beam="1">  1       -4 0.17421507E+00 0.12499687E+03</pdfrwt>
<totfact> 0.26458010E+03</totfact>
</mgrwt>
</event>
<event>
 5    1  0.3327068E-002  0.1250021E+03  0.7818608E-02  0.1235066E+00
          4   -1    0    0  501    0  0.00000000000E+00  0.00000000000E+00  0.96537529110E+02  0.96545882495E+02  0.12700000000E+01 0.  1.
         -4   -1    0    0    0  501 -0.00000000000E+00 -0.00000000000E+00 -0.40444812958E+02  0.40464747561E+02  0.12700000000E+01 0.  1.
         25    2    1    2    0    0  0.00000000000E+00  0.00000000000E+00  0.56092716152E+02  0.13701063006E+03  0.12500207975E+03 0.  0.
    9000005    1    3    3    0    0  0.50659054686E+01 -0.47206289451E+02  0.72586106173E+02  0.86740071313E+02  0.10000000000E+01 0.  0.
    9000005    1    3    3    0    0 -0.50659054686E+01  0.47206289451E+02 -0.16493390021E+02  0.50270558743E+02  0.10000000000E+01 0.  0.
<mgrwt>
<rscale>  0 0.12500208E+03</rscale>
<asrwt>0</asrwt>
<pdfrwt beam="1">  1        4 0.14854103E-01 0.12500208E+03</pdfrwt>
<pdfrwt beam="2">  1       -4 0.62244550E-02 0.12500208E+03</pdfrwt>
<totfact> 0.10195385E+04</totfact>
</mgrwt>
</event>
<event>
 5    1  0.3327068E-002  0.1249991E+03  0.7818608E-02  0.1235071E+00
         -4   -1    0    0    0  501 -0.00000000000E+00  0.00000000000E+00  0.32263154758E+01  0.34672772530E+01  0.12700000000E+01 0.  1.
          4   -1    0    0  501    0  0.00000000000E+00 -0.00000000000E+00 -0.11669025483E+04  0.11669032395E+04  0.12700000000E+01 0.  1.
         25    2    1    2    0    0  0.00000000000E+00  0.00000000000E+00 -0.11636762329E+04  0.11703705167E+04  0.12499908567E+03 0.  0.
    9000005    1    3    3    0    0  0.29388499834E+02  0.54354605299E+02 -0.66921373158E+03  0.67206110256E+03  0.10000000000E+01 0.  0.
    9000005    1    3    3    0    0 -0.29388499834E+02 -0.54354605299E+02 -0.49446250129E+03  0.49830941415E+03  0.10000000000E+01 0.  0.
<mgrwt>
<rscale>  0 0.12499909E+03</rscale>
<asrwt>0</asrwt>
<pdfrwt beam="2">  1        4 0.17954173E+00 0.12499909E+03</pdfrwt>
<pdfrwt beam="1">  1       -4 0.51494584E-03 0.12499909E+03</pdfrwt>
<totfact> 0.25502302E+03</totfact>
</mgrwt>
</event>
<event>
 5    1  0.3327068E-002  0.1249980E+03  0.7818608E-02  0.1235072E+00
          4   -1    0    0  501    0  0.00000000000E+00  0.00000000000E+00  0.45236472362E+01  0.46985406583E+01  0.12700000000E+01 0. -1.
         -4   -1    0    0    0  501 -0.00000000000E+00 -0.00000000000E+00 -0.84693906513E+03  0.84694001732E+03  0.12700000000E+01 0. -1.
         25    2    1    2    0    0  0.00000000000E+00  0.00000000000E+00 -0.84241541790E+03  0.85163855798E+03  0.12499798853E+03 0.  0.
    9000005    1    3    3    0    0 -0.31900189634E+02  0.32189668957E+02 -0.71436041380E+03  0.71579717636E+03  0.10000000000E+01 0.  0.
    9000005    1    3    3    0    0  0.31900189634E+02 -0.32189668957E+02 -0.12805500410E+03  0.13584138162E+03  0.10000000000E+01 0.  0.
<mgrwt>
<rscale>  0 0.12499799E+03</rscale>
<asrwt>0</asrwt>
<pdfrwt beam="1">  1        4 0.70947299E-03 0.12499799E+03</pdfrwt>
<pdfrwt beam="2">  1       -4 0.13031172E+00 0.12499799E+03</pdfrwt>
<totfact> 0.36061980E+03</totfact>
</mgrwt>
</event>
<event>
 5    1  0.3327068E-002  0.1249988E+03  0.7818608E-02  0.1235071E+00
          4   -1    0    0  501    0  0.00000000000E+00  0.00000000000E+00  0.58693464469E+01  0.60051750777E+01  0.12700000000E+01 0. -1.
         -4   -1    0    0    0  501 -0.00000000000E+00 -0.00000000000E+00 -0.65777265747E+03  0.65777388350E+03  0.12700000000E+01 0. -1.
         25    2    1    2    0    0  0.00000000000E+00  0.00000000000E+00 -0.65190331102E+03  0.66377905858E+03  0.12499884673E+03 0.  0.
    9000005    1    3    3    0    0  0.18450390000E+02  0.13473696699E+02 -0.17076701120E+02  0.28540692266E+02  0.10000000000E+01 0.  0.
    9000005    1    3    3    0    0 -0.18450390000E+02 -0.13473696699E+02 -0.63482660990E+03  0.63523836631E+03  0.10000000000E+01 0.  0.
<mgrwt>
<rscale>  0 0.12499885E+03</rscale>
<asrwt>0</asrwt>
<pdfrwt beam="1">  1        4 0.91351956E-03 0.12499885E+03</pdfrwt>
<pdfrwt beam="2">  1       -4 0.10120628E+00 0.12499885E+03</pdfrwt>
<totfact> 0.45070026E+03</totfact>
</mgrwt>
</event>
<event>
 4    1  0.3327068E-002  0.1243421E+03  0.7818608E-02  0.1236101E+00
         -4   -1    0    0    0  501 -0.00000000000E+00  0.00000000000E+00  0.44439663908E+03  0.44439845379E+03  0.12700000000E+01 0. -1.
          4   -1    0    0  501    0  0.00000000000E+00 -0.00000000000E+00 -0.86495200207E+01  0.87422592382E+01  0.12700000000E+01 0. -1.
    9000005    1    1    2    0    0  0.42155092543E+02  0.27725284114E+02  0.35020231633E+03  0.35381973598E+03  0.10000000000E+01 0.  0.
    9000005    1    1    2    0    0 -0.42155092543E+02 -0.27725284114E+02  0.85544802732E+02  0.99320977044E+02  0.10000000000E+01 0.  0.
<mgrwt>
<rscale>  0 0.12434208E+03</rscale>
<asrwt>0</asrwt>
<pdfrwt beam="2">  1        4 0.13379689E-02 0.12434208E+03</pdfrwt>
<pdfrwt beam="1">  1       -4 0.68375979E-01 0.12434208E+03</pdfrwt>
<totfact> 0.60565991E+03</totfact>
</mgrwt>
</event>
<event>
 5    1  0.3327068E-002  0.1250108E+03  0.7818608E-02  0.1235052E+00
         -4   -1    0    0    0  501 -0.00000000000E+00  0.00000000000E+00  0.73371951131E+02  0.73382941565E+02  0.12700000000E+01 0. -1.
          4   -1    0    0  501    0  0.00000000000E+00 -0.00000000000E+00 -0.53225670620E+02  0.53240819988E+02  0.12700000000E+01 0. -1.
         25    2    1    2    0    0  0.00000000000E+00  0.00000000000E+00  0.20146280511E+02  0.12662376155E+03  0.12501081702E+03 0.  0.
    9000005    1    3    3    0    0 -0.29436706849E+02  0.60700016207E+01 -0.45429490719E+02  0.54481219304E+02  0.10000000000E+01 0.  0.
    9000005    1    3    3    0    0  0.29436706849E+02 -0.60700016207E+01  0.65575771230E+02  0.72142542249E+02  0.10000000000E+01 0.  0.
<mgrwt>
<rscale>  0 0.12501082E+03</rscale>
<asrwt>0</asrwt>
<pdfrwt beam="2">  1        4 0.81905755E-02 0.12501082E+03</pdfrwt>
<pdfrwt beam="1">  1       -4 0.11290003E-01 0.12501082E+03</pdfrwt>
<totfact> 0.10414787E+04</totfact>
</mgrwt>
</event>
<event>
 5    1  0.3327068E-002  0.1250199E+03  0.7818608E-02  0.1235038E+00
         -4   -1    0    0    0  501 -0.00000000000E+00  0.00000000000E+00  0.31756698740E+03  0.31756952686E+03  0.12700000000E+01 0. -1.
          4   -1    0    0  501    0  0.00000000000E+00 -0.00000000000E+00 -0.12269110445E+02  0.12334665424E+02  0.12700000000E+01 0. -1.
         25    2    1    2    0    0  0.00000000000E+00  0.00000000000E+00  0.30529787696E+03  0.32990419228E+03  0.12501992805E+03 0.  0.
    9000005    1    3    3    0    0  0.23972787596E+01 -0.45467134927E+02  0.39656947533E+02  0.60387753656E+02  0.10000000000E+01 0.  0.
    9000005    1    3    3    0    0 -0.23972787596E+01  0.45467134927E+02  0.26564092942E+03  0.26951643862E+03  0.10000000000E+01 0.  0.
<mgrwt>
<rscale>  0 0.12501993E+03</rscale>
<asrwt>0</asrwt>
<pdfrwt beam="2">  1        4 0.18927935E-02 0.12501993E+03</pdfrwt>
<pdfrwt beam="1">  1       -4 0.48861699E-01 0.12501993E+03</pdfrwt>
<totfact> 0.71961656E+03</totfact>
</mgrwt>
</event>
<event>
 5    1  0.3327068E-002  0.1250056E+03  0.7818608E-02  0.1235061E+00
         -4   -1    0    0    0  501 -0.00000000000E+00  0.00000000000E+00  0.50661215311E+02  0.50677131300E+02  0.12700000000E+01 0.  1.
          4   -1    0    0  501    0  0.00000000000E+00 -0.00000000000E+00 -0.77078972703E+02  0.77089434639E+02  0.12700000000E+01 0.  1.
         25    2    1    2    0    0  0.00000000000E+00  0.00000000000E+00 -0.26417757393E+02  0.12776656594E+03  0.12500558974E+03 0.  0.
    9000005    1    3    3    0    0 -0.25532922186E+02 -0.49098945077E+02 -0.42883965967E+02  0.70019076402E+02  0.10000000000E+01 0.  0.
    9000005    1    3    3    0    0  0.25532922186E+02  0.49098945077E+02  0.16466208575E+02  0.57747489538E+02  0.10000000000E+01 0.  0.
<mgrwt>
<rscale>  0 0.12500559E+03</rscale>
<asrwt>0</asrwt>
<pdfrwt beam="2">  1        4 0.11860333E-01 0.12500559E+03</pdfrwt>
<pdfrwt beam="1">  1       -4 0.77960622E-02 0.12500559E+03</pdfrwt>
<totfact> 0.10391221E+04</totfact>
</mgrwt>
</event>
<event>
 5    1  0.3327068E-002  0.1249991E+03  0.7818608E-02  0.1235071E+00
         -4   -1    0    0    0  501 -0.00000000000E+00  0.00000000000E+00  0.75244133194E+03  0.75244240372E+03  0.12700000000E+01 0. -1.
          4   -1    0    0  501    0  0.00000000000E+00 -0.00000000000E+00 -0.51125918198E+01  0.52679687846E+01  0.12700000000E+01 0. -1.
         25    2    1    2    0    0  0.00000000000E+00  0.00000000000E+00  0.74732874012E+03  0.75771037250E+03  0.12499905114E+03 0.  0.
    9000005    1    3    3    0    0 -0.67122179249E+01 -0.50552652115E+02  0.59260661952E+03  0.59479763786E+03  0.10000000000E+01 0.  0.
    9000005    1    3    3    0    0  0.67122179249E+01  0.50552652115E+02  0.15472212060E+03  0.16291273464E+03  0.10000000000E+01 0.  0.
<mgrwt>
<rscale>  0 0.12499905E+03</rscale>
<asrwt>0</asrwt>
<pdfrwt beam="2">  1        4 0.79858722E-03 0.12499905E+03</pdfrwt>
<pdfrwt beam="1">  1       -4 0.11577222E+00 0.12499905E+03</pdfrwt>
<totfact> 0.40208876E+03</totfact>
</mgrwt>
</event>
<event>
 5    1  0.3327068E-002  0.1250128E+03  0.7818608E-02  0.1235049E+00
          4   -1    0    0  501    0  0.00000000000E+00  0.00000000000E+00  0.25703003851E+02  0.25734360434E+02  0.12700000000E+01 0.  1.
         -4   -1    0    0    0  501 -0.00000000000E+00 -0.00000000000E+00 -0.15188080032E+03  0.15188610999E+03  0.12700000000E+01 0.  1.
         25    2    1    2    0    0  0.00000000000E+00  0.00000000000E+00 -0.12617779647E+03  0.17762047042E+03  0.12501278011E+03 0.  0.
    9000005    1    3    3    0    0 -0.40295757824E+02 -0.29778488562E+02 -0.10011441163E+02  0.51105140973E+02  0.10000000000E+01 0.  0.
    9000005    1    3    3    0    0  0.40295757824E+02  0.29778488562E+02 -0.11616635531E+03  0.12651532945E+03  0.10000000000E+01 0.  0.
<mgrwt>
<rscale>  0 0.12501278E+03</rscale>
<asrwt>0</asrwt>
<pdfrwt beam="1">  1        4 0.39571288E-02 0.12501278E+03</pdfrwt>
<pdfrwt beam="2">  1       -4 0.23369097E-01 0.12501278E+03</pdfrwt>
<totfact> 0.94020137E+03</totfact>
</mgrwt>
</event>
<event>
 5    1  0.3327068E-002  0.1249950E+03  0.7818608E-02  0.1235077E+00
         -4   -1    0    0    0  501 -0.00000000000E+00  0.00000000000E+00  0.48082427814E+02  0.48099197130E+02  0.12700000000E+01 0.  1.
          4   -1    0    0  501    0  0.00000000000E+00 -0.00000000000E+00 -0.81198268981E+02  0.81208200236E+02  0.12700000000E+01 0.  1.
         25    2    1    2    0    0  0.00000000000E+00  0.00000000000E+00 -0.33115841167E+02  0.12930739737E+03  0.12499497621E+03 0.  0.
    9000005    1    3    3    0    0 -0.39236667216E+02 -0.44466390636E+02 -0.36939425147E+02  0.69873436158E+02  0.10000000000E+01 0.  0.
    9000005    1    3    3    0    0  0.39236667216E+02  0.44466390636E+02  0.38235839798E+01  0.59433961207E+02  0.10000000000E+01 0.  0.
<mgrwt>
<rscale>  0 0.12499498E+03</rscale>
<asrwt>0</asrwt>
<pdfrwt beam="2">  1        4 0.12494095E-01 0.12499498E+03</pdfrwt>
<pdfrwt beam="1">  1       -4 0.73993504E-02 0.12499498E+03</pdfrwt>
<totfact> 0.10360521E+04</totfact>
</mgrwt>
</event>
<event>
 5    1  0.3327068E-002  0.1249999E+03  0.7818608E-02  0.1235069E+00
         -4   -1    0    0    0  501 -0.00000000000E+00  0.00000000000E+00  0.73158064470E+02  0.73169087031E+02  0.12700000000E+01 0. -1.
          4   -1    0    0  501    0  0.00000000000E+00 -0.00000000000E+00 -0.53372003018E+02  0.53387110862E+02  0.12700000000E+01 0. -1.
         25    2    1    2    0    0  0.00000000000E+00  0.00000000000E+00  0.19786061452E+02  0.12655619789E+03  0.12499993199E+03 0.  0.
    9000005    1    3    3    0    0  0.23207452456E+02 -0.42858521351E+01  0.68477872866E+02  0.72437376058E+02  0.10000000000E+01 0.  0.
    9000005    1    3    3    0    0 -0.23207452456E+02  0.42858521351E+01 -0.48691811414E+02  0.54118821835E+02  0.10000000000E+01 0.  0.
<mgrwt>
<rscale>  0 0.12499993E+03</rscale>
<asrwt>0</asrwt>
<pdfrwt beam="2">  1        4 0.82130874E-02 0.12499993E+03</pdfrwt>
<pdfrwt beam="1">  1       -4 0.11257097E-01 0.12499993E+03</pdfrwt>
<totfact> 0.10418819E+04</totfact>
</mgrwt>
</event>
<event>
 5    1  0.3327068E-002  0.1250008E+03  0.7818608E-02  0.1235068E+00
         -4   -1    0    0    0  501 -0.00000000000E+00  0.00000000000E+00  0.56402248270E+03  0.56402391252E+03  0.12700000000E+01 0. -1.
          4   -1    0    0  501    0  0.00000000000E+00 -0.00000000000E+00 -0.68661108701E+01  0.69825767794E+01  0.12700000000E+01 0. -1.
         25    2    1    2    0    0  0.00000000000E+00  0.00000000000E+00  0.55715637183E+03  0.57100648930E+03  0.12500075259E+03 0.  0.
    9000005    1    3    3    0    0 -0.18476511407E+02  0.53966689667E+02  0.39517578712E+03  0.39927269853E+03  0.10000000000E+01 0.  0.
    9000005    1    3    3    0    0  0.18476511407E+02 -0.53966689667E+02  0.16198058472E+03  0.17173379077E+03  0.10000000000E+01 0.  0.
<mgrwt>
<rscale>  0 0.12500075E+03</rscale>
<asrwt>0</asrwt>
<pdfrwt beam="2">  1        4 0.10653935E-02 0.12500075E+03</pdfrwt>
<pdfrwt beam="1">  1       -4 0.86781774E-01 0.12500075E+03</pdfrwt>
<totfact> 0.50749601E+03</totfact>
</mgrwt>
</event>
<event>
 5    1  0.3327068E-002  0.1249980E+03  0.7818608E-02  0.1235072E+00
          4   -1    0    0  501    0  0.00000000000E+00  0.00000000000E+00  0.45945132249E+02  0.45962681356E+02  0.12700000000E+01 0.  1.
         -4   -1    0    0    0  501 -0.00000000000E+00 -0.00000000000E+00 -0.84978572867E+02  0.84988062376E+02  0.12700000000E+01 0.  1.
         25    2    1    2    0    0  0.00000000000E+00  0.00000000000E+00 -0.39033440617E+02  0.13095074373E+03  0.12499795117E+03 0.  0.
    9000005    1    3    3    0    0 -0.61596605682E+02  0.92770468070E+01 -0.14287357536E+02  0.63916617670E+02  0.10000000000E+01 0.  0.
    9000005    1    3    3    0    0  0.61596605682E+02 -0.92770468070E+01 -0.24746083081E+02  0.67034126062E+02  0.10000000000E+01 0.  0.
<mgrwt>
<rscale>  0 0.12499795E+03</rscale>
<asrwt>0</asrwt>
<pdfrwt beam="1">  1        4 0.70705618E-02 0.12499795E+03</pdfrwt>
<pdfrwt beam="2">  1       -4 0.13075706E-01 0.12499795E+03</pdfrwt>
<totfact> 0.10324623E+04</totfact>
</mgrwt>
</event>
<event>
 5    1  0.3327068E-002  0.1249974E+03  0.7818608E-02  0.1235073E+00
          4   -1    0    0  501    0  0.00000000000E+00  0.00000000000E+00  0.98315696114E+02  0.98323898430E+02  0.12700000000E+01 0.  1.
         -4   -1    0    0    0  501 -0.00000000000E+00 -0.00000000000E+00 -0.39710022304E+02  0.39730325589E+02  0.12700000000E+01 0.  1.
         25    2    1    2    0    0  0.00000000000E+00  0.00000000000E+00  0.58605673810E+02  0.13805422402E+03  0.12499737504E+03 0.  0.
    9000005    1    3    3    0    0 -0.30246870324E+02 -0.21399686482E+02  0.84880909931E+02  0.92620670569E+02  0.10000000000E+01 0.  0.
    9000005    1    3    3    0    0  0.30246870324E+02  0.21399686482E+02 -0.26275236120E+02  0.45433553450E+02  0.10000000000E+01 0.  0.
<mgrwt>
<rscale>  0 0.12499738E+03</rscale>
<asrwt>0</asrwt>
<pdfrwt beam="1">  1        4 0.15127684E-01 0.12499738E+03</pdfrwt>
<pdfrwt beam="2">  1       -4 0.61114270E-02 0.12499738E+03</pdfrwt>
<totfact> 0.10174675E+04</totfact>
</mgrwt>
</event>
<event>
 5    1  0.3327068E-002  0.1250014E+03  0.7818608E-02  0.1235067E+00
          4   -1    0    0  501    0  0.00000000000E+00  0.00000000000E+00  0.37605176817E+03  0.37605391268E+03  0.12700000000E+01 0.  1.
         -4   -1    0    0    0  501 -0.00000000000E+00 -0.00000000000E+00 -0.10346772532E+02  0.10424423333E+02  0.12700000000E+01 0.  1.
         25    2    1    2    0    0  0.00000000000E+00  0.00000000000E+00  0.36570499564E+03  0.38647833602E+03  0.12500144149E+03 0.  0.
    9000005    1    3    3    0    0  0.47173590977E+02 -0.32384082594E+02  0.10517137252E+03  0.11973342929E+03  0.10000000000E+01 0.  0.
    9000005    1    3    3    0    0 -0.47173590977E+02  0.32384082594E+02  0.26053362312E+03  0.26674490673E+03  0.10000000000E+01 0.  0.
<mgrwt>
<rscale>  0 0.12500144E+03</rscale>
<asrwt>0</asrwt>
<pdfrwt beam="1">  1        4 0.57860250E-01 0.12500144E+03</pdfrwt>
<pdfrwt beam="2">  1       -4 0.15979494E-02 0.12500144E+03</pdfrwt>
<totfact> 0.65887388E+03</totfact>
</mgrwt>
</event>
<event>
 5    1  0.3327068E-002  0.1250030E+03  0.7818608E-02  0.1235065E+00
          4   -1    0    0  501    0  0.00000000000E+00  0.00000000000E+00  0.63058263352E+03  0.63058391242E+03  0.12700000000E+01 0.  1.
         -4   -1    0    0    0  501 -0.00000000000E+00 -0.00000000000E+00 -0.61285766282E+01  0.62587819492E+01  0.12700000000E+01 0.  1.
         25    2    1    2    0    0  0.00000000000E+00  0.00000000000E+00  0.62445405689E+03  0.63684269437E+03  0.12500299275E+03 0.  0.
    9000005    1    3    3    0    0  0.18026496487E+02 -0.47162983363E+02  0.12461386839E+03  0.13445786615E+03  0.10000000000E+01 0.  0.
    9000005    1    3    3    0    0 -0.18026496487E+02  0.47162983363E+02  0.49984018851E+03  0.50238482822E+03  0.10000000000E+01 0.  0.
<mgrwt>
<rscale>  0 0.12500299E+03</rscale>
<asrwt>0</asrwt>
<pdfrwt beam="1">  1        4 0.97022867E-01 0.12500299E+03</pdfrwt>
<pdfrwt beam="2">  1       -4 0.95297172E-03 0.12500299E+03</pdfrwt>
<totfact> 0.46618539E+03</totfact>
</mgrwt>
</event>
<event>
 5    1  0.3327068E-002  0.1250048E+03  0.7818608E-02  0.1235062E+00
         -4   -1    0    0    0  501 -0.00000000000E+00  0.00000000000E+00  0.27287110979E+02  0.27316649237E+02  0.12700000000E+01 0.  1.
          4   -1    0    0  501    0  0.00000000000E+00 -0.00000000000E+00 -0.14305495746E+03  0.14306059469E+03  0.12700000000E+01 0.  1.
         25    2    1    2    0    0  0.00000000000E+00  0.00000000000E+00 -0.11576784648E+03  0.17037724393E+03  0.12500484379E+03 0.  0.
    9000005    1    3    3    0    0 -0.57626505213E+02 -0.13764532964E+02 -0.84981791010E+02  0.10360106792E+03  0.10000000000E+01 0.  0.
    9000005    1    3    3    0    0  0.57626505213E+02  0.13764532964E+02 -0.30786055466E+02  0.66776176006E+02  0.10000000000E+01 0.  0.
<mgrwt>
<rscale>  0 0.12500484E+03</rscale>
<asrwt>0</asrwt>
<pdfrwt beam="2">  1        4 0.22011160E-01 0.12500484E+03</pdfrwt>
<pdfrwt beam="1">  1       -4 0.42007230E-02 0.12500484E+03</pdfrwt>
<totfact> 0.95368002E+03</totfact>
</mgrwt>
</event>
<event>
 5    1  0.3327068E-002  0.1250016E+03  0.7818608E-02  0.1235067E+00
          4   -1    0    0  501    0  0.00000000000E+00  0.00000000000E+00  0.45655370214E+02  0.45673030657E+02  0.12700000000E+01 0.  1.
         -4   -1    0    0    0  501 -0.00000000000E+00 -0.00000000000E+00 -0.85522794153E+02  0.85532223283E+02  0.12700000000E+01 0.  1.
         25    2    1    2    0    0  0.00000000000E+00  0.00000000000E+00 -0.39867423939E+02  0.13120525394E+03  0.12500162867E+03 0.  0.
    9000005    1    3    3    0    0  0.27288544914E+02  0.48572256432E+02 -0.49648077357E+02  0.74631497129E+02  0.10000000000E+01 0.  0.
    9000005    1    3    3    0    0 -0.27288544914E+02 -0.48572256432E+02  0.97806534179E+01  0.56573756811E+02  0.10000000000E+01 0.  0.
<mgrwt>
<rscale>  0 0.12500163E+03</rscale>
<asrwt>0</asrwt>
<pdfrwt beam="1">  1        4 0.70259869E-02 0.12500163E+03</pdfrwt>
<pdfrwt beam="2">  1       -4 0.13159437E-01 0.12500163E+03</pdfrwt>
<totfact> 0.10318312E+04</totfact>
</mgrwt>
</event>
<event>
 5    1  0.3327068E-002  0.1250020E+03  0.7818608E-02  0.1235066E+00
         -4   -1    0    0    0  501 -0.00000000000E+00  0.00000000000E+00  0.30154477848E+03  0.30154745286E+03  0.12700000000E+01 0. -1.
          4   -1    0    0  501    0  0.00000000000E+00 -0.00000000000E+00 -0.12920670592E+02  0.12982936053E+02  0.12700000000E+01 0. -1.
         25    2    1    2    0    0  0.00000000000E+00  0.00000000000E+00  0.28862410788E+03  0.31453038891E+03  0.12500195958E+03 0.  0.
    9000005    1    3    3    0    0  0.18842562861E+02 -0.19568456372E+02  0.27008400614E+01  0.27317781700E+02  0.10000000000E+01 0.  0.
    9000005    1    3    3    0    0 -0.18842562861E+02  0.19568456372E+02  0.28592326782E+03  0.28721260721E+03  0.10000000000E+01 0.  0.
<mgrwt>
<rscale>  0 0.12500196E+03</rscale>
<asrwt>0</asrwt>
<pdfrwt beam="2">  1        4 0.19927912E-02 0.12500196E+03</pdfrwt>
<pdfrwt beam="1">  1       -4 0.46396493E-01 0.12500196E+03</pdfrwt>
<totfact> 0.73808217E+03</totfact>
</mgrwt>
</event>
<event>
 5    1  0.3327068E-002  0.1250003E+03  0.7818608E-02  0.1235069E+00
         -4   -1    0    0    0  501 -0.00000000000E+00  0.00000000000E+00  0.77931431751E+02  0.77941779263E+02  0.12700000000E+01 0.  1.
          4   -1    0    0  501    0  0.00000000000E+00 -0.00000000000E+00 -0.50102689565E+02  0.50118782922E+02  0.12700000000E+01 0.  1.
         25    2    1    2    0    0  0.00000000000E+00  0.00000000000E+00  0.27828742186E+02  0.12806056219E+03  0.12500027478E+03 0.  0.
    9000005    1    3    3    0    0  0.25468389534E+02 -0.30869617134E+02  0.63086264395E+02  0.74715787373E+02  0.10000000000E+01 0.  0.
    9000005    1    3    3    0    0 -0.25468389534E+02  0.30869617134E+02 -0.35257522209E+02  0.53344774812E+02  0.10000000000E+01 0.  0.
<mgrwt>
<rscale>  0 0.12500027E+03</rscale>
<asrwt>0</asrwt>
<pdfrwt beam="2">  1        4 0.77101400E-02 0.12500027E+03</pdfrwt>
<pdfrwt beam="1">  1       -4 0.11991485E-01 0.12500027E+03</pdfrwt>
<totfact> 0.10386115E+04</totfact>
</mgrwt>
</event>
<event>
 5    1  0.3327068E-002  0.1249997E+03  0.7818608E-02  0.1235070E+00
         -4   -1    0    0    0  501 -0.00000000000E+00  0.00000000000E+00  0.73720451844E+01  0.74806383552E+01  0.12700000000E+01 0.  1.
          4   -1    0    0  501    0  0.00000000000E+00 -0.00000000000E+00 -0.52588732791E+03  0.52588886141E+03  0.12700000000E+01 0.  1.
         25    2    1    2    0    0  0.00000000000E+00  0.00000000000E+00 -0.51851528273E+03  0.53336949977E+03  0.12499969944E+03 0.  0.
    9000005    1    3    3    0    0 -0.58442063014E+02  0.74171378357E+01 -0.34822593967E+03  0.35317530168E+03  0.10000000000E+01 0.  0.
    9000005    1    3    3    0    0  0.58442063014E+02 -0.74171378357E+01 -0.17028934306E+03  0.18019419808E+03  0.10000000000E+01 0.  0.
<mgrwt>
<rscale>  0 0.12499970E+03</rscale>
<asrwt>0</asrwt>
<pdfrwt beam="2">  1        4 0.80914185E-01 0.12499970E+03</pdfrwt>
<pdfrwt beam="1">  1       -4 0.11426325E-02 0.12499970E+03</pdfrwt>
<totfact> 0.53365539E+03</totfact>
</mgrwt>
</event>
<event>
 5    1  0.3327068E-002  0.1250009E+03  0.7818608E-02  0.1235068E+00
         -4   -1    0    0    0  501 -0.00000000000E+00  0.00000000000E+00  0.40123253349E+01  0.42085216636E+01  0.12700000000E+01 0. -1.
          4   -1    0    0  501    0  0.00000000000E+00 -0.00000000000E+00 -0.95014455053E+03  0.95014539929E+03  0.12700000000E+01 0. -1.
         25    2    1    2    0    0  0.00000000000E+00  0.00000000000E+00 -0.94613222519E+03  0.95435392096E+03  0.12500087558E+03 0.  0.
    9000005    1    3    3    0    0  0.23018720226E+02  0.33355261578E+02 -0.83624967750E+03  0.83723172305E+03  0.10000000000E+01 0.  0.
    9000005    1    3    3    0    0 -0.23018720226E+02 -0.33355261578E+02 -0.10988254769E+03  0.11712219790E+03  0.10000000000E+01 0.  0.
<mgrwt>
<rscale>  0 0.12500088E+03</rscale>
<asrwt>0</asrwt>
<pdfrwt beam="2">  1        4 0.14619107E+00 0.12500088E+03</pdfrwt>
<pdfrwt beam="1">  1       -4 0.63243889E-03 0.12500088E+03</pdfrwt>
<totfact> 0.32161315E+03</totfact>
</mgrwt>
</event>
<event>
 5    1  0.3327068E-002  0.1249913E+03  0.7818608E-02  0.1235083E+00
          4   -1    0    0  501    0  0.00000000000E+00  0.00000000000E+00  0.92267230944E+02  0.92275970902E+02  0.12700000000E+01 0.  1.
         -4   -1    0    0    0  501 -0.00000000000E+00 -0.00000000000E+00 -0.42310111175E+02  0.42329167339E+02  0.12700000000E+01 0.  1.
         25    2    1    2    0    0  0.00000000000E+00  0.00000000000E+00  0.49957119769E+02  0.13460513824E+03  0.12499131740E+03 0.  0.
    9000005    1    3    3    0    0  0.31168557670E+01 -0.61956054638E+02  0.16888071148E+02  0.64299879030E+02  0.10000000000E+01 0.  0.
    9000005    1    3    3    0    0 -0.31168557670E+01  0.61956054638E+02  0.33069048621E+02  0.70305259212E+02  0.10000000000E+01 0.  0.
<mgrwt>
<rscale>  0 0.12499132E+03</rscale>
<asrwt>0</asrwt>
<pdfrwt beam="1">  1        4 0.14197096E-01 0.12499132E+03</pdfrwt>
<pdfrwt beam="2">  1       -4 0.65113862E-02 0.12499132E+03</pdfrwt>
<totfact> 0.10248407E+04</totfact>
</mgrwt>
</event>
<event>
 4    1  0.3327068E-002  0.1258911E+03  0.7818608E-02  0.1233683E+00
         -4   -1    0    0    0  501 -0.00000000000E+00  0.00000000000E+00  0.12848477123E+04  0.12848483400E+04  0.12700000000E+01 0.  1.
          4   -1    0    0  501    0  0.00000000000E+00 -0.00000000000E+00 -0.29523315347E+01  0.32139012883E+01  0.12700000000E+01 0.  1.
    9000005    1    1    2    0    0  0.56607511153E+02 -0.23110143430E+02  0.79361868992E+03  0.79597117664E+03  0.10000000000E+01 0.  0.
    9000005    1    1    2    0    0 -0.56607511153E+02  0.23110143430E+02  0.48827669088E+03  0.49209106465E+03  0.10000000000E+01 0.  0.
<mgrwt>
<rscale>  0 0.12589110E+03</rscale>
<asrwt>0</asrwt>
<pdfrwt beam="2">  1        4 0.47437377E-03 0.12589110E+03</pdfrwt>
<pdfrwt beam="1">  1       -4 0.19768909E+00 0.12589110E+03</pdfrwt>
<totfact> 0.22079827E+03</totfact>
</mgrwt>
</event>
<event>
 5    1  0.3327068E-002  0.1249990E+03  0.7818608E-02  0.1235071E+00
         -4   -1    0    0    0  501 -0.00000000000E+00  0.00000000000E+00  0.17722931778E+03  0.17723386804E+03  0.12700000000E+01 0. -1.
          4   -1    0    0  501    0  0.00000000000E+00 -0.00000000000E+00 -0.22017162545E+02  0.22053760372E+02  0.12700000000E+01 0. -1.
         25    2    1    2    0    0  0.00000000000E+00  0.00000000000E+00  0.15521215523E+03  0.19928762841E+03  0.12499898282E+03 0.  0.
    9000005    1    3    3    0    0 -0.16481347512E+02 -0.60233974693E+02  0.81317749903E+02  0.10253459403E+03  0.10000000000E+01 0.  0.
    9000005    1    3    3    0    0  0.16481347512E+02  0.60233974693E+02  0.73894405329E+02  0.96753034381E+02  0.10000000000E+01 0.  0.
<mgrwt>
<rscale>  0 0.12499898E+03</rscale>
<asrwt>0</asrwt>
<pdfrwt beam="2">  1        4 0.33904212E-02 0.12499898E+03</pdfrwt>
<pdfrwt beam="1">  1       -4 0.27269213E-01 0.12499898E+03</pdfrwt>
<totfact> 0.90257848E+03</totfact>
</mgrwt>
</event>
<event>
 5    1  0.3327068E-002  0.1249983E+03  0.7818608E-02  0.1235072E+00
         -4   -1    0    0    0  501 -0.00000000000E+00  0.00000000000E+00  0.12302583324E+02  0.12367960884E+02  0.12700000000E+01 0.  1.
          4   -1    0    0  501    0  0.00000000000E+00 -0.00000000000E+00 -0.31659797922E+03  0.31660052645E+03  0.12700000000E+01 0.  1.
         25    2    1    2    0    0  0.00000000000E+00  0.00000000000E+00 -0.30429539590E+03  0.32896848733E+03  0.12499831076E+03 0.  0.
    9000005    1    3    3    0    0  0.57885082532E+02 -0.22884131726E+02 -0.13754707212E+03  0.15097868496E+03  0.10000000000E+01 0.  0.
    9000005    1    3    3    0    0 -0.57885082532E+02  0.22884131726E+02 -0.16674832378E+03  0.17798980237E+03  0.10000000000E+01 0.  0.
<mgrwt>
<rscale>  0 0.12499831E+03</rscale>
<asrwt>0</asrwt>
<pdfrwt beam="2">  1        4 0.48712600E-01 0.12499831E+03</pdfrwt>
<pdfrwt beam="1">  1       -4 0.18979304E-02 0.12499831E+03</pdfrwt>
<totfact> 0.72104689E+03</totfact>
</mgrwt>
</event>
<event>
 5    1  0.3327068E-002  0.1250198E+03  0.7818608E-02  0.1235038E+00
         -4   -1    0    0    0  501 -0.00000000000E+00  0.00000000000E+00  0.11332344271E+03  0.11333055884E+03  0.12700000000E+01 0. -1.
          4   -1    0    0  501    0  0.00000000000E+00 -0.00000000000E+00 -0.34460956254E+02  0.34484350159E+02  0.12700000000E+01 0. -1.
         25    2    1    2    0    0  0.00000000000E+00  0.00000000000E+00  0.78862486452E+02  0.14781490900E+03  0.12501982064E+03 0.  0.
    9000005    1    3    3    0    0  0.61013662668E+02  0.85896691303E+01  0.51833866577E+02  0.80524525284E+02  0.10000000000E+01 0.  0.
    9000005    1    3    3    0    0 -0.61013662668E+02 -0.85896691303E+01  0.27028619875E+02  0.67290383713E+02  0.10000000000E+01 0.  0.
<mgrwt>
<rscale>  0 0.12501982E+03</rscale>
<asrwt>0</asrwt>
<pdfrwt beam="2">  1        4 0.53040324E-02 0.12501982E+03</pdfrwt>
<pdfrwt beam="1">  1       -4 0.17436723E-01 0.12501982E+03</pdfrwt>
<totfact> 0.99696569E+03</totfact>
</mgrwt>
</event>
<event>
 5    1  0.3327068E-002  0.1250005E+03  0.7818608E-02  0.1235069E+00
          4   -1    0    0  501    0  0.00000000000E+00  0.00000000000E+00  0.36550723223E+02  0.36572780427E+02  0.12700000000E+01 0. -1.
         -4   -1    0    0    0  501 -0.00000000000E+00 -0.00000000000E+00 -0.10681479026E+03  0.10682233998E+03  0.12700000000E+01 0. -1.
         25    2    1    2    0    0  0.00000000000E+00  0.00000000000E+00 -0.70264067039E+02  0.14339512041E+03  0.12500048576E+03 0.  0.
    9000005    1    3    3    0    0 -0.44218486145E+02  0.34506133872E+02 -0.35210006770E+01  0.56208053137E+02  0.10000000000E+01 0.  0.
    9000005    1    3    3    0    0  0.44218486145E+02 -0.34506133872E+02 -0.66743066362E+02  0.87187067270E+02  0.10000000000E+01 0.  0.
<mgrwt>
<rscale>  0 0.12500049E+03</rscale>
<asrwt>0</asrwt>
<pdfrwt beam="1">  1        4 0.56254657E-02 0.12500049E+03</pdfrwt>
<pdfrwt beam="2">  1       -4 0.16435322E-01 0.12500049E+03</pdfrwt>
<totfact> 0.10063588E+04</totfact>
</mgrwt>
</event>
<event>
 4    1  0.3327068E-002  0.1247739E+03  0.7818608E-02  0.1235423E+00
         -4   -1    0    0    0  501 -0.00000000000E+00  0.00000000000E+00  0.34193334168E+02  0.34216911046E+02  0.12700000000E+01 0.  1.
          4   -1    0    0  501    0  0.00000000000E+00 -0.00000000000E+00 -0.11376089489E+03  0.11376798366E+03  0.12700000000E+01 0.  1.
    9000005    1    1    2    0    0 -0.23580190515E+01 -0.61677053008E+02 -0.29075750887E+02  0.68235023347E+02  0.10000000000E+01 0.  0.
    9000005    1    1    2    0    0  0.23580190515E+01  0.61677053008E+02 -0.50491809838E+02  0.79749871362E+02  0.10000000000E+01 0.  0.
<mgrwt>
<rscale>  0 0.12477392E+03</rscale>
<asrwt>0</asrwt>
<pdfrwt beam="2">  1        4 0.17504035E-01 0.12477392E+03</pdfrwt>
<pdfrwt beam="1">  1       -4 0.52628719E-02 0.12477392E+03</pdfrwt>
<totfact> 0.10021602E+04</totfact>
</mgrwt>
</event>
<event>
 5    1  0.3327068E-002  0.1249947E+03  0.7818608E-02  0.1235077E+00
          4   -1    0    0  501    0  0.00000000000E+00  0.00000000000E+00  0.33258391559E+02  0.33282630742E+02  0.12700000000E+01 0. -1.
         -4   -1    0    0    0  501 -0.00000000000E+00 -0.00000000000E+00 -0.11737123465E+03  0.11737810539E+03  0.12700000000E+01 0. -1.
         25    2    1    2    0    0  0.00000000000E+00  0.00000000000E+00 -0.84112843094E+02  0.15066073613E+03  0.12499474804E+03 0.  0.
    9000005    1    3    3    0    0  0.16636328998E+02  0.35988368016E+02  0.16162601715E+02  0.42827091533E+02  0.10000000000E+01 0.  0.
    9000005    1    3    3    0    0 -0.16636328998E+02 -0.35988368016E+02 -0.10027544481E+03  0.10783364459E+03  0.10000000000E+01 0.  0.
<mgrwt>
<rscale>  0 0.12499475E+03</rscale>
<asrwt>0</asrwt>
<pdfrwt beam="1">  1        4 0.51190688E-02 0.12499475E+03</pdfrwt>
<pdfrwt beam="2">  1       -4 0.18059506E-01 0.12499475E+03</pdfrwt>
<totfact> 0.99183875E+03</totfact>
</mgrwt>
</event>
<event>
 5    1  0.3327068E-002  0.1249992E+03  0.7818608E-02  0.1235071E+00
         -4   -1    0    0    0  501 -0.00000000000E+00  0.00000000000E+00  0.10068695748E+03  0.10069496664E+03  0.12700000000E+01 0.  1.
          4   -1    0    0  501    0  0.00000000000E+00 -0.00000000000E+00 -0.38775515090E+02  0.38796307434E+02  0.12700000000E+01 0.  1.
         25    2    1    2    0    0  0.00000000000E+00  0.00000000000E+00  0.61911442389E+02  0.13949127407E+03  0.12499915537E+03 0.  0.
    9000005    1    3    3    0    0 -0.47439758785E+02  0.28482692209E+02  0.63364111970E+02  0.84129692468E+02  0.10000000000E+01 0.  0.
    9000005    1    3    3    0    0  0.47439758785E+02 -0.28482692209E+02 -0.14526695805E+01  0.55361581606E+02  0.10000000000E+01 0.  0.
<mgrwt>
<rscale>  0 0.12499916E+03</rscale>
<asrwt>0</asrwt>
<pdfrwt beam="2">  1        4 0.59676793E-02 0.12499916E+03</pdfrwt>
<pdfrwt beam="1">  1       -4 0.15492517E-01 0.12499916E+03</pdfrwt>
<totfact> 0.10144333E+04</totfact>
</mgrwt>
</event>
<event>
 5    1  0.3327068E-002  0.1249993E+03  0.7818608E-02  0.1235070E+00
         -4   -1    0    0    0  501 -0.00000000000E+00  0.00000000000E+00  0.34945514985E+03  0.34945745758E+03  0.12700000000E+01 0.  1.
          4   -1    0    0  501    0  0.00000000000E+00 -0.00000000000E+00 -0.11139570907E+02  0.11211732248E+02  0.12700000000E+01 0.  1.
         25    2    1    2    0    0  0.00000000000E+00  0.00000000000E+00  0.33831557894E+03  0.36066918983E+03  0.12499933413E+03 0.  0.
    9000005    1    3    3    0    0  0.35135130877E+02  0.48305115030E+02  0.11616220852E+03  0.13062358228E+03  0.10000000000E+01 0.  0.
    9000005    1    3    3    0    0 -0.35135130877E+02 -0.48305115030E+02  0.22215337042E+03  0.23004560754E+03  0.10000000000E+01 0.  0.
<mgrwt>
<rscale>  0 0.12499933E+03</rscale>
<asrwt>0</asrwt>
<pdfrwt beam="2">  1        4 0.17195084E-02 0.12499933E+03</pdfrwt>
<pdfrwt beam="1">  1       -4 0.53768063E-01 0.12499933E+03</pdfrwt>
<totfact> 0.68567551E+03</totfact>
</mgrwt>
</event>
<event>
 5    1  0.3327068E-002  0.1249943E+03  0.7818608E-02  0.1235078E+00
         -4   -1    0    0    0  501 -0.00000000000E+00  0.00000000000E+00  0.12506101491E+02  0.12570420617E+02  0.12700000000E+01 0. -1.
          4   -1    0    0  501    0  0.00000000000E+00 -0.00000000000E+00 -0.31145249557E+03  0.31145508487E+03  0.12700000000E+01 0. -1.
         25    2    1    2    0    0  0.00000000000E+00  0.00000000000E+00 -0.29894639407E+03  0.32402550549E+03  0.12499432659E+03 0.  0.
    9000005    1    3    3    0    0  0.35848792860E+02  0.46504382190E+02 -0.20489688392E+03  0.21314672541E+03  0.10000000000E+01 0.  0.
    9000005    1    3    3    0    0 -0.35848792860E+02 -0.46504382190E+02 -0.94049510159E+02  0.11087878009E+03  0.10000000000E+01 0.  0.
<mgrwt>
<rscale>  0 0.12499433E+03</rscale>
<asrwt>0</asrwt>
<pdfrwt beam="2">  1        4 0.47920909E-01 0.12499433E+03</pdfrwt>
<pdfrwt beam="1">  1       -4 0.19291627E-02 0.12499433E+03</pdfrwt>
<totfact> 0.72689031E+03</totfact>
</mgrwt>
</event>
<event>
 5    1  0.3327068E-002  0.1249878E+03  0.7818608E-02  0.1235088E+00
         -4   -1    0    0    0  501 -0.00000000000E+00  0.00000000000E+00  0.48978438652E+03  0.48978603306E+03  0.12700000000E+01 0.  1.
          4   -1    0    0  501    0  0.00000000000E+00 -0.00000000000E+00 -0.79216514648E+01  0.80228088554E+01  0.12700000000E+01 0.  1.
         25    2    1    2    0    0  0.00000000000E+00  0.00000000000E+00  0.48186273505E+03  0.49780884191E+03  0.12498779001E+03 0.  0.
    9000005    1    3    3    0    0  0.32055849941E+02  0.53282392539E+02  0.21641297751E+03  0.22517141849E+03  0.10000000000E+01 0.  0.
    9000005    1    3    3    0    0 -0.32055849941E+02 -0.53282392539E+02  0.26544975754E+03  0.27263742342E+03  0.10000000000E+01 0.  0.
<mgrwt>
<rscale>  0 0.12498779E+03</rscale>
<asrwt>0</asrwt>
<pdfrwt beam="2">  1        4 0.12266238E-02 0.12498779E+03</pdfrwt>
<pdfrwt beam="1">  1       -4 0.75359340E-01 0.12498779E+03</pdfrwt>
<totfact> 0.56049827E+03</totfact>
</mgrwt>
</event>
<event>
 5    1  0.3327068E-002  0.1250014E+03  0.7818608E-02  0.1235067E+00
         -4   -1    0    0    0  501 -0.00000000000E+00  0.00000000000E+00  0.21520946705E+03  0.21521321429E+03  0.12700000000E+01 0.  1.
          4   -1    0    0  501    0  0.00000000000E+00 -0.00000000000E+00 -0.18125211990E+02  0.18169650786E+02  0.12700000000E+01 0.  1.
         25    2    1    2    0    0  0.00000000000E+00  0.00000000000E+00  0.19708425506E+03  0.23338286508E+03  0.12500143248E+03 0.  0.
    9000005    1    3    3    0    0  0.43186072648E+02  0.21955534163E+02  0.17224315550E+03  0.17892955868E+03  0.10000000000E+01 0.  0.
    9000005    1    3    3    0    0 -0.43186072648E+02 -0.21955534163E+02  0.24841099556E+02  0.54453306404E+02  0.10000000000E+01 0.  0.
<mgrwt>
<rscale>  0 0.12500143E+03</rscale>
<asrwt>0</asrwt>
<pdfrwt beam="2">  1        4 0.27922010E-02 0.12500143E+03</pdfrwt>
<pdfrwt beam="1">  1       -4 0.33112853E-01 0.12500143E+03</pdfrwt>
<totfact> 0.84790140E+03</totfact>
</mgrwt>
</event>
<event>
 5    1  0.3327068E-002  0.1250022E+03  0.7818608E-02  0.1235066E+00
         -4   -1    0    0    0  501 -0.00000000000E+00  0.00000000000E+00  0.54688836310E+02  0.54703580476E+02  0.12700000000E+01 0. -1.
          4   -1    0    0  501    0  0.00000000000E+00 -0.00000000000E+00 -0.71399305569E+02  0.71410599604E+02  0.12700000000E+01 0. -1.
         25    2    1    2    0    0  0.00000000000E+00  0.00000000000E+00 -0.16710469259E+02  0.12611418008E+03  0.12500218652E+03 0.  0.
    9000005    1    3    3    0    0  0.51456836228E+02  0.28207109556E+02 -0.30039210943E+02  0.65930275429E+02  0.10000000000E+01 0.  0.
    9000005    1    3    3    0    0 -0.51456836228E+02 -0.28207109556E+02  0.13328741684E+02  0.60183904651E+02  0.10000000000E+01 0.  0.
<mgrwt>
<rscale>  0 0.12500219E+03</rscale>
<asrwt>0</asrwt>
<pdfrwt beam="2">  1        4 0.10986511E-01 0.12500219E+03</pdfrwt>
<pdfrwt beam="1">  1       -4 0.84156701E-02 0.12500219E+03</pdfrwt>
<totfact> 0.10427942E+04</totfact>
</mgrwt>
</event>
<event>
 5    1  0.3327068E-002  0.1249982E+03  0.7818608E-02  0.1235072E+00
          4   -1    0    0  501    0  0.00000000000E+00  0.00000000000E+00  0.75756263037E+01  0.76813419331E+01  0.12700000000E+01 0.  1.
         -4   -1    0    0    0  501 -0.00000000000E+00 -0.00000000000E+00 -0.51193965841E+03  0.51194123369E+03  0.12700000000E+01 0.  1.
         25    2    1    2    0    0  0.00000000000E+00  0.00000000000E+00 -0.50436403210E+03  0.51962257562E+03  0.12499817685E+03 0.  0.
    9000005    1    3    3    0    0 -0.53671624727E+02 -0.22395559279E+02 -0.34724398560E+03  0.35208179435E+03  0.10000000000E+01 0.  0.
    9000005    1    3    3    0    0  0.53671624727E+02  0.22395559279E+02 -0.15712004650E+03  0.16754078127E+03  0.10000000000E+01 0.  0.
<mgrwt>
<rscale>  0 0.12499818E+03</rscale>
<asrwt>0</asrwt>
<pdfrwt beam="1">  1        4 0.11737345E-02 0.12499818E+03</pdfrwt>
<pdfrwt beam="2">  1       -4 0.78768173E-01 0.12499818E+03</pdfrwt>
<totfact> 0.54375593E+03</totfact>
</mgrwt>
</event>
<event>
 5    1  0.3327068E-002  0.1249979E+03  0.7818608E-02  0.1235073E+00
          4   -1    0    0  501    0  0.00000000000E+00  0.00000000000E+00  0.34955476155E+02  0.34978539324E+02  0.12700000000E+01 0.  1.
         -4   -1    0    0    0  501 -0.00000000000E+00 -0.00000000000E+00 -0.11168196432E+03  0.11168918504E+03  0.12700000000E+01 0.  1.
         25    2    1    2    0    0  0.00000000000E+00  0.00000000000E+00 -0.76726488163E+02  0.14666772436E+03  0.12499786951E+03 0.  0.
    9000005    1    3    3    0    0 -0.37353618776E+01  0.58302720737E+02 -0.64388521661E+02  0.86948501398E+02  0.10000000000E+01 0.  0.
    9000005    1    3    3    0    0  0.37353618776E+01 -0.58302720737E+02 -0.12337966502E+02  0.59719222962E+02  0.10000000000E+01 0.  0.
<mgrwt>
<rscale>  0 0.12499787E+03</rscale>
<asrwt>0</asrwt>
<pdfrwt beam="1">  1        4 0.53800951E-02 0.12499787E+03</pdfrwt>
<pdfrwt beam="2">  1       -4 0.17184170E-01 0.12499787E+03</pdfrwt>
<totfact> 0.99976929E+03</totfact>
</mgrwt>
</event>
<event>
 5    1  0.3327068E-002  0.1249989E+03  0.7818608E-02  0.1235071E+00
          4   -1    0    0  501    0  0.00000000000E+00  0.00000000000E+00  0.22700749103E+02  0.22736246608E+02  0.12700000000E+01 0.  1.
         -4   -1    0    0    0  501 -0.00000000000E+00 -0.00000000000E+00 -0.17190050298E+03  0.17190519429E+03  0.12700000000E+01 0.  1.
         25    2    1    2    0    0  0.00000000000E+00  0.00000000000E+00 -0.14919975388E+03  0.19464144090E+03  0.12499889583E+03 0.  0.
    9000005    1    3    3    0    0 -0.42758529550E+02  0.45369487932E+02 -0.67902576227E+02  0.92186995519E+02  0.10000000000E+01 0.  0.
    9000005    1    3    3    0    0  0.42758529550E+02 -0.45369487932E+02 -0.81297177648E+02  0.10245444538E+03  0.10000000000E+01 0.  0.
<mgrwt>
<rscale>  0 0.12499890E+03</rscale>
<asrwt>0</asrwt>
<pdfrwt beam="1">  1        4 0.34955145E-02 0.12499890E+03</pdfrwt>
<pdfrwt beam="2">  1       -4 0.26449322E-01 0.12499890E+03</pdfrwt>
<totfact> 0.91048184E+03</totfact>
</mgrwt>
</event>
<event>
 5    1  0.3327068E-002  0.1250036E+03  0.7818608E-02  0.1235064E+00
          4   -1    0    0  501    0  0.00000000000E+00  0.00000000000E+00  0.38446957819E+03  0.38447167575E+03  0.12700000000E+01 0. -1.
         -4   -1    0    0    0  501 -0.00000000000E+00 -0.00000000000E+00 -0.10118870425E+02  0.10198256649E+02  0.12700000000E+01 0. -1.
         25    2    1    2    0    0  0.00000000000E+00  0.00000000000E+00  0.37435070776E+03  0.39466993240E+03  0.12500361249E+03 0.  0.
    9000005    1    3    3    0    0 -0.57919747941E+02  0.11996075103E+02  0.12348982099E+03  0.13692822538E+03  0.10000000000E+01 0.  0.
    9000005    1    3    3    0    0  0.57919747941E+02 -0.11996075103E+02  0.25086088678E+03  0.25774170701E+03  0.10000000000E+01 0.  0.
<mgrwt>
<rscale>  0 0.12500361E+03</rscale>
<asrwt>0</asrwt>
<pdfrwt beam="1">  1        4 0.59155424E-01 0.12500361E+03</pdfrwt>
<pdfrwt beam="2">  1       -4 0.15630175E-02 0.12500361E+03</pdfrwt>
<totfact> 0.65069320E+03</totfact>
</mgrwt>
</event>
<event>
 5    1  0.3327068E-002  0.1249990E+03  0.7818608E-02  0.1235071E+00
         -4   -1    0    0    0  501 -0.00000000000E+00  0.00000000000E+00  0.38010308446E+01  0.40075847442E+01  0.12700000000E+01 0. -1.
          4   -1    0    0  501    0  0.00000000000E+00 -0.00000000000E+00 -0.10002742018E+04  0.10002750080E+04  0.12700000000E+01 0. -1.
         25    2    1    2    0    0  0.00000000000E+00  0.00000000000E+00 -0.99647317095E+03  0.10042825928E+04  0.12499898285E+03 0.  0.
    9000005    1    3    3    0    0 -0.19234332457E+02 -0.40936749325E+02 -0.15178945258E+03  0.15838817792E+03  0.10000000000E+01 0.  0.
    9000005    1    3    3    0    0  0.19234332457E+02  0.40936749325E+02 -0.84468371837E+03  0.84589441484E+03  0.10000000000E+01 0.  0.
<mgrwt>
<rscale>  0 0.12499898E+03</rscale>
<asrwt>0</asrwt>
<pdfrwt beam="2">  1        4 0.15390409E+00 0.12499898E+03</pdfrwt>
<pdfrwt beam="1">  1       -4 0.60072555E-03 0.12499898E+03</pdfrwt>
<totfact> 0.30464215E+03</totfact>
</mgrwt>
</event>
<event>
 5    1  0.3327068E-002  0.1249976E+03  0.7818608E-02  0.1235073E+00
         -4   -1    0    0    0  501 -0.00000000000E+00  0.00000000000E+00  0.88604327571E+02  0.88613428804E+02  0.12700000000E+01 0. -1.
          4   -1    0    0  501    0  0.00000000000E+00 -0.00000000000E+00 -0.44064215344E+02  0.44082513243E+02  0.12700000000E+01 0. -1.
         25    2    1    2    0    0  0.00000000000E+00  0.00000000000E+00  0.44540112228E+02  0.13269594205E+03  0.12499756573E+03 0.  0.
    9000005    1    3    3    0    0 -0.11505361494E+02  0.43501719840E+02  0.68303401092E+02  0.81799312790E+02  0.10000000000E+01 0.  0.
    9000005    1    3    3    0    0  0.11505361494E+02 -0.43501719840E+02 -0.23763288864E+02  0.50896629257E+02  0.10000000000E+01 0.  0.
<mgrwt>
<rscale>  0 0.12499757E+03</rscale>
<asrwt>0</asrwt>
<pdfrwt beam="2">  1        4 0.67812178E-02 0.12499757E+03</pdfrwt>
<pdfrwt beam="1">  1       -4 0.13633542E-01 0.12499757E+03</pdfrwt>
<totfact> 0.10287431E+04</totfact>
</mgrwt>
</event>
<event>
 5    1  0.3327068E-002  0.1250006E+03  0.7818608E-02  0.1235068E+00
          4   -1    0    0  501    0  0.00000000000E+00  0.00000000000E+00  0.38636008804E+02  0.38656876184E+02  0.12700000000E+01 0.  1.
         -4   -1    0    0    0  501 -0.00000000000E+00 -0.00000000000E+00 -0.10105275643E+03  0.10106073660E+03  0.12700000000E+01 0.  1.
         25    2    1    2    0    0  0.00000000000E+00  0.00000000000E+00 -0.62416747624E+02  0.13971761278E+03  0.12500064375E+03 0.  0.
    9000005    1    3    3    0    0 -0.51891466724E+02  0.33693726364E+02 -0.21381281033E+02  0.65468700107E+02  0.10000000000E+01 0.  0.
    9000005    1    3    3    0    0  0.51891466724E+02 -0.33693726364E+02 -0.41035466591E+02  0.74248912675E+02  0.10000000000E+01 0.  0.
<mgrwt>
<rscale>  0 0.12500064E+03</rscale>
<asrwt>0</asrwt>
<pdfrwt beam="1">  1        4 0.59462204E-02 0.12500064E+03</pdfrwt>
<pdfrwt beam="2">  1       -4 0.15548797E-01 0.12500064E+03</pdfrwt>
<totfact> 0.10139295E+04</totfact>
</mgrwt>
</event>
<event>
 5    1  0.3327068E-002  0.1250022E+03  0.7818608E-02  0.1235066E+00
          4   -1    0    0  501    0  0.00000000000E+00  0.00000000000E+00  0.12042337361E+03  0.12043007021E+03  0.12700000000E+01 0.  1.
         -4   -1    0    0    0  501 -0.00000000000E+00 -0.00000000000E+00 -0.32418760482E+02  0.32443626973E+02  0.12700000000E+01 0.  1.
         25    2    1    2    0    0  0.00000000000E+00  0.00000000000E+00  0.88004613129E+02  0.15287369719E+03  0.12500222142E+03 0.  0.
    9000005    1    3    3    0    0  0.60473848383E+02  0.10453529788E+02  0.58422244471E+02  0.84737956503E+02  0.10000000000E+01 0.  0.
    9000005    1    3    3    0    0 -0.60473848383E+02 -0.10453529788E+02  0.29582368658E+02  0.68135740685E+02  0.10000000000E+01 0.  0.
<mgrwt>
<rscale>  0 0.12500222E+03</rscale>
<asrwt>0</asrwt>
<pdfrwt beam="1">  1        4 0.18529101E-01 0.12500222E+03</pdfrwt>
<pdfrwt beam="2">  1       -4 0.49899294E-02 0.12500222E+03</pdfrwt>
<totfact> 0.98728989E+03</totfact>
</mgrwt>
</event>
<event>
 5    1  0.3327068E-002  0.1249998E+03  0.7818608E-02  0.1235070E+00
          4   -1    0    0  501    0  0.00000000000E+00  0.00000000000E+00  0.14525569299E+03  0.14526124482E+03  0.12700000000E+01 0. -1.
         -4   -1    0    0    0  501 -0.00000000000E+00 -0.00000000000E+00 -0.26871098685E+02  0.26901093742E+02  0.12700000000E+01 0. -1.
         25    2    1    2    0    0  0.00000000000E+00  0.00000000000E+00  0.11838459430E+03  0.17216233856E+03  0.12499983460E+03 0.  0.
    9000005    1    3    3    0    0  0.11659116601E+02  0.48310422173E+02  0.70108208826E+01  0.50199437246E+02  0.10000000000E+01 0.  0.
    9000005    1    3    3    0    0 -0.11659116601E+02 -0.48310422173E+02  0.11137377342E+03  0.12196290131E+03  0.10000000000E+01 0.  0.
<mgrwt>
<rscale>  0 0.12499983E+03</rscale>
<asrwt>0</asrwt>
<pdfrwt beam="1">  1        4 0.22349765E-01 0.12499983E+03</pdfrwt>
<pdfrwt beam="2">  1       -4 0.41367495E-02 0.12499983E+03</pdfrwt>
<totfact> 0.95047488E+03</totfact>
</mgrwt>
</event>
<event>
 5    1  0.3327068E-002  0.1249975E+03  0.7818608E-02  0.1235073E+00
          4   -1    0    0  501    0  0.00000000000E+00  0.00000000000E+00  0.92421570162E+02  0.92430295527E+02  0.12700000000E+01 0. -1.
         -4   -1    0    0    0  501 -0.00000000000E+00 -0.00000000000E+00 -0.42243611311E+02  0.42262697460E+02  0.12700000000E+01 0. -1.
         25    2    1    2    0    0  0.00000000000E+00  0.00000000000E+00  0.50177958851E+02  0.13469299299E+03  0.12499749920E+03 0.  0.
    9000005    1    3    3    0    0 -0.27567797536E+02 -0.54196610236E+02  0.40623784970E+02  0.73133767354E+02  0.10000000000E+01 0.  0.
    9000005    1    3    3    0    0  0.27567797536E+02  0.54196610236E+02  0.95541738811E+01  0.61559225634E+02  0.10000000000E+01 0.  0.
<mgrwt>
<rscale>  0 0.12499750E+03</rscale>
<asrwt>0</asrwt>
<pdfrwt beam="1">  1        4 0.14220842E-01 0.12499750E+03</pdfrwt>
<pdfrwt beam="2">  1       -4 0.65011565E-02 0.12499750E+03</pdfrwt>
<totfact> 0.10245124E+04</totfact>
</mgrwt>
</event>
<event>
 5    1  0.3327068E-002  0.1250020E+03  0.7818608E-02  0.1235066E+00
          4   -1    0    0  501    0  0.00000000000E+00  0.00000000000E+00  0.23881181771E+02  0.23914927196E+02  0.12700000000E+01 0. -1.
         -4   -1    0    0    0  501 -0.00000000000E+00 -0.00000000000E+00 -0.16342376727E+03  0.16342870191E+03  0.12700000000E+01 0. -1.
         25    2    1    2    0    0  0.00000000000E+00  0.00000000000E+00 -0.13954258550E+03  0.18734362911E+03  0.12500200878E+03 0.  0.
    9000005    1    3    3    0    0  0.47747608996E+02  0.28150588774E+02 -0.11302932760E+03  0.12589248870E+03  0.10000000000E+01 0.  0.
    9000005    1    3    3    0    0 -0.47747608996E+02 -0.28150588774E+02 -0.26513257897E+02  0.61451140408E+02  0.10000000000E+01 0.  0.
<mgrwt>
<rscale>  0 0.12500201E+03</rscale>
<asrwt>0</asrwt>
<pdfrwt beam="1">  1        4 0.36770035E-02 0.12500201E+03</pdfrwt>
<pdfrwt beam="2">  1       -4 0.25145093E-01 0.12500201E+03</pdfrwt>
<totfact> 0.92307425E+03</totfact>
</mgrwt>
</event>
<event>
 5    1  0.3327068E-002  0.1250016E+03  0.7818608E-02  0.1235067E+00
          4   -1    0    0  501    0  0.00000000000E+00  0.00000000000E+00  0.19359168942E+02  0.19400781482E+02  0.12700000000E+01 0. -1.
         -4   -1    0    0    0  501 -0.00000000000E+00 -0.00000000000E+00 -0.20152275243E+03  0.20152675417E+03  0.12700000000E+01 0. -1.
         25    2    1    2    0    0  0.00000000000E+00  0.00000000000E+00 -0.18216358349E+03  0.22092753565E+03  0.12500161943E+03 0.  0.
    9000005    1    3    3    0    0 -0.37052326644E+02  0.29801839368E+02 -0.16275028267E+03  0.16955730315E+03  0.10000000000E+01 0.  0.
    9000005    1    3    3    0    0  0.37052326644E+02 -0.29801839368E+02 -0.19413300814E+02  0.51370232508E+02  0.10000000000E+01 0.  0.
<mgrwt>
<rscale>  0 0.12500162E+03</rscale>
<asrwt>0</asrwt>
<pdfrwt beam="1">  1        4 0.29818426E-02 0.12500162E+03</pdfrwt>
<pdfrwt beam="2">  1       -4 0.31007008E-01 0.12500162E+03</pdfrwt>
<totfact> 0.86718656E+03</totfact>
</mgrwt>
</event>
<event>
 5    1  0.3327068E-002  0.1250007E+03  0.7818608E-02  0.1235068E+00
         -4   -1    0    0    0  501 -0.00000000000E+00  0.00000000000E+00  0.85597977782E+03  0.85598071996E+03  0.12700000000E+01 0. -1.
          4   -1    0    0  501    0  0.00000000000E+00 -0.00000000000E+00 -0.44742163377E+01  0.46509689138E+01  0.12700000000E+01 0. -1.
         25    2    1    2    0    0  0.00000000000E+00  0.00000000000E+00  0.85150556148E+03  0.86063168887E+03  0.12500073061E+03 0.  0.
    9000005    1    3    3    0    0  0.31143406920E+01  0.48866227311E+02  0.69309070674E+03  0.69481892249E+03  0.10000000000E+01 0.  0.
    9000005    1    3    3    0    0 -0.31143406920E+01 -0.48866227311E+02  0.15841485475E+03  0.16581276638E+03  0.10000000000E+01 0.  0.
<mgrwt>
<rscale>  0 0.12500073E+03</rscale>
<asrwt>0</asrwt>
<pdfrwt beam="2">  1        4 0.70200989E-03 0.12500073E+03</pdfrwt>
<pdfrwt beam="1">  1       -4 0.13170285E+00 0.12500073E+03</pdfrwt>
<totfact> 0.35695606E+03</totfact>
</mgrwt>
</event>
<event>
 5    1  0.3327068E-002  0.1250009E+03  0.7818608E-02  0.1235068E+00
         -4   -1    0    0    0  501 -0.00000000000E+00  0.00000000000E+00  0.32266253604E+01  0.34675656038E+01  0.12700000000E+01 0. -1.
          4   -1    0    0  501    0  0.00000000000E+00 -0.00000000000E+00 -0.11668321905E+04  0.11668328817E+04  0.12700000000E+01 0. -1.
         25    2    1    2    0    0  0.00000000000E+00  0.00000000000E+00 -0.11636055652E+04  0.11703004473E+04  0.12500090242E+03 0.  0.
    9000005    1    3    3    0    0 -0.49105892008E+02 -0.32963137728E+02 -0.77076184352E+03  0.77302831546E+03  0.10000000000E+01 0.  0.
    9000005    1    3    3    0    0  0.49105892008E+02  0.32963137728E+02 -0.39284372163E+03  0.39727213180E+03  0.10000000000E+01 0.  0.
<mgrwt>
<rscale>  0 0.12500090E+03</rscale>
<asrwt>0</asrwt>
<pdfrwt beam="2">  1        4 0.17953091E+00 0.12500090E+03</pdfrwt>
<pdfrwt beam="1">  1       -4 0.51499186E-03 0.12500090E+03</pdfrwt>
<totfact> 0.25503190E+03</totfact>
</mgrwt>
</event>
<event>
 5    1  0.3327068E-002  0.1250020E+03  0.7818608E-02  0.1235066E+00
         -4   -1    0    0    0  501 -0.00000000000E+00  0.00000000000E+00  0.26060187411E+03  0.26060496866E+03  0.12700000000E+01 0. -1.
          4   -1    0    0  501    0  0.00000000000E+00 -0.00000000000E+00 -0.14959722476E+02  0.15013533780E+02  0.12700000000E+01 0. -1.
         25    2    1    2    0    0  0.00000000000E+00  0.00000000000E+00  0.24564215164E+03  0.27561850244E+03  0.12500196889E+03 0.  0.
    9000005    1    3    3    0    0  0.38086272360E+02  0.26074935379E+02  0.29928870263E+02  0.55020029739E+02  0.10000000000E+01 0.  0.
    9000005    1    3    3    0    0 -0.38086272360E+02 -0.26074935379E+02  0.21571328137E+03  0.22059847270E+03  0.10000000000E+01 0.  0.
<mgrwt>
<rscale>  0 0.12500197E+03</rscale>
<asrwt>0</asrwt>
<pdfrwt beam="2">  1        4 0.23058734E-02 0.12500197E+03</pdfrwt>
<pdfrwt beam="1">  1       -4 0.40096969E-01 0.12500197E+03</pdfrwt>
<totfact> 0.78759224E+03</totfact>
</mgrwt>
</event>
<event>
 5    1  0.3327068E-002  0.1249999E+03  0.7818608E-02  0.1235069E+00
         -4   -1    0    0    0  501 -0.00000000000E+00  0.00000000000E+00  0.38864687441E+03  0.38864894942E+03  0.12700000000E+01 0. -1.
          4   -1    0    0  501    0  0.00000000000E+00 -0.00000000000E+00 -0.10008648406E+02  0.10088901968E+02  0.12700000000E+01 0. -1.
         25    2    1    2    0    0  0.00000000000E+00  0.00000000000E+00  0.37863822600E+03  0.39873785139E+03  0.12499987176E+03 0.  0.
    9000005    1    3    3    0    0 -0.93189052398E+01  0.44805165738E+02  0.53573818171E+02  0.70466295951E+02  0.10000000000E+01 0.  0.
    9000005    1    3    3    0    0  0.93189052398E+01 -0.44805165738E+02  0.32506440783E+03  0.32827155544E+03  0.10000000000E+01 0.  0.
<mgrwt>
<rscale>  0 0.12499987E+03</rscale>
<asrwt>0</asrwt>
<pdfrwt beam="2">  1        4 0.15461247E-02 0.12499987E+03</pdfrwt>
<pdfrwt beam="1">  1       -4 0.59798172E-01 0.12499987E+03</pdfrwt>
<totfact> 0.64675904E+03</totfact>
</mgrwt>
</event>
<event>
 5    1  0.3327068E-002  0.1250006E+03  0.7818608E-02  0.1235068E+00
          4   -1    0    0  501    0  0.00000000000E+00  0.00000000000E+00  0.36390906391E+02  0.36413060404E+02  0.12700000000E+01 0. -1.
         -4   -1    0    0    0  501 -0.00000000000E+00 -0.00000000000E+00 -0.10728376326E+03  0.10729127998E+03  0.12700000000E+01 0. -1.
         25    2    1    2    0    0  0.00000000000E+00  0.00000000000E+00 -0.70892856869E+02  0.14370434038E+03  0.12500056116E+03 0.  0.
    9000005    1    3    3    0    0 -0.10380805918E+02 -0.59383464447E+02 -0.16516665237E+02  0.62513656202E+02  0.10000000000E+01 0.  0.
    9000005    1    3    3    0    0  0.10380805918E+02  0.59383464447E+02 -0.54376191632E+02  0.81190684180E+02  0.10000000000E+01 0.  0.
<mgrwt>
<rscale>  0 0.12500056E+03</rscale>
<asrwt>0</asrwt>
<pdfrwt beam="1">  1        4 0.56008834E-02 0.12500056E+03</pdfrwt>
<pdfrwt beam="2">  1       -4 0.16507477E-01 0.12500056E+03</pdfrwt>
<totfact> 0.10057253E+04</totfact>
</mgrwt>
</event>
<event>
 5    1  0.3327068E-002  0.1250125E+03  0.7818608E-02  0.1235050E+00
         -4   -1    0    0    0  501 -0.00000000000E+00  0.00000000000E+00  0.21173351894E+01  0.24690095796E+01  0.12700000000E+01 0. -1.
          4   -1    0    0  501    0  0.00000000000E+00 -0.00000000000E+00 -0.17034149277E+04  0.17034154012E+04  0.12700000000E+01 0. -1.
         25    2    1    2    0    0  0.00000000000E+00  0.00000000000E+00 -0.17012975926E+04  0.17058844108E+04  0.12501249707E+03 0.  0.
    9000005    1    3    3    0    0 -0.29343749136E+02 -0.28271915622E+02 -0.14972991996E+04  0.14978538814E+04  0.10000000000E+01 0.  0.
    9000005    1    3    3    0    0  0.29343749136E+02  0.28271915622E+02 -0.20399839297E+03  0.20803052940E+03  0.10000000000E+01 0.  0.
<mgrwt>
<rscale>  0 0.12501250E+03</rscale>
<asrwt>0</asrwt>
<pdfrwt beam="2">  1        4 0.26208991E+00 0.12501250E+03</pdfrwt>
<pdfrwt beam="1">  1       -4 0.35283353E-03 0.12501250E+03</pdfrwt>
<totfact> 0.14206194E+03</totfact>
</mgrwt>
</event>
<event>
 5    1  0.3327068E-002  0.1249975E+03  0.7818608E-02  0.1235073E+00
          4   -1    0    0  501    0  0.00000000000E+00  0.00000000000E+00  0.62777688156E+03  0.62777816618E+03  0.12700000000E+01 0.  1.
         -4   -1    0    0    0  501 -0.00000000000E+00 -0.00000000000E+00 -0.61560000872E+01  0.62856373641E+01  0.12700000000E+01 0.  1.
         25    2    1    2    0    0  0.00000000000E+00  0.00000000000E+00  0.62162088148E+03  0.63406380354E+03  0.12499754666E+03 0.  0.
    9000005    1    3    3    0    0 -0.48903202541E+02  0.38903046678E+02  0.31261395241E+03  0.31880002117E+03  0.10000000000E+01 0.  0.
    9000005    1    3    3    0    0  0.48903202541E+02 -0.38903046678E+02  0.30900692907E+03  0.31526378237E+03  0.10000000000E+01 0.  0.
<mgrwt>
<rscale>  0 0.12499755E+03</rscale>
<asrwt>0</asrwt>
<pdfrwt beam="1">  1        4 0.96591145E-01 0.12499755E+03</pdfrwt>
<pdfrwt beam="2">  1       -4 0.95714770E-03 0.12499755E+03</pdfrwt>
<totfact> 0.46788170E+03</totfact>
</mgrwt>
</event>
<event>
 5    1  0.3327068E-002  0.1250189E+03  0.7818608E-02  0.1235040E+00
         -4   -1    0    0    0  501 -0.00000000000E+00  0.00000000000E+00  0.40355103797E+02  0.40375082693E+02  0.12700000000E+01 0. -1.
          4   -1    0    0  501    0  0.00000000000E+00 -0.00000000000E+00 -0.96778071371E+02  0.96786403995E+02  0.12700000000E+01 0. -1.
         25    2    1    2    0    0  0.00000000000E+00  0.00000000000E+00 -0.56422967575E+02  0.13716148669E+03  0.12501888722E+03 0.  0.
    9000005    1    3    3    0    0 -0.33596915064E+01 -0.43355959890E+02  0.21042071694E+02  0.48319722332E+02  0.10000000000E+01 0.  0.
    9000005    1    3    3    0    0  0.33596915064E+01  0.43355959890E+02 -0.77465039269E+02  0.88841764356E+02  0.10000000000E+01 0.  0.
<mgrwt>
<rscale>  0 0.12501889E+03</rscale>
<asrwt>0</asrwt>
<pdfrwt beam="2">  1        4 0.14891112E-01 0.12501889E+03</pdfrwt>
<pdfrwt beam="1">  1       -4 0.62106553E-02 0.12501889E+03</pdfrwt>
<totfact> 0.10188371E+04</totfact>
</mgrwt>
</event>
<event>
 5    1  0.3327068E-002  0.1250015E+03  0.7818608E-02  0.1235067E+00
         -4   -1    0    0    0  501 -0.00000000000E+00  0.00000000000E+00  0.15839569779E+03  0.15840078907E+03  0.12700000000E+01 0. -1.
          4   -1    0    0  501    0  0.00000000000E+00 -0.00000000000E+00 -0.24640104931E+02  0.24672812385E+02  0.12700000000E+01 0. -1.
         25    2    1    2    0    0  0.00000000000E+00  0.00000000000E+00  0.13375559286E+03  0.18307360146E+03  0.12500153971E+03 0.  0.
    9000005    1    3    3    0    0  0.26679458026E+01  0.32768688262E+01  0.15819340736E+03  0.15825299345E+03  0.10000000000E+01 0.  0.
    9000005    1    3    3    0    0 -0.26679458026E+01 -0.32768688262E+01 -0.24437814501E+02  0.24820608004E+02  0.10000000000E+01 0.  0.
<mgrwt>
<rscale>  0 0.12500154E+03</rscale>
<asrwt>0</asrwt>
<pdfrwt beam="2">  1        4 0.37936929E-02 0.12500154E+03</pdfrwt>
<pdfrwt beam="1">  1       -4 0.24371477E-01 0.12500154E+03</pdfrwt>
<totfact> 0.93063440E+03</totfact>
</mgrwt>
</event>
<event>
 5    1  0.3327068E-002  0.1250020E+03  0.7818608E-02  0.1235066E+00
          4   -1    0    0  501    0  0.00000000000E+00  0.00000000000E+00  0.55753184725E+01  0.57181357163E+01  0.12700000000E+01 0.  1.
         -4   -1    0    0    0  501 -0.00000000000E+00 -0.00000000000E+00 -0.69165087343E+03  0.69165203941E+03  0.12700000000E+01 0.  1.
         25    2    1    2    0    0  0.00000000000E+00  0.00000000000E+00 -0.68607555496E+03  0.69737017512E+03  0.12500197615E+03 0.  0.
    9000005    1    3    3    0    0  0.59001960453E+02  0.47227618632E+01 -0.23120430064E+03  0.23866286777E+03  0.10000000000E+01 0.  0.
    9000005    1    3    3    0    0 -0.59001960453E+02 -0.47227618632E+01 -0.45487125432E+03  0.45870730735E+03  0.10000000000E+01 0.  0.
<mgrwt>
<rscale>  0 0.12500198E+03</rscale>
<asrwt>0</asrwt>
<pdfrwt beam="1">  1        4 0.86881749E-03 0.12500198E+03</pdfrwt>
<pdfrwt beam="2">  1       -4 0.10641883E+00 0.12500198E+03</pdfrwt>
<totfact> 0.43224030E+03</totfact>
</mgrwt>
</event>
<event>
 5    1  0.3327068E-002  0.1249996E+03  0.7818608E-02  0.1235070E+00
          4   -1    0    0  501    0  0.00000000000E+00  0.00000000000E+00  0.40165617140E+03  0.40165817921E+03  0.12700000000E+01 0.  1.
         -4   -1    0    0    0  501 -0.00000000000E+00 -0.00000000000E+00 -0.96817937747E+01  0.97647340310E+01  0.12700000000E+01 0.  1.
         25    2    1    2    0    0  0.00000000000E+00  0.00000000000E+00  0.39197437763E+03  0.41142291324E+03  0.12499960329E+03 0.  0.
    9000005    1    3    3    0    0  0.46401648665E+02  0.26244540282E+02  0.30331571428E+03  0.30796641282E+03  0.10000000000E+01 0.  0.
    9000005    1    3    3    0    0 -0.46401648665E+02 -0.26244540282E+02  0.88658663347E+02  0.10345650042E+03  0.10000000000E+01 0.  0.
<mgrwt>
<rscale>  0 0.12499960E+03</rscale>
<asrwt>0</asrwt>
<pdfrwt beam="1">  1        4 0.61799797E-01 0.12499960E+03</pdfrwt>
<pdfrwt beam="2">  1       -4 0.14960411E-02 0.12499960E+03</pdfrwt>
<totfact> 0.63457319E+03</totfact>
</mgrwt>
</event>
<event>
 5    1  0.3327068E-002  0.1249986E+03  0.7818608E-02  0.1235071E+00
         -4   -1    0    0    0  501 -0.00000000000E+00  0.00000000000E+00  0.19814948788E+02  0.19855606147E+02  0.12700000000E+01 0. -1.
          4   -1    0    0  501    0  0.00000000000E+00 -0.00000000000E+00 -0.19688741208E+03  0.19689150804E+03  0.12700000000E+01 0. -1.
         25    2    1    2    0    0  0.00000000000E+00  0.00000000000E+00 -0.17707246330E+03  0.21674711418E+03  0.12499861699E+03 0.  0.
    9000005    1    3    3    0    0 -0.55243277226E+01  0.52967849052E+02 -0.31840861024E+02  0.62056036457E+02  0.10000000000E+01 0.  0.
    9000005    1    3    3    0    0  0.55243277226E+01 -0.52967849052E+02 -0.14523160227E+03  0.15469107773E+03  0.10000000000E+01 0.  0.
<mgrwt>
<rscale>  0 0.12499862E+03</rscale>
<asrwt>0</asrwt>
<pdfrwt beam="2">  1        4 0.30293812E-01 0.12499862E+03</pdfrwt>
<pdfrwt beam="1">  1       -4 0.30518964E-02 0.12499862E+03</pdfrwt>
<totfact> 0.87388409E+03</totfact>
</mgrwt>
</event>
<event>
 5    1  0.3327068E-002  0.1249989E+03  0.7818608E-02  0.1235071E+00
          4   -1    0    0  501    0  0.00000000000E+00  0.00000000000E+00  0.12970259652E+02  0.13032288189E+02  0.12700000000E+01 0.  1.
         -4   -1    0    0    0  501 -0.00000000000E+00 -0.00000000000E+00 -0.30038245700E+03  0.30038514173E+03  0.12700000000E+01 0.  1.
         25    2    1    2    0    0  0.00000000000E+00  0.00000000000E+00 -0.28741219735E+03  0.31341742992E+03  0.12499885677E+03 0.  0.
    9000005    1    3    3    0    0 -0.59252818246E+02  0.15342498017E+02 -0.17531178010E+03  0.18569197332E+03  0.10000000000E+01 0.  0.
    9000005    1    3    3    0    0  0.59252818246E+02 -0.15342498017E+02 -0.11210041725E+03  0.12772545660E+03  0.10000000000E+01 0.  0.
<mgrwt>
<rscale>  0 0.12499886E+03</rscale>
<asrwt>0</asrwt>
<pdfrwt beam="1">  1        4 0.20004027E-02 0.12499886E+03</pdfrwt>
<pdfrwt beam="2">  1       -4 0.46217659E-01 0.12499886E+03</pdfrwt>
<totfact> 0.73947812E+03</totfact>
</mgrwt>
</event>
<event>
 5    1  0.3327068E-002  0.1249983E+03  0.7818608E-02  0.1235072E+00
          4   -1    0    0  501    0  0.00000000000E+00  0.00000000000E+00  0.42103445528E+03  0.42103637068E+03  0.12700000000E+01 0.  1.
         -4   -1    0    0    0  501 -0.00000000000E+00 -0.00000000000E+00 -0.92320787619E+01  0.93190223879E+01  0.12700000000E+01 0.  1.
         25    2    1    2    0    0  0.00000000000E+00  0.00000000000E+00  0.41180237652E+03  0.43035539307E+03  0.12499826813E+03 0.  0.
    9000005    1    3    3    0    0  0.53737939062E+02  0.25310987810E+02  0.13907632125E+03  0.15123371096E+03  0.10000000000E+01 0.  0.
    9000005    1    3    3    0    0 -0.53737939062E+02 -0.25310987810E+02  0.27272605527E+03  0.27912168211E+03  0.10000000000E+01 0.  0.
<mgrwt>
<rscale>  0 0.12499827E+03</rscale>
<asrwt>0</asrwt>
<pdfrwt beam="1">  1        4 0.64781355E-01 0.12499827E+03</pdfrwt>
<pdfrwt beam="2">  1       -4 0.14271554E-02 0.12499827E+03</pdfrwt>
<totfact> 0.61706151E+03</totfact>
</mgrwt>
</event>
<event>
 5    1  0.3327068E-002  0.1250021E+03  0.7818608E-02  0.1235066E+00
         -4   -1    0    0    0  501 -0.00000000000E+00  0.00000000000E+00  0.80955040132E+01  0.81945155579E+01  0.12700000000E+01 0. -1.
          4   -1    0    0  501    0  0.00000000000E+00 -0.00000000000E+00 -0.47950437044E+03  0.47950605227E+03  0.12700000000E+01 0. -1.
         25    2    1    2    0    0  0.00000000000E+00  0.00000000000E+00 -0.47140886642E+03  0.48770056783E+03  0.12500209807E+03 0.  0.
    9000005    1    3    3    0    0  0.27225906701E+02  0.55961879403E+02 -0.21349676175E+03  0.22238446263E+03  0.10000000000E+01 0.  0.
    9000005    1    3    3    0    0 -0.27225906701E+02 -0.55961879403E+02 -0.25791210468E+03  0.26531610520E+03  0.10000000000E+01 0.  0.
<mgrwt>
<rscale>  0 0.12500210E+03</rscale>
<asrwt>0</asrwt>
<pdfrwt beam="2">  1        4 0.73777627E-01 0.12500210E+03</pdfrwt>
<pdfrwt beam="1">  1       -4 0.12532082E-02 0.12500210E+03</pdfrwt>
<totfact> 0.56828827E+03</totfact>
</mgrwt>
</event>
<event>
 5    1  0.3327068E-002  0.1249987E+03  0.7818608E-02  0.1235071E+00
         -4   -1    0    0    0  501 -0.00000000000E+00  0.00000000000E+00  0.54063812339E+01  0.55535446380E+01  0.12700000000E+01 0. -1.
          4   -1    0    0  501    0  0.00000000000E+00 -0.00000000000E+00 -0.71266202895E+03  0.71266316055E+03  0.12700000000E+01 0. -1.
         25    2    1    2    0    0  0.00000000000E+00  0.00000000000E+00 -0.70725564771E+03  0.71821670518E+03  0.12499873754E+03 0.  0.
    9000005    1    3    3    0    0 -0.18461885211E+02 -0.49924702802E+02 -0.16551531306E+03  0.17386671910E+03  0.10000000000E+01 0.  0.
    9000005    1    3    3    0    0  0.18461885211E+02  0.49924702802E+02 -0.54174033466E+03  0.54434998608E+03  0.10000000000E+01 0.  0.
<mgrwt>
<rscale>  0 0.12499874E+03</rscale>
<asrwt>0</asrwt>
<pdfrwt beam="2">  1        4 0.10965165E+00 0.12499874E+03</pdfrwt>
<pdfrwt beam="1">  1       -4 0.84315883E-03 0.12499874E+03</pdfrwt>
<totfact> 0.42143525E+03</totfact>
</mgrwt>
</event>
<event>
 5    1  0.3327068E-002  0.1249713E+03  0.7818608E-02  0.1235114E+00
          4   -1    0    0  501    0  0.00000000000E+00  0.00000000000E+00  0.20255881477E+02  0.20295655555E+02  0.12700000000E+01 0. -1.
         -4   -1    0    0    0  501 -0.00000000000E+00 -0.00000000000E+00 -0.19252574520E+03  0.19252993394E+03  0.12700000000E+01 0. -1.
         25    2    1    2    0    0  0.00000000000E+00  0.00000000000E+00 -0.17226986372E+03  0.21282558950E+03  0.12497129910E+03 0.  0.
    9000005    1    3    3    0    0 -0.58470258459E+02  0.16532603062E+02 -0.11089336896E+03  0.12645330113E+03  0.10000000000E+01 0.  0.
    9000005    1    3    3    0    0  0.58470258459E+02 -0.16532603062E+02 -0.61376494763E+02  0.86372288366E+02  0.10000000000E+01 0.  0.
<mgrwt>
<rscale>  0 0.12497130E+03</rscale>
<asrwt>0</asrwt>
<pdfrwt beam="1">  1        4 0.31196713E-02 0.12497130E+03</pdfrwt>
<pdfrwt beam="2">  1       -4 0.29622726E-01 0.12497130E+03</pdfrwt>
<totfact> 0.88072981E+03</totfact>
</mgrwt>
</event>
<event>
 5    1  0.3327068E-002  0.1249988E+03  0.7818608E-02  0.1235071E+00
          4   -1    0    0  501    0  0.00000000000E+00  0.00000000000E+00  0.36478915998E+02  0.36501016594E+02  0.12700000000E+01 0. -1.
         -4   -1    0    0    0  501 -0.00000000000E+00 -0.00000000000E+00 -0.10702200351E+03  0.10702953861E+03  0.12700000000E+01 0. -1.
         25    2    1    2    0    0  0.00000000000E+00  0.00000000000E+00 -0.70543087507E+02  0.14353055520E+03  0.12499877232E+03 0.  0.
    9000005    1    3    3    0    0  0.49302130849E+02  0.42100720346E+01  0.85543620190E+01  0.50225510672E+02  0.10000000000E+01 0.  0.
    9000005    1    3    3    0    0 -0.49302130849E+02 -0.42100720346E+01 -0.79097449526E+02  0.93305044528E+02  0.10000000000E+01 0.  0.
<mgrwt>
<rscale>  0 0.12499877E+03</rscale>
<asrwt>0</asrwt>
<pdfrwt beam="1">  1        4 0.56144206E-02 0.12499877E+03</pdfrwt>
<pdfrwt beam="2">  1       -4 0.16467203E-01 0.12499877E+03</pdfrwt>
<totfact> 0.10061208E+04</totfact>
</mgrwt>
</event>
<event>
 4    1  0.3327068E-002  0.1248464E+03  0.7818608E-02  0.1235310E+00
         -4   -1    0    0    0  501 -0.00000000000E+00  0.00000000000E+00  0.19034707340E+03  0.19035131009E+03  0.12700000000E+01 0.  1.
          4   -1    0    0  501    0  0.00000000000E+00 -0.00000000000E+00 -0.20447151900E+02  0.20486554636E+02  0.12700000000E+01 0.  1.
    9000005    1    1    2    0    0  0.21501402030E+02 -0.57845906904E+02  0.10071958965E+03  0.11812660570E+03  0.10000000000E+01 0.  0.
    9000005    1    1    2    0    0 -0.21501402030E+02  0.57845906904E+02  0.69180331844E+02  0.92711259019E+02  0.10000000000E+01 0.  0.
<mgrwt>
<rscale>  0 0.12484639E+03</rscale>
<asrwt>0</asrwt>
<pdfrwt beam="2">  1        4 0.31490725E-02 0.12484639E+03</pdfrwt>
<pdfrwt beam="1">  1       -4 0.29287522E-01 0.12484639E+03</pdfrwt>
<totfact> 0.88643260E+03</totfact>
</mgrwt>
</event>
<event>
 5    1  0.3327068E-002  0.1249939E+03  0.7818608E-02  0.1235079E+00
         -4   -1    0    0    0  501 -0.00000000000E+00  0.00000000000E+00  0.14633824814E+03  0.14634375889E+03  0.12700000000E+01 0.  1.
          4   -1    0    0  501    0  0.00000000000E+00 -0.00000000000E+00 -0.26669565165E+02  0.26699786630E+02  0.12700000000E+01 0.  1.
         25    2    1    2    0    0  0.00000000000E+00  0.00000000000E+00  0.11966868297E+03  0.17304354552E+03  0.12499389971E+03 0.  0.
    9000005    1    3    3    0    0  0.32448889809E+02  0.38583280649E+02  0.11095039616E+03  0.12187120416E+03  0.10000000000E+01 0.  0.
    9000005    1    3    3    0    0 -0.32448889809E+02 -0.38583280649E+02  0.87182868068E+01  0.51172341360E+02  0.10000000000E+01 0.  0.
<mgrwt>
<rscale>  0 0.12499390E+03</rscale>
<asrwt>0</asrwt>
<pdfrwt beam="2">  1        4 0.41057587E-02 0.12499390E+03</pdfrwt>
<pdfrwt beam="1">  1       -4 0.22516325E-01 0.12499390E+03</pdfrwt>
<totfact> 0.94897375E+03</totfact>
</mgrwt>
</event>
<event>
 5    1  0.3327068E-002  0.1249953E+03  0.7818608E-02  0.1235077E+00
          4   -1    0    0  501    0  0.00000000000E+00  0.00000000000E+00  0.30968423542E+03  0.30968683951E+03  0.12700000000E+01 0.  1.
         -4   -1    0    0    0  501 -0.00000000000E+00 -0.00000000000E+00 -0.12578073802E+02  0.12642026758E+02  0.12700000000E+01 0.  1.
         25    2    1    2    0    0  0.00000000000E+00  0.00000000000E+00  0.29710616162E+03  0.32232886627E+03  0.12499530695E+03 0.  0.
    9000005    1    3    3    0    0 -0.32878030462E+02  0.52270594658E+02  0.17325733799E+03  0.18393554611E+03  0.10000000000E+01 0.  0.
    9000005    1    3    3    0    0  0.32878030462E+02 -0.52270594658E+02  0.12384882362E+03  0.13839332016E+03  0.10000000000E+01 0.  0.
<mgrwt>
<rscale>  0 0.12499531E+03</rscale>
<asrwt>0</asrwt>
<pdfrwt beam="1">  1        4 0.47648844E-01 0.12499531E+03</pdfrwt>
<pdfrwt beam="2">  1       -4 0.19402082E-02 0.12499531E+03</pdfrwt>
<totfact> 0.72887574E+03</totfact>
</mgrwt>
</event>
<event>
 5    1  0.3327068E-002  0.1250037E+03  0.7818608E-02  0.1235063E+00
         -4   -1    0    0    0  501 -0.00000000000E+00  0.00000000000E+00  0.88895213187E+03  0.88895303906E+03  0.12700000000E+01 0.  1.
          4   -1    0    0  501    0  0.00000000000E+00 -0.00000000000E+00 -0.43017964357E+01  0.44853486570E+01  0.12700000000E+01 0.  1.
         25    2    1    2    0    0  0.00000000000E+00  0.00000000000E+00  0.88465033544E+03  0.89343838772E+03  0.12500374660E+03 0.  0.
    9000005    1    3    3    0    0 -0.49532956402E+01 -0.23313400096E+02  0.29422253560E+02  0.37877681639E+02  0.10000000000E+01 0.  0.
    9000005    1    3    3    0    0  0.49532956402E+01  0.23313400096E+02  0.85522808187E+03  0.85556070608E+03  0.10000000000E+01 0.  0.
<mgrwt>
<rscale>  0 0.12500375E+03</rscale>
<asrwt>0</asrwt>
<pdfrwt beam="2">  1        4 0.67600390E-03 0.12500375E+03</pdfrwt>
<pdfrwt beam="1">  1       -4 0.13677608E+00 0.12500375E+03</pdfrwt>
<totfact> 0.34409596E+03</totfact>
</mgrwt>
</event>
<event>
 5    1  0.3327068E-002  0.1250007E+03  0.7818608E-02  0.1235068E+00
          4   -1    0    0  501    0  0.00000000000E+00  0.00000000000E+00  0.16344421383E+04  0.16344426317E+04  0.12700000000E+01 0.  1.
         -4   -1    0    0    0  501 -0.00000000000E+00 -0.00000000000E+00 -0.22207437258E+01  0.25582421105E+01  0.12700000000E+01 0.  1.
         25    2    1    2    0    0  0.00000000000E+00  0.00000000000E+00  0.16322213946E+04  0.16370008738E+04  0.12500071993E+03 0.  0.
    9000005    1    3    3    0    0 -0.58048781226E+02 -0.50580038969E+01  0.52034825466E+03  0.52360151884E+03  0.10000000000E+01 0.  0.
    9000005    1    3    3    0    0  0.58048781226E+02  0.50580038969E+01  0.11118731399E+04  0.11133993550E+04  0.10000000000E+01 0.  0.
<mgrwt>
<rscale>  0 0.12500072E+03</rscale>
<asrwt>0</asrwt>
<pdfrwt beam="1">  1        4 0.25147836E+00 0.12500072E+03</pdfrwt>
<pdfrwt beam="2">  1       -4 0.36765266E-03 0.12500072E+03</pdfrwt>
<totfact> 0.15386341E+03</totfact>
</mgrwt>
</event>
<event>
 5    1  0.3327068E-002  0.1249948E+03  0.7818608E-02  0.1235077E+00
          4   -1    0    0  501    0  0.00000000000E+00  0.00000000000E+00  0.21673030515E+02  0.21710208467E+02  0.12700000000E+01 0.  1.
         -4   -1    0    0    0  501 -0.00000000000E+00 -0.00000000000E+00 -0.18002668829E+03  0.18003116785E+03  0.12700000000E+01 0.  1.
         25    2    1    2    0    0  0.00000000000E+00  0.00000000000E+00 -0.15835365778E+03  0.20174137632E+03  0.12499480784E+03 0.  0.
    9000005    1    3    3    0    0  0.13161841120E+01 -0.59217040909E+02 -0.11131668224E+03  0.12609835058E+03  0.10000000000E+01 0.  0.
    9000005    1    3    3    0    0 -0.13161841120E+01  0.59217040909E+02 -0.47036975539E+02  0.75643025736E+02  0.10000000000E+01 0.  0.
<mgrwt>
<rscale>  0 0.12499481E+03</rscale>
<asrwt>0</asrwt>
<pdfrwt beam="1">  1        4 0.33375169E-02 0.12499481E+03</pdfrwt>
<pdfrwt beam="2">  1       -4 0.27699617E-01 0.12499481E+03</pdfrwt>
<totfact> 0.89853076E+03</totfact>
</mgrwt>
</event>
<event>
 5    1  0.3327068E-002  0.1250007E+03  0.7818608E-02  0.1235068E+00
         -4   -1    0    0    0  501 -0.00000000000E+00  0.00000000000E+00  0.20724242862E+02  0.20763119761E+02  0.12700000000E+01 0. -1.
          4   -1    0    0  501    0  0.00000000000E+00 -0.00000000000E+00 -0.18827147341E+03  0.18827575681E+03  0.12700000000E+01 0. -1.
         25    2    1    2    0    0  0.00000000000E+00  0.00000000000E+00 -0.16754723055E+03  0.20903887657E+03  0.12500070980E+03 0.  0.
    9000005    1    3    3    0    0  0.36962103578E+02 -0.96461968122E+01 -0.10656980570E+01  0.38228025403E+02  0.10000000000E+01 0.  0.
    9000005    1    3    3    0    0 -0.36962103578E+02  0.96461968122E+01 -0.16648153249E+03  0.17081085116E+03  0.10000000000E+01 0.  0.
<mgrwt>
<rscale>  0 0.12500071E+03</rscale>
<asrwt>0</asrwt>
<pdfrwt beam="2">  1        4 0.28968161E-01 0.12500071E+03</pdfrwt>
<pdfrwt beam="1">  1       -4 0.31916652E-02 0.12500071E+03</pdfrwt>
<totfact> 0.88631680E+03</totfact>
</mgrwt>
</event>
<event>
 5    1  0.3327068E-002  0.1249969E+03  0.7818608E-02  0.1235074E+00
         -4   -1    0    0    0  501 -0.00000000000E+00  0.00000000000E+00  0.40255034348E+02  0.40275062885E+02  0.12700000000E+01 0. -1.
          4   -1    0    0  501    0  0.00000000000E+00 -0.00000000000E+00 -0.96984421966E+02  0.96992736862E+02  0.12700000000E+01 0. -1.
         25    2    1    2    0    0  0.00000000000E+00  0.00000000000E+00 -0.56729387617E+02  0.13726779975E+03  0.12499690167E+03 0.  0.
    9000005    1    3    3    0    0  0.83394247828E+00 -0.61602639072E+02 -0.16874472297E+02  0.63885275424E+02  0.10000000000E+01 0.  0.
    9000005    1    3    3    0    0 -0.83394247828E+00  0.61602639072E+02 -0.39854915320E+02  0.73382524322E+02  0.10000000000E+01 0.  0.
<mgrwt>
<rscale>  0 0.12499690E+03</rscale>
<asrwt>0</asrwt>
<pdfrwt beam="2">  1        4 0.14922860E-01 0.12499690E+03</pdfrwt>
<pdfrwt beam="1">  1       -4 0.61952625E-02 0.12499690E+03</pdfrwt>
<totfact> 0.10191201E+04</totfact>
</mgrwt>
</event>
<event>
 5    1  0.3327068E-002  0.1250021E+03  0.7818608E-02  0.1235066E+00
         -4   -1    0    0    0  501 -0.00000000000E+00  0.00000000000E+00  0.11148381361E+02  0.11220486040E+02  0.12700000000E+01 0.  1.
          4   -1    0    0  501    0  0.00000000000E+00 -0.00000000000E+00 -0.34919629386E+03  0.34919860329E+03  0.12700000000E+01 0.  1.
         25    2    1    2    0    0  0.00000000000E+00  0.00000000000E+00 -0.33804791249E+03  0.36041908933E+03  0.12500211524E+03 0.  0.
    9000005    1    3    3    0    0 -0.44798638569E+02 -0.39668020583E+02 -0.22099644557E+03  0.22895610677E+03  0.10000000000E+01 0.  0.
    9000005    1    3    3    0    0  0.44798638569E+02  0.39668020583E+02 -0.11705146693E+03  0.13146298256E+03  0.10000000000E+01 0.  0.
<mgrwt>
<rscale>  0 0.12500212E+03</rscale>
<asrwt>0</asrwt>
<pdfrwt beam="2">  1        4 0.53728222E-01 0.12500212E+03</pdfrwt>
<pdfrwt beam="1">  1       -4 0.17208600E-02 0.12500212E+03</pdfrwt>
<totfact> 0.68590130E+03</totfact>
</mgrwt>
</event>
<event>
 5    1  0.3327068E-002  0.1249876E+03  0.7818608E-02  0.1235089E+00
          4   -1    0    0  501    0  0.00000000000E+00  0.00000000000E+00  0.16909868786E+02  0.16957492809E+02  0.12700000000E+01 0.  1.
         -4   -1    0    0    0  501 -0.00000000000E+00 -0.00000000000E+00 -0.23058415596E+03  0.23058765335E+03  0.12700000000E+01 0.  1.
         25    2    1    2    0    0  0.00000000000E+00  0.00000000000E+00 -0.21367428717E+03  0.24754514616E+03  0.12498759294E+03 0.  0.
    9000005    1    3    3    0    0  0.56958686220E+02 -0.20427078243E+02 -0.13770571898E+03  0.15041749400E+03  0.10000000000E+01 0.  0.
    9000005    1    3    3    0    0 -0.56958686220E+02  0.20427078243E+02 -0.75968568193E+02  0.97127652163E+02  0.10000000000E+01 0.  0.
<mgrwt>
<rscale>  0 0.12498759E+03</rscale>
<asrwt>0</asrwt>
<pdfrwt beam="1">  1        4 0.26054509E-02 0.12498759E+03</pdfrwt>
<pdfrwt beam="2">  1       -4 0.35478416E-01 0.12498759E+03</pdfrwt>
<totfact> 0.82709193E+03</totfact>
</mgrwt>
</event>
<event>
 5    1  0.3327068E-002  0.1249993E+03  0.7818608E-02  0.1235070E+00
         -4   -1    0    0    0  501 -0.00000000000E+00  0.00000000000E+00  0.13657206956E+03  0.13657797437E+03  0.12700000000E+01 0. -1.
          4   -1    0    0  501    0  0.00000000000E+00 -0.00000000000E+00 -0.28581163911E+02  0.28609366133E+02  0.12700000000E+01 0. -1.
         25    2    1    2    0    0  0.00000000000E+00  0.00000000000E+00  0.10799090565E+03  0.16518734051E+03  0.12499928704E+03 0.  0.
    9000005    1    3    3    0    0  0.85424474104E+01  0.73527882709E+00  0.13579755929E+03  0.13607163977E+03  0.10000000000E+01 0.  0.
    9000005    1    3    3    0    0 -0.85424474104E+01 -0.73527882709E+00 -0.27806653637E+02  0.29115700733E+02  0.10000000000E+01 0.  0.
<mgrwt>
<rscale>  0 0.12499929E+03</rscale>
<asrwt>0</asrwt>
<pdfrwt beam="2">  1        4 0.43997257E-02 0.12499929E+03</pdfrwt>
<pdfrwt beam="1">  1       -4 0.21013711E-01 0.12499929E+03</pdfrwt>
<totfact> 0.96353468E+03</totfact>
</mgrwt>
</event>
<event>
 5    1  0.3327068E-002  0.1250006E+03  0.7818608E-02  0.1235068E+00
         -4   -1    0    0    0  501 -0.00000000000E+00  0.00000000000E+00  0.43859213262E+02  0.43877596652E+02  0.12700000000E+01 0.  1.
          4   -1    0    0  501    0  0.00000000000E+00 -0.00000000000E+00 -0.89022639700E+02  0.89031698171E+02  0.12700000000E+01 0.  1.
         25    2    1    2    0    0  0.00000000000E+00  0.00000000000E+00 -0.45163426438E+02  0.13290929482E+03  0.12500058225E+03 0.  0.
    9000005    1    3    3    0    0 -0.36233749058E+01 -0.36010862087E+02 -0.76749788725E+02  0.84861305100E+02  0.10000000000E+01 0.  0.
    9000005    1    3    3    0    0  0.36233749058E+01  0.36010862087E+02  0.31586362286E+02  0.48047989723E+02  0.10000000000E+01 0.  0.
<mgrwt>
<rscale>  0 0.12500058E+03</rscale>
<asrwt>0</asrwt>
<pdfrwt beam="2">  1        4 0.13697902E-01 0.12500058E+03</pdfrwt>
<pdfrwt beam="1">  1       -4 0.67496822E-02 0.12500058E+03</pdfrwt>
<totfact> 0.10282193E+04</totfact>
</mgrwt>
</event>
<event>
 4    1  0.3327068E-002  0.1247599E+03  0.7818608E-02  0.1235445E+00
         -4   -1    0    0    0  501 -0.00000000000E+00  0.00000000000E+00  0.89206483055E+01  0.90105974380E+01  0.12700000000E+01 0.  1.
          4   -1    0    0  501    0  0.00000000000E+00 -0.00000000000E+00 -0.43392872665E+03  0.43393058513E+03  0.12700000000E+01 0.  1.
    9000005    1    1    2    0    0  0.61654699239E+02  0.19372169764E+01 -0.24527540179E+03  0.25291515865E+03  0.10000000000E+01 0.  0.
    9000005    1    1    2    0    0 -0.61654699239E+02 -0.19372169764E+01 -0.17973267655E+03  0.19002602392E+03  0.10000000000E+01 0.  0.
<mgrwt>
<rscale>  0 0.12475987E+03</rscale>
<asrwt>0</asrwt>
<pdfrwt beam="2">  1        4 0.66765311E-01 0.12475987E+03</pdfrwt>
<pdfrwt beam="1">  1       -4 0.13794699E-02 0.12475987E+03</pdfrwt>
<totfact> 0.60901869E+03</totfact>
</mgrwt>
</event>
<event>
 5    1  0.3327068E-002  0.1250098E+03  0.7818608E-02  0.1235054E+00
         -4   -1    0    0    0  501 -0.00000000000E+00  0.00000000000E+00  0.78928456710E+01  0.79943675663E+01  0.12700000000E+01 0.  1.
          4   -1    0    0  501    0  0.00000000000E+00 -0.00000000000E+00 -0.49172236398E+03  0.49172400403E+03  0.12700000000E+01 0.  1.
         25    2    1    2    0    0  0.00000000000E+00  0.00000000000E+00 -0.48382951831E+03  0.49971837160E+03  0.12500979211E+03 0.  0.
    9000005    1    3    3    0    0  0.45910708019E+02 -0.35569676516E+02 -0.14963834509E+03  0.16051675713E+03  0.10000000000E+01 0.  0.
    9000005    1    3    3    0    0 -0.45910708019E+02  0.35569676516E+02 -0.33419117322E+03  0.33920161447E+03  0.10000000000E+01 0.  0.
<mgrwt>
<rscale>  0 0.12500979E+03</rscale>
<asrwt>0</asrwt>
<pdfrwt beam="2">  1        4 0.75657506E-01 0.12500979E+03</pdfrwt>
<pdfrwt beam="1">  1       -4 0.12222199E-02 0.12500979E+03</pdfrwt>
<totfact> 0.55874203E+03</totfact>
</mgrwt>
</event>
<event>
 5    1  0.3327068E-002  0.1249815E+03  0.7818608E-02  0.1235098E+00
          4   -1    0    0  501    0  0.00000000000E+00  0.00000000000E+00  0.87116049298E+02  0.87125305999E+02  0.12700000000E+01 0. -1.
         -4   -1    0    0    0  501 -0.00000000000E+00 -0.00000000000E+00 -0.44805718138E+02  0.44823713343E+02  0.12700000000E+01 0. -1.
         25    2    1    2    0    0  0.00000000000E+00  0.00000000000E+00  0.42310331160E+02  0.13194901934E+03  0.12498151696E+03 0.  0.
    9000005    1    3    3    0    0 -0.25411783731E+02  0.53451256185E+02  0.42304397825E+02  0.72756151736E+02  0.10000000000E+01 0.  0.
    9000005    1    3    3    0    0  0.25411783731E+02 -0.53451256185E+02  0.59333351484E-02  0.59192867606E+02  0.10000000000E+01 0.  0.
<mgrwt>
<rscale>  0 0.12498152E+03</rscale>
<asrwt>0</asrwt>
<pdfrwt beam="1">  1        4 0.13404565E-01 0.12498152E+03</pdfrwt>
<pdfrwt beam="2">  1       -4 0.68952839E-02 0.12498152E+03</pdfrwt>
<totfact> 0.10307084E+04</totfact>
</mgrwt>
</event>
<event>
 5    1  0.3327068E-002  0.1249991E+03  0.7818608E-02  0.1235071E+00
          4   -1    0    0  501    0  0.00000000000E+00  0.00000000000E+00  0.55096202722E+02  0.55110837903E+02  0.12700000000E+01 0. -1.
         -4   -1    0    0    0  501 -0.00000000000E+00 -0.00000000000E+00 -0.70867985278E+02  0.70879363974E+02  0.12700000000E+01 0. -1.
         25    2    1    2    0    0  0.00000000000E+00  0.00000000000E+00 -0.15771782556E+02  0.12599020188E+03  0.12499912737E+03 0.  0.
    9000005    1    3    3    0    0 -0.48873043447E+02  0.28023504206E+02  0.19371158879E+02  0.59582992205E+02  0.10000000000E+01 0.  0.
    9000005    1    3    3    0    0  0.48873043447E+02 -0.28023504206E+02 -0.35142941434E+02  0.66407209672E+02  0.10000000000E+01 0.  0.
<mgrwt>
<rscale>  0 0.12499913E+03</rscale>
<asrwt>0</asrwt>
<pdfrwt beam="1">  1        4 0.84783399E-02 0.12499913E+03</pdfrwt>
<pdfrwt beam="2">  1       -4 0.10904768E-01 0.12499913E+03</pdfrwt>
<totfact> 0.10431377E+04</totfact>
</mgrwt>
</event>
<event>
 5    1  0.3327068E-002  0.1249989E+03  0.7818608E-02  0.1235071E+00
         -4   -1    0    0    0  501 -0.00000000000E+00  0.00000000000E+00  0.12246185574E+02  0.12311862618E+02  0.12700000000E+01 0.  1.
          4   -1    0    0  501    0  0.00000000000E+00 -0.00000000000E+00 -0.31805104279E+03  0.31805357838E+03  0.12700000000E+01 0.  1.
         25    2    1    2    0    0  0.00000000000E+00  0.00000000000E+00 -0.30580485722E+03  0.33036544100E+03  0.12499885563E+03 0.  0.
    9000005    1    3    3    0    0  0.34805565040E+02  0.43262671398E+02 -0.22868143129E+03  0.23532803299E+03  0.10000000000E+01 0.  0.
    9000005    1    3    3    0    0 -0.34805565040E+02 -0.43262671398E+02 -0.77123425929E+02  0.95037408010E+02  0.10000000000E+01 0.  0.
<mgrwt>
<rscale>  0 0.12499886E+03</rscale>
<asrwt>0</asrwt>
<pdfrwt beam="2">  1        4 0.48936171E-01 0.12499886E+03</pdfrwt>
<pdfrwt beam="1">  1       -4 0.18892759E-02 0.12499886E+03</pdfrwt>
<totfact> 0.71941847E+03</totfact>
</mgrwt>
</event>
<event>
 5    1  0.3327068E-002  0.1249963E+03  0.7818608E-02  0.1235075E+00
          4   -1    0    0  501    0  0.00000000000E+00  0.00000000000E+00  0.15400147520E+02  0.15452425170E+02  0.12700000000E+01 0. -1.
         -4   -1    0    0    0  501 -0.00000000000E+00 -0.00000000000E+00 -0.25315140771E+03  0.25315459333E+03  0.12700000000E+01 0. -1.
         25    2    1    2    0    0  0.00000000000E+00  0.00000000000E+00 -0.23775126019E+03  0.26860701850E+03  0.12499627461E+03 0.  0.
    9000005    1    3    3    0    0 -0.79176160764E+01 -0.61132823598E+02 -0.96844596633E+02  0.11480325197E+03  0.10000000000E+01 0.  0.
    9000005    1    3    3    0    0  0.79176160764E+01  0.61132823598E+02 -0.14090666355E+03  0.15380376653E+03  0.10000000000E+01 0.  0.
<mgrwt>
<rscale>  0 0.12499627E+03</rscale>
<asrwt>0</asrwt>
<pdfrwt beam="1">  1        4 0.23735200E-02 0.12499627E+03</pdfrwt>
<pdfrwt beam="2">  1       -4 0.38950634E-01 0.12499627E+03</pdfrwt>
<totfact> 0.79719766E+03</totfact>
</mgrwt>
</event>
<event>
 5    1  0.3327068E-002  0.1249984E+03  0.7818608E-02  0.1235072E+00
         -4   -1    0    0    0  501 -0.00000000000E+00  0.00000000000E+00  0.21312606309E+02  0.21350411885E+02  0.12700000000E+01 0. -1.
          4   -1    0    0  501    0  0.00000000000E+00 -0.00000000000E+00 -0.18307650062E+03  0.18308090555E+03  0.12700000000E+01 0. -1.
         25    2    1    2    0    0  0.00000000000E+00  0.00000000000E+00 -0.16176389431E+03  0.20443131744E+03  0.12499842418E+03 0.  0.
    9000005    1    3    3    0    0  0.54205749256E+02  0.27786540400E+02 -0.58055759225E+02  0.84153587321E+02  0.10000000000E+01 0.  0.
    9000005    1    3    3    0    0 -0.54205749256E+02 -0.27786540400E+02 -0.10370813508E+03  0.12027773012E+03  0.10000000000E+01 0.  0.
<mgrwt>
<rscale>  0 0.12499842E+03</rscale>
<asrwt>0</asrwt>
<pdfrwt beam="2">  1        4 0.28168861E-01 0.12499842E+03</pdfrwt>
<pdfrwt beam="1">  1       -4 0.32821096E-02 0.12499842E+03</pdfrwt>
<totfact> 0.89396624E+03</totfact>
</mgrwt>
</event>
<event>
 5    1  0.3327068E-002  0.1249528E+03  0.7818608E-02  0.1235143E+00
         -4   -1    0    0    0  501 -0.00000000000E+00  0.00000000000E+00  0.18175991880E+02  0.18220306826E+02  0.12700000000E+01 0.  1.
          4   -1    0    0  501    0  0.00000000000E+00 -0.00000000000E+00 -0.21444261659E+03  0.21444637723E+03  0.12700000000E+01 0.  1.
         25    2    1    2    0    0  0.00000000000E+00  0.00000000000E+00 -0.19626662471E+03  0.23266668406E+03  0.12495278267E+03 0.  0.
    9000005    1    3    3    0    0 -0.53500952746E+02 -0.28833479596E+02 -0.12502527510E+03  0.13901813156E+03  0.10000000000E+01 0.  0.
    9000005    1    3    3    0    0  0.53500952746E+02  0.28833479596E+02 -0.71241349610E+02  0.93648552496E+02  0.10000000000E+01 0.  0.
<mgrwt>
<rscale>  0 0.12495278E+03</rscale>
<asrwt>0</asrwt>
<pdfrwt beam="2">  1        4 0.32994868E-01 0.12495278E+03</pdfrwt>
<pdfrwt beam="1">  1       -4 0.28000047E-02 0.12495278E+03</pdfrwt>
<totfact> 0.84991287E+03</totfact>
</mgrwt>
</event>
<event>
 5    1  0.3327068E-002  0.1249995E+03  0.7818608E-02  0.1235070E+00
         -4   -1    0    0    0  501 -0.00000000000E+00  0.00000000000E+00  0.14064443170E+03  0.14065016555E+03  0.12700000000E+01 0. -1.
          4   -1    0    0  501    0  0.00000000000E+00 -0.00000000000E+00 -0.27752883297E+02  0.27781926343E+02  0.12700000000E+01 0. -1.
         25    2    1    2    0    0  0.00000000000E+00  0.00000000000E+00  0.11289154840E+03  0.16843209189E+03  0.12499947151E+03 0.  0.
    9000005    1    3    3    0    0 -0.22114380276E+02  0.56693406030E+02  0.37293366420E+02  0.71379151587E+02  0.10000000000E+01 0.  0.
    9000005    1    3    3    0    0  0.22114380276E+02 -0.56693406030E+02  0.75598181984E+02  0.97052940304E+02  0.10000000000E+01 0.  0.
<mgrwt>
<rscale>  0 0.12499947E+03</rscale>
<asrwt>0</asrwt>
<pdfrwt beam="2">  1        4 0.42723494E-02 0.12499947E+03</pdfrwt>
<pdfrwt beam="1">  1       -4 0.21640280E-01 0.12499947E+03</pdfrwt>
<totfact> 0.95742464E+03</totfact>
</mgrwt>
</event>
<event>
 5    1  0.3327068E-002  0.1250012E+03  0.7818608E-02  0.1235067E+00
          4   -1    0    0  501    0  0.00000000000E+00  0.00000000000E+00  0.66260666049E+02  0.66272835802E+02  0.12700000000E+01 0.  1.
         -4   -1    0    0    0  501 -0.00000000000E+00 -0.00000000000E+00 -0.58929513286E+02  0.58943196691E+02  0.12700000000E+01 0.  1.
         25    2    1    2    0    0  0.00000000000E+00  0.00000000000E+00  0.73311527627E+01  0.12521603249E+03  0.12500123596E+03 0.  0.
    9000005    1    3    3    0    0  0.19597627874E+02  0.59278036115E+02  0.94527666897E+00  0.62448748041E+02  0.10000000000E+01 0.  0.
    9000005    1    3    3    0    0 -0.19597627874E+02 -0.59278036115E+02  0.63858760937E+01  0.62767284452E+02  0.10000000000E+01 0.  0.
<mgrwt>
<rscale>  0 0.12500124E+03</rscale>
<asrwt>0</asrwt>
<pdfrwt beam="1">  1        4 0.10195937E-01 0.12500124E+03</pdfrwt>
<pdfrwt beam="2">  1       -4 0.90680677E-02 0.12500124E+03</pdfrwt>
<totfact> 0.10447880E+04</totfact>
</mgrwt>
</event>
<event>
 5    1  0.3327068E-002  0.1250070E+03  0.7818608E-02  0.1235058E+00
          4   -1    0    0  501    0  0.00000000000E+00  0.00000000000E+00  0.46293539659E+02  0.46310956740E+02  0.12700000000E+01 0.  1.
         -4   -1    0    0    0  501 -0.00000000000E+00 -0.00000000000E+00 -0.84351343764E+02  0.84360903829E+02  0.12700000000E+01 0.  1.
         25    2    1    2    0    0  0.00000000000E+00  0.00000000000E+00 -0.38057804105E+02  0.13067186057E+03  0.12500695457E+03 0.  0.
    9000005    1    3    3    0    0  0.12764700279E+02 -0.13329199440E+02 -0.81442973224E+02  0.83513849262E+02  0.10000000000E+01 0.  0.
    9000005    1    3    3    0    0 -0.12764700279E+02  0.13329199440E+02  0.43385169119E+02  0.47158011307E+02  0.10000000000E+01 0.  0.
<mgrwt>
<rscale>  0 0.12500695E+03</rscale>
<asrwt>0</asrwt>
<pdfrwt beam="1">  1        4 0.71241582E-02 0.12500695E+03</pdfrwt>
<pdfrwt beam="2">  1       -4 0.12979205E-01 0.12500695E+03</pdfrwt>
<totfact> 0.10328508E+04</totfact>
</mgrwt>
</event>
<event>
 5    1  0.3327068E-002  0.1249931E+03  0.7818608E-02  0.1235080E+00
          4   -1    0    0  501    0  0.00000000000E+00  0.00000000000E+00  0.95056355209E+02  0.95064838745E+02  0.12700000000E+01 0.  1.
         -4   -1    0    0    0  501 -0.00000000000E+00 -0.00000000000E+00 -0.41069403533E+02  0.41089035113E+02  0.12700000000E+01 0.  1.
         25    2    1    2    0    0  0.00000000000E+00  0.00000000000E+00  0.53986951676E+02  0.13615387386E+03  0.12499314547E+03 0.  0.
    9000005    1    3    3    0    0  0.31937824436E+02 -0.48842002756E+02  0.26543296672E+01  0.58426118551E+02  0.10000000000E+01 0.  0.
    9000005    1    3    3    0    0 -0.31937824436E+02  0.48842002756E+02  0.51332622009E+02  0.77727755308E+02  0.10000000000E+01 0.  0.
<mgrwt>
<rscale>  0 0.12499315E+03</rscale>
<asrwt>0</asrwt>
<pdfrwt beam="1">  1        4 0.14626217E-01 0.12499315E+03</pdfrwt>
<pdfrwt beam="2">  1       -4 0.63205326E-02 0.12499315E+03</pdfrwt>
<totfact> 0.10215386E+04</totfact>
</mgrwt>
</event>
<event>
 5    1  0.3327068E-002  0.1250057E+03  0.7818608E-02  0.1235060E+00
          4   -1    0    0  501    0  0.00000000000E+00  0.00000000000E+00  0.52891163591E+02  0.52906408743E+02  0.12700000000E+01 0.  1.
         -4   -1    0    0    0  501 -0.00000000000E+00 -0.00000000000E+00 -0.73829903479E+02  0.73840825752E+02  0.12700000000E+01 0.  1.
         25    2    1    2    0    0  0.00000000000E+00  0.00000000000E+00 -0.20938739888E+02  0.12674723449E+03  0.12500572236E+03 0.  0.
    9000005    1    3    3    0    0 -0.52867336197E+02  0.17651473676E+01 -0.44212677950E+02  0.68948037487E+02  0.10000000000E+01 0.  0.
    9000005    1    3    3    0    0  0.52867336197E+02 -0.17651473676E+01  0.23273938062E+02  0.57799197008E+02  0.10000000000E+01 0.  0.
<mgrwt>
<rscale>  0 0.12500572E+03</rscale>
<asrwt>0</asrwt>
<pdfrwt beam="1">  1        4 0.81391149E-02 0.12500572E+03</pdfrwt>
<pdfrwt beam="2">  1       -4 0.11360460E-01 0.12500572E+03</pdfrwt>
<totfact> 0.10413297E+04</totfact>
</mgrwt>
</event>
<event>
 5    1  0.3327068E-002  0.1249808E+03  0.7818608E-02  0.1235099E+00
          4   -1    0    0  501    0  0.00000000000E+00  0.00000000000E+00  0.10093239853E+03  0.10094038822E+03  0.12700000000E+01 0.  1.
         -4   -1    0    0    0  501 -0.00000000000E+00 -0.00000000000E+00 -0.38669818794E+02  0.38690667938E+02  0.12700000000E+01 0.  1.
         25    2    1    2    0    0  0.00000000000E+00  0.00000000000E+00  0.62262579739E+02  0.13963105616E+03  0.12498081056E+03 0.  0.
    9000005    1    3    3    0    0  0.17731014592E+02 -0.56915895765E+02  0.52039806445E+02  0.79138799106E+02  0.10000000000E+01 0.  0.
    9000005    1    3    3    0    0 -0.17731014592E+02  0.56915895765E+02  0.10222773294E+02  0.60492257050E+02  0.10000000000E+01 0.  0.
<mgrwt>
<rscale>  0 0.12498081E+03</rscale>
<asrwt>0</asrwt>
<pdfrwt beam="1">  1        4 0.15530280E-01 0.12498081E+03</pdfrwt>
<pdfrwt beam="2">  1       -4 0.59514213E-02 0.12498081E+03</pdfrwt>
<totfact> 0.10145624E+04</totfact>
</mgrwt>
</event>
<event>
 5    1  0.3327068E-002  0.1249990E+03  0.7818608E-02  0.1235071E+00
          4   -1    0    0  501    0  0.00000000000E+00  0.00000000000E+00  0.40169618354E+02  0.40189689458E+02  0.12700000000E+01 0.  1.
         -4   -1    0    0    0  501 -0.00000000000E+00 -0.00000000000E+00 -0.97193837804E+02  0.97202134787E+02  0.12700000000E+01 0.  1.
         25    2    1    2    0    0  0.00000000000E+00  0.00000000000E+00 -0.57024219450E+02  0.13739182424E+03  0.12499900706E+03 0.  0.
    9000005    1    3    3    0    0  0.27412415030E+01  0.86974897190E+01  0.39439729182E+02  0.40492628593E+02  0.10000000000E+01 0.  0.
    9000005    1    3    3    0    0 -0.27412415030E+01 -0.86974897190E+01 -0.96463948632E+02  0.96899195652E+02  0.10000000000E+01 0.  0.
<mgrwt>
<rscale>  0 0.12499901E+03</rscale>
<asrwt>0</asrwt>
<pdfrwt beam="1">  1        4 0.61821235E-02 0.12499901E+03</pdfrwt>
<pdfrwt beam="2">  1       -4 0.14955080E-01 0.12499901E+03</pdfrwt>
<totfact> 0.10188128E+04</totfact>
</mgrwt>
</event>
<event>
 5    1  0.3327068E-002  0.1250266E+03  0.7818608E-02  0.1235028E+00
          4   -1    0    0  501    0  0.00000000000E+00  0.00000000000E+00  0.81599452793E+02  0.81609335227E+02  0.12700000000E+01 0. -1.
         -4   -1    0    0    0  501 -0.00000000000E+00 -0.00000000000E+00 -0.47870216354E+02  0.47887059982E+02  0.12700000000E+01 0. -1.
         25    2    1    2    0    0  0.00000000000E+00  0.00000000000E+00  0.33729236440E+02  0.12949639521E+03  0.12502661709E+03 0.  0.
    9000005    1    3    3    0    0 -0.51884764259E+02 -0.48233404386E+01 -0.18889342448E+02  0.55435553874E+02  0.10000000000E+01 0.  0.
    9000005    1    3    3    0    0  0.51884764259E+02  0.48233404386E+01  0.52618578887E+02  0.74060841335E+02  0.10000000000E+01 0.  0.
<mgrwt>
<rscale>  0 0.12502662E+03</rscale>
<asrwt>0</asrwt>
<pdfrwt beam="1">  1        4 0.12555818E-01 0.12502662E+03</pdfrwt>
<pdfrwt beam="2">  1       -4 0.73667046E-02 0.12502662E+03</pdfrwt>
<totfact> 0.10349073E+04</totfact>
</mgrwt>
</event>
<event>
 5    1  0.3327068E-002  0.1250029E+03  0.7818608E-02  0.1235065E+00
          4   -1    0    0  501    0  0.00000000000E+00  0.00000000000E+00  0.61924086985E+02  0.61937108819E+02  0.12700000000E+01 0. -1.
         -4   -1    0    0    0  501 -0.00000000000E+00 -0.00000000000E+00 -0.63058138085E+02  0.63070925780E+02  0.12700000000E+01 0. -1.
         25    2    1    2    0    0  0.00000000000E+00  0.00000000000E+00 -0.11340511003E+01  0.12500803460E+03  0.12500289054E+03 0.  0.
    9000005    1    3    3    0    0  0.49022502669E+02  0.13530211602E+02 -0.36888738612E+02  0.62833521550E+02  0.10000000000E+01 0.  0.
    9000005    1    3    3    0    0 -0.49022502669E+02 -0.13530211602E+02  0.35754687511E+02  0.62174513050E+02  0.10000000000E+01 0.  0.
<mgrwt>
<rscale>  0 0.12500289E+03</rscale>
<asrwt>0</asrwt>
<pdfrwt beam="1">  1        4 0.95287679E-02 0.12500289E+03</pdfrwt>
<pdfrwt beam="2">  1       -4 0.97032374E-02 0.12500289E+03</pdfrwt>
<totfact> 0.10452005E+04</totfact>
</mgrwt>
</event>
<event>
 5    1  0.3327068E-002  0.1249990E+03  0.7818608E-02  0.1235071E+00
          4   -1    0    0  501    0  0.00000000000E+00  0.00000000000E+00  0.93532041866E+01  0.94390321832E+01  0.12700000000E+01 0. -1.
         -4   -1    0    0    0  501 -0.00000000000E+00 -0.00000000000E+00 -0.41563688451E+03  0.41563882478E+03  0.12700000000E+01 0. -1.
         25    2    1    2    0    0  0.00000000000E+00  0.00000000000E+00 -0.40628368033E+03  0.42507785697E+03  0.12499902233E+03 0.  0.
    9000005    1    3    3    0    0  0.10150629732E+02 -0.11861567273E+02  0.26313664829E+01  0.15863673966E+02  0.10000000000E+01 0.  0.
    9000005    1    3    3    0    0 -0.10150629732E+02  0.11861567273E+02 -0.40891504681E+03  0.40921418300E+03  0.10000000000E+01 0.  0.
<mgrwt>
<rscale>  0 0.12499902E+03</rscale>
<asrwt>0</asrwt>
<pdfrwt beam="1">  1        4 0.14457062E-02 0.12499902E+03</pdfrwt>
<pdfrwt beam="2">  1       -4 0.63950873E-01 0.12499902E+03</pdfrwt>
<totfact> 0.62186049E+03</totfact>
</mgrwt>
</event>
<event>
 5    1  0.3327068E-002  0.1249571E+03  0.7818608E-02  0.1235136E+00
         -4   -1    0    0    0  501 -0.00000000000E+00  0.00000000000E+00  0.16618805440E+02  0.16667261150E+02  0.12700000000E+01 0.  1.
          4   -1    0    0  501    0  0.00000000000E+00 -0.00000000000E+00 -0.23449660846E+03  0.23450004751E+03  0.12700000000E+01 0.  1.
         25    2    1    2    0    0  0.00000000000E+00  0.00000000000E+00 -0.21787780302E+03  0.25116730866E+03  0.12495711219E+03 0.  0.
    9000005    1    3    3    0    0 -0.50884513443E+02 -0.36223068375E+02 -0.11116412261E+03  0.12751394647E+03  0.10000000000E+01 0.  0.
    9000005    1    3    3    0    0  0.50884513443E+02  0.36223068375E+02 -0.10671368042E+03  0.12365336218E+03  0.10000000000E+01 0.  0.
<mgrwt>
<rscale>  0 0.12495711E+03</rscale>
<asrwt>0</asrwt>
<pdfrwt beam="2">  1        4 0.36080391E-01 0.12495711E+03</pdfrwt>
<pdfrwt beam="1">  1       -4 0.25607314E-02 0.12495711E+03</pdfrwt>
<totfact> 0.82240348E+03</totfact>
</mgrwt>
</event>
<event>
 5    1  0.3327068E-002  0.1250055E+03  0.7818608E-02  0.1235061E+00
         -4   -1    0    0    0  501 -0.00000000000E+00  0.00000000000E+00  0.84043437154E+02  0.84053032240E+02  0.12700000000E+01 0.  1.
          4   -1    0    0  501    0  0.00000000000E+00 -0.00000000000E+00 -0.46462130587E+02  0.46479484493E+02  0.12700000000E+01 0.  1.
         25    2    1    2    0    0  0.00000000000E+00  0.00000000000E+00  0.37581306567E+02  0.13053251673E+03  0.12500553316E+03 0.  0.
    9000005    1    3    3    0    0 -0.53363425041E+02  0.30651079178E+01  0.52603612421E+02  0.75001267045E+02  0.10000000000E+01 0.  0.
    9000005    1    3    3    0    0  0.53363425041E+02 -0.30651079178E+01 -0.15022305854E+02  0.55531249687E+02  0.10000000000E+01 0.  0.
<mgrwt>
<rscale>  0 0.12500553E+03</rscale>
<asrwt>0</asrwt>
<pdfrwt beam="2">  1        4 0.71500930E-02 0.12500553E+03</pdfrwt>
<pdfrwt beam="1">  1       -4 0.12931833E-01 0.12500553E+03</pdfrwt>
<totfact> 0.10331832E+04</totfact>
</mgrwt>
</event>
<event>
 5    1  0.3327068E-002  0.1250065E+03  0.7818608E-02  0.1235059E+00
         -4   -1    0    0    0  501 -0.00000000000E+00  0.00000000000E+00  0.16357132809E+02  0.16406361380E+02  0.12700000000E+01 0.  1.
          4   -1    0    0  501    0  0.00000000000E+00 -0.00000000000E+00 -0.23842536026E+03  0.23842874263E+03  0.12700000000E+01 0.  1.
         25    2    1    2    0    0  0.00000000000E+00  0.00000000000E+00 -0.22206822745E+03  0.25483510401E+03  0.12500653021E+03 0.  0.
    9000005    1    3    3    0    0 -0.39364256438E+02 -0.43395433473E+02 -0.15536782444E+03  0.16605080308E+03  0.10000000000E+01 0.  0.
    9000005    1    3    3    0    0  0.39364256438E+02  0.43395433473E+02 -0.66700403007E+02  0.88784300935E+02  0.10000000000E+01 0.  0.
<mgrwt>
<rscale>  0 0.12500653E+03</rscale>
<asrwt>0</asrwt>
<pdfrwt beam="2">  1        4 0.36684869E-01 0.12500653E+03</pdfrwt>
<pdfrwt beam="1">  1       -4 0.25205291E-02 0.12500653E+03</pdfrwt>
<totfact> 0.81624520E+03</totfact>
</mgrwt>
</event>
<event>
 5    1  0.3327068E-002  0.1250052E+03  0.7818608E-02  0.1235061E+00
         -4   -1    0    0    0  501 -0.00000000000E+00  0.00000000000E+00  0.34580923563E+03  0.34581156769E+03  0.12700000000E+01 0.  1.
          4   -1    0    0  501    0  0.00000000000E+00 -0.00000000000E+00 -0.11258836513E+02  0.11330238287E+02  0.12700000000E+01 0.  1.
         25    2    1    2    0    0  0.00000000000E+00  0.00000000000E+00  0.33455039912E+03  0.35714180598E+03  0.12500520000E+03 0.  0.
    9000005    1    3    3    0    0 -0.21175669168E+02 -0.29877347608E+02  0.22593093615E+02  0.43040826478E+02  0.10000000000E+01 0.  0.
    9000005    1    3    3    0    0  0.21175669168E+02  0.29877347608E+02  0.31195730551E+03  0.31410097950E+03  0.10000000000E+01 0.  0.
<mgrwt>
<rscale>  0 0.12500520E+03</rscale>
<asrwt>0</asrwt>
<pdfrwt beam="2">  1        4 0.17378007E-02 0.12500520E+03</pdfrwt>
<pdfrwt beam="1">  1       -4 0.53207088E-01 0.12500520E+03</pdfrwt>
<totfact> 0.68938022E+03</totfact>
</mgrwt>
</event>
<event>
 5    1  0.3327068E-002  0.1249992E+03  0.7818608E-02  0.1235071E+00
         -4   -1    0    0    0  501 -0.00000000000E+00  0.00000000000E+00  0.21999886301E+03  0.22000252868E+03  0.12700000000E+01 0. -1.
          4   -1    0    0  501    0  0.00000000000E+00 -0.00000000000E+00 -0.17729009028E+02  0.17774438419E+02  0.12700000000E+01 0. -1.
         25    2    1    2    0    0  0.00000000000E+00  0.00000000000E+00  0.20226985398E+03  0.23777696710E+03  0.12499916901E+03 0.  0.
    9000005    1    3    3    0    0 -0.29572993971E+02  0.58824473890E+01  0.20525535548E+03  0.20746066160E+03  0.10000000000E+01 0.  0.
    9000005    1    3    3    0    0  0.29572993971E+02 -0.58824473890E+01 -0.29855014977E+01  0.30316305496E+02  0.10000000000E+01 0.  0.
<mgrwt>
<rscale>  0 0.12499917E+03</rscale>
<asrwt>0</asrwt>
<pdfrwt beam="2">  1        4 0.27313164E-02 0.12499917E+03</pdfrwt>
<pdfrwt beam="1">  1       -4 0.33849756E-01 0.12499917E+03</pdfrwt>
<totfact> 0.84131124E+03</totfact>
</mgrwt>
</event>
<event>
 5    1  0.3327068E-002  0.1249959E+03  0.7818608E-02  0.1235076E+00
          4   -1    0    0  501    0  0.00000000000E+00  0.00000000000E+00  0.10792896084E+02  0.10867359655E+02  0.12700000000E+01 0.  1.
         -4   -1    0    0    0  501 -0.00000000000E+00 -0.00000000000E+00 -0.36058412498E+03  0.36058636148E+03  0.12700000000E+01 0.  1.
         25    2    1    2    0    0  0.00000000000E+00  0.00000000000E+00 -0.34979122889E+03  0.37145372114E+03  0.12499585247E+03 0.  0.
    9000005    1    3    3    0    0 -0.17790436765E+02  0.80984918183E+01  0.14885580509E+01  0.19629085946E+02  0.10000000000E+01 0.  0.
    9000005    1    3    3    0    0  0.17790436765E+02 -0.80984918183E+01 -0.35127978694E+03  0.35182463519E+03  0.10000000000E+01 0.  0.
<mgrwt>
<rscale>  0 0.12499585E+03</rscale>
<asrwt>0</asrwt>
<pdfrwt beam="1">  1        4 0.16663458E-02 0.12499585E+03</pdfrwt>
<pdfrwt beam="2">  1       -4 0.55480372E-01 0.12499585E+03</pdfrwt>
<totfact> 0.67433311E+03</totfact>
</mgrwt>
</event>
<event>
 5    1  0.3327068E-002  0.1250005E+03  0.7818608E-02  0.1235069E+00
         -4   -1    0    0    0  501 -0.00000000000E+00  0.00000000000E+00  0.10990160262E+03  0.10990894031E+03  0.12700000000E+01 0. -1.
          4   -1    0    0  501    0  0.00000000000E+00 -0.00000000000E+00 -0.35523565763E+02  0.35546260345E+02  0.12700000000E+01 0. -1.
         25    2    1    2    0    0  0.00000000000E+00  0.00000000000E+00  0.74378036860E+02  0.14545520065E+03  0.12500049211E+03 0.  0.
    9000005    1    3    3    0    0 -0.40583921914E+02 -0.33341747027E+02 -0.22126649984E+01  0.52579679527E+02  0.10000000000E+01 0.  0.
    9000005    1    3    3    0    0  0.40583921914E+02  0.33341747027E+02  0.76590701858E+02  0.92875521123E+02  0.10000000000E+01 0.  0.
<mgrwt>
<rscale>  0 0.12500049E+03</rscale>
<asrwt>0</asrwt>
<pdfrwt beam="2">  1        4 0.54674742E-02 0.12500049E+03</pdfrwt>
<pdfrwt beam="1">  1       -4 0.16910249E-01 0.12500049E+03</pdfrwt>
<totfact> 0.10021637E+04</totfact>
</mgrwt>
</event>
<event>
 5    1  0.3327068E-002  0.1250017E+03  0.7818608E-02  0.1235067E+00
         -4   -1    0    0    0  501 -0.00000000000E+00  0.00000000000E+00  0.80590240120E+02  0.80600246294E+02  0.12700000000E+01 0.  1.
          4   -1    0    0  501    0  0.00000000000E+00 -0.00000000000E+00 -0.48450458033E+02  0.48467100012E+02  0.12700000000E+01 0.  1.
         25    2    1    2    0    0  0.00000000000E+00  0.00000000000E+00  0.32139782087E+02  0.12906734631E+03  0.12500165715E+03 0.  0.
    9000005    1    3    3    0    0 -0.54064963065E+02 -0.29731900417E+02  0.26309470904E+02  0.67083488228E+02  0.10000000000E+01 0.  0.
    9000005    1    3    3    0    0  0.54064963065E+02  0.29731900417E+02  0.58303111831E+01  0.61983858077E+02  0.10000000000E+01 0.  0.
<mgrwt>
<rscale>  0 0.12500166E+03</rscale>
<asrwt>0</asrwt>
<pdfrwt beam="2">  1        4 0.74559665E-02 0.12500166E+03</pdfrwt>
<pdfrwt beam="1">  1       -4 0.12400548E-01 0.12500166E+03</pdfrwt>
<totfact> 0.10364112E+04</totfact>
</mgrwt>
</event>
<event>
 5    1  0.3327068E-002  0.1249780E+03  0.7818608E-02  0.1235104E+00
          4   -1    0    0  501    0  0.00000000000E+00  0.00000000000E+00  0.25860172010E+02  0.25891338251E+02  0.12700000000E+01 0. -1.
         -4   -1    0    0    0  501 -0.00000000000E+00 -0.00000000000E+00 -0.15087470306E+03  0.15088004813E+03  0.12700000000E+01 0. -1.
         25    2    1    2    0    0  0.00000000000E+00  0.00000000000E+00 -0.12501453105E+03  0.17677138638E+03  0.12497795833E+03 0.  0.
    9000005    1    3    3    0    0  0.13837243535E+02  0.12239052398E+02 -0.14693062125E+03  0.14809075316E+03  0.10000000000E+01 0.  0.
    9000005    1    3    3    0    0 -0.13837243535E+02 -0.12239052398E+02  0.21916090197E+02  0.28680633218E+02  0.10000000000E+01 0.  0.
<mgrwt>
<rscale>  0 0.12497796E+03</rscale>
<asrwt>0</asrwt>
<pdfrwt beam="1">  1        4 0.39812966E-02 0.12497796E+03</pdfrwt>
<pdfrwt beam="2">  1       -4 0.23214301E-01 0.12497796E+03</pdfrwt>
<totfact> 0.94248000E+03</totfact>
</mgrwt>
</event>
<event>
 5    1  0.3327068E-002  0.1249957E+03  0.7818608E-02  0.1235076E+00
         -4   -1    0    0    0  501 -0.00000000000E+00  0.00000000000E+00  0.28732598526E+03  0.28732879199E+03  0.12700000000E+01 0.  1.
          4   -1    0    0  501    0  0.00000000000E+00 -0.00000000000E+00 -0.13561699102E+02  0.13621034561E+02  0.12700000000E+01 0.  1.
         25    2    1    2    0    0  0.00000000000E+00  0.00000000000E+00  0.27376428616E+03  0.30094982655E+03  0.12499565482E+03 0.  0.
    9000005    1    3    3    0    0 -0.45642579921E+02 -0.36822941703E+02  0.18884594577E+03  0.19774469745E+03  0.10000000000E+01 0.  0.
    9000005    1    3    3    0    0  0.45642579921E+02  0.36822941703E+02  0.84918340392E+02  0.10320512910E+03  0.10000000000E+01 0.  0.
<mgrwt>
<rscale>  0 0.12499565E+03</rscale>
<asrwt>0</asrwt>
<pdfrwt beam="2">  1        4 0.20911955E-02 0.12499565E+03</pdfrwt>
<pdfrwt beam="1">  1       -4 0.44208776E-01 0.12499565E+03</pdfrwt>
<totfact> 0.75487129E+03</totfact>
</mgrwt>
</event>
<event>
 5    1  0.3327068E-002  0.1250004E+03  0.7818608E-02  0.1235069E+00
         -4   -1    0    0    0  501 -0.00000000000E+00  0.00000000000E+00  0.16637527883E+04  0.16637532730E+04  0.12700000000E+01 0.  1.
          4   -1    0    0  501    0  0.00000000000E+00 -0.00000000000E+00 -0.21756074405E+01  0.25191601250E+01  0.12700000000E+01 0.  1.
         25    2    1    2    0    0  0.00000000000E+00  0.00000000000E+00  0.16615771809E+04  0.16662724331E+04  0.12500037399E+03 0.  0.
    9000005    1    3    3    0    0 -0.15338421326E+02  0.98214152007E+01  0.33924262176E+02  0.38517306882E+02  0.10000000000E+01 0.  0.
    9000005    1    3    3    0    0  0.15338421326E+02 -0.98214152007E+01  0.16276529187E+04  0.16277551263E+04  0.10000000000E+01 0.  0.
<mgrwt>
<rscale>  0 0.12500037E+03</rscale>
<asrwt>0</asrwt>
<pdfrwt beam="2">  1        4 0.36117312E-03 0.12500037E+03</pdfrwt>
<pdfrwt beam="1">  1       -4 0.25598852E+00 0.12500037E+03</pdfrwt>
<totfact> 0.14878323E+03</totfact>
</mgrwt>
</event>
<event>
 5    1  0.3327068E-002  0.1249971E+03  0.7818608E-02  0.1235074E+00
          4   -1    0    0  501    0  0.00000000000E+00  0.00000000000E+00  0.29772963003E+03  0.29773233869E+03  0.12700000000E+01 0. -1.
         -4   -1    0    0    0  501 -0.00000000000E+00 -0.00000000000E+00 -0.13085997125E+02  0.13147479635E+02  0.12700000000E+01 0. -1.
         25    2    1    2    0    0  0.00000000000E+00  0.00000000000E+00  0.28464363291E+03  0.31087981832E+03  0.12499705470E+03 0.  0.
    9000005    1    3    3    0    0  0.27052398123E+02 -0.48830958949E+01  0.27473725316E+01  0.27644618383E+02  0.10000000000E+01 0.  0.
    9000005    1    3    3    0    0 -0.27052398123E+02  0.48830958949E+01  0.28189626038E+03  0.28323519994E+03  0.10000000000E+01 0.  0.
<mgrwt>
<rscale>  0 0.12499705E+03</rscale>
<asrwt>0</asrwt>
<pdfrwt beam="1">  1        4 0.45809495E-01 0.12499705E+03</pdfrwt>
<pdfrwt beam="2">  1       -4 0.20181681E-02 0.12499705E+03</pdfrwt>
<totfact> 0.74258902E+03</totfact>
</mgrwt>
</event>
<event>
 5    1  0.3327068E-002  0.1250048E+03  0.7818608E-02  0.1235062E+00
         -4   -1    0    0    0  501 -0.00000000000E+00  0.00000000000E+00  0.71581660062E+01  0.72699546472E+01  0.12700000000E+01 0. -1.
          4   -1    0    0  501    0  0.00000000000E+00 -0.00000000000E+00 -0.54140668309E+03  0.54140817263E+03  0.12700000000E+01 0. -1.
         25    2    1    2    0    0  0.00000000000E+00  0.00000000000E+00 -0.53424851708E+03  0.54867812728E+03  0.12500483731E+03 0.  0.
    9000005    1    3    3    0    0  0.21938498785E+02 -0.54831298259E+02 -0.35683953239E+03  0.36169492791E+03  0.10000000000E+01 0.  0.
    9000005    1    3    3    0    0 -0.21938498785E+02  0.54831298259E+02 -0.17740898469E+03  0.18698319937E+03  0.10000000000E+01 0.  0.
<mgrwt>
<rscale>  0 0.12500484E+03</rscale>
<asrwt>0</asrwt>
<pdfrwt beam="2">  1        4 0.83302018E-01 0.12500484E+03</pdfrwt>
<pdfrwt beam="1">  1       -4 0.11099704E-02 0.12500484E+03</pdfrwt>
<totfact> 0.52270650E+03</totfact>
</mgrwt>
</event>
<event>
 5    1  0.3327068E-002  0.1249981E+03  0.7818608E-02  0.1235072E+00
         -4   -1    0    0    0  501 -0.00000000000E+00  0.00000000000E+00  0.16319449208E+03  0.16319943366E+03  0.12700000000E+01 0. -1.
          4   -1    0    0  501    0  0.00000000000E+00 -0.00000000000E+00 -0.23913281105E+02  0.23946981296E+02  0.12700000000E+01 0. -1.
         25    2    1    2    0    0  0.00000000000E+00  0.00000000000E+00  0.13928121098E+03  0.18714641495E+03  0.12499809958E+03 0.  0.
    9000005    1    3    3    0    0 -0.10841290878E+01 -0.59752181276E+02  0.96987777408E+02  0.11392597364E+03  0.10000000000E+01 0.  0.
    9000005    1    3    3    0    0  0.10841290878E+01  0.59752181276E+02  0.42293433570E+02  0.73220441315E+02  0.10000000000E+01 0.  0.
<mgrwt>
<rscale>  0 0.12499810E+03</rscale>
<asrwt>0</asrwt>
<pdfrwt beam="2">  1        4 0.36819385E-02 0.12499810E+03</pdfrwt>
<pdfrwt beam="1">  1       -4 0.25109819E-01 0.12499810E+03</pdfrwt>
<totfact> 0.92350143E+03</totfact>
</mgrwt>
</event>
<event>
 5    1  0.3327068E-002  0.1249988E+03  0.7818608E-02  0.1235071E+00
         -4   -1    0    0    0  501 -0.00000000000E+00  0.00000000000E+00  0.81316348916E+03  0.81316448091E+03  0.12700000000E+01 0.  1.
          4   -1    0    0  501    0  0.00000000000E+00 -0.00000000000E+00 -0.47187205794E+01  0.48866372801E+01  0.12700000000E+01 0.  1.
         25    2    1    2    0    0  0.00000000000E+00  0.00000000000E+00  0.80844476858E+03  0.81805111819E+03  0.12499875246E+03 0.  0.
    9000005    1    3    3    0    0 -0.60508095664E+02 -0.14899360017E+02  0.43488480662E+03  0.43932791352E+03  0.10000000000E+01 0.  0.
    9000005    1    3    3    0    0  0.60508095664E+02  0.14899360017E+02  0.37355996196E+03  0.37872320466E+03  0.10000000000E+01 0.  0.
<mgrwt>
<rscale>  0 0.12499875E+03</rscale>
<asrwt>0</asrwt>
<pdfrwt beam="2">  1        4 0.73895096E-03 0.12499875E+03</pdfrwt>
<pdfrwt beam="1">  1       -4 0.12511490E+00 0.12499875E+03</pdfrwt>
<totfact> 0.37472540E+03</totfact>
</mgrwt>
</event>
<event>
 5    1  0.3327068E-002  0.1250011E+03  0.7818608E-02  0.1235068E+00
          4   -1    0    0  501    0  0.00000000000E+00  0.00000000000E+00  0.18319391501E+04  0.18319395903E+04  0.12700000000E+01 0. -1.
         -4   -1    0    0    0  501 -0.00000000000E+00 -0.00000000000E+00 -0.19427626883E+01  0.23210400391E+01  0.12700000000E+01 0. -1.
         25    2    1    2    0    0  0.00000000000E+00  0.00000000000E+00  0.18299963874E+04  0.18342606303E+04  0.12500112852E+03 0.  0.
    9000005    1    3    3    0    0  0.32017669716E+02 -0.25204889477E+02  0.16102560289E+04  0.16107718324E+04  0.10000000000E+01 0.  0.
    9000005    1    3    3    0    0 -0.32017669716E+02  0.25204889477E+02  0.21974035854E+03  0.22348879793E+03  0.10000000000E+01 0.  0.
<mgrwt>
<rscale>  0 0.12500113E+03</rscale>
<asrwt>0</asrwt>
<pdfrwt beam="1">  1        4 0.28186439E+00 0.12500113E+03</pdfrwt>
<pdfrwt beam="2">  1       -4 0.32802047E-03 0.12500113E+03</pdfrwt>
<totfact> 0.12182866E+03</totfact>
</mgrwt>
</event>
<event>
 5    1  0.3327068E-002  0.1249986E+03  0.7818608E-02  0.1235071E+00
          4   -1    0    0  501    0  0.00000000000E+00  0.00000000000E+00  0.82297819407E+01  0.83271970549E+01  0.12700000000E+01 0.  1.
         -4   -1    0    0    0  501 -0.00000000000E+00 -0.00000000000E+00 -0.47174653280E+03  0.47174824229E+03  0.12700000000E+01 0.  1.
         25    2    1    2    0    0  0.00000000000E+00  0.00000000000E+00 -0.46351675086E+03  0.48007543935E+03  0.12499859655E+03 0.  0.
    9000005    1    3    3    0    0 -0.36855504331E+02 -0.41204820411E+02 -0.34366541148E+03  0.34808487539E+03  0.10000000000E+01 0.  0.
    9000005    1    3    3    0    0  0.36855504331E+02  0.41204820411E+02 -0.11985133937E+03  0.13199056396E+03  0.10000000000E+01 0.  0.
<mgrwt>
<rscale>  0 0.12499860E+03</rscale>
<asrwt>0</asrwt>
<pdfrwt beam="1">  1        4 0.12737456E-02 0.12499860E+03</pdfrwt>
<pdfrwt beam="2">  1       -4 0.72583994E-01 0.12499860E+03</pdfrwt>
<totfact> 0.57445882E+03</totfact>
</mgrwt>
</event>
<event>
 5    1  0.3327068E-002  0.1250031E+03  0.7818608E-02  0.1235064E+00
          4   -1    0    0  501    0  0.00000000000E+00  0.00000000000E+00  0.20889552465E+02  0.20928122280E+02  0.12700000000E+01 0. -1.
         -4   -1    0    0    0  501 -0.00000000000E+00 -0.00000000000E+00 -0.18679140273E+03  0.18679572006E+03  0.12700000000E+01 0. -1.
         25    2    1    2    0    0  0.00000000000E+00  0.00000000000E+00 -0.16590185026E+03  0.20772384234E+03  0.12500308299E+03 0.  0.
    9000005    1    3    3    0    0  0.30627357192E+02  0.47303361149E+02 -0.38059079112E+02  0.68008356012E+02  0.10000000000E+01 0.  0.
    9000005    1    3    3    0    0 -0.30627357192E+02 -0.47303361149E+02 -0.12784277115E+03  0.13971548633E+03  0.10000000000E+01 0.  0.
<mgrwt>
<rscale>  0 0.12500308E+03</rscale>
<asrwt>0</asrwt>
<pdfrwt beam="1">  1        4 0.32170764E-02 0.12500308E+03</pdfrwt>
<pdfrwt beam="2">  1       -4 0.28740437E-01 0.12500308E+03</pdfrwt>
<totfact> 0.88842837E+03</totfact>
</mgrwt>
</event>
<event>
 5    1  0.3327068E-002  0.1250011E+03  0.7818608E-02  0.1235068E+00
         -4   -1    0    0    0  501 -0.00000000000E+00  0.00000000000E+00  0.10437212638E+03  0.10437985278E+03  0.12700000000E+01 0. -1.
          4   -1    0    0  501    0  0.00000000000E+00 -0.00000000000E+00 -0.37406938692E+02  0.37428491318E+02  0.12700000000E+01 0. -1.
         25    2    1    2    0    0  0.00000000000E+00  0.00000000000E+00  0.66965187692E+02  0.14180834410E+03  0.12500108037E+03 0.  0.
    9000005    1    3    3    0    0 -0.22064219695E+02  0.56902262138E+02  0.18236053970E+02  0.63704402451E+02  0.10000000000E+01 0.  0.
    9000005    1    3    3    0    0  0.22064219695E+02 -0.56902262138E+02  0.48729133722E+02  0.78103941645E+02  0.10000000000E+01 0.  0.
<mgrwt>
<rscale>  0 0.12500108E+03</rscale>
<asrwt>0</asrwt>
<pdfrwt beam="2">  1        4 0.57571660E-02 0.12500108E+03</pdfrwt>
<pdfrwt beam="1">  1       -4 0.16059502E-01 0.12500108E+03</pdfrwt>
<totfact> 0.10095998E+04</totfact>
</mgrwt>
</event>
<event>
 5    1  0.3327068E-002  0.1250015E+03  0.7818608E-02  0.1235067E+00
         -4   -1    0    0    0  501 -0.00000000000E+00  0.00000000000E+00  0.35182124944E+03  0.35182354165E+03  0.12700000000E+01 0. -1.
          4   -1    0    0  501    0  0.00000000000E+00 -0.00000000000E+00 -0.11064555664E+02  0.11137203062E+02  0.12700000000E+01 0. -1.
         25    2    1    2    0    0  0.00000000000E+00  0.00000000000E+00  0.34075669378E+03  0.36296074471E+03  0.12500151138E+03 0.  0.
    9000005    1    3    3    0    0 -0.21239335593E+02  0.43995091809E+02  0.28353384708E+03  0.28771360746E+03  0.10000000000E+01 0.  0.
    9000005    1    3    3    0    0  0.21239335593E+02 -0.43995091809E+02  0.57222846700E+02  0.75247137249E+02  0.10000000000E+01 0.  0.
<mgrwt>
<rscale>  0 0.12500151E+03</rscale>
<asrwt>0</asrwt>
<pdfrwt beam="2">  1        4 0.17080039E-02 0.12500151E+03</pdfrwt>
<pdfrwt beam="1">  1       -4 0.54132112E-01 0.12500151E+03</pdfrwt>
<totfact> 0.68319575E+03</totfact>
</mgrwt>
</event>
<event>
 5    1  0.3327068E-002  0.1249987E+03  0.7818608E-02  0.1235071E+00
          4   -1    0    0  501    0  0.00000000000E+00  0.00000000000E+00  0.64256100801E+02  0.64268650135E+02  0.12700000000E+01 0.  1.
         -4   -1    0    0    0  501 -0.00000000000E+00 -0.00000000000E+00 -0.60765462343E+02  0.60778732413E+02  0.12700000000E+01 0.  1.
         25    2    1    2    0    0  0.00000000000E+00  0.00000000000E+00  0.34906384582E+01  0.12504738255E+03  0.12499865329E+03 0.  0.
    9000005    1    3    3    0    0 -0.39745626718E+02  0.21141505608E+02  0.45103739714E+02  0.63734021046E+02  0.10000000000E+01 0.  0.
    9000005    1    3    3    0    0  0.39745626718E+02 -0.21141505608E+02 -0.41613101255E+02  0.61313361502E+02  0.10000000000E+01 0.  0.
<mgrwt>
<rscale>  0 0.12499865E+03</rscale>
<asrwt>0</asrwt>
<pdfrwt beam="1">  1        4 0.98875400E-02 0.12499865E+03</pdfrwt>
<pdfrwt beam="2">  1       -4 0.93505189E-02 0.12499865E+03</pdfrwt>
<totfact> 0.10452152E+04</totfact>
</mgrwt>
</event>
<event>
 5    1  0.3327068E-002  0.1249940E+03  0.7818608E-02  0.1235079E+00
         -4   -1    0    0    0  501 -0.00000000000E+00  0.00000000000E+00  0.97681576896E+02  0.97689832454E+02  0.12700000000E+01 0.  1.
          4   -1    0    0  501    0  0.00000000000E+00 -0.00000000000E+00 -0.39965746896E+02  0.39985920334E+02  0.12700000000E+01 0.  1.
         25    2    1    2    0    0  0.00000000000E+00  0.00000000000E+00  0.57715829999E+02  0.13767575279E+03  0.12499398335E+03 0.  0.
    9000005    1    3    3    0    0 -0.30860340363E+02  0.52404109011E+02  0.13036625467E+02  0.62205344241E+02  0.10000000000E+01 0.  0.
    9000005    1    3    3    0    0  0.30860340363E+02 -0.52404109011E+02  0.44679204532E+02  0.75470408547E+02  0.10000000000E+01 0.  0.
<mgrwt>
<rscale>  0 0.12499398E+03</rscale>
<asrwt>0</asrwt>
<pdfrwt beam="2">  1        4 0.61507633E-02 0.12499398E+03</pdfrwt>
<pdfrwt beam="1">  1       -4 0.15030122E-01 0.12499398E+03</pdfrwt>
<totfact> 0.10183357E+04</totfact>
</mgrwt>
</event>
<event>
 5    1  0.3327068E-002  0.1249997E+03  0.7818608E-02  0.1235070E+00
         -4   -1    0    0    0  501 -0.00000000000E+00  0.00000000000E+00  0.43227018496E+02  0.43245670628E+02  0.12700000000E+01 0.  1.
          4   -1    0    0  501    0  0.00000000000E+00 -0.00000000000E+00 -0.90322836452E+02  0.90331764539E+02  0.12700000000E+01 0.  1.
         25    2    1    2    0    0  0.00000000000E+00  0.00000000000E+00 -0.47095817956E+02  0.13357743517E+03  0.12499966047E+03 0.  0.
    9000005    1    3    3    0    0 -0.43215924089E+02 -0.44879491965E+02 -0.28722059519E+02  0.68612984172E+02  0.10000000000E+01 0.  0.
    9000005    1    3    3    0    0  0.43215924089E+02  0.44879491965E+02 -0.18373758437E+02  0.64964450995E+02  0.10000000000E+01 0.  0.
<mgrwt>
<rscale>  0 0.12499966E+03</rscale>
<asrwt>0</asrwt>
<pdfrwt beam="2">  1        4 0.13897943E-01 0.12499966E+03</pdfrwt>
<pdfrwt beam="1">  1       -4 0.66524321E-02 0.12499966E+03</pdfrwt>
<totfact> 0.10268221E+04</totfact>
</mgrwt>
</event>
<event>
 5    1  0.3327068E-002  0.1249977E+03  0.7818608E-02  0.1235073E+00
         -4   -1    0    0    0  501 -0.00000000000E+00  0.00000000000E+00  0.11212577264E+02  0.11284271748E+02  0.12700000000E+01 0.  1.
          4   -1    0    0  501    0  0.00000000000E+00 -0.00000000000E+00 -0.34718504649E+03  0.34718736931E+03  0.12700000000E+01 0.  1.
         25    2    1    2    0    0  0.00000000000E+00  0.00000000000E+00 -0.33597246923E+03  0.35847164105E+03  0.12499766943E+03 0.  0.
    9000005    1    3    3    0    0 -0.20693396159E+02  0.58452959643E+02 -0.19022607827E+03  0.20007979906E+03  0.10000000000E+01 0.  0.
    9000005    1    3    3    0    0  0.20693396159E+02 -0.58452959643E+02 -0.14574639095E+03  0.15839184200E+03  0.10000000000E+01 0.  0.
<mgrwt>
<rscale>  0 0.12499767E+03</rscale>
<asrwt>0</asrwt>
<pdfrwt beam="2">  1        4 0.53418770E-01 0.12499767E+03</pdfrwt>
<pdfrwt beam="1">  1       -4 0.17307058E-02 0.12499767E+03</pdfrwt>
<totfact> 0.68806069E+03</totfact>
</mgrwt>
</event>
<event>
 5    1  0.3327068E-002  0.1250032E+03  0.7818608E-02  0.1235064E+00
          4   -1    0    0  501    0  0.00000000000E+00  0.00000000000E+00  0.87085687705E+01  0.88006857705E+01  0.12700000000E+01 0.  1.
         -4   -1    0    0    0  501 -0.00000000000E+00 -0.00000000000E+00 -0.44612210340E+03  0.44612391108E+03  0.12700000000E+01 0.  1.
         25    2    1    2    0    0  0.00000000000E+00  0.00000000000E+00 -0.43741353463E+03  0.45492459685E+03  0.12500315415E+03 0.  0.
    9000005    1    3    3    0    0 -0.50865858502E+02 -0.15746069886E+02 -0.99652377471E+02  0.11299057754E+03  0.10000000000E+01 0.  0.
    9000005    1    3    3    0    0  0.50865858502E+02  0.15746069886E+02 -0.33776115716E+03  0.34193401931E+03  0.10000000000E+01 0.  0.
<mgrwt>
<rscale>  0 0.12500315E+03</rscale>
<asrwt>0</asrwt>
<pdfrwt beam="1">  1        4 0.13470051E-02 0.12500315E+03</pdfrwt>
<pdfrwt beam="2">  1       -4 0.68641377E-01 0.12500315E+03</pdfrwt>
<totfact> 0.59535411E+03</totfact>
</mgrwt>
</event>
<event>
 5    1  0.3327068E-002  0.1249984E+03  0.7818608E-02  0.1235072E+00
         -4   -1    0    0    0  501 -0.00000000000E+00  0.00000000000E+00  0.24702430791E+02  0.24735055831E+02  0.12700000000E+01 0. -1.
          4   -1    0    0  501    0  0.00000000000E+00 -0.00000000000E+00 -0.15798854449E+03  0.15799364889E+03  0.12700000000E+01 0. -1.
         25    2    1    2    0    0  0.00000000000E+00  0.00000000000E+00 -0.13328611370E+03  0.18272870472E+03  0.12499836569E+03 0.  0.
    9000005    1    3    3    0    0  0.15377487628E+02  0.60432581220E+02 -0.60689928861E+02  0.87022017122E+02  0.10000000000E+01 0.  0.
    9000005    1    3    3    0    0 -0.15377487628E+02 -0.60432581220E+02 -0.72596184840E+02  0.95706687603E+02  0.10000000000E+01 0.  0.
<mgrwt>
<rscale>  0 0.12499837E+03</rscale>
<asrwt>0</asrwt>
<pdfrwt beam="2">  1        4 0.24308832E-01 0.12499837E+03</pdfrwt>
<pdfrwt beam="1">  1       -4 0.38032763E-02 0.12499837E+03</pdfrwt>
<totfact> 0.93131533E+03</totfact>
</mgrwt>
</event>
<event>
 5    1  0.3327068E-002  0.1249986E+03  0.7818608E-02  0.1235071E+00
          4   -1    0    0  501    0  0.00000000000E+00  0.00000000000E+00  0.61280224721E+01  0.62582393226E+01  0.12700000000E+01 0. -1.
         -4   -1    0    0    0  501 -0.00000000000E+00 -0.00000000000E+00 -0.63059413047E+03  0.63059540934E+03  0.12700000000E+01 0. -1.
         25    2    1    2    0    0  0.00000000000E+00  0.00000000000E+00 -0.62446610799E+03  0.63685364866E+03  0.12499859911E+03 0.  0.
    9000005    1    3    3    0    0  0.58560855154E+02 -0.18092929003E+02 -0.37430596050E+03  0.37929234095E+03  0.10000000000E+01 0.  0.
    9000005    1    3    3    0    0 -0.58560855154E+02  0.18092929003E+02 -0.25016014750E+03  0.25756130772E+03  0.10000000000E+01 0.  0.
<mgrwt>
<rscale>  0 0.12499860E+03</rscale>
<asrwt>0</asrwt>
<pdfrwt beam="1">  1        4 0.95288824E-03 0.12499860E+03</pdfrwt>
<pdfrwt beam="2">  1       -4 0.97024546E-01 0.12499860E+03</pdfrwt>
<totfact> 0.46622416E+03</totfact>
</mgrwt>
</event>
<event>
 5    1  0.3327068E-002  0.1250016E+03  0.7818608E-02  0.1235067E+00
          4   -1    0    0  501    0  0.00000000000E+00  0.00000000000E+00  0.77800540351E+02  0.77810905270E+02  0.12700000000E+01 0.  1.
         -4   -1    0    0    0  501 -0.00000000000E+00 -0.00000000000E+00 -0.50188035877E+02  0.50204101877E+02  0.12700000000E+01 0.  1.
         25    2    1    2    0    0  0.00000000000E+00  0.00000000000E+00  0.27612504474E+02  0.12801500715E+03  0.12500156660E+03 0.  0.
    9000005    1    3    3    0    0  0.50016194841E+02  0.33315725946E-01  0.52175807412E+02  0.72283716945E+02  0.10000000000E+01 0.  0.
    9000005    1    3    3    0    0 -0.50016194841E+02 -0.33315725946E-01 -0.24563302938E+02  0.55731290202E+02  0.10000000000E+01 0.  0.
<mgrwt>
<rscale>  0 0.12500157E+03</rscale>
<asrwt>0</asrwt>
<pdfrwt beam="1">  1        4 0.11971347E-01 0.12500157E+03</pdfrwt>
<pdfrwt beam="2">  1       -4 0.77232694E-02 0.12500157E+03</pdfrwt>
<totfact> 0.10386796E+04</totfact>
</mgrwt>
</event>
<event>
 5    1  0.3327068E-002  0.1250001E+03  0.7818608E-02  0.1235069E+00
          4   -1    0    0  501    0  0.00000000000E+00  0.00000000000E+00  0.12129075118E+04  0.12129081767E+04  0.12700000000E+01 0.  1.
         -4   -1    0    0    0  501 -0.00000000000E+00 -0.00000000000E+00 -0.30946780487E+01  0.33451356064E+01  0.12700000000E+01 0.  1.
         25    2    1    2    0    0  0.00000000000E+00  0.00000000000E+00  0.12098128337E+04  0.12162533123E+04  0.12500010785E+03 0.  0.
    9000005    1    3    3    0    0  0.52362129565E+01  0.31830136878E+02  0.11256834191E+04  0.11261459655E+04  0.10000000000E+01 0.  0.
    9000005    1    3    3    0    0 -0.52362129565E+01 -0.31830136878E+02  0.84129414640E+02  0.90107346800E+02  0.10000000000E+01 0.  0.
<mgrwt>
<rscale>  0 0.12500011E+03</rscale>
<asrwt>0</asrwt>
<pdfrwt beam="1">  1        4 0.18662054E+00 0.12500011E+03</pdfrwt>
<pdfrwt beam="2">  1       -4 0.49542125E-03 0.12500011E+03</pdfrwt>
<totfact> 0.24291176E+03</totfact>
</mgrwt>
</event>
<event>
 5    1  0.3327068E-002  0.1249993E+03  0.7818608E-02  0.1235070E+00
         -4   -1    0    0    0  501 -0.00000000000E+00  0.00000000000E+00  0.15135037898E+03  0.15135570725E+03  0.12700000000E+01 0.  1.
          4   -1    0    0  501    0  0.00000000000E+00 -0.00000000000E+00 -0.25787601529E+02  0.25818855370E+02  0.12700000000E+01 0.  1.
         25    2    1    2    0    0  0.00000000000E+00  0.00000000000E+00  0.12556277746E+03  0.17717456262E+03  0.12499925823E+03 0.  0.
    9000005    1    3    3    0    0 -0.29164839881E+02 -0.31091651633E+02 -0.19852525771E+01  0.42687467884E+02  0.10000000000E+01 0.  0.
    9000005    1    3    3    0    0  0.29164839881E+02  0.31091651633E+02  0.12754803003E+03  0.13448709474E+03  0.10000000000E+01 0.  0.
<mgrwt>
<rscale>  0 0.12499926E+03</rscale>
<asrwt>0</asrwt>
<pdfrwt beam="2">  1        4 0.39701372E-02 0.12499926E+03</pdfrwt>
<pdfrwt beam="1">  1       -4 0.23287488E-01 0.12499926E+03</pdfrwt>
<totfact> 0.94129643E+03</totfact>
</mgrwt>
</event>
<event>
 5    1  0.3327068E-002  0.1250002E+03  0.7818608E-02  0.1235069E+00
          4   -1    0    0  501    0  0.00000000000E+00  0.00000000000E+00  0.85430766981E+02  0.85440206268E+02  0.12700000000E+01 0. -1.
         -4   -1    0    0    0  501 -0.00000000000E+00 -0.00000000000E+00 -0.45703532661E+02  0.45721174500E+02  0.12700000000E+01 0. -1.
         25    2    1    2    0    0  0.00000000000E+00  0.00000000000E+00  0.39727234320E+02  0.13116138077E+03  0.12500021863E+03 0.  0.
    9000005    1    3    3    0    0 -0.15098410612E+02 -0.59042893139E+02  0.34374131062E+02  0.69975753797E+02  0.10000000000E+01 0.  0.
    9000005    1    3    3    0    0  0.15098410612E+02  0.59042893139E+02  0.53531032589E+01  0.61185626971E+02  0.10000000000E+01 0.  0.
<mgrwt>
<rscale>  0 0.12500022E+03</rscale>
<asrwt>0</asrwt>
<pdfrwt beam="1">  1        4 0.13145278E-01 0.12500022E+03</pdfrwt>
<pdfrwt beam="2">  1       -4 0.70333959E-02 0.12500022E+03</pdfrwt>
<totfact> 0.10319580E+04</totfact>
</mgrwt>
</event>
<event>
 5    1  0.3327068E-002  0.1249963E+03  0.7818608E-02  0.1235075E+00
          4   -1    0    0  501    0  0.00000000000E+00  0.00000000000E+00  0.14808128835E+03  0.14808673425E+03  0.12700000000E+01 0. -1.
         -4   -1    0    0    0  501 -0.00000000000E+00 -0.00000000000E+00 -0.26356302276E+02  0.26386882530E+02  0.12700000000E+01 0. -1.
         25    2    1    2    0    0  0.00000000000E+00  0.00000000000E+00  0.12172498608E+03  0.17447361678E+03  0.12499628281E+03 0.  0.
    9000005    1    3    3    0    0 -0.12051557862E+00 -0.11490948795E+02  0.14660058975E+03  0.14705369544E+03  0.10000000000E+01 0.  0.
    9000005    1    3    3    0    0  0.12051557862E+00  0.11490948795E+02 -0.24875603671E+02  0.27419921338E+02  0.10000000000E+01 0.  0.
<mgrwt>
<rscale>  0 0.12499628E+03</rscale>
<asrwt>0</asrwt>
<pdfrwt beam="1">  1        4 0.22784508E-01 0.12499628E+03</pdfrwt>
<pdfrwt beam="2">  1       -4 0.40575870E-02 0.12499628E+03</pdfrwt>
<totfact> 0.94629226E+03</totfact>
</mgrwt>
</event>
<event>
 5    1  0.3327068E-002  0.1250016E+03  0.7818608E-02  0.1235067E+00
          4   -1    0    0  501    0  0.00000000000E+00  0.00000000000E+00  0.37894046305E+02  0.37915322039E+02  0.12700000000E+01 0.  1.
         -4   -1    0    0    0  501 -0.00000000000E+00 -0.00000000000E+00 -0.10303207422E+03  0.10303990110E+03  0.12700000000E+01 0.  1.
         25    2    1    2    0    0  0.00000000000E+00  0.00000000000E+00 -0.65138027915E+02  0.14095522314E+03  0.12500164898E+03 0.  0.
    9000005    1    3    3    0    0  0.20815005762E+02 -0.53821743534E+02 -0.55222174054E+01  0.57978784283E+02  0.10000000000E+01 0.  0.
    9000005    1    3    3    0    0 -0.20815005762E+02  0.53821743534E+02 -0.59615810510E+02  0.82976438852E+02  0.10000000000E+01 0.  0.
<mgrwt>
<rscale>  0 0.12500165E+03</rscale>
<asrwt>0</asrwt>
<pdfrwt beam="1">  1        4 0.58320920E-02 0.12500165E+03</pdfrwt>
<pdfrwt beam="2">  1       -4 0.15853327E-01 0.12500165E+03</pdfrwt>
<totfact> 0.10113451E+04</totfact>
</mgrwt>
</event>
<event>
 5    1  0.3327068E-002  0.1249993E+03  0.7818608E-02  0.1235070E+00
         -4   -1    0    0    0  501 -0.00000000000E+00  0.00000000000E+00  0.18956031849E+02  0.18998527402E+02  0.12700000000E+01 0.  1.
          4   -1    0    0  501    0  0.00000000000E+00 -0.00000000000E+00 -0.20579135826E+03  0.20579527699E+03  0.12700000000E+01 0.  1.
         25    2    1    2    0    0  0.00000000000E+00  0.00000000000E+00 -0.18683532641E+03  0.22479380440E+03  0.12499926120E+03 0.  0.
    9000005    1    3    3    0    0 -0.23920759396E+02  0.57724701832E+02 -0.91750034940E+02  0.11101086813E+03  0.10000000000E+01 0.  0.
    9000005    1    3    3    0    0  0.23920759396E+02 -0.57724701832E+02 -0.95085291468E+02  0.11378293627E+03  0.10000000000E+01 0.  0.
<mgrwt>
<rscale>  0 0.12499926E+03</rscale>
<asrwt>0</asrwt>
<pdfrwt beam="2">  1        4 0.31663778E-01 0.12499926E+03</pdfrwt>
<pdfrwt beam="1">  1       -4 0.29198831E-02 0.12499926E+03</pdfrwt>
<totfact> 0.86116852E+03</totfact>
</mgrwt>
</event>
<event>
 5    1  0.3327068E-002  0.1249810E+03  0.7818608E-02  0.1235099E+00
         -4   -1    0    0    0  501 -0.00000000000E+00  0.00000000000E+00  0.94891160428E+02  0.94899658732E+02  0.12700000000E+01 0. -1.
          4   -1    0    0  501    0  0.00000000000E+00 -0.00000000000E+00 -0.41132941103E+02  0.41152542373E+02  0.12700000000E+01 0. -1.
         25    2    1    2    0    0  0.00000000000E+00  0.00000000000E+00  0.53758219325E+02  0.13605220111E+03  0.12498101968E+03 0.  0.
    9000005    1    3    3    0    0 -0.61926453739E+02 -0.38671010353E+01  0.18863141365E+02  0.64858756119E+02  0.10000000000E+01 0.  0.
    9000005    1    3    3    0    0  0.61926453739E+02  0.38671010353E+01  0.34895077960E+02  0.71193444986E+02  0.10000000000E+01 0.  0.
<mgrwt>
<rscale>  0 0.12498102E+03</rscale>
<asrwt>0</asrwt>
<pdfrwt beam="2">  1        4 0.63303063E-02 0.12498102E+03</pdfrwt>
<pdfrwt beam="1">  1       -4 0.14600802E-01 0.12498102E+03</pdfrwt>
<totfact> 0.10220314E+04</totfact>
</mgrwt>
</event>
<event>
 5    1  0.3327068E-002  0.1249650E+03  0.7818608E-02  0.1235124E+00
          4   -1    0    0  501    0  0.00000000000E+00  0.00000000000E+00  0.16465550287E+04  0.16465555185E+04  0.12700000000E+01 0.  1.
         -4   -1    0    0    0  501 -0.00000000000E+00 -0.00000000000E+00 -0.22004635190E+01  0.25406573359E+01  0.12700000000E+01 0.  1.
         25    2    1    2    0    0  0.00000000000E+00  0.00000000000E+00  0.16443545652E+04  0.16490961759E+04  0.12496503935E+03 0.  0.
    9000005    1    3    3    0    0 -0.30789862240E+02 -0.31938506124E+02  0.14026687762E+04  0.14033705069E+04  0.10000000000E+01 0.  0.
    9000005    1    3    3    0    0  0.30789862240E+02  0.31938506124E+02  0.24168578903E+03  0.24572566900E+03  0.10000000000E+01 0.  0.
<mgrwt>
<rscale>  0 0.12496504E+03</rscale>
<asrwt>0</asrwt>
<pdfrwt beam="1">  1        4 0.25334209E+00 0.12496504E+03</pdfrwt>
<pdfrwt beam="2">  1       -4 0.36473967E-03 0.12496504E+03</pdfrwt>
<totfact> 0.15186776E+03</totfact>
</mgrwt>
</event>
<event>
 5    1  0.3327068E-002  0.1250266E+03  0.7818608E-02  0.1235028E+00
         -4   -1    0    0    0  501 -0.00000000000E+00  0.00000000000E+00  0.12557148587E+03  0.12557790794E+03  0.12700000000E+01 0.  1.
          4   -1    0    0  501    0  0.00000000000E+00 -0.00000000000E+00 -0.31100856448E+02  0.31126775802E+02  0.12700000000E+01 0.  1.
         25    2    1    2    0    0  0.00000000000E+00  0.00000000000E+00  0.94470629419E+02  0.15670468374E+03  0.12502662950E+03 0.  0.
    9000005    1    3    3    0    0 -0.57308127930E+02 -0.19850958127E+02  0.66187024362E+02  0.89777526472E+02  0.10000000000E+01 0.  0.
    9000005    1    3    3    0    0  0.57308127930E+02  0.19850958127E+02  0.28283605056E+02  0.66927157271E+02  0.10000000000E+01 0.  0.
<mgrwt>
<rscale>  0 0.12502663E+03</rscale>
<asrwt>0</asrwt>
<pdfrwt beam="2">  1        4 0.47872349E-02 0.12502663E+03</pdfrwt>
<pdfrwt beam="1">  1       -4 0.19321178E-01 0.12502663E+03</pdfrwt>
<totfact> 0.97923237E+03</totfact>
</mgrwt>
</event>
<event>
 5    1  0.3327068E-002  0.1249909E+03  0.7818608E-02  0.1235083E+00
          4   -1    0    0  501    0  0.00000000000E+00  0.00000000000E+00  0.65487571367E+02  0.65499884759E+02  0.12700000000E+01 0. -1.
         -4   -1    0    0    0  501 -0.00000000000E+00 -0.00000000000E+00 -0.59615362332E+02  0.59628888351E+02  0.12700000000E+01 0. -1.
         25    2    1    2    0    0  0.00000000000E+00  0.00000000000E+00  0.58722090341E+01  0.12512877311E+03  0.12499090775E+03 0.  0.
    9000005    1    3    3    0    0 -0.14847728326E+02  0.46413244882E+02 -0.36222732951E+02  0.60726688691E+02  0.10000000000E+01 0.  0.
    9000005    1    3    3    0    0  0.14847728326E+02 -0.46413244882E+02  0.42094941986E+02  0.64402084420E+02  0.10000000000E+01 0.  0.
<mgrwt>
<rscale>  0 0.12499091E+03</rscale>
<asrwt>0</asrwt>
<pdfrwt beam="1">  1        4 0.10076999E-01 0.12499091E+03</pdfrwt>
<pdfrwt beam="2">  1       -4 0.91735819E-02 0.12499091E+03</pdfrwt>
<totfact> 0.10452214E+04</totfact>
</mgrwt>
</event>
<event>
 5    1  0.3327068E-002  0.1249990E+03  0.7818608E-02  0.1235071E+00
         -4   -1    0    0    0  501 -0.00000000000E+00  0.00000000000E+00  0.20721314452E+02  0.20760196835E+02  0.12700000000E+01 0.  1.
          4   -1    0    0  501    0  0.00000000000E+00 -0.00000000000E+00 -0.18829298909E+03  0.18829727199E+03  0.12700000000E+01 0.  1.
         25    2    1    2    0    0  0.00000000000E+00  0.00000000000E+00 -0.16757167464E+03  0.20905746883E+03  0.12499903653E+03 0.  0.
    9000005    1    3    3    0    0 -0.15399071284E+02 -0.57230664578E+02 -0.11692905590E+03  0.13109494452E+03  0.10000000000E+01 0.  0.
    9000005    1    3    3    0    0  0.15399071284E+02  0.57230664578E+02 -0.50642618739E+02  0.77962524313E+02  0.10000000000E+01 0.  0.
<mgrwt>
<rscale>  0 0.12499904E+03</rscale>
<asrwt>0</asrwt>
<pdfrwt beam="2">  1        4 0.28971471E-01 0.12499904E+03</pdfrwt>
<pdfrwt beam="1">  1       -4 0.31912151E-02 0.12499904E+03</pdfrwt>
<totfact> 0.88631950E+03</totfact>
</mgrwt>
</event>
<event>
 5    1  0.3327068E-002  0.1250024E+03  0.7818608E-02  0.1235065E+00
         -4   -1    0    0    0  501 -0.00000000000E+00  0.00000000000E+00  0.30238652960E+02  0.30265310718E+02  0.12700000000E+01 0. -1.
          4   -1    0    0  501    0  0.00000000000E+00 -0.00000000000E+00 -0.12909904688E+03  0.12910529348E+03  0.12700000000E+01 0. -1.
         25    2    1    2    0    0  0.00000000000E+00  0.00000000000E+00 -0.98860393915E+02  0.15937060420E+03  0.12500244796E+03 0.  0.
    9000005    1    3    3    0    0  0.41874493532E+02  0.37450405042E+02 -0.84331823129E+02  0.10133539578E+03  0.10000000000E+01 0.  0.
    9000005    1    3    3    0    0 -0.41874493532E+02 -0.37450405042E+02 -0.14528570786E+02  0.58035208413E+02  0.10000000000E+01 0.  0.
<mgrwt>
<rscale>  0 0.12500245E+03</rscale>
<asrwt>0</asrwt>
<pdfrwt beam="2">  1        4 0.19863923E-01 0.12500245E+03</pdfrwt>
<pdfrwt beam="1">  1       -4 0.46546316E-02 0.12500245E+03</pdfrwt>
<totfact> 0.97458902E+03</totfact>
</mgrwt>
</event>
<event>
 5    1  0.3327068E-002  0.1250015E+03  0.7818608E-02  0.1235067E+00
         -4   -1    0    0    0  501 -0.00000000000E+00  0.00000000000E+00  0.13998564836E+02  0.14056056256E+02  0.12700000000E+01 0. -1.
          4   -1    0    0  501    0  0.00000000000E+00 -0.00000000000E+00 -0.27842221026E+03  0.27842510674E+03  0.12700000000E+01 0. -1.
         25    2    1    2    0    0  0.00000000000E+00  0.00000000000E+00 -0.26442364542E+03  0.29248116300E+03  0.12500146580E+03 0.  0.
    9000005    1    3    3    0    0  0.68787309715E+01  0.20624322106E+02 -0.26929946812E+03  0.27017750301E+03  0.10000000000E+01 0.  0.
    9000005    1    3    3    0    0 -0.68787309715E+01 -0.20624322106E+02  0.48758226969E+01  0.22303659993E+02  0.10000000000E+01 0.  0.
<mgrwt>
<rscale>  0 0.12500147E+03</rscale>
<asrwt>0</asrwt>
<pdfrwt beam="2">  1        4 0.42838827E-01 0.12500147E+03</pdfrwt>
<pdfrwt beam="1">  1       -4 0.21582708E-02 0.12500147E+03</pdfrwt>
<totfact> 0.76549282E+03</totfact>
</mgrwt>
</event>
<event>
 5    1  0.3327068E-002  0.1249975E+03  0.7818608E-02  0.1235073E+00
         -4   -1    0    0    0  501 -0.00000000000E+00  0.00000000000E+00  0.13252020997E+03  0.13252629531E+03  0.12700000000E+01 0. -1.
          4   -1    0    0  501    0  0.00000000000E+00 -0.00000000000E+00 -0.29455020156E+02  0.29482386477E+02  0.12700000000E+01 0. -1.
         25    2    1    2    0    0  0.00000000000E+00  0.00000000000E+00  0.10306518981E+03  0.16200868179E+03  0.12499751848E+03 0.  0.
    9000005    1    3    3    0    0 -0.62249630741E+02 -0.54307013066E+01  0.52524647304E+02  0.81635455646E+02  0.10000000000E+01 0.  0.
    9000005    1    3    3    0    0  0.62249630741E+02  0.54307013066E+01  0.50540542508E+02  0.80373226146E+02  0.10000000000E+01 0.  0.
<mgrwt>
<rscale>  0 0.12499752E+03</rscale>
<asrwt>0</asrwt>
<pdfrwt beam="2">  1        4 0.45341148E-02 0.12499752E+03</pdfrwt>
<pdfrwt beam="1">  1       -4 0.20390298E-01 0.12499752E+03</pdfrwt>
<totfact> 0.96962326E+03</totfact>
</mgrwt>
</event>
<event>
 5    1  0.3327068E-002  0.1250078E+03  0.7818608E-02  0.1235057E+00
         -4   -1    0    0    0  501 -0.00000000000E+00  0.00000000000E+00  0.42861627396E+02  0.42880438466E+02  0.12700000000E+01 0.  1.
          4   -1    0    0  501    0  0.00000000000E+00 -0.00000000000E+00 -0.91104453026E+02  0.91113304523E+02  0.12700000000E+01 0.  1.
         25    2    1    2    0    0  0.00000000000E+00  0.00000000000E+00 -0.48242825629E+02  0.13399374299E+03  0.12500781150E+03 0.  0.
    9000005    1    3    3    0    0 -0.29111408533E+01 -0.60766526618E+02 -0.39456935469E+02  0.72518240842E+02  0.10000000000E+01 0.  0.
    9000005    1    3    3    0    0  0.29111408533E+01  0.60766526618E+02 -0.87858901609E+01  0.61475502147E+02  0.10000000000E+01 0.  0.
<mgrwt>
<rscale>  0 0.12500781E+03</rscale>
<asrwt>0</asrwt>
<pdfrwt beam="2">  1        4 0.14018198E-01 0.12500781E+03</pdfrwt>
<pdfrwt beam="1">  1       -4 0.65962244E-02 0.12500781E+03</pdfrwt>
<totfact> 0.10257517E+04</totfact>
</mgrwt>
</event>
<event>
 5    1  0.3327068E-002  0.1249995E+03  0.7818608E-02  0.1235070E+00
         -4   -1    0    0    0  501 -0.00000000000E+00  0.00000000000E+00  0.49717895646E+03  0.49718057851E+03  0.12700000000E+01 0.  1.
          4   -1    0    0  501    0  0.00000000000E+00 -0.00000000000E+00 -0.78038010239E+01  0.79064663675E+01  0.12700000000E+01 0.  1.
         25    2    1    2    0    0  0.00000000000E+00  0.00000000000E+00  0.48937515544E+03  0.50508704488E+03  0.12499952058E+03 0.  0.
    9000005    1    3    3    0    0 -0.37494247604E+01 -0.42602663774E+02  0.60572290807E+02  0.74155563246E+02  0.10000000000E+01 0.  0.
    9000005    1    3    3    0    0  0.37494247604E+01  0.42602663774E+02  0.42880286463E+03  0.43093148163E+03  0.10000000000E+01 0.  0.
<mgrwt>
<rscale>  0 0.12499952E+03</rscale>
<asrwt>0</asrwt>
<pdfrwt beam="2">  1        4 0.12086066E-02 0.12499952E+03</pdfrwt>
<pdfrwt beam="1">  1       -4 0.76497110E-01 0.12499952E+03</pdfrwt>
<totfact> 0.55472398E+03</totfact>
</mgrwt>
</event>
<event>
 5    1  0.3327068E-002  0.1250004E+03  0.7818608E-02  0.1235069E+00
         -4   -1    0    0    0  501 -0.00000000000E+00  0.00000000000E+00  0.43795933242E+03  0.43796117380E+03  0.12700000000E+01 0. -1.
          4   -1    0    0  501    0  0.00000000000E+00 -0.00000000000E+00 -0.88721867949E+01  0.89626223017E+01  0.12700000000E+01 0. -1.
         25    2    1    2    0    0  0.00000000000E+00  0.00000000000E+00  0.42908714563E+03  0.44692379610E+03  0.12500040391E+03 0.  0.
    9000005    1    3    3    0    0 -0.23077492181E+02  0.15818161221E+02  0.14754092709E+02  0.31645981126E+02  0.10000000000E+01 0.  0.
    9000005    1    3    3    0    0  0.23077492181E+02 -0.15818161221E+02  0.41433305292E+03  0.41527781498E+03  0.10000000000E+01 0.  0.
<mgrwt>
<rscale>  0 0.12500040E+03</rscale>
<asrwt>0</asrwt>
<pdfrwt beam="2">  1        4 0.13720501E-02 0.12500040E+03</pdfrwt>
<pdfrwt beam="1">  1       -4 0.67385455E-01 0.12500040E+03</pdfrwt>
<totfact> 0.60230679E+03</totfact>
</mgrwt>
</event>
<event>
 5    1  0.3327068E-002  0.1249857E+03  0.7818608E-02  0.1235092E+00
         -4   -1    0    0    0  501 -0.00000000000E+00  0.00000000000E+00  0.11106278413E+03  0.11107004510E+03  0.12700000000E+01 0.  1.
          4   -1    0    0  501    0  0.00000000000E+00 -0.00000000000E+00 -0.35143640351E+02  0.35166580117E+02  0.12700000000E+01 0.  1.
         25    2    1    2    0    0  0.00000000000E+00  0.00000000000E+00  0.75919143782E+02  0.14623662522E+03  0.12498573584E+03 0.  0.
    9000005    1    3    3    0    0  0.51962889099E+02 -0.10531514258E+02  0.76646669948E+02  0.93202825334E+02  0.10000000000E+01 0.  0.
    9000005    1    3    3    0    0 -0.51962889099E+02  0.10531514258E+02 -0.72752616619E+00  0.53033799886E+02  0.10000000000E+01 0.  0.
<mgrwt>
<rscale>  0 0.12498574E+03</rscale>
<asrwt>0</asrwt>
<pdfrwt beam="2">  1        4 0.54090372E-02 0.12498574E+03</pdfrwt>
<pdfrwt beam="1">  1       -4 0.17088905E-01 0.12498574E+03</pdfrwt>
<totfact> 0.10009137E+04</totfact>
</mgrwt>
</event>
<event>
 5    1  0.3327068E-002  0.1249975E+03  0.7818608E-02  0.1235073E+00
          4   -1    0    0  501    0  0.00000000000E+00  0.00000000000E+00  0.22453673686E+02  0.22489561178E+02  0.12700000000E+01 0. -1.
         -4   -1    0    0    0  501 -0.00000000000E+00 -0.00000000000E+00 -0.17378522589E+03  0.17378986633E+03  0.12700000000E+01 0. -1.
         25    2    1    2    0    0  0.00000000000E+00  0.00000000000E+00 -0.15133155221E+03  0.19627942751E+03  0.12499749985E+03 0.  0.
    9000005    1    3    3    0    0 -0.61795171394E+02  0.44503321974E+01 -0.88484874956E+02  0.10802324639E+03  0.10000000000E+01 0.  0.
    9000005    1    3    3    0    0  0.61795171394E+02 -0.44503321974E+01 -0.62846677251E+02  0.88256181119E+02  0.10000000000E+01 0.  0.
<mgrwt>
<rscale>  0 0.12499750E+03</rscale>
<asrwt>0</asrwt>
<pdfrwt beam="1">  1        4 0.34575290E-02 0.12499750E+03</pdfrwt>
<pdfrwt beam="2">  1       -4 0.26739305E-01 0.12499750E+03</pdfrwt>
<totfact> 0.90771129E+03</totfact>
</mgrwt>
</event>
<event>
 5    1  0.3327068E-002  0.1250025E+03  0.7818608E-02  0.1235065E+00
         -4   -1    0    0    0  501 -0.00000000000E+00  0.00000000000E+00  0.35245186261E+02  0.35268059977E+02  0.12700000000E+01 0.  1.
          4   -1    0    0  501    0  0.00000000000E+00 -0.00000000000E+00 -0.11077279013E+03  0.11078007011E+03  0.12700000000E+01 0.  1.
         25    2    1    2    0    0  0.00000000000E+00  0.00000000000E+00 -0.75527603873E+02  0.14604813009E+03  0.12500254940E+03 0.  0.
    9000005    1    3    3    0    0  0.29217345707E+02  0.19425442627E+02 -0.98185229258E+02  0.10427051528E+03  0.10000000000E+01 0.  0.
    9000005    1    3    3    0    0 -0.29217345707E+02 -0.19425442627E+02  0.22657625386E+02  0.41777614813E+02  0.10000000000E+01 0.  0.
<mgrwt>
<rscale>  0 0.12500255E+03</rscale>
<asrwt>0</asrwt>
<pdfrwt beam="2">  1        4 0.17044287E-01 0.12500255E+03</pdfrwt>
<pdfrwt beam="1">  1       -4 0.54246559E-02 0.12500255E+03</pdfrwt>
<totfact> 0.10009162E+04</totfact>
</mgrwt>
</event>
<event>
 5    1  0.3327068E-002  0.1249958E+03  0.7818608E-02  0.1235076E+00
         -4   -1    0    0    0  501 -0.00000000000E+00  0.00000000000E+00  0.27440570166E+03  0.27440864054E+03  0.12700000000E+01 0.  1.
          4   -1    0    0  501    0  0.00000000000E+00 -0.00000000000E+00 -0.14202997071E+02  0.14259664295E+02  0.12700000000E+01 0.  1.
         25    2    1    2    0    0  0.00000000000E+00  0.00000000000E+00  0.26020270459E+03  0.28866830483E+03  0.12499577089E+03 0.  0.
    9000005    1    3    3    0    0  0.42291161875E+02 -0.39004442689E+02  0.73763851582E+02  0.93552096301E+02  0.10000000000E+01 0.  0.
    9000005    1    3    3    0    0 -0.42291161875E+02  0.39004442689E+02  0.18643885301E+03  0.19511620853E+03  0.10000000000E+01 0.  0.
<mgrwt>
<rscale>  0 0.12499577E+03</rscale>
<asrwt>0</asrwt>
<pdfrwt beam="2">  1        4 0.21896615E-02 0.12499577E+03</pdfrwt>
<pdfrwt beam="1">  1       -4 0.42220849E-01 0.12499577E+03</pdfrwt>
<totfact> 0.77049848E+03</totfact>
</mgrwt>
</event>
<event>
 5    1  0.3327068E-002  0.1249978E+03  0.7818608E-02  0.1235073E+00
         -4   -1    0    0    0  501 -0.00000000000E+00  0.00000000000E+00  0.50264435217E+02  0.50280476805E+02  0.12700000000E+01 0.  1.
          4   -1    0    0  501    0  0.00000000000E+00 -0.00000000000E+00 -0.77677686641E+02  0.77688067951E+02  0.12700000000E+01 0.  1.
         25    2    1    2    0    0  0.00000000000E+00  0.00000000000E+00 -0.27413251424E+02  0.12796854476E+03  0.12499784835E+03 0.  0.
    9000005    1    3    3    0    0  0.14930690592E+02 -0.22352294136E+02  0.44048340156E+02  0.51612080419E+02  0.10000000000E+01 0.  0.
    9000005    1    3    3    0    0 -0.14930690592E+02  0.22352294136E+02 -0.71461591580E+02  0.76356464336E+02  0.10000000000E+01 0.  0.
<mgrwt>
<rscale>  0 0.12499785E+03</rscale>
<asrwt>0</asrwt>
<pdfrwt beam="2">  1        4 0.11952446E-01 0.12499785E+03</pdfrwt>
<pdfrwt beam="1">  1       -4 0.77350226E-02 0.12499785E+03</pdfrwt>
<totfact> 0.10388672E+04</totfact>
</mgrwt>
</event>
<event>
 5    1  0.3327068E-002  0.1249960E+03  0.7818608E-02  0.1235076E+00
          4   -1    0    0  501    0  0.00000000000E+00  0.00000000000E+00  0.79079568475E+02  0.79089765775E+02  0.12700000000E+01 0.  1.
         -4   -1    0    0    0  501 -0.00000000000E+00 -0.00000000000E+00 -0.49371730823E+02  0.49388062368E+02  0.12700000000E+01 0.  1.
         25    2    1    2    0    0  0.00000000000E+00  0.00000000000E+00  0.29707837652E+02  0.12847782814E+03  0.12499598676E+03 0.  0.
    9000005    1    3    3    0    0 -0.46927165128E+02 -0.25352938272E+02  0.48319560591E+02  0.71977150831E+02  0.10000000000E+01 0.  0.
    9000005    1    3    3    0    0  0.46927165128E+02  0.25352938272E+02 -0.18611722939E+02  0.56500677312E+02  0.10000000000E+01 0.  0.
<mgrwt>
<rscale>  0 0.12499599E+03</rscale>
<asrwt>0</asrwt>
<pdfrwt beam="1">  1        4 0.12168128E-01 0.12499599E+03</pdfrwt>
<pdfrwt beam="2">  1       -4 0.75976917E-02 0.12499599E+03</pdfrwt>
<totfact> 0.10378122E+04</totfact>
</mgrwt>
</event>
<event>
 5    1  0.3327068E-002  0.1249948E+03  0.7818608E-02  0.1235077E+00
         -4   -1    0    0    0  501 -0.00000000000E+00  0.00000000000E+00  0.66003855175E+03  0.66003977357E+03  0.12700000000E+01 0. -1.
          4   -1    0    0  501    0  0.00000000000E+00 -0.00000000000E+00 -0.58483408746E+01  0.59846462707E+01  0.12700000000E+01 0. -1.
         25    2    1    2    0    0  0.00000000000E+00  0.00000000000E+00  0.65419021087E+03  0.66602441984E+03  0.12499478317E+03 0.  0.
    9000005    1    3    3    0    0 -0.37091051274E+02 -0.35308278286E+02  0.51791669988E+03  0.52044320402E+03  0.10000000000E+01 0.  0.
    9000005    1    3    3    0    0  0.37091051274E+02  0.35308278286E+02  0.13627351100E+03  0.14558121582E+03  0.10000000000E+01 0.  0.
<mgrwt>
<rscale>  0 0.12499478E+03</rscale>
<asrwt>0</asrwt>
<pdfrwt beam="2">  1        4 0.91032371E-03 0.12499478E+03</pdfrwt>
<pdfrwt beam="1">  1       -4 0.10155498E+00 0.12499478E+03</pdfrwt>
<totfact> 0.44946998E+03</totfact>
</mgrwt>
</event>
<event>
 5    1  0.3327068E-002  0.1249988E+03  0.7818608E-02  0.1235071E+00
          4   -1    0    0  501    0  0.00000000000E+00  0.00000000000E+00  0.48428321171E+02  0.48444970755E+02  0.12700000000E+01 0. -1.
         -4   -1    0    0    0  501 -0.00000000000E+00 -0.00000000000E+00 -0.80623375718E+02  0.80633377780E+02  0.12700000000E+01 0. -1.
         25    2    1    2    0    0  0.00000000000E+00  0.00000000000E+00 -0.32195054547E+02  0.12907834853E+03  0.12499879409E+03 0.  0.
    9000005    1    3    3    0    0 -0.85274769444E+01 -0.57222749495E+02 -0.40490796606E+02  0.70623406407E+02  0.10000000000E+01 0.  0.
    9000005    1    3    3    0    0  0.85274769444E+01  0.57222749495E+02  0.82957420589E+01  0.58454942128E+02  0.10000000000E+01 0.  0.
<mgrwt>
<rscale>  0 0.12499879E+03</rscale>
<asrwt>0</asrwt>
<pdfrwt beam="1">  1        4 0.74525611E-02 0.12499879E+03</pdfrwt>
<pdfrwt beam="2">  1       -4 0.12405646E-01 0.12499879E+03</pdfrwt>
<totfact> 0.10364546E+04</totfact>
</mgrwt>
</event>
<event>
 5    1  0.3327068E-002  0.1250227E+03  0.7818608E-02  0.1235034E+00
         -4   -1    0    0    0  501 -0.00000000000E+00  0.00000000000E+00  0.16791784356E+03  0.16792264614E+03  0.12700000000E+01 0.  1.
          4   -1    0    0  501    0  0.00000000000E+00 -0.00000000000E+00 -0.23248830685E+02  0.23283492612E+02  0.12700000000E+01 0.  1.
         25    2    1    2    0    0  0.00000000000E+00  0.00000000000E+00  0.14466901288E+03  0.19120613875E+03  0.12502265478E+03 0.  0.
    9000005    1    3    3    0    0  0.45203401595E+02 -0.42749168295E+02  0.81488681753E+02  0.10252923563E+03  0.10000000000E+01 0.  0.
    9000005    1    3    3    0    0 -0.45203401595E+02  0.42749168295E+02  0.63180331122E+02  0.88676903117E+02  0.10000000000E+01 0.  0.
<mgrwt>
<rscale>  0 0.12502265E+03</rscale>
<asrwt>0</asrwt>
<pdfrwt beam="2">  1        4 0.35797791E-02 0.12502265E+03</pdfrwt>
<pdfrwt beam="1">  1       -4 0.25836549E-01 0.12502265E+03</pdfrwt>
<totfact> 0.91591392E+03</totfact>
</mgrwt>
</event>
<event>
 5    1  0.3327068E-002  0.1249992E+03  0.7818608E-02  0.1235071E+00
         -4   -1    0    0    0  501 -0.00000000000E+00  0.00000000000E+00  0.25262110620E+02  0.25294013778E+02  0.12700000000E+01 0.  1.
          4   -1    0    0  501    0  0.00000000000E+00 -0.00000000000E+00 -0.15449467120E+03  0.15449989104E+03  0.12700000000E+01 0.  1.
         25    2    1    2    0    0  0.00000000000E+00  0.00000000000E+00 -0.12923256058E+03  0.17979390481E+03  0.12499917397E+03 0.  0.
    9000005    1    3    3    0    0  0.35913515201E+02  0.29898187960E+02 -0.49370280472E+01  0.47000600669E+02  0.10000000000E+01 0.  0.
    9000005    1    3    3    0    0 -0.35913515201E+02 -0.29898187960E+02 -0.12429553254E+03  0.13279330414E+03  0.10000000000E+01 0.  0.
<mgrwt>
<rscale>  0 0.12499917E+03</rscale>
<asrwt>0</asrwt>
<pdfrwt beam="2">  1        4 0.23771266E-01 0.12499917E+03</pdfrwt>
<pdfrwt beam="1">  1       -4 0.38893343E-02 0.12499917E+03</pdfrwt>
<totfact> 0.93655849E+03</totfact>
</mgrwt>
</event>
<event>
 5    1  0.3327068E-002  0.1250050E+03  0.7818608E-02  0.1235062E+00
          4   -1    0    0  501    0  0.00000000000E+00  0.00000000000E+00  0.53114573046E+02  0.53129754092E+02  0.12700000000E+01 0. -1.
         -4   -1    0    0    0  501 -0.00000000000E+00 -0.00000000000E+00 -0.73518513353E+02  0.73529481881E+02  0.12700000000E+01 0. -1.
         25    2    1    2    0    0  0.00000000000E+00  0.00000000000E+00 -0.20403940307E+02  0.12665923597E+03  0.12500496501E+03 0.  0.
    9000005    1    3    3    0    0 -0.26962297195E+02 -0.56142187628E+02 -0.49713270144E+01  0.62486997000E+02  0.10000000000E+01 0.  0.
    9000005    1    3    3    0    0  0.26962297195E+02  0.56142187628E+02 -0.15432613293E+02  0.64172238973E+02  0.10000000000E+01 0.  0.
<mgrwt>
<rscale>  0 0.12500497E+03</rscale>
<asrwt>0</asrwt>
<pdfrwt beam="1">  1        4 0.81734843E-02 0.12500497E+03</pdfrwt>
<pdfrwt beam="2">  1       -4 0.11312552E-01 0.12500497E+03</pdfrwt>
<totfact> 0.10415391E+04</totfact>
</mgrwt>
</event>
<event>
 5    1  0.3327068E-002  0.1249981E+03  0.7818608E-02  0.1235072E+00
         -4   -1    0    0    0  501 -0.00000000000E+00  0.00000000000E+00  0.54733694502E+01  0.56187786162E+01  0.12700000000E+01 0.  1.
          4   -1    0    0  501    0  0.00000000000E+00 -0.00000000000E+00 -0.70416018001E+03  0.70416132527E+03  0.12700000000E+01 0.  1.
         25    2    1    2    0    0  0.00000000000E+00  0.00000000000E+00 -0.69868681056E+03  0.70978010389E+03  0.12499814650E+03 0.  0.
    9000005    1    3    3    0    0  0.58216596442E+01  0.11933472562E+02 -0.26011161760E+01  0.13567066513E+02  0.10000000000E+01 0.  0.
    9000005    1    3    3    0    0 -0.58216596442E+01 -0.11933472562E+02 -0.69608569438E+03  0.69621303737E+03  0.10000000000E+01 0.  0.
<mgrwt>
<rscale>  0 0.12499815E+03</rscale>
<asrwt>0</asrwt>
<pdfrwt beam="2">  1        4 0.10834354E+00 0.12499815E+03</pdfrwt>
<pdfrwt beam="1">  1       -4 0.85333081E-03 0.12499815E+03</pdfrwt>
<totfact> 0.42577173E+03</totfact>
</mgrwt>
</event>
<event>
 5    1  0.3327068E-002  0.1250139E+03  0.7818608E-02  0.1235047E+00
          4   -1    0    0  501    0  0.00000000000E+00  0.00000000000E+00  0.21481350771E+02  0.21518859889E+02  0.12700000000E+01 0. -1.
         -4   -1    0    0    0  501 -0.00000000000E+00 -0.00000000000E+00 -0.18168596265E+03  0.18169040130E+03  0.12700000000E+01 0. -1.
         25    2    1    2    0    0  0.00000000000E+00  0.00000000000E+00 -0.16020461188E+03  0.20320926119E+03  0.12501394388E+03 0.  0.
    9000005    1    3    3    0    0 -0.40013867873E+02 -0.47061747022E+02 -0.95540541570E+02  0.11377571243E+03  0.10000000000E+01 0.  0.
    9000005    1    3    3    0    0  0.40013867873E+02  0.47061747022E+02 -0.64664070309E+02  0.89433548760E+02  0.10000000000E+01 0.  0.
<mgrwt>
<rscale>  0 0.12501394E+03</rscale>
<asrwt>0</asrwt>
<pdfrwt beam="1">  1        4 0.33080501E-02 0.12501394E+03</pdfrwt>
<pdfrwt beam="2">  1       -4 0.27954912E-01 0.12501394E+03</pdfrwt>
<totfact> 0.89569105E+03</totfact>
</mgrwt>
</event>
<event>
 5    1  0.3327068E-002  0.1250212E+03  0.7818608E-02  0.1235036E+00
         -4   -1    0    0    0  501 -0.00000000000E+00  0.00000000000E+00  0.33829838553E+02  0.33853668583E+02  0.12700000000E+01 0.  1.
          4   -1    0    0  501    0  0.00000000000E+00 -0.00000000000E+00 -0.11543876503E+03  0.11544575078E+03  0.12700000000E+01 0.  1.
         25    2    1    2    0    0  0.00000000000E+00  0.00000000000E+00 -0.81608926480E+02  0.14929941936E+03  0.12502119716E+03 0.  0.
    9000005    1    3    3    0    0  0.60567972423E+01  0.58516824899E+02 -0.66014984286E+02  0.88430095213E+02  0.10000000000E+01 0.  0.
    9000005    1    3    3    0    0 -0.60567972423E+01 -0.58516824899E+02 -0.15593942194E+02  0.60869324148E+02  0.10000000000E+01 0.  0.
<mgrwt>
<rscale>  0 0.12502120E+03</rscale>
<asrwt>0</asrwt>
<pdfrwt beam="2">  1        4 0.17762180E-01 0.12502120E+03</pdfrwt>
<pdfrwt beam="1">  1       -4 0.52069610E-02 0.12502120E+03</pdfrwt>
<totfact> 0.99396103E+03</totfact>
</mgrwt>
</event>
<event>
 5    1  0.3327068E-002  0.1249997E+03  0.7818608E-02  0.1235070E+00
          4   -1    0    0  501    0  0.00000000000E+00  0.00000000000E+00  0.52701403836E+02  0.52716703864E+02  0.12700000000E+01 0.  1.
         -4   -1    0    0    0  501 -0.00000000000E+00 -0.00000000000E+00 -0.74088512890E+02  0.74099397044E+02  0.12700000000E+01 0.  1.
         25    2    1    2    0    0  0.00000000000E+00  0.00000000000E+00 -0.21387109054E+02  0.12681610091E+03  0.12499966006E+03 0.  0.
    9000005    1    3    3    0    0 -0.10417524538E+02 -0.42846857785E+02  0.34231418979E+02  0.55831604713E+02  0.10000000000E+01 0.  0.
    9000005    1    3    3    0    0  0.10417524538E+02  0.42846857785E+02 -0.55618528033E+02  0.70984496195E+02  0.10000000000E+01 0.  0.
<mgrwt>
<rscale>  0 0.12499966E+03</rscale>
<asrwt>0</asrwt>
<pdfrwt beam="1">  1        4 0.81099225E-02 0.12499966E+03</pdfrwt>
<pdfrwt beam="2">  1       -4 0.11400247E-01 0.12499966E+03</pdfrwt>
<totfact> 0.10413223E+04</totfact>
</mgrwt>
</event>
<event>
 5    1  0.3327068E-002  0.1249996E+03  0.7818608E-02  0.1235070E+00
          4   -1    0    0  501    0  0.00000000000E+00  0.00000000000E+00  0.60033467786E+03  0.60033602119E+03  0.12700000000E+01 0. -1.
         -4   -1    0    0    0  501 -0.00000000000E+00 -0.00000000000E+00 -0.64434071918E+01  0.65673736181E+01  0.12700000000E+01 0. -1.
         25    2    1    2    0    0  0.00000000000E+00  0.00000000000E+00  0.59389127067E+03  0.60690339481E+03  0.12499955703E+03 0.  0.
    9000005    1    3    3    0    0 -0.24076663423E+02  0.33608064151E+02  0.52447145296E+03  0.52609931825E+03  0.10000000000E+01 0.  0.
    9000005    1    3    3    0    0  0.24076663423E+02 -0.33608064151E+02  0.69419817710E+02  0.80804076558E+02  0.10000000000E+01 0.  0.
<mgrwt>
<rscale>  0 0.12499956E+03</rscale>
<asrwt>0</asrwt>
<pdfrwt beam="1">  1        4 0.92368831E-01 0.12499956E+03</pdfrwt>
<pdfrwt beam="2">  1       -4 0.10009325E-02 0.12499956E+03</pdfrwt>
<totfact> 0.48435193E+03</totfact>
</mgrwt>
</event>
<event>
 5    1  0.3327068E-002  0.1250223E+03  0.7818608E-02  0.1235034E+00
          4   -1    0    0  501    0  0.00000000000E+00  0.00000000000E+00  0.43820304313E+03  0.43820488348E+03  0.12700000000E+01 0. -1.
         -4   -1    0    0    0  501 -0.00000000000E+00 -0.00000000000E+00 -0.88703406118E+01  0.89607947510E+01  0.12700000000E+01 0. -1.
         25    2    1    2    0    0  0.00000000000E+00  0.00000000000E+00  0.42933270252E+03  0.44716567823E+03  0.12502229537E+03 0.  0.
    9000005    1    3    3    0    0 -0.82691115088E+01 -0.47270019118E+02  0.35790411883E+03  0.36110828180E+03  0.10000000000E+01 0.  0.
    9000005    1    3    3    0    0  0.82691115088E+01  0.47270019118E+02  0.71428583689E+02  0.86057396430E+02  0.10000000000E+01 0.  0.
<mgrwt>
<rscale>  0 0.12502230E+03</rscale>
<asrwt>0</asrwt>
<pdfrwt beam="1">  1        4 0.67422940E-01 0.12502230E+03</pdfrwt>
<pdfrwt beam="2">  1       -4 0.13717676E-02 0.12502230E+03</pdfrwt>
<totfact> 0.60180562E+03</totfact>
</mgrwt>
</event>
<event>
 5    1  0.3327068E-002  0.1250032E+03  0.7818608E-02  0.1235064E+00
         -4   -1    0    0    0  501 -0.00000000000E+00  0.00000000000E+00  0.22451397367E+02  0.22487288492E+02  0.12700000000E+01 0.  1.
          4   -1    0    0  501    0  0.00000000000E+00 -0.00000000000E+00 -0.17381860290E+03  0.17382324245E+03  0.12700000000E+01 0.  1.
         25    2    1    2    0    0  0.00000000000E+00  0.00000000000E+00 -0.15136720554E+03  0.19631053094E+03  0.12500317454E+03 0.  0.
    9000005    1    3    3    0    0 -0.14939992066E+02 -0.56909997082E+02 -0.10875617974E+03  0.12365620794E+03  0.10000000000E+01 0.  0.
    9000005    1    3    3    0    0  0.14939992066E+02  0.56909997082E+02 -0.42611025795E+02  0.72654322997E+02  0.10000000000E+01 0.  0.
<mgrwt>
<rscale>  0 0.12500317E+03</rscale>
<asrwt>0</asrwt>
<pdfrwt beam="2">  1        4 0.26744440E-01 0.12500317E+03</pdfrwt>
<pdfrwt beam="1">  1       -4 0.34571790E-02 0.12500317E+03</pdfrwt>
<totfact> 0.90754299E+03</totfact>
</mgrwt>
</event>
<event>
 5    1  0.3327068E-002  0.1250005E+03  0.7818608E-02  0.1235068E+00
          4   -1    0    0  501    0  0.00000000000E+00  0.00000000000E+00  0.69025378020E+02  0.69037060416E+02  0.12700000000E+01 0.  1.
         -4   -1    0    0    0  501 -0.00000000000E+00 -0.00000000000E+00 -0.56568382812E+02  0.56582637213E+02  0.12700000000E+01 0.  1.
         25    2    1    2    0    0  0.00000000000E+00  0.00000000000E+00  0.12456995208E+02  0.12561969763E+03  0.12500052681E+03 0.  0.
    9000005    1    3    3    0    0  0.25528171690E+02 -0.27981226731E+02  0.56180303136E+02  0.67763286961E+02  0.10000000000E+01 0.  0.
    9000005    1    3    3    0    0 -0.25528171690E+02  0.27981226731E+02 -0.43723307928E+02  0.57856410668E+02  0.10000000000E+01 0.  0.
<mgrwt>
<rscale>  0 0.12500053E+03</rscale>
<asrwt>0</asrwt>
<pdfrwt beam="1">  1        4 0.10621284E-01 0.12500053E+03</pdfrwt>
<pdfrwt beam="2">  1       -4 0.87048233E-02 0.12500053E+03</pdfrwt>
<totfact> 0.10439189E+04</totfact>
</mgrwt>
</event>
<event>
 5    1  0.3327068E-002  0.1250019E+03  0.7818608E-02  0.1235066E+00
         -4   -1    0    0    0  501 -0.00000000000E+00  0.00000000000E+00  0.17158653679E+02  0.17205589095E+02  0.12700000000E+01 0. -1.
          4   -1    0    0  501    0  0.00000000000E+00 -0.00000000000E+00 -0.22730220780E+03  0.22730575570E+03  0.12700000000E+01 0. -1.
         25    2    1    2    0    0  0.00000000000E+00  0.00000000000E+00 -0.21014355413E+03  0.24451134479E+03  0.12500193755E+03 0.  0.
    9000005    1    3    3    0    0 -0.54603645465E+02 -0.29983852321E+02 -0.95334288987E+02  0.11388685681E+03  0.10000000000E+01 0.  0.
    9000005    1    3    3    0    0  0.54603645465E+02  0.29983852321E+02 -0.11480926514E+03  0.13062448798E+03  0.10000000000E+01 0.  0.
<mgrwt>
<rscale>  0 0.12500194E+03</rscale>
<asrwt>0</asrwt>
<pdfrwt beam="2">  1        4 0.34973452E-01 0.12500194E+03</pdfrwt>
<pdfrwt beam="1">  1       -4 0.26436764E-02 0.12500194E+03</pdfrwt>
<totfact> 0.83126449E+03</totfact>
</mgrwt>
</event>
<event>
 5    1  0.3327068E-002  0.1250002E+03  0.7818608E-02  0.1235069E+00
          4   -1    0    0  501    0  0.00000000000E+00  0.00000000000E+00  0.39229629252E+02  0.39250181035E+02  0.12700000000E+01 0.  1.
         -4   -1    0    0    0  501 -0.00000000000E+00 -0.00000000000E+00 -0.99523670906E+02  0.99531773674E+02  0.12700000000E+01 0.  1.
         25    2    1    2    0    0  0.00000000000E+00  0.00000000000E+00 -0.60294041654E+02  0.13878195471E+03  0.12500023797E+03 0.  0.
    9000005    1    3    3    0    0  0.34864790719E+02 -0.47016638160E+02 -0.54449833362E+02  0.79949373036E+02  0.10000000000E+01 0.  0.
    9000005    1    3    3    0    0 -0.34864790719E+02  0.47016638160E+02 -0.58442082928E+01  0.58832581673E+02  0.10000000000E+01 0.  0.
<mgrwt>
<rscale>  0 0.12500024E+03</rscale>
<asrwt>0</asrwt>
<pdfrwt beam="1">  1        4 0.60375318E-02 0.12500024E+03</pdfrwt>
<pdfrwt beam="2">  1       -4 0.15313538E-01 0.12500024E+03</pdfrwt>
<totfact> 0.10158838E+04</totfact>
</mgrwt>
</event>
<event>
 5    1  0.3327068E-002  0.1250022E+03  0.7818608E-02  0.1235066E+00
         -4   -1    0    0    0  501 -0.00000000000E+00  0.00000000000E+00  0.18772281538E+02  0.18815192110E+02  0.12700000000E+01 0.  1.
          4   -1    0    0  501    0  0.00000000000E+00 -0.00000000000E+00 -0.20781082296E+03  0.20781470362E+03  0.12700000000E+01 0.  1.
         25    2    1    2    0    0  0.00000000000E+00  0.00000000000E+00 -0.18903854142E+03  0.22662989573E+03  0.12500215796E+03 0.  0.
    9000005    1    3    3    0    0 -0.19896163113E+02 -0.45588708705E+02 -0.25931067120E+02  0.56103546322E+02  0.10000000000E+01 0.  0.
    9000005    1    3    3    0    0  0.19896163113E+02  0.45588708705E+02 -0.16310747430E+03  0.17052634940E+03  0.10000000000E+01 0.  0.
<mgrwt>
<rscale>  0 0.12500216E+03</rscale>
<asrwt>0</asrwt>
<pdfrwt beam="2">  1        4 0.31974494E-01 0.12500216E+03</pdfrwt>
<pdfrwt beam="1">  1       -4 0.28916428E-02 0.12500216E+03</pdfrwt>
<totfact> 0.85825648E+03</totfact>
</mgrwt>
</event>
<event>
 5    1  0.3327068E-002  0.1250018E+03  0.7818608E-02  0.1235066E+00
          4   -1    0    0  501    0  0.00000000000E+00  0.00000000000E+00  0.31345989946E+02  0.31371706771E+02  0.12700000000E+01 0. -1.
         -4   -1    0    0    0  501 -0.00000000000E+00 -0.00000000000E+00 -0.12454082932E+03  0.12454730454E+03  0.12700000000E+01 0. -1.
         25    2    1    2    0    0  0.00000000000E+00  0.00000000000E+00 -0.93194839373E+02  0.15591901131E+03  0.12500183999E+03 0.  0.
    9000005    1    3    3    0    0  0.49004433395E+02  0.36667674030E+02 -0.62346073248E+02  0.87372682576E+02  0.10000000000E+01 0.  0.
    9000005    1    3    3    0    0 -0.49004433395E+02 -0.36667674030E+02 -0.30848766125E+02  0.68546328731E+02  0.10000000000E+01 0.  0.
<mgrwt>
<rscale>  0 0.12500184E+03</rscale>
<asrwt>0</asrwt>
<pdfrwt beam="1">  1        4 0.48249364E-02 0.12500184E+03</pdfrwt>
<pdfrwt beam="2">  1       -4 0.19162604E-01 0.12500184E+03</pdfrwt>
<totfact> 0.98131327E+03</totfact>
</mgrwt>
</event>
<event>
 5    1  0.3327068E-002  0.1249996E+03  0.7818608E-02  0.1235070E+00
          4   -1    0    0  501    0  0.00000000000E+00  0.00000000000E+00  0.15054569483E+02  0.15108042968E+02  0.12700000000E+01 0.  1.
         -4   -1    0    0    0  501 -0.00000000000E+00 -0.00000000000E+00 -0.25895584993E+03  0.25895896415E+03  0.12700000000E+01 0.  1.
         25    2    1    2    0    0  0.00000000000E+00  0.00000000000E+00 -0.24390128044E+03  0.27406700711E+03  0.12499955914E+03 0.  0.
    9000005    1    3    3    0    0  0.50271791375E+02  0.36766572101E+02 -0.11073033847E+03  0.12704818649E+03  0.10000000000E+01 0.  0.
    9000005    1    3    3    0    0 -0.50271791375E+02 -0.36766572101E+02 -0.13317094197E+03  0.14701882062E+03  0.10000000000E+01 0.  0.
<mgrwt>
<rscale>  0 0.12499956E+03</rscale>
<asrwt>0</asrwt>
<pdfrwt beam="1">  1        4 0.23204407E-02 0.12499956E+03</pdfrwt>
<pdfrwt beam="2">  1       -4 0.39843711E-01 0.12499956E+03</pdfrwt>
<totfact> 0.78972187E+03</totfact>
</mgrwt>
</event>
<event>
 5    1  0.3327068E-002  0.1249968E+03  0.7818608E-02  0.1235074E+00
         -4   -1    0    0    0  501 -0.00000000000E+00  0.00000000000E+00  0.72585771314E+02  0.72596880768E+02  0.12700000000E+01 0. -1.
          4   -1    0    0  501    0  0.00000000000E+00 -0.00000000000E+00 -0.53790184350E+02  0.53805174774E+02  0.12700000000E+01 0. -1.
         25    2    1    2    0    0  0.00000000000E+00  0.00000000000E+00  0.18795586964E+02  0.12640205554E+03  0.12499682218E+03 0.  0.
    9000005    1    3    3    0    0 -0.32573754551E+02 -0.25059843933E+02  0.57001486154E+02  0.70279546720E+02  0.10000000000E+01 0.  0.
    9000005    1    3    3    0    0  0.32573754551E+02  0.25059843933E+02 -0.38205899190E+02  0.56122508822E+02  0.10000000000E+01 0.  0.
<mgrwt>
<rscale>  0 0.12499682E+03</rscale>
<asrwt>0</asrwt>
<pdfrwt beam="2">  1        4 0.82774207E-02 0.12499682E+03</pdfrwt>
<pdfrwt beam="1">  1       -4 0.11169049E-01 0.12499682E+03</pdfrwt>
<totfact> 0.10422912E+04</totfact>
</mgrwt>
</event>
<event>
 5    1  0.3327068E-002  0.1249992E+03  0.7818608E-02  0.1235070E+00
          4   -1    0    0  501    0  0.00000000000E+00  0.00000000000E+00  0.62199166660E+02  0.62212130916E+02  0.12700000000E+01 0.  1.
         -4   -1    0    0    0  501 -0.00000000000E+00 -0.00000000000E+00 -0.62775601654E+02  0.62788446891E+02  0.12700000000E+01 0.  1.
         25    2    1    2    0    0  0.00000000000E+00  0.00000000000E+00 -0.57643499434E+00  0.12500057781E+03  0.12499924870E+03 0.  0.
    9000005    1    3    3    0    0 -0.37795428699E+02 -0.46418565805E+02 -0.18233473416E+02  0.62583042709E+02  0.10000000000E+01 0.  0.
    9000005    1    3    3    0    0  0.37795428699E+02  0.46418565805E+02  0.17657038421E+02  0.62417535098E+02  0.10000000000E+01 0.  0.
<mgrwt>
<rscale>  0 0.12499925E+03</rscale>
<asrwt>0</asrwt>
<pdfrwt beam="1">  1        4 0.95710879E-02 0.12499925E+03</pdfrwt>
<pdfrwt beam="2">  1       -4 0.96597702E-02 0.12499925E+03</pdfrwt>
<totfact> 0.10453027E+04</totfact>
</mgrwt>
</event>
<event>
 5    1  0.3327068E-002  0.1250002E+03  0.7818608E-02  0.1235069E+00
         -4   -1    0    0    0  501 -0.00000000000E+00  0.00000000000E+00  0.48587367978E+02  0.48603963080E+02  0.12700000000E+01 0. -1.
          4   -1    0    0  501    0  0.00000000000E+00 -0.00000000000E+00 -0.80361266254E+02  0.80371300935E+02  0.12700000000E+01 0. -1.
         25    2    1    2    0    0  0.00000000000E+00  0.00000000000E+00 -0.31773898276E+02  0.12897526401E+03  0.12500015246E+03 0.  0.
    9000005    1    3    3    0    0  0.29282947592E+01 -0.42184735147E+01 -0.80148257616E+02  0.80318824867E+02  0.10000000000E+01 0.  0.
    9000005    1    3    3    0    0 -0.29282947592E+01  0.42184735147E+01  0.48374359340E+02  0.48656439148E+02  0.10000000000E+01 0.  0.
<mgrwt>
<rscale>  0 0.12500015E+03</rscale>
<asrwt>0</asrwt>
<pdfrwt beam="2">  1        4 0.12365320E-01 0.12500015E+03</pdfrwt>
<pdfrwt beam="1">  1       -4 0.74770281E-02 0.12500015E+03</pdfrwt>
<totfact> 0.10366443E+04</totfact>
</mgrwt>
</event>
<event>
 5    1  0.3327068E-002  0.1250019E+03  0.7818608E-02  0.1235066E+00
          4   -1    0    0  501    0  0.00000000000E+00  0.00000000000E+00  0.15119000030E+03  0.15119533423E+03  0.12700000000E+01 0.  1.
         -4   -1    0    0    0  501 -0.00000000000E+00 -0.00000000000E+00 -0.25816080573E+02  0.25847299978E+02  0.12700000000E+01 0.  1.
         25    2    1    2    0    0  0.00000000000E+00  0.00000000000E+00  0.12537391973E+03  0.17704263421E+03  0.12500189830E+03 0.  0.
    9000005    1    3    3    0    0  0.34202543693E+01 -0.58047125329E+02  0.95114237199E+02  0.11148490937E+03  0.10000000000E+01 0.  0.
    9000005    1    3    3    0    0 -0.34202543693E+01  0.58047125329E+02  0.30259682533E+02  0.65557724838E+02  0.10000000000E+01 0.  0.
<mgrwt>
<rscale>  0 0.12500190E+03</rscale>
<asrwt>0</asrwt>
<pdfrwt beam="1">  1        4 0.23262812E-01 0.12500190E+03</pdfrwt>
<pdfrwt beam="2">  1       -4 0.39745165E-02 0.12500190E+03</pdfrwt>
<totfact> 0.94148055E+03</totfact>
</mgrwt>
</event>
<event>
 5    1  0.3327068E-002  0.1249986E+03  0.7818608E-02  0.1235072E+00
          4   -1    0    0  501    0  0.00000000000E+00  0.00000000000E+00  0.18976071759E+02  0.19018522535E+02  0.12700000000E+01 0.  1.
         -4   -1    0    0    0  501 -0.00000000000E+00 -0.00000000000E+00 -0.20557218990E+03  0.20557611281E+03  0.12700000000E+01 0.  1.
         25    2    1    2    0    0  0.00000000000E+00  0.00000000000E+00 -0.18659611814E+03  0.22459463535E+03  0.12499855568E+03 0.  0.
    9000005    1    3    3    0    0  0.39505111932E+02  0.48419300058E+02 -0.92798684772E+02  0.11188243107E+03  0.10000000000E+01 0.  0.
    9000005    1    3    3    0    0 -0.39505111932E+02 -0.48419300058E+02 -0.93797433367E+02  0.11271220428E+03  0.10000000000E+01 0.  0.
<mgrwt>
<rscale>  0 0.12499856E+03</rscale>
<asrwt>0</asrwt>
<pdfrwt beam="1">  1        4 0.29229630E-02 0.12499856E+03</pdfrwt>
<pdfrwt beam="2">  1       -4 0.31630056E-01 0.12499856E+03</pdfrwt>
<totfact> 0.86149269E+03</totfact>
</mgrwt>
</event>
<event>
 5    1  0.3327068E-002  0.1249955E+03  0.7818608E-02  0.1235076E+00
          4   -1    0    0  501    0  0.00000000000E+00  0.00000000000E+00  0.23363988463E+03  0.23364333628E+03  0.12700000000E+01 0.  1.
         -4   -1    0    0    0  501 -0.00000000000E+00 -0.00000000000E+00 -0.16690197870E+02  0.16738446909E+02  0.12700000000E+01 0.  1.
         25    2    1    2    0    0  0.00000000000E+00  0.00000000000E+00  0.21694968676E+03  0.25038178319E+03  0.12499548300E+03 0.  0.
    9000005    1    3    3    0    0 -0.31367908378E+02 -0.52516292453E+02  0.82895845990E+02  0.10302731643E+03  0.10000000000E+01 0.  0.
    9000005    1    3    3    0    0  0.31367908378E+02  0.52516292453E+02  0.13405384077E+03  0.14735446676E+03  0.10000000000E+01 0.  0.
<mgrwt>
<rscale>  0 0.12499548E+03</rscale>
<asrwt>0</asrwt>
<pdfrwt beam="1">  1        4 0.35948574E-01 0.12499548E+03</pdfrwt>
<pdfrwt beam="2">  1       -4 0.25716998E-02 0.12499548E+03</pdfrwt>
<totfact> 0.82283358E+03</totfact>
</mgrwt>
</event>
<event>
 5    1  0.3327068E-002  0.1250036E+03  0.7818608E-02  0.1235064E+00
         -4   -1    0    0    0  501 -0.00000000000E+00  0.00000000000E+00  0.35377411693E+02  0.35400199973E+02  0.12700000000E+01 0. -1.
          4   -1    0    0  501    0  0.00000000000E+00 -0.00000000000E+00 -0.11036078080E+03  0.11036808795E+03  0.12700000000E+01 0. -1.
         25    2    1    2    0    0  0.00000000000E+00  0.00000000000E+00 -0.74983369105E+02  0.14576828793E+03  0.12500355244E+03 0.  0.
    9000005    1    3    3    0    0  0.44004315896E+02 -0.44214801571E+02 -0.41877190303E+02  0.75140052989E+02  0.10000000000E+01 0.  0.
    9000005    1    3    3    0    0 -0.44004315896E+02  0.44214801571E+02 -0.33106178802E+02  0.70628234938E+02  0.10000000000E+01 0.  0.
<mgrwt>
<rscale>  0 0.12500355E+03</rscale>
<asrwt>0</asrwt>
<pdfrwt beam="2">  1        4 0.16980897E-01 0.12500355E+03</pdfrwt>
<pdfrwt beam="1">  1       -4 0.54449938E-02 0.12500355E+03</pdfrwt>
<totfact> 0.10014601E+04</totfact>
</mgrwt>
</event>
<event>
 5    1  0.3327068E-002  0.1250002E+03  0.7818608E-02  0.1235069E+00
          4   -1    0    0  501    0  0.00000000000E+00  0.00000000000E+00  0.16396675648E+03  0.16397167478E+03  0.12700000000E+01 0.  1.
         -4   -1    0    0    0  501 -0.00000000000E+00 -0.00000000000E+00 -0.23801294063E+02  0.23835152591E+02  0.12700000000E+01 0.  1.
         25    2    1    2    0    0  0.00000000000E+00  0.00000000000E+00  0.14016546242E+03  0.18780682737E+03  0.12500019021E+03 0.  0.
    9000005    1    3    3    0    0 -0.36462343336E+02 -0.49268248894E+02  0.51779984325E+02  0.80243564274E+02  0.10000000000E+01 0.  0.
    9000005    1    3    3    0    0  0.36462343336E+02  0.49268248894E+02  0.88385478091E+02  0.10756326310E+03  0.10000000000E+01 0.  0.
<mgrwt>
<rscale>  0 0.12500019E+03</rscale>
<asrwt>0</asrwt>
<pdfrwt beam="1">  1        4 0.25228638E-01 0.12500019E+03</pdfrwt>
<pdfrwt beam="2">  1       -4 0.36647203E-02 0.12500019E+03</pdfrwt>
<totfact> 0.92229931E+03</totfact>
</mgrwt>
</event>
<event>
 5    1  0.3327068E-002  0.1249975E+03  0.7818608E-02  0.1235073E+00
          4   -1    0    0  501    0  0.00000000000E+00  0.00000000000E+00  0.18261391156E+04  0.18261395572E+04  0.12700000000E+01 0.  1.
         -4   -1    0    0    0  501 -0.00000000000E+00 -0.00000000000E+00 -0.19499976425E+01  0.23270992256E+01  0.12700000000E+01 0.  1.
         25    2    1    2    0    0  0.00000000000E+00  0.00000000000E+00  0.18241891180E+04  0.18284666565E+04  0.12499750253E+03 0.  0.
    9000005    1    3    3    0    0 -0.30157856883E+02 -0.62996342309E+01  0.17073954577E+04  0.17076736898E+04  0.10000000000E+01 0.  0.
    9000005    1    3    3    0    0  0.30157856883E+02  0.62996342309E+01  0.11679366026E+03  0.12079296669E+03  0.10000000000E+01 0.  0.
<mgrwt>
<rscale>  0 0.12499750E+03</rscale>
<asrwt>0</asrwt>
<pdfrwt beam="1">  1        4 0.28097160E+00 0.12499750E+03</pdfrwt>
<pdfrwt beam="2">  1       -4 0.32904367E-03 0.12499750E+03</pdfrwt>
<totfact> 0.12270872E+03</totfact>
</mgrwt>
</event>
<event>
 5    1  0.3327068E-002  0.1250001E+03  0.7818608E-02  0.1235069E+00
         -4   -1    0    0    0  501 -0.00000000000E+00  0.00000000000E+00  0.80989937703E+02  0.80999894500E+02  0.12700000000E+01 0. -1.
          4   -1    0    0  501    0  0.00000000000E+00 -0.00000000000E+00 -0.48210130201E+02  0.48226855112E+02  0.12700000000E+01 0. -1.
         25    2    1    2    0    0  0.00000000000E+00  0.00000000000E+00  0.32779807501E+02  0.12922674961E+03  0.12500014814E+03 0.  0.
    9000005    1    3    3    0    0  0.57719637143E+02  0.20683919067E+02  0.28876301041E+02  0.67780688855E+02  0.10000000000E+01 0.  0.
    9000005    1    3    3    0    0 -0.57719637143E+02 -0.20683919067E+02  0.39035064603E+01  0.61446060757E+02  0.10000000000E+01 0.  0.
<mgrwt>
<rscale>  0 0.12500015E+03</rscale>
<asrwt>0</asrwt>
<pdfrwt beam="2">  1        4 0.74189956E-02 0.12500015E+03</pdfrwt>
<pdfrwt beam="1">  1       -4 0.12462043E-01 0.12500015E+03</pdfrwt>
<totfact> 0.10361042E+04</totfact>
</mgrwt>
</event>
<event>
 5    1  0.3327068E-002  0.1249965E+03  0.7818608E-02  0.1235075E+00
          4   -1    0    0  501    0  0.00000000000E+00  0.00000000000E+00  0.93007803092E+03  0.93007889800E+03  0.12700000000E+01 0.  1.
         -4   -1    0    0    0  501 -0.00000000000E+00 -0.00000000000E+00 -0.41027824413E+01  0.42948485142E+01  0.12700000000E+01 0.  1.
         25    2    1    2    0    0  0.00000000000E+00  0.00000000000E+00  0.92597524848E+03  0.93437374651E+03  0.12499654945E+03 0.  0.
    9000005    1    3    3    0    0  0.22854259066E+02  0.49637859142E+02  0.23640159643E+03  0.24263748477E+03  0.10000000000E+01 0.  0.
    9000005    1    3    3    0    0 -0.22854259066E+02 -0.49637859142E+02  0.68957365205E+03  0.69173626175E+03  0.10000000000E+01 0.  0.
<mgrwt>
<rscale>  0 0.12499655E+03</rscale>
<asrwt>0</asrwt>
<pdfrwt beam="1">  1        4 0.14310383E+00 0.12499655E+03</pdfrwt>
<pdfrwt beam="2">  1       -4 0.64603804E-03 0.12499655E+03</pdfrwt>
<totfact> 0.32879805E+03</totfact>
</mgrwt>
</event>
<event>
 5    1  0.3327068E-002  0.1250068E+03  0.7818608E-02  0.1235059E+00
         -4   -1    0    0    0  501 -0.00000000000E+00  0.00000000000E+00  0.36928588310E+03  0.36928806690E+03  0.12700000000E+01 0.  1.
          4   -1    0    0  501    0  0.00000000000E+00 -0.00000000000E+00 -0.10538667411E+02  0.10614914545E+02  0.12700000000E+01 0.  1.
         25    2    1    2    0    0  0.00000000000E+00  0.00000000000E+00  0.35874721569E+03  0.37990298145E+03  0.12500684200E+03 0.  0.
    9000005    1    3    3    0    0  0.18733870397E+02  0.53145626286E+02  0.97248053928E+02  0.11239928597E+03  0.10000000000E+01 0.  0.
    9000005    1    3    3    0    0 -0.18733870397E+02 -0.53145626286E+02  0.26149916176E+03  0.26750369548E+03  0.10000000000E+01 0.  0.
<mgrwt>
<rscale>  0 0.12500684E+03</rscale>
<asrwt>0</asrwt>
<pdfrwt beam="2">  1        4 0.16273667E-02 0.12500684E+03</pdfrwt>
<pdfrwt beam="1">  1       -4 0.56819242E-01 0.12500684E+03</pdfrwt>
<totfact> 0.66545409E+03</totfact>
</mgrwt>
</event>
<event>
 5    1  0.3327068E-002  0.1250005E+03  0.7818608E-02  0.1235069E+00
         -4   -1    0    0    0  501 -0.00000000000E+00  0.00000000000E+00  0.23321802495E+03  0.23322148284E+03  0.12700000000E+01 0. -1.
          4   -1    0    0  501    0  0.00000000000E+00 -0.00000000000E+00 -0.16721810629E+02  0.16769968715E+02  0.12700000000E+01 0. -1.
         25    2    1    2    0    0  0.00000000000E+00  0.00000000000E+00  0.21649621432E+03  0.24999145156E+03  0.12500046015E+03 0.  0.
    9000005    1    3    3    0    0 -0.18255465181E+02  0.37388962578E+02  0.14997529788E+02  0.44239376480E+02  0.10000000000E+01 0.  0.
    9000005    1    3    3    0    0  0.18255465181E+02 -0.37388962578E+02  0.20149868453E+03  0.20575207508E+03  0.10000000000E+01 0.  0.
<mgrwt>
<rscale>  0 0.12500046E+03</rscale>
<asrwt>0</asrwt>
<pdfrwt beam="2">  1        4 0.25765569E-02 0.12500046E+03</pdfrwt>
<pdfrwt beam="1">  1       -4 0.35883664E-01 0.12500046E+03</pdfrwt>
<totfact> 0.82330620E+03</totfact>
</mgrwt>
</event>
<event>
 5    1  0.3327068E-002  0.1250008E+03  0.7818608E-02  0.1235068E+00
         -4   -1    0    0    0  501 -0.00000000000E+00  0.00000000000E+00  0.59388003096E+03  0.59388138889E+03  0.12700000000E+01 0. -1.
          4   -1    0    0  501    0  0.00000000000E+00 -0.00000000000E+00 -0.65149068313E+01  0.66375380241E+01  0.12700000000E+01 0. -1.
         25    2    1    2    0    0  0.00000000000E+00  0.00000000000E+00  0.58736512413E+03  0.60051892691E+03  0.12500077017E+03 0.  0.
    9000005    1    3    3    0    0 -0.10820693171E+02 -0.53643138251E+02  0.14871071732E+03  0.15846309074E+03  0.10000000000E+01 0.  0.
    9000005    1    3    3    0    0  0.10820693171E+02  0.53643138251E+02  0.43865440681E+03  0.44205583617E+03  0.10000000000E+01 0.  0.
<mgrwt>
<rscale>  0 0.12500077E+03</rscale>
<asrwt>0</asrwt>
<pdfrwt beam="2">  1        4 0.10118308E-02 0.12500077E+03</pdfrwt>
<pdfrwt beam="1">  1       -4 0.91375712E-01 0.12500077E+03</pdfrwt>
<totfact> 0.48834039E+03</totfact>
</mgrwt>
</event>
<event>
 5    1  0.3327068E-002  0.1249999E+03  0.7818608E-02  0.1235069E+00
         -4   -1    0    0    0  501 -0.00000000000E+00  0.00000000000E+00  0.48828685824E+02  0.48845198938E+02  0.12700000000E+01 0. -1.
          4   -1    0    0  501    0  0.00000000000E+00 -0.00000000000E+00 -0.79963881497E+02  0.79973966039E+02  0.12700000000E+01 0. -1.
         25    2    1    2    0    0  0.00000000000E+00  0.00000000000E+00 -0.31135195673E+02  0.12881916498E+03  0.12499990742E+03 0.  0.
    9000005    1    3    3    0    0 -0.38780911560E+02  0.42461085651E+01 -0.65877805065E+02  0.76569404722E+02  0.10000000000E+01 0.  0.
    9000005    1    3    3    0    0  0.38780911560E+02 -0.42461085651E+01  0.34742609392E+02  0.52249760255E+02  0.10000000000E+01 0.  0.
<mgrwt>
<rscale>  0 0.12499991E+03</rscale>
<asrwt>0</asrwt>
<pdfrwt beam="2">  1        4 0.12304182E-01 0.12499991E+03</pdfrwt>
<pdfrwt beam="1">  1       -4 0.75141515E-02 0.12499991E+03</pdfrwt>
<totfact> 0.10369856E+04</totfact>
</mgrwt>
</event>
<event>
 5    1  0.3327068E-002  0.1249986E+03  0.7818608E-02  0.1235071E+00
         -4   -1    0    0    0  501 -0.00000000000E+00  0.00000000000E+00  0.21038254294E+02  0.21076551989E+02  0.12700000000E+01 0. -1.
          4   -1    0    0  501    0  0.00000000000E+00 -0.00000000000E+00 -0.18546017417E+03  0.18546452250E+03  0.12700000000E+01 0. -1.
         25    2    1    2    0    0  0.00000000000E+00  0.00000000000E+00 -0.16442191988E+03  0.20654107449E+03  0.12499859084E+03 0.  0.
    9000005    1    3    3    0    0  0.24323726588E+02  0.26720752912E+01 -0.17722276822E+03  0.17890694016E+03  0.10000000000E+01 0.  0.
    9000005    1    3    3    0    0 -0.24323726588E+02 -0.26720752912E+01  0.12800848344E+02  0.27634134323E+02  0.10000000000E+01 0.  0.
<mgrwt>
<rscale>  0 0.12499859E+03</rscale>
<asrwt>0</asrwt>
<pdfrwt beam="2">  1        4 0.28535614E-01 0.12499859E+03</pdfrwt>
<pdfrwt beam="1">  1       -4 0.32399351E-02 0.12499859E+03</pdfrwt>
<totfact> 0.89046709E+03</totfact>
</mgrwt>
</event>
<event>
 5    1  0.3327068E-002  0.1249992E+03  0.7818608E-02  0.1235071E+00
          4   -1    0    0  501    0  0.00000000000E+00  0.00000000000E+00  0.82788850039E+01  0.83757290374E+01  0.12700000000E+01 0.  1.
         -4   -1    0    0    0  501 -0.00000000000E+00 -0.00000000000E+00 -0.46898531198E+03  0.46898703154E+03  0.12700000000E+01 0.  1.
         25    2    1    2    0    0  0.00000000000E+00  0.00000000000E+00 -0.46070642698E+03  0.47736276058E+03  0.12499917331E+03 0.  0.
    9000005    1    3    3    0    0 -0.54915121286E+02  0.13829098463E+02 -0.12943782748E+03  0.14128717455E+03  0.10000000000E+01 0.  0.
    9000005    1    3    3    0    0  0.54915121286E+02 -0.13829098463E+02 -0.33126859950E+03  0.33607558603E+03  0.10000000000E+01 0.  0.
<mgrwt>
<rscale>  0 0.12499917E+03</rscale>
<asrwt>0</asrwt>
<pdfrwt beam="1">  1        4 0.12812568E-02 0.12499917E+03</pdfrwt>
<pdfrwt beam="2">  1       -4 0.72159148E-01 0.12499917E+03</pdfrwt>
<totfact> 0.57665592E+03</totfact>
</mgrwt>
</event>
<event>
 5    1  0.3327068E-002  0.1250034E+03  0.7818608E-02  0.1235064E+00
          4   -1    0    0  501    0  0.00000000000E+00  0.00000000000E+00  0.16583960733E+03  0.16584447009E+03  0.12700000000E+01 0.  1.
         -4   -1    0    0    0  501 -0.00000000000E+00 -0.00000000000E+00 -0.23533346569E+02  0.23567590050E+02  0.12700000000E+01 0.  1.
         25    2    1    2    0    0  0.00000000000E+00  0.00000000000E+00  0.14230626076E+03  0.18941206014E+03  0.12500342665E+03 0.  0.
    9000005    1    3    3    0    0 -0.57528694639E+02  0.18744393966E+02  0.47456889868E+02  0.76902921973E+02  0.10000000000E+01 0.  0.
    9000005    1    3    3    0    0  0.57528694639E+02 -0.18744393966E+02  0.94849370889E+02  0.11250913816E+03  0.10000000000E+01 0.  0.
<mgrwt>
<rscale>  0 0.12500343E+03</rscale>
<asrwt>0</asrwt>
<pdfrwt beam="1">  1        4 0.25516796E-01 0.12500343E+03</pdfrwt>
<pdfrwt beam="2">  1       -4 0.36235228E-02 0.12500343E+03</pdfrwt>
<totfact> 0.91942655E+03</totfact>
</mgrwt>
</event>
<event>
 5    1  0.3327068E-002  0.1250073E+03  0.7818608E-02  0.1235058E+00
          4   -1    0    0  501    0  0.00000000000E+00  0.00000000000E+00  0.89903699680E+02  0.89912669386E+02  0.12700000000E+01 0.  1.
         -4   -1    0    0    0  501 -0.00000000000E+00 -0.00000000000E+00 -0.43433924047E+02  0.43452487364E+02  0.12700000000E+01 0.  1.
         25    2    1    2    0    0  0.00000000000E+00  0.00000000000E+00  0.46469775632E+02  0.13336515675E+03  0.12500729974E+03 0.  0.
    9000005    1    3    3    0    0  0.88401357489E+01  0.80533103399E+01 -0.42207169378E+02  0.43879937949E+02  0.10000000000E+01 0.  0.
    9000005    1    3    3    0    0 -0.88401357489E+01 -0.80533103399E+01  0.88676945011E+02  0.89485218801E+02  0.10000000000E+01 0.  0.
<mgrwt>
<rscale>  0 0.12500730E+03</rscale>
<asrwt>0</asrwt>
<pdfrwt beam="1">  1        4 0.13833456E-01 0.12500730E+03</pdfrwt>
<pdfrwt beam="2">  1       -4 0.66842602E-02 0.12500730E+03</pdfrwt>
<totfact> 0.10270954E+04</totfact>
</mgrwt>
</event>
<event>
 5    1  0.3327068E-002  0.1249982E+03  0.7818608E-02  0.1235072E+00
         -4   -1    0    0    0  501 -0.00000000000E+00  0.00000000000E+00  0.90790350526E+02  0.90799232644E+02  0.12700000000E+01 0.  1.
          4   -1    0    0  501    0  0.00000000000E+00 -0.00000000000E+00 -0.43003371040E+02  0.43022120134E+02  0.12700000000E+01 0.  1.
         25    2    1    2    0    0  0.00000000000E+00  0.00000000000E+00  0.47786979486E+02  0.13382135278E+03  0.12499823619E+03 0.  0.
    9000005    1    3    3    0    0 -0.22992047431E+02 -0.73619042316E+01 -0.37814510036E+02  0.44875038142E+02  0.10000000000E+01 0.  0.
    9000005    1    3    3    0    0  0.22992047431E+02  0.73619042316E+01  0.85601489522E+02  0.88946314636E+02  0.10000000000E+01 0.  0.
<mgrwt>
<rscale>  0 0.12499824E+03</rscale>
<asrwt>0</asrwt>
<pdfrwt beam="2">  1        4 0.66180288E-02 0.12499824E+03</pdfrwt>
<pdfrwt beam="1">  1       -4 0.13969871E-01 0.12499824E+03</pdfrwt>
<totfact> 0.10263382E+04</totfact>
</mgrwt>
</event>
<event>
 5    1  0.3327068E-002  0.1249983E+03  0.7818608E-02  0.1235072E+00
         -4   -1    0    0    0  501 -0.00000000000E+00  0.00000000000E+00  0.25803057890E+02  0.25834293032E+02  0.12700000000E+01 0. -1.
          4   -1    0    0  501    0  0.00000000000E+00 -0.00000000000E+00 -0.15125759150E+03  0.15126292304E+03  0.12700000000E+01 0. -1.
         25    2    1    2    0    0  0.00000000000E+00  0.00000000000E+00 -0.12545453362E+03  0.17709721608E+03  0.12499833574E+03 0.  0.
    9000005    1    3    3    0    0  0.27799148495E+02 -0.25118513329E+01  0.16487298243E+02  0.32433517501E+02  0.10000000000E+01 0.  0.
    9000005    1    3    3    0    0 -0.27799148495E+02  0.25118513329E+01 -0.14194183186E+03  0.14466369857E+03  0.10000000000E+01 0.  0.
<mgrwt>
<rscale>  0 0.12499834E+03</rscale>
<asrwt>0</asrwt>
<pdfrwt beam="2">  1        4 0.23273211E-01 0.12499834E+03</pdfrwt>
<pdfrwt beam="1">  1       -4 0.39725141E-02 0.12499834E+03</pdfrwt>
<totfact> 0.94145653E+03</totfact>
</mgrwt>
</event>
<event>
 5    1  0.3327068E-002  0.1249554E+03  0.7818608E-02  0.1235139E+00
          4   -1    0    0  501    0  0.00000000000E+00  0.00000000000E+00  0.12647398037E+03  0.12648035662E+03  0.12700000000E+01 0. -1.
         -4   -1    0    0    0  501 -0.00000000000E+00 -0.00000000000E+00 -0.30843560317E+02  0.30869695706E+02  0.12700000000E+01 0. -1.
         25    2    1    2    0    0  0.00000000000E+00  0.00000000000E+00  0.95630420052E+02  0.15735005232E+03  0.12495543897E+03 0.  0.
    9000005    1    3    3    0    0  0.11346308147E+01 -0.60188657904E+02  0.26800323015E+02  0.65903104943E+02  0.10000000000E+01 0.  0.
    9000005    1    3    3    0    0 -0.11346308147E+01  0.60188657904E+02  0.68830097037E+02  0.91446947382E+02  0.10000000000E+01 0.  0.
<mgrwt>
<rscale>  0 0.12495544E+03</rscale>
<asrwt>0</asrwt>
<pdfrwt beam="1">  1        4 0.19460037E-01 0.12495544E+03</pdfrwt>
<pdfrwt beam="2">  1       -4 0.47476640E-02 0.12495544E+03</pdfrwt>
<totfact> 0.97954227E+03</totfact>
</mgrwt>
</event>
<event>
 5    1  0.3327068E-002  0.1249950E+03  0.7818608E-02  0.1235077E+00
         -4   -1    0    0    0  501 -0.00000000000E+00  0.00000000000E+00  0.48973876511E+02  0.48990340686E+02  0.12700000000E+01 0. -1.
          4   -1    0    0  501    0  0.00000000000E+00 -0.00000000000E+00 -0.79720551121E+02  0.79730666440E+02  0.12700000000E+01 0. -1.
         25    2    1    2    0    0  0.00000000000E+00  0.00000000000E+00 -0.30746674610E+02  0.12872100713E+03  0.12499495860E+03 0.  0.
    9000005    1    3    3    0    0  0.54769335766E+02 -0.18718170861E+01  0.15550990445E+02  0.56973828582E+02  0.10000000000E+01 0.  0.
    9000005    1    3    3    0    0 -0.54769335766E+02  0.18718170861E+01 -0.46297665055E+02  0.71747178544E+02  0.10000000000E+01 0.  0.
<mgrwt>
<rscale>  0 0.12499496E+03</rscale>
<asrwt>0</asrwt>
<pdfrwt beam="2">  1        4 0.12266745E-01 0.12499496E+03</pdfrwt>
<pdfrwt beam="1">  1       -4 0.75364871E-02 0.12499496E+03</pdfrwt>
<totfact> 0.10373126E+04</totfact>
</mgrwt>
</event>
<event>
 5    1  0.3327068E-002  0.1249996E+03  0.7818608E-02  0.1235070E+00
          4   -1    0    0  501    0  0.00000000000E+00  0.00000000000E+00  0.23622262825E+02  0.23656377596E+02  0.12700000000E+01 0. -1.
         -4   -1    0    0    0  501 -0.00000000000E+00 -0.00000000000E+00 -0.16520618045E+03  0.16521106185E+03  0.12700000000E+01 0. -1.
         25    2    1    2    0    0  0.00000000000E+00  0.00000000000E+00 -0.14158391762E+03  0.18886743945E+03  0.12499961582E+03 0.  0.
    9000005    1    3    3    0    0 -0.40559852283E+02 -0.42676756101E+02 -0.10244322269E+03  0.11816099612E+03  0.10000000000E+01 0.  0.
    9000005    1    3    3    0    0  0.40559852283E+02  0.42676756101E+02 -0.39140694934E+02  0.70706443330E+02  0.10000000000E+01 0.  0.
<mgrwt>
<rscale>  0 0.12499962E+03</rscale>
<asrwt>0</asrwt>
<pdfrwt beam="1">  1        4 0.36371941E-02 0.12499962E+03</pdfrwt>
<pdfrwt beam="2">  1       -4 0.25419334E-01 0.12499962E+03</pdfrwt>
<totfact> 0.92045543E+03</totfact>
</mgrwt>
</event>
<event>
 5    1  0.3327068E-002  0.1250029E+03  0.7818608E-02  0.1235065E+00
          4   -1    0    0  501    0  0.00000000000E+00  0.00000000000E+00  0.79979841678E+03  0.79979942510E+03  0.12700000000E+01 0. -1.
         -4   -1    0    0    0  501 -0.00000000000E+00 -0.00000000000E+00 -0.48006838586E+01  0.49658297907E+01  0.12700000000E+01 0. -1.
         25    2    1    2    0    0  0.00000000000E+00  0.00000000000E+00  0.79499773292E+03  0.80476525489E+03  0.12500288046E+03 0.  0.
    9000005    1    3    3    0    0  0.57526133877E+02  0.22232320738E+02  0.33251108033E+03  0.33818360502E+03  0.10000000000E+01 0.  0.
    9000005    1    3    3    0    0 -0.57526133877E+02 -0.22232320738E+02  0.46248665260E+03  0.46658164987E+03  0.10000000000E+01 0.  0.
<mgrwt>
<rscale>  0 0.12500288E+03</rscale>
<asrwt>0</asrwt>
<pdfrwt beam="1">  1        4 0.12305863E+00 0.12500288E+03</pdfrwt>
<pdfrwt beam="2">  1       -4 0.75134822E-03 0.12500288E+03</pdfrwt>
<totfact> 0.38050497E+03</totfact>
</mgrwt>
</event>
<event>
 5    1  0.3327068E-002  0.1250043E+03  0.7818608E-02  0.1235063E+00
         -4   -1    0    0    0  501 -0.00000000000E+00  0.00000000000E+00  0.29082235305E+03  0.29082512603E+03  0.12700000000E+01 0. -1.
          4   -1    0    0  501    0  0.00000000000E+00 -0.00000000000E+00 -0.13399806400E+02  0.13459855554E+02  0.12700000000E+01 0. -1.
         25    2    1    2    0    0  0.00000000000E+00  0.00000000000E+00  0.27742254665E+03  0.30428498159E+03  0.12500432245E+03 0.  0.
    9000005    1    3    3    0    0 -0.32584682933E+02  0.31403199071E+02  0.24362475931E+03  0.24779416018E+03  0.10000000000E+01 0.  0.
    9000005    1    3    3    0    0  0.32584682933E+02 -0.31403199071E+02  0.33797787341E+02  0.56490821404E+02  0.10000000000E+01 0.  0.
<mgrwt>
<rscale>  0 0.12500432E+03</rscale>
<asrwt>0</asrwt>
<pdfrwt beam="2">  1        4 0.20663412E-02 0.12500432E+03</pdfrwt>
<pdfrwt beam="1">  1       -4 0.44746731E-01 0.12500432E+03</pdfrwt>
<totfact> 0.75057262E+03</totfact>
</mgrwt>
</event>
<event>
 5    1  0.3327068E-002  0.1249916E+03  0.7818608E-02  0.1235082E+00
         -4   -1    0    0    0  501 -0.00000000000E+00  0.00000000000E+00  0.47638539881E+01  0.49302337490E+01  0.12700000000E+01 0. -1.
          4   -1    0    0  501    0  0.00000000000E+00 -0.00000000000E+00 -0.80562827117E+03  0.80562927219E+03  0.12700000000E+01 0. -1.
         25    2    1    2    0    0  0.00000000000E+00  0.00000000000E+00 -0.80086441719E+03  0.81055950594E+03  0.12499159155E+03 0.  0.
    9000005    1    3    3    0    0  0.22739972792E+02 -0.36755599625E+02 -0.69309106341E+03  0.69443812010E+03  0.10000000000E+01 0.  0.
    9000005    1    3    3    0    0 -0.22739972792E+02  0.36755599625E+02 -0.10777335378E+03  0.11612138585E+03  0.10000000000E+01 0.  0.
<mgrwt>
<rscale>  0 0.12499159E+03</rscale>
<asrwt>0</asrwt>
<pdfrwt beam="2">  1        4 0.12395558E+00 0.12499159E+03</pdfrwt>
<pdfrwt beam="1">  1       -4 0.74577670E-03 0.12499159E+03</pdfrwt>
<totfact> 0.37804621E+03</totfact>
</mgrwt>
</event>
<event>
 5    1  0.3327068E-002  0.1249997E+03  0.7818608E-02  0.1235070E+00
          4   -1    0    0  501    0  0.00000000000E+00  0.00000000000E+00  0.53264415988E+01  0.54757538390E+01  0.12700000000E+01 0. -1.
         -4   -1    0    0    0  501 -0.00000000000E+00 -0.00000000000E+00 -0.72307962615E+03  0.72308074145E+03  0.12700000000E+01 0. -1.
         25    2    1    2    0    0  0.00000000000E+00  0.00000000000E+00 -0.71775318455E+03  0.72855649529E+03  0.12499973157E+03 0.  0.
    9000005    1    3    3    0    0  0.41493371682E+02  0.51064480255E+01 -0.88153513440E+02  0.97569552817E+02  0.10000000000E+01 0.  0.
    9000005    1    3    3    0    0 -0.41493371682E+02 -0.51064480255E+01 -0.62959967111E+03  0.63098694247E+03  0.10000000000E+01 0.  0.
<mgrwt>
<rscale>  0 0.12499973E+03</rscale>
<asrwt>0</asrwt>
<pdfrwt beam="1">  1        4 0.83102448E-03 0.12499973E+03</pdfrwt>
<pdfrwt beam="2">  1       -4 0.11125451E+00 0.12499973E+03</pdfrwt>
<totfact> 0.41621642E+03</totfact>
</mgrwt>
</event>
<event>
 5    1  0.3327068E-002  0.1250038E+03  0.7818608E-02  0.1235063E+00
          4   -1    0    0  501    0  0.00000000000E+00  0.00000000000E+00  0.19006154054E+03  0.19006578359E+03  0.12700000000E+01 0. -1.
         -4   -1    0    0    0  501 -0.00000000000E+00 -0.00000000000E+00 -0.20529715056E+02  0.20568959630E+02  0.12700000000E+01 0. -1.
         25    2    1    2    0    0  0.00000000000E+00  0.00000000000E+00  0.16953182549E+03  0.21063474322E+03  0.12500382074E+03 0.  0.
    9000005    1    3    3    0    0 -0.29395792807E+02  0.54900514889E+02  0.93571627856E+02  0.11240475394E+03  0.10000000000E+01 0.  0.
    9000005    1    3    3    0    0  0.29395792807E+02 -0.54900514889E+02  0.75960197630E+02  0.98229989279E+02  0.10000000000E+01 0.  0.
<mgrwt>
<rscale>  0 0.12500382E+03</rscale>
<asrwt>0</asrwt>
<pdfrwt beam="1">  1        4 0.29243584E-01 0.12500382E+03</pdfrwt>
<pdfrwt beam="2">  1       -4 0.31617627E-02 0.12500382E+03</pdfrwt>
<totfact> 0.88364774E+03</totfact>
</mgrwt>
</event>
<event>
 5    1  0.3327068E-002  0.1250110E+03  0.7818608E-02  0.1235052E+00
          4   -1    0    0  501    0  0.00000000000E+00  0.00000000000E+00  0.21546542962E+03  0.21546917241E+03  0.12700000000E+01 0.  1.
         -4   -1    0    0    0  501 -0.00000000000E+00 -0.00000000000E+00 -0.18106401284E+02  0.18150886134E+02  0.12700000000E+01 0.  1.
         25    2    1    2    0    0  0.00000000000E+00  0.00000000000E+00  0.19735902833E+03  0.23362005855E+03  0.12501098228E+03 0.  0.
    9000005    1    3    3    0    0 -0.27832997769E+02 -0.22753254995E+02  0.19421778376E+03  0.19751945197E+03  0.10000000000E+01 0.  0.
    9000005    1    3    3    0    0  0.27832997769E+02  0.22753254995E+02  0.31412445722E+01  0.36100606576E+02  0.10000000000E+01 0.  0.
<mgrwt>
<rscale>  0 0.12501098E+03</rscale>
<asrwt>0</asrwt>
<pdfrwt beam="1">  1        4 0.33152238E-01 0.12501098E+03</pdfrwt>
<pdfrwt beam="2">  1       -4 0.27893100E-02 0.12501098E+03</pdfrwt>
<totfact> 0.84736056E+03</totfact>
</mgrwt>
</event>
<event>
 5    1  0.3327068E-002  0.1250090E+03  0.7818608E-02  0.1235055E+00
         -4   -1    0    0    0  501 -0.00000000000E+00  0.00000000000E+00  0.21599626279E+02  0.21636930360E+02  0.12700000000E+01 0.  1.
          4   -1    0    0  501    0  0.00000000000E+00 -0.00000000000E+00 -0.18067857383E+03  0.18068303722E+03  0.12700000000E+01 0.  1.
         25    2    1    2    0    0  0.00000000000E+00  0.00000000000E+00 -0.15907894755E+03  0.20231996758E+03  0.12500903059E+03 0.  0.
    9000005    1    3    3    0    0  0.22747427593E+02 -0.81311996599E+00 -0.17373934993E+03  0.17522690529E+03  0.10000000000E+01 0.  0.
    9000005    1    3    3    0    0 -0.22747427593E+02  0.81311996599E+00  0.14660402380E+02  0.27093062288E+02  0.10000000000E+01 0.  0.
<mgrwt>
<rscale>  0 0.12500903E+03</rscale>
<asrwt>0</asrwt>
<pdfrwt beam="2">  1        4 0.27799916E-01 0.12500903E+03</pdfrwt>
<pdfrwt beam="1">  1       -4 0.33262324E-02 0.12500903E+03</pdfrwt>
<totfact> 0.89727566E+03</totfact>
</mgrwt>
</event>
<event>
 5    1  0.3327068E-002  0.1249982E+03  0.7818608E-02  0.1235072E+00
          4   -1    0    0  501    0  0.00000000000E+00  0.00000000000E+00  0.14112742327E+02  0.14169770499E+02  0.12700000000E+01 0.  1.
         -4   -1    0    0    0  501 -0.00000000000E+00 -0.00000000000E+00 -0.27616411824E+03  0.27616703841E+03  0.12700000000E+01 0.  1.
         25    2    1    2    0    0  0.00000000000E+00  0.00000000000E+00 -0.26205137591E+03  0.29033680891E+03  0.12499815594E+03 0.  0.
    9000005    1    3    3    0    0 -0.20243204586E+02 -0.56662436150E+02 -0.17021830241E+03  0.18054276357E+03  0.10000000000E+01 0.  0.
    9000005    1    3    3    0    0  0.20243204586E+02  0.56662436150E+02 -0.91833073503E+02  0.10979404534E+03  0.10000000000E+01 0.  0.
<mgrwt>
<rscale>  0 0.12499816E+03</rscale>
<asrwt>0</asrwt>
<pdfrwt beam="1">  1        4 0.21758027E-02 0.12499816E+03</pdfrwt>
<pdfrwt beam="2">  1       -4 0.42491395E-01 0.12499816E+03</pdfrwt>
<totfact> 0.76830332E+03</totfact>
</mgrwt>
</event>
<event>
 5    1  0.3327068E-002  0.1249908E+03  0.7818608E-02  0.1235084E+00
         -4   -1    0    0    0  501 -0.00000000000E+00  0.00000000000E+00  0.16955834852E+02  0.17003330130E+02  0.12700000000E+01 0.  1.
          4   -1    0    0  501    0  0.00000000000E+00 -0.00000000000E+00 -0.22997251079E+03  0.22997601749E+03  0.12700000000E+01 0.  1.
         25    2    1    2    0    0  0.00000000000E+00  0.00000000000E+00 -0.21301667594E+03  0.24697934762E+03  0.12499077535E+03 0.  0.
    9000005    1    3    3    0    0  0.17783710351E+02 -0.59875593193E+02 -0.10290442543E+03  0.12038134318E+03  0.10000000000E+01 0.  0.
    9000005    1    3    3    0    0 -0.17783710351E+02  0.59875593193E+02 -0.11011225051E+03  0.12659800444E+03  0.10000000000E+01 0.  0.
<mgrwt>
<rscale>  0 0.12499078E+03</rscale>
<asrwt>0</asrwt>
<pdfrwt beam="2">  1        4 0.35384307E-01 0.12499078E+03</pdfrwt>
<pdfrwt beam="1">  1       -4 0.26125134E-02 0.12499078E+03</pdfrwt>
<totfact> 0.82785791E+03</totfact>
</mgrwt>
</event>
<event>
 5    1  0.3327068E-002  0.1250045E+03  0.7818608E-02  0.1235062E+00
         -4   -1    0    0    0  501 -0.00000000000E+00  0.00000000000E+00  0.38958301030E+02  0.38978995871E+02  0.12700000000E+01 0. -1.
          4   -1    0    0  501    0  0.00000000000E+00 -0.00000000000E+00 -0.10022341503E+03  0.10023146123E+03  0.12700000000E+01 0. -1.
         25    2    1    2    0    0  0.00000000000E+00  0.00000000000E+00 -0.61265114000E+02  0.13921045710E+03  0.12500454861E+03 0.  0.
    9000005    1    3    3    0    0  0.10679467787E+02 -0.61093252389E+02 -0.39193697078E+02  0.73372899699E+02  0.10000000000E+01 0.  0.
    9000005    1    3    3    0    0 -0.10679467787E+02  0.61093252389E+02 -0.22071416922E+02  0.65837557402E+02  0.10000000000E+01 0.  0.
<mgrwt>
<rscale>  0 0.12500455E+03</rscale>
<asrwt>0</asrwt>
<pdfrwt beam="2">  1        4 0.15421198E-01 0.12500455E+03</pdfrwt>
<pdfrwt beam="1">  1       -4 0.59957957E-02 0.12500455E+03</pdfrwt>
<totfact> 0.10148935E+04</totfact>
</mgrwt>
</event>
<event>
 5    1  0.3327068E-002  0.1250140E+03  0.7818608E-02  0.1235047E+00
         -4   -1    0    0    0  501 -0.00000000000E+00  0.00000000000E+00  0.17704045461E+02  0.17749538746E+02  0.12700000000E+01 0. -1.
          4   -1    0    0  501    0  0.00000000000E+00 -0.00000000000E+00 -0.22036065137E+03  0.22036431102E+03  0.12700000000E+01 0. -1.
         25    2    1    2    0    0  0.00000000000E+00  0.00000000000E+00 -0.20265660591E+03  0.23811384976E+03  0.12501402134E+03 0.  0.
    9000005    1    3    3    0    0  0.71333631661E+01 -0.54969843962E+02 -0.46337028760E+02  0.72254334469E+02  0.10000000000E+01 0.  0.
    9000005    1    3    3    0    0 -0.71333631661E+01  0.54969843962E+02 -0.15631957715E+03  0.16585951530E+03  0.10000000000E+01 0.  0.
<mgrwt>
<rscale>  0 0.12501402E+03</rscale>
<asrwt>0</asrwt>
<pdfrwt beam="2">  1        4 0.33905418E-01 0.12501402E+03</pdfrwt>
<pdfrwt beam="1">  1       -4 0.27274805E-02 0.12501402E+03</pdfrwt>
<totfact> 0.84052801E+03</totfact>
</mgrwt>
</event>
<event>
 5    1  0.3327068E-002  0.1249989E+03  0.7818608E-02  0.1235071E+00
          4   -1    0    0  501    0  0.00000000000E+00  0.00000000000E+00  0.40887161861E+02  0.40906880901E+02  0.12700000000E+01 0. -1.
         -4   -1    0    0    0  501 -0.00000000000E+00 -0.00000000000E+00 -0.95488658955E+02  0.95497104087E+02  0.12700000000E+01 0. -1.
         25    2    1    2    0    0  0.00000000000E+00  0.00000000000E+00 -0.54601497093E+02  0.13640398499E+03  0.12499889454E+03 0.  0.
    9000005    1    3    3    0    0 -0.60884486153E+01 -0.57502658630E+02 -0.53160086605E+02  0.78553292509E+02  0.10000000000E+01 0.  0.
    9000005    1    3    3    0    0  0.60884486153E+01  0.57502658630E+02 -0.14414104882E+01  0.57850692479E+02  0.10000000000E+01 0.  0.
<mgrwt>
<rscale>  0 0.12499889E+03</rscale>
<asrwt>0</asrwt>
<pdfrwt beam="1">  1        4 0.62924991E-02 0.12499889E+03</pdfrwt>
<pdfrwt beam="2">  1       -4 0.14692729E-01 0.12499889E+03</pdfrwt>
<totfact> 0.10208817E+04</totfact>
</mgrwt>
</event>
<event>
 5    1  0.3327068E-002  0.1250027E+03  0.7818608E-02  0.1235065E+00
          4   -1    0    0  501    0  0.00000000000E+00  0.00000000000E+00  0.50530523354E+02  0.50546480495E+02  0.12700000000E+01 0. -1.
         -4   -1    0    0    0  501 -0.00000000000E+00 -0.00000000000E+00 -0.77274673461E+02  0.77285108905E+02  0.12700000000E+01 0. -1.
         25    2    1    2    0    0  0.00000000000E+00  0.00000000000E+00 -0.26744150107E+02  0.12783158940E+03  0.12500266271E+03 0.  0.
    9000005    1    3    3    0    0 -0.55084721115E+02  0.14458473848E+02  0.12940408685E+02  0.58410856382E+02  0.10000000000E+01 0.  0.
    9000005    1    3    3    0    0  0.55084721115E+02 -0.14458473848E+02 -0.39684558792E+02  0.69420733019E+02  0.10000000000E+01 0.  0.
<mgrwt>
<rscale>  0 0.12500266E+03</rscale>
<asrwt>0</asrwt>
<pdfrwt beam="1">  1        4 0.77759569E-02 0.12500266E+03</pdfrwt>
<pdfrwt beam="2">  1       -4 0.11890441E-01 0.12500266E+03</pdfrwt>
<totfact> 0.10390502E+04</totfact>
</mgrwt>
</event>
<event>
 5    1  0.3327068E-002  0.1249996E+03  0.7818608E-02  0.1235070E+00
         -4   -1    0    0    0  501 -0.00000000000E+00  0.00000000000E+00  0.55663243737E+02  0.55677729868E+02  0.12700000000E+01 0. -1.
          4   -1    0    0  501    0  0.00000000000E+00 -0.00000000000E+00 -0.70146618449E+02  0.70158114141E+02  0.12700000000E+01 0. -1.
         25    2    1    2    0    0  0.00000000000E+00  0.00000000000E+00 -0.14483374713E+02  0.12583584401E+03  0.12499956598E+03 0.  0.
    9000005    1    3    3    0    0 -0.49763662986E+02  0.28322917590E+02 -0.32441399632E+02  0.65818342616E+02  0.10000000000E+01 0.  0.
    9000005    1    3    3    0    0  0.49763662986E+02 -0.28322917590E+02  0.17958024919E+02  0.60017501394E+02  0.10000000000E+01 0.  0.
<mgrwt>
<rscale>  0 0.12499957E+03</rscale>
<asrwt>0</asrwt>
<pdfrwt beam="2">  1        4 0.10793786E-01 0.12499957E+03</pdfrwt>
<pdfrwt beam="1">  1       -4 0.85655745E-02 0.12499957E+03</pdfrwt>
<totfact> 0.10434660E+04</totfact>
</mgrwt>
</event>
<event>
 5    1  0.3327068E-002  0.1249990E+03  0.7818608E-02  0.1235071E+00
         -4   -1    0    0    0  501 -0.00000000000E+00  0.00000000000E+00  0.10574192215E+03  0.10574954847E+03  0.12700000000E+01 0. -1.
          4   -1    0    0  501    0  0.00000000000E+00 -0.00000000000E+00 -0.36920863424E+02  0.36942699630E+02  0.12700000000E+01 0. -1.
         25    2    1    2    0    0  0.00000000000E+00  0.00000000000E+00  0.68821058731E+02  0.14269224810E+03  0.12499895816E+03 0.  0.
    9000005    1    3    3    0    0 -0.35652112740E+02 -0.18263633610E+02  0.89163786614E+02  0.97753845442E+02  0.10000000000E+01 0.  0.
    9000005    1    3    3    0    0  0.35652112740E+02  0.18263633610E+02 -0.20342727883E+02  0.44938402655E+02  0.10000000000E+01 0.  0.
<mgrwt>
<rscale>  0 0.12499896E+03</rscale>
<asrwt>0</asrwt>
<pdfrwt beam="2">  1        4 0.56823991E-02 0.12499896E+03</pdfrwt>
<pdfrwt beam="1">  1       -4 0.16270255E-01 0.12499896E+03</pdfrwt>
<totfact> 0.10078326E+04</totfact>
</mgrwt>
</event>
<event>
 5    1  0.3327068E-002  0.1250106E+03  0.7818608E-02  0.1235053E+00
          4   -1    0    0  501    0  0.00000000000E+00  0.00000000000E+00  0.23798279660E+02  0.23832142472E+02  0.12700000000E+01 0.  1.
         -4   -1    0    0    0  501 -0.00000000000E+00 -0.00000000000E+00 -0.16401474379E+03  0.16401966065E+03  0.12700000000E+01 0.  1.
         25    2    1    2    0    0  0.00000000000E+00  0.00000000000E+00 -0.14021646413E+03  0.18785180313E+03  0.12501057205E+03 0.  0.
    9000005    1    3    3    0    0  0.58245898383E+02 -0.21623750599E+02 -0.59945408361E+02  0.86340160134E+02  0.10000000000E+01 0.  0.
    9000005    1    3    3    0    0 -0.58245898383E+02  0.21623750599E+02 -0.80271055772E+02  0.10151164299E+03  0.10000000000E+01 0.  0.
<mgrwt>
<rscale>  0 0.12501057E+03</rscale>
<asrwt>0</asrwt>
<pdfrwt beam="1">  1        4 0.36642569E-02 0.12501057E+03</pdfrwt>
<pdfrwt beam="2">  1       -4 0.25236020E-01 0.12501057E+03</pdfrwt>
<totfact> 0.92200602E+03</totfact>
</mgrwt>
</event>
<event>
 5    1  0.3327068E-002  0.1249967E+03  0.7818608E-02  0.1235074E+00
          4   -1    0    0  501    0  0.00000000000E+00  0.00000000000E+00  0.18811661377E+02  0.18854482326E+02  0.12700000000E+01 0.  1.
         -4   -1    0    0    0  501 -0.00000000000E+00 -0.00000000000E+00 -0.20735860207E+03  0.20736249119E+03  0.12700000000E+01 0.  1.
         25    2    1    2    0    0  0.00000000000E+00  0.00000000000E+00 -0.18854694069E+03  0.22621697351E+03  0.12499668100E+03 0.  0.
    9000005    1    3    3    0    0  0.91637707017E+01  0.47339810936E+02 -0.16621118682E+03  0.17306701308E+03  0.10000000000E+01 0.  0.
    9000005    1    3    3    0    0 -0.91637707017E+01 -0.47339810936E+02 -0.22335753871E+02  0.53149960432E+02  0.10000000000E+01 0.  0.
<mgrwt>
<rscale>  0 0.12499668E+03</rscale>
<asrwt>0</asrwt>
<pdfrwt beam="1">  1        4 0.28976950E-02 0.12499668E+03</pdfrwt>
<pdfrwt beam="2">  1       -4 0.31904915E-01 0.12499668E+03</pdfrwt>
<totfact> 0.85900253E+03</totfact>
</mgrwt>
</event>
<event>
 5    1  0.3327068E-002  0.1249993E+03  0.7818608E-02  0.1235070E+00
          4   -1    0    0  501    0  0.00000000000E+00  0.00000000000E+00  0.21378722155E+02  0.21416411020E+02  0.12700000000E+01 0.  1.
         -4   -1    0    0    0  501 -0.00000000000E+00 -0.00000000000E+00 -0.18251380344E+03  0.18251822196E+03  0.12700000000E+01 0.  1.
         25    2    1    2    0    0  0.00000000000E+00  0.00000000000E+00 -0.16113508129E+03  0.20393463298E+03  0.12499928042E+03 0.  0.
    9000005    1    3    3    0    0  0.34075076859E+02 -0.26220356440E+02 -0.15455481414E+03  0.16042695698E+03  0.10000000000E+01 0.  0.
    9000005    1    3    3    0    0 -0.34075076859E+02  0.26220356440E+02 -0.65802671544E+01  0.43507675996E+02  0.10000000000E+01 0.  0.
<mgrwt>
<rscale>  0 0.12499928E+03</rscale>
<asrwt>0</asrwt>
<pdfrwt beam="1">  1        4 0.32922733E-02 0.12499928E+03</pdfrwt>
<pdfrwt beam="2">  1       -4 0.28082285E-01 0.12499928E+03</pdfrwt>
<totfact> 0.89477556E+03</totfact>
</mgrwt>
</event>
<event>
 5    1  0.3327068E-002  0.1250005E+03  0.7818608E-02  0.1235068E+00
          4   -1    0    0  501    0  0.00000000000E+00  0.00000000000E+00  0.11125346256E+03  0.11126071108E+03  0.12700000000E+01 0. -1.
         -4   -1    0    0    0  501 -0.00000000000E+00 -0.00000000000E+00 -0.35091676542E+02  0.35114650255E+02  0.12700000000E+01 0. -1.
         25    2    1    2    0    0  0.00000000000E+00  0.00000000000E+00  0.76161786013E+02  0.14637536134E+03  0.12500051503E+03 0.  0.
    9000005    1    3    3    0    0 -0.61636873496E+02  0.18587929032E+01  0.26212557303E+02  0.67012367856E+02  0.10000000000E+01 0.  0.
    9000005    1    3    3    0    0  0.61636873496E+02 -0.18587929032E+01  0.49949228711E+02  0.79362993480E+02  0.10000000000E+01 0.  0.
<mgrwt>
<rscale>  0 0.12500052E+03</rscale>
<asrwt>0</asrwt>
<pdfrwt beam="1">  1        4 0.17118242E-01 0.12500052E+03</pdfrwt>
<pdfrwt beam="2">  1       -4 0.54010443E-02 0.12500052E+03</pdfrwt>
<totfact> 0.10003003E+04</totfact>
</mgrwt>
</event>
<event>
 5    1  0.3327068E-002  0.1249993E+03  0.7818608E-02  0.1235070E+00
         -4   -1    0    0    0  501 -0.00000000000E+00  0.00000000000E+00  0.90384400481E+02  0.90393322487E+02  0.12700000000E+01 0. -1.
          4   -1    0    0  501    0  0.00000000000E+00 -0.00000000000E+00 -0.43197321032E+02  0.43215985981E+02  0.12700000000E+01 0. -1.
         25    2    1    2    0    0  0.00000000000E+00  0.00000000000E+00  0.47187079449E+02  0.13360930847E+03  0.12499930737E+03 0.  0.
    9000005    1    3    3    0    0  0.21707599758E+02 -0.23844720579E+02  0.80810259982E+02  0.87012003225E+02  0.10000000000E+01 0.  0.
    9000005    1    3    3    0    0 -0.21707599758E+02  0.23844720579E+02 -0.33623180534E+02  0.46597305243E+02  0.10000000000E+01 0.  0.
<mgrwt>
<rscale>  0 0.12499931E+03</rscale>
<asrwt>0</asrwt>
<pdfrwt beam="2">  1        4 0.66478638E-02 0.12499931E+03</pdfrwt>
<pdfrwt beam="1">  1       -4 0.13907414E-01 0.12499931E+03</pdfrwt>
<totfact> 0.10267627E+04</totfact>
</mgrwt>
</event>
<event>
 5    1  0.3327068E-002  0.1249997E+03  0.7818608E-02  0.1235070E+00
         -4   -1    0    0    0  501 -0.00000000000E+00  0.00000000000E+00  0.14075340116E+02  0.14132519216E+02  0.12700000000E+01 0. -1.
          4   -1    0    0  501    0  0.00000000000E+00 -0.00000000000E+00 -0.27690178066E+03  0.27690469305E+03  0.12700000000E+01 0. -1.
         25    2    1    2    0    0  0.00000000000E+00  0.00000000000E+00 -0.26282644055E+03  0.29103721227E+03  0.12499968430E+03 0.  0.
    9000005    1    3    3    0    0 -0.35674725475E+02 -0.19663304148E+02 -0.21072786325E+02  0.45873673182E+02  0.10000000000E+01 0.  0.
    9000005    1    3    3    0    0  0.35674725475E+02  0.19663304148E+02 -0.24175365422E+03  0.24516353909E+03  0.10000000000E+01 0.  0.
<mgrwt>
<rscale>  0 0.12499968E+03</rscale>
<asrwt>0</asrwt>
<pdfrwt beam="2">  1        4 0.42604892E-01 0.12499968E+03</pdfrwt>
<pdfrwt beam="1">  1       -4 0.21700596E-02 0.12499968E+03</pdfrwt>
<totfact> 0.76737586E+03</totfact>
</mgrwt>
</event>
<event>
 5    1  0.3327068E-002  0.1249865E+03  0.7818608E-02  0.1235090E+00
          4   -1    0    0  501    0  0.00000000000E+00  0.00000000000E+00  0.35245037998E+01  0.37463351472E+01  0.12700000000E+01 0.  1.
         -4   -1    0    0    0  501 -0.00000000000E+00 -0.00000000000E+00 -0.10740431687E+04  0.10740439195E+04  0.12700000000E+01 0.  1.
         25    2    1    2    0    0  0.00000000000E+00  0.00000000000E+00 -0.10705186649E+04  0.10777902547E+04  0.12498648418E+03 0.  0.
    9000005    1    3    3    0    0  0.56223198762E+02  0.20561367962E+02 -0.38086035884E+03  0.38553784622E+03  0.10000000000E+01 0.  0.
    9000005    1    3    3    0    0 -0.56223198762E+02 -0.20561367962E+02 -0.68965830601E+03  0.69225240844E+03  0.10000000000E+01 0.  0.
<mgrwt>
<rscale>  0 0.12498648E+03</rscale>
<asrwt>0</asrwt>
<pdfrwt beam="1">  1        4 0.55935392E-03 0.12498648E+03</pdfrwt>
<pdfrwt beam="2">  1       -4 0.16525428E+00 0.12498648E+03</pdfrwt>
<totfact> 0.28151015E+03</totfact>
</mgrwt>
</event>
<event>
 5    1  0.3327068E-002  0.1250020E+03  0.7818608E-02  0.1235066E+00
          4   -1    0    0  501    0  0.00000000000E+00  0.00000000000E+00  0.13551693654E+03  0.13552288733E+03  0.12700000000E+01 0.  1.
         -4   -1    0    0    0  501 -0.00000000000E+00 -0.00000000000E+00 -0.28805146635E+02  0.28833129775E+02  0.12700000000E+01 0.  1.
         25    2    1    2    0    0  0.00000000000E+00  0.00000000000E+00  0.10671178990E+03  0.16435601710E+03  0.12500197699E+03 0.  0.
    9000005    1    3    3    0    0  0.63641831263E+01  0.52921386585E+02  0.96248246783E+02  0.11002681943E+03  0.10000000000E+01 0.  0.
    9000005    1    3    3    0    0 -0.63641831263E+01 -0.52921386585E+02  0.10463543121E+02  0.54329197671E+02  0.10000000000E+01 0.  0.
<mgrwt>
<rscale>  0 0.12500198E+03</rscale>
<asrwt>0</asrwt>
<pdfrwt beam="1">  1        4 0.20851370E-01 0.12500198E+03</pdfrwt>
<pdfrwt beam="2">  1       -4 0.44341712E-02 0.12500198E+03</pdfrwt>
<totfact> 0.96505204E+03</totfact>
</mgrwt>
</event>
<event>
 5    1  0.3327068E-002  0.1249996E+03  0.7818608E-02  0.1235070E+00
         -4   -1    0    0    0  501 -0.00000000000E+00  0.00000000000E+00  0.32930878793E+02  0.32955358867E+02  0.12700000000E+01 0.  1.
          4   -1    0    0  501    0  0.00000000000E+00 -0.00000000000E+00 -0.11854704182E+03  0.11855384441E+03  0.12700000000E+01 0.  1.
         25    2    1    2    0    0  0.00000000000E+00  0.00000000000E+00 -0.85616163029E+02  0.15150920328E+03  0.12499964522E+03 0.  0.
    9000005    1    3    3    0    0 -0.73223560653E+01  0.62055965905E+02 -0.41817417964E+02  0.75194788702E+02  0.10000000000E+01 0.  0.
    9000005    1    3    3    0    0  0.73223560653E+01 -0.62055965905E+02 -0.43798745065E+02  0.76314414576E+02  0.10000000000E+01 0.  0.
<mgrwt>
<rscale>  0 0.12499965E+03</rscale>
<asrwt>0</asrwt>
<pdfrwt beam="2">  1        4 0.18240413E-01 0.12499965E+03</pdfrwt>
<pdfrwt beam="1">  1       -4 0.50686955E-02 0.12499965E+03</pdfrwt>
<totfact> 0.99004498E+03</totfact>
</mgrwt>
</event>
<event>
 5    1  0.3327068E-002  0.1250028E+03  0.7818608E-02  0.1235065E+00
          4   -1    0    0  501    0  0.00000000000E+00  0.00000000000E+00  0.22976595936E+03  0.22976946921E+03  0.12700000000E+01 0. -1.
         -4   -1    0    0    0  501 -0.00000000000E+00 -0.00000000000E+00 -0.16974384602E+02  0.17021828122E+02  0.12700000000E+01 0. -1.
         25    2    1    2    0    0  0.00000000000E+00  0.00000000000E+00  0.21279157476E+03  0.24679129733E+03  0.12500276057E+03 0.  0.
    9000005    1    3    3    0    0 -0.40739623358E+02 -0.28363174570E+01  0.19978729287E+03  0.20392087681E+03  0.10000000000E+01 0.  0.
    9000005    1    3    3    0    0  0.40739623358E+02  0.28363174570E+01  0.13004281890E+02  0.42870420520E+02  0.10000000000E+01 0.  0.
<mgrwt>
<rscale>  0 0.12500276E+03</rscale>
<asrwt>0</asrwt>
<pdfrwt beam="1">  1        4 0.35352527E-01 0.12500276E+03</pdfrwt>
<pdfrwt beam="2">  1       -4 0.26153634E-02 0.12500276E+03</pdfrwt>
<totfact> 0.82791115E+03</totfact>
</mgrwt>
</event>
<event>
 5    1  0.3327068E-002  0.1250005E+03  0.7818608E-02  0.1235068E+00
         -4   -1    0    0    0  501 -0.00000000000E+00  0.00000000000E+00  0.95590357907E+03  0.95590442272E+03  0.12700000000E+01 0. -1.
          4   -1    0    0  501    0  0.00000000000E+00 -0.00000000000E+00 -0.39869441968E+01  0.41843307743E+01  0.12700000000E+01 0. -1.
         25    2    1    2    0    0  0.00000000000E+00  0.00000000000E+00  0.95191663487E+03  0.96008875350E+03  0.12500053936E+03 0.  0.
    9000005    1    3    3    0    0 -0.10952338982E+02  0.61379061191E+02  0.50849106485E+03  0.51230021073E+03  0.10000000000E+01 0.  0.
    9000005    1    3    3    0    0  0.10952338982E+02 -0.61379061191E+02  0.44342557003E+03  0.44778854277E+03  0.10000000000E+01 0.  0.
<mgrwt>
<rscale>  0 0.12500054E+03</rscale>
<asrwt>0</asrwt>
<pdfrwt beam="2">  1        4 0.62862370E-03 0.12500054E+03</pdfrwt>
<pdfrwt beam="1">  1       -4 0.14707753E+00 0.12500054E+03</pdfrwt>
<totfact> 0.31960046E+03</totfact>
</mgrwt>
</event>
<event>
 5    1  0.3327068E-002  0.1249985E+03  0.7818608E-02  0.1235072E+00
         -4   -1    0    0    0  501 -0.00000000000E+00  0.00000000000E+00  0.86109640703E+02  0.86119005580E+02  0.12700000000E+01 0.  1.
          4   -1    0    0  501    0  0.00000000000E+00 -0.00000000000E+00 -0.45341868600E+02  0.45359651102E+02  0.12700000000E+01 0.  1.
         25    2    1    2    0    0  0.00000000000E+00  0.00000000000E+00  0.40767772104E+02  0.13147865668E+03  0.12499850367E+03 0.  0.
    9000005    1    3    3    0    0 -0.39313946973E+02 -0.33365371944E+02 -0.16749587509E+02  0.54225299937E+02  0.10000000000E+01 0.  0.
    9000005    1    3    3    0    0  0.39313946973E+02  0.33365371944E+02  0.57517359613E+02  0.77253356745E+02  0.10000000000E+01 0.  0.
<mgrwt>
<rscale>  0 0.12499850E+03</rscale>
<asrwt>0</asrwt>
<pdfrwt beam="2">  1        4 0.69777604E-02 0.12499850E+03</pdfrwt>
<pdfrwt beam="1">  1       -4 0.13249725E-01 0.12499850E+03</pdfrwt>
<totfact> 0.10313187E+04</totfact>
</mgrwt>
</event>
<event>
 5    1  0.3327068E-002  0.1250024E+03  0.7818608E-02  0.1235066E+00
          4   -1    0    0  501    0  0.00000000000E+00  0.00000000000E+00  0.83781329451E+02  0.83790954551E+02  0.12700000000E+01 0. -1.
         -4   -1    0    0    0  501 -0.00000000000E+00 -0.00000000000E+00 -0.46605156450E+02  0.46622457118E+02  0.12700000000E+01 0. -1.
         25    2    1    2    0    0  0.00000000000E+00  0.00000000000E+00  0.37176173001E+02  0.13041341167E+03  0.12500236039E+03 0.  0.
    9000005    1    3    3    0    0 -0.16168467248E+02  0.59952395202E+02  0.25942228243E+02  0.67303107134E+02  0.10000000000E+01 0.  0.
    9000005    1    3    3    0    0  0.16168467248E+02 -0.59952395202E+02  0.11233944757E+02  0.63110304535E+02  0.10000000000E+01 0.  0.
<mgrwt>
<rscale>  0 0.12500236E+03</rscale>
<asrwt>0</asrwt>
<pdfrwt beam="1">  1        4 0.12891506E-01 0.12500236E+03</pdfrwt>
<pdfrwt beam="2">  1       -4 0.71720953E-02 0.12500236E+03</pdfrwt>
<totfact> 0.10335121E+04</totfact>
</mgrwt>
</event>
<event>
 5    1  0.3327068E-002  0.1249986E+03  0.7818608E-02  0.1235071E+00
          4   -1    0    0  501    0  0.00000000000E+00  0.00000000000E+00  0.16393810033E+03  0.16394301949E+03  0.12700000000E+01 0. -1.
         -4   -1    0    0    0  501 -0.00000000000E+00 -0.00000000000E+00 -0.23804849115E+02  0.23838702594E+02  0.12700000000E+01 0. -1.
         25    2    1    2    0    0  0.00000000000E+00  0.00000000000E+00  0.14013325122E+03  0.18778172209E+03  0.12499858821E+03 0.  0.
    9000005    1    3    3    0    0  0.10774840894E+02 -0.35032522262E+02 -0.59694535594E+01  0.37148474909E+02  0.10000000000E+01 0.  0.
    9000005    1    3    3    0    0 -0.10774840894E+02  0.35032522262E+02  0.14610270478E+03  0.15063324718E+03  0.10000000000E+01 0.  0.
<mgrwt>
<rscale>  0 0.12499859E+03</rscale>
<asrwt>0</asrwt>
<pdfrwt beam="1">  1        4 0.25224228E-01 0.12499859E+03</pdfrwt>
<pdfrwt beam="2">  1       -4 0.36652671E-02 0.12499859E+03</pdfrwt>
<totfact> 0.92237644E+03</totfact>
</mgrwt>
</event>
<event>
 5    1  0.3327068E-002  0.1250030E+03  0.7818608E-02  0.1235065E+00
         -4   -1    0    0    0  501 -0.00000000000E+00  0.00000000000E+00  0.13938792790E+03  0.13939371343E+03  0.12700000000E+01 0.  1.
          4   -1    0    0  501    0  0.00000000000E+00 -0.00000000000E+00 -0.28004880201E+02  0.28033662177E+02  0.12700000000E+01 0.  1.
         25    2    1    2    0    0  0.00000000000E+00  0.00000000000E+00  0.11138304770E+03  0.16742737561E+03  0.12500297112E+03 0.  0.
    9000005    1    3    3    0    0  0.58470294490E+02  0.18975183186E+00  0.26145227183E+02  0.64057663460E+02  0.10000000000E+01 0.  0.
    9000005    1    3    3    0    0 -0.58470294490E+02 -0.18975183186E+00  0.85237820515E+02  0.10336971215E+03  0.10000000000E+01 0.  0.
<mgrwt>
<rscale>  0 0.12500297E+03</rscale>
<asrwt>0</asrwt>
<pdfrwt beam="2">  1        4 0.43111022E-02 0.12500297E+03</pdfrwt>
<pdfrwt beam="1">  1       -4 0.21446955E-01 0.12500297E+03</pdfrwt>
<totfact> 0.95923250E+03</totfact>
</mgrwt>
</event>
<event>
 5    1  0.3327068E-002  0.1249984E+03  0.7818608E-02  0.1235072E+00
          4   -1    0    0  501    0  0.00000000000E+00  0.00000000000E+00  0.27597486089E+02  0.27626692499E+02  0.12700000000E+01 0.  1.
         -4   -1    0    0    0  501 -0.00000000000E+00 -0.00000000000E+00 -0.14143310362E+03  0.14143880549E+03  0.12700000000E+01 0.  1.
         25    2    1    2    0    0  0.00000000000E+00  0.00000000000E+00 -0.11383561753E+03  0.16906549799E+03  0.12499837916E+03 0.  0.
    9000005    1    3    3    0    0  0.39329557028E+00 -0.31014743755E+01 -0.14133389939E+03  0.14137200905E+03  0.10000000000E+01 0.  0.
    9000005    1    3    3    0    0 -0.39329557028E+00  0.31014743755E+01  0.27498281861E+02  0.27693488946E+02  0.10000000000E+01 0.  0.
<mgrwt>
<rscale>  0 0.12499838E+03</rscale>
<asrwt>0</asrwt>
<pdfrwt beam="1">  1        4 0.42484524E-02 0.12499838E+03</pdfrwt>
<pdfrwt beam="2">  1       -4 0.21761624E-01 0.12499838E+03</pdfrwt>
<totfact> 0.95626424E+03</totfact>
</mgrwt>
</event>
<event>
 5    1  0.3327068E-002  0.1249992E+03  0.7818608E-02  0.1235071E+00
          4   -1    0    0  501    0  0.00000000000E+00  0.00000000000E+00  0.16754796783E+04  0.16754801596E+04  0.12700000000E+01 0. -1.
         -4   -1    0    0    0  501 -0.00000000000E+00 -0.00000000000E+00 -0.21579184884E+01  0.25038993995E+01  0.12700000000E+01 0. -1.
         25    2    1    2    0    0  0.00000000000E+00  0.00000000000E+00  0.16733217598E+04  0.16779840590E+04  0.12499916192E+03 0.  0.
    9000005    1    3    3    0    0 -0.22409696086E+02  0.42930329691E+02  0.13668632045E+04  0.13677211805E+04  0.10000000000E+01 0.  0.
    9000005    1    3    3    0    0  0.22409696086E+02 -0.42930329691E+02  0.30645855531E+03  0.31026287855E+03  0.10000000000E+01 0.  0.
<mgrwt>
<rscale>  0 0.12499916E+03</rscale>
<asrwt>0</asrwt>
<pdfrwt beam="1">  1        4 0.25779196E+00 0.12499916E+03</pdfrwt>
<pdfrwt beam="2">  1       -4 0.35863951E-03 0.12499916E+03</pdfrwt>
<totfact> 0.14678911E+03</totfact>
</mgrwt>
</event>
<event>
 5    1  0.3327068E-002  0.1249992E+03  0.7818608E-02  0.1235071E+00
         -4   -1    0    0    0  501 -0.00000000000E+00  0.00000000000E+00  0.47692079938E+01  0.49354072667E+01  0.12700000000E+01 0.  1.
          4   -1    0    0  501    0  0.00000000000E+00 -0.00000000000E+00 -0.80485257025E+03  0.80485357223E+03  0.12700000000E+01 0.  1.
         25    2    1    2    0    0  0.00000000000E+00  0.00000000000E+00 -0.80008336226E+03  0.80978897950E+03  0.12499921905E+03 0.  0.
    9000005    1    3    3    0    0  0.36792993779E+01 -0.50410087038E+02 -0.63811448010E+03  0.64011389911E+03  0.10000000000E+01 0.  0.
    9000005    1    3    3    0    0 -0.36792993779E+01  0.50410087038E+02 -0.16196888216E+03  0.16967508039E+03  0.10000000000E+01 0.  0.
<mgrwt>
<rscale>  0 0.12499922E+03</rscale>
<asrwt>0</asrwt>
<pdfrwt beam="2">  1        4 0.12383623E+00 0.12499922E+03</pdfrwt>
<pdfrwt beam="1">  1       -4 0.74658658E-03 0.12499922E+03</pdfrwt>
<totfact> 0.37832114E+03</totfact>
</mgrwt>
</event>
<event>
 5    1  0.3327068E-002  0.1250007E+03  0.7818608E-02  0.1235068E+00
         -4   -1    0    0    0  501 -0.00000000000E+00  0.00000000000E+00  0.19204375639E+03  0.19204795565E+03  0.12700000000E+01 0.  1.
          4   -1    0    0  501    0  0.00000000000E+00 -0.00000000000E+00 -0.20316400057E+02  0.20356055887E+02  0.12700000000E+01 0.  1.
         25    2    1    2    0    0  0.00000000000E+00  0.00000000000E+00  0.17172735633E+03  0.21240401153E+03  0.12500071681E+03 0.  0.
    9000005    1    3    3    0    0 -0.21677685023E+02  0.43294411358E+02  0.18728981196E+02  0.51924010048E+02  0.10000000000E+01 0.  0.
    9000005    1    3    3    0    0  0.21677685023E+02 -0.43294411358E+02  0.15299837514E+03  0.16048000149E+03  0.10000000000E+01 0.  0.
<mgrwt>
<rscale>  0 0.12500072E+03</rscale>
<asrwt>0</asrwt>
<pdfrwt beam="2">  1        4 0.31289736E-02 0.12500072E+03</pdfrwt>
<pdfrwt beam="1">  1       -4 0.29548566E-01 0.12500072E+03</pdfrwt>
<totfact> 0.88083363E+03</totfact>
</mgrwt>
</event>
<event>
 5    1  0.3327068E-002  0.1250024E+03  0.7818608E-02  0.1235066E+00
          4   -1    0    0  501    0  0.00000000000E+00  0.00000000000E+00  0.20916026894E+02  0.20954547980E+02  0.12700000000E+01 0. -1.
         -4   -1    0    0    0  501 -0.00000000000E+00 -0.00000000000E+00 -0.18655331736E+03  0.18655764020E+03  0.12700000000E+01 0. -1.
         25    2    1    2    0    0  0.00000000000E+00  0.00000000000E+00 -0.16563729046E+03  0.20751218818E+03  0.12500238498E+03 0.  0.
    9000005    1    3    3    0    0  0.46737478373E+02 -0.21196939285E+02 -0.23619269853E+02  0.56502849735E+02  0.10000000000E+01 0.  0.
    9000005    1    3    3    0    0 -0.46737478373E+02  0.21196939285E+02 -0.14201802061E+03  0.15100933845E+03  0.10000000000E+01 0.  0.
<mgrwt>
<rscale>  0 0.12500238E+03</rscale>
<asrwt>0</asrwt>
<pdfrwt beam="1">  1        4 0.32211461E-02 0.12500238E+03</pdfrwt>
<pdfrwt beam="2">  1       -4 0.28703805E-01 0.12500238E+03</pdfrwt>
<totfact> 0.88879052E+03</totfact>
</mgrwt>
</event>
<event>
 5    1  0.3327068E-002  0.1250034E+03  0.7818608E-02  0.1235064E+00
          4   -1    0    0  501    0  0.00000000000E+00  0.00000000000E+00  0.83686093895E+03  0.83686190261E+03  0.12700000000E+01 0. -1.
         -4   -1    0    0    0  501 -0.00000000000E+00 -0.00000000000E+00 -0.45806294262E+01  0.47534267577E+01  0.12700000000E+01 0. -1.
         25    2    1    2    0    0  0.00000000000E+00  0.00000000000E+00  0.83228030952E+03  0.84161532936E+03  0.12500339598E+03 0.  0.
    9000005    1    3    3    0    0 -0.62386400768E+02 -0.26253356067E+01  0.43331440078E+03  0.43779141758E+03  0.10000000000E+01 0.  0.
    9000005    1    3    3    0    0  0.62386400768E+02  0.26253356067E+01  0.39896590874E+03  0.40382391178E+03  0.10000000000E+01 0.  0.
<mgrwt>
<rscale>  0 0.12500340E+03</rscale>
<asrwt>0</asrwt>
<pdfrwt beam="1">  1        4 0.12876112E+00 0.12500340E+03</pdfrwt>
<pdfrwt beam="2">  1       -4 0.71807893E-03 0.12500340E+03</pdfrwt>
<totfact> 0.36470228E+03</totfact>
</mgrwt>
</event>
<event>
 5    1  0.3327068E-002  0.1250000E+03  0.7818608E-02  0.1235069E+00
         -4   -1    0    0    0  501 -0.00000000000E+00  0.00000000000E+00  0.23280788965E+03  0.23281135364E+03  0.12700000000E+01 0.  1.
          4   -1    0    0  501    0  0.00000000000E+00 -0.00000000000E+00 -0.16751238515E+02  0.16799312242E+02  0.12700000000E+01 0.  1.
         25    2    1    2    0    0  0.00000000000E+00  0.00000000000E+00  0.21605665114E+03  0.24961066588E+03  0.12500003209E+03 0.  0.
    9000005    1    3    3    0    0 -0.39961545703E+02  0.41530195409E+02  0.15626744777E+03  0.16655989162E+03  0.10000000000E+01 0.  0.
    9000005    1    3    3    0    0  0.39961545703E+02 -0.41530195409E+02  0.59789203370E+02  0.83050774261E+02  0.10000000000E+01 0.  0.
<mgrwt>
<rscale>  0 0.12500003E+03</rscale>
<asrwt>0</asrwt>
<pdfrwt beam="2">  1        4 0.25810783E-02 0.12500003E+03</pdfrwt>
<pdfrwt beam="1">  1       -4 0.35820560E-01 0.12500003E+03</pdfrwt>
<totfact> 0.82386474E+03</totfact>
</mgrwt>
</event>
<event>
 5    1  0.3327068E-002  0.1249991E+03  0.7818608E-02  0.1235071E+00
          4   -1    0    0  501    0  0.00000000000E+00  0.00000000000E+00  0.17967608593E+02  0.18012436219E+02  0.12700000000E+01 0. -1.
         -4   -1    0    0    0  501 -0.00000000000E+00 -0.00000000000E+00 -0.21708436129E+03  0.21708807618E+03  0.12700000000E+01 0. -1.
         25    2    1    2    0    0  0.00000000000E+00  0.00000000000E+00 -0.19911675270E+03  0.23510051240E+03  0.12499907889E+03 0.  0.
    9000005    1    3    3    0    0  0.37779652042E+02 -0.29939987635E+02 -0.24762158195E+02  0.54202116623E+02  0.10000000000E+01 0.  0.
    9000005    1    3    3    0    0 -0.37779652042E+02  0.29939987635E+02 -0.17435459451E+03  0.18089839577E+03  0.10000000000E+01 0.  0.
<mgrwt>
<rscale>  0 0.12499908E+03</rscale>
<asrwt>0</asrwt>
<pdfrwt beam="1">  1        4 0.27679817E-02 0.12499908E+03</pdfrwt>
<pdfrwt beam="2">  1       -4 0.33401326E-01 0.12499908E+03</pdfrwt>
<totfact> 0.84534250E+03</totfact>
</mgrwt>
</event>
<event>
 5    1  0.3327068E-002  0.1250017E+03  0.7818608E-02  0.1235067E+00
         -4   -1    0    0    0  501 -0.00000000000E+00  0.00000000000E+00  0.44551506101E+02  0.44569603946E+02  0.12700000000E+01 0. -1.
          4   -1    0    0  501    0  0.00000000000E+00 -0.00000000000E+00 -0.87641233683E+02  0.87650434919E+02  0.12700000000E+01 0. -1.
         25    2    1    2    0    0  0.00000000000E+00  0.00000000000E+00 -0.43089727582E+02  0.13222003886E+03  0.12500165621E+03 0.  0.
    9000005    1    3    3    0    0  0.15307652550E+01  0.52373301945E+02  0.14481414730E+02  0.54369268631E+02  0.10000000000E+01 0.  0.
    9000005    1    3    3    0    0 -0.15307652550E+01 -0.52373301945E+02 -0.57571142312E+02  0.77850770234E+02  0.10000000000E+01 0.  0.
<mgrwt>
<rscale>  0 0.12500166E+03</rscale>
<asrwt>0</asrwt>
<pdfrwt beam="2">  1        4 0.13485367E-01 0.12500166E+03</pdfrwt>
<pdfrwt beam="1">  1       -4 0.68561778E-02 0.12500166E+03</pdfrwt>
<totfact> 0.10296619E+04</totfact>
</mgrwt>
</event>
<event>
 5    1  0.3327068E-002  0.1250034E+03  0.7818608E-02  0.1235064E+00
          4   -1    0    0  501    0  0.00000000000E+00  0.00000000000E+00  0.13100572645E+04  0.13100578801E+04  0.12700000000E+01 0.  1.
         -4   -1    0    0    0  501 -0.00000000000E+00 -0.00000000000E+00 -0.28460330915E+01  0.31165372383E+01  0.12700000000E+01 0.  1.
         25    2    1    2    0    0  0.00000000000E+00  0.00000000000E+00  0.13072112314E+04  0.13131744173E+04  0.12500338711E+03 0.  0.
    9000005    1    3    3    0    0  0.10184730011E+02  0.42632088092E+02  0.11215535321E+04  0.11224101518E+04  0.10000000000E+01 0.  0.
    9000005    1    3    3    0    0 -0.10184730011E+02 -0.42632088092E+02  0.18565769936E+03  0.19076426550E+03  0.10000000000E+01 0.  0.
<mgrwt>
<rscale>  0 0.12500339E+03</rscale>
<asrwt>0</asrwt>
<pdfrwt beam="1">  1        4 0.20156770E+00 0.12500339E+03</pdfrwt>
<pdfrwt beam="2">  1       -4 0.45870759E-03 0.12500339E+03</pdfrwt>
<totfact> 0.21918143E+03</totfact>
</mgrwt>
</event>
<event>
 5    1  0.3327068E-002  0.1250001E+03  0.7818608E-02  0.1235069E+00
          4   -1    0    0  501    0  0.00000000000E+00  0.00000000000E+00  0.52159058129E+03  0.52159212742E+03  0.12700000000E+01 0. -1.
         -4   -1    0    0    0  501 -0.00000000000E+00 -0.00000000000E+00 -0.74337162293E+01  0.75414214163E+01  0.12700000000E+01 0. -1.
         25    2    1    2    0    0  0.00000000000E+00  0.00000000000E+00  0.51415686506E+03  0.52913354884E+03  0.12500012248E+03 0.  0.
    9000005    1    3    3    0    0  0.17736176295E+02  0.49484083046E+02  0.11402771289E+03  0.12556498609E+03  0.10000000000E+01 0.  0.
    9000005    1    3    3    0    0 -0.17736176295E+02 -0.49484083046E+02  0.40012915217E+03  0.40356856275E+03  0.10000000000E+01 0.  0.
<mgrwt>
<rscale>  0 0.12500012E+03</rscale>
<asrwt>0</asrwt>
<pdfrwt beam="1">  1        4 0.80253118E-01 0.12500012E+03</pdfrwt>
<pdfrwt beam="2">  1       -4 0.11520525E-02 0.12500012E+03</pdfrwt>
<totfact> 0.53672603E+03</totfact>
</mgrwt>
</event>
<event>
 5    1  0.3327068E-002  0.1250056E+03  0.7818608E-02  0.1235061E+00
          4   -1    0    0  501    0  0.00000000000E+00  0.00000000000E+00  0.20806973960E+03  0.20807361543E+03  0.12700000000E+01 0. -1.
         -4   -1    0    0    0  501 -0.00000000000E+00 -0.00000000000E+00 -0.18749908779E+02  0.18792870435E+02  0.12700000000E+01 0. -1.
         25    2    1    2    0    0  0.00000000000E+00  0.00000000000E+00  0.18931983082E+03  0.22686648586E+03  0.12500561614E+03 0.  0.
    9000005    1    3    3    0    0 -0.19898601210E+02  0.33377042781E+02  0.58319413809E+01  0.39306397128E+02  0.10000000000E+01 0.  0.
    9000005    1    3    3    0    0  0.19898601210E+02 -0.33377042781E+02  0.18348788944E+03  0.18756008873E+03  0.10000000000E+01 0.  0.
<mgrwt>
<rscale>  0 0.12500562E+03</rscale>
<asrwt>0</asrwt>
<pdfrwt beam="1">  1        4 0.32014334E-01 0.12500562E+03</pdfrwt>
<pdfrwt beam="2">  1       -4 0.28882040E-02 0.12500562E+03</pdfrwt>
<totfact> 0.85782330E+03</totfact>
</mgrwt>
</event>
<event>
 5    1  0.3327068E-002  0.1250030E+03  0.7818608E-02  0.1235065E+00
         -4   -1    0    0    0  501 -0.00000000000E+00  0.00000000000E+00  0.21577646796E+02  0.21614988810E+02  0.12700000000E+01 0. -1.
          4   -1    0    0  501    0  0.00000000000E+00 -0.00000000000E+00 -0.18084498281E+03  0.18084944210E+03  0.12700000000E+01 0. -1.
         25    2    1    2    0    0  0.00000000000E+00  0.00000000000E+00 -0.15926733602E+03  0.20246443091E+03  0.12500304581E+03 0.  0.
    9000005    1    3    3    0    0 -0.64785781334E+01  0.38927865290E+02 -0.11488811369E+01  0.39492665123E+02  0.10000000000E+01 0.  0.
    9000005    1    3    3    0    0  0.64785781334E+01 -0.38927865290E+02 -0.15811845488E+03  0.16297176579E+03  0.10000000000E+01 0.  0.
<mgrwt>
<rscale>  0 0.12500305E+03</rscale>
<asrwt>0</asrwt>
<pdfrwt beam="2">  1        4 0.27825520E-01 0.12500305E+03</pdfrwt>
<pdfrwt beam="1">  1       -4 0.33228536E-02 0.12500305E+03</pdfrwt>
<totfact> 0.89715405E+03</totfact>
</mgrwt>
</event>
<event>
 5    1  0.3327068E-002  0.1250025E+03  0.7818608E-02  0.1235065E+00
         -4   -1    0    0    0  501 -0.00000000000E+00  0.00000000000E+00  0.30755730411E+02  0.30781940373E+02  0.12700000000E+01 0.  1.
          4   -1    0    0  501    0  0.00000000000E+00 -0.00000000000E+00 -0.12693037187E+03  0.12693672520E+03  0.12700000000E+01 0.  1.
         25    2    1    2    0    0  0.00000000000E+00  0.00000000000E+00 -0.96174641460E+02  0.15771866557E+03  0.12500246321E+03 0.  0.
    9000005    1    3    3    0    0 -0.11018738496E+01  0.60766302728E+02 -0.29731667622E+02  0.67666311654E+02  0.10000000000E+01 0.  0.
    9000005    1    3    3    0    0  0.11018738496E+01 -0.60766302728E+02 -0.66442973839E+02  0.90052353916E+02  0.10000000000E+01 0.  0.
<mgrwt>
<rscale>  0 0.12500246E+03</rscale>
<asrwt>0</asrwt>
<pdfrwt beam="2">  1        4 0.19530254E-01 0.12500246E+03</pdfrwt>
<pdfrwt beam="1">  1       -4 0.47341558E-02 0.12500246E+03</pdfrwt>
<totfact> 0.97779004E+03</totfact>
</mgrwt>
</event>
<event>
 5    1  0.3327068E-002  0.1250038E+03  0.7818608E-02  0.1235063E+00
          4   -1    0    0  501    0  0.00000000000E+00  0.00000000000E+00  0.34243492224E+01  0.36522688287E+01  0.12700000000E+01 0. -1.
         -4   -1    0    0    0  501 -0.00000000000E+00 -0.00000000000E+00 -0.11038268076E+04  0.11038275382E+04  0.12700000000E+01 0. -1.
         25    2    1    2    0    0  0.00000000000E+00  0.00000000000E+00 -0.11004024584E+04  0.11074798070E+04  0.12500381018E+03 0.  0.
    9000005    1    3    3    0    0  0.61830137390E+02 -0.81417716664E+00 -0.47004325109E+03  0.47409417490E+03  0.10000000000E+01 0.  0.
    9000005    1    3    3    0    0 -0.61830137390E+02  0.81417716664E+00 -0.63035920728E+03  0.63338563212E+03  0.10000000000E+01 0.  0.
<mgrwt>
<rscale>  0 0.12500381E+03</rscale>
<asrwt>0</asrwt>
<pdfrwt beam="1">  1        4 0.54441231E-03 0.12500381E+03</pdfrwt>
<pdfrwt beam="2">  1       -4 0.16983682E+00 0.12500381E+03</pdfrwt>
<totfact> 0.27263292E+03</totfact>
</mgrwt>
</event>
<event>
 5    1  0.3327068E-002  0.1249863E+03  0.7818608E-02  0.1235091E+00
         -4   -1    0    0    0  501 -0.00000000000E+00  0.00000000000E+00  0.40087257096E+02  0.40107369416E+02  0.12700000000E+01 0. -1.
          4   -1    0    0  501    0  0.00000000000E+00 -0.00000000000E+00 -0.97373640081E+02  0.97381921745E+02  0.12700000000E+01 0. -1.
         25    2    1    2    0    0  0.00000000000E+00  0.00000000000E+00 -0.57286382985E+02  0.13748929116E+03  0.12498630128E+03 0.  0.
    9000005    1    3    3    0    0  0.39419616022E+02 -0.44253366550E+02 -0.50426307061E+02  0.77820813554E+02  0.10000000000E+01 0.  0.
    9000005    1    3    3    0    0 -0.39419616022E+02  0.44253366550E+02 -0.68600759237E+01  0.59668477607E+02  0.10000000000E+01 0.  0.
<mgrwt>
<rscale>  0 0.12498630E+03</rscale>
<asrwt>0</asrwt>
<pdfrwt beam="2">  1        4 0.14982744E-01 0.12498630E+03</pdfrwt>
<pdfrwt beam="1">  1       -4 0.61694545E-02 0.12498630E+03</pdfrwt>
<totfact> 0.10189012E+04</totfact>
</mgrwt>
</event>
<event>
 5    1  0.3327068E-002  0.1250018E+03  0.7818608E-02  0.1235067E+00
          4   -1    0    0  501    0  0.00000000000E+00  0.00000000000E+00  0.29651732192E+02  0.29678917130E+02  0.12700000000E+01 0. -1.
         -4   -1    0    0    0  501 -0.00000000000E+00 -0.00000000000E+00 -0.13165079853E+03  0.13165692406E+03  0.12700000000E+01 0. -1.
         25    2    1    2    0    0  0.00000000000E+00  0.00000000000E+00 -0.10199906634E+03  0.16133584119E+03  0.12500177646E+03 0.  0.
    9000005    1    3    3    0    0 -0.24424165840E+02 -0.15338514425E+02  0.20554627818E+02  0.35430250161E+02  0.10000000000E+01 0.  0.
    9000005    1    3    3    0    0  0.24424165840E+02  0.15338514425E+02 -0.12255369415E+03  0.12590559103E+03  0.10000000000E+01 0.  0.
<mgrwt>
<rscale>  0 0.12500178E+03</rscale>
<asrwt>0</asrwt>
<pdfrwt beam="1">  1        4 0.45643674E-02 0.12500178E+03</pdfrwt>
<pdfrwt beam="2">  1       -4 0.20256531E-01 0.12500178E+03</pdfrwt>
<totfact> 0.97081986E+03</totfact>
</mgrwt>
</event>
<event>
 5    1  0.3327068E-002  0.1249889E+03  0.7818608E-02  0.1235087E+00
         -4   -1    0    0    0  501 -0.00000000000E+00  0.00000000000E+00  0.14670530187E+04  0.14670535684E+04  0.12700000000E+01 0. -1.
          4   -1    0    0  501    0  0.00000000000E+00 -0.00000000000E+00 -0.25101306796E+01  0.28131221140E+01  0.12700000000E+01 0. -1.
         25    2    1    2    0    0  0.00000000000E+00  0.00000000000E+00  0.14645428880E+04  0.14698666905E+04  0.12498886772E+03 0.  0.
    9000005    1    3    3    0    0  0.23053679531E+02 -0.57645602183E+01  0.52645070794E+02  0.57768553498E+02  0.10000000000E+01 0.  0.
    9000005    1    3    3    0    0 -0.23053679531E+02  0.57645602183E+01  0.14118978173E+04  0.14120981370E+04  0.10000000000E+01 0.  0.
<mgrwt>
<rscale>  0 0.12498887E+03</rscale>
<asrwt>0</asrwt>
<pdfrwt beam="2">  1        4 0.40952286E-03 0.12498887E+03</pdfrwt>
<pdfrwt beam="1">  1       -4 0.22572404E+00 0.12498887E+03</pdfrwt>
<totfact> 0.18533948E+03</totfact>
</mgrwt>
</event>
<event>
 5    1  0.3327068E-002  0.1250210E+03  0.7818608E-02  0.1235036E+00
          4   -1    0    0  501    0  0.00000000000E+00  0.00000000000E+00  0.15605763679E+03  0.15606280434E+03  0.12700000000E+01 0.  1.
         -4   -1    0    0    0  501 -0.00000000000E+00 -0.00000000000E+00 -0.25017557156E+02  0.25049771776E+02  0.12700000000E+01 0.  1.
         25    2    1    2    0    0  0.00000000000E+00  0.00000000000E+00  0.13104007963E+03  0.18111257612E+03  0.12502104926E+03 0.  0.
    9000005    1    3    3    0    0 -0.82770371867E+01 -0.52657534987E+02  0.11280132508E+03  0.12476563740E+03  0.10000000000E+01 0.  0.
    9000005    1    3    3    0    0  0.82770371867E+01  0.52657534987E+02  0.18238754548E+02  0.56346938719E+02  0.10000000000E+01 0.  0.
<mgrwt>
<rscale>  0 0.12502105E+03</rscale>
<asrwt>0</asrwt>
<pdfrwt beam="1">  1        4 0.24011743E-01 0.12502105E+03</pdfrwt>
<pdfrwt beam="2">  1       -4 0.38517305E-02 0.12502105E+03</pdfrwt>
<totfact> 0.93373047E+03</totfact>
</mgrwt>
</event>
<event>
 5    1  0.3327068E-002  0.1250011E+03  0.7818608E-02  0.1235068E+00
         -4   -1    0    0    0  501 -0.00000000000E+00  0.00000000000E+00  0.32365635368E+02  0.32390542644E+02  0.12700000000E+01 0.  1.
          4   -1    0    0  501    0  0.00000000000E+00 -0.00000000000E+00 -0.12061872435E+03  0.12062541011E+03  0.12700000000E+01 0.  1.
         25    2    1    2    0    0  0.00000000000E+00  0.00000000000E+00 -0.88253088981E+02  0.15301595275E+03  0.12500109632E+03 0.  0.
    9000005    1    3    3    0    0 -0.11659080599E+02  0.54497459937E+01  0.30731827582E+02  0.33332853438E+02  0.10000000000E+01 0.  0.
    9000005    1    3    3    0    0  0.11659080599E+02 -0.54497459937E+01 -0.11898491656E+03  0.11968309931E+03  0.10000000000E+01 0.  0.
<mgrwt>
<rscale>  0 0.12500110E+03</rscale>
<asrwt>0</asrwt>
<pdfrwt beam="2">  1        4 0.18559157E-01 0.12500110E+03</pdfrwt>
<pdfrwt beam="1">  1       -4 0.49817588E-02 0.12500110E+03</pdfrwt>
<totfact> 0.98703441E+03</totfact>
</mgrwt>
</event>
<event>
 5    1  0.3327068E-002  0.1249980E+03  0.7818608E-02  0.1235072E+00
         -4   -1    0    0    0  501 -0.00000000000E+00  0.00000000000E+00  0.50269458491E+02  0.50285498476E+02  0.12700000000E+01 0. -1.
          4   -1    0    0  501    0  0.00000000000E+00 -0.00000000000E+00 -0.77670112835E+02  0.77680495157E+02  0.12700000000E+01 0. -1.
         25    2    1    2    0    0  0.00000000000E+00  0.00000000000E+00 -0.27400654345E+02  0.12796599363E+03  0.12499799866E+03 0.  0.
    9000005    1    3    3    0    0 -0.34024120924E+02  0.52188549642E+02 -0.87018333296E+01  0.62912696824E+02  0.10000000000E+01 0.  0.
    9000005    1    3    3    0    0  0.34024120924E+02 -0.52188549642E+02 -0.18698821015E+02  0.65053296809E+02  0.10000000000E+01 0.  0.
<mgrwt>
<rscale>  0 0.12499800E+03</rscale>
<asrwt>0</asrwt>
<pdfrwt beam="2">  1        4 0.11951281E-01 0.12499800E+03</pdfrwt>
<pdfrwt beam="1">  1       -4 0.77357953E-02 0.12499800E+03</pdfrwt>
<totfact> 0.10388691E+04</totfact>
</mgrwt>
</event>
<event>
 5    1  0.3327068E-002  0.1250077E+03  0.7818608E-02  0.1235057E+00
         -4   -1    0    0    0  501 -0.00000000000E+00  0.00000000000E+00  0.15833478144E+02  0.15884329704E+02  0.12700000000E+01 0. -1.
          4   -1    0    0  501    0  0.00000000000E+00 -0.00000000000E+00 -0.24629040998E+03  0.24629368434E+03  0.12700000000E+01 0. -1.
         25    2    1    2    0    0  0.00000000000E+00  0.00000000000E+00 -0.23045693183E+03  0.26217801405E+03  0.12500765424E+03 0.  0.
    9000005    1    3    3    0    0  0.38032354253E+02  0.56965404732E+00 -0.21922861851E+03  0.22250611598E+03  0.10000000000E+01 0.  0.
    9000005    1    3    3    0    0 -0.38032354253E+02 -0.56965404732E+00 -0.11228313320E+02  0.39671898061E+02  0.10000000000E+01 0.  0.
<mgrwt>
<rscale>  0 0.12500765E+03</rscale>
<asrwt>0</asrwt>
<pdfrwt beam="2">  1        4 0.37894993E-01 0.12500765E+03</pdfrwt>
<pdfrwt beam="1">  1       -4 0.24400834E-02 0.12500765E+03</pdfrwt>
<totfact> 0.80587648E+03</totfact>
</mgrwt>
</event>
<event>
 5    1  0.3327068E-002  0.1250009E+03  0.7818608E-02  0.1235068E+00
          4   -1    0    0  501    0  0.00000000000E+00  0.00000000000E+00  0.34438015991E+02  0.34461425470E+02  0.12700000000E+01 0. -1.
         -4   -1    0    0    0  501 -0.00000000000E+00 -0.00000000000E+00 -0.11336462507E+03  0.11337173862E+03  0.12700000000E+01 0. -1.
         25    2    1    2    0    0  0.00000000000E+00  0.00000000000E+00 -0.78926609078E+02  0.14783316409E+03  0.12500093913E+03 0.  0.
    9000005    1    3    3    0    0 -0.47494362592E+02  0.40399586596E+02 -0.34520476844E+02  0.71277657065E+02  0.10000000000E+01 0.  0.
    9000005    1    3    3    0    0  0.47494362592E+02 -0.40399586596E+02 -0.44406132234E+02  0.76555507021E+02  0.10000000000E+01 0.  0.
<mgrwt>
<rscale>  0 0.12500094E+03</rscale>
<asrwt>0</asrwt>
<pdfrwt beam="1">  1        4 0.53005043E-02 0.12500094E+03</pdfrwt>
<pdfrwt beam="2">  1       -4 0.17443059E-01 0.12500094E+03</pdfrwt>
<totfact> 0.99735282E+03</totfact>
</mgrwt>
</event>
<event>
 5    1  0.3327068E-002  0.1249972E+03  0.7818608E-02  0.1235074E+00
          4   -1    0    0  501    0  0.00000000000E+00  0.00000000000E+00  0.35120037100E+02  0.35142992273E+02  0.12700000000E+01 0. -1.
         -4   -1    0    0    0  501 -0.00000000000E+00 -0.00000000000E+00 -0.11115779880E+03  0.11116505356E+03  0.12700000000E+01 0. -1.
         25    2    1    2    0    0  0.00000000000E+00  0.00000000000E+00 -0.76037761697E+02  0.14630804583E+03  0.12499721226E+03 0.  0.
    9000005    1    3    3    0    0  0.39058935828E+02  0.48434274916E+02 -0.44803315972E+02  0.76679962029E+02  0.10000000000E+01 0.  0.
    9000005    1    3    3    0    0 -0.39058935828E+02 -0.48434274916E+02 -0.31234445725E+02  0.69628083805E+02  0.10000000000E+01 0.  0.
<mgrwt>
<rscale>  0 0.12499721E+03</rscale>
<asrwt>0</asrwt>
<pdfrwt beam="1">  1        4 0.54054065E-02 0.12499721E+03</pdfrwt>
<pdfrwt beam="2">  1       -4 0.17103523E-01 0.12499721E+03</pdfrwt>
<totfact> 0.10005107E+04</totfact>
</mgrwt>
</event>
<event>
 5    1  0.3327068E-002  0.1250142E+03  0.7818608E-02  0.1235047E+00
          4   -1    0    0  501    0  0.00000000000E+00  0.00000000000E+00  0.57496028037E+02  0.57510052513E+02  0.12700000000E+01 0.  1.
         -4   -1    0    0    0  501 -0.00000000000E+00 -0.00000000000E+00 -0.67926718399E+02  0.67938589715E+02  0.12700000000E+01 0.  1.
         25    2    1    2    0    0  0.00000000000E+00  0.00000000000E+00 -0.10430690362E+02  0.12544864223E+03  0.12501424933E+03 0.  0.
    9000005    1    3    3    0    0 -0.29813192358E+01  0.31209455738E+02 -0.59470045001E+02  0.67235441876E+02  0.10000000000E+01 0.  0.
    9000005    1    3    3    0    0  0.29813192358E+01 -0.31209455738E+02  0.49039354639E+02  0.58213200352E+02  0.10000000000E+01 0.  0.
<mgrwt>
<rscale>  0 0.12501425E+03</rscale>
<asrwt>0</asrwt>
<pdfrwt beam="1">  1        4 0.88475347E-02 0.12501425E+03</pdfrwt>
<pdfrwt beam="2">  1       -4 0.10452256E-01 0.12501425E+03</pdfrwt>
<totfact> 0.10439735E+04</totfact>
</mgrwt>
</event>
<event>
 5    1  0.3327068E-002  0.1250152E+03  0.7818608E-02  0.1235046E+00
         -4   -1    0    0    0  501 -0.00000000000E+00  0.00000000000E+00  0.54906329744E+02  0.54921015522E+02  0.12700000000E+01 0. -1.
          4   -1    0    0  501    0  0.00000000000E+00 -0.00000000000E+00 -0.71131316684E+02  0.71142653262E+02  0.12700000000E+01 0. -1.
         25    2    1    2    0    0  0.00000000000E+00  0.00000000000E+00 -0.16224986940E+02  0.12606366878E+03  0.12501519262E+03 0.  0.
    9000005    1    3    3    0    0  0.57788260116E+02  0.23508322956E+02 -0.11895670040E+02  0.63518747006E+02  0.10000000000E+01 0.  0.
    9000005    1    3    3    0    0 -0.57788260116E+02 -0.23508322956E+02 -0.43293169000E+01  0.62544921779E+02  0.10000000000E+01 0.  0.
<mgrwt>
<rscale>  0 0.12501519E+03</rscale>
<asrwt>0</asrwt>
<pdfrwt beam="2">  1        4 0.10945281E-01 0.12501519E+03</pdfrwt>
<pdfrwt beam="1">  1       -4 0.84491293E-02 0.12501519E+03</pdfrwt>
<totfact> 0.10425987E+04</totfact>
</mgrwt>
</event>
<event>
 5    1  0.3327068E-002  0.1249999E+03  0.7818608E-02  0.1235069E+00
          4   -1    0    0  501    0  0.00000000000E+00  0.00000000000E+00  0.22970390337E+03  0.22970741417E+03  0.12700000000E+01 0. -1.
         -4   -1    0    0    0  501 -0.00000000000E+00 -0.00000000000E+00 -0.16978207126E+02  0.17025639994E+02  0.12700000000E+01 0. -1.
         25    2    1    2    0    0  0.00000000000E+00  0.00000000000E+00  0.21272569625E+03  0.24673305416E+03  0.12499991269E+03 0.  0.
    9000005    1    3    3    0    0 -0.55502611232E+02 -0.42881670987E+00  0.16304135940E+03  0.17223300675E+03  0.10000000000E+01 0.  0.
    9000005    1    3    3    0    0  0.55502611232E+02  0.42881670987E+00  0.49684336842E+02  0.74500047414E+02  0.10000000000E+01 0.  0.
<mgrwt>
<rscale>  0 0.12499991E+03</rscale>
<asrwt>0</asrwt>
<pdfrwt beam="1">  1        4 0.35342979E-01 0.12499991E+03</pdfrwt>
<pdfrwt beam="2">  1       -4 0.26159508E-02 0.12499991E+03</pdfrwt>
<totfact> 0.82804870E+03</totfact>
</mgrwt>
</event>
<event>
 5    1  0.3327068E-002  0.1249988E+03  0.7818608E-02  0.1235071E+00
          4   -1    0    0  501    0  0.00000000000E+00  0.00000000000E+00  0.11713201843E+02  0.11781850339E+02  0.12700000000E+01 0. -1.
         -4   -1    0    0    0  501 -0.00000000000E+00 -0.00000000000E+00 -0.33244043380E+03  0.33244285964E+03  0.12700000000E+01 0. -1.
         25    2    1    2    0    0  0.00000000000E+00  0.00000000000E+00 -0.32072723196E+03  0.34422470998E+03  0.12499877456E+03 0.  0.
    9000005    1    3    3    0    0  0.41944718788E+02 -0.45576379659E+02 -0.18317346338E+03  0.19336515586E+03  0.10000000000E+01 0.  0.
    9000005    1    3    3    0    0 -0.41944718788E+02  0.45576379659E+02 -0.13755376858E+03  0.15085955412E+03  0.10000000000E+01 0.  0.
<mgrwt>
<rscale>  0 0.12499877E+03</rscale>
<asrwt>0</asrwt>
<pdfrwt beam="1">  1        4 0.18074986E-02 0.12499877E+03</pdfrwt>
<pdfrwt beam="2">  1       -4 0.51150142E-01 0.12499877E+03</pdfrwt>
<totfact> 0.70366528E+03</totfact>
</mgrwt>
</event>
<event>
 5    1  0.3327068E-002  0.1250011E+03  0.7818608E-02  0.1235068E+00
         -4   -1    0    0    0  501 -0.00000000000E+00  0.00000000000E+00  0.39264545394E+01  0.41267354228E+01  0.12700000000E+01 0.  1.
          4   -1    0    0  501    0  0.00000000000E+00 -0.00000000000E+00 -0.96992856223E+03  0.96992939369E+03  0.12700000000E+01 0.  1.
         25    2    1    2    0    0  0.00000000000E+00  0.00000000000E+00 -0.96600210770E+03  0.97405612911E+03  0.12500108234E+03 0.  0.
    9000005    1    3    3    0    0  0.23999762610E+02  0.55272629774E+02 -0.35395172447E+03  0.35904578464E+03  0.10000000000E+01 0.  0.
    9000005    1    3    3    0    0 -0.23999762610E+02 -0.55272629774E+02 -0.61205038322E+03  0.61501034447E+03  0.10000000000E+01 0.  0.
<mgrwt>
<rscale>  0 0.12500108E+03</rscale>
<asrwt>0</asrwt>
<pdfrwt beam="2">  1        4 0.14923506E+00 0.12500108E+03</pdfrwt>
<pdfrwt beam="1">  1       -4 0.61954088E-03 0.12500108E+03</pdfrwt>
<totfact> 0.31476283E+03</totfact>
</mgrwt>
</event>
<event>
 5    1  0.3327068E-002  0.1250263E+03  0.7818608E-02  0.1235028E+00
         -4   -1    0    0    0  501 -0.00000000000E+00  0.00000000000E+00  0.37917531155E+03  0.37917743840E+03  0.12700000000E+01 0.  1.
          4   -1    0    0  501    0  0.00000000000E+00 -0.00000000000E+00 -0.10265009973E+02  0.10343274614E+02  0.12700000000E+01 0.  1.
         25    2    1    2    0    0  0.00000000000E+00  0.00000000000E+00  0.36891030158E+03  0.38952071301E+03  0.12502629825E+03 0.  0.
    9000005    1    3    3    0    0  0.48795227424E+02  0.30114215468E+02  0.26197150128E+03  0.26817514366E+03  0.10000000000E+01 0.  0.
    9000005    1    3    3    0    0 -0.48795227424E+02 -0.30114215468E+02  0.10693880029E+03  0.12134556935E+03  0.10000000000E+01 0.  0.
<mgrwt>
<rscale>  0 0.12502630E+03</rscale>
<asrwt>0</asrwt>
<pdfrwt beam="2">  1        4 0.15854164E-02 0.12502630E+03</pdfrwt>
<pdfrwt beam="1">  1       -4 0.58340842E-01 0.12502630E+03</pdfrwt>
<totfact> 0.65546835E+03</totfact>
</mgrwt>
</event>
<event>
 5    1  0.3327068E-002  0.1249977E+03  0.7818608E-02  0.1235073E+00
          4   -1    0    0  501    0  0.00000000000E+00  0.00000000000E+00  0.24176357409E+02  0.24209691398E+02  0.12700000000E+01 0. -1.
         -4   -1    0    0    0  501 -0.00000000000E+00 -0.00000000000E+00 -0.16141993303E+03  0.16142492893E+03  0.12700000000E+01 0. -1.
         25    2    1    2    0    0  0.00000000000E+00  0.00000000000E+00 -0.13724357562E+03  0.18563462033E+03  0.12499765284E+03 0.  0.
    9000005    1    3    3    0    0 -0.26477701052E+01  0.39681345607E+02  0.29640159736E+01  0.39892421165E+02  0.10000000000E+01 0.  0.
    9000005    1    3    3    0    0  0.26477701052E+01 -0.39681345607E+02 -0.14020759159E+03  0.14574219916E+03  0.10000000000E+01 0.  0.
<mgrwt>
<rscale>  0 0.12499765E+03</rscale>
<asrwt>0</asrwt>
<pdfrwt beam="1">  1        4 0.37223881E-02 0.12499765E+03</pdfrwt>
<pdfrwt beam="2">  1       -4 0.24836784E-01 0.12499765E+03</pdfrwt>
<totfact> 0.92617345E+03</totfact>
</mgrwt>
</event>
<event>
 5    1  0.3327068E-002  0.1250053E+03  0.7818608E-02  0.1235061E+00
         -4   -1    0    0    0  501 -0.00000000000E+00  0.00000000000E+00  0.23733899057E+02  0.23767853594E+02  0.12700000000E+01 0.  1.
          4   -1    0    0  501    0  0.00000000000E+00 -0.00000000000E+00 -0.16444504517E+03  0.16444994917E+03  0.12700000000E+01 0.  1.
         25    2    1    2    0    0  0.00000000000E+00  0.00000000000E+00 -0.14071114612E+03  0.18821780276E+03  0.12500525843E+03 0.  0.
    9000005    1    3    3    0    0  0.15234859614E+02 -0.56873700478E+02 -0.10189801916E+03  0.11768995310E+03  0.10000000000E+01 0.  0.
    9000005    1    3    3    0    0 -0.15234859614E+02  0.56873700478E+02 -0.38813126961E+02  0.70527849662E+02  0.10000000000E+01 0.  0.
<mgrwt>
<rscale>  0 0.12500526E+03</rscale>
<asrwt>0</asrwt>
<pdfrwt beam="2">  1        4 0.25302226E-01 0.12500526E+03</pdfrwt>
<pdfrwt beam="1">  1       -4 0.36543583E-02 0.12500526E+03</pdfrwt>
<totfact> 0.92147483E+03</totfact>
</mgrwt>
</event>
<event>
 5    1  0.3327068E-002  0.1249990E+03  0.7818608E-02  0.1235071E+00
         -4   -1    0    0    0  501 -0.00000000000E+00  0.00000000000E+00  0.21443298401E+04  0.21443302161E+04  0.12700000000E+01 0. -1.
          4   -1    0    0  501    0  0.00000000000E+00 -0.00000000000E+00 -0.15998599205E+01  0.20426580148E+01  0.12700000000E+01 0. -1.
         25    2    1    2    0    0  0.00000000000E+00  0.00000000000E+00  0.21427299801E+04  0.21463728742E+04  0.12499898855E+03 0.  0.
    9000005    1    3    3    0    0 -0.33682606349E+02 -0.15103087688E+02  0.19371992214E+04  0.19375511463E+04  0.10000000000E+01 0.  0.
    9000005    1    3    3    0    0  0.33682606349E+02  0.15103087688E+02  0.20553075872E+03  0.20882172782E+03  0.10000000000E+01 0.  0.
<mgrwt>
<rscale>  0 0.12499899E+03</rscale>
<asrwt>0</asrwt>
<pdfrwt beam="2">  1        4 0.28022213E-03 0.12499899E+03</pdfrwt>
<pdfrwt beam="1">  1       -4 0.32993156E+00 0.12499899E+03</pdfrwt>
<totfact> 0.80698025E+02</totfact>
</mgrwt>
</event>
<event>
 5    1  0.3327068E-002  0.1250249E+03  0.7818608E-02  0.1235030E+00
          4   -1    0    0  501    0  0.00000000000E+00  0.00000000000E+00  0.10821174626E+03  0.10821919853E+03  0.12700000000E+01 0.  1.
         -4   -1    0    0    0  501 -0.00000000000E+00 -0.00000000000E+00 -0.36092728742E+02  0.36115065666E+02  0.12700000000E+01 0.  1.
         25    2    1    2    0    0  0.00000000000E+00  0.00000000000E+00  0.72119017522E+02  0.14433426419E+03  0.12502490604E+03 0.  0.
    9000005    1    3    3    0    0  0.17210378320E+02  0.22483766752E+02 -0.28269964381E+02  0.40023840088E+02  0.10000000000E+01 0.  0.
    9000005    1    3    3    0    0 -0.17210378320E+02 -0.22483766752E+02  0.10038898190E+03  0.10431042410E+03  0.10000000000E+01 0.  0.
<mgrwt>
<rscale>  0 0.12502491E+03</rscale>
<asrwt>0</asrwt>
<pdfrwt beam="1">  1        4 0.16650252E-01 0.12502491E+03</pdfrwt>
<pdfrwt beam="2">  1       -4 0.55550190E-02 0.12502491E+03</pdfrwt>
<totfact> 0.10038901E+04</totfact>
</mgrwt>
</event>
<event>
 4    1  0.3327068E-002  0.1251431E+03  0.7818608E-02  0.1234846E+00
         -4   -1    0    0    0  501 -0.00000000000E+00  0.00000000000E+00  0.18312910901E+03  0.18313351268E+03  0.12700000000E+01 0. -1.
          4   -1    0    0  501    0  0.00000000000E+00 -0.00000000000E+00 -0.21355919105E+02  0.21393648142E+02  0.12700000000E+01 0. -1.
    9000005    1    1    2    0    0  0.37137262664E+02  0.80251669584E+01 -0.34911621413E+00  0.38009228682E+02  0.10000000000E+01 0.  0.
    9000005    1    1    2    0    0 -0.37137262664E+02 -0.80251669584E+01  0.16212230612E+03  0.16651793214E+03  0.10000000000E+01 0.  0.
<mgrwt>
<rscale>  0 0.12514310E+03</rscale>
<asrwt>0</asrwt>
<pdfrwt beam="2">  1        4 0.32887671E-02 0.12514310E+03</pdfrwt>
<pdfrwt beam="1">  1       -4 0.28176949E-01 0.12514310E+03</pdfrwt>
<totfact> 0.89092067E+03</totfact>
</mgrwt>
</event>
<event>
 5    1  0.3327068E-002  0.1249982E+03  0.7818608E-02  0.1235072E+00
         -4   -1    0    0    0  501 -0.00000000000E+00  0.00000000000E+00  0.78462739482E+01  0.79483907095E+01  0.12700000000E+01 0. -1.
          4   -1    0    0  501    0  0.00000000000E+00 -0.00000000000E+00 -0.49451205500E+03  0.49451368580E+03  0.12700000000E+01 0. -1.
         25    2    1    2    0    0  0.00000000000E+00  0.00000000000E+00 -0.48666578105E+03  0.50246207651E+03  0.12499822351E+03 0.  0.
    9000005    1    3    3    0    0 -0.33183469931E+02 -0.52951606633E+02 -0.24474638384E+03  0.25260009447E+03  0.10000000000E+01 0.  0.
    9000005    1    3    3    0    0  0.33183469931E+02  0.52951606633E+02 -0.24191939721E+03  0.24986198204E+03  0.10000000000E+01 0.  0.
<mgrwt>
<rscale>  0 0.12499822E+03</rscale>
<asrwt>0</asrwt>
<pdfrwt beam="2">  1        4 0.76086734E-01 0.12499822E+03</pdfrwt>
<pdfrwt beam="1">  1       -4 0.12151000E-02 0.12499822E+03</pdfrwt>
<totfact> 0.55676030E+03</totfact>
</mgrwt>
</event>
<event>
 5    1  0.3327068E-002  0.1250020E+03  0.7818608E-02  0.1235066E+00
         -4   -1    0    0    0  501 -0.00000000000E+00  0.00000000000E+00  0.36634859969E+02  0.36656866546E+02  0.12700000000E+01 0.  1.
          4   -1    0    0  501    0  0.00000000000E+00 -0.00000000000E+00 -0.10657223590E+03  0.10657980280E+03  0.12700000000E+01 0.  1.
         25    2    1    2    0    0  0.00000000000E+00  0.00000000000E+00 -0.69937375929E+02  0.14323666934E+03  0.12500202755E+03 0.  0.
    9000005    1    3    3    0    0  0.57773067899E+02 -0.13360491491E+02 -0.12364246238E+02  0.60581388993E+02  0.10000000000E+01 0.  0.
    9000005    1    3    3    0    0 -0.57773067899E+02  0.13360491491E+02 -0.57573129691E+02  0.82655280350E+02  0.10000000000E+01 0.  0.
<mgrwt>
<rscale>  0 0.12500203E+03</rscale>
<asrwt>0</asrwt>
<pdfrwt beam="2">  1        4 0.16398003E-01 0.12500203E+03</pdfrwt>
<pdfrwt beam="1">  1       -4 0.56384072E-02 0.12500203E+03</pdfrwt>
<totfact> 0.10066479E+04</totfact>
</mgrwt>
</event>
<event>
 5    1  0.3327068E-002  0.1250003E+03  0.7818608E-02  0.1235069E+00
          4   -1    0    0  501    0  0.00000000000E+00  0.00000000000E+00  0.58522494454E+03  0.58522632255E+03  0.12700000000E+01 0.  1.
         -4   -1    0    0    0  501 -0.00000000000E+00 -0.00000000000E+00 -0.66130077294E+01  0.67338526290E+01  0.12700000000E+01 0.  1.
         25    2    1    2    0    0  0.00000000000E+00  0.00000000000E+00  0.57861193681E+03  0.59196017518E+03  0.12500030234E+03 0.  0.
    9000005    1    3    3    0    0  0.43132821254E+02  0.25790418942E+02  0.11340384982E+03  0.12404442403E+03  0.10000000000E+01 0.  0.
    9000005    1    3    3    0    0 -0.43132821254E+02 -0.25790418942E+02  0.46520808699E+03  0.46791575115E+03  0.10000000000E+01 0.  0.
<mgrwt>
<rscale>  0 0.12500030E+03</rscale>
<asrwt>0</asrwt>
<pdfrwt beam="1">  1        4 0.90043979E-01 0.12500030E+03</pdfrwt>
<pdfrwt beam="2">  1       -4 0.10267879E-02 0.12500030E+03</pdfrwt>
<totfact> 0.49378756E+03</totfact>
</mgrwt>
</event>
<event>
 5    1  0.3327068E-002  0.1249942E+03  0.7818608E-02  0.1235078E+00
          4   -1    0    0  501    0  0.00000000000E+00  0.00000000000E+00  0.52937422672E+02  0.52952654505E+02  0.12700000000E+01 0.  1.
         -4   -1    0    0    0  501 -0.00000000000E+00 -0.00000000000E+00 -0.73751784624E+02  0.73762718464E+02  0.12700000000E+01 0.  1.
         25    2    1    2    0    0  0.00000000000E+00  0.00000000000E+00 -0.20814361952E+02  0.12671537297E+03  0.12499419220E+03 0.  0.
    9000005    1    3    3    0    0  0.38458007204E+02 -0.40264383272E+02 -0.39164108214E+02  0.68081320864E+02  0.10000000000E+01 0.  0.
    9000005    1    3    3    0    0 -0.38458007204E+02  0.40264383272E+02  0.18349746262E+02  0.58634052105E+02  0.10000000000E+01 0.  0.
<mgrwt>
<rscale>  0 0.12499419E+03</rscale>
<asrwt>0</asrwt>
<pdfrwt beam="1">  1        4 0.81462316E-02 0.12499419E+03</pdfrwt>
<pdfrwt beam="2">  1       -4 0.11348441E-01 0.12499419E+03</pdfrwt>
<totfact> 0.10416701E+04</totfact>
</mgrwt>
</event>
<event>
 5    1  0.3327068E-002  0.1250000E+03  0.7818608E-02  0.1235069E+00
         -4   -1    0    0    0  501 -0.00000000000E+00  0.00000000000E+00  0.75311262437E+02  0.75321969901E+02  0.12700000000E+01 0.  1.
          4   -1    0    0  501    0  0.00000000000E+00 -0.00000000000E+00 -0.51845911264E+02  0.51861463677E+02  0.12700000000E+01 0.  1.
         25    2    1    2    0    0  0.00000000000E+00  0.00000000000E+00  0.23465351173E+02  0.12718343358E+03  0.12500001228E+03 0.  0.
    9000005    1    3    3    0    0 -0.27262890508E+02  0.21573470585E+02 -0.41102896531E+02  0.53843550544E+02  0.10000000000E+01 0.  0.
    9000005    1    3    3    0    0  0.27262890508E+02 -0.21573470585E+02  0.64568247705E+02  0.73339883035E+02  0.10000000000E+01 0.  0.
<mgrwt>
<rscale>  0 0.12500001E+03</rscale>
<asrwt>0</asrwt>
<pdfrwt beam="2">  1        4 0.79783141E-02 0.12500001E+03</pdfrwt>
<pdfrwt beam="1">  1       -4 0.11588368E-01 0.12500001E+03</pdfrwt>
<totfact> 0.10405160E+04</totfact>
</mgrwt>
</event>
<event>
 5    1  0.3327068E-002  0.1250205E+03  0.7818608E-02  0.1235037E+00
          4   -1    0    0  501    0  0.00000000000E+00  0.00000000000E+00  0.48778968729E+02  0.48795498668E+02  0.12700000000E+01 0. -1.
         -4   -1    0    0    0  501 -0.00000000000E+00 -0.00000000000E+00 -0.80071790324E+02  0.80081861278E+02  0.12700000000E+01 0. -1.
         25    2    1    2    0    0  0.00000000000E+00  0.00000000000E+00 -0.31292821595E+02  0.12887735995E+03  0.12502053121E+03 0.  0.
    9000005    1    3    3    0    0 -0.25697259383E+00 -0.62496447000E+02 -0.16484754116E+02  0.64642238828E+02  0.10000000000E+01 0.  0.
    9000005    1    3    3    0    0  0.25697259383E+00  0.62496447000E+02 -0.14808067480E+02  0.64235121117E+02  0.10000000000E+01 0.  0.
<mgrwt>
<rscale>  0 0.12502053E+03</rscale>
<asrwt>0</asrwt>
<pdfrwt beam="1">  1        4 0.75065029E-02 0.12502053E+03</pdfrwt>
<pdfrwt beam="2">  1       -4 0.12320783E-01 0.12502053E+03</pdfrwt>
<totfact> 0.10363779E+04</totfact>
</mgrwt>
</event>
<event>
 5    1  0.3327068E-002  0.1250001E+03  0.7818608E-02  0.1235069E+00
         -4   -1    0    0    0  501 -0.00000000000E+00  0.00000000000E+00  0.33006602256E+02  0.33031026210E+02  0.12700000000E+01 0. -1.
          4   -1    0    0  501    0  0.00000000000E+00 -0.00000000000E+00 -0.11827611534E+03  0.11828293351E+03  0.12700000000E+01 0. -1.
         25    2    1    2    0    0  0.00000000000E+00  0.00000000000E+00 -0.85269513083E+02  0.15131395972E+03  0.12500009818E+03 0.  0.
    9000005    1    3    3    0    0 -0.45408030867E+02  0.42700954535E+02 -0.48047695834E+02  0.78707317705E+02  0.10000000000E+01 0.  0.
    9000005    1    3    3    0    0  0.45408030867E+02 -0.42700954535E+02 -0.37221817249E+02  0.72606642015E+02  0.10000000000E+01 0.  0.
<mgrwt>
<rscale>  0 0.12500010E+03</rscale>
<asrwt>0</asrwt>
<pdfrwt beam="2">  1        4 0.18198728E-01 0.12500010E+03</pdfrwt>
<pdfrwt beam="1">  1       -4 0.50803421E-02 0.12500010E+03</pdfrwt>
<totfact> 0.99042204E+03</totfact>
</mgrwt>
</event>
<event>
 5    1  0.3327068E-002  0.1250007E+03  0.7818608E-02  0.1235068E+00
          4   -1    0    0  501    0  0.00000000000E+00  0.00000000000E+00  0.11952744867E+03  0.11953419546E+03  0.12700000000E+01 0. -1.
         -4   -1    0    0    0  501 -0.00000000000E+00 -0.00000000000E+00 -0.32661136721E+02  0.32685818820E+02  0.12700000000E+01 0. -1.
         25    2    1    2    0    0  0.00000000000E+00  0.00000000000E+00  0.86866311946E+02  0.15222001428E+03  0.12500070639E+03 0.  0.
    9000005    1    3    3    0    0  0.52829166226E+02 -0.88895086535E+01  0.42496870959E+01  0.53749455892E+02  0.10000000000E+01 0.  0.
    9000005    1    3    3    0    0 -0.52829166226E+02  0.88895086535E+01  0.82616624851E+02  0.98470558392E+02  0.10000000000E+01 0.  0.
<mgrwt>
<rscale>  0 0.12500071E+03</rscale>
<asrwt>0</asrwt>
<pdfrwt beam="1">  1        4 0.18391256E-01 0.12500071E+03</pdfrwt>
<pdfrwt beam="2">  1       -4 0.50272079E-02 0.12500071E+03</pdfrwt>
<totfact> 0.98861427E+03</totfact>
</mgrwt>
</event>
<event>
 5    1  0.3327068E-002  0.1249987E+03  0.7818608E-02  0.1235071E+00
         -4   -1    0    0    0  501 -0.00000000000E+00  0.00000000000E+00  0.46304167257E+01  0.48014226072E+01  0.12700000000E+01 0. -1.
          4   -1    0    0  501    0  0.00000000000E+00 -0.00000000000E+00 -0.82812285368E+03  0.82812382751E+03  0.12700000000E+01 0. -1.
         25    2    1    2    0    0  0.00000000000E+00  0.00000000000E+00 -0.82349243695E+03  0.83292525011E+03  0.12499871423E+03 0.  0.
    9000005    1    3    3    0    0 -0.58807905196E+02  0.16646495542E+02 -0.49854904546E+03  0.50228241683E+03  0.10000000000E+01 0.  0.
    9000005    1    3    3    0    0  0.58807905196E+02 -0.16646495542E+02 -0.32494339149E+03  0.33064283328E+03  0.10000000000E+01 0.  0.
<mgrwt>
<rscale>  0 0.12499871E+03</rscale>
<asrwt>0</asrwt>
<pdfrwt beam="2">  1        4 0.12741663E+00 0.12499871E+03</pdfrwt>
<pdfrwt beam="1">  1       -4 0.72560167E-03 0.12499871E+03</pdfrwt>
<totfact> 0.36837469E+03</totfact>
</mgrwt>
</event>
<event>
 5    1  0.3327068E-002  0.1249990E+03  0.7818608E-02  0.1235071E+00
          4   -1    0    0  501    0  0.00000000000E+00  0.00000000000E+00  0.11349508387E+03  0.11350218924E+03  0.12700000000E+01 0.  1.
         -4   -1    0    0    0  501 -0.00000000000E+00 -0.00000000000E+00 -0.34397313810E+02  0.34420750970E+02  0.12700000000E+01 0.  1.
         25    2    1    2    0    0  0.00000000000E+00  0.00000000000E+00  0.79097770061E+02  0.14792294021E+03  0.12499895605E+03 0.  0.
    9000005    1    3    3    0    0  0.28248457504E+02 -0.22583344346E+02  0.99857868119E+02  0.10621005893E+03  0.10000000000E+01 0.  0.
    9000005    1    3    3    0    0 -0.28248457504E+02  0.22583344346E+02 -0.20760098058E+02  0.41712881279E+02  0.10000000000E+01 0.  0.
<mgrwt>
<rscale>  0 0.12499896E+03</rscale>
<asrwt>0</asrwt>
<pdfrwt beam="1">  1        4 0.17463131E-01 0.12499896E+03</pdfrwt>
<pdfrwt beam="2">  1       -4 0.52942440E-02 0.12499896E+03</pdfrwt>
<totfact> 0.99721695E+03</totfact>
</mgrwt>
</event>
<event>
 5    1  0.3327068E-002  0.1249989E+03  0.7818608E-02  0.1235071E+00
         -4   -1    0    0    0  501 -0.00000000000E+00  0.00000000000E+00  0.81940852040E+01  0.82919197012E+01  0.12700000000E+01 0. -1.
          4   -1    0    0  501    0  0.00000000000E+00 -0.00000000000E+00 -0.47377963920E+03  0.47378134136E+03  0.12700000000E+01 0. -1.
         25    2    1    2    0    0  0.00000000000E+00  0.00000000000E+00 -0.46558555400E+03  0.48207326106E+03  0.12499888376E+03 0.  0.
    9000005    1    3    3    0    0  0.52416590318E+02 -0.14355312448E+02 -0.35176225680E+03  0.35593715632E+03  0.10000000000E+01 0.  0.
    9000005    1    3    3    0    0 -0.52416590318E+02  0.14355312448E+02 -0.11382329720E+03  0.12613610475E+03  0.10000000000E+01 0.  0.
<mgrwt>
<rscale>  0 0.12499888E+03</rscale>
<asrwt>0</asrwt>
<pdfrwt beam="2">  1        4 0.72896810E-01 0.12499888E+03</pdfrwt>
<pdfrwt beam="1">  1       -4 0.12682855E-02 0.12499888E+03</pdfrwt>
<totfact> 0.57284007E+03</totfact>
</mgrwt>
</event>
<event>
 5    1  0.3327068E-002  0.1250007E+03  0.7818608E-02  0.1235068E+00
         -4   -1    0    0    0  501 -0.00000000000E+00  0.00000000000E+00  0.55414623800E+03  0.55414769330E+03  0.12700000000E+01 0. -1.
          4   -1    0    0  501    0  0.00000000000E+00 -0.00000000000E+00 -0.69905281756E+01  0.71049549031E+01  0.12700000000E+01 0. -1.
         25    2    1    2    0    0  0.00000000000E+00  0.00000000000E+00  0.54715570983E+03  0.56125264821E+03  0.12500065728E+03 0.  0.
    9000005    1    3    3    0    0  0.34046643604E+02 -0.26207974195E+02  0.69825978498E+02  0.81992067453E+02  0.10000000000E+01 0.  0.
    9000005    1    3    3    0    0 -0.34046643604E+02  0.26207974195E+02  0.47732973133E+03  0.47926058075E+03  0.10000000000E+01 0.  0.
<mgrwt>
<rscale>  0 0.12500066E+03</rscale>
<asrwt>0</asrwt>
<pdfrwt beam="2">  1        4 0.10843799E-02 0.12500066E+03</pdfrwt>
<pdfrwt beam="1">  1       -4 0.85262179E-01 0.12500066E+03</pdfrwt>
<totfact> 0.51407768E+03</totfact>
</mgrwt>
</event>
<event>
 5    1  0.3327068E-002  0.1250000E+03  0.7818608E-02  0.1235069E+00
         -4   -1    0    0    0  501 -0.00000000000E+00  0.00000000000E+00  0.52960492587E+01  0.54461947955E+01  0.12700000000E+01 0.  1.
          4   -1    0    0  501    0  0.00000000000E+00 -0.00000000000E+00 -0.72711801797E+03  0.72711912707E+03  0.12700000000E+01 0.  1.
         25    2    1    2    0    0  0.00000000000E+00  0.00000000000E+00 -0.72182196871E+03  0.73256532187E+03  0.12499998517E+03 0.  0.
    9000005    1    3    3    0    0 -0.42746886190E+02  0.14508607571E+02 -0.61416786102E+03  0.61582542776E+03  0.10000000000E+01 0.  0.
    9000005    1    3    3    0    0  0.42746886190E+02 -0.14508607571E+02 -0.10765410769E+03  0.11673989411E+03  0.10000000000E+01 0.  0.
<mgrwt>
<rscale>  0 0.12499999E+03</rscale>
<asrwt>0</asrwt>
<pdfrwt beam="2">  1        4 0.11187587E+00 0.12499999E+03</pdfrwt>
<pdfrwt beam="1">  1       -4 0.82641235E-03 0.12499999E+03</pdfrwt>
<totfact> 0.41422280E+03</totfact>
</mgrwt>
</event>
<event>
 5    1  0.3327068E-002  0.1250055E+03  0.7818608E-02  0.1235061E+00
         -4   -1    0    0    0  501 -0.00000000000E+00  0.00000000000E+00  0.34620270239E+02  0.34643556564E+02  0.12700000000E+01 0. -1.
          4   -1    0    0  501    0  0.00000000000E+00 -0.00000000000E+00 -0.11277635716E+03  0.11278350781E+03  0.12700000000E+01 0. -1.
         25    2    1    2    0    0  0.00000000000E+00  0.00000000000E+00 -0.78156086921E+02  0.14742706438E+03  0.12500546143E+03 0.  0.
    9000005    1    3    3    0    0  0.46992657262E+01 -0.61741412791E+02 -0.29105175596E+02  0.68426576696E+02  0.10000000000E+01 0.  0.
    9000005    1    3    3    0    0 -0.46992657262E+01  0.61741412791E+02 -0.49050911325E+02  0.79000487679E+02  0.10000000000E+01 0.  0.
<mgrwt>
<rscale>  0 0.12500546E+03</rscale>
<asrwt>0</asrwt>
<pdfrwt beam="2">  1        4 0.17352550E-01 0.12500546E+03</pdfrwt>
<pdfrwt beam="1">  1       -4 0.53285368E-02 0.12500546E+03</pdfrwt>
<totfact> 0.99806797E+03</totfact>
</mgrwt>
</event>
<event>
 5    1  0.3327068E-002  0.1250000E+03  0.7818608E-02  0.1235069E+00
         -4   -1    0    0    0  501 -0.00000000000E+00  0.00000000000E+00  0.12089099340E+04  0.12089106011E+04  0.12700000000E+01 0.  1.
          4   -1    0    0  501    0  0.00000000000E+00 -0.00000000000E+00 -0.31057323903E+01  0.33553649101E+01  0.12700000000E+01 0.  1.
         25    2    1    2    0    0  0.00000000000E+00  0.00000000000E+00  0.12058042016E+04  0.12122659660E+04  0.12499999879E+03 0.  0.
    9000005    1    3    3    0    0 -0.46523062360E+02 -0.29288589247E+02  0.31471376203E+03  0.31948078002E+03  0.10000000000E+01 0.  0.
    9000005    1    3    3    0    0  0.46523062360E+02  0.29288589247E+02  0.89109043958E+03  0.89278518598E+03  0.10000000000E+01 0.  0.
<mgrwt>
<rscale>  0 0.12500000E+03</rscale>
<asrwt>0</asrwt>
<pdfrwt beam="2">  1        4 0.49705883E-03 0.12500000E+03</pdfrwt>
<pdfrwt beam="1">  1       -4 0.18600538E+00 0.12500000E+03</pdfrwt>
<totfact> 0.24393932E+03</totfact>
</mgrwt>
</event>
<event>
 5    1  0.3327068E-002  0.1250007E+03  0.7818608E-02  0.1235068E+00
          4   -1    0    0  501    0  0.00000000000E+00  0.00000000000E+00  0.13591572676E+04  0.13591578609E+04  0.12700000000E+01 0.  1.
         -4   -1    0    0    0  501 -0.00000000000E+00 -0.00000000000E+00 -0.27331328334E+01  0.30137874983E+01  0.12700000000E+01 0.  1.
         25    2    1    2    0    0  0.00000000000E+00  0.00000000000E+00  0.13564241347E+04  0.13621716484E+04  0.12500066578E+03 0.  0.
    9000005    1    3    3    0    0  0.30831749560E+02  0.44868680618E+02  0.10125832386E+04  0.10140461579E+04  0.10000000000E+01 0.  0.
    9000005    1    3    3    0    0 -0.30831749560E+02 -0.44868680618E+02  0.34384089613E+03  0.34812549049E+03  0.10000000000E+01 0.  0.
<mgrwt>
<rscale>  0 0.12500067E+03</rscale>
<asrwt>0</asrwt>
<pdfrwt beam="1">  1        4 0.20912273E+00 0.12500067E+03</pdfrwt>
<pdfrwt beam="2">  1       -4 0.44211649E-03 0.12500067E+03</pdfrwt>
<totfact> 0.20806585E+03</totfact>
</mgrwt>
</event>
<event>
 5    1  0.3327068E-002  0.1250273E+03  0.7818608E-02  0.1235027E+00
         -4   -1    0    0    0  501 -0.00000000000E+00  0.00000000000E+00  0.15962787332E+03  0.15963292531E+03  0.12700000000E+01 0.  1.
          4   -1    0    0  501    0  0.00000000000E+00 -0.00000000000E+00 -0.24459755351E+02  0.24492703644E+02  0.12700000000E+01 0.  1.
         25    2    1    2    0    0  0.00000000000E+00  0.00000000000E+00  0.13516811797E+03  0.18412562895E+03  0.12502730550E+03 0.  0.
    9000005    1    3    3    0    0 -0.54214888198E+01 -0.29193326375E+01 -0.24019232491E+02  0.24816095050E+02  0.10000000000E+01 0.  0.
    9000005    1    3    3    0    0  0.54214888198E+01  0.29193326375E+01  0.15918735046E+03  0.15930953390E+03  0.10000000000E+01 0.  0.
<mgrwt>
<rscale>  0 0.12502731E+03</rscale>
<asrwt>0</asrwt>
<pdfrwt beam="2">  1        4 0.37659624E-02 0.12502731E+03</pdfrwt>
<pdfrwt beam="1">  1       -4 0.24561057E-01 0.12502731E+03</pdfrwt>
<totfact> 0.92822785E+03</totfact>
</mgrwt>
</event>
<event>
 5    1  0.3327068E-002  0.1250004E+03  0.7818608E-02  0.1235069E+00
         -4   -1    0    0    0  501 -0.00000000000E+00  0.00000000000E+00  0.57180187097E+01  0.58573575923E+01  0.12700000000E+01 0.  1.
          4   -1    0    0  501    0  0.00000000000E+00 -0.00000000000E+00 -0.67478858646E+03  0.67478978157E+03  0.12700000000E+01 0.  1.
         25    2    1    2    0    0  0.00000000000E+00  0.00000000000E+00 -0.66907056775E+03  0.68064713917E+03  0.12500041370E+03 0.  0.
    9000005    1    3    3    0    0 -0.51047926830E+02  0.70888859711E+01 -0.14208663557E+03  0.15114812320E+03  0.10000000000E+01 0.  0.
    9000005    1    3    3    0    0  0.51047926830E+02 -0.70888859711E+01 -0.52698393218E+03  0.52949901597E+03  0.10000000000E+01 0.  0.
<mgrwt>
<rscale>  0 0.12500041E+03</rscale>
<asrwt>0</asrwt>
<pdfrwt beam="2">  1        4 0.10382438E+00 0.12500041E+03</pdfrwt>
<pdfrwt beam="1">  1       -4 0.89050603E-03 0.12500041E+03</pdfrwt>
<totfact> 0.44127811E+03</totfact>
</mgrwt>
</event>
<event>
 5    1  0.3327068E-002  0.1249598E+03  0.7818608E-02  0.1235132E+00
         -4   -1    0    0    0  501 -0.00000000000E+00  0.00000000000E+00  0.33695748698E+02  0.33719673491E+02  0.12700000000E+01 0.  1.
          4   -1    0    0  501    0  0.00000000000E+00 -0.00000000000E+00 -0.11578396098E+03  0.11579092590E+03  0.12700000000E+01 0.  1.
         25    2    1    2    0    0  0.00000000000E+00  0.00000000000E+00 -0.82088212280E+02  0.14951059939E+03  0.12495977246E+03 0.  0.
    9000005    1    3    3    0    0 -0.55541936954E+02  0.26563714709E+02 -0.53717567666E+02  0.81713614384E+02  0.10000000000E+01 0.  0.
    9000005    1    3    3    0    0  0.55541936954E+02 -0.26563714709E+02 -0.28370644614E+02  0.67796985003E+02  0.10000000000E+01 0.  0.
<mgrwt>
<rscale>  0 0.12495977E+03</rscale>
<asrwt>0</asrwt>
<pdfrwt beam="2">  1        4 0.17815293E-01 0.12495977E+03</pdfrwt>
<pdfrwt beam="1">  1       -4 0.51863375E-02 0.12495977E+03</pdfrwt>
<totfact> 0.99491393E+03</totfact>
</mgrwt>
</event>
<event>
 5    1  0.3327068E-002  0.1250050E+03  0.7818608E-02  0.1235061E+00
         -4   -1    0    0    0  501 -0.00000000000E+00  0.00000000000E+00  0.27179342767E+03  0.27179639480E+03  0.12700000000E+01 0. -1.
          4   -1    0    0  501    0  0.00000000000E+00 -0.00000000000E+00 -0.14342178856E+02  0.14398298314E+02  0.12700000000E+01 0. -1.
         25    2    1    2    0    0  0.00000000000E+00  0.00000000000E+00  0.25745124881E+03  0.28619469311E+03  0.12500502730E+03 0.  0.
    9000005    1    3    3    0    0 -0.50068389021E+02 -0.29866771923E+02  0.18026131244E+03  0.18945714134E+03  0.10000000000E+01 0.  0.
    9000005    1    3    3    0    0  0.50068389021E+02  0.29866771923E+02  0.77189936376E+02  0.96737551768E+02  0.10000000000E+01 0.  0.
<mgrwt>
<rscale>  0 0.12500503E+03</rscale>
<asrwt>0</asrwt>
<pdfrwt beam="2">  1        4 0.22110341E-02 0.12500503E+03</pdfrwt>
<pdfrwt beam="1">  1       -4 0.41818920E-01 0.12500503E+03</pdfrwt>
<totfact> 0.77355195E+03</totfact>
</mgrwt>
</event>
<event>
 5    1  0.3327068E-002  0.1249979E+03  0.7818608E-02  0.1235073E+00
          4   -1    0    0  501    0  0.00000000000E+00  0.00000000000E+00  0.69629881581E+01  0.70778601350E+01  0.12700000000E+01 0. -1.
         -4   -1    0    0    0  501 -0.00000000000E+00 -0.00000000000E+00 -0.55627828942E+03  0.55627973914E+03  0.12700000000E+01 0. -1.
         25    2    1    2    0    0  0.00000000000E+00  0.00000000000E+00 -0.54931530126E+03  0.56335759928E+03  0.12499793783E+03 0.  0.
    9000005    1    3    3    0    0  0.44793349113E+02  0.43142140239E+02 -0.24708318916E+03  0.25479166147E+03  0.10000000000E+01 0.  0.
    9000005    1    3    3    0    0 -0.44793349113E+02 -0.43142140239E+02 -0.30223211211E+03  0.30856593781E+03  0.10000000000E+01 0.  0.
<mgrwt>
<rscale>  0 0.12499794E+03</rscale>
<asrwt>0</asrwt>
<pdfrwt beam="1">  1        4 0.10801772E-02 0.12499794E+03</pdfrwt>
<pdfrwt beam="2">  1       -4 0.85590189E-01 0.12499794E+03</pdfrwt>
<totfact> 0.51267738E+03</totfact>
</mgrwt>
</event>
<event>
 5    1  0.3327068E-002  0.1250018E+03  0.7818608E-02  0.1235066E+00
         -4   -1    0    0    0  501 -0.00000000000E+00  0.00000000000E+00  0.22267643653E+04  0.22267647274E+04  0.12700000000E+01 0. -1.
          4   -1    0    0  501    0  0.00000000000E+00 -0.00000000000E+00 -0.15240165025E+01  0.19838160953E+01  0.12700000000E+01 0. -1.
         25    2    1    2    0    0  0.00000000000E+00  0.00000000000E+00  0.22252403488E+04  0.22287485435E+04  0.12500184196E+03 0.  0.
    9000005    1    3    3    0    0 -0.35462575234E+02  0.16084816116E+02  0.19840998045E+04  0.19844821364E+04  0.10000000000E+01 0.  0.
    9000005    1    3    3    0    0  0.35462575234E+02 -0.16084816116E+02  0.24114054426E+03  0.24426640710E+03  0.10000000000E+01 0.  0.
<mgrwt>
<rscale>  0 0.12500184E+03</rscale>
<asrwt>0</asrwt>
<pdfrwt beam="2">  1        4 0.26986045E-03 0.12500184E+03</pdfrwt>
<pdfrwt beam="1">  1       -4 0.34261540E+00 0.12500184E+03</pdfrwt>
<totfact> 0.71628686E+02</totfact>
</mgrwt>
</event>
<event>
 5    1  0.3327068E-002  0.1249991E+03  0.7818608E-02  0.1235071E+00
          4   -1    0    0  501    0  0.00000000000E+00  0.00000000000E+00  0.23895122482E+02  0.23928848247E+02  0.12700000000E+01 0.  1.
         -4   -1    0    0    0  501 -0.00000000000E+00 -0.00000000000E+00 -0.16332085139E+03  0.16332578914E+03  0.12700000000E+01 0.  1.
         25    2    1    2    0    0  0.00000000000E+00  0.00000000000E+00 -0.13942572891E+03  0.18725463739E+03  0.12499906136E+03 0.  0.
    9000005    1    3    3    0    0  0.18406417212E+02 -0.29764227195E+02  0.78462059644E+01  0.35878522310E+02  0.10000000000E+01 0.  0.
    9000005    1    3    3    0    0 -0.18406417212E+02  0.29764227195E+02 -0.14727193487E+03  0.15137611508E+03  0.10000000000E+01 0.  0.
<mgrwt>
<rscale>  0 0.12499906E+03</rscale>
<asrwt>0</asrwt>
<pdfrwt beam="1">  1        4 0.36791469E-02 0.12499906E+03</pdfrwt>
<pdfrwt beam="2">  1       -4 0.25129258E-01 0.12499906E+03</pdfrwt>
<totfact> 0.92329147E+03</totfact>
</mgrwt>
</event>
<event>
 5    1  0.3327068E-002  0.1250017E+03  0.7818608E-02  0.1235067E+00
         -4   -1    0    0    0  501 -0.00000000000E+00  0.00000000000E+00  0.37040344329E+03  0.37040562050E+03  0.12700000000E+01 0. -1.
          4   -1    0    0  501    0  0.00000000000E+00 -0.00000000000E+00 -0.10505768420E+02  0.10582252601E+02  0.12700000000E+01 0. -1.
         25    2    1    2    0    0  0.00000000000E+00  0.00000000000E+00  0.35989767487E+03  0.38098787310E+03  0.12500169229E+03 0.  0.
    9000005    1    3    3    0    0 -0.60114208621E+02 -0.16949297918E+02  0.18631222312E+03  0.19650506676E+03  0.10000000000E+01 0.  0.
    9000005    1    3    3    0    0  0.60114208621E+02  0.16949297918E+02  0.17358545174E+03  0.18448280634E+03  0.10000000000E+01 0.  0.
<mgrwt>
<rscale>  0 0.12500169E+03</rscale>
<asrwt>0</asrwt>
<pdfrwt beam="2">  1        4 0.16223228E-02 0.12500169E+03</pdfrwt>
<pdfrwt beam="1">  1       -4 0.56991201E-01 0.12500169E+03</pdfrwt>
<totfact> 0.66442364E+03</totfact>
</mgrwt>
</event>
<event>
 5    1  0.3327068E-002  0.1250031E+03  0.7818608E-02  0.1235064E+00
         -4   -1    0    0    0  501 -0.00000000000E+00  0.00000000000E+00  0.88622740114E+01  0.89528096513E+01  0.12700000000E+01 0. -1.
          4   -1    0    0  501    0  0.00000000000E+00 -0.00000000000E+00 -0.43846342594E+03  0.43846526520E+03  0.12700000000E+01 0. -1.
         25    2    1    2    0    0  0.00000000000E+00  0.00000000000E+00 -0.42960115193E+03  0.44741807485E+03  0.12500313582E+03 0.  0.
    9000005    1    3    3    0    0 -0.26928127684E+02  0.41156502522E+02 -0.76803511324E+02  0.91207242652E+02  0.10000000000E+01 0.  0.
    9000005    1    3    3    0    0  0.26928127684E+02 -0.41156502522E+02 -0.35279764060E+03  0.35621083220E+03  0.10000000000E+01 0.  0.
<mgrwt>
<rscale>  0 0.12500314E+03</rscale>
<asrwt>0</asrwt>
<pdfrwt beam="2">  1        4 0.67463000E-01 0.12500314E+03</pdfrwt>
<pdfrwt beam="1">  1       -4 0.13705329E-02 0.12500314E+03</pdfrwt>
<totfact> 0.60183971E+03</totfact>
</mgrwt>
</event>
<event>
 5    1  0.3327068E-002  0.1250436E+03  0.7818608E-02  0.1235001E+00
          4   -1    0    0  501    0  0.00000000000E+00  0.00000000000E+00  0.17349745266E+03  0.17350210079E+03  0.12700000000E+01 0. -1.
         -4   -1    0    0    0  501 -0.00000000000E+00 -0.00000000000E+00 -0.22507607265E+02  0.22543408899E+02  0.12700000000E+01 0. -1.
         25    2    1    2    0    0  0.00000000000E+00  0.00000000000E+00  0.15098984539E+03  0.19604550969E+03  0.12504362622E+03 0.  0.
    9000005    1    3    3    0    0 -0.39847777223E+02 -0.38430406129E+02  0.12102200509E+03  0.13308669047E+03  0.10000000000E+01 0.  0.
    9000005    1    3    3    0    0  0.39847777223E+02  0.38430406129E+02  0.29967840303E+02  0.62958819218E+02  0.10000000000E+01 0.  0.
<mgrwt>
<rscale>  0 0.12504363E+03</rscale>
<asrwt>0</asrwt>
<pdfrwt beam="1">  1        4 0.26695027E-01 0.12504363E+03</pdfrwt>
<pdfrwt beam="2">  1       -4 0.34658203E-02 0.12504363E+03</pdfrwt>
<totfact> 0.90717297E+03</totfact>
</mgrwt>
</event>
<event>
 5    1  0.3327068E-002  0.1249986E+03  0.7818608E-02  0.1235071E+00
          4   -1    0    0  501    0  0.00000000000E+00  0.00000000000E+00  0.22097102487E+03  0.22097467442E+03  0.12700000000E+01 0.  1.
         -4   -1    0    0    0  501 -0.00000000000E+00 -0.00000000000E+00 -0.17650651717E+02  0.17696282265E+02  0.12700000000E+01 0.  1.
         25    2    1    2    0    0  0.00000000000E+00  0.00000000000E+00  0.20332037316E+03  0.23867095668E+03  0.12499860568E+03 0.  0.
    9000005    1    3    3    0    0 -0.34971198515E+00 -0.17576907319E+01  0.22093131151E+03  0.22094084317E+03  0.10000000000E+01 0.  0.
    9000005    1    3    3    0    0  0.34971198515E+00  0.17576907319E+01 -0.17610938357E+02  0.17730113508E+02  0.10000000000E+01 0.  0.
<mgrwt>
<rscale>  0 0.12499861E+03</rscale>
<asrwt>0</asrwt>
<pdfrwt beam="1">  1        4 0.33999334E-01 0.12499861E+03</pdfrwt>
<pdfrwt beam="2">  1       -4 0.27192756E-02 0.12499861E+03</pdfrwt>
<totfact> 0.83998314E+03</totfact>
</mgrwt>
</event>
<event>
 5    1  0.3327068E-002  0.1249998E+03  0.7818608E-02  0.1235070E+00
         -4   -1    0    0    0  501 -0.00000000000E+00  0.00000000000E+00  0.11263496973E+02  0.11334869388E+02  0.12700000000E+01 0. -1.
          4   -1    0    0  501    0  0.00000000000E+00 -0.00000000000E+00 -0.34563715269E+03  0.34563948591E+03  0.12700000000E+01 0. -1.
         25    2    1    2    0    0  0.00000000000E+00  0.00000000000E+00 -0.33437365572E+03  0.35697435530E+03  0.12499979481E+03 0.  0.
    9000005    1    3    3    0    0  0.44821206645E+02  0.16822708050E+02 -0.52481297682E+02  0.71043864462E+02  0.10000000000E+01 0.  0.
    9000005    1    3    3    0    0 -0.44821206645E+02 -0.16822708050E+02 -0.28189235804E+03  0.28593049084E+03  0.10000000000E+01 0.  0.
<mgrwt>
<rscale>  0 0.12499979E+03</rscale>
<asrwt>0</asrwt>
<pdfrwt beam="2">  1        4 0.53180608E-01 0.12499979E+03</pdfrwt>
<pdfrwt beam="1">  1       -4 0.17385156E-02 0.12499979E+03</pdfrwt>
<totfact> 0.68964362E+03</totfact>
</mgrwt>
</event>
<event>
 5    1  0.3327068E-002  0.1250081E+03  0.7818608E-02  0.1235057E+00
         -4   -1    0    0    0  501 -0.00000000000E+00  0.00000000000E+00  0.14209377901E+02  0.14266019779E+02  0.12700000000E+01 0.  1.
          4   -1    0    0  501    0  0.00000000000E+00 -0.00000000000E+00 -0.27433696167E+03  0.27433990129E+03  0.12700000000E+01 0.  1.
         25    2    1    2    0    0  0.00000000000E+00  0.00000000000E+00 -0.26012758377E+03  0.28860592107E+03  0.12500807109E+03 0.  0.
    9000005    1    3    3    0    0  0.43371155052E+02 -0.16675077927E+02 -0.22655078613E+03  0.23126905113E+03  0.10000000000E+01 0.  0.
    9000005    1    3    3    0    0 -0.43371155052E+02  0.16675077927E+02 -0.33576797641E+02  0.57336869938E+02  0.10000000000E+01 0.  0.
<mgrwt>
<rscale>  0 0.12500807E+03</rscale>
<asrwt>0</asrwt>
<pdfrwt beam="2">  1        4 0.42210266E-01 0.12500807E+03</pdfrwt>
<pdfrwt beam="1">  1       -4 0.21906415E-02 0.12500807E+03</pdfrwt>
<totfact> 0.77036875E+03</totfact>
</mgrwt>
</event>
<event>
 5    1  0.3327068E-002  0.1249985E+03  0.7818608E-02  0.1235072E+00
         -4   -1    0    0    0  501 -0.00000000000E+00  0.00000000000E+00  0.26337987386E+02  0.26368588880E+02  0.12700000000E+01 0. -1.
          4   -1    0    0  501    0  0.00000000000E+00 -0.00000000000E+00 -0.14818937147E+03  0.14819481339E+03  0.12700000000E+01 0. -1.
         25    2    1    2    0    0  0.00000000000E+00  0.00000000000E+00 -0.12185138408E+03  0.17456340227E+03  0.12499848643E+03 0.  0.
    9000005    1    3    3    0    0  0.61662246380E+02  0.60936544519E+01 -0.72253056626E+02  0.95188599344E+02  0.10000000000E+01 0.  0.
    9000005    1    3    3    0    0 -0.61662246380E+02 -0.60936544519E+01 -0.49598327454E+02  0.79374802925E+02  0.10000000000E+01 0.  0.
<mgrwt>
<rscale>  0 0.12499849E+03</rscale>
<asrwt>0</asrwt>
<pdfrwt beam="2">  1        4 0.22801137E-01 0.12499849E+03</pdfrwt>
<pdfrwt beam="1">  1       -4 0.40547707E-02 0.12499849E+03</pdfrwt>
<totfact> 0.94608076E+03</totfact>
</mgrwt>
</event>
<event>
 5    1  0.3327068E-002  0.1249795E+03  0.7818608E-02  0.1235101E+00
          4   -1    0    0  501    0  0.00000000000E+00  0.00000000000E+00  0.13846948416E+03  0.13847530807E+03  0.12700000000E+01 0. -1.
         -4   -1    0    0    0  501 -0.00000000000E+00 -0.00000000000E+00 -0.28180234019E+02  0.28208837079E+02  0.12700000000E+01 0. -1.
         25    2    1    2    0    0  0.00000000000E+00  0.00000000000E+00  0.11028925014E+03  0.16668414514E+03  0.12497954051E+03 0.  0.
    9000005    1    3    3    0    0  0.19274154197E+02  0.56097369719E+02  0.81332684181E+02  0.10066982381E+03  0.10000000000E+01 0.  0.
    9000005    1    3    3    0    0 -0.19274154197E+02 -0.56097369719E+02  0.28956565961E+02  0.66014321337E+02  0.10000000000E+01 0.  0.
<mgrwt>
<rscale>  0 0.12497954E+03</rscale>
<asrwt>0</asrwt>
<pdfrwt beam="1">  1        4 0.21305646E-01 0.12497954E+03</pdfrwt>
<pdfrwt beam="2">  1       -4 0.43380689E-02 0.12497954E+03</pdfrwt>
<totfact> 0.96113550E+03</totfact>
</mgrwt>
</event>
<event>
 5    1  0.3327068E-002  0.1249997E+03  0.7818608E-02  0.1235070E+00
         -4   -1    0    0    0  501 -0.00000000000E+00  0.00000000000E+00  0.33417727844E+03  0.33417969167E+03  0.12700000000E+01 0. -1.
          4   -1    0    0  501    0  0.00000000000E+00 -0.00000000000E+00 -0.11652132156E+02  0.11721138331E+02  0.12700000000E+01 0. -1.
         25    2    1    2    0    0  0.00000000000E+00  0.00000000000E+00  0.32252514628E+03  0.34590083000E+03  0.12499965684E+03 0.  0.
    9000005    1    3    3    0    0  0.24629982364E+02 -0.51796422606E+02  0.92597558596E+02  0.10892572370E+03  0.10000000000E+01 0.  0.
    9000005    1    3    3    0    0 -0.24629982364E+02  0.51796422606E+02  0.22992758768E+03  0.23697510630E+03  0.10000000000E+01 0.  0.
<mgrwt>
<rscale>  0 0.12499966E+03</rscale>
<asrwt>0</asrwt>
<pdfrwt beam="2">  1        4 0.17981296E-02 0.12499966E+03</pdfrwt>
<pdfrwt beam="1">  1       -4 0.51417381E-01 0.12499966E+03</pdfrwt>
<totfact> 0.70178413E+03</totfact>
</mgrwt>
</event>
<event>
 5    1  0.3327068E-002  0.1250029E+03  0.7818608E-02  0.1235065E+00
         -4   -1    0    0    0  501 -0.00000000000E+00  0.00000000000E+00  0.13655650740E+04  0.13655656646E+04  0.12700000000E+01 0.  1.
          4   -1    0    0  501    0  0.00000000000E+00 -0.00000000000E+00 -0.27190939338E+01  0.30010617822E+01  0.12700000000E+01 0.  1.
         25    2    1    2    0    0  0.00000000000E+00  0.00000000000E+00  0.13628459801E+04  0.13685667264E+04  0.12500287626E+03 0.  0.
    9000005    1    3    3    0    0  0.26270844241E+02  0.20453184892E+02  0.10241104203E+03  0.10769174322E+03  0.10000000000E+01 0.  0.
    9000005    1    3    3    0    0 -0.26270844241E+02 -0.20453184892E+02  0.12604349381E+04  0.12608749832E+04  0.10000000000E+01 0.  0.
<mgrwt>
<rscale>  0 0.12500288E+03</rscale>
<asrwt>0</asrwt>
<pdfrwt beam="2">  1        4 0.44005818E-03 0.12500288E+03</pdfrwt>
<pdfrwt beam="1">  1       -4 0.21010830E+00 0.12500288E+03</pdfrwt>
<totfact> 0.20664347E+03</totfact>
</mgrwt>
</event>
<event>
 5    1  0.3327068E-002  0.1249977E+03  0.7818608E-02  0.1235073E+00
          4   -1    0    0  501    0  0.00000000000E+00  0.00000000000E+00  0.68120122730E+01  0.69293875060E+01  0.12700000000E+01 0.  1.
         -4   -1    0    0    0  501 -0.00000000000E+00 -0.00000000000E+00 -0.56839803742E+03  0.56839945623E+03  0.12700000000E+01 0.  1.
         25    2    1    2    0    0  0.00000000000E+00  0.00000000000E+00 -0.56158602515E+03  0.57532884374E+03  0.12499765916E+03 0.  0.
    9000005    1    3    3    0    0 -0.40247096167E+02 -0.26255271653E+02 -0.46466770401E+03  0.46714691820E+03  0.10000000000E+01 0.  0.
    9000005    1    3    3    0    0  0.40247096167E+02  0.26255271653E+02 -0.96918321140E+02  0.10818192553E+03  0.10000000000E+01 0.  0.
<mgrwt>
<rscale>  0 0.12499766E+03</rscale>
<asrwt>0</asrwt>
<pdfrwt beam="1">  1        4 0.10571403E-02 0.12499766E+03</pdfrwt>
<pdfrwt beam="2">  1       -4 0.87454953E-01 0.12499766E+03</pdfrwt>
<totfact> 0.50465507E+03</totfact>
</mgrwt>
</event>
<event>
 5    1  0.3327068E-002  0.1249969E+03  0.7818608E-02  0.1235074E+00
         -4   -1    0    0    0  501 -0.00000000000E+00  0.00000000000E+00  0.98084739138E+02  0.98092960765E+02  0.12700000000E+01 0. -1.
          4   -1    0    0  501    0  0.00000000000E+00 -0.00000000000E+00 -0.39803272737E+02  0.39823528480E+02  0.12700000000E+01 0. -1.
         25    2    1    2    0    0  0.00000000000E+00  0.00000000000E+00  0.58281466400E+02  0.13791648925E+03  0.12499691468E+03 0.  0.
    9000005    1    3    3    0    0 -0.11861336591E+02 -0.48892604007E+02 -0.11756239764E+02  0.51675789358E+02  0.10000000000E+01 0.  0.
    9000005    1    3    3    0    0  0.11861336591E+02  0.48892604007E+02  0.70037706164E+02  0.86240699888E+02  0.10000000000E+01 0.  0.
<mgrwt>
<rscale>  0 0.12499691E+03</rscale>
<asrwt>0</asrwt>
<pdfrwt beam="2">  1        4 0.61257710E-02 0.12499691E+03</pdfrwt>
<pdfrwt beam="1">  1       -4 0.15092150E-01 0.12499691E+03</pdfrwt>
<totfact> 0.10177659E+04</totfact>
</mgrwt>
</event>
<event>
 5    1  0.3327068E-002  0.1249448E+03  0.7818608E-02  0.1235156E+00
          4   -1    0    0  501    0  0.00000000000E+00  0.00000000000E+00  0.42284136797E+02  0.42303204662E+02  0.12700000000E+01 0.  1.
         -4   -1    0    0    0  501 -0.00000000000E+00 -0.00000000000E+00 -0.92255112517E+02  0.92263853624E+02  0.12700000000E+01 0.  1.
         25    2    1    2    0    0  0.00000000000E+00  0.00000000000E+00 -0.49970975720E+02  0.13456705829E+03  0.12494476684E+03 0.  0.
    9000005    1    3    3    0    0 -0.53674575822E+02  0.29593994048E+02 -0.12015016023E+02  0.62466992752E+02  0.10000000000E+01 0.  0.
    9000005    1    3    3    0    0  0.53674575822E+02 -0.29593994048E+02 -0.37955959697E+02  0.72100065534E+02  0.10000000000E+01 0.  0.
<mgrwt>
<rscale>  0 0.12494477E+03</rscale>
<asrwt>0</asrwt>
<pdfrwt beam="1">  1        4 0.65073910E-02 0.12494477E+03</pdfrwt>
<pdfrwt beam="2">  1       -4 0.14195233E-01 0.12494477E+03</pdfrwt>
<totfact> 0.10259980E+04</totfact>
</mgrwt>
</event>
<event>
 5    1  0.3327068E-002  0.1249989E+03  0.7818608E-02  0.1235071E+00
          4   -1    0    0  501    0  0.00000000000E+00  0.00000000000E+00  0.39485285537E+02  0.39505704322E+02  0.12700000000E+01 0.  1.
         -4   -1    0    0    0  501 -0.00000000000E+00 -0.00000000000E+00 -0.98877383460E+02  0.98885539185E+02  0.12700000000E+01 0.  1.
         25    2    1    2    0    0  0.00000000000E+00  0.00000000000E+00 -0.59392097923E+02  0.13839124351E+03  0.12499885993E+03 0.  0.
    9000005    1    3    3    0    0  0.61019548648E+02  0.57285227015E+01 -0.43209393107E+02  0.74995019450E+02  0.10000000000E+01 0.  0.
    9000005    1    3    3    0    0 -0.61019548648E+02 -0.57285227015E+01 -0.16182704816E+02  0.63396224057E+02  0.10000000000E+01 0.  0.
<mgrwt>
<rscale>  0 0.12499886E+03</rscale>
<asrwt>0</asrwt>
<pdfrwt beam="1">  1        4 0.60768574E-02 0.12499886E+03</pdfrwt>
<pdfrwt beam="2">  1       -4 0.15214103E-01 0.12499886E+03</pdfrwt>
<totfact> 0.10167299E+04</totfact>
</mgrwt>
</event>
<event>
 5    1  0.3327068E-002  0.1250000E+03  0.7818608E-02  0.1235069E+00
         -4   -1    0    0    0  501 -0.00000000000E+00  0.00000000000E+00  0.81260192975E+02  0.81270116663E+02  0.12700000000E+01 0. -1.
          4   -1    0    0  501    0  0.00000000000E+00 -0.00000000000E+00 -0.48049619921E+02  0.48066400682E+02  0.12700000000E+01 0. -1.
         25    2    1    2    0    0  0.00000000000E+00  0.00000000000E+00  0.33210573054E+02  0.12933651734E+03  0.12499997023E+03 0.  0.
    9000005    1    3    3    0    0  0.23127883928E+02  0.21308773989E+02  0.72481408337E+02  0.79015931421E+02  0.10000000000E+01 0.  0.
    9000005    1    3    3    0    0 -0.23127883928E+02 -0.21308773989E+02 -0.39270835282E+02  0.50320585923E+02  0.10000000000E+01 0.  0.
<mgrwt>
<rscale>  0 0.12499997E+03</rscale>
<asrwt>0</asrwt>
<pdfrwt beam="2">  1        4 0.73943035E-02 0.12499997E+03</pdfrwt>
<pdfrwt beam="1">  1       -4 0.12503622E-01 0.12499997E+03</pdfrwt>
<totfact> 0.10358728E+04</totfact>
</mgrwt>
</event>
<event>
 5    1  0.3327068E-002  0.1250011E+03  0.7818608E-02  0.1235068E+00
          4   -1    0    0  501    0  0.00000000000E+00  0.00000000000E+00  0.21972464829E+03  0.21972831854E+03  0.12700000000E+01 0. -1.
         -4   -1    0    0    0  501 -0.00000000000E+00 -0.00000000000E+00 -0.17751748568E+02  0.17797119914E+02  0.12700000000E+01 0. -1.
         25    2    1    2    0    0  0.00000000000E+00  0.00000000000E+00  0.20197289972E+03  0.23752543845E+03  0.12500112675E+03 0.  0.
    9000005    1    3    3    0    0  0.44550466241E+02  0.10275963009E+02  0.20033582166E+02  0.49926785121E+02  0.10000000000E+01 0.  0.
    9000005    1    3    3    0    0 -0.44550466241E+02 -0.10275963009E+02  0.18193931756E+03  0.18759865333E+03  0.10000000000E+01 0.  0.
<mgrwt>
<rscale>  0 0.12500113E+03</rscale>
<asrwt>0</asrwt>
<pdfrwt beam="1">  1        4 0.33807564E-01 0.12500113E+03</pdfrwt>
<pdfrwt beam="2">  1       -4 0.27348107E-02 0.12500113E+03</pdfrwt>
<totfact> 0.84165180E+03</totfact>
</mgrwt>
</event>
<event>
 5    1  0.3327068E-002  0.1249990E+03  0.7818608E-02  0.1235071E+00
         -4   -1    0    0    0  501 -0.00000000000E+00  0.00000000000E+00  0.26224695189E+02  0.26255428729E+02  0.12700000000E+01 0. -1.
          4   -1    0    0  501    0  0.00000000000E+00 -0.00000000000E+00 -0.14883001934E+03  0.14883543784E+03  0.12700000000E+01 0. -1.
         25    2    1    2    0    0  0.00000000000E+00  0.00000000000E+00 -0.12260532416E+03  0.17509086657E+03  0.12499898418E+03 0.  0.
    9000005    1    3    3    0    0  0.30748484399E+02  0.24947429458E+02  0.64175377968E+01  0.40125158202E+02  0.10000000000E+01 0.  0.
    9000005    1    3    3    0    0 -0.30748484399E+02 -0.24947429458E+02 -0.12902286195E+03  0.13496570837E+03  0.10000000000E+01 0.  0.
<mgrwt>
<rscale>  0 0.12499898E+03</rscale>
<asrwt>0</asrwt>
<pdfrwt beam="2">  1        4 0.22899707E-01 0.12499898E+03</pdfrwt>
<pdfrwt beam="1">  1       -4 0.40373495E-02 0.12499898E+03</pdfrwt>
<totfact> 0.94510355E+03</totfact>
</mgrwt>
</event>
<event>
 5    1  0.3327068E-002  0.1250004E+03  0.7818608E-02  0.1235069E+00
         -4   -1    0    0    0  501 -0.00000000000E+00  0.00000000000E+00  0.32142828922E+02  0.32167908715E+02  0.12700000000E+01 0. -1.
          4   -1    0    0  501    0  0.00000000000E+00 -0.00000000000E+00 -0.12145280221E+03  0.12145944205E+03  0.12700000000E+01 0. -1.
         25    2    1    2    0    0  0.00000000000E+00  0.00000000000E+00 -0.89309973286E+02  0.15362735077E+03  0.12500036630E+03 0.  0.
    9000005    1    3    3    0    0  0.71146934326E+01 -0.16901284165E+02  0.28767750012E+02  0.34129982564E+02  0.10000000000E+01 0.  0.
    9000005    1    3    3    0    0 -0.71146934326E+01  0.16901284165E+02 -0.11807772330E+03  0.11949736821E+03  0.10000000000E+01 0.  0.
<mgrwt>
<rscale>  0 0.12500037E+03</rscale>
<asrwt>0</asrwt>
<pdfrwt beam="2">  1        4 0.18687486E-01 0.12500037E+03</pdfrwt>
<pdfrwt beam="1">  1       -4 0.49474906E-02 0.12500037E+03</pdfrwt>
<totfact> 0.98584680E+03</totfact>
</mgrwt>
</event>
<event>
 5    1  0.3327068E-002  0.1250020E+03  0.7818608E-02  0.1235066E+00
         -4   -1    0    0    0  501 -0.00000000000E+00  0.00000000000E+00  0.20762126504E+02  0.20800932599E+02  0.12700000000E+01 0. -1.
          4   -1    0    0  501    0  0.00000000000E+00 -0.00000000000E+00 -0.18793256721E+03  0.18793685833E+03  0.12700000000E+01 0. -1.
         25    2    1    2    0    0  0.00000000000E+00  0.00000000000E+00 -0.16717044070E+03  0.20873779092E+03  0.12500203644E+03 0.  0.
    9000005    1    3    3    0    0 -0.47186862356E+02 -0.30795308125E+02 -0.12871593337E+03  0.14051242822E+03  0.10000000000E+01 0.  0.
    9000005    1    3    3    0    0  0.47186862356E+02  0.30795308125E+02 -0.38454507333E+02  0.68225362702E+02  0.10000000000E+01 0.  0.
<mgrwt>
<rscale>  0 0.12500204E+03</rscale>
<asrwt>0</asrwt>
<pdfrwt beam="2">  1        4 0.28916017E-01 0.12500204E+03</pdfrwt>
<pdfrwt beam="1">  1       -4 0.31974886E-02 0.12500204E+03</pdfrwt>
<totfact> 0.88678394E+03</totfact>
</mgrwt>
</event>
<event>
 5    1  0.3327068E-002  0.1250036E+03  0.7818608E-02  0.1235064E+00
          4   -1    0    0  501    0  0.00000000000E+00  0.00000000000E+00  0.29075347557E+02  0.29103070895E+02  0.12700000000E+01 0.  1.
         -4   -1    0    0    0  501 -0.00000000000E+00 -0.00000000000E+00 -0.13426228836E+03  0.13426829476E+03  0.12700000000E+01 0.  1.
         25    2    1    2    0    0  0.00000000000E+00  0.00000000000E+00 -0.10518694081E+03  0.16337136565E+03  0.12500364234E+03 0.  0.
    9000005    1    3    3    0    0  0.10374259816E+02 -0.34012249694E+02 -0.11975785742E+03  0.12492959141E+03  0.10000000000E+01 0.  0.
    9000005    1    3    3    0    0 -0.10374259816E+02  0.34012249694E+02  0.14570916612E+02  0.38441774242E+02  0.10000000000E+01 0.  0.
<mgrwt>
<rscale>  0 0.12500364E+03</rscale>
<asrwt>0</asrwt>
<pdfrwt beam="1">  1        4 0.44757251E-02 0.12500364E+03</pdfrwt>
<pdfrwt beam="2">  1       -4 0.20658331E-01 0.12500364E+03</pdfrwt>
<totfact> 0.96688809E+03</totfact>
</mgrwt>
</event>
<event>
 5    1  0.3327068E-002  0.1249975E+03  0.7818608E-02  0.1235073E+00
         -4   -1    0    0    0  501 -0.00000000000E+00  0.00000000000E+00  0.15996484652E+02  0.16046819661E+02  0.12700000000E+01 0.  1.
          4   -1    0    0  501    0  0.00000000000E+00 -0.00000000000E+00 -0.24374875842E+03  0.24375206692E+03  0.12700000000E+01 0.  1.
         25    2    1    2    0    0  0.00000000000E+00  0.00000000000E+00 -0.22775227376E+03  0.25979888658E+03  0.12499745304E+03 0.  0.
    9000005    1    3    3    0    0 -0.45961114978E+02 -0.51383855911E+01 -0.26525938465E+02  0.53324033118E+02  0.10000000000E+01 0.  0.
    9000005    1    3    3    0    0  0.45961114978E+02  0.51383855911E+01 -0.20122633530E+03  0.20647485347E+03  0.10000000000E+01 0.  0.
<mgrwt>
<rscale>  0 0.12499745E+03</rscale>
<asrwt>0</asrwt>
<pdfrwt beam="2">  1        4 0.37503933E-01 0.12499745E+03</pdfrwt>
<pdfrwt beam="1">  1       -4 0.24651242E-02 0.12499745E+03</pdfrwt>
<totfact> 0.80938882E+03</totfact>
</mgrwt>
</event>
<event>
 5    1  0.3327068E-002  0.1250009E+03  0.7818608E-02  0.1235068E+00
         -4   -1    0    0    0  501 -0.00000000000E+00  0.00000000000E+00  0.44877763883E+02  0.44895730211E+02  0.12700000000E+01 0.  1.
          4   -1    0    0  501    0  0.00000000000E+00 -0.00000000000E+00 -0.87003213335E+02  0.87012482039E+02  0.12700000000E+01 0.  1.
         25    2    1    2    0    0  0.00000000000E+00  0.00000000000E+00 -0.42125449452E+02  0.13190821225E+03  0.12500089187E+03 0.  0.
    9000005    1    3    3    0    0  0.14991925193E+02 -0.19515133342E+02  0.39554555160E+02  0.46595719591E+02  0.10000000000E+01 0.  0.
    9000005    1    3    3    0    0 -0.14991925193E+02  0.19515133342E+02 -0.81680004611E+02  0.85312492659E+02  0.10000000000E+01 0.  0.
<mgrwt>
<rscale>  0 0.12500089E+03</rscale>
<asrwt>0</asrwt>
<pdfrwt beam="2">  1        4 0.13387205E-01 0.12500089E+03</pdfrwt>
<pdfrwt beam="1">  1       -4 0.69063664E-02 0.12500089E+03</pdfrwt>
<totfact> 0.10303451E+04</totfact>
</mgrwt>
</event>
<event>
 5    1  0.3327068E-002  0.1250041E+03  0.7818608E-02  0.1235063E+00
         -4   -1    0    0    0  501 -0.00000000000E+00  0.00000000000E+00  0.53590155048E+01  0.55074447052E+01  0.12700000000E+01 0.  1.
          4   -1    0    0  501    0  0.00000000000E+00 -0.00000000000E+00 -0.71885315391E+03  0.71885427577E+03  0.12700000000E+01 0.  1.
         25    2    1    2    0    0  0.00000000000E+00  0.00000000000E+00 -0.71349413841E+03  0.72436172047E+03  0.12500406611E+03 0.  0.
    9000005    1    3    3    0    0  0.35342453129E+02  0.19642552718E+02 -0.63286859168E+03  0.63415973793E+03  0.10000000000E+01 0.  0.
    9000005    1    3    3    0    0 -0.35342453129E+02 -0.19642552718E+02 -0.80625546727E+02  0.90201982547E+02  0.10000000000E+01 0.  0.
<mgrwt>
<rscale>  0 0.12500407E+03</rscale>
<asrwt>0</asrwt>
<pdfrwt beam="2">  1        4 0.11060422E+00 0.12500407E+03</pdfrwt>
<pdfrwt beam="1">  1       -4 0.83596842E-03 0.12500407E+03</pdfrwt>
<totfact> 0.41827741E+03</totfact>
</mgrwt>
</event>
<event>
 5    1  0.3327068E-002  0.1249985E+03  0.7818608E-02  0.1235072E+00
         -4   -1    0    0    0  501 -0.00000000000E+00  0.00000000000E+00  0.28314678436E+02  0.28343145819E+02  0.12700000000E+01 0. -1.
          4   -1    0    0  501    0  0.00000000000E+00 -0.00000000000E+00 -0.13785452585E+03  0.13786037573E+03  0.12700000000E+01 0. -1.
         25    2    1    2    0    0  0.00000000000E+00  0.00000000000E+00 -0.10953984741E+03  0.16620352155E+03  0.12499852961E+03 0.  0.
    9000005    1    3    3    0    0  0.11614268876E+02 -0.36185366883E+02 -0.12072998830E+03  0.12657409724E+03  0.10000000000E+01 0.  0.
    9000005    1    3    3    0    0 -0.11614268876E+02  0.36185366883E+02  0.11190140887E+02  0.39629424309E+02  0.10000000000E+01 0.  0.
<mgrwt>
<rscale>  0 0.12499853E+03</rscale>
<asrwt>0</asrwt>
<pdfrwt beam="2">  1        4 0.21211028E-01 0.12499853E+03</pdfrwt>
<pdfrwt beam="1">  1       -4 0.43587443E-02 0.12499853E+03</pdfrwt>
<totfact> 0.96163125E+03</totfact>
</mgrwt>
</event>
<event>
 5    1  0.3327068E-002  0.1249989E+03  0.7818608E-02  0.1235071E+00
         -4   -1    0    0    0  501 -0.00000000000E+00  0.00000000000E+00  0.59511759842E+02  0.59525309403E+02  0.12700000000E+01 0.  1.
          4   -1    0    0  501    0  0.00000000000E+00 -0.00000000000E+00 -0.65609988940E+02  0.65622279362E+02  0.12700000000E+01 0.  1.
         25    2    1    2    0    0  0.00000000000E+00  0.00000000000E+00 -0.60982290976E+01  0.12514758877E+03  0.12499892230E+03 0.  0.
    9000005    1    3    3    0    0  0.46687661207E+02  0.20388895371E+02 -0.39282458110E+02  0.64339383574E+02  0.10000000000E+01 0.  0.
    9000005    1    3    3    0    0 -0.46687661207E+02 -0.20388895371E+02  0.33184229013E+02  0.60808205192E+02  0.10000000000E+01 0.  0.
<mgrwt>
<rscale>  0 0.12499892E+03</rscale>
<asrwt>0</asrwt>
<pdfrwt beam="2">  1        4 0.10095832E-01 0.12499892E+03</pdfrwt>
<pdfrwt beam="1">  1       -4 0.91576430E-02 0.12499892E+03</pdfrwt>
<totfact> 0.10449912E+04</totfact>
</mgrwt>
</event>
<event>
 5    1  0.3327068E-002  0.1249995E+03  0.7818608E-02  0.1235070E+00
         -4   -1    0    0    0  501 -0.00000000000E+00  0.00000000000E+00  0.16442476771E+02  0.16491450584E+02  0.12700000000E+01 0.  1.
          4   -1    0    0  501    0  0.00000000000E+00 -0.00000000000E+00 -0.23716489944E+03  0.23716829980E+03  0.12700000000E+01 0.  1.
         25    2    1    2    0    0  0.00000000000E+00  0.00000000000E+00 -0.22072242267E+03  0.25365975038E+03  0.12499952437E+03 0.  0.
    9000005    1    3    3    0    0  0.19645321876E+02 -0.58064771931E+02 -0.13502883516E+03  0.14829444608E+03  0.10000000000E+01 0.  0.
    9000005    1    3    3    0    0 -0.19645321876E+02  0.58064771931E+02 -0.85693587508E+02  0.10536530430E+03  0.10000000000E+01 0.  0.
<mgrwt>
<rscale>  0 0.12499952E+03</rscale>
<asrwt>0</asrwt>
<pdfrwt beam="2">  1        4 0.36490934E-01 0.12499952E+03</pdfrwt>
<pdfrwt beam="1">  1       -4 0.25336408E-02 0.12499952E+03</pdfrwt>
<totfact> 0.81805008E+03</totfact>
</mgrwt>
</event>
<event>
 5    1  0.3327068E-002  0.1249983E+03  0.7818608E-02  0.1235072E+00
         -4   -1    0    0    0  501 -0.00000000000E+00  0.00000000000E+00  0.65319957939E+03  0.65320081400E+03  0.12700000000E+01 0.  1.
          4   -1    0    0  501    0  0.00000000000E+00 -0.00000000000E+00 -0.59113303861E+01  0.60462159185E+01  0.12700000000E+01 0.  1.
         25    2    1    2    0    0  0.00000000000E+00  0.00000000000E+00  0.64728824900E+03  0.65924702992E+03  0.12499827664E+03 0.  0.
    9000005    1    3    3    0    0  0.92337344212E+01 -0.56414306163E+02  0.45678712203E+03  0.46035129048E+03  0.10000000000E+01 0.  0.
    9000005    1    3    3    0    0 -0.92337344212E+01  0.56414306163E+02  0.19050112697E+03  0.19889573944E+03  0.10000000000E+01 0.  0.
<mgrwt>
<rscale>  0 0.12499828E+03</rscale>
<asrwt>0</asrwt>
<pdfrwt beam="2">  1        4 0.91990678E-03 0.12499828E+03</pdfrwt>
<pdfrwt beam="1">  1       -4 0.10050265E+00 0.12499828E+03</pdfrwt>
<totfact> 0.45328607E+03</totfact>
</mgrwt>
</event>
<event>
 5    1  0.3327068E-002  0.1249985E+03  0.7818608E-02  0.1235072E+00
          4   -1    0    0  501    0  0.00000000000E+00  0.00000000000E+00  0.24904491418E+02  0.24936852103E+02  0.12700000000E+01 0.  1.
         -4   -1    0    0    0  501 -0.00000000000E+00 -0.00000000000E+00 -0.15670866423E+03  0.15671381032E+03  0.12700000000E+01 0.  1.
         25    2    1    2    0    0  0.00000000000E+00  0.00000000000E+00 -0.13180417281E+03  0.18165066242E+03  0.12499849274E+03 0.  0.
    9000005    1    3    3    0    0 -0.54547177335E+02  0.22223850886E+02 -0.35562716246E+02  0.68811342744E+02  0.10000000000E+01 0.  0.
    9000005    1    3    3    0    0  0.54547177335E+02 -0.22223850886E+02 -0.96241456563E+02  0.11283931968E+03  0.10000000000E+01 0.  0.
<mgrwt>
<rscale>  0 0.12499849E+03</rscale>
<asrwt>0</asrwt>
<pdfrwt beam="1">  1        4 0.38343454E-02 0.12499849E+03</pdfrwt>
<pdfrwt beam="2">  1       -4 0.24111910E-01 0.12499849E+03</pdfrwt>
<totfact> 0.93323873E+03</totfact>
</mgrwt>
</event>
<event>
 5    1  0.3327068E-002  0.1249993E+03  0.7818608E-02  0.1235070E+00
          4   -1    0    0  501    0  0.00000000000E+00  0.00000000000E+00  0.62122859838E+02  0.62135840016E+02  0.12700000000E+01 0. -1.
         -4   -1    0    0    0  501 -0.00000000000E+00 -0.00000000000E+00 -0.62852726972E+02  0.62865556450E+02  0.12700000000E+01 0. -1.
         25    2    1    2    0    0  0.00000000000E+00  0.00000000000E+00 -0.72986713335E+00  0.12500139647E+03  0.12499926565E+03 0.  0.
    9000005    1    3    3    0    0  0.40550569259E+02  0.34254649479E+02  0.32612505704E+02  0.62308147192E+02  0.10000000000E+01 0.  0.
    9000005    1    3    3    0    0 -0.40550569259E+02 -0.34254649479E+02 -0.33342372837E+02  0.62693249274E+02  0.10000000000E+01 0.  0.
<mgrwt>
<rscale>  0 0.12499927E+03</rscale>
<asrwt>0</asrwt>
<pdfrwt beam="1">  1        4 0.95593484E-02 0.12499927E+03</pdfrwt>
<pdfrwt beam="2">  1       -4 0.96716356E-02 0.12499927E+03</pdfrwt>
<totfact> 0.10453006E+04</totfact>
</mgrwt>
</event>
<event>
 5    1  0.3327068E-002  0.1249929E+03  0.7818608E-02  0.1235080E+00
          4   -1    0    0  501    0  0.00000000000E+00  0.00000000000E+00  0.19761085703E+02  0.19801853655E+02  0.12700000000E+01 0.  1.
         -4   -1    0    0    0  501 -0.00000000000E+00 -0.00000000000E+00 -0.19740504894E+03  0.19740913415E+03  0.12700000000E+01 0.  1.
         25    2    1    2    0    0  0.00000000000E+00  0.00000000000E+00 -0.17764396323E+03  0.21721098781E+03  0.12499294200E+03 0.  0.
    9000005    1    3    3    0    0  0.48525002101E+02  0.24699657813E+02 -0.14210319156E+03  0.15218103028E+03  0.10000000000E+01 0.  0.
    9000005    1    3    3    0    0 -0.48525002101E+02 -0.24699657813E+02 -0.35540771677E+02  0.65029957531E+02  0.10000000000E+01 0.  0.
<mgrwt>
<rscale>  0 0.12499294E+03</rscale>
<asrwt>0</asrwt>
<pdfrwt beam="1">  1        4 0.30436174E-02 0.12499294E+03</pdfrwt>
<pdfrwt beam="2">  1       -4 0.30373456E-01 0.12499294E+03</pdfrwt>
<totfact> 0.87325377E+03</totfact>
</mgrwt>
</event>
<event>
 5    1  0.3327068E-002  0.1250009E+03  0.7818608E-02  0.1235068E+00
          4   -1    0    0  501    0  0.00000000000E+00  0.00000000000E+00  0.50473900079E+02  0.50489875115E+02  0.12700000000E+01 0. -1.
         -4   -1    0    0    0  501 -0.00000000000E+00 -0.00000000000E+00 -0.77359171557E+02  0.77369595605E+02  0.12700000000E+01 0. -1.
         25    2    1    2    0    0  0.00000000000E+00  0.00000000000E+00 -0.26885271479E+02  0.12785947072E+03  0.12500090572E+03 0.  0.
    9000005    1    3    3    0    0  0.52015699877E+02 -0.34423145172E+02 -0.95181456121E+01  0.63104524823E+02  0.10000000000E+01 0.  0.
    9000005    1    3    3    0    0 -0.52015699877E+02  0.34423145172E+02 -0.17367125867E+02  0.64754945897E+02  0.10000000000E+01 0.  0.
<mgrwt>
<rscale>  0 0.12500091E+03</rscale>
<asrwt>0</asrwt>
<pdfrwt beam="1">  1        4 0.77672461E-02 0.12500091E+03</pdfrwt>
<pdfrwt beam="2">  1       -4 0.11903442E-01 0.12500091E+03</pdfrwt>
<totfact> 0.10390311E+04</totfact>
</mgrwt>
</event>
<event>
 5    1  0.3327068E-002  0.1250010E+03  0.7818608E-02  0.1235068E+00
          4   -1    0    0  501    0  0.00000000000E+00  0.00000000000E+00  0.96629791684E+02  0.96638137093E+02  0.12700000000E+01 0.  1.
         -4   -1    0    0    0  501 -0.00000000000E+00 -0.00000000000E+00 -0.40405458096E+02  0.40425412106E+02  0.12700000000E+01 0.  1.
         25    2    1    2    0    0  0.00000000000E+00  0.00000000000E+00  0.56224333588E+02  0.13706354920E+03  0.12500096332E+03 0.  0.
    9000005    1    3    3    0    0 -0.20723610071E+02 -0.32552504339E+02  0.82010204698E+02  0.90641090173E+02  0.10000000000E+01 0.  0.
    9000005    1    3    3    0    0  0.20723610071E+02  0.32552504339E+02 -0.25785871110E+02  0.46422459026E+02  0.10000000000E+01 0.  0.
<mgrwt>
<rscale>  0 0.12500096E+03</rscale>
<asrwt>0</asrwt>
<pdfrwt beam="1">  1        4 0.14868299E-01 0.12500096E+03</pdfrwt>
<pdfrwt beam="2">  1       -4 0.62184011E-02 0.12500096E+03</pdfrwt>
<totfact> 0.10194536E+04</totfact>
</mgrwt>
</event>
<event>
 5    1  0.3327068E-002  0.1249979E+03  0.7818608E-02  0.1235073E+00
         -4   -1    0    0    0  501 -0.00000000000E+00  0.00000000000E+00  0.79705997877E+02  0.79716115043E+02  0.12700000000E+01 0.  1.
          4   -1    0    0  501    0  0.00000000000E+00 -0.00000000000E+00 -0.48985111392E+02  0.49001571792E+02  0.12700000000E+01 0.  1.
         25    2    1    2    0    0  0.00000000000E+00  0.00000000000E+00  0.30720886485E+02  0.12871768684E+03  0.12499788013E+03 0.  0.
    9000005    1    3    3    0    0  0.48071322954E+02 -0.23071353027E+02 -0.18197347132E+02  0.56349648301E+02  0.10000000000E+01 0.  0.
    9000005    1    3    3    0    0 -0.48071322954E+02  0.23071353027E+02  0.48918233617E+02  0.72368038534E+02  0.10000000000E+01 0.  0.
<mgrwt>
<rscale>  0 0.12499788E+03</rscale>
<asrwt>0</asrwt>
<pdfrwt beam="2">  1        4 0.75382155E-02 0.12499788E+03</pdfrwt>
<pdfrwt beam="1">  1       -4 0.12264506E-01 0.12499788E+03</pdfrwt>
<totfact> 0.10372514E+04</totfact>
</mgrwt>
</event>
<event>
 5    1  0.3327068E-002  0.1249962E+03  0.7818608E-02  0.1235075E+00
          4   -1    0    0  501    0  0.00000000000E+00  0.00000000000E+00  0.77680298747E+03  0.77680402564E+03  0.12700000000E+01 0. -1.
         -4   -1    0    0    0  501 -0.00000000000E+00 -0.00000000000E+00 -0.49470654311E+01  0.51074804336E+01  0.12700000000E+01 0. -1.
         25    2    1    2    0    0  0.00000000000E+00  0.00000000000E+00  0.77185592204E+03  0.78191150607E+03  0.12499615568E+03 0.  0.
    9000005    1    3    3    0    0 -0.13779882712E+02  0.47267341786E+02  0.14519964274E+03  0.15332326314E+03  0.10000000000E+01 0.  0.
    9000005    1    3    3    0    0  0.13779882712E+02 -0.47267341786E+02  0.62665627930E+03  0.62858824294E+03  0.10000000000E+01 0.  0.
<mgrwt>
<rscale>  0 0.12499616E+03</rscale>
<asrwt>0</asrwt>
<pdfrwt beam="1">  1        4 0.11952046E+00 0.12499616E+03</pdfrwt>
<pdfrwt beam="2">  1       -4 0.77350719E-03 0.12499616E+03</pdfrwt>
<totfact> 0.39088426E+03</totfact>
</mgrwt>
</event>
<event>
 5    1  0.3327068E-002  0.1249978E+03  0.7818608E-02  0.1235073E+00
         -4   -1    0    0    0  501 -0.00000000000E+00  0.00000000000E+00  0.58686264922E+01  0.60044714093E+01  0.12700000000E+01 0. -1.
          4   -1    0    0  501    0  0.00000000000E+00 -0.00000000000E+00 -0.65784016104E+03  0.65784138694E+03  0.12700000000E+01 0. -1.
         25    2    1    2    0    0  0.00000000000E+00  0.00000000000E+00 -0.65197153455E+03  0.66384585835E+03  0.12499776715E+03 0.  0.
    9000005    1    3    3    0    0  0.41754053973E+02 -0.43075051573E+02 -0.41892575006E+03  0.42320047868E+03  0.10000000000E+01 0.  0.
    9000005    1    3    3    0    0 -0.41754053973E+02  0.43075051573E+02 -0.23304578449E+03  0.24064537968E+03  0.10000000000E+01 0.  0.
<mgrwt>
<rscale>  0 0.12499777E+03</rscale>
<asrwt>0</asrwt>
<pdfrwt beam="2">  1        4 0.10121667E+00 0.12499777E+03</pdfrwt>
<pdfrwt beam="1">  1       -4 0.91341004E-03 0.12499777E+03</pdfrwt>
<totfact> 0.45067305E+03</totfact>
</mgrwt>
</event>
<event>
 5    1  0.3327068E-002  0.1250037E+03  0.7818608E-02  0.1235064E+00
          4   -1    0    0  501    0  0.00000000000E+00  0.00000000000E+00  0.13914605056E+03  0.13915184615E+03  0.12700000000E+01 0.  1.
         -4   -1    0    0    0  501 -0.00000000000E+00 -0.00000000000E+00 -0.28053922504E+02  0.28082654217E+02  0.12700000000E+01 0.  1.
         25    2    1    2    0    0  0.00000000000E+00  0.00000000000E+00  0.11109212805E+03  0.16723450036E+03  0.12500366873E+03 0.  0.
    9000005    1    3    3    0    0  0.23134593641E+02 -0.46381311989E+02  0.88357520291E+01  0.52588078865E+02  0.10000000000E+01 0.  0.
    9000005    1    3    3    0    0 -0.23134593641E+02  0.46381311989E+02  0.10225637602E+03  0.11464642150E+03  0.10000000000E+01 0.  0.
<mgrwt>
<rscale>  0 0.12500367E+03</rscale>
<asrwt>0</asrwt>
<pdfrwt beam="1">  1        4 0.21409741E-01 0.12500367E+03</pdfrwt>
<pdfrwt beam="2">  1       -4 0.43186440E-02 0.12500367E+03</pdfrwt>
<totfact> 0.95957972E+03</totfact>
</mgrwt>
</event>
<event>
 5    1  0.3327068E-002  0.1250003E+03  0.7818608E-02  0.1235069E+00
         -4   -1    0    0    0  501 -0.00000000000E+00  0.00000000000E+00  0.18762829806E+04  0.18762834104E+04  0.12700000000E+01 0.  1.
          4   -1    0    0  501    0  0.00000000000E+00 -0.00000000000E+00 -0.18877698970E+01  0.22752088221E+01  0.12700000000E+01 0.  1.
         25    2    1    2    0    0  0.00000000000E+00  0.00000000000E+00  0.18743952107E+04  0.18785586193E+04  0.12500031998E+03 0.  0.
    9000005    1    3    3    0    0 -0.79725444937E+01 -0.56187493574E+02  0.13304356937E+04  0.13316458730E+04  0.10000000000E+01 0.  0.
    9000005    1    3    3    0    0  0.79725444937E+01  0.56187493574E+02  0.54395951701E+03  0.54691274628E+03  0.10000000000E+01 0.  0.
<mgrwt>
<rscale>  0 0.12500032E+03</rscale>
<asrwt>0</asrwt>
<pdfrwt beam="2">  1        4 0.32026117E-03 0.12500032E+03</pdfrwt>
<pdfrwt beam="1">  1       -4 0.28868968E+00 0.12500032E+03</pdfrwt>
<totfact> 0.11530616E+03</totfact>
</mgrwt>
</event>
<event>
 5    1  0.3327068E-002  0.1250039E+03  0.7818608E-02  0.1235063E+00
         -4   -1    0    0    0  501 -0.00000000000E+00  0.00000000000E+00  0.30867892099E+03  0.30868153356E+03  0.12700000000E+01 0.  1.
          4   -1    0    0  501    0  0.00000000000E+00 -0.00000000000E+00 -0.12620986211E+02  0.12684722817E+02  0.12700000000E+01 0.  1.
         25    2    1    2    0    0  0.00000000000E+00  0.00000000000E+00  0.29605793478E+03  0.32136625638E+03  0.12500387992E+03 0.  0.
    9000005    1    3    3    0    0 -0.56975814680E+01 -0.40231336424E+02  0.25961769385E+02  0.48228998897E+02  0.10000000000E+01 0.  0.
    9000005    1    3    3    0    0  0.56975814680E+01  0.40231336424E+02  0.27009616539E+03  0.27313725748E+03  0.10000000000E+01 0.  0.
<mgrwt>
<rscale>  0 0.12500388E+03</rscale>
<asrwt>0</asrwt>
<pdfrwt beam="2">  1        4 0.19467938E-02 0.12500388E+03</pdfrwt>
<pdfrwt beam="1">  1       -4 0.47494173E-01 0.12500388E+03</pdfrwt>
<totfact> 0.72987639E+03</totfact>
</mgrwt>
</event>
<event>
 5    1  0.3327068E-002  0.1250004E+03  0.7818608E-02  0.1235069E+00
          4   -1    0    0  501    0  0.00000000000E+00  0.00000000000E+00  0.13600179884E+02  0.13659348186E+02  0.12700000000E+01 0.  1.
         -4   -1    0    0    0  501 -0.00000000000E+00 -0.00000000000E+00 -0.28653850904E+03  0.28654132349E+03  0.12700000000E+01 0.  1.
         25    2    1    2    0    0  0.00000000000E+00  0.00000000000E+00 -0.27293832916E+03  0.30020067167E+03  0.12500044699E+03 0.  0.
    9000005    1    3    3    0    0  0.57588073491E+02  0.12504047187E+02 -0.86521694098E+02  0.10468878141E+03  0.10000000000E+01 0.  0.
    9000005    1    3    3    0    0 -0.57588073491E+02 -0.12504047187E+02 -0.18641663506E+03  0.19551189026E+03  0.10000000000E+01 0.  0.
<mgrwt>
<rscale>  0 0.12500045E+03</rscale>
<asrwt>0</asrwt>
<pdfrwt beam="1">  1        4 0.20971035E-02 0.12500045E+03</pdfrwt>
<pdfrwt beam="2">  1       -4 0.44087611E-01 0.12500045E+03</pdfrwt>
<totfact> 0.75572926E+03</totfact>
</mgrwt>
</event>
<event>
 5    1  0.3327068E-002  0.1250242E+03  0.7818608E-02  0.1235031E+00
         -4   -1    0    0    0  501 -0.00000000000E+00  0.00000000000E+00  0.51490051254E+02  0.51505711121E+02  0.12700000000E+01 0. -1.
          4   -1    0    0  501    0  0.00000000000E+00 -0.00000000000E+00 -0.75861014845E+02  0.75871644725E+02  0.12700000000E+01 0. -1.
         25    2    1    2    0    0  0.00000000000E+00  0.00000000000E+00 -0.24370963591E+02  0.12737735585E+03  0.12502418532E+03 0.  0.
    9000005    1    3    3    0    0 -0.31488307893E+02 -0.26733244994E+02  0.35607811242E+02  0.54544441910E+02  0.10000000000E+01 0.  0.
    9000005    1    3    3    0    0  0.31488307893E+02  0.26733244994E+02 -0.59978774833E+02  0.72832913936E+02  0.10000000000E+01 0.  0.
<mgrwt>
<rscale>  0 0.12502419E+03</rscale>
<asrwt>0</asrwt>
<pdfrwt beam="2">  1        4 0.11672948E-01 0.12502419E+03</pdfrwt>
<pdfrwt beam="1">  1       -4 0.79235687E-02 0.12502419E+03</pdfrwt>
<totfact> 0.10395281E+04</totfact>
</mgrwt>
</event>
<event>
 5    1  0.3327068E-002  0.1249953E+03  0.7818608E-02  0.1235077E+00
         -4   -1    0    0    0  501 -0.00000000000E+00  0.00000000000E+00  0.37517051009E+01  0.39608321303E+01  0.12700000000E+01 0. -1.
          4   -1    0    0  501    0  0.00000000000E+00 -0.00000000000E+00 -0.10126760541E+04  0.10126768505E+04  0.12700000000E+01 0. -1.
         25    2    1    2    0    0  0.00000000000E+00  0.00000000000E+00 -0.10089243490E+04  0.10166376826E+04  0.12499534251E+03 0.  0.
    9000005    1    3    3    0    0  0.75896539279E+01 -0.60350966840E+02 -0.38797635494E+03  0.39271681151E+03  0.10000000000E+01 0.  0.
    9000005    1    3    3    0    0 -0.75896539279E+01  0.60350966840E+02 -0.62094799409E+03  0.62392087112E+03  0.10000000000E+01 0.  0.
<mgrwt>
<rscale>  0 0.12499534E+03</rscale>
<asrwt>0</asrwt>
<pdfrwt beam="2">  1        4 0.15581225E+00 0.12499534E+03</pdfrwt>
<pdfrwt beam="1">  1       -4 0.59333416E-03 0.12499534E+03</pdfrwt>
<totfact> 0.30062831E+03</totfact>
</mgrwt>
</event>
<event>
 5    1  0.3327068E-002  0.1250004E+03  0.7818608E-02  0.1235069E+00
          4   -1    0    0  501    0  0.00000000000E+00  0.00000000000E+00  0.11219831211E+02  0.11291479637E+02  0.12700000000E+01 0. -1.
         -4   -1    0    0    0  501 -0.00000000000E+00 -0.00000000000E+00 -0.34697709968E+03  0.34697942389E+03  0.12700000000E+01 0. -1.
         25    2    1    2    0    0  0.00000000000E+00  0.00000000000E+00 -0.33575726847E+03  0.35827090353E+03  0.12500038794E+03 0.  0.
    9000005    1    3    3    0    0 -0.29194417482E+02 -0.48966333618E+02 -0.94510668329E+02  0.11037790661E+03  0.10000000000E+01 0.  0.
    9000005    1    3    3    0    0  0.29194417482E+02  0.48966333618E+02 -0.24124660014E+03  0.24789299692E+03  0.10000000000E+01 0.  0.
<mgrwt>
<rscale>  0 0.12500039E+03</rscale>
<asrwt>0</asrwt>
<pdfrwt beam="1">  1        4 0.17318183E-02 0.12500039E+03</pdfrwt>
<pdfrwt beam="2">  1       -4 0.53386774E-01 0.12500039E+03</pdfrwt>
<totfact> 0.68823551E+03</totfact>
</mgrwt>
</event>
<event>
 5    1  0.3327068E-002  0.1250047E+03  0.7818608E-02  0.1235062E+00
         -4   -1    0    0    0  501 -0.00000000000E+00  0.00000000000E+00  0.58608368095E+03  0.58608505694E+03  0.12700000000E+01 0.  1.
          4   -1    0    0  501    0  0.00000000000E+00 -0.00000000000E+00 -0.66036115046E+01  0.67246252612E+01  0.12700000000E+01 0.  1.
         25    2    1    2    0    0  0.00000000000E+00  0.00000000000E+00  0.57948006944E+03  0.59280968220E+03  0.12500467365E+03 0.  0.
    9000005    1    3    3    0    0  0.23671505856E+02 -0.22809597531E+02  0.37686706988E+02  0.50019054496E+02  0.10000000000E+01 0.  0.
    9000005    1    3    3    0    0 -0.23671505856E+02  0.22809597531E+02  0.54179336245E+03  0.54279062771E+03  0.10000000000E+01 0.  0.
<mgrwt>
<rscale>  0 0.12500467E+03</rscale>
<asrwt>0</asrwt>
<pdfrwt beam="2">  1        4 0.10253548E-02 0.12500467E+03</pdfrwt>
<pdfrwt beam="1">  1       -4 0.90176136E-01 0.12500467E+03</pdfrwt>
<totfact> 0.49319596E+03</totfact>
</mgrwt>
</event>
<event>
 5    1  0.3327068E-002  0.1250005E+03  0.7818608E-02  0.1235068E+00
         -4   -1    0    0    0  501 -0.00000000000E+00  0.00000000000E+00  0.19242597777E+01  0.23055749157E+01  0.12700000000E+01 0.  1.
          4   -1    0    0  501    0  0.00000000000E+00 -0.00000000000E+00 -0.18466321153E+04  0.18466325520E+04  0.12700000000E+01 0.  1.
         25    2    1    2    0    0  0.00000000000E+00  0.00000000000E+00 -0.18447078555E+04  0.18489381269E+04  0.12500049995E+03 0.  0.
    9000005    1    3    3    0    0 -0.19211157830E+02  0.58902934770E+02 -0.80159109105E+03  0.80398252566E+03  0.10000000000E+01 0.  0.
    9000005    1    3    3    0    0  0.19211157830E+02 -0.58902934770E+02 -0.10431167645E+04  0.10449556013E+04  0.10000000000E+01 0.  0.
<mgrwt>
<rscale>  0 0.12500050E+03</rscale>
<asrwt>0</asrwt>
<pdfrwt beam="2">  1        4 0.28412532E+00 0.12500050E+03</pdfrwt>
<pdfrwt beam="1">  1       -4 0.32540697E-03 0.12500050E+03</pdfrwt>
<totfact> 0.11964421E+03</totfact>
</mgrwt>
</event>
<event>
 5    1  0.3327068E-002  0.1249979E+03  0.7818608E-02  0.1235073E+00
          4   -1    0    0  501    0  0.00000000000E+00  0.00000000000E+00  0.53544997979E+02  0.53560057025E+02  0.12700000000E+01 0. -1.
         -4   -1    0    0    0  501 -0.00000000000E+00 -0.00000000000E+00 -0.72919322325E+02  0.72930380970E+02  0.12700000000E+01 0. -1.
         25    2    1    2    0    0  0.00000000000E+00  0.00000000000E+00 -0.19374324347E+02  0.12649043799E+03  0.12499786582E+03 0.  0.
    9000005    1    3    3    0    0 -0.57521934636E+02  0.24373125317E+02 -0.11219981281E+02  0.63479998282E+02  0.10000000000E+01 0.  0.
    9000005    1    3    3    0    0  0.57521934636E+02 -0.24373125317E+02 -0.81543430661E+01  0.63010439713E+02  0.10000000000E+01 0.  0.
<mgrwt>
<rscale>  0 0.12499787E+03</rscale>
<asrwt>0</asrwt>
<pdfrwt beam="1">  1        4 0.82397010E-02 0.12499787E+03</pdfrwt>
<pdfrwt beam="2">  1       -4 0.11220366E-01 0.12499787E+03</pdfrwt>
<totfact> 0.10420739E+04</totfact>
</mgrwt>
</event>
<event>
 5    1  0.3327068E-002  0.1250094E+03  0.7818608E-02  0.1235055E+00
         -4   -1    0    0    0  501 -0.00000000000E+00  0.00000000000E+00  0.71410291723E+01  0.72530819408E+01  0.12700000000E+01 0.  1.
          4   -1    0    0  501    0  0.00000000000E+00 -0.00000000000E+00 -0.54272590803E+03  0.54272739395E+03  0.12700000000E+01 0.  1.
         25    2    1    2    0    0  0.00000000000E+00  0.00000000000E+00 -0.53558487886E+03  0.54998047590E+03  0.12500944526E+03 0.  0.
    9000005    1    3    3    0    0 -0.16231408561E+02  0.60350714109E+02 -0.26596236165E+03  0.27320806198E+03  0.10000000000E+01 0.  0.
    9000005    1    3    3    0    0  0.16231408561E+02 -0.60350714109E+02 -0.26962251721E+03  0.27677241392E+03  0.10000000000E+01 0.  0.
<mgrwt>
<rscale>  0 0.12500945E+03</rscale>
<asrwt>0</asrwt>
<pdfrwt beam="2">  1        4 0.83504995E-01 0.12500945E+03</pdfrwt>
<pdfrwt beam="1">  1       -4 0.11073540E-02 0.12500945E+03</pdfrwt>
<totfact> 0.52174483E+03</totfact>
</mgrwt>
</event>
<event>
 5    1  0.3327068E-002  0.1249915E+03  0.7818608E-02  0.1235083E+00
         -4   -1    0    0    0  501 -0.00000000000E+00  0.00000000000E+00  0.49194371367E+01  0.50807245292E+01  0.12700000000E+01 0. -1.
          4   -1    0    0  501    0  0.00000000000E+00 -0.00000000000E+00 -0.78096937333E+03  0.78097040596E+03  0.12700000000E+01 0. -1.
         25    2    1    2    0    0  0.00000000000E+00  0.00000000000E+00 -0.77604993620E+03  0.78605113049E+03  0.12499150480E+03 0.  0.
    9000005    1    3    3    0    0  0.60350307746E+01 -0.20227846940E+02 -0.18150931183E+02  0.27857560753E+02  0.10000000000E+01 0.  0.
    9000005    1    3    3    0    0 -0.60350307746E+01  0.20227846940E+02 -0.75789900501E+03  0.75819356974E+03  0.10000000000E+01 0.  0.
<mgrwt>
<rscale>  0 0.12499150E+03</rscale>
<asrwt>0</asrwt>
<pdfrwt beam="2">  1        4 0.12016152E+00 0.12499150E+03</pdfrwt>
<pdfrwt beam="1">  1       -4 0.76932326E-03 0.12499150E+03</pdfrwt>
<totfact> 0.38902327E+03</totfact>
</mgrwt>
</event>
<event>
 5    1  0.3327068E-002  0.1249943E+03  0.7818608E-02  0.1235078E+00
          4   -1    0    0  501    0  0.00000000000E+00  0.00000000000E+00  0.24257728903E+03  0.24258061351E+03  0.12700000000E+01 0.  1.
         -4   -1    0    0    0  501 -0.00000000000E+00 -0.00000000000E+00 -0.16073159215E+02  0.16123254856E+02  0.12700000000E+01 0.  1.
         25    2    1    2    0    0  0.00000000000E+00  0.00000000000E+00  0.22650412981E+03  0.25870386837E+03  0.12499428262E+03 0.  0.
    9000005    1    3    3    0    0  0.16121580141E+02  0.54649377570E+02  0.16636111353E+03  0.17585073190E+03  0.10000000000E+01 0.  0.
    9000005    1    3    3    0    0 -0.16121580141E+02 -0.54649377570E+02  0.60143016280E+02  0.82853136466E+02  0.10000000000E+01 0.  0.
<mgrwt>
<rscale>  0 0.12499428E+03</rscale>
<asrwt>0</asrwt>
<pdfrwt beam="1">  1        4 0.37323688E-01 0.12499428E+03</pdfrwt>
<pdfrwt beam="2">  1       -4 0.24769032E-02 0.12499428E+03</pdfrwt>
<totfact> 0.81098623E+03</totfact>
</mgrwt>
</event>
<event>
 5    1  0.3327068E-002  0.1249992E+03  0.7818608E-02  0.1235070E+00
          4   -1    0    0  501    0  0.00000000000E+00  0.00000000000E+00  0.24707718622E+02  0.24740336689E+02  0.12700000000E+01 0.  1.
         -4   -1    0    0    0  501 -0.00000000000E+00 -0.00000000000E+00 -0.15795698862E+03  0.15796209404E+03  0.12700000000E+01 0.  1.
         25    2    1    2    0    0  0.00000000000E+00  0.00000000000E+00 -0.13324926999E+03  0.18270243073E+03  0.12499924096E+03 0.  0.
    9000005    1    3    3    0    0  0.25549319730E+02 -0.43352499988E+02 -0.12078374474E+03  0.13085075463E+03  0.10000000000E+01 0.  0.
    9000005    1    3    3    0    0 -0.25549319730E+02  0.43352499988E+02 -0.12465525250E+02  0.51851676093E+02  0.10000000000E+01 0.  0.
<mgrwt>
<rscale>  0 0.12499924E+03</rscale>
<asrwt>0</asrwt>
<pdfrwt beam="1">  1        4 0.38040894E-02 0.12499924E+03</pdfrwt>
<pdfrwt beam="2">  1       -4 0.24303976E-01 0.12499924E+03</pdfrwt>
<totfact> 0.93134391E+03</totfact>
</mgrwt>
</event>
<event>
 5    1  0.3327068E-002  0.1250026E+03  0.7818608E-02  0.1235065E+00
         -4   -1    0    0    0  501 -0.00000000000E+00  0.00000000000E+00  0.30886793263E+02  0.30912892101E+02  0.12700000000E+01 0. -1.
          4   -1    0    0  501    0  0.00000000000E+00 -0.00000000000E+00 -0.12639241735E+03  0.12639879771E+03  0.12700000000E+01 0. -1.
         25    2    1    2    0    0  0.00000000000E+00  0.00000000000E+00 -0.95505624086E+02  0.15731168981E+03  0.12500257405E+03 0.  0.
    9000005    1    3    3    0    0 -0.50661113455E+00 -0.48010340005E+02 -0.98094056306E+02  0.10921855742E+03  0.10000000000E+01 0.  0.
    9000005    1    3    3    0    0  0.50661113455E+00  0.48010340005E+02  0.25884322201E+01  0.48093132395E+02  0.10000000000E+01 0.  0.
<mgrwt>
<rscale>  0 0.12500257E+03</rscale>
<asrwt>0</asrwt>
<pdfrwt beam="2">  1        4 0.19447485E-01 0.12500257E+03</pdfrwt>
<pdfrwt beam="1">  1       -4 0.47543128E-02 0.12500257E+03</pdfrwt>
<totfact> 0.97857924E+03</totfact>
</mgrwt>
</event>
<event>
 4    1  0.3327068E-002  0.1250645E+03  0.7818608E-02  0.1234969E+00
          4   -1    0    0  501    0  0.00000000000E+00  0.00000000000E+00  0.36558313541E+02  0.36580366168E+02  0.12700000000E+01 0. -1.
         -4   -1    0    0    0  501 -0.00000000000E+00 -0.00000000000E+00 -0.10690203946E+03  0.10690958302E+03  0.12700000000E+01 0. -1.
    9000005    1    1    2    0    0 -0.22965089293E+02 -0.17493038280E+02 -0.98803361706E+02  0.10293933164E+03  0.10000000000E+01 0.  0.
    9000005    1    1    2    0    0  0.22965089293E+02  0.17493038280E+02  0.28459635783E+02  0.40550617546E+02  0.10000000000E+01 0.  0.
<mgrwt>
<rscale>  0 0.12506449E+03</rscale>
<asrwt>0</asrwt>
<pdfrwt beam="1">  1        4 0.56266326E-02 0.12506449E+03</pdfrwt>
<pdfrwt beam="2">  1       -4 0.16448744E-01 0.12506449E+03</pdfrwt>
<totfact> 0.10047161E+04</totfact>
</mgrwt>
</event>
<event>
 5    1  0.3327068E-002  0.1250019E+03  0.7818608E-02  0.1235066E+00
         -4   -1    0    0    0  501 -0.00000000000E+00  0.00000000000E+00  0.23064195088E+02  0.23099134076E+02  0.12700000000E+01 0.  1.
          4   -1    0    0  501    0  0.00000000000E+00 -0.00000000000E+00 -0.16920400457E+03  0.16920877064E+03  0.12700000000E+01 0.  1.
         25    2    1    2    0    0  0.00000000000E+00  0.00000000000E+00 -0.14613980948E+03  0.19230790472E+03  0.12500194519E+03 0.  0.
    9000005    1    3    3    0    0 -0.22929480378E+02 -0.44988826307E+02 -0.12971322597E+03  0.13919869451E+03  0.10000000000E+01 0.  0.
    9000005    1    3    3    0    0  0.22929480378E+02  0.44988826307E+02 -0.16426583514E+02  0.53109210207E+02  0.10000000000E+01 0.  0.
<mgrwt>
<rscale>  0 0.12500195E+03</rscale>
<asrwt>0</asrwt>
<pdfrwt beam="2">  1        4 0.26034439E-01 0.12500195E+03</pdfrwt>
<pdfrwt beam="1">  1       -4 0.35513921E-02 0.12500195E+03</pdfrwt>
<totfact> 0.91443307E+03</totfact>
</mgrwt>
</event>
<event>
 5    1  0.3327068E-002  0.1250004E+03  0.7818608E-02  0.1235069E+00
          4   -1    0    0  501    0  0.00000000000E+00  0.00000000000E+00  0.45705134482E+02  0.45722775703E+02  0.12700000000E+01 0.  1.
         -4   -1    0    0    0  501 -0.00000000000E+00 -0.00000000000E+00 -0.85428002224E+02  0.85437441815E+02  0.12700000000E+01 0.  1.
         25    2    1    2    0    0  0.00000000000E+00  0.00000000000E+00 -0.39722867742E+02  0.13116021752E+03  0.12500038575E+03 0.  0.
    9000005    1    3    3    0    0 -0.45924725416E+02  0.31028707474E+02 -0.50152943299E+02  0.74754122385E+02  0.10000000000E+01 0.  0.
    9000005    1    3    3    0    0  0.45924725416E+02 -0.31028707474E+02  0.10430075557E+02  0.56406095133E+02  0.10000000000E+01 0.  0.
<mgrwt>
<rscale>  0 0.12500039E+03</rscale>
<asrwt>0</asrwt>
<pdfrwt beam="1">  1        4 0.70336423E-02 0.12500039E+03</pdfrwt>
<pdfrwt beam="2">  1       -4 0.13144853E-01 0.12500039E+03</pdfrwt>
<totfact> 0.10319566E+04</totfact>
</mgrwt>
</event>
<event>
 5    1  0.3327068E-002  0.1250124E+03  0.7818608E-02  0.1235050E+00
         -4   -1    0    0    0  501 -0.00000000000E+00  0.00000000000E+00  0.11683309909E+02  0.11752133016E+02  0.12700000000E+01 0. -1.
          4   -1    0    0  501    0  0.00000000000E+00 -0.00000000000E+00 -0.33335895728E+03  0.33336137643E+03  0.12700000000E+01 0. -1.
         25    2    1    2    0    0  0.00000000000E+00  0.00000000000E+00 -0.32167564737E+03  0.34511350945E+03  0.12501244856E+03 0.  0.
    9000005    1    3    3    0    0  0.30587710425E+02  0.36161980683E+02 -0.48268586997E+02  0.67632487509E+02  0.10000000000E+01 0.  0.
    9000005    1    3    3    0    0 -0.30587710425E+02 -0.36161980683E+02 -0.27340706037E+03  0.27748102194E+03  0.10000000000E+01 0.  0.
<mgrwt>
<rscale>  0 0.12501245E+03</rscale>
<asrwt>0</asrwt>
<pdfrwt beam="2">  1        4 0.51291466E-01 0.12501245E+03</pdfrwt>
<pdfrwt beam="1">  1       -4 0.18029127E-02 0.12501245E+03</pdfrwt>
<totfact> 0.70246140E+03</totfact>
</mgrwt>
</event>
<event>
 5    1  0.3327068E-002  0.1250028E+03  0.7818608E-02  0.1235065E+00
         -4   -1    0    0    0  501 -0.00000000000E+00  0.00000000000E+00  0.12064170852E+03  0.12064839300E+03  0.12700000000E+01 0. -1.
          4   -1    0    0  501    0  0.00000000000E+00 -0.00000000000E+00 -0.32360343763E+02  0.32385255109E+02  0.12700000000E+01 0. -1.
         25    2    1    2    0    0  0.00000000000E+00  0.00000000000E+00  0.88281364754E+02  0.15303364811E+03  0.12500279233E+03 0.  0.
    9000005    1    3    3    0    0  0.47186962074E+02 -0.32901128904E+02  0.74036528914E+02  0.93763005960E+02  0.10000000000E+01 0.  0.
    9000005    1    3    3    0    0 -0.47186962074E+02  0.32901128904E+02  0.14244835839E+02  0.59270642151E+02  0.10000000000E+01 0.  0.
<mgrwt>
<rscale>  0 0.12500279E+03</rscale>
<asrwt>0</asrwt>
<pdfrwt beam="2">  1        4 0.49809449E-02 0.12500279E+03</pdfrwt>
<pdfrwt beam="1">  1       -4 0.18562693E-01 0.12500279E+03</pdfrwt>
<totfact> 0.98696187E+03</totfact>
</mgrwt>
</event>
<event>
 5    1  0.3327068E-002  0.1249980E+03  0.7818608E-02  0.1235072E+00
          4   -1    0    0  501    0  0.00000000000E+00  0.00000000000E+00  0.90403255144E+02  0.90412175289E+02  0.12700000000E+01 0.  1.
         -4   -1    0    0    0  501 -0.00000000000E+00 -0.00000000000E+00 -0.43187391547E+02  0.43206060786E+02  0.12700000000E+01 0.  1.
         25    2    1    2    0    0  0.00000000000E+00  0.00000000000E+00  0.47215863597E+02  0.13361823607E+03  0.12499798093E+03 0.  0.
    9000005    1    3    3    0    0 -0.17131642163E+02  0.57788246253E+02  0.41242559685E+02  0.73040559264E+02  0.10000000000E+01 0.  0.
    9000005    1    3    3    0    0  0.17131642163E+02 -0.57788246253E+02  0.59733039120E+01  0.60577676811E+02  0.10000000000E+01 0.  0.
<mgrwt>
<rscale>  0 0.12499798E+03</rscale>
<asrwt>0</asrwt>
<pdfrwt beam="1">  1        4 0.13910315E-01 0.12499798E+03</pdfrwt>
<pdfrwt beam="2">  1       -4 0.66463364E-02 0.12499798E+03</pdfrwt>
<totfact> 0.10267745E+04</totfact>
</mgrwt>
</event>
<event>
 5    1  0.3327068E-002  0.1249956E+03  0.7818608E-02  0.1235076E+00
          4   -1    0    0  501    0  0.00000000000E+00  0.00000000000E+00  0.33090514112E+02  0.33114876176E+02  0.12700000000E+01 0.  1.
         -4   -1    0    0    0  501 -0.00000000000E+00 -0.00000000000E+00 -0.11796795842E+03  0.11797479441E+03  0.12700000000E+01 0.  1.
         25    2    1    2    0    0  0.00000000000E+00  0.00000000000E+00 -0.84877444313E+02  0.15108967058E+03  0.12499563194E+03 0.  0.
    9000005    1    3    3    0    0 -0.12111056932E+02 -0.57963842886E+02 -0.66568307593E+02  0.89100080572E+02  0.10000000000E+01 0.  0.
    9000005    1    3    3    0    0  0.12111056932E+02  0.57963842886E+02 -0.18309136721E+02  0.61989590010E+02  0.10000000000E+01 0.  0.
<mgrwt>
<rscale>  0 0.12499563E+03</rscale>
<asrwt>0</asrwt>
<pdfrwt beam="1">  1        4 0.50932482E-02 0.12499563E+03</pdfrwt>
<pdfrwt beam="2">  1       -4 0.18151316E-01 0.12499563E+03</pdfrwt>
<totfact> 0.99096671E+03</totfact>
</mgrwt>
</event>
<event>
 5    1  0.3327068E-002  0.1250018E+03  0.7818608E-02  0.1235067E+00
          4   -1    0    0  501    0  0.00000000000E+00  0.00000000000E+00  0.94250124543E+01  0.95101924147E+01  0.12700000000E+01 0.  1.
         -4   -1    0    0    0  501 -0.00000000000E+00 -0.00000000000E+00 -0.41251678061E+03  0.41251873556E+03  0.12700000000E+01 0.  1.
         25    2    1    2    0    0  0.00000000000E+00  0.00000000000E+00 -0.40309176816E+03  0.42202892797E+03  0.12500176995E+03 0.  0.
    9000005    1    3    3    0    0 -0.36214025177E+02  0.50135845936E+02 -0.17129144414E+03  0.18211759251E+03  0.10000000000E+01 0.  0.
    9000005    1    3    3    0    0  0.36214025177E+02 -0.50135845936E+02 -0.23180032402E+03  0.23991133546E+03  0.10000000000E+01 0.  0.
<mgrwt>
<rscale>  0 0.12500177E+03</rscale>
<asrwt>0</asrwt>
<pdfrwt beam="1">  1        4 0.14567049E-02 0.12500177E+03</pdfrwt>
<pdfrwt beam="2">  1       -4 0.63470809E-01 0.12500177E+03</pdfrwt>
<totfact> 0.62462794E+03</totfact>
</mgrwt>
</event>
<event>
 5    1  0.3327068E-002  0.1249948E+03  0.7818608E-02  0.1235077E+00
          4   -1    0    0  501    0  0.00000000000E+00  0.00000000000E+00  0.16712375219E+02  0.16760560416E+02  0.12700000000E+01 0. -1.
         -4   -1    0    0    0  501 -0.00000000000E+00 -0.00000000000E+00 -0.23332835465E+03  0.23333181091E+03  0.12700000000E+01 0. -1.
         25    2    1    2    0    0  0.00000000000E+00  0.00000000000E+00 -0.21661597943E+03  0.25009237133E+03  0.12499484650E+03 0.  0.
    9000005    1    3    3    0    0  0.61677852987E+02  0.18084860265E+01 -0.88551486917E+02  0.10793421147E+03  0.10000000000E+01 0.  0.
    9000005    1    3    3    0    0 -0.61677852987E+02 -0.18084860265E+01 -0.12806449251E+03  0.14215815986E+03  0.10000000000E+01 0.  0.
<mgrwt>
<rscale>  0 0.12499485E+03</rscale>
<asrwt>0</asrwt>
<pdfrwt beam="1">  1        4 0.25751072E-02 0.12499485E+03</pdfrwt>
<pdfrwt beam="2">  1       -4 0.35900640E-01 0.12499485E+03</pdfrwt>
<totfact> 0.82326331E+03</totfact>
</mgrwt>
</event>
<event>
 5    1  0.3327068E-002  0.1250063E+03  0.7818608E-02  0.1235059E+00
          4   -1    0    0  501    0  0.00000000000E+00  0.00000000000E+00  0.21724059376E+02  0.21761150148E+02  0.12700000000E+01 0.  1.
         -4   -1    0    0    0  501 -0.00000000000E+00 -0.00000000000E+00 -0.17963753826E+03  0.17964202752E+03  0.12700000000E+01 0.  1.
         25    2    1    2    0    0  0.00000000000E+00  0.00000000000E+00 -0.15791347888E+03  0.20140317767E+03  0.12500629249E+03 0.  0.
    9000005    1    3    3    0    0 -0.53384961306E+02 -0.13537198630E+02 -0.12654508405E+03  0.13801401428E+03  0.10000000000E+01 0.  0.
    9000005    1    3    3    0    0  0.53384961306E+02  0.13537198630E+02 -0.31368394825E+02  0.63389163382E+02  0.10000000000E+01 0.  0.
<mgrwt>
<rscale>  0 0.12500629E+03</rscale>
<asrwt>0</asrwt>
<pdfrwt beam="1">  1        4 0.33453616E-02 0.12500629E+03</pdfrwt>
<pdfrwt beam="2">  1       -4 0.27639742E-01 0.12500629E+03</pdfrwt>
<totfact> 0.89886732E+03</totfact>
</mgrwt>
</event>
<event>
 5    1  0.3327068E-002  0.1250002E+03  0.7818608E-02  0.1235069E+00
          4   -1    0    0  501    0  0.00000000000E+00  0.00000000000E+00  0.59307340689E+02  0.59320936941E+02  0.12700000000E+01 0. -1.
         -4   -1    0    0    0  501 -0.00000000000E+00 -0.00000000000E+00 -0.65837485092E+02  0.65849733054E+02  0.12700000000E+01 0. -1.
         25    2    1    2    0    0  0.00000000000E+00  0.00000000000E+00 -0.65301444031E+01  0.12517066999E+03  0.12500021536E+03 0.  0.
    9000005    1    3    3    0    0  0.53656803720E+02 -0.19784050016E+02 -0.28494711456E+02  0.63901563372E+02  0.10000000000E+01 0.  0.
    9000005    1    3    3    0    0 -0.53656803720E+02  0.19784050016E+02  0.21964567053E+02  0.61269106622E+02  0.10000000000E+01 0.  0.
<mgrwt>
<rscale>  0 0.12500022E+03</rscale>
<asrwt>0</asrwt>
<pdfrwt beam="1">  1        4 0.91261942E-02 0.12500022E+03</pdfrwt>
<pdfrwt beam="2">  1       -4 0.10130832E-01 0.12500022E+03</pdfrwt>
<totfact> 0.10449106E+04</totfact>
</mgrwt>
</event>
<event>
 5    1  0.3327068E-002  0.1249993E+03  0.7818608E-02  0.1235070E+00
         -4   -1    0    0    0  501 -0.00000000000E+00  0.00000000000E+00  0.12866236550E+03  0.12866863330E+03  0.12700000000E+01 0. -1.
          4   -1    0    0  501    0  0.00000000000E+00 -0.00000000000E+00 -0.30339820900E+02  0.30366389845E+02  0.12700000000E+01 0. -1.
         25    2    1    2    0    0  0.00000000000E+00  0.00000000000E+00  0.98322544598E+02  0.15903502315E+03  0.12499926324E+03 0.  0.
    9000005    1    3    3    0    0  0.58089242720E+02  0.18632001569E+02  0.66404988195E+02  0.90178345845E+02  0.10000000000E+01 0.  0.
    9000005    1    3    3    0    0 -0.58089242720E+02 -0.18632001569E+02  0.31917556404E+02  0.68856677302E+02  0.10000000000E+01 0.  0.
<mgrwt>
<rscale>  0 0.12499926E+03</rscale>
<asrwt>0</asrwt>
<pdfrwt beam="2">  1        4 0.46701907E-02 0.12499926E+03</pdfrwt>
<pdfrwt beam="1">  1       -4 0.19796736E-01 0.12499926E+03</pdfrwt>
<totfact> 0.97530763E+03</totfact>
</mgrwt>
</event>
<event>
 5    1  0.3327068E-002  0.1249963E+03  0.7818608E-02  0.1235075E+00
         -4   -1    0    0    0  501 -0.00000000000E+00  0.00000000000E+00  0.29599228047E+02  0.29626461162E+02  0.12700000000E+01 0.  1.
          4   -1    0    0  501    0  0.00000000000E+00 -0.00000000000E+00 -0.13187249641E+03  0.13187861164E+03  0.12700000000E+01 0.  1.
         25    2    1    2    0    0  0.00000000000E+00  0.00000000000E+00 -0.10227326836E+03  0.16150507281E+03  0.12499626843E+03 0.  0.
    9000005    1    3    3    0    0 -0.34789078430E+02 -0.37674433962E+02 -0.97279851275E+02  0.10997278034E+03  0.10000000000E+01 0.  0.
    9000005    1    3    3    0    0  0.34789078430E+02  0.37674433962E+02 -0.49934170868E+01  0.51532292463E+02  0.10000000000E+01 0.  0.
<mgrwt>
<rscale>  0 0.12499627E+03</rscale>
<asrwt>0</asrwt>
<pdfrwt beam="2">  1        4 0.20290641E-01 0.12499627E+03</pdfrwt>
<pdfrwt beam="1">  1       -4 0.45562927E-02 0.12499627E+03</pdfrwt>
<totfact> 0.97061541E+03</totfact>
</mgrwt>
</event>
<event>
 5    1  0.3327068E-002  0.1250015E+03  0.7818608E-02  0.1235067E+00
         -4   -1    0    0    0  501 -0.00000000000E+00  0.00000000000E+00  0.96878615277E+02  0.96886939254E+02  0.12700000000E+01 0.  1.
          4   -1    0    0  501    0  0.00000000000E+00 -0.00000000000E+00 -0.40301968143E+02  0.40321973367E+02  0.12700000000E+01 0.  1.
         25    2    1    2    0    0  0.00000000000E+00  0.00000000000E+00  0.56576647134E+02  0.13720891262E+03  0.12500147480E+03 0.  0.
    9000005    1    3    3    0    0 -0.46567648283E+02  0.74755591381E+01  0.73291142284E+02  0.87160893687E+02  0.10000000000E+01 0.  0.
    9000005    1    3    3    0    0  0.46567648283E+02 -0.74755591381E+01 -0.16714495150E+02  0.50048018934E+02  0.10000000000E+01 0.  0.
<mgrwt>
<rscale>  0 0.12500147E+03</rscale>
<asrwt>0</asrwt>
<pdfrwt beam="2">  1        4 0.62024821E-02 0.12500147E+03</pdfrwt>
<pdfrwt beam="1">  1       -4 0.14906581E-01 0.12500147E+03</pdfrwt>
<totfact> 0.10191381E+04</totfact>
</mgrwt>
</event>
<event>
 5    1  0.3327068E-002  0.1250007E+03  0.7818608E-02  0.1235068E+00
         -4   -1    0    0    0  501 -0.00000000000E+00  0.00000000000E+00  0.64513685475E+02  0.64526184713E+02  0.12700000000E+01 0.  1.
          4   -1    0    0  501    0  0.00000000000E+00 -0.00000000000E+00 -0.60524818022E+02  0.60538140841E+02  0.12700000000E+01 0.  1.
         25    2    1    2    0    0  0.00000000000E+00  0.00000000000E+00  0.39888674537E+01  0.12506432555E+03  0.12500069785E+03 0.  0.
    9000005    1    3    3    0    0  0.49231303514E+02 -0.35253189013E+02 -0.13466102757E+02  0.62039056286E+02  0.10000000000E+01 0.  0.
    9000005    1    3    3    0    0 -0.49231303514E+02  0.35253189013E+02  0.17454970211E+02  0.63025269269E+02  0.10000000000E+01 0.  0.
<mgrwt>
<rscale>  0 0.12500070E+03</rscale>
<asrwt>0</asrwt>
<pdfrwt beam="2">  1        4 0.93134968E-02 0.12500070E+03</pdfrwt>
<pdfrwt beam="1">  1       -4 0.99271687E-02 0.12500070E+03</pdfrwt>
<totfact> 0.10451301E+04</totfact>
</mgrwt>
</event>
<event>
 5    1  0.3327068E-002  0.1249994E+03  0.7818608E-02  0.1235070E+00
          4   -1    0    0  501    0  0.00000000000E+00  0.00000000000E+00  0.54663006188E+02  0.54677757320E+02  0.12700000000E+01 0. -1.
         -4   -1    0    0    0  501 -0.00000000000E+00 -0.00000000000E+00 -0.71429813929E+02  0.71441103141E+02  0.12700000000E+01 0. -1.
         25    2    1    2    0    0  0.00000000000E+00  0.00000000000E+00 -0.16766807741E+02  0.12611886046E+03  0.12499936449E+03 0.  0.
    9000005    1    3    3    0    0  0.18439843602E+02 -0.37108337089E+02 -0.55580051503E+02  0.69333964538E+02  0.10000000000E+01 0.  0.
    9000005    1    3    3    0    0 -0.18439843602E+02  0.37108337089E+02  0.38813243761E+02  0.56784895922E+02  0.10000000000E+01 0.  0.
<mgrwt>
<rscale>  0 0.12499936E+03</rscale>
<asrwt>0</asrwt>
<pdfrwt beam="1">  1        4 0.84116964E-02 0.12499936E+03</pdfrwt>
<pdfrwt beam="2">  1       -4 0.10991205E-01 0.12499936E+03</pdfrwt>
<totfact> 0.10428503E+04</totfact>
</mgrwt>
</event>
<event>
 5    1  0.3327068E-002  0.1250045E+03  0.7818608E-02  0.1235062E+00
         -4   -1    0    0    0  501 -0.00000000000E+00  0.00000000000E+00  0.63404678905E+02  0.63417396723E+02  0.12700000000E+01 0. -1.
          4   -1    0    0  501    0  0.00000000000E+00 -0.00000000000E+00 -0.61587246731E+02  0.61600339771E+02  0.12700000000E+01 0. -1.
         25    2    1    2    0    0  0.00000000000E+00  0.00000000000E+00  0.18174321745E+01  0.12501773649E+03  0.12500452543E+03 0.  0.
    9000005    1    3    3    0    0  0.44968841185E+02 -0.76250829676E+01 -0.41818091508E+02  0.61887731782E+02  0.10000000000E+01 0.  0.
    9000005    1    3    3    0    0 -0.44968841185E+02  0.76250829676E+01  0.43635523683E+02  0.63130004711E+02  0.10000000000E+01 0.  0.
<mgrwt>
<rscale>  0 0.12500453E+03</rscale>
<asrwt>0</asrwt>
<pdfrwt beam="2">  1        4 0.94769466E-02 0.12500453E+03</pdfrwt>
<pdfrwt beam="1">  1       -4 0.97565514E-02 0.12500453E+03</pdfrwt>
<totfact> 0.10451408E+04</totfact>
</mgrwt>
</event>
<event>
 5    1  0.3327068E-002  0.1250042E+03  0.7818608E-02  0.1235063E+00
         -4   -1    0    0    0  501 -0.00000000000E+00  0.00000000000E+00  0.10691516428E+04  0.10691523971E+04  0.12700000000E+01 0. -1.
          4   -1    0    0  501    0  0.00000000000E+00 -0.00000000000E+00 -0.35427095793E+01  0.37634679703E+01  0.12700000000E+01 0. -1.
         25    2    1    2    0    0  0.00000000000E+00  0.00000000000E+00  0.10656089332E+04  0.10729158651E+04  0.12500421968E+03 0.  0.
    9000005    1    3    3    0    0 -0.30931043285E+02  0.40770818129E+02  0.22494674176E+03  0.23069682632E+03  0.10000000000E+01 0.  0.
    9000005    1    3    3    0    0  0.30931043285E+02 -0.40770818129E+02  0.84066219146E+03  0.84221903873E+03  0.10000000000E+01 0.  0.
<mgrwt>
<rscale>  0 0.12500422E+03</rscale>
<asrwt>0</asrwt>
<pdfrwt beam="2">  1        4 0.56207123E-03 0.12500422E+03</pdfrwt>
<pdfrwt beam="1">  1       -4 0.16450204E+00 0.12500422E+03</pdfrwt>
<totfact> 0.28287269E+03</totfact>
</mgrwt>
</event>
<event>
 5    1  0.3327068E-002  0.1250001E+03  0.7818608E-02  0.1235069E+00
          4   -1    0    0  501    0  0.00000000000E+00  0.00000000000E+00  0.10971035034E+03  0.10971770082E+03  0.12700000000E+01 0. -1.
         -4   -1    0    0    0  501 -0.00000000000E+00 -0.00000000000E+00 -0.35585310720E+02  0.35607965949E+02  0.12700000000E+01 0. -1.
         25    2    1    2    0    0  0.00000000000E+00  0.00000000000E+00  0.74125039622E+02  0.14532566676E+03  0.12500011169E+03 0.  0.
    9000005    1    3    3    0    0  0.36558290478E+02 -0.17614657061E+02 -0.18188373095E+02  0.44481475491E+02  0.10000000000E+01 0.  0.
    9000005    1    3    3    0    0 -0.36558290478E+02  0.17614657061E+02  0.92313412718E+02  0.10084419127E+03  0.10000000000E+01 0.  0.
<mgrwt>
<rscale>  0 0.12500011E+03</rscale>
<asrwt>0</asrwt>
<pdfrwt beam="1">  1        4 0.16880824E-01 0.12500011E+03</pdfrwt>
<pdfrwt beam="2">  1       -4 0.54769713E-02 0.12500011E+03</pdfrwt>
<totfact> 0.10024351E+04</totfact>
</mgrwt>
</event>
<event>
 4    1  0.3327068E-002  0.1251143E+03  0.7818608E-02  0.1234891E+00
          4   -1    0    0  501    0  0.00000000000E+00  0.00000000000E+00  0.11062053138E+02  0.11134716864E+02  0.12700000000E+01 0. -1.
         -4   -1    0    0    0  501 -0.00000000000E+00 -0.00000000000E+00 -0.35253550764E+03  0.35253779521E+03  0.12700000000E+01 0. -1.
    9000005    1    1    2    0    0  0.50669528721E+01 -0.57839763508E+02 -0.10311046634E+03  0.11833799273E+03  0.10000000000E+01 0.  0.
    9000005    1    1    2    0    0 -0.50669528721E+01  0.57839763508E+02 -0.23836298817E+03  0.24533451935E+03  0.10000000000E+01 0.  0.
<mgrwt>
<rscale>  0 0.12511425E+03</rscale>
<asrwt>0</asrwt>
<pdfrwt beam="1">  1        4 0.17076201E-02 0.12511425E+03</pdfrwt>
<pdfrwt beam="2">  1       -4 0.54241989E-01 0.12511425E+03</pdfrwt>
<totfact> 0.68074004E+03</totfact>
</mgrwt>
</event>
<event>
 5    1  0.3327068E-002  0.1249877E+03  0.7818608E-02  0.1235088E+00
          4   -1    0    0  501    0  0.00000000000E+00  0.00000000000E+00  0.26705954596E+02  0.26736134928E+02  0.12700000000E+01 0. -1.
         -4   -1    0    0    0  501 -0.00000000000E+00 -0.00000000000E+00 -0.14612461225E+03  0.14613013107E+03  0.12700000000E+01 0. -1.
         25    2    1    2    0    0  0.00000000000E+00  0.00000000000E+00 -0.11941865766E+03  0.17286626600E+03  0.12498771989E+03 0.  0.
    9000005    1    3    3    0    0 -0.59441271409E+01 -0.62202429668E+02 -0.59588544452E+02  0.86349693306E+02  0.10000000000E+01 0.  0.
    9000005    1    3    3    0    0  0.59441271409E+01  0.62202429668E+02 -0.59830113205E+02  0.86516572691E+02  0.10000000000E+01 0.  0.
<mgrwt>
<rscale>  0 0.12498772E+03</rscale>
<asrwt>0</asrwt>
<pdfrwt beam="1">  1        4 0.41113546E-02 0.12498772E+03</pdfrwt>
<pdfrwt beam="2">  1       -4 0.22483455E-01 0.12498772E+03</pdfrwt>
<totfact> 0.94943247E+03</totfact>
</mgrwt>
</event>
<event>
 5    1  0.3327068E-002  0.1249983E+03  0.7818608E-02  0.1235072E+00
         -4   -1    0    0    0  501 -0.00000000000E+00  0.00000000000E+00  0.31624447387E+02  0.31649937954E+02  0.12700000000E+01 0.  1.
          4   -1    0    0  501    0  0.00000000000E+00 -0.00000000000E+00 -0.12343809579E+03  0.12344462885E+03  0.12700000000E+01 0.  1.
         25    2    1    2    0    0  0.00000000000E+00  0.00000000000E+00 -0.91813648406E+02  0.15509456681E+03  0.12499831447E+03 0.  0.
    9000005    1    3    3    0    0  0.32508844109E+02 -0.53252389639E+02 -0.50294095195E+02  0.80144481775E+02  0.10000000000E+01 0.  0.
    9000005    1    3    3    0    0 -0.32508844109E+02  0.53252389639E+02 -0.41519553211E+02  0.74950085033E+02  0.10000000000E+01 0.  0.
<mgrwt>
<rscale>  0 0.12499831E+03</rscale>
<asrwt>0</asrwt>
<pdfrwt beam="2">  1        4 0.18992939E-01 0.12499831E+03</pdfrwt>
<pdfrwt beam="1">  1       -4 0.48677630E-02 0.12499831E+03</pdfrwt>
<totfact> 0.98300664E+03</totfact>
</mgrwt>
</event>
<event>
 5    1  0.3327068E-002  0.1249963E+03  0.7818608E-02  0.1235075E+00
          4   -1    0    0  501    0  0.00000000000E+00  0.00000000000E+00  0.10494626997E+03  0.10495395410E+03  0.12700000000E+01 0. -1.
         -4   -1    0    0    0  501 -0.00000000000E+00 -0.00000000000E+00 -0.37199326989E+02  0.37220999831E+02  0.12700000000E+01 0. -1.
         25    2    1    2    0    0  0.00000000000E+00  0.00000000000E+00  0.67746942980E+02  0.14217495393E+03  0.12499627691E+03 0.  0.
    9000005    1    3    3    0    0  0.45801425895E+02  0.17213781466E+02 -0.10339381403E+02  0.50019872992E+02  0.10000000000E+01 0.  0.
    9000005    1    3    3    0    0 -0.45801425895E+02 -0.17213781466E+02  0.78086324384E+02  0.92155080935E+02  0.10000000000E+01 0.  0.
<mgrwt>
<rscale>  0 0.12499628E+03</rscale>
<asrwt>0</asrwt>
<pdfrwt beam="1">  1        4 0.16147838E-01 0.12499628E+03</pdfrwt>
<pdfrwt beam="2">  1       -4 0.57252316E-02 0.12499628E+03</pdfrwt>
<totfact> 0.10089552E+04</totfact>
</mgrwt>
</event>
<event>
 5    1  0.3327068E-002  0.1250009E+03  0.7818608E-02  0.1235068E+00
          4   -1    0    0  501    0  0.00000000000E+00  0.00000000000E+00  0.25688955042E+02  0.25720328752E+02  0.12700000000E+01 0.  1.
         -4   -1    0    0    0  501 -0.00000000000E+00 -0.00000000000E+00 -0.15193487098E+03  0.15194017876E+03  0.12700000000E+01 0.  1.
         25    2    1    2    0    0  0.00000000000E+00  0.00000000000E+00 -0.12624591594E+03  0.17766050751E+03  0.12500089854E+03 0.  0.
    9000005    1    3    3    0    0  0.61988261304E+02  0.57616628789E+00 -0.51893126966E+02  0.80850313131E+02  0.10000000000E+01 0.  0.
    9000005    1    3    3    0    0 -0.61988261304E+02 -0.57616628789E+00 -0.74352788977E+02  0.96810194379E+02  0.10000000000E+01 0.  0.
<mgrwt>
<rscale>  0 0.12500090E+03</rscale>
<asrwt>0</asrwt>
<pdfrwt beam="1">  1        4 0.39549687E-02 0.12500090E+03</pdfrwt>
<pdfrwt beam="2">  1       -4 0.23377417E-01 0.12500090E+03</pdfrwt>
<totfact> 0.94037928E+03</totfact>
</mgrwt>
</event>
<event>
 5    1  0.3327068E-002  0.1250017E+03  0.7818608E-02  0.1235067E+00
         -4   -1    0    0    0  501 -0.00000000000E+00  0.00000000000E+00  0.18744808539E+02  0.18787781859E+02  0.12700000000E+01 0.  1.
          4   -1    0    0  501    0  0.00000000000E+00 -0.00000000000E+00 -0.20811305765E+03  0.20811693267E+03  0.12700000000E+01 0.  1.
         25    2    1    2    0    0  0.00000000000E+00  0.00000000000E+00 -0.18936824911E+03  0.22690471453E+03  0.12500166281E+03 0.  0.
    9000005    1    3    3    0    0 -0.21402791142E+02 -0.38257572081E+02 -0.17553009004E+03  0.18092411061E+03  0.10000000000E+01 0.  0.
    9000005    1    3    3    0    0  0.21402791142E+02  0.38257572081E+02 -0.13838159068E+02  0.45980603918E+02  0.10000000000E+01 0.  0.
<mgrwt>
<rscale>  0 0.12500166E+03</rscale>
<asrwt>0</asrwt>
<pdfrwt beam="2">  1        4 0.32020996E-01 0.12500166E+03</pdfrwt>
<pdfrwt beam="1">  1       -4 0.28874206E-02 0.12500166E+03</pdfrwt>
<totfact> 0.85783975E+03</totfact>
</mgrwt>
</event>
<event>
 5    1  0.3327068E-002  0.1249856E+03  0.7818608E-02  0.1235092E+00
         -4   -1    0    0    0  501 -0.00000000000E+00  0.00000000000E+00  0.93593260253E+02  0.93601876396E+02  0.12700000000E+01 0.  1.
          4   -1    0    0  501    0  0.00000000000E+00 -0.00000000000E+00 -0.41706620036E+02  0.41725951815E+02  0.12700000000E+01 0.  1.
         25    2    1    2    0    0  0.00000000000E+00  0.00000000000E+00  0.51886640217E+02  0.13532782821E+03  0.12498558979E+03 0.  0.
    9000005    1    3    3    0    0 -0.22928629656E+02 -0.57037266896E+02  0.13819568159E+02  0.63015492833E+02  0.10000000000E+01 0.  0.
    9000005    1    3    3    0    0  0.22928629656E+02  0.57037266896E+02  0.38067072058E+02  0.72312335379E+02  0.10000000000E+01 0.  0.
<mgrwt>
<rscale>  0 0.12498559E+03</rscale>
<asrwt>0</asrwt>
<pdfrwt beam="2">  1        4 0.64185529E-02 0.12498559E+03</pdfrwt>
<pdfrwt beam="1">  1       -4 0.14401113E-01 0.12498559E+03</pdfrwt>
<totfact> 0.10234491E+04</totfact>
</mgrwt>
</event>
<event>
 5    1  0.3327068E-002  0.1250054E+03  0.7818608E-02  0.1235061E+00
         -4   -1    0    0    0  501 -0.00000000000E+00  0.00000000000E+00  0.23165011091E+02  0.23199798250E+02  0.12700000000E+01 0. -1.
          4   -1    0    0  501    0  0.00000000000E+00 -0.00000000000E+00 -0.16847788457E+03  0.16848267119E+03  0.12700000000E+01 0. -1.
         25    2    1    2    0    0  0.00000000000E+00  0.00000000000E+00 -0.14531287348E+03  0.19168246944E+03  0.12500535144E+03 0.  0.
    9000005    1    3    3    0    0 -0.47079063755E+02  0.51385796996E+01 -0.10129648265E+02  0.48440200447E+02  0.10000000000E+01 0.  0.
    9000005    1    3    3    0    0  0.47079063755E+02 -0.51385796996E+01 -0.13518322522E+03  0.14324226899E+03  0.10000000000E+01 0.  0.
<mgrwt>
<rscale>  0 0.12500535E+03</rscale>
<asrwt>0</asrwt>
<pdfrwt beam="2">  1        4 0.25922718E-01 0.12500535E+03</pdfrwt>
<pdfrwt beam="1">  1       -4 0.35668921E-02 0.12500535E+03</pdfrwt>
<totfact> 0.91544420E+03</totfact>
</mgrwt>
</event>
<event>
 5    1  0.3327068E-002  0.1250032E+03  0.7818608E-02  0.1235064E+00
         -4   -1    0    0    0  501 -0.00000000000E+00  0.00000000000E+00  0.19994659258E+03  0.19995062586E+03  0.12700000000E+01 0.  1.
          4   -1    0    0  501    0  0.00000000000E+00 -0.00000000000E+00 -0.19512607901E+02  0.19553893911E+02  0.12700000000E+01 0.  1.
         25    2    1    2    0    0  0.00000000000E+00  0.00000000000E+00  0.18043398468E+03  0.21950451977E+03  0.12500324546E+03 0.  0.
    9000005    1    3    3    0    0  0.55824557921E+02  0.52105178222E-01  0.13954341628E+03  0.15029886563E+03  0.10000000000E+01 0.  0.
    9000005    1    3    3    0    0 -0.55824557921E+02 -0.52105178222E-01  0.40890568398E+02  0.69205654147E+02  0.10000000000E+01 0.  0.
<mgrwt>
<rscale>  0 0.12500325E+03</rscale>
<asrwt>0</asrwt>
<pdfrwt beam="2">  1        4 0.30054255E-02 0.12500325E+03</pdfrwt>
<pdfrwt beam="1">  1       -4 0.30764503E-01 0.12500325E+03</pdfrwt>
<totfact> 0.86940508E+03</totfact>
</mgrwt>
</event>
<event>
 5    1  0.3327068E-002  0.1250029E+03  0.7818608E-02  0.1235065E+00
         -4   -1    0    0    0  501 -0.00000000000E+00  0.00000000000E+00  0.92060928597E+01  0.92932796010E+01  0.12700000000E+01 0.  1.
          4   -1    0    0  501    0  0.00000000000E+00 -0.00000000000E+00 -0.42224294284E+03  0.42224485275E+03  0.12700000000E+01 0.  1.
         25    2    1    2    0    0  0.00000000000E+00  0.00000000000E+00 -0.41303684998E+03  0.43153813236E+03  0.12500288091E+03 0.  0.
    9000005    1    3    3    0    0 -0.52332370700E+02 -0.25532153597E+02 -0.28485140456E+03  0.29074368535E+03  0.10000000000E+01 0.  0.
    9000005    1    3    3    0    0  0.52332370700E+02  0.25532153597E+02 -0.12818544542E+03  0.14079444700E+03  0.10000000000E+01 0.  0.
<mgrwt>
<rscale>  0 0.12500288E+03</rscale>
<asrwt>0</asrwt>
<pdfrwt beam="2">  1        4 0.64967291E-01 0.12500288E+03</pdfrwt>
<pdfrwt beam="1">  1       -4 0.14231759E-02 0.12500288E+03</pdfrwt>
<totfact> 0.61592911E+03</totfact>
</mgrwt>
</event>
<event>
 5    1  0.3327068E-002  0.1250004E+03  0.7818608E-02  0.1235069E+00
         -4   -1    0    0    0  501 -0.00000000000E+00  0.00000000000E+00  0.20321151786E+03  0.20321548635E+03  0.12700000000E+01 0. -1.
          4   -1    0    0  501    0  0.00000000000E+00 -0.00000000000E+00 -0.19197553319E+02  0.19239515416E+02  0.12700000000E+01 0. -1.
         25    2    1    2    0    0  0.00000000000E+00  0.00000000000E+00  0.18401396454E+03  0.22245500177E+03  0.12500035465E+03 0.  0.
    9000005    1    3    3    0    0  0.17226940385E+02  0.59749235510E+02  0.80959827914E+02  0.10208933517E+03  0.10000000000E+01 0.  0.
    9000005    1    3    3    0    0 -0.17226940385E+02 -0.59749235510E+02  0.10305413663E+03  0.12036566660E+03  0.10000000000E+01 0.  0.
<mgrwt>
<rscale>  0 0.12500035E+03</rscale>
<asrwt>0</asrwt>
<pdfrwt beam="2">  1        4 0.29570030E-02 0.12500035E+03</pdfrwt>
<pdfrwt beam="1">  1       -4 0.31266842E-01 0.12500035E+03</pdfrwt>
<totfact> 0.86480678E+03</totfact>
</mgrwt>
</event>
<event>
 5    1  0.3327068E-002  0.1250024E+03  0.7818608E-02  0.1235066E+00
         -4   -1    0    0    0  501 -0.00000000000E+00  0.00000000000E+00  0.28525203251E+02  0.28553460745E+02  0.12700000000E+01 0. -1.
          4   -1    0    0  501    0  0.00000000000E+00 -0.00000000000E+00 -0.13684657255E+03  0.13685246552E+03  0.12700000000E+01 0. -1.
         25    2    1    2    0    0  0.00000000000E+00  0.00000000000E+00 -0.10832136930E+03  0.16540592627E+03  0.12500240556E+03 0.  0.
    9000005    1    3    3    0    0 -0.61212080380E+02 -0.59067717208E+01 -0.68871176522E+02  0.92336599960E+02  0.10000000000E+01 0.  0.
    9000005    1    3    3    0    0  0.61212080380E+02  0.59067717208E+01 -0.39450192777E+02  0.73069326306E+02  0.10000000000E+01 0.  0.
<mgrwt>
<rscale>  0 0.12500241E+03</rscale>
<asrwt>0</asrwt>
<pdfrwt beam="2">  1        4 0.21055945E-01 0.12500241E+03</pdfrwt>
<pdfrwt beam="1">  1       -4 0.43911199E-02 0.12500241E+03</pdfrwt>
<totfact> 0.96305367E+03</totfact>
</mgrwt>
</event>
<event>
 5    1  0.3327068E-002  0.1250223E+03  0.7818608E-02  0.1235035E+00
         -4   -1    0    0    0  501 -0.00000000000E+00  0.00000000000E+00  0.33406420587E+02  0.33430552440E+02  0.12700000000E+01 0.  1.
          4   -1    0    0  501    0  0.00000000000E+00 -0.00000000000E+00 -0.11690293990E+03  0.11690983815E+03  0.12700000000E+01 0.  1.
         25    2    1    2    0    0  0.00000000000E+00  0.00000000000E+00 -0.83496519311E+02  0.15034039059E+03  0.12502225524E+03 0.  0.
    9000005    1    3    3    0    0  0.11400098455E+02  0.60508357596E+02 -0.28829400499E+02  0.67995278637E+02  0.10000000000E+01 0.  0.
    9000005    1    3    3    0    0 -0.11400098455E+02 -0.60508357596E+02 -0.54667118811E+02  0.82345111955E+02  0.10000000000E+01 0.  0.
<mgrwt>
<rscale>  0 0.12502226E+03</rscale>
<asrwt>0</asrwt>
<pdfrwt beam="2">  1        4 0.17987454E-01 0.12502226E+03</pdfrwt>
<pdfrwt beam="1">  1       -4 0.51418363E-02 0.12502226E+03</pdfrwt>
<totfact> 0.99186204E+03</totfact>
</mgrwt>
</event>
<event>
 5    1  0.3327068E-002  0.1250001E+03  0.7818608E-02  0.1235069E+00
         -4   -1    0    0    0  501 -0.00000000000E+00  0.00000000000E+00  0.90205434064E+03  0.90205523465E+03  0.12700000000E+01 0.  1.
          4   -1    0    0  501    0  0.00000000000E+00 -0.00000000000E+00 -0.42363695516E+01  0.44226380112E+01  0.12700000000E+01 0.  1.
         25    2    1    2    0    0  0.00000000000E+00  0.00000000000E+00  0.89781797109E+03  0.90647787266E+03  0.12500009769E+03 0.  0.
    9000005    1    3    3    0    0 -0.21527648168E+02 -0.58460300201E+02  0.41322756045E+03  0.41789838843E+03  0.10000000000E+01 0.  0.
    9000005    1    3    3    0    0  0.21527648168E+02  0.58460300201E+02  0.48459041063E+03  0.48857948423E+03  0.10000000000E+01 0.  0.
<mgrwt>
<rscale>  0 0.12500010E+03</rscale>
<asrwt>0</asrwt>
<pdfrwt beam="2">  1        4 0.66614675E-03 0.12500010E+03</pdfrwt>
<pdfrwt beam="1">  1       -4 0.13879189E+00 0.12500010E+03</pdfrwt>
<totfact> 0.33913035E+03</totfact>
</mgrwt>
</event>
<event>
 5    1  0.3327068E-002  0.1249954E+03  0.7818608E-02  0.1235076E+00
         -4   -1    0    0    0  501 -0.00000000000E+00  0.00000000000E+00  0.21685080606E+02  0.21722237935E+02  0.12700000000E+01 0.  1.
          4   -1    0    0  501    0  0.00000000000E+00 -0.00000000000E+00 -0.17992863386E+03  0.17993311585E+03  0.12700000000E+01 0.  1.
         25    2    1    2    0    0  0.00000000000E+00  0.00000000000E+00 -0.15824355325E+03  0.20165535379E+03  0.12499543818E+03 0.  0.
    9000005    1    3    3    0    0  0.59330794337E+02 -0.73584956159E+01 -0.10845878331E+03  0.12384909484E+03  0.10000000000E+01 0.  0.
    9000005    1    3    3    0    0 -0.59330794337E+02  0.73584956159E+01 -0.49784769936E+02  0.77806258951E+02  0.10000000000E+01 0.  0.
<mgrwt>
<rscale>  0 0.12499544E+03</rscale>
<asrwt>0</asrwt>
<pdfrwt beam="2">  1        4 0.27684530E-01 0.12499544E+03</pdfrwt>
<pdfrwt beam="1">  1       -4 0.33393694E-02 0.12499544E+03</pdfrwt>
<totfact> 0.89866239E+03</totfact>
</mgrwt>
</event>
<event>
 5    1  0.3327068E-002  0.1249989E+03  0.7818608E-02  0.1235071E+00
          4   -1    0    0  501    0  0.00000000000E+00  0.00000000000E+00  0.16552505006E+04  0.16552509878E+04  0.12700000000E+01 0. -1.
         -4   -1    0    0    0  501 -0.00000000000E+00 -0.00000000000E+00 -0.21884849035E+01  0.25302897409E+01  0.12700000000E+01 0. -1.
         25    2    1    2    0    0  0.00000000000E+00  0.00000000000E+00  0.16530620157E+04  0.16577812775E+04  0.12499894579E+03 0.  0.
    9000005    1    3    3    0    0  0.61998585675E+02 -0.64645596038E+00  0.72299826009E+03  0.72565262118E+03  0.10000000000E+01 0.  0.
    9000005    1    3    3    0    0 -0.61998585675E+02  0.64645596038E+00  0.93006375560E+03  0.93212865636E+03  0.10000000000E+01 0.  0.
<mgrwt>
<rscale>  0 0.12499895E+03</rscale>
<asrwt>0</asrwt>
<pdfrwt beam="1">  1        4 0.25467958E+00 0.12499895E+03</pdfrwt>
<pdfrwt beam="2">  1       -4 0.36302110E-03 0.12499895E+03</pdfrwt>
<totfact> 0.15025014E+03</totfact>
</mgrwt>
</event>
<event>
 5    1  0.3327068E-002  0.1250010E+03  0.7818608E-02  0.1235068E+00
         -4   -1    0    0    0  501 -0.00000000000E+00  0.00000000000E+00  0.18832630421E+02  0.18875403799E+02  0.12700000000E+01 0. -1.
          4   -1    0    0  501    0  0.00000000000E+00 -0.00000000000E+00 -0.20714250500E+03  0.20714639818E+03  0.12700000000E+01 0. -1.
         25    2    1    2    0    0  0.00000000000E+00  0.00000000000E+00 -0.18830987458E+03  0.22602180198E+03  0.12500098441E+03 0.  0.
    9000005    1    3    3    0    0  0.84680168462E+01 -0.61915051827E+02 -0.94808316403E+02  0.11355526325E+03  0.10000000000E+01 0.  0.
    9000005    1    3    3    0    0 -0.84680168462E+01  0.61915051827E+02 -0.93501558179E+02  0.11246653873E+03  0.10000000000E+01 0.  0.
<mgrwt>
<rscale>  0 0.12500098E+03</rscale>
<asrwt>0</asrwt>
<pdfrwt beam="2">  1        4 0.31871666E-01 0.12500098E+03</pdfrwt>
<pdfrwt beam="1">  1       -4 0.29009176E-02 0.12500098E+03</pdfrwt>
<totfact> 0.85922333E+03</totfact>
</mgrwt>
</event>
<event>
 5    1  0.3327068E-002  0.1250004E+03  0.7818608E-02  0.1235069E+00
         -4   -1    0    0    0  501 -0.00000000000E+00  0.00000000000E+00  0.15962900610E+02  0.16013341184E+02  0.12700000000E+01 0. -1.
          4   -1    0    0  501    0  0.00000000000E+00 -0.00000000000E+00 -0.24427145451E+03  0.24427475594E+03  0.12700000000E+01 0. -1.
         25    2    1    2    0    0  0.00000000000E+00  0.00000000000E+00 -0.22830855390E+03  0.26028809712E+03  0.12500039088E+03 0.  0.
    9000005    1    3    3    0    0 -0.40594861104E+02  0.45986933269E+02 -0.13901430653E+03  0.15194972260E+03  0.10000000000E+01 0.  0.
    9000005    1    3    3    0    0  0.40594861104E+02 -0.45986933269E+02 -0.89294247373E+02  0.10833837452E+03  0.10000000000E+01 0.  0.
<mgrwt>
<rscale>  0 0.12500039E+03</rscale>
<asrwt>0</asrwt>
<pdfrwt beam="2">  1        4 0.37584355E-01 0.12500039E+03</pdfrwt>
<pdfrwt beam="1">  1       -4 0.24599650E-02 0.12500039E+03</pdfrwt>
<totfact> 0.80864945E+03</totfact>
</mgrwt>
</event>
<event>
 5    1  0.3327068E-002  0.1249980E+03  0.7818608E-02  0.1235072E+00
         -4   -1    0    0    0  501 -0.00000000000E+00  0.00000000000E+00  0.22734039915E+03  0.22734394644E+03  0.12700000000E+01 0. -1.
          4   -1    0    0  501    0  0.00000000000E+00 -0.00000000000E+00 -0.17154665908E+02  0.17201612204E+02  0.12700000000E+01 0. -1.
         25    2    1    2    0    0  0.00000000000E+00  0.00000000000E+00  0.21018573324E+03  0.24454555865E+03  0.12499795117E+03 0.  0.
    9000005    1    3    3    0    0 -0.52888428868E+02 -0.15651465586E+02  0.16256458030E+03  0.17166944122E+03  0.10000000000E+01 0.  0.
    9000005    1    3    3    0    0  0.52888428868E+02  0.15651465586E+02  0.47621152945E+02  0.72876117425E+02  0.10000000000E+01 0.  0.
<mgrwt>
<rscale>  0 0.12499795E+03</rscale>
<asrwt>0</asrwt>
<pdfrwt beam="2">  1        4 0.26430636E-02 0.12499795E+03</pdfrwt>
<pdfrwt beam="1">  1       -4 0.34979329E-01 0.12499795E+03</pdfrwt>
<totfact> 0.83128806E+03</totfact>
</mgrwt>
</event>
<event>
 5    1  0.3327068E-002  0.1250027E+03  0.7818608E-02  0.1235065E+00
          4   -1    0    0  501    0  0.00000000000E+00  0.00000000000E+00  0.18234645920E+02  0.18278818666E+02  0.12700000000E+01 0.  1.
         -4   -1    0    0    0  501 -0.00000000000E+00 -0.00000000000E+00 -0.21392523267E+03  0.21392900241E+03  0.12700000000E+01 0.  1.
         25    2    1    2    0    0  0.00000000000E+00  0.00000000000E+00 -0.19569058675E+03  0.23220782108E+03  0.12500266568E+03 0.  0.
    9000005    1    3    3    0    0 -0.22019096921E+02 -0.29520693143E+02 -0.19163418463E+03  0.19514346690E+03  0.10000000000E+01 0.  0.
    9000005    1    3    3    0    0  0.22019096921E+02  0.29520693143E+02 -0.40564021195E+01  0.37064354183E+02  0.10000000000E+01 0.  0.
<mgrwt>
<rscale>  0 0.12500267E+03</rscale>
<asrwt>0</asrwt>
<pdfrwt beam="1">  1        4 0.28090182E-02 0.12500267E+03</pdfrwt>
<pdfrwt beam="2">  1       -4 0.32915260E-01 0.12500267E+03</pdfrwt>
<totfact> 0.84966681E+03</totfact>
</mgrwt>
</event>
<event>
 5    1  0.3327068E-002  0.1249986E+03  0.7818608E-02  0.1235072E+00
          4   -1    0    0  501    0  0.00000000000E+00  0.00000000000E+00  0.81508941974E+01  0.82492409479E+01  0.12700000000E+01 0. -1.
         -4   -1    0    0    0  501 -0.00000000000E+00 -0.00000000000E+00 -0.47625783756E+03  0.47625953086E+03  0.12700000000E+01 0. -1.
         25    2    1    2    0    0  0.00000000000E+00  0.00000000000E+00 -0.46810694336E+03  0.48450877181E+03  0.12499855814E+03 0.  0.
    9000005    1    3    3    0    0  0.41515889021E+02  0.28101660223E+02 -0.37866360070E+03  0.38196910195E+03  0.10000000000E+01 0.  0.
    9000005    1    3    3    0    0 -0.41515889021E+02 -0.28101660223E+02 -0.89443342655E+02  0.10253966985E+03  0.10000000000E+01 0.  0.
<mgrwt>
<rscale>  0 0.12499856E+03</rscale>
<asrwt>0</asrwt>
<pdfrwt beam="1">  1        4 0.12616795E-02 0.12499856E+03</pdfrwt>
<pdfrwt beam="2">  1       -4 0.73278110E-01 0.12499856E+03</pdfrwt>
<totfact> 0.57088471E+03</totfact>
</mgrwt>
</event>
<event>
 5    1  0.3327068E-002  0.1250005E+03  0.7818608E-02  0.1235069E+00
          4   -1    0    0  501    0  0.00000000000E+00  0.00000000000E+00  0.36855888328E+03  0.36856107139E+03  0.12700000000E+01 0. -1.
         -4   -1    0    0    0  501 -0.00000000000E+00 -0.00000000000E+00 -0.10558522117E+02  0.10634626899E+02  0.12700000000E+01 0. -1.
         25    2    1    2    0    0  0.00000000000E+00  0.00000000000E+00  0.35800036116E+03  0.37919569829E+03  0.12500047603E+03 0.  0.
    9000005    1    3    3    0    0  0.28672506182E+02  0.12286930556E+02  0.14733902503E+02  0.34513318534E+02  0.10000000000E+01 0.  0.
    9000005    1    3    3    0    0 -0.28672506182E+02 -0.12286930556E+02  0.34326645866E+03  0.34468237975E+03  0.10000000000E+01 0.  0.
<mgrwt>
<rscale>  0 0.12500048E+03</rscale>
<asrwt>0</asrwt>
<pdfrwt beam="1">  1        4 0.56707391E-01 0.12500048E+03</pdfrwt>
<pdfrwt beam="2">  1       -4 0.16304105E-02 0.12500048E+03</pdfrwt>
<totfact> 0.66627039E+03</totfact>
</mgrwt>
</event>
<event>
 5    1  0.3327068E-002  0.1250011E+03  0.7818608E-02  0.1235068E+00
          4   -1    0    0  501    0  0.00000000000E+00  0.00000000000E+00  0.89186879730E+03  0.89186970152E+03  0.12700000000E+01 0. -1.
         -4   -1    0    0    0  501 -0.00000000000E+00 -0.00000000000E+00 -0.42869354289E+01  0.44710977815E+01  0.12700000000E+01 0. -1.
         25    2    1    2    0    0  0.00000000000E+00  0.00000000000E+00  0.88758186187E+03  0.89634079930E+03  0.12500106791E+03 0.  0.
    9000005    1    3    3    0    0 -0.27157681751E+02 -0.54697563772E+02  0.53890800888E+03  0.54235800464E+03  0.10000000000E+01 0.  0.
    9000005    1    3    3    0    0  0.27157681751E+02  0.54697563772E+02  0.34867385299E+03  0.35398279466E+03  0.10000000000E+01 0.  0.
<mgrwt>
<rscale>  0 0.12500107E+03</rscale>
<asrwt>0</asrwt>
<pdfrwt beam="1">  1        4 0.13722483E+00 0.12500107E+03</pdfrwt>
<pdfrwt beam="2">  1       -4 0.67376435E-03 0.12500107E+03</pdfrwt>
<totfact> 0.34299615E+03</totfact>
</mgrwt>
</event>
<event>
 5    1  0.3327068E-002  0.1249992E+03  0.7818608E-02  0.1235070E+00
         -4   -1    0    0    0  501 -0.00000000000E+00  0.00000000000E+00  0.82572007778E+03  0.82572105444E+03  0.12700000000E+01 0.  1.
          4   -1    0    0  501    0  0.00000000000E+00 -0.00000000000E+00 -0.46444284076E+01  0.48149366801E+01  0.12700000000E+01 0.  1.
         25    2    1    2    0    0  0.00000000000E+00  0.00000000000E+00  0.82107564937E+03  0.83053599112E+03  0.12499924223E+03 0.  0.
    9000005    1    3    3    0    0 -0.54436061021E+02  0.27698870871E+02  0.49835625328E+03  0.50208611549E+03  0.10000000000E+01 0.  0.
    9000005    1    3    3    0    0  0.54436061021E+02 -0.27698870871E+02  0.32271939609E+03  0.32844987563E+03  0.10000000000E+01 0.  0.
<mgrwt>
<rscale>  0 0.12499924E+03</rscale>
<asrwt>0</asrwt>
<pdfrwt beam="2">  1        4 0.72771911E-03 0.12499924E+03</pdfrwt>
<pdfrwt beam="1">  1       -4 0.12704696E+00 0.12499924E+03</pdfrwt>
<totfact> 0.36937944E+03</totfact>
</mgrwt>
</event>
<event>
 5    1  0.3327068E-002  0.1249985E+03  0.7818608E-02  0.1235072E+00
          4   -1    0    0  501    0  0.00000000000E+00  0.00000000000E+00  0.74843269061E+02  0.74854043470E+02  0.12700000000E+01 0.  1.
         -4   -1    0    0    0  501 -0.00000000000E+00 -0.00000000000E+00 -0.52168872498E+02  0.52184328660E+02  0.12700000000E+01 0.  1.
         25    2    1    2    0    0  0.00000000000E+00  0.00000000000E+00  0.22674396563E+02  0.12703837213E+03  0.12499847893E+03 0.  0.
    9000005    1    3    3    0    0 -0.55395746534E+02  0.10583102450E+02 -0.16017922653E+02  0.58636717487E+02  0.10000000000E+01 0.  0.
    9000005    1    3    3    0    0  0.55395746534E+02 -0.10583102450E+02  0.38692319216E+02  0.68401654643E+02  0.10000000000E+01 0.  0.
<mgrwt>
<rscale>  0 0.12499848E+03</rscale>
<asrwt>0</asrwt>
<pdfrwt beam="1">  1        4 0.11516367E-01 0.12499848E+03</pdfrwt>
<pdfrwt beam="2">  1       -4 0.80279981E-02 0.12499848E+03</pdfrwt>
<totfact> 0.10408669E+04</totfact>
</mgrwt>
</event>
<event>
 5    1  0.3327068E-002  0.1249946E+03  0.7818608E-02  0.1235078E+00
         -4   -1    0    0    0  501 -0.00000000000E+00  0.00000000000E+00  0.30516211990E+03  0.30516476258E+03  0.12700000000E+01 0.  1.
          4   -1    0    0  501    0  0.00000000000E+00 -0.00000000000E+00 -0.12765253685E+02  0.12828273526E+02  0.12700000000E+01 0.  1.
         25    2    1    2    0    0  0.00000000000E+00  0.00000000000E+00  0.29239686621E+03  0.31799303611E+03  0.12499457445E+03 0.  0.
    9000005    1    3    3    0    0  0.56793402319E+02 -0.16104769899E+02  0.19833956212E+03  0.20694065832E+03  0.10000000000E+01 0.  0.
    9000005    1    3    3    0    0 -0.56793402319E+02  0.16104769899E+02  0.94057304090E+02  0.11105237779E+03  0.10000000000E+01 0.  0.
<mgrwt>
<rscale>  0 0.12499457E+03</rscale>
<asrwt>0</asrwt>
<pdfrwt beam="2">  1        4 0.19689361E-02 0.12499457E+03</pdfrwt>
<pdfrwt beam="1">  1       -4 0.46953071E-01 0.12499457E+03</pdfrwt>
<totfact> 0.73404290E+03</totfact>
</mgrwt>
</event>
<event>
 5    1  0.3327068E-002  0.1249989E+03  0.7818608E-02  0.1235071E+00
         -4   -1    0    0    0  501 -0.00000000000E+00  0.00000000000E+00  0.85880421289E+03  0.85880515193E+03  0.12700000000E+01 0. -1.
          4   -1    0    0  501    0  0.00000000000E+00 -0.00000000000E+00 -0.44587854434E+01  0.46361263605E+01  0.12700000000E+01 0. -1.
         25    2    1    2    0    0  0.00000000000E+00  0.00000000000E+00  0.85434542744E+03  0.86344127829E+03  0.12499892661E+03 0.  0.
    9000005    1    3    3    0    0 -0.49841897140E+02 -0.18247957923E+01  0.68725408473E+03  0.68906220443E+03  0.10000000000E+01 0.  0.
    9000005    1    3    3    0    0  0.49841897140E+02  0.18247957923E+01  0.16709134271E+03  0.17437907386E+03  0.10000000000E+01 0.  0.
<mgrwt>
<rscale>  0 0.12499893E+03</rscale>
<asrwt>0</asrwt>
<pdfrwt beam="2">  1        4 0.69968102E-03 0.12499893E+03</pdfrwt>
<pdfrwt beam="1">  1       -4 0.13213740E+00 0.12499893E+03</pdfrwt>
<totfact> 0.35584363E+03</totfact>
</mgrwt>
</event>
<event>
 5    1  0.3327068E-002  0.1249960E+03  0.7818608E-02  0.1235076E+00
          4   -1    0    0  501    0  0.00000000000E+00  0.00000000000E+00  0.19705095287E+01  0.23443139301E+01  0.12700000000E+01 0.  1.
         -4   -1    0    0    0  501 -0.00000000000E+00 -0.00000000000E+00 -0.18101275837E+04  0.18101280292E+04  0.12700000000E+01 0.  1.
         25    2    1    2    0    0  0.00000000000E+00  0.00000000000E+00 -0.18081570741E+04  0.18124723431E+04  0.12499595918E+03 0.  0.
    9000005    1    3    3    0    0 -0.14419623898E+02 -0.60790356136E+02 -0.88571123603E+03  0.88791260076E+03  0.10000000000E+01 0.  0.
    9000005    1    3    3    0    0  0.14419623898E+02  0.60790356136E+02 -0.92244583811E+03  0.92455974236E+03  0.10000000000E+01 0.  0.
<mgrwt>
<rscale>  0 0.12499596E+03</rscale>
<asrwt>0</asrwt>
<pdfrwt beam="1">  1        4 0.33194521E-03 0.12499596E+03</pdfrwt>
<pdfrwt beam="2">  1       -4 0.27850874E+00 0.12499596E+03</pdfrwt>
<totfact> 0.12513547E+03</totfact>
</mgrwt>
</event>
<event>
 5    1  0.3327068E-002  0.1250006E+03  0.7818608E-02  0.1235068E+00
         -4   -1    0    0    0  501 -0.00000000000E+00  0.00000000000E+00  0.52634330771E+03  0.52634483988E+03  0.12700000000E+01 0.  1.
          4   -1    0    0  501    0  0.00000000000E+00 -0.00000000000E+00 -0.73656713041E+01  0.74743570800E+01  0.12700000000E+01 0.  1.
         25    2    1    2    0    0  0.00000000000E+00  0.00000000000E+00  0.51897763641E+03  0.53381919696E+03  0.12500059182E+03 0.  0.
    9000005    1    3    3    0    0 -0.55957249297E+02 -0.11622441619E+02  0.15153702525E+03  0.16195914584E+03  0.10000000000E+01 0.  0.
    9000005    1    3    3    0    0  0.55957249297E+02  0.11622441619E+02  0.36744061115E+03  0.37186005112E+03  0.10000000000E+01 0.  0.
<mgrwt>
<rscale>  0 0.12500059E+03</rscale>
<asrwt>0</asrwt>
<pdfrwt beam="2">  1        4 0.11416581E-02 0.12500059E+03</pdfrwt>
<pdfrwt beam="1">  1       -4 0.80984397E-01 0.12500059E+03</pdfrwt>
<totfact> 0.53331975E+03</totfact>
</mgrwt>
</event>
<event>
 5    1  0.3327068E-002  0.1250026E+03  0.7818608E-02  0.1235065E+00
          4   -1    0    0  501    0  0.00000000000E+00  0.00000000000E+00  0.42267085944E+02  0.42286161498E+02  0.12700000000E+01 0.  1.
         -4   -1    0    0    0  501 -0.00000000000E+00 -0.00000000000E+00 -0.92377814388E+02  0.92386543885E+02  0.12700000000E+01 0.  1.
         25    2    1    2    0    0  0.00000000000E+00  0.00000000000E+00 -0.50110728444E+02  0.13467270538E+03  0.12500260985E+03 0.  0.
    9000005    1    3    3    0    0 -0.21157137722E+02  0.28484040561E+02 -0.80478640205E+02  0.87958948223E+02  0.10000000000E+01 0.  0.
    9000005    1    3    3    0    0  0.21157137722E+02 -0.28484040561E+02  0.30367911761E+02  0.46713757160E+02  0.10000000000E+01 0.  0.
<mgrwt>
<rscale>  0 0.12500261E+03</rscale>
<asrwt>0</asrwt>
<pdfrwt beam="1">  1        4 0.65047675E-02 0.12500261E+03</pdfrwt>
<pdfrwt beam="2">  1       -4 0.14214110E-01 0.12500261E+03</pdfrwt>
<totfact> 0.10244371E+04</totfact>
</mgrwt>
</event>
<event>
 5    1  0.3327068E-002  0.1249992E+03  0.7818608E-02  0.1235071E+00
         -4   -1    0    0    0  501 -0.00000000000E+00  0.00000000000E+00  0.41526017236E+03  0.41526211439E+03  0.12700000000E+01 0. -1.
          4   -1    0    0  501    0  0.00000000000E+00 -0.00000000000E+00 -0.93617864418E+01  0.94475364716E+01  0.12700000000E+01 0. -1.
         25    2    1    2    0    0  0.00000000000E+00  0.00000000000E+00  0.40589838592E+03  0.42470965086E+03  0.12499915138E+03 0.  0.
    9000005    1    3    3    0    0 -0.58506464222E+02 -0.21113654998E+02  0.22344951485E+03  0.23194714585E+03  0.10000000000E+01 0.  0.
    9000005    1    3    3    0    0  0.58506464222E+02  0.21113654998E+02  0.18244887106E+03  0.19276250501E+03  0.10000000000E+01 0.  0.
<mgrwt>
<rscale>  0 0.12499915E+03</rscale>
<asrwt>0</asrwt>
<pdfrwt beam="2">  1        4 0.14470209E-02 0.12499915E+03</pdfrwt>
<pdfrwt beam="1">  1       -4 0.63892902E-01 0.12499915E+03</pdfrwt>
<totfact> 0.62219650E+03</totfact>
</mgrwt>
</event>
<event>
 5    1  0.3327068E-002  0.1249951E+03  0.7818608E-02  0.1235077E+00
          4   -1    0    0  501    0  0.00000000000E+00  0.00000000000E+00  0.99892156304E+03  0.99892237036E+03  0.12700000000E+01 0. -1.
         -4   -1    0    0    0  501 -0.00000000000E+00 -0.00000000000E+00 -0.38062101952E+01  0.40124974828E+01  0.12700000000E+01 0. -1.
         25    2    1    2    0    0  0.00000000000E+00  0.00000000000E+00  0.99511535285E+03  0.10029348678E+04  0.12499513458E+03 0.  0.
    9000005    1    3    3    0    0 -0.56259496192E+02 -0.16929688420E+02  0.66837223628E+03  0.67095021536E+03  0.10000000000E+01 0.  0.
    9000005    1    3    3    0    0  0.56259496192E+02  0.16929688420E+02  0.32674311656E+03  0.33198465248E+03  0.10000000000E+01 0.  0.
<mgrwt>
<rscale>  0 0.12499513E+03</rscale>
<asrwt>0</asrwt>
<pdfrwt beam="1">  1        4 0.15369623E+00 0.12499513E+03</pdfrwt>
<pdfrwt beam="2">  1       -4 0.60150093E-03 0.12499513E+03</pdfrwt>
<totfact> 0.30511000E+03</totfact>
</mgrwt>
</event>
<event>
 5    1  0.3327068E-002  0.1249997E+03  0.7818608E-02  0.1235070E+00
         -4   -1    0    0    0  501 -0.00000000000E+00  0.00000000000E+00  0.15701646216E+03  0.15702159816E+03  0.12700000000E+01 0.  1.
          4   -1    0    0  501    0  0.00000000000E+00 -0.00000000000E+00 -0.24856082225E+02  0.24888505853E+02  0.12700000000E+01 0.  1.
         25    2    1    2    0    0  0.00000000000E+00  0.00000000000E+00  0.13216037993E+03  0.18191010401E+03  0.12499967967E+03 0.  0.
    9000005    1    3    3    0    0  0.31675980668E+02 -0.29501125894E+02  0.48662564873E+00  0.43300357791E+02  0.10000000000E+01 0.  0.
    9000005    1    3    3    0    0 -0.31675980668E+02  0.29501125894E+02  0.13167375428E+03  0.13860974622E+03  0.10000000000E+01 0.  0.
<mgrwt>
<rscale>  0 0.12499968E+03</rscale>
<asrwt>0</asrwt>
<pdfrwt beam="2">  1        4 0.38269018E-02 0.12499968E+03</pdfrwt>
<pdfrwt beam="1">  1       -4 0.24159268E-01 0.12499968E+03</pdfrwt>
<totfact> 0.93274973E+03</totfact>
</mgrwt>
</event>
<event>
 5    1  0.3327068E-002  0.1250222E+03  0.7818608E-02  0.1235035E+00
          4   -1    0    0  501    0  0.00000000000E+00  0.00000000000E+00  0.76624207164E+02  0.76634731184E+02  0.12700000000E+01 0. -1.
         -4   -1    0    0    0  501 -0.00000000000E+00 -0.00000000000E+00 -0.50975513174E+02  0.50991331061E+02  0.12700000000E+01 0. -1.
         25    2    1    2    0    0  0.00000000000E+00  0.00000000000E+00  0.25648693990E+02  0.12762606224E+03  0.12502222307E+03 0.  0.
    9000005    1    3    3    0    0 -0.21331953358E+02 -0.22767726103E+02 -0.42462813432E+02  0.52702107268E+02  0.10000000000E+01 0.  0.
    9000005    1    3    3    0    0  0.21331953358E+02  0.22767726103E+02  0.68111507422E+02  0.74923954976E+02  0.10000000000E+01 0.  0.
<mgrwt>
<rscale>  0 0.12502222E+03</rscale>
<asrwt>0</asrwt>
<pdfrwt beam="1">  1        4 0.11790366E-01 0.12502222E+03</pdfrwt>
<pdfrwt beam="2">  1       -4 0.78444130E-02 0.12502222E+03</pdfrwt>
<totfact> 0.10390358E+04</totfact>
</mgrwt>
</event>
<event>
 5    1  0.3327068E-002  0.1250015E+03  0.7818608E-02  0.1235067E+00
         -4   -1    0    0    0  501 -0.00000000000E+00  0.00000000000E+00  0.44668799629E+02  0.44686849970E+02  0.12700000000E+01 0.  1.
          4   -1    0    0  501    0  0.00000000000E+00 -0.00000000000E+00 -0.87410967168E+02  0.87420192640E+02  0.12700000000E+01 0.  1.
         25    2    1    2    0    0  0.00000000000E+00  0.00000000000E+00 -0.42742167539E+02  0.13210704261E+03  0.12500151128E+03 0.  0.
    9000005    1    3    3    0    0  0.60565136714E+02  0.99431220457E+01 -0.89405639013E+01  0.62031726916E+02  0.10000000000E+01 0.  0.
    9000005    1    3    3    0    0 -0.60565136714E+02 -0.99431220457E+01 -0.33801603638E+02  0.70075315695E+02  0.10000000000E+01 0.  0.
<mgrwt>
<rscale>  0 0.12500151E+03</rscale>
<asrwt>0</asrwt>
<pdfrwt beam="2">  1        4 0.13449939E-01 0.12500151E+03</pdfrwt>
<pdfrwt beam="1">  1       -4 0.68742211E-02 0.12500151E+03</pdfrwt>
<totfact> 0.10299063E+04</totfact>
</mgrwt>
</event>
<event>
 5    1  0.3327068E-002  0.1250030E+03  0.7818608E-02  0.1235065E+00
         -4   -1    0    0    0  501 -0.00000000000E+00  0.00000000000E+00  0.11865847181E+02  0.11933617613E+02  0.12700000000E+01 0. -1.
          4   -1    0    0  501    0  0.00000000000E+00 -0.00000000000E+00 -0.32821057184E+03  0.32821302894E+03  0.12700000000E+01 0. -1.
         25    2    1    2    0    0  0.00000000000E+00  0.00000000000E+00 -0.31634472466E+03  0.34014664656E+03  0.12500302534E+03 0.  0.
    9000005    1    3    3    0    0  0.14350659546E+02 -0.55864124073E+02 -0.92713056274E+02  0.10919456301E+03  0.10000000000E+01 0.  0.
    9000005    1    3    3    0    0 -0.14350659546E+02  0.55864124073E+02 -0.22363166839E+03  0.23095208354E+03  0.10000000000E+01 0.  0.
<mgrwt>
<rscale>  0 0.12500303E+03</rscale>
<asrwt>0</asrwt>
<pdfrwt beam="2">  1        4 0.50499329E-01 0.12500303E+03</pdfrwt>
<pdfrwt beam="1">  1       -4 0.18309173E-02 0.12500303E+03</pdfrwt>
<totfact> 0.70817582E+03</totfact>
</mgrwt>
</event>
<event>
 5    1  0.3327068E-002  0.1250004E+03  0.7818608E-02  0.1235069E+00
         -4   -1    0    0    0  501 -0.00000000000E+00  0.00000000000E+00  0.13672422628E+03  0.13673012452E+03  0.12700000000E+01 0. -1.
          4   -1    0    0  501    0  0.00000000000E+00 -0.00000000000E+00 -0.28549814513E+02  0.28578047672E+02  0.12700000000E+01 0. -1.
         25    2    1    2    0    0  0.00000000000E+00  0.00000000000E+00  0.10817441176E+03  0.16530817219E+03  0.12500035373E+03 0.  0.
    9000005    1    3    3    0    0  0.33916865412E+02 -0.45143597640E+02  0.89497926713E+02  0.10582616431E+03  0.10000000000E+01 0.  0.
    9000005    1    3    3    0    0 -0.33916865412E+02  0.45143597640E+02  0.18676485051E+02  0.59482007877E+02  0.10000000000E+01 0.  0.
<mgrwt>
<rscale>  0 0.12500035E+03</rscale>
<asrwt>0</asrwt>
<pdfrwt beam="2">  1        4 0.43949047E-02 0.12500035E+03</pdfrwt>
<pdfrwt beam="1">  1       -4 0.21037122E-01 0.12500035E+03</pdfrwt>
<totfact> 0.96328296E+03</totfact>
</mgrwt>
</event>
<event>
 5    1  0.3327068E-002  0.1249955E+03  0.7818608E-02  0.1235076E+00
          4   -1    0    0  501    0  0.00000000000E+00  0.00000000000E+00  0.98631393955E+02  0.98639570019E+02  0.12700000000E+01 0.  1.
         -4   -1    0    0    0  501 -0.00000000000E+00 -0.00000000000E+00 -0.39581704720E+02  0.39602073791E+02  0.12700000000E+01 0.  1.
         25    2    1    2    0    0  0.00000000000E+00  0.00000000000E+00  0.59049689235E+02  0.13824164381E+03  0.12499554506E+03 0.  0.
    9000005    1    3    3    0    0 -0.57969892129E+02  0.15448089418E+02  0.48865762963E+02  0.77382263149E+02  0.10000000000E+01 0.  0.
    9000005    1    3    3    0    0  0.57969892129E+02 -0.15448089418E+02  0.10183926272E+02  0.60859380661E+02  0.10000000000E+01 0.  0.
<mgrwt>
<rscale>  0 0.12499555E+03</rscale>
<asrwt>0</asrwt>
<pdfrwt beam="1">  1        4 0.15176256E-01 0.12499555E+03</pdfrwt>
<pdfrwt beam="2">  1       -4 0.60916889E-02 0.12499555E+03</pdfrwt>
<totfact> 0.10171180E+04</totfact>
</mgrwt>
</event>
<event>
 5    1  0.3327068E-002  0.1249965E+03  0.7818608E-02  0.1235075E+00
          4   -1    0    0  501    0  0.00000000000E+00  0.00000000000E+00  0.15246211247E+03  0.15246740189E+03  0.12700000000E+01 0. -1.
         -4   -1    0    0    0  501 -0.00000000000E+00 -0.00000000000E+00 -0.25598187879E+02  0.25629672700E+02  0.12700000000E+01 0. -1.
         25    2    1    2    0    0  0.00000000000E+00  0.00000000000E+00  0.12686392459E+03  0.17809707459E+03  0.12499645041E+03 0.  0.
    9000005    1    3    3    0    0 -0.33023023883E+02  0.11412174233E+02  0.13725165463E+03  0.14163253343E+03  0.10000000000E+01 0.  0.
    9000005    1    3    3    0    0  0.33023023883E+02 -0.11412174233E+02 -0.10387730033E+02  0.36464541165E+02  0.10000000000E+01 0.  0.
<mgrwt>
<rscale>  0 0.12499645E+03</rscale>
<asrwt>0</asrwt>
<pdfrwt beam="1">  1        4 0.23458538E-01 0.12499645E+03</pdfrwt>
<pdfrwt beam="2">  1       -4 0.39410116E-02 0.12499645E+03</pdfrwt>
<totfact> 0.93968141E+03</totfact>
</mgrwt>
</event>
<event>
 5    1  0.3327068E-002  0.1250008E+03  0.7818608E-02  0.1235068E+00
         -4   -1    0    0    0  501 -0.00000000000E+00  0.00000000000E+00  0.17914047368E+02  0.17959008689E+02  0.12700000000E+01 0. -1.
          4   -1    0    0  501    0  0.00000000000E+00 -0.00000000000E+00 -0.21773797821E+03  0.21774168194E+03  0.12700000000E+01 0. -1.
         25    2    1    2    0    0  0.00000000000E+00  0.00000000000E+00 -0.19982393084E+03  0.23570069063E+03  0.12500084890E+03 0.  0.
    9000005    1    3    3    0    0  0.54867952917E+02  0.29419162032E+02 -0.11012270762E+03  0.12650687762E+03  0.10000000000E+01 0.  0.
    9000005    1    3    3    0    0 -0.54867952917E+02 -0.29419162032E+02 -0.89701223220E+02  0.10919381301E+03  0.10000000000E+01 0.  0.
<mgrwt>
<rscale>  0 0.12500085E+03</rscale>
<asrwt>0</asrwt>
<pdfrwt beam="2">  1        4 0.33501892E-01 0.12500085E+03</pdfrwt>
<pdfrwt beam="1">  1       -4 0.27597509E-02 0.12500085E+03</pdfrwt>
<totfact> 0.84440270E+03</totfact>
</mgrwt>
</event>
<event>
 5    1  0.3327068E-002  0.1250037E+03  0.7818608E-02  0.1235064E+00
          4   -1    0    0  501    0  0.00000000000E+00  0.00000000000E+00  0.20218165905E+03  0.20218564775E+03  0.12700000000E+01 0. -1.
         -4   -1    0    0    0  501 -0.00000000000E+00 -0.00000000000E+00 -0.19296574760E+02  0.19338321992E+02  0.12700000000E+01 0. -1.
         25    2    1    2    0    0  0.00000000000E+00  0.00000000000E+00  0.18288508429E+03  0.22152396974E+03  0.12500366040E+03 0.  0.
    9000005    1    3    3    0    0  0.15911697597E+02 -0.42747447014E+02  0.15737680602E+02  0.48261795837E+02  0.10000000000E+01 0.  0.
    9000005    1    3    3    0    0 -0.15911697597E+02  0.42747447014E+02  0.16714740369E+03  0.17326217390E+03  0.10000000000E+01 0.  0.
<mgrwt>
<rscale>  0 0.12500366E+03</rscale>
<asrwt>0</asrwt>
<pdfrwt beam="1">  1        4 0.31108388E-01 0.12500366E+03</pdfrwt>
<pdfrwt beam="2">  1       -4 0.29722220E-02 0.12500366E+03</pdfrwt>
<totfact> 0.86620693E+03</totfact>
</mgrwt>
</event>
<event>
 5    1  0.3327068E-002  0.1249974E+03  0.7818608E-02  0.1235073E+00
          4   -1    0    0  501    0  0.00000000000E+00  0.00000000000E+00  0.62498781009E+01  0.63776074100E+01  0.12700000000E+01 0. -1.
         -4   -1    0    0    0  501 -0.00000000000E+00 -0.00000000000E+00 -0.61853638385E+03  0.61853768765E+03  0.12700000000E+01 0. -1.
         25    2    1    2    0    0  0.00000000000E+00  0.00000000000E+00 -0.61228650575E+03  0.62491529506E+03  0.12499744350E+03 0.  0.
    9000005    1    3    3    0    0 -0.24616464542E+02 -0.16177222626E+02 -0.30611116784E+02  0.42493685757E+02  0.10000000000E+01 0.  0.
    9000005    1    3    3    0    0  0.24616464542E+02  0.16177222626E+02 -0.58167538897E+03  0.58242160931E+03  0.10000000000E+01 0.  0.
<mgrwt>
<rscale>  0 0.12499744E+03</rscale>
<asrwt>0</asrwt>
<pdfrwt beam="1">  1        4 0.97144582E-03 0.12499744E+03</pdfrwt>
<pdfrwt beam="2">  1       -4 0.95169322E-01 0.12499744E+03</pdfrwt>
<totfact> 0.47334399E+03</totfact>
</mgrwt>
</event>
<event>
 5    1  0.3327068E-002  0.1250060E+03  0.7818608E-02  0.1235060E+00
          4   -1    0    0  501    0  0.00000000000E+00  0.00000000000E+00  0.31032670806E+01  0.33530831444E+01  0.12700000000E+01 0. -1.
         -4   -1    0    0    0  501 -0.00000000000E+00 -0.00000000000E+00 -0.12099154445E+04  0.12099161110E+04  0.12700000000E+01 0. -1.
         25    2    1    2    0    0  0.00000000000E+00  0.00000000000E+00 -0.12068121774E+04  0.12132691941E+04  0.12500602375E+03 0.  0.
    9000005    1    3    3    0    0 -0.46608964275E+01 -0.23659780131E+02 -0.43823230054E+02  0.50029837535E+02  0.10000000000E+01 0.  0.
    9000005    1    3    3    0    0  0.46608964275E+01  0.23659780131E+02 -0.11629889473E+04  0.11632393566E+04  0.10000000000E+01 0.  0.
<mgrwt>
<rscale>  0 0.12500602E+03</rscale>
<asrwt>0</asrwt>
<pdfrwt beam="1">  1        4 0.49669456E-03 0.12500602E+03</pdfrwt>
<pdfrwt beam="2">  1       -4 0.18615974E+00 0.12500602E+03</pdfrwt>
<totfact> 0.24364908E+03</totfact>
</mgrwt>
</event>
<event>
 5    1  0.3327068E-002  0.1249913E+03  0.7818608E-02  0.1235083E+00
         -4   -1    0    0    0  501 -0.00000000000E+00  0.00000000000E+00  0.17154137996E+03  0.17154608110E+03  0.12700000000E+01 0. -1.
          4   -1    0    0  501    0  0.00000000000E+00 -0.00000000000E+00 -0.22745586640E+02  0.22781014279E+02  0.12700000000E+01 0. -1.
         25    2    1    2    0    0  0.00000000000E+00  0.00000000000E+00  0.14879579332E+03  0.19432709538E+03  0.12499132725E+03 0.  0.
    9000005    1    3    3    0    0 -0.31127587465E+02  0.54119388262E+02  0.78473851084E+02  0.10028449627E+03  0.10000000000E+01 0.  0.
    9000005    1    3    3    0    0  0.31127587465E+02 -0.54119388262E+02  0.70321942240E+02  0.94042599112E+02  0.10000000000E+01 0.  0.
<mgrwt>
<rscale>  0 0.12499133E+03</rscale>
<asrwt>0</asrwt>
<pdfrwt beam="2">  1        4 0.35024077E-02 0.12499133E+03</pdfrwt>
<pdfrwt beam="1">  1       -4 0.26394069E-01 0.12499133E+03</pdfrwt>
<totfact> 0.91117509E+03</totfact>
</mgrwt>
</event>
<event>
 5    1  0.3327068E-002  0.1250013E+03  0.7818608E-02  0.1235067E+00
          4   -1    0    0  501    0  0.00000000000E+00  0.00000000000E+00  0.11974905385E+02  0.12042062074E+02  0.12700000000E+01 0. -1.
         -4   -1    0    0    0  501 -0.00000000000E+00 -0.00000000000E+00 -0.32522945369E+03  0.32523193331E+03  0.12700000000E+01 0. -1.
         25    2    1    2    0    0  0.00000000000E+00  0.00000000000E+00 -0.31325454830E+03  0.33727399538E+03  0.12500134372E+03 0.  0.
    9000005    1    3    3    0    0  0.33480900512E+02 -0.35911898679E+02 -0.52312692370E+02  0.71751327157E+02  0.10000000000E+01 0.  0.
    9000005    1    3    3    0    0 -0.33480900512E+02  0.35911898679E+02 -0.26094185593E+03  0.26552266823E+03  0.10000000000E+01 0.  0.
<mgrwt>
<rscale>  0 0.12500134E+03</rscale>
<asrwt>0</asrwt>
<pdfrwt beam="1">  1        4 0.18476500E-02 0.12500134E+03</pdfrwt>
<pdfrwt beam="2">  1       -4 0.50040651E-01 0.12500134E+03</pdfrwt>
<totfact> 0.71145528E+03</totfact>
</mgrwt>
</event>
<event>
 5    1  0.3327068E-002  0.1250003E+03  0.7818608E-02  0.1235069E+00
          4   -1    0    0  501    0  0.00000000000E+00  0.00000000000E+00  0.11139345714E+04  0.11139352954E+04  0.12700000000E+01 0. -1.
         -4   -1    0    0    0  501 -0.00000000000E+00 -0.00000000000E+00 -0.33909956381E+01  0.36210152468E+01  0.12700000000E+01 0. -1.
         25    2    1    2    0    0  0.00000000000E+00  0.00000000000E+00  0.11105435757E+04  0.11175563106E+04  0.12500029489E+03 0.  0.
    9000005    1    3    3    0    0  0.34602543937E+02  0.46792790064E+02  0.75882460946E+03  0.76105367036E+03  0.10000000000E+01 0.  0.
    9000005    1    3    3    0    0 -0.34602543937E+02 -0.46792790064E+02  0.35171896629E+03  0.35650264024E+03  0.10000000000E+01 0.  0.
<mgrwt>
<rscale>  0 0.12500029E+03</rscale>
<asrwt>0</asrwt>
<pdfrwt beam="1">  1        4 0.17139218E+00 0.12500029E+03</pdfrwt>
<pdfrwt beam="2">  1       -4 0.53944151E-03 0.12500029E+03</pdfrwt>
<totfact> 0.26975021E+03</totfact>
</mgrwt>
</event>
<event>
 5    1  0.3327068E-002  0.1249982E+03  0.7818608E-02  0.1235072E+00
         -4   -1    0    0    0  501 -0.00000000000E+00  0.00000000000E+00  0.25704234588E+02  0.25735589672E+02  0.12700000000E+01 0.  1.
          4   -1    0    0  501    0  0.00000000000E+00 -0.00000000000E+00 -0.15183800436E+03  0.15184331552E+03  0.12700000000E+01 0.  1.
         25    2    1    2    0    0  0.00000000000E+00  0.00000000000E+00 -0.12613376977E+03  0.17757890519E+03  0.12499815876E+03 0.  0.
    9000005    1    3    3    0    0  0.36476072813E+02  0.48991980359E+02 -0.44304759471E+02  0.75462770550E+02  0.10000000000E+01 0.  0.
    9000005    1    3    3    0    0 -0.36476072813E+02 -0.48991980359E+02 -0.81829010300E+02  0.10211613464E+03  0.10000000000E+01 0.  0.
<mgrwt>
<rscale>  0 0.12499816E+03</rscale>
<asrwt>0</asrwt>
<pdfrwt beam="2">  1        4 0.23362513E-01 0.12499816E+03</pdfrwt>
<pdfrwt beam="1">  1       -4 0.39573182E-02 0.12499816E+03</pdfrwt>
<totfact> 0.94058517E+03</totfact>
</mgrwt>
</event>
<event>
 5    1  0.3327068E-002  0.1250020E+03  0.7818608E-02  0.1235066E+00
         -4   -1    0    0    0  501 -0.00000000000E+00  0.00000000000E+00  0.84902854857E+03  0.84902949842E+03  0.12700000000E+01 0.  1.
          4   -1    0    0  501    0  0.00000000000E+00 -0.00000000000E+00 -0.45123870757E+01  0.46877006219E+01  0.12700000000E+01 0.  1.
         25    2    1    2    0    0  0.00000000000E+00  0.00000000000E+00  0.84451616149E+03  0.85371719904E+03  0.12500203564E+03 0.  0.
    9000005    1    3    3    0    0  0.60136167847E+02  0.10694901916E+02  0.51251195328E+03  0.51613975032E+03  0.10000000000E+01 0.  0.
    9000005    1    3    3    0    0 -0.60136167847E+02 -0.10694901916E+02  0.33200420822E+03  0.33757744872E+03  0.10000000000E+01 0.  0.
<mgrwt>
<rscale>  0 0.12500204E+03</rscale>
<asrwt>0</asrwt>
<pdfrwt beam="2">  1        4 0.70777273E-03 0.12500204E+03</pdfrwt>
<pdfrwt beam="1">  1       -4 0.13063322E+00 0.12500204E+03</pdfrwt>
<totfact> 0.35974122E+03</totfact>
</mgrwt>
</event>
<event>
 5    1  0.3327068E-002  0.1249962E+03  0.7818608E-02  0.1235075E+00
          4   -1    0    0  501    0  0.00000000000E+00  0.00000000000E+00  0.72751424373E+03  0.72751535223E+03  0.12700000000E+01 0.  1.
         -4   -1    0    0    0  501 -0.00000000000E+00 -0.00000000000E+00 -0.52927517284E+01  0.54429882288E+01  0.12700000000E+01 0.  1.
         25    2    1    2    0    0  0.00000000000E+00  0.00000000000E+00  0.72222149200E+03  0.73295834046E+03  0.12499618130E+03 0.  0.
    9000005    1    3    3    0    0 -0.53699574290E+02 -0.20912373573E+02  0.21939969281E+03  0.22684399232E+03  0.10000000000E+01 0.  0.
    9000005    1    3    3    0    0  0.53699574290E+02  0.20912373573E+02  0.50282179920E+03  0.50611434814E+03  0.10000000000E+01 0.  0.
<mgrwt>
<rscale>  0 0.12499618E+03</rscale>
<asrwt>0</asrwt>
<pdfrwt beam="1">  1        4 0.11193688E+00 0.12499618E+03</pdfrwt>
<pdfrwt beam="2">  1       -4 0.82591161E-03 0.12499618E+03</pdfrwt>
<totfact> 0.41406270E+03</totfact>
</mgrwt>
</event>
<event>
 5    1  0.3327068E-002  0.1250185E+03  0.7818608E-02  0.1235040E+00
          4   -1    0    0  501    0  0.00000000000E+00  0.00000000000E+00  0.11082254284E+03  0.11082981955E+03  0.12700000000E+01 0.  1.
         -4   -1    0    0    0  501 -0.00000000000E+00 -0.00000000000E+00 -0.35238335537E+02  0.35261213698E+02  0.12700000000E+01 0.  1.
         25    2    1    2    0    0  0.00000000000E+00  0.00000000000E+00  0.75584207302E+02  0.14609103325E+03  0.12501846904E+03 0.  0.
    9000005    1    3    3    0    0  0.60544217446E+02  0.13033572137E+02  0.47633543545E+02  0.78137255771E+02  0.10000000000E+01 0.  0.
    9000005    1    3    3    0    0 -0.60544217446E+02 -0.13033572137E+02  0.27950663757E+02  0.67953777476E+02  0.10000000000E+01 0.  0.
<mgrwt>
<rscale>  0 0.12501847E+03</rscale>
<asrwt>0</asrwt>
<pdfrwt beam="1">  1        4 0.17051942E-01 0.12501847E+03</pdfrwt>
<pdfrwt beam="2">  1       -4 0.54236020E-02 0.12501847E+03</pdfrwt>
<totfact> 0.10004707E+04</totfact>
</mgrwt>
</event>
<event>
 5    1  0.3327068E-002  0.1249964E+03  0.7818608E-02  0.1235075E+00
         -4   -1    0    0    0  501 -0.00000000000E+00  0.00000000000E+00  0.64606572376E+01  0.65842988952E+01  0.12700000000E+01 0.  1.
          4   -1    0    0  501    0  0.00000000000E+00 -0.00000000000E+00 -0.59873138356E+03  0.59873273049E+03  0.12700000000E+01 0.  1.
         25    2    1    2    0    0  0.00000000000E+00  0.00000000000E+00 -0.59227072632E+03  0.60531702938E+03  0.12499637117E+03 0.  0.
    9000005    1    3    3    0    0  0.46312301073E+02 -0.41948321743E+02 -0.29966843836E+03  0.30611544208E+03  0.10000000000E+01 0.  0.
    9000005    1    3    3    0    0 -0.46312301073E+02  0.41948321743E+02 -0.29260228796E+03  0.29920158730E+03  0.10000000000E+01 0.  0.
<mgrwt>
<rscale>  0 0.12499637E+03</rscale>
<asrwt>0</asrwt>
<pdfrwt beam="2">  1        4 0.92122091E-01 0.12499637E+03</pdfrwt>
<pdfrwt beam="1">  1       -4 0.10035623E-02 0.12499637E+03</pdfrwt>
<totfact> 0.48537574E+03</totfact>
</mgrwt>
</event>
<event>
 5    1  0.3327068E-002  0.1249967E+03  0.7818608E-02  0.1235074E+00
          4   -1    0    0  501    0  0.00000000000E+00  0.00000000000E+00  0.81294574264E+01  0.82280604061E+01  0.12700000000E+01 0.  1.
         -4   -1    0    0    0  501 -0.00000000000E+00 -0.00000000000E+00 -0.47748459165E+03  0.47748628060E+03  0.12700000000E+01 0.  1.
         25    2    1    2    0    0  0.00000000000E+00  0.00000000000E+00 -0.46935513422E+03  0.48571434100E+03  0.12499671611E+03 0.  0.
    9000005    1    3    3    0    0  0.47009851945E+02  0.33025236369E+02 -0.13914238066E+03  0.15053967754E+03  0.10000000000E+01 0.  0.
    9000005    1    3    3    0    0 -0.47009851945E+02 -0.33025236369E+02 -0.33021275356E+03  0.33517466347E+03  0.10000000000E+01 0.  0.
<mgrwt>
<rscale>  0 0.12499672E+03</rscale>
<asrwt>0</asrwt>
<pdfrwt beam="1">  1        4 0.12584009E-02 0.12499672E+03</pdfrwt>
<pdfrwt beam="2">  1       -4 0.73466861E-01 0.12499672E+03</pdfrwt>
<totfact> 0.56994174E+03</totfact>
</mgrwt>
</event>
<event>
 5    1  0.3327068E-002  0.1250025E+03  0.7818608E-02  0.1235065E+00
         -4   -1    0    0    0  501 -0.00000000000E+00  0.00000000000E+00  0.19933133843E+03  0.19933538416E+03  0.12700000000E+01 0.  1.
          4   -1    0    0  501    0  0.00000000000E+00 -0.00000000000E+00 -0.19572715149E+02  0.19613874638E+02  0.12700000000E+01 0.  1.
         25    2    1    2    0    0  0.00000000000E+00  0.00000000000E+00  0.17975862328E+03  0.21894925880E+03  0.12500246112E+03 0.  0.
    9000005    1    3    3    0    0  0.20767508415E+02 -0.50571209851E+02  0.36848197711E+02  0.65935774403E+02  0.10000000000E+01 0.  0.
    9000005    1    3    3    0    0 -0.20767508415E+02  0.50571209851E+02  0.14291042557E+03  0.15301348440E+03  0.10000000000E+01 0.  0.
<mgrwt>
<rscale>  0 0.12500246E+03</rscale>
<asrwt>0</asrwt>
<pdfrwt beam="2">  1        4 0.30146643E-02 0.12500246E+03</pdfrwt>
<pdfrwt beam="1">  1       -4 0.30669836E-01 0.12500246E+03</pdfrwt>
<totfact> 0.87030104E+03</totfact>
</mgrwt>
</event>
<event>
 5    1  0.3327068E-002  0.1249995E+03  0.7818608E-02  0.1235070E+00
          4   -1    0    0  501    0  0.00000000000E+00  0.00000000000E+00  0.11064204566E+03  0.11064933424E+03  0.12700000000E+01 0.  1.
         -4   -1    0    0    0  501 -0.00000000000E+00 -0.00000000000E+00 -0.35285124623E+02  0.35307972466E+02  0.12700000000E+01 0.  1.
         25    2    1    2    0    0  0.00000000000E+00  0.00000000000E+00  0.75356921042E+02  0.14595730671E+03  0.12499947933E+03 0.  0.
    9000005    1    3    3    0    0  0.22732641938E+02  0.48496327014E+02  0.75271973829E+02  0.92387968846E+02  0.10000000000E+01 0.  0.
    9000005    1    3    3    0    0 -0.22732641938E+02 -0.48496327014E+02  0.84947212828E-01  0.53569337866E+02  0.10000000000E+01 0.  0.
<mgrwt>
<rscale>  0 0.12499948E+03</rscale>
<asrwt>0</asrwt>
<pdfrwt beam="1">  1        4 0.17024171E-01 0.12499948E+03</pdfrwt>
<pdfrwt beam="2">  1       -4 0.54307990E-02 0.12499948E+03</pdfrwt>
<totfact> 0.10011692E+04</totfact>
</mgrwt>
</event>
<event>
 5    1  0.3327068E-002  0.1250165E+03  0.7818608E-02  0.1235043E+00
         -4   -1    0    0    0  501 -0.00000000000E+00  0.00000000000E+00  0.41285072510E+02  0.41304601586E+02  0.12700000000E+01 0. -1.
          4   -1    0    0  501    0  0.00000000000E+00 -0.00000000000E+00 -0.94595331609E+02  0.94603856487E+02  0.12700000000E+01 0. -1.
         25    2    1    2    0    0  0.00000000000E+00  0.00000000000E+00 -0.53310259099E+02  0.13590845807E+03  0.12501649991E+03 0.  0.
    9000005    1    3    3    0    0  0.26793970657E+02 -0.21044145322E+02 -0.83617825771E+02  0.90297916380E+02  0.10000000000E+01 0.  0.
    9000005    1    3    3    0    0 -0.26793970657E+02  0.21044145322E+02  0.30307566672E+02  0.45610541693E+02  0.10000000000E+01 0.  0.
<mgrwt>
<rscale>  0 0.12501650E+03</rscale>
<asrwt>0</asrwt>
<pdfrwt beam="2">  1        4 0.14555286E-01 0.12501650E+03</pdfrwt>
<pdfrwt beam="1">  1       -4 0.63537077E-02 0.12501650E+03</pdfrwt>
<totfact> 0.10215157E+04</totfact>
</mgrwt>
</event>
<event>
 5    1  0.3327068E-002  0.1250358E+03  0.7818608E-02  0.1235013E+00
         -4   -1    0    0    0  501 -0.00000000000E+00  0.00000000000E+00  0.92046068639E+02  0.92054829595E+02  0.12700000000E+01 0. -1.
          4   -1    0    0  501    0  0.00000000000E+00 -0.00000000000E+00 -0.42442013289E+02  0.42461010257E+02  0.12700000000E+01 0. -1.
         25    2    1    2    0    0  0.00000000000E+00  0.00000000000E+00  0.49604055349E+02  0.13451583985E+03  0.12503579033E+03 0.  0.
    9000005    1    3    3    0    0  0.47994778396E+02 -0.35927061307E+02  0.57617166954E+01  0.60236615664E+02  0.10000000000E+01 0.  0.
    9000005    1    3    3    0    0 -0.47994778396E+02  0.35927061307E+02  0.43842338654E+02  0.74279224188E+02  0.10000000000E+01 0.  0.
<mgrwt>
<rscale>  0 0.12503579E+03</rscale>
<asrwt>0</asrwt>
<pdfrwt beam="2">  1        4 0.65316758E-02 0.12503579E+03</pdfrwt>
<pdfrwt beam="1">  1       -4 0.14163069E-01 0.12503579E+03</pdfrwt>
<totfact> 0.10240018E+04</totfact>
</mgrwt>
</event>
<event>
 5    1  0.3327068E-002  0.1250235E+03  0.7818608E-02  0.1235033E+00
         -4   -1    0    0    0  501 -0.00000000000E+00  0.00000000000E+00  0.10323830790E+03  0.10324611914E+03  0.12700000000E+01 0.  1.
          4   -1    0    0  501    0  0.00000000000E+00 -0.00000000000E+00 -0.37831551845E+02  0.37852862705E+02  0.12700000000E+01 0.  1.
         25    2    1    2    0    0  0.00000000000E+00  0.00000000000E+00  0.65406756053E+02  0.14109898185E+03  0.12502351355E+03 0.  0.
    9000005    1    3    3    0    0 -0.48372627410E+02 -0.19641648170E+02 -0.60812615630E+01  0.52570782451E+02  0.10000000000E+01 0.  0.
    9000005    1    3    3    0    0  0.48372627410E+02  0.19641648170E+02  0.71488017616E+02  0.88528199395E+02  0.10000000000E+01 0.  0.
<mgrwt>
<rscale>  0 0.12502351E+03</rscale>
<asrwt>0</asrwt>
<pdfrwt beam="2">  1        4 0.58224790E-02 0.12502351E+03</pdfrwt>
<pdfrwt beam="1">  1       -4 0.15885057E-01 0.12502351E+03</pdfrwt>
<totfact> 0.10105506E+04</totfact>
</mgrwt>
</event>
<event>
 5    1  0.3327068E-002  0.1250030E+03  0.7818608E-02  0.1235065E+00
         -4   -1    0    0    0  501 -0.00000000000E+00  0.00000000000E+00  0.27192096828E+03  0.27192393402E+03  0.12700000000E+01 0.  1.
          4   -1    0    0  501    0  0.00000000000E+00 -0.00000000000E+00 -0.14334968236E+02  0.14391115813E+02  0.12700000000E+01 0.  1.
         25    2    1    2    0    0  0.00000000000E+00  0.00000000000E+00  0.25758600004E+03  0.28631504983E+03  0.12500304132E+03 0.  0.
    9000005    1    3    3    0    0  0.55435458905E+02 -0.13110246377E+02  0.69928885920E+02  0.90199876663E+02  0.10000000000E+01 0.  0.
    9000005    1    3    3    0    0 -0.55435458905E+02  0.13110246377E+02  0.18765711412E+03  0.19611517316E+03  0.10000000000E+01 0.  0.
<mgrwt>
<rscale>  0 0.12500304E+03</rscale>
<asrwt>0</asrwt>
<pdfrwt beam="2">  1        4 0.22099269E-02 0.12500304E+03</pdfrwt>
<pdfrwt beam="1">  1       -4 0.41838542E-01 0.12500304E+03</pdfrwt>
<totfact> 0.77342930E+03</totfact>
</mgrwt>
</event>
<event>
 4    1  0.3327068E-002  0.1250664E+03  0.7818608E-02  0.1234966E+00
         -4   -1    0    0    0  501 -0.00000000000E+00  0.00000000000E+00  0.40072979046E+02  0.40093098529E+02  0.12700000000E+01 0. -1.
          4   -1    0    0  501    0  0.00000000000E+00 -0.00000000000E+00 -0.97533231468E+02  0.97541499582E+02  0.12700000000E+01 0. -1.
    9000005    1    1    2    0    0  0.16654173651E+02 -0.54785601191E+02 -0.10953449060E+01  0.57280218036E+02  0.10000000000E+01 0.  0.
    9000005    1    1    2    0    0 -0.16654173651E+02  0.54785601191E+02 -0.56364907516E+02  0.80354380074E+02  0.10000000000E+01 0.  0.
<mgrwt>
<rscale>  0 0.12506639E+03</rscale>
<asrwt>0</asrwt>
<pdfrwt beam="2">  1        4 0.15007296E-01 0.12506639E+03</pdfrwt>
<pdfrwt beam="1">  1       -4 0.61672574E-02 0.12506639E+03</pdfrwt>
<totfact> 0.10167607E+04</totfact>
</mgrwt>
</event>
<event>
 5    1  0.3327068E-002  0.1250048E+03  0.7818608E-02  0.1235062E+00
         -4   -1    0    0    0  501 -0.00000000000E+00  0.00000000000E+00  0.74841639563E+01  0.75911534120E+01  0.12700000000E+01 0.  1.
          4   -1    0    0  501    0  0.00000000000E+00 -0.00000000000E+00 -0.51816345068E+03  0.51816500704E+03  0.12700000000E+01 0.  1.
         25    2    1    2    0    0  0.00000000000E+00  0.00000000000E+00 -0.51067928673E+03  0.52575616045E+03  0.12500482536E+03 0.  0.
    9000005    1    3    3    0    0  0.37977711527E+02  0.31483257710E+02 -0.93971129327E+02  0.10613705873E+03  0.10000000000E+01 0.  0.
    9000005    1    3    3    0    0 -0.37977711527E+02 -0.31483257710E+02 -0.41670815740E+03  0.41961910172E+03  0.10000000000E+01 0.  0.
<mgrwt>
<rscale>  0 0.12500483E+03</rscale>
<asrwt>0</asrwt>
<pdfrwt beam="2">  1        4 0.79725775E-01 0.12500483E+03</pdfrwt>
<pdfrwt beam="1">  1       -4 0.11597599E-02 0.12500483E+03</pdfrwt>
<totfact> 0.53914249E+03</totfact>
</mgrwt>
</event>
<event>
 5    1  0.3327068E-002  0.1249990E+03  0.7818608E-02  0.1235071E+00
          4   -1    0    0  501    0  0.00000000000E+00  0.00000000000E+00  0.52973116742E+02  0.52988338315E+02  0.12700000000E+01 0.  1.
         -4   -1    0    0    0  501 -0.00000000000E+00 -0.00000000000E+00 -0.73707729440E+02  0.73718669815E+02  0.12700000000E+01 0.  1.
         25    2    1    2    0    0  0.00000000000E+00  0.00000000000E+00 -0.20734612698E+02  0.12670700813E+03  0.12499896698E+03 0.  0.
    9000005    1    3    3    0    0  0.27366273491E+02  0.19891336086E+02  0.42892125012E+02  0.54638013911E+02  0.10000000000E+01 0.  0.
    9000005    1    3    3    0    0 -0.27366273491E+02 -0.19891336086E+02 -0.63626737710E+02  0.72068994219E+02  0.10000000000E+01 0.  0.
<mgrwt>
<rscale>  0 0.12499897E+03</rscale>
<asrwt>0</asrwt>
<pdfrwt beam="1">  1        4 0.81517227E-02 0.12499897E+03</pdfrwt>
<pdfrwt beam="2">  1       -4 0.11341663E-01 0.12499897E+03</pdfrwt>
<totfact> 0.10415760E+04</totfact>
</mgrwt>
</event>
<event>
 5    1  0.3327068E-002  0.1250082E+03  0.7818608E-02  0.1235057E+00
          4   -1    0    0  501    0  0.00000000000E+00  0.00000000000E+00  0.58798919964E+02  0.58812633752E+02  0.12700000000E+01 0. -1.
         -4   -1    0    0    0  501 -0.00000000000E+00 -0.00000000000E+00 -0.66415198894E+02  0.66427340337E+02  0.12700000000E+01 0. -1.
         25    2    1    2    0    0  0.00000000000E+00  0.00000000000E+00 -0.76162789310E+01  0.12523997409E+03  0.12500817335E+03 0.  0.
    9000005    1    3    3    0    0 -0.24958254121E+02  0.28843496805E+02  0.45790215858E+02  0.59603738347E+02  0.10000000000E+01 0.  0.
    9000005    1    3    3    0    0  0.24958254121E+02 -0.28843496805E+02 -0.53406494789E+02  0.65636235741E+02  0.10000000000E+01 0.  0.
<mgrwt>
<rscale>  0 0.12500817E+03</rscale>
<asrwt>0</asrwt>
<pdfrwt beam="1">  1        4 0.90479765E-02 0.12500817E+03</pdfrwt>
<pdfrwt beam="2">  1       -4 0.10219712E-01 0.12500817E+03</pdfrwt>
<totfact> 0.10445723E+04</totfact>
</mgrwt>
</event>
<event>
 5    1  0.3327068E-002  0.1249989E+03  0.7818608E-02  0.1235071E+00
         -4   -1    0    0    0  501 -0.00000000000E+00  0.00000000000E+00  0.44287503938E+02  0.44305709622E+02  0.12700000000E+01 0.  1.
          4   -1    0    0  501    0  0.00000000000E+00 -0.00000000000E+00 -0.88159585118E+02  0.88168732259E+02  0.12700000000E+01 0.  1.
         25    2    1    2    0    0  0.00000000000E+00  0.00000000000E+00 -0.43872081180E+02  0.13247444188E+03  0.12499887297E+03 0.  0.
    9000005    1    3    3    0    0 -0.47991978264E+02 -0.35245221158E+02 -0.42036717800E+02  0.72894041153E+02  0.10000000000E+01 0.  0.
    9000005    1    3    3    0    0  0.47991978264E+02  0.35245221158E+02 -0.18353633801E+01  0.59580400728E+02  0.10000000000E+01 0.  0.
<mgrwt>
<rscale>  0 0.12499887E+03</rscale>
<asrwt>0</asrwt>
<pdfrwt beam="2">  1        4 0.13565117E-01 0.12499887E+03</pdfrwt>
<pdfrwt beam="1">  1       -4 0.68155662E-02 0.12499887E+03</pdfrwt>
<totfact> 0.10291844E+04</totfact>
</mgrwt>
</event>
<event>
 5    1  0.3327068E-002  0.1250008E+03  0.7818608E-02  0.1235068E+00
          4   -1    0    0  501    0  0.00000000000E+00  0.00000000000E+00  0.24382800110E+02  0.24415852252E+02  0.12700000000E+01 0.  1.
         -4   -1    0    0    0  501 -0.00000000000E+00 -0.00000000000E+00 -0.16006311024E+03  0.16006814849E+03  0.12700000000E+01 0.  1.
         25    2    1    2    0    0  0.00000000000E+00  0.00000000000E+00 -0.13568031013E+03  0.18448400074E+03  0.12500079988E+03 0.  0.
    9000005    1    3    3    0    0 -0.46107984161E+02 -0.26864646702E+02 -0.19842968257E+02  0.56942065603E+02  0.10000000000E+01 0.  0.
    9000005    1    3    3    0    0  0.46107984161E+02  0.26864646702E+02 -0.11583734187E+03  0.12754193514E+03  0.10000000000E+01 0.  0.
<mgrwt>
<rscale>  0 0.12500080E+03</rscale>
<asrwt>0</asrwt>
<pdfrwt beam="1">  1        4 0.37541301E-02 0.12500080E+03</pdfrwt>
<pdfrwt beam="2">  1       -4 0.24628023E-01 0.12500080E+03</pdfrwt>
<totfact> 0.92814375E+03</totfact>
</mgrwt>
</event>
<event>
 5    1  0.3327068E-002  0.1249993E+03  0.7818608E-02  0.1235070E+00
         -4   -1    0    0    0  501 -0.00000000000E+00  0.00000000000E+00  0.81827495300E+01  0.82807179562E+01  0.12700000000E+01 0.  1.
          4   -1    0    0  501    0  0.00000000000E+00 -0.00000000000E+00 -0.47443153249E+03  0.47443323231E+03  0.12700000000E+01 0.  1.
         25    2    1    2    0    0  0.00000000000E+00  0.00000000000E+00 -0.46624878296E+03  0.48271395027E+03  0.12499932068E+03 0.  0.
    9000005    1    3    3    0    0 -0.38900433160E+02  0.48900808694E+02 -0.23629654483E+03  0.24442092769E+03  0.10000000000E+01 0.  0.
    9000005    1    3    3    0    0  0.38900433160E+02 -0.48900808694E+02 -0.22995223813E+03  0.23829302258E+03  0.10000000000E+01 0.  0.
<mgrwt>
<rscale>  0 0.12499932E+03</rscale>
<asrwt>0</asrwt>
<pdfrwt beam="2">  1        4 0.72997112E-01 0.12499932E+03</pdfrwt>
<pdfrwt beam="1">  1       -4 0.12665517E-02 0.12499932E+03</pdfrwt>
<totfact> 0.57231810E+03</totfact>
</mgrwt>
</event>
<event>
 5    1  0.3327068E-002  0.1250048E+03  0.7818608E-02  0.1235062E+00
         -4   -1    0    0    0  501 -0.00000000000E+00  0.00000000000E+00  0.82350680976E+02  0.82360473270E+02  0.12700000000E+01 0.  1.
          4   -1    0    0  501    0  0.00000000000E+00 -0.00000000000E+00 -0.47416843017E+02  0.47433847638E+02  0.12700000000E+01 0.  1.
         25    2    1    2    0    0  0.00000000000E+00  0.00000000000E+00  0.34933837959E+02  0.12979432091E+03  0.12500477073E+03 0.  0.
    9000005    1    3    3    0    0 -0.47669533288E+02  0.23993877141E+02 -0.16297601838E+02  0.55809518631E+02  0.10000000000E+01 0.  0.
    9000005    1    3    3    0    0  0.47669533288E+02 -0.23993877141E+02  0.51231439796E+02  0.73984802276E+02  0.10000000000E+01 0.  0.
<mgrwt>
<rscale>  0 0.12500477E+03</rscale>
<asrwt>0</asrwt>
<pdfrwt beam="2">  1        4 0.72969603E-02 0.12500477E+03</pdfrwt>
<pdfrwt beam="1">  1       -4 0.12671397E-01 0.12500477E+03</pdfrwt>
<totfact> 0.10347795E+04</totfact>
</mgrwt>
</event>
<event>
 5    1  0.3327068E-002  0.1250010E+03  0.7818608E-02  0.1235068E+00
         -4   -1    0    0    0  501 -0.00000000000E+00  0.00000000000E+00  0.35385847236E+01  0.37595853290E+01  0.12700000000E+01 0. -1.
          4   -1    0    0  501    0  0.00000000000E+00 -0.00000000000E+00 -0.10702700604E+04  0.10702708139E+04  0.12700000000E+01 0. -1.
         25    2    1    2    0    0  0.00000000000E+00  0.00000000000E+00 -0.10667314757E+04  0.10740303992E+04  0.12500102908E+03 0.  0.
    9000005    1    3    3    0    0  0.54440853327E+02 -0.27867495228E+02 -0.64370425969E+03  0.64660388008E+03  0.10000000000E+01 0.  0.
    9000005    1    3    3    0    0 -0.54440853327E+02  0.27867495228E+02 -0.42302721601E+03  0.42742651916E+03  0.10000000000E+01 0.  0.
<mgrwt>
<rscale>  0 0.12500103E+03</rscale>
<asrwt>0</asrwt>
<pdfrwt beam="2">  1        4 0.16467374E+00 0.12500103E+03</pdfrwt>
<pdfrwt beam="1">  1       -4 0.56145651E-03 0.12500103E+03</pdfrwt>
<totfact> 0.28255567E+03</totfact>
</mgrwt>
</event>
<event>
 5    1  0.3327068E-002  0.1249922E+03  0.7818608E-02  0.1235081E+00
         -4   -1    0    0    0  501 -0.00000000000E+00  0.00000000000E+00  0.30678661472E+02  0.30704937220E+02  0.12700000000E+01 0. -1.
          4   -1    0    0  501    0  0.00000000000E+00 -0.00000000000E+00 -0.12722811209E+03  0.12723445055E+03  0.12700000000E+01 0. -1.
         25    2    1    2    0    0  0.00000000000E+00  0.00000000000E+00 -0.96549450621E+02  0.15793938777E+03  0.12499221493E+03 0.  0.
    9000005    1    3    3    0    0  0.58363541341E+02  0.16643760699E+02 -0.67078330846E+02  0.90464469253E+02  0.10000000000E+01 0.  0.
    9000005    1    3    3    0    0 -0.58363541341E+02 -0.16643760699E+02 -0.29471119775E+02  0.67474918517E+02  0.10000000000E+01 0.  0.
<mgrwt>
<rscale>  0 0.12499221E+03</rscale>
<asrwt>0</asrwt>
<pdfrwt beam="2">  1        4 0.19576064E-01 0.12499221E+03</pdfrwt>
<pdfrwt beam="1">  1       -4 0.47223029E-02 0.12499221E+03</pdfrwt>
<totfact> 0.97758641E+03</totfact>
</mgrwt>
</event>
<event>
 5    1  0.3327068E-002  0.1250098E+03  0.7818608E-02  0.1235054E+00
          4   -1    0    0  501    0  0.00000000000E+00  0.00000000000E+00  0.10893630523E+03  0.10894370793E+03  0.12700000000E+01 0.  1.
         -4   -1    0    0    0  501 -0.00000000000E+00 -0.00000000000E+00 -0.35843853525E+02  0.35866345444E+02  0.12700000000E+01 0.  1.
         25    2    1    2    0    0  0.00000000000E+00  0.00000000000E+00  0.73092451708E+02  0.14481005338E+03  0.12500977987E+03 0.  0.
    9000005    1    3    3    0    0  0.32109908363E+02  0.18033378641E+01 -0.25528369808E+02  0.41073055737E+02  0.10000000000E+01 0.  0.
    9000005    1    3    3    0    0 -0.32109908363E+02 -0.18033378641E+01  0.98620821516E+02  0.10373699764E+03  0.10000000000E+01 0.  0.
<mgrwt>
<rscale>  0 0.12500978E+03</rscale>
<asrwt>0</asrwt>
<pdfrwt beam="1">  1        4 0.16761731E-01 0.12500978E+03</pdfrwt>
<pdfrwt beam="2">  1       -4 0.55167387E-02 0.12500978E+03</pdfrwt>
<totfact> 0.10032640E+04</totfact>
</mgrwt>
</event>
<event>
 5    1  0.3327068E-002  0.1249986E+03  0.7818608E-02  0.1235072E+00
         -4   -1    0    0    0  501 -0.00000000000E+00  0.00000000000E+00  0.57171414240E+02  0.57185518326E+02  0.12700000000E+01 0. -1.
          4   -1    0    0  501    0  0.00000000000E+00 -0.00000000000E+00 -0.68295216706E+02  0.68307023979E+02  0.12700000000E+01 0. -1.
         25    2    1    2    0    0  0.00000000000E+00  0.00000000000E+00 -0.11123802466E+02  0.12549254231E+03  0.12499855676E+03 0.  0.
    9000005    1    3    3    0    0 -0.12979227681E+02 -0.47395935226E+02  0.33195386661E+02  0.59310780830E+02  0.10000000000E+01 0.  0.
    9000005    1    3    3    0    0  0.12979227681E+02  0.47395935226E+02 -0.44319189127E+02  0.66181761475E+02  0.10000000000E+01 0.  0.
<mgrwt>
<rscale>  0 0.12499856E+03</rscale>
<asrwt>0</asrwt>
<pdfrwt beam="2">  1        4 0.10508950E-01 0.12499856E+03</pdfrwt>
<pdfrwt beam="1">  1       -4 0.87975953E-02 0.12499856E+03</pdfrwt>
<totfact> 0.10442459E+04</totfact>
</mgrwt>
</event>
<event>
 5    1  0.3327068E-002  0.1250009E+03  0.7818608E-02  0.1235068E+00
         -4   -1    0    0    0  501 -0.00000000000E+00  0.00000000000E+00  0.14346805613E+03  0.14347367713E+03  0.12700000000E+01 0.  1.
          4   -1    0    0  501    0  0.00000000000E+00 -0.00000000000E+00 -0.27206746134E+02  0.27236371549E+02  0.12700000000E+01 0.  1.
         25    2    1    2    0    0  0.00000000000E+00  0.00000000000E+00  0.11626130999E+03  0.17071004868E+03  0.12500091407E+03 0.  0.
    9000005    1    3    3    0    0 -0.31465610899E+02 -0.34003267517E+02  0.11540746854E+03  0.12436314030E+03  0.10000000000E+01 0.  0.
    9000005    1    3    3    0    0  0.31465610899E+02  0.34003267517E+02  0.85384145719E+00  0.46346908379E+02  0.10000000000E+01 0.  0.
<mgrwt>
<rscale>  0 0.12500091E+03</rscale>
<asrwt>0</asrwt>
<pdfrwt beam="2">  1        4 0.41883646E-02 0.12500091E+03</pdfrwt>
<pdfrwt beam="1">  1       -4 0.22074719E-01 0.12500091E+03</pdfrwt>
<totfact> 0.95314503E+03</totfact>
</mgrwt>
</event>
<event>
 5    1  0.3327068E-002  0.1249987E+03  0.7818608E-02  0.1235071E+00
         -4   -1    0    0    0  501 -0.00000000000E+00  0.00000000000E+00  0.14495794538E+02  0.14551321565E+02  0.12700000000E+01 0.  1.
          4   -1    0    0  501    0  0.00000000000E+00 -0.00000000000E+00 -0.26889687657E+03  0.26889987566E+03  0.12700000000E+01 0.  1.
         25    2    1    2    0    0  0.00000000000E+00  0.00000000000E+00 -0.25440108203E+03  0.28345119722E+03  0.12499868267E+03 0.  0.
    9000005    1    3    3    0    0  0.94784675609E+01  0.51708333848E+02 -0.20381751493E+03  0.21049031457E+03  0.10000000000E+01 0.  0.
    9000005    1    3    3    0    0 -0.94784675609E+01 -0.51708333848E+02 -0.50583567106E+02  0.72960882655E+02  0.10000000000E+01 0.  0.
<mgrwt>
<rscale>  0 0.12499868E+03</rscale>
<asrwt>0</asrwt>
<pdfrwt beam="2">  1        4 0.41373248E-01 0.12499868E+03</pdfrwt>
<pdfrwt beam="1">  1       -4 0.22346245E-02 0.12499868E+03</pdfrwt>
<totfact> 0.77724993E+03</totfact>
</mgrwt>
</event>
<event>
 4    1  0.3327068E-002  0.1249379E+03  0.7818608E-02  0.1235166E+00
          4   -1    0    0  501    0  0.00000000000E+00  0.00000000000E+00  0.81016681406E+01  0.82006052618E+01  0.12700000000E+01 0. -1.
         -4   -1    0    0    0  501 -0.00000000000E+00 -0.00000000000E+00 -0.47865197132E+03  0.47865365615E+03  0.12700000000E+01 0. -1.
    9000005    1    1    2    0    0  0.47026032640E+02 -0.41108667136E+02 -0.23538181511E+03  0.24353022224E+03  0.10000000000E+01 0.  0.
    9000005    1    1    2    0    0 -0.47026032640E+02  0.41108667136E+02 -0.23516848807E+03  0.24332403918E+03  0.10000000000E+01 0.  0.
<mgrwt>
<rscale>  0 0.12493792E+03</rscale>
<asrwt>0</asrwt>
<pdfrwt beam="1">  1        4 0.12541510E-02 0.12493792E+03</pdfrwt>
<pdfrwt beam="2">  1       -4 0.73646483E-01 0.12493792E+03</pdfrwt>
<totfact> 0.56976718E+03</totfact>
</mgrwt>
</event>
<event>
 5    1  0.3327068E-002  0.1250008E+03  0.7818608E-02  0.1235068E+00
          4   -1    0    0  501    0  0.00000000000E+00  0.00000000000E+00  0.17365745692E+03  0.17366210077E+03  0.12700000000E+01 0.  1.
         -4   -1    0    0    0  501 -0.00000000000E+00 -0.00000000000E+00 -0.22471417082E+02  0.22507276283E+02  0.12700000000E+01 0.  1.
         25    2    1    2    0    0  0.00000000000E+00  0.00000000000E+00  0.15118603984E+03  0.19616937706E+03  0.12500082340E+03 0.  0.
    9000005    1    3    3    0    0 -0.30115803595E+02 -0.25421556209E+02 -0.51751639512E+00  0.39426957396E+02  0.10000000000E+01 0.  0.
    9000005    1    3    3    0    0  0.30115803595E+02  0.25421556209E+02  0.15170355624E+03  0.15674241966E+03  0.10000000000E+01 0.  0.
<mgrwt>
<rscale>  0 0.12500082E+03</rscale>
<asrwt>0</asrwt>
<pdfrwt beam="1">  1        4 0.26719648E-01 0.12500082E+03</pdfrwt>
<pdfrwt beam="2">  1       -4 0.34602566E-02 0.12500082E+03</pdfrwt>
<totfact> 0.90783131E+03</totfact>
</mgrwt>
</event>
<event>
 5    1  0.3327068E-002  0.1249985E+03  0.7818608E-02  0.1235072E+00
          4   -1    0    0  501    0  0.00000000000E+00  0.00000000000E+00  0.24207065585E+02  0.24240357345E+02  0.12700000000E+01 0. -1.
         -4   -1    0    0    0  501 -0.00000000000E+00 -0.00000000000E+00 -0.16121766317E+03  0.16122266534E+03  0.12700000000E+01 0. -1.
         25    2    1    2    0    0  0.00000000000E+00  0.00000000000E+00 -0.13701059759E+03  0.18546302268E+03  0.12499851572E+03 0.  0.
    9000005    1    3    3    0    0  0.32928812012E+02  0.41465742418E+02 -0.11774704523E+03  0.12910879565E+03  0.10000000000E+01 0.  0.
    9000005    1    3    3    0    0 -0.32928812012E+02 -0.41465742418E+02 -0.19263552360E+02  0.56354227032E+02  0.10000000000E+01 0.  0.
<mgrwt>
<rscale>  0 0.12499852E+03</rscale>
<asrwt>0</asrwt>
<pdfrwt beam="1">  1        4 0.37271097E-02 0.12499852E+03</pdfrwt>
<pdfrwt beam="2">  1       -4 0.24805662E-01 0.12499852E+03</pdfrwt>
<totfact> 0.92645864E+03</totfact>
</mgrwt>
</event>
<event>
 5    1  0.3327068E-002  0.1249998E+03  0.7818608E-02  0.1235070E+00
         -4   -1    0    0    0  501 -0.00000000000E+00  0.00000000000E+00  0.15786395539E+02  0.15837398275E+02  0.12700000000E+01 0.  1.
          4   -1    0    0  501    0  0.00000000000E+00 -0.00000000000E+00 -0.24699161618E+03  0.24699488125E+03  0.12700000000E+01 0.  1.
         25    2    1    2    0    0  0.00000000000E+00  0.00000000000E+00 -0.23120522064E+03  0.26283227953E+03  0.12499981243E+03 0.  0.
    9000005    1    3    3    0    0 -0.23670406267E+01 -0.13063236371E+02 -0.24400254111E+03  0.24436548671E+03  0.10000000000E+01 0.  0.
    9000005    1    3    3    0    0  0.23670406267E+01  0.13063236371E+02  0.12797320468E+02  0.18466792818E+02  0.10000000000E+01 0.  0.
<mgrwt>
<rscale>  0 0.12499981E+03</rscale>
<asrwt>0</asrwt>
<pdfrwt beam="2">  1        4 0.38002882E-01 0.12499981E+03</pdfrwt>
<pdfrwt beam="1">  1       -4 0.24328509E-02 0.12499981E+03</pdfrwt>
<totfact> 0.80510564E+03</totfact>
</mgrwt>
</event>
<event>
 5    1  0.3327068E-002  0.1249996E+03  0.7818608E-02  0.1235070E+00
          4   -1    0    0  501    0  0.00000000000E+00  0.00000000000E+00  0.76082242284E+03  0.76082348281E+03  0.12700000000E+01 0.  1.
         -4   -1    0    0    0  501 -0.00000000000E+00 -0.00000000000E+00 -0.50545950130E+01  0.52117013293E+01  0.12700000000E+01 0.  1.
         25    2    1    2    0    0  0.00000000000E+00  0.00000000000E+00  0.75576782782E+03  0.76603518413E+03  0.12499957505E+03 0.  0.
    9000005    1    3    3    0    0  0.83616130285E+01 -0.29963802455E+02  0.71002870696E+03  0.71071056749E+03  0.10000000000E+01 0.  0.
    9000005    1    3    3    0    0 -0.83616130285E+01  0.29963802455E+02  0.45739120860E+02  0.55324616646E+02  0.10000000000E+01 0.  0.
<mgrwt>
<rscale>  0 0.12499958E+03</rscale>
<asrwt>0</asrwt>
<pdfrwt beam="1">  1        4 0.11706167E+00 0.12499958E+03</pdfrwt>
<pdfrwt beam="2">  1       -4 0.78979732E-03 0.12499958E+03</pdfrwt>
<totfact> 0.39819065E+03</totfact>
</mgrwt>
</event>
<event>
 5    1  0.3327068E-002  0.1250003E+03  0.7818608E-02  0.1235069E+00
          4   -1    0    0  501    0  0.00000000000E+00  0.00000000000E+00  0.11946814573E+02  0.12014128285E+02  0.12700000000E+01 0.  1.
         -4   -1    0    0    0  501 -0.00000000000E+00 -0.00000000000E+00 -0.32598469541E+03  0.32598716929E+03  0.12700000000E+01 0.  1.
         25    2    1    2    0    0  0.00000000000E+00  0.00000000000E+00 -0.31403788084E+03  0.33800129758E+03  0.12500034625E+03 0.  0.
    9000005    1    3    3    0    0  0.45189535224E+02 -0.42580144922E+02 -0.13787796017E+03  0.15121671447E+03  0.10000000000E+01 0.  0.
    9000005    1    3    3    0    0 -0.45189535224E+02  0.42580144922E+02 -0.17615992067E+03  0.18678458310E+03  0.10000000000E+01 0.  0.
<mgrwt>
<rscale>  0 0.12500035E+03</rscale>
<asrwt>0</asrwt>
<pdfrwt beam="1">  1        4 0.18433400E-02 0.12500035E+03</pdfrwt>
<pdfrwt beam="2">  1       -4 0.50156853E-01 0.12500035E+03</pdfrwt>
<totfact> 0.71064506E+03</totfact>
</mgrwt>
</event>
<event>
 5    1  0.3327068E-002  0.1250004E+03  0.7818608E-02  0.1235069E+00
          4   -1    0    0  501    0  0.00000000000E+00  0.00000000000E+00  0.46310219372E+03  0.46310393512E+03  0.12700000000E+01 0.  1.
         -4   -1    0    0    0  501 -0.00000000000E+00 -0.00000000000E+00 -0.83854517348E+01  0.84810789877E+01  0.12700000000E+01 0.  1.
         25    2    1    2    0    0  0.00000000000E+00  0.00000000000E+00  0.45471674198E+03  0.47158501411E+03  0.12500044038E+03 0.  0.
    9000005    1    3    3    0    0  0.14838790059E+02 -0.49426532462E+02  0.36032043064E+03  0.36399860514E+03  0.10000000000E+01 0.  0.
    9000005    1    3    3    0    0 -0.14838790059E+02  0.49426532462E+02  0.94396311340E+02  0.10758640897E+03  0.10000000000E+01 0.  0.
<mgrwt>
<rscale>  0 0.12500044E+03</rscale>
<asrwt>0</asrwt>
<pdfrwt beam="1">  1        4 0.71253966E-01 0.12500044E+03</pdfrwt>
<pdfrwt beam="2">  1       -4 0.12975597E-02 0.12500044E+03</pdfrwt>
<totfact> 0.58137893E+03</totfact>
</mgrwt>
</event>
<event>
 5    1  0.3327068E-002  0.1249908E+03  0.7818608E-02  0.1235084E+00
          4   -1    0    0  501    0  0.00000000000E+00  0.00000000000E+00  0.66416092989E+02  0.66428234268E+02  0.12700000000E+01 0. -1.
         -4   -1    0    0    0  501 -0.00000000000E+00 -0.00000000000E+00 -0.58781800355E+02  0.58795518137E+02  0.12700000000E+01 0. -1.
         25    2    1    2    0    0  0.00000000000E+00  0.00000000000E+00  0.76342926338E+01  0.12522375240E+03  0.12499082263E+03 0.  0.
    9000005    1    3    3    0    0 -0.23631938360E+01  0.31167687934E+01  0.66298241886E+02  0.66421049450E+02  0.10000000000E+01 0.  0.
    9000005    1    3    3    0    0  0.23631938360E+01 -0.31167687934E+01 -0.58663949253E+02  0.58802702954E+02  0.10000000000E+01 0.  0.
<mgrwt>
<rscale>  0 0.12499082E+03</rscale>
<asrwt>0</asrwt>
<pdfrwt beam="1">  1        4 0.10219850E-01 0.12499082E+03</pdfrwt>
<pdfrwt beam="2">  1       -4 0.90453430E-02 0.12499082E+03</pdfrwt>
<totfact> 0.10450172E+04</totfact>
</mgrwt>
</event>
<event>
 5    1  0.3327068E-002  0.1249954E+03  0.7818608E-02  0.1235076E+00
          4   -1    0    0  501    0  0.00000000000E+00  0.00000000000E+00  0.22068347833E+03  0.22068713263E+03  0.12700000000E+01 0.  1.
         -4   -1    0    0    0  501 -0.00000000000E+00 -0.00000000000E+00 -0.17672808546E+02  0.17718382034E+02  0.12700000000E+01 0.  1.
         25    2    1    2    0    0  0.00000000000E+00  0.00000000000E+00  0.20301066979E+03  0.23840551467E+03  0.12499542942E+03 0.  0.
    9000005    1    3    3    0    0 -0.33127594661E+02  0.52172266484E+02  0.11914993919E+03  0.13422775766E+03  0.10000000000E+01 0.  0.
    9000005    1    3    3    0    0  0.33127594661E+02 -0.52172266484E+02  0.83860730602E+02  0.10417775701E+03  0.10000000000E+01 0.  0.
<mgrwt>
<rscale>  0 0.12499543E+03</rscale>
<asrwt>0</asrwt>
<pdfrwt beam="1">  1        4 0.33955090E-01 0.12499543E+03</pdfrwt>
<pdfrwt beam="2">  1       -4 0.27226804E-02 0.12499543E+03</pdfrwt>
<totfact> 0.84043976E+03</totfact>
</mgrwt>
</event>
<event>
 5    1  0.3327068E-002  0.1249960E+03  0.7818608E-02  0.1235075E+00
          4   -1    0    0  501    0  0.00000000000E+00  0.00000000000E+00  0.35837749453E+01  0.38021497680E+01  0.12700000000E+01 0. -1.
         -4   -1    0    0    0  501 -0.00000000000E+00 -0.00000000000E+00 -0.10574692690E+04  0.10574700316E+04  0.12700000000E+01 0. -1.
         25    2    1    2    0    0  0.00000000000E+00  0.00000000000E+00 -0.10538854941E+04  0.10612721814E+04  0.12499603360E+03 0.  0.
    9000005    1    3    3    0    0  0.61576218908E+02 -0.94226947854E+01 -0.56904046113E+03  0.57244079546E+03  0.10000000000E+01 0.  0.
    9000005    1    3    3    0    0 -0.61576218908E+02  0.94226947854E+01 -0.48484503294E+03  0.48883138594E+03  0.10000000000E+01 0.  0.
<mgrwt>
<rscale>  0 0.12499603E+03</rscale>
<asrwt>0</asrwt>
<pdfrwt beam="1">  1        4 0.56820756E-03 0.12499603E+03</pdfrwt>
<pdfrwt beam="2">  1       -4 0.16270420E+00 0.12499603E+03</pdfrwt>
<totfact> 0.28647928E+03</totfact>
</mgrwt>
</event>
<event>
 5    1  0.3327068E-002  0.1249986E+03  0.7818608E-02  0.1235071E+00
          4   -1    0    0  501    0  0.00000000000E+00  0.00000000000E+00  0.83522399303E+03  0.83522495858E+03  0.12700000000E+01 0. -1.
         -4   -1    0    0    0  501 -0.00000000000E+00 -0.00000000000E+00 -0.45895819560E+01  0.47620544443E+01  0.12700000000E+01 0. -1.
         25    2    1    2    0    0  0.00000000000E+00  0.00000000000E+00  0.83063441108E+03  0.83998701303E+03  0.12499862874E+03 0.  0.
    9000005    1    3    3    0    0  0.51947903085E+02  0.39231715431E+01  0.18338687434E+03  0.19064553913E+03  0.10000000000E+01 0.  0.
    9000005    1    3    3    0    0 -0.51947903085E+02 -0.39231715431E+01  0.64724753674E+03  0.64934147389E+03  0.10000000000E+01 0.  0.
<mgrwt>
<rscale>  0 0.12499863E+03</rscale>
<asrwt>0</asrwt>
<pdfrwt beam="1">  1        4 0.12850945E+00 0.12499863E+03</pdfrwt>
<pdfrwt beam="2">  1       -4 0.71943032E-03 0.12499863E+03</pdfrwt>
<totfact> 0.36541670E+03</totfact>
</mgrwt>
</event>
<event>
 5    1  0.3327068E-002  0.1250011E+03  0.7818608E-02  0.1235068E+00
          4   -1    0    0  501    0  0.00000000000E+00  0.00000000000E+00  0.72950776559E+02  0.72961830436E+02  0.12700000000E+01 0.  1.
         -4   -1    0    0    0  501 -0.00000000000E+00 -0.00000000000E+00 -0.53524686522E+02  0.53539751282E+02  0.12700000000E+01 0.  1.
         25    2    1    2    0    0  0.00000000000E+00  0.00000000000E+00  0.19426090037E+02  0.12650158172E+03  0.12500110881E+03 0.  0.
    9000005    1    3    3    0    0 -0.58936414330E+02  0.23381111728E+01 -0.11183093590E+02  0.60041896041E+02  0.10000000000E+01 0.  0.
    9000005    1    3    3    0    0  0.58936414330E+02 -0.23381111728E+01  0.30609183627E+02  0.66459685677E+02  0.10000000000E+01 0.  0.
<mgrwt>
<rscale>  0 0.12500111E+03</rscale>
<asrwt>0</asrwt>
<pdfrwt beam="1">  1        4 0.11225205E-01 0.12500111E+03</pdfrwt>
<pdfrwt beam="2">  1       -4 0.82365763E-02 0.12500111E+03</pdfrwt>
<totfact> 0.10419733E+04</totfact>
</mgrwt>
</event>
<event>
 5    1  0.3327068E-002  0.1249988E+03  0.7818608E-02  0.1235071E+00
         -4   -1    0    0    0  501 -0.00000000000E+00  0.00000000000E+00  0.41365610286E+03  0.41365805242E+03  0.12700000000E+01 0.  1.
          4   -1    0    0  501    0  0.00000000000E+00 -0.00000000000E+00 -0.93983658726E+01  0.94837851660E+01  0.12700000000E+01 0.  1.
         25    2    1    2    0    0  0.00000000000E+00  0.00000000000E+00  0.40425773699E+03  0.42314183759E+03  0.12499878721E+03 0.  0.
    9000005    1    3    3    0    0  0.48293306218E+02 -0.38347656654E+01  0.33575620154E+03  0.33923469122E+03  0.10000000000E+01 0.  0.
    9000005    1    3    3    0    0 -0.48293306218E+02  0.38347656654E+01  0.68501535444E+02  0.83907146366E+02  0.10000000000E+01 0.  0.
<mgrwt>
<rscale>  0 0.12499879E+03</rscale>
<asrwt>0</asrwt>
<pdfrwt beam="2">  1        4 0.14526229E-02 0.12499879E+03</pdfrwt>
<pdfrwt beam="1">  1       -4 0.63646132E-01 0.12499879E+03</pdfrwt>
<totfact> 0.62364259E+03</totfact>
</mgrwt>
</event>
<event>
 5    1  0.3327068E-002  0.1249997E+03  0.7818608E-02  0.1235070E+00
         -4   -1    0    0    0  501 -0.00000000000E+00  0.00000000000E+00  0.13862756985E+02  0.13920809287E+02  0.12700000000E+01 0.  1.
          4   -1    0    0  501    0  0.00000000000E+00 -0.00000000000E+00 -0.28113037849E+03  0.28113324707E+03  0.12700000000E+01 0.  1.
         25    2    1    2    0    0  0.00000000000E+00  0.00000000000E+00 -0.26726762150E+03  0.29505405636E+03  0.12499965868E+03 0.  0.
    9000005    1    3    3    0    0  0.53946093034E+02 -0.12170563831E+02 -0.20232725021E+03  0.20975132838E+03  0.10000000000E+01 0.  0.
    9000005    1    3    3    0    0 -0.53946093034E+02  0.12170563831E+02 -0.64940371291E+02  0.85302727981E+02  0.10000000000E+01 0.  0.
<mgrwt>
<rscale>  0 0.12499966E+03</rscale>
<asrwt>0</asrwt>
<pdfrwt beam="2">  1        4 0.43255509E-01 0.12499966E+03</pdfrwt>
<pdfrwt beam="1">  1       -4 0.21374183E-02 0.12499966E+03</pdfrwt>
<totfact> 0.76224046E+03</totfact>
</mgrwt>
</event>
<event>
 5    1  0.3327068E-002  0.1250057E+03  0.7818608E-02  0.1235060E+00
          4   -1    0    0  501    0  0.00000000000E+00  0.00000000000E+00  0.68573995300E+02  0.68585754581E+02  0.12700000000E+01 0. -1.
         -4   -1    0    0    0  501 -0.00000000000E+00 -0.00000000000E+00 -0.56945443643E+02  0.56959603683E+02  0.12700000000E+01 0. -1.
         25    2    1    2    0    0  0.00000000000E+00  0.00000000000E+00  0.11628551657E+02  0.12554535826E+03  0.12500565494E+03 0.  0.
    9000005    1    3    3    0    0  0.18157772810E+02 -0.55371129505E+02 -0.16864998519E+02  0.60672027089E+02  0.10000000000E+01 0.  0.
    9000005    1    3    3    0    0 -0.18157772810E+02  0.55371129505E+02  0.28493550176E+02  0.64873331175E+02  0.10000000000E+01 0.  0.
<mgrwt>
<rscale>  0 0.12500565E+03</rscale>
<asrwt>0</asrwt>
<pdfrwt beam="1">  1        4 0.10551839E-01 0.12500565E+03</pdfrwt>
<pdfrwt beam="2">  1       -4 0.87628313E-02 0.12500565E+03</pdfrwt>
<totfact> 0.10439621E+04</totfact>
</mgrwt>
</event>
<event>
 5    1  0.3327068E-002  0.1249896E+03  0.7818608E-02  0.1235086E+00
          4   -1    0    0  501    0  0.00000000000E+00  0.00000000000E+00  0.10459646697E+03  0.10460417679E+03  0.12700000000E+01 0. -1.
         -4   -1    0    0    0  501 -0.00000000000E+00 -0.00000000000E+00 -0.37319776176E+02  0.37341379110E+02  0.12700000000E+01 0. -1.
         25    2    1    2    0    0  0.00000000000E+00  0.00000000000E+00  0.67276690791E+02  0.14194555590E+03  0.12498955043E+03 0.  0.
    9000005    1    3    3    0    0  0.54261380500E+02 -0.14103897431E+02  0.23019736906E+01  0.56120552558E+02  0.10000000000E+01 0.  0.
    9000005    1    3    3    0    0 -0.54261380500E+02  0.14103897431E+02  0.64974717101E+02  0.85825003343E+02  0.10000000000E+01 0.  0.
<mgrwt>
<rscale>  0 0.12498955E+03</rscale>
<asrwt>0</asrwt>
<pdfrwt beam="1">  1        4 0.16094019E-01 0.12498955E+03</pdfrwt>
<pdfrwt beam="2">  1       -4 0.57437590E-02 0.12498955E+03</pdfrwt>
<totfact> 0.10095797E+04</totfact>
</mgrwt>
</event>
<event>
 5    1  0.3327068E-002  0.1249754E+03  0.7818608E-02  0.1235108E+00
         -4   -1    0    0    0  501 -0.00000000000E+00  0.00000000000E+00  0.25899149463E+03  0.25899460842E+03  0.12700000000E+01 0.  1.
          4   -1    0    0  501    0  0.00000000000E+00 -0.00000000000E+00 -0.15046654147E+02  0.15100155663E+02  0.12700000000E+01 0.  1.
         25    2    1    2    0    0  0.00000000000E+00  0.00000000000E+00  0.24394484048E+03  0.27409476408E+03  0.12497541558E+03 0.  0.
    9000005    1    3    3    0    0 -0.44978435138E+01 -0.46958124184E+02  0.32120748346E+02  0.57079230001E+02  0.10000000000E+01 0.  0.
    9000005    1    3    3    0    0  0.44978435138E+01  0.46958124184E+02  0.21182409214E+03  0.21701553408E+03  0.10000000000E+01 0.  0.
<mgrwt>
<rscale>  0 0.12497542E+03</rscale>
<asrwt>0</asrwt>
<pdfrwt beam="2">  1        4 0.23192248E-02 0.12497542E+03</pdfrwt>
<pdfrwt beam="1">  1       -4 0.39849202E-01 0.12497542E+03</pdfrwt>
<totfact> 0.79010852E+03</totfact>
</mgrwt>
</event>
<event>
 5    1  0.3327068E-002  0.1250008E+03  0.7818608E-02  0.1235068E+00
         -4   -1    0    0    0  501 -0.00000000000E+00  0.00000000000E+00  0.10499493370E+03  0.10500261427E+03  0.12700000000E+01 0. -1.
          4   -1    0    0  501    0  0.00000000000E+00 -0.00000000000E+00 -0.37184785324E+02  0.37206466636E+02  0.12700000000E+01 0. -1.
         25    2    1    2    0    0  0.00000000000E+00  0.00000000000E+00  0.67810148380E+02  0.14220908091E+03  0.12500082587E+03 0.  0.
    9000005    1    3    3    0    0 -0.19114183562E+02  0.43063036811E+02 -0.12801926251E+02  0.48833046888E+02  0.10000000000E+01 0.  0.
    9000005    1    3    3    0    0  0.19114183562E+02 -0.43063036811E+02  0.80612074631E+02  0.93376034018E+02  0.10000000000E+01 0.  0.
<mgrwt>
<rscale>  0 0.12500083E+03</rscale>
<asrwt>0</asrwt>
<pdfrwt beam="2">  1        4 0.57229949E-02 0.12500083E+03</pdfrwt>
<pdfrwt beam="1">  1       -4 0.16155325E-01 0.12500083E+03</pdfrwt>
<totfact> 0.10087817E+04</totfact>
</mgrwt>
</event>
<event>
 5    1  0.3327068E-002  0.1249957E+03  0.7818608E-02  0.1235076E+00
         -4   -1    0    0    0  501 -0.00000000000E+00  0.00000000000E+00  0.11530289164E+03  0.11530988561E+03  0.12700000000E+01 0.  1.
          4   -1    0    0  501    0  0.00000000000E+00 -0.00000000000E+00 -0.33855920576E+02  0.33879732261E+02  0.12700000000E+01 0.  1.
         25    2    1    2    0    0  0.00000000000E+00  0.00000000000E+00  0.81446971063E+02  0.14918961788E+03  0.12499573187E+03 0.  0.
    9000005    1    3    3    0    0 -0.43492149730E+02  0.74915788321E+01 -0.12081055634E+02  0.45767267198E+02  0.10000000000E+01 0.  0.
    9000005    1    3    3    0    0  0.43492149730E+02 -0.74915788321E+01  0.93528026698E+02  0.10342235068E+03  0.10000000000E+01 0.  0.
<mgrwt>
<rscale>  0 0.12499573E+03</rscale>
<asrwt>0</asrwt>
<pdfrwt beam="2">  1        4 0.52109729E-02 0.12499573E+03</pdfrwt>
<pdfrwt beam="1">  1       -4 0.17741276E-01 0.12499573E+03</pdfrwt>
<totfact> 0.99475037E+03</totfact>
</mgrwt>
</event>
<event>
 5    1  0.3327068E-002  0.1250015E+03  0.7818608E-02  0.1235067E+00
          4   -1    0    0  501    0  0.00000000000E+00  0.00000000000E+00  0.12569103055E+03  0.12569744652E+03  0.12700000000E+01 0. -1.
         -4   -1    0    0    0  501 -0.00000000000E+00 -0.00000000000E+00 -0.31058776117E+02  0.31084730558E+02  0.12700000000E+01 0. -1.
         25    2    1    2    0    0  0.00000000000E+00  0.00000000000E+00  0.94632254436E+02  0.15678217708E+03  0.12500154987E+03 0.  0.
    9000005    1    3    3    0    0 -0.57234893889E+02  0.20004744591E+02  0.28322582179E+02  0.66926762553E+02  0.10000000000E+01 0.  0.
    9000005    1    3    3    0    0  0.57234893889E+02 -0.20004744591E+02  0.66309672256E+02  0.89855414524E+02  0.10000000000E+01 0.  0.
<mgrwt>
<rscale>  0 0.12500155E+03</rscale>
<asrwt>0</asrwt>
<pdfrwt beam="1">  1        4 0.19339571E-01 0.12500155E+03</pdfrwt>
<pdfrwt beam="2">  1       -4 0.47807633E-02 0.12500155E+03</pdfrwt>
<totfact> 0.97963353E+03</totfact>
</mgrwt>
</event>
<event>
 5    1  0.3327068E-002  0.1250038E+03  0.7818608E-02  0.1235063E+00
         -4   -1    0    0    0  501 -0.00000000000E+00  0.00000000000E+00  0.38166706304E+01  0.40224214972E+01  0.12700000000E+01 0.  1.
          4   -1    0    0  501    0  0.00000000000E+00 -0.00000000000E+00 -0.99646179253E+03  0.99646260184E+03  0.12700000000E+01 0.  1.
         25    2    1    2    0    0  0.00000000000E+00  0.00000000000E+00 -0.99264512190E+03  0.10004850233E+04  0.12500377553E+03 0.  0.
    9000005    1    3    3    0    0 -0.34449867065E+02 -0.34842829099E+02 -0.80678429387E+03  0.80827143518E+03  0.10000000000E+01 0.  0.
    9000005    1    3    3    0    0  0.34449867065E+02  0.34842829099E+02 -0.18586082802E+03  0.19221358816E+03  0.10000000000E+01 0.  0.
<mgrwt>
<rscale>  0 0.12500378E+03</rscale>
<asrwt>0</asrwt>
<pdfrwt beam="2">  1        4 0.15331750E+00 0.12500378E+03</pdfrwt>
<pdfrwt beam="1">  1       -4 0.60307014E-03 0.12500378E+03</pdfrwt>
<totfact> 0.30585996E+03</totfact>
</mgrwt>
</event>
<event>
 5    1  0.3327068E-002  0.1250247E+03  0.7818608E-02  0.1235031E+00
         -4   -1    0    0    0  501 -0.00000000000E+00  0.00000000000E+00  0.25251845878E+02  0.25283761988E+02  0.12700000000E+01 0.  1.
          4   -1    0    0  501    0  0.00000000000E+00 -0.00000000000E+00 -0.15462059199E+03  0.15462580757E+03  0.12700000000E+01 0.  1.
         25    2    1    2    0    0  0.00000000000E+00  0.00000000000E+00 -0.12936874611E+03  0.17990956956E+03  0.12502472055E+03 0.  0.
    9000005    1    3    3    0    0  0.50080281780E+02  0.30320921581E+02 -0.96191472147E+02  0.11261079976E+03  0.10000000000E+01 0.  0.
    9000005    1    3    3    0    0 -0.50080281780E+02 -0.30320921581E+02 -0.33177273961E+02  0.67298769797E+02  0.10000000000E+01 0.  0.
<mgrwt>
<rscale>  0 0.12502472E+03</rscale>
<asrwt>0</asrwt>
<pdfrwt beam="2">  1        4 0.23790639E-01 0.12502472E+03</pdfrwt>
<pdfrwt beam="1">  1       -4 0.38877557E-02 0.12502472E+03</pdfrwt>
<totfact> 0.93581403E+03</totfact>
</mgrwt>
</event>
<event>
 5    1  0.3327068E-002  0.1250017E+03  0.7818608E-02  0.1235067E+00
         -4   -1    0    0    0  501 -0.00000000000E+00  0.00000000000E+00  0.53343681247E+01  0.54834645334E+01  0.12700000000E+01 0. -1.
          4   -1    0    0  501    0  0.00000000000E+00 -0.00000000000E+00 -0.72205753704E+03  0.72205865392E+03  0.12700000000E+01 0. -1.
         25    2    1    2    0    0  0.00000000000E+00  0.00000000000E+00 -0.71672316892E+03  0.72754211845E+03  0.12500173302E+03 0.  0.
    9000005    1    3    3    0    0 -0.58760527896E+02  0.21264942589E+02 -0.35486510254E+03  0.36032657190E+03  0.10000000000E+01 0.  0.
    9000005    1    3    3    0    0  0.58760527896E+02 -0.21264942589E+02 -0.36185806638E+03  0.36721554655E+03  0.10000000000E+01 0.  0.
<mgrwt>
<rscale>  0 0.12500173E+03</rscale>
<asrwt>0</asrwt>
<pdfrwt beam="2">  1        4 0.11109725E+00 0.12500173E+03</pdfrwt>
<pdfrwt beam="1">  1       -4 0.83222746E-03 0.12500173E+03</pdfrwt>
<totfact> 0.41670456E+03</totfact>
</mgrwt>
</event>
<event>
 5    1  0.3327068E-002  0.1249927E+03  0.7818608E-02  0.1235081E+00
          4   -1    0    0  501    0  0.00000000000E+00  0.00000000000E+00  0.90438535154E+03  0.90438624325E+03  0.12700000000E+01 0.  1.
         -4   -1    0    0    0  501 -0.00000000000E+00 -0.00000000000E+00 -0.42244492461E+01  0.44112210819E+01  0.12700000000E+01 0.  1.
         25    2    1    2    0    0  0.00000000000E+00  0.00000000000E+00  0.90016090230E+03  0.90879746433E+03  0.12499272442E+03 0.  0.
    9000005    1    3    3    0    0 -0.42605215470E+02 -0.12200007787E+01  0.78232531751E+03  0.78348618061E+03  0.10000000000E+01 0.  0.
    9000005    1    3    3    0    0  0.42605215470E+02  0.12200007787E+01  0.11783558478E+03  0.12531128372E+03  0.10000000000E+01 0.  0.
<mgrwt>
<rscale>  0 0.12499272E+03</rscale>
<asrwt>0</asrwt>
<pdfrwt beam="1">  1        4 0.13915055E+00 0.12499272E+03</pdfrwt>
<pdfrwt beam="2">  1       -4 0.66435139E-03 0.12499272E+03</pdfrwt>
<totfact> 0.33830681E+03</totfact>
</mgrwt>
</event>
<event>
 5    1  0.3327068E-002  0.1249999E+03  0.7818608E-02  0.1235069E+00
          4   -1    0    0  501    0  0.00000000000E+00  0.00000000000E+00  0.28114374090E+02  0.28143044087E+02  0.12700000000E+01 0. -1.
         -4   -1    0    0    0  501 -0.00000000000E+00 -0.00000000000E+00 -0.13883871689E+03  0.13884452531E+03  0.12700000000E+01 0. -1.
         25    2    1    2    0    0  0.00000000000E+00  0.00000000000E+00 -0.11072434280E+03  0.16698756939E+03  0.12499987297E+03 0.  0.
    9000005    1    3    3    0    0  0.90048107694E+01 -0.50235696396E+02 -0.10353862209E+03  0.11543811361E+03  0.10000000000E+01 0.  0.
    9000005    1    3    3    0    0 -0.90048107694E+01  0.50235696396E+02 -0.71857207094E+01  0.51549455783E+02  0.10000000000E+01 0.  0.
<mgrwt>
<rscale>  0 0.12499987E+03</rscale>
<asrwt>0</asrwt>
<pdfrwt beam="1">  1        4 0.43279406E-02 0.12499987E+03</pdfrwt>
<pdfrwt beam="2">  1       -4 0.21362454E-01 0.12499987E+03</pdfrwt>
<totfact> 0.96012571E+03</totfact>
</mgrwt>
</event>
<event>
 5    1  0.3327068E-002  0.1249986E+03  0.7818608E-02  0.1235072E+00
         -4   -1    0    0    0  501 -0.00000000000E+00  0.00000000000E+00  0.18183499301E+04  0.18183503736E+04  0.12700000000E+01 0. -1.
          4   -1    0    0  501    0  0.00000000000E+00 -0.00000000000E+00 -0.19600026470E+01  0.23354893226E+01  0.12700000000E+01 0. -1.
         25    2    1    2    0    0  0.00000000000E+00  0.00000000000E+00  0.18163899274E+04  0.18206858629E+04  0.12499857166E+03 0.  0.
    9000005    1    3    3    0    0 -0.46507150240E+02 -0.37385547692E+01  0.30266501330E+03  0.30624173800E+03  0.10000000000E+01 0.  0.
    9000005    1    3    3    0    0  0.46507150240E+02  0.37385547692E+01  0.15137249141E+04  0.15144441249E+04  0.10000000000E+01 0.  0.
<mgrwt>
<rscale>  0 0.12499857E+03</rscale>
<asrwt>0</asrwt>
<pdfrwt beam="2">  1        4 0.33045897E-03 0.12499857E+03</pdfrwt>
<pdfrwt beam="1">  1       -4 0.27977304E+00 0.12499857E+03</pdfrwt>
<totfact> 0.12388077E+03</totfact>
</mgrwt>
</event>
<event>
 5    1  0.3327068E-002  0.1249715E+03  0.7818608E-02  0.1235114E+00
         -4   -1    0    0    0  501 -0.00000000000E+00  0.00000000000E+00  0.69189648330E+02  0.69201302994E+02  0.12700000000E+01 0.  1.
          4   -1    0    0  501    0  0.00000000000E+00 -0.00000000000E+00 -0.56407838558E+02  0.56422133518E+02  0.12700000000E+01 0.  1.
         25    2    1    2    0    0  0.00000000000E+00  0.00000000000E+00  0.12781809773E+02  0.12562343651E+03  0.12497148931E+03 0.  0.
    9000005    1    3    3    0    0  0.99956087665E+00  0.81256908773E+01 -0.55871237491E+02  0.56476731075E+02  0.10000000000E+01 0.  0.
    9000005    1    3    3    0    0 -0.99956087665E+00 -0.81256908773E+01  0.68653047264E+02  0.69146705437E+02  0.10000000000E+01 0.  0.
<mgrwt>
<rscale>  0 0.12497149E+03</rscale>
<asrwt>0</asrwt>
<pdfrwt beam="2">  1        4 0.86801251E-02 0.12497149E+03</pdfrwt>
<pdfrwt beam="1">  1       -4 0.10646557E-01 0.12497149E+03</pdfrwt>
<totfact> 0.10445948E+04</totfact>
</mgrwt>
</event>
<event>
 5    1  0.3327068E-002  0.1250018E+03  0.7818608E-02  0.1235066E+00
          4   -1    0    0  501    0  0.00000000000E+00  0.00000000000E+00  0.21114072938E+02  0.21152233358E+02  0.12700000000E+01 0.  1.
         -4   -1    0    0    0  501 -0.00000000000E+00 -0.00000000000E+00 -0.18480492109E+03  0.18480928482E+03  0.12700000000E+01 0.  1.
         25    2    1    2    0    0  0.00000000000E+00  0.00000000000E+00 -0.16369084815E+03  0.20596151818E+03  0.12500181281E+03 0.  0.
    9000005    1    3    3    0    0  0.14764937018E+02  0.23312908918E+02  0.10539677265E+02  0.29556384830E+02  0.10000000000E+01 0.  0.
    9000005    1    3    3    0    0 -0.14764937018E+02 -0.23312908918E+02 -0.17423052541E+03  0.17640513335E+03  0.10000000000E+01 0.  0.
<mgrwt>
<rscale>  0 0.12500181E+03</rscale>
<asrwt>0</asrwt>
<pdfrwt beam="1">  1        4 0.32515901E-02 0.12500181E+03</pdfrwt>
<pdfrwt beam="2">  1       -4 0.28434796E-01 0.12500181E+03</pdfrwt>
<totfact> 0.89136081E+03</totfact>
</mgrwt>
</event>
<event>
 5    1  0.3327068E-002  0.1249988E+03  0.7818608E-02  0.1235071E+00
          4   -1    0    0  501    0  0.00000000000E+00  0.00000000000E+00  0.14334514461E+03  0.14335077043E+03  0.12700000000E+01 0. -1.
         -4   -1    0    0    0  501 -0.00000000000E+00 -0.00000000000E+00 -0.27229166291E+02  0.27258767340E+02  0.12700000000E+01 0. -1.
         25    2    1    2    0    0  0.00000000000E+00  0.00000000000E+00  0.11611597832E+03  0.17060953777E+03  0.12499877582E+03 0.  0.
    9000005    1    3    3    0    0 -0.11925606500E+02 -0.33186552893E+02  0.12847367906E+03  0.13322932708E+03  0.10000000000E+01 0.  0.
    9000005    1    3    3    0    0  0.11925606500E+02  0.33186552893E+02 -0.12357700744E+02  0.37380210687E+02  0.10000000000E+01 0.  0.
<mgrwt>
<rscale>  0 0.12499878E+03</rscale>
<asrwt>0</asrwt>
<pdfrwt beam="1">  1        4 0.22055809E-01 0.12499878E+03</pdfrwt>
<pdfrwt beam="2">  1       -4 0.41918122E-02 0.12499878E+03</pdfrwt>
<totfact> 0.95337768E+03</totfact>
</mgrwt>
</event>
<event>
 5    1  0.3327068E-002  0.1250000E+03  0.7818608E-02  0.1235069E+00
          4   -1    0    0  501    0  0.00000000000E+00  0.00000000000E+00  0.74233797900E+03  0.74233906536E+03  0.12700000000E+01 0. -1.
         -4   -1    0    0    0  501 -0.00000000000E+00 -0.00000000000E+00 -0.51843578893E+01  0.53376461782E+01  0.12700000000E+01 0. -1.
         25    2    1    2    0    0  0.00000000000E+00  0.00000000000E+00  0.73715362111E+03  0.74767671154E+03  0.12500001546E+03 0.  0.
    9000005    1    3    3    0    0 -0.26391232288E+02  0.26668618098E+02  0.66750019743E+03  0.66855457960E+03  0.10000000000E+01 0.  0.
    9000005    1    3    3    0    0  0.26391232288E+02 -0.26668618098E+02  0.69653423679E+02  0.79122131943E+02  0.10000000000E+01 0.  0.
<mgrwt>
<rscale>  0 0.12500002E+03</rscale>
<asrwt>0</asrwt>
<pdfrwt beam="1">  1        4 0.11421766E+00 0.12500002E+03</pdfrwt>
<pdfrwt beam="2">  1       -4 0.80946887E-03 0.12500002E+03</pdfrwt>
<totfact> 0.40685507E+03</totfact>
</mgrwt>
</event>
<event>
 5    1  0.3327068E-002  0.1250200E+03  0.7818608E-02  0.1235038E+00
          4   -1    0    0  501    0  0.00000000000E+00  0.00000000000E+00  0.17828981743E+02  0.17874157043E+02  0.12700000000E+01 0. -1.
         -4   -1    0    0    0  501 -0.00000000000E+00 -0.00000000000E+00 -0.21884131379E+03  0.21884499885E+03  0.12700000000E+01 0. -1.
         25    2    1    2    0    0  0.00000000000E+00  0.00000000000E+00 -0.20101233205E+03  0.23671915589E+03  0.12502000293E+03 0.  0.
    9000005    1    3    3    0    0  0.11008276744E+02 -0.37409045078E+01 -0.21678503730E+03  0.21709889203E+03  0.10000000000E+01 0.  0.
    9000005    1    3    3    0    0 -0.11008276744E+02  0.37409045078E+01  0.15772705248E+02  0.19620263868E+02  0.10000000000E+01 0.  0.
<mgrwt>
<rscale>  0 0.12502000E+03</rscale>
<asrwt>0</asrwt>
<pdfrwt beam="1">  1        4 0.27466789E-02 0.12502000E+03</pdfrwt>
<pdfrwt beam="2">  1       -4 0.33671651E-01 0.12502000E+03</pdfrwt>
<totfact> 0.84250845E+03</totfact>
</mgrwt>
</event>
<event>
 5    1  0.3327068E-002  0.1250033E+03  0.7818608E-02  0.1235064E+00
          4   -1    0    0  501    0  0.00000000000E+00  0.00000000000E+00  0.11759006535E+03  0.11759692330E+03  0.12700000000E+01 0. -1.
         -4   -1    0    0    0  501 -0.00000000000E+00 -0.00000000000E+00 -0.33201015970E+02  0.33225297011E+02  0.12700000000E+01 0. -1.
         25    2    1    2    0    0  0.00000000000E+00  0.00000000000E+00  0.84389049379E+02  0.15082222031E+03  0.12500332189E+03 0.  0.
    9000005    1    3    3    0    0 -0.27419570798E+02  0.92399857249E+01  0.10902721821E+03  0.11280578225E+03  0.10000000000E+01 0.  0.
    9000005    1    3    3    0    0  0.27419570798E+02 -0.92399857249E+01 -0.24638168832E+02  0.38016438054E+02  0.10000000000E+01 0.  0.
<mgrwt>
<rscale>  0 0.12500332E+03</rscale>
<asrwt>0</asrwt>
<pdfrwt beam="1">  1        4 0.18093175E-01 0.12500332E+03</pdfrwt>
<pdfrwt beam="2">  1       -4 0.51102439E-02 0.12500332E+03</pdfrwt>
<totfact> 0.99132642E+03</totfact>
</mgrwt>
</event>
<event>
 5    1  0.3327068E-002  0.1250007E+03  0.7818608E-02  0.1235068E+00
         -4   -1    0    0    0  501 -0.00000000000E+00  0.00000000000E+00  0.94983014062E+01  0.95828299371E+01  0.12700000000E+01 0. -1.
          4   -1    0    0  501    0  0.00000000000E+00 -0.00000000000E+00 -0.40935475892E+03  0.40935672897E+03  0.12700000000E+01 0. -1.
         25    2    1    2    0    0  0.00000000000E+00  0.00000000000E+00 -0.39985645751E+03  0.41893955890E+03  0.12500066959E+03 0.  0.
    9000005    1    3    3    0    0 -0.17507138612E+02  0.10919282029E+02 -0.39762577232E+03  0.39816200903E+03  0.10000000000E+01 0.  0.
    9000005    1    3    3    0    0  0.17507138612E+02 -0.10919282029E+02 -0.22306851966E+01  0.20777549876E+02  0.10000000000E+01 0.  0.
<mgrwt>
<rscale>  0 0.12500067E+03</rscale>
<asrwt>0</asrwt>
<pdfrwt beam="2">  1        4 0.62984295E-01 0.12500067E+03</pdfrwt>
<pdfrwt beam="1">  1       -4 0.14679312E-02 0.12500067E+03</pdfrwt>
<totfact> 0.62750590E+03</totfact>
</mgrwt>
</event>
<event>
 5    1  0.3327068E-002  0.1250016E+03  0.7818608E-02  0.1235067E+00
         -4   -1    0    0    0  501 -0.00000000000E+00  0.00000000000E+00  0.52761488162E+02  0.52776770771E+02  0.12700000000E+01 0. -1.
          4   -1    0    0  501    0  0.00000000000E+00 -0.00000000000E+00 -0.74006507783E+02  0.74017403996E+02  0.12700000000E+01 0. -1.
         25    2    1    2    0    0  0.00000000000E+00  0.00000000000E+00 -0.21245019621E+02  0.12679417477E+03  0.12500164757E+03 0.  0.
    9000005    1    3    3    0    0  0.10620441461E+02 -0.49164425464E+02  0.26995948188E+02  0.57093920225E+02  0.10000000000E+01 0.  0.
    9000005    1    3    3    0    0 -0.10620441461E+02  0.49164425464E+02 -0.48240967810E+02  0.69700254542E+02  0.10000000000E+01 0.  0.
<mgrwt>
<rscale>  0 0.12500165E+03</rscale>
<asrwt>0</asrwt>
<pdfrwt beam="2">  1        4 0.11387630E-01 0.12500165E+03</pdfrwt>
<pdfrwt beam="1">  1       -4 0.81191658E-02 0.12500165E+03</pdfrwt>
<totfact> 0.10413233E+04</totfact>
</mgrwt>
</event>
<event>
 5    1  0.3327068E-002  0.1249997E+03  0.7818608E-02  0.1235070E+00
          4   -1    0    0  501    0  0.00000000000E+00  0.00000000000E+00  0.13898340011E+02  0.13956244304E+02  0.12700000000E+01 0. -1.
         -4   -1    0    0    0  501 -0.00000000000E+00 -0.00000000000E+00 -0.28041378700E+03  0.28041666291E+03  0.12700000000E+01 0. -1.
         25    2    1    2    0    0  0.00000000000E+00  0.00000000000E+00 -0.26651544699E+03  0.29437290722E+03  0.12499970008E+03 0.  0.
    9000005    1    3    3    0    0  0.35646189935E+02  0.50621901084E+02 -0.15324095668E+03  0.16527860881E+03  0.10000000000E+01 0.  0.
    9000005    1    3    3    0    0 -0.35646189935E+02 -0.50621901084E+02 -0.11327449031E+03  0.12909429840E+03  0.10000000000E+01 0.  0.
<mgrwt>
<rscale>  0 0.12499970E+03</rscale>
<asrwt>0</asrwt>
<pdfrwt beam="1">  1        4 0.21428818E-02 0.12499970E+03</pdfrwt>
<pdfrwt beam="2">  1       -4 0.43145254E-01 0.12499970E+03</pdfrwt>
<totfact> 0.76310666E+03</totfact>
</mgrwt>
</event>
<event>
 5    1  0.3327068E-002  0.1250008E+03  0.7818608E-02  0.1235068E+00
          4   -1    0    0  501    0  0.00000000000E+00  0.00000000000E+00  0.89313425610E+02  0.89322454592E+02  0.12700000000E+01 0.  1.
         -4   -1    0    0    0  501 -0.00000000000E+00 -0.00000000000E+00 -0.43716552851E+02  0.43734996206E+02  0.12700000000E+01 0.  1.
         25    2    1    2    0    0  0.00000000000E+00  0.00000000000E+00  0.45596872759E+02  0.13305745080E+03  0.12500084163E+03 0.  0.
    9000005    1    3    3    0    0  0.36953449725E+02  0.39250364576E+02  0.56445137089E+02  0.78058965320E+02  0.10000000000E+01 0.  0.
    9000005    1    3    3    0    0 -0.36953449725E+02 -0.39250364576E+02 -0.10848264329E+02  0.54998485478E+02  0.10000000000E+01 0.  0.
<mgrwt>
<rscale>  0 0.12500084E+03</rscale>
<asrwt>0</asrwt>
<pdfrwt beam="1">  1        4 0.13742640E-01 0.12500084E+03</pdfrwt>
<pdfrwt beam="2">  1       -4 0.67277369E-02 0.12500084E+03</pdfrwt>
<totfact> 0.10278984E+04</totfact>
</mgrwt>
</event>
<event>
 5    1  0.3327068E-002  0.1249998E+03  0.7818608E-02  0.1235070E+00
         -4   -1    0    0    0  501 -0.00000000000E+00  0.00000000000E+00  0.73929619151E+02  0.73940526694E+02  0.12700000000E+01 0.  1.
          4   -1    0    0  501    0  0.00000000000E+00 -0.00000000000E+00 -0.52814832921E+02  0.52830100099E+02  0.12700000000E+01 0.  1.
         25    2    1    2    0    0  0.00000000000E+00  0.00000000000E+00  0.21114786230E+02  0.12677062679E+03  0.12499983048E+03 0.  0.
    9000005    1    3    3    0    0  0.15513360795E+02  0.46280825441E+02 -0.29016676836E+02  0.56793896690E+02  0.10000000000E+01 0.  0.
    9000005    1    3    3    0    0 -0.15513360795E+02 -0.46280825441E+02  0.50131463066E+02  0.69976730102E+02  0.10000000000E+01 0.  0.
<mgrwt>
<rscale>  0 0.12499983E+03</rscale>
<asrwt>0</asrwt>
<pdfrwt beam="2">  1        4 0.81273723E-02 0.12499983E+03</pdfrwt>
<pdfrwt beam="1">  1       -4 0.11375801E-01 0.12499983E+03</pdfrwt>
<totfact> 0.10414173E+04</totfact>
</mgrwt>
</event>
<event>
 5    1  0.3327068E-002  0.1249751E+03  0.7818608E-02  0.1235108E+00
         -4   -1    0    0    0  501 -0.00000000000E+00  0.00000000000E+00  0.47649613664E+01  0.49313037650E+01  0.12700000000E+01 0. -1.
          4   -1    0    0  501    0  0.00000000000E+00 -0.00000000000E+00 -0.80523484636E+03  0.80523584786E+03  0.12700000000E+01 0. -1.
         25    2    1    2    0    0  0.00000000000E+00  0.00000000000E+00 -0.80046988499E+03  0.81016715163E+03  0.12497510474E+03 0.  0.
    9000005    1    3    3    0    0  0.19359370623E+02 -0.16278695044E+02 -0.29878066476E+02  0.39159673129E+02  0.10000000000E+01 0.  0.
    9000005    1    3    3    0    0 -0.19359370623E+02  0.16278695044E+02 -0.77059181851E+03  0.77100747850E+03  0.10000000000E+01 0.  0.
<mgrwt>
<rscale>  0 0.12497510E+03</rscale>
<asrwt>0</asrwt>
<pdfrwt beam="2">  1        4 0.12389505E+00 0.12497510E+03</pdfrwt>
<pdfrwt beam="1">  1       -4 0.74594423E-03 0.12497510E+03</pdfrwt>
<totfact> 0.37835450E+03</totfact>
</mgrwt>
</event>
<event>
 5    1  0.3327068E-002  0.1249998E+03  0.7818608E-02  0.1235070E+00
          4   -1    0    0  501    0  0.00000000000E+00  0.00000000000E+00  0.41640884485E+02  0.41660246767E+02  0.12700000000E+01 0. -1.
         -4   -1    0    0    0  501 -0.00000000000E+00 -0.00000000000E+00 -0.93762280251E+02  0.93770880863E+02  0.12700000000E+01 0. -1.
         25    2    1    2    0    0  0.00000000000E+00  0.00000000000E+00 -0.52121395766E+02  0.13543112763E+03  0.12499980174E+03 0.  0.
    9000005    1    3    3    0    0 -0.14666909054E+02 -0.59624976961E+02 -0.13472999991E+02  0.62871120776E+02  0.10000000000E+01 0.  0.
    9000005    1    3    3    0    0  0.14666909054E+02  0.59624976961E+02 -0.38648395775E+02  0.72560006855E+02  0.10000000000E+01 0.  0.
<mgrwt>
<rscale>  0 0.12499980E+03</rscale>
<asrwt>0</asrwt>
<pdfrwt beam="1">  1        4 0.64084409E-02 0.12499980E+03</pdfrwt>
<pdfrwt beam="2">  1       -4 0.14427117E-01 0.12499980E+03</pdfrwt>
<totfact> 0.10229038E+04</totfact>
</mgrwt>
</event>
<event>
 5    1  0.3327068E-002  0.1250019E+03  0.7818608E-02  0.1235066E+00
          4   -1    0    0  501    0  0.00000000000E+00  0.00000000000E+00  0.15027848100E+02  0.15081416330E+02  0.12700000000E+01 0.  1.
         -4   -1    0    0    0  501 -0.00000000000E+00 -0.00000000000E+00 -0.25942444320E+03  0.25942755179E+03  0.12700000000E+01 0.  1.
         25    2    1    2    0    0  0.00000000000E+00  0.00000000000E+00 -0.24439659510E+03  0.27450896813E+03  0.12500191152E+03 0.  0.
    9000005    1    3    3    0    0  0.78223685856E+01  0.21286385227E+02 -0.25007995286E+03  0.25110810913E+03  0.10000000000E+01 0.  0.
    9000005    1    3    3    0    0 -0.78223685856E+01 -0.21286385227E+02  0.56833577621E+01  0.23400858996E+02  0.10000000000E+01 0.  0.
<mgrwt>
<rscale>  0 0.12500191E+03</rscale>
<asrwt>0</asrwt>
<pdfrwt beam="1">  1        4 0.23163366E-02 0.12500191E+03</pdfrwt>
<pdfrwt beam="2">  1       -4 0.39915809E-01 0.12500191E+03</pdfrwt>
<totfact> 0.78908502E+03</totfact>
</mgrwt>
</event>
<event>
 5    1  0.3327068E-002  0.1250014E+03  0.7818608E-02  0.1235067E+00
         -4   -1    0    0    0  501 -0.00000000000E+00  0.00000000000E+00  0.58394031218E+02  0.58407840072E+02  0.12700000000E+01 0.  1.
          4   -1    0    0  501    0  0.00000000000E+00 -0.00000000000E+00 -0.66868403723E+02  0.66880462891E+02  0.12700000000E+01 0.  1.
         25    2    1    2    0    0  0.00000000000E+00  0.00000000000E+00 -0.84743725046E+01  0.12528830296E+03  0.12500137547E+03 0.  0.
    9000005    1    3    3    0    0 -0.32523478354E+02  0.39111120207E+02 -0.40623126542E+02  0.65105259220E+02  0.10000000000E+01 0.  0.
    9000005    1    3    3    0    0  0.32523478354E+02 -0.39111120207E+02  0.32148754037E+02  0.60183043743E+02  0.10000000000E+01 0.  0.
<mgrwt>
<rscale>  0 0.12500138E+03</rscale>
<asrwt>0</asrwt>
<pdfrwt beam="2">  1        4 0.10289437E-01 0.12500138E+03</pdfrwt>
<pdfrwt beam="1">  1       -4 0.89856870E-02 0.12500138E+03</pdfrwt>
<totfact> 0.10446279E+04</totfact>
</mgrwt>
</event>
<event>
 5    1  0.3327068E-002  0.1249999E+03  0.7818608E-02  0.1235069E+00
          4   -1    0    0  501    0  0.00000000000E+00  0.00000000000E+00  0.18962970999E+03  0.18963396270E+03  0.12700000000E+01 0.  1.
         -4   -1    0    0    0  501 -0.00000000000E+00 -0.00000000000E+00 -0.20575266439E+02  0.20614424295E+02  0.12700000000E+01 0.  1.
         25    2    1    2    0    0  0.00000000000E+00  0.00000000000E+00  0.16905444355E+03  0.21024838700E+03  0.12499991741E+03 0.  0.
    9000005    1    3    3    0    0  0.17559938497E+02  0.25971660894E+02  0.17545367833E+03  0.17823543938E+03  0.10000000000E+01 0.  0.
    9000005    1    3    3    0    0 -0.17559938497E+02 -0.25971660894E+02 -0.63992347823E+01  0.32012947621E+02  0.10000000000E+01 0.  0.
<mgrwt>
<rscale>  0 0.12499992E+03</rscale>
<asrwt>0</asrwt>
<pdfrwt beam="1">  1        4 0.29177139E-01 0.12499992E+03</pdfrwt>
<pdfrwt beam="2">  1       -4 0.31687651E-02 0.12499992E+03</pdfrwt>
<totfact> 0.88435497E+03</totfact>
</mgrwt>
</event>
<event>
 5    1  0.3327068E-002  0.1249988E+03  0.7818608E-02  0.1235071E+00
          4   -1    0    0  501    0  0.00000000000E+00  0.00000000000E+00  0.29570293861E+02  0.29597553599E+02  0.12700000000E+01 0. -1.
         -4   -1    0    0    0  501 -0.00000000000E+00 -0.00000000000E+00 -0.13200672123E+03  0.13201283025E+03  0.12700000000E+01 0. -1.
         25    2    1    2    0    0  0.00000000000E+00  0.00000000000E+00 -0.10243642737E+03  0.16161038385E+03  0.12499877805E+03 0.  0.
    9000005    1    3    3    0    0  0.21169515007E+02 -0.20492512257E+02 -0.12246934556E+03  0.12596758324E+03  0.10000000000E+01 0.  0.
    9000005    1    3    3    0    0 -0.21169515007E+02  0.20492512257E+02  0.20032918190E+02  0.35642800612E+02  0.10000000000E+01 0.  0.
<mgrwt>
<rscale>  0 0.12499878E+03</rscale>
<asrwt>0</asrwt>
<pdfrwt beam="1">  1        4 0.45518429E-02 0.12499878E+03</pdfrwt>
<pdfrwt beam="2">  1       -4 0.20311293E-01 0.12499878E+03</pdfrwt>
<totfact> 0.97035876E+03</totfact>
</mgrwt>
</event>
<event>
 5    1  0.3327068E-002  0.1249981E+03  0.7818608E-02  0.1235072E+00
          4   -1    0    0  501    0  0.00000000000E+00  0.00000000000E+00  0.50887107570E+03  0.50887266048E+03  0.12700000000E+01 0. -1.
         -4   -1    0    0    0  501 -0.00000000000E+00 -0.00000000000E+00 -0.76219357906E+01  0.77270178721E+01  0.12700000000E+01 0. -1.
         25    2    1    2    0    0  0.00000000000E+00  0.00000000000E+00  0.50124913991E+03  0.51659967835E+03  0.12499810964E+03 0.  0.
    9000005    1    3    3    0    0 -0.34739533407E+02  0.26057015476E+02  0.64906489523E+02  0.78100292055E+02  0.10000000000E+01 0.  0.
    9000005    1    3    3    0    0  0.34739533407E+02 -0.26057015476E+02  0.43634265039E+03  0.43849938630E+03  0.10000000000E+01 0.  0.
<mgrwt>
<rscale>  0 0.12499811E+03</rscale>
<asrwt>0</asrwt>
<pdfrwt beam="1">  1        4 0.78296077E-01 0.12499811E+03</pdfrwt>
<pdfrwt beam="2">  1       -4 0.11808104E-02 0.12499811E+03</pdfrwt>
<totfact> 0.54601312E+03</totfact>
</mgrwt>
</event>
<event>
 5    1  0.3327068E-002  0.1250016E+03  0.7818608E-02  0.1235067E+00
         -4   -1    0    0    0  501 -0.00000000000E+00  0.00000000000E+00  0.13590567999E+03  0.13591161375E+03  0.12700000000E+01 0. -1.
          4   -1    0    0  501    0  0.00000000000E+00 -0.00000000000E+00 -0.28722493759E+02  0.28750557347E+02  0.12700000000E+01 0. -1.
         25    2    1    2    0    0  0.00000000000E+00  0.00000000000E+00  0.10718318623E+03  0.16466217110E+03  0.12500158072E+03 0.  0.
    9000005    1    3    3    0    0  0.33197028603E+02 -0.40624742853E+02  0.88634365550E+01  0.53216284608E+02  0.10000000000E+01 0.  0.
    9000005    1    3    3    0    0 -0.33197028603E+02  0.40624742853E+02  0.98319749675E+02  0.11144588649E+03  0.10000000000E+01 0.  0.
<mgrwt>
<rscale>  0 0.12500158E+03</rscale>
<asrwt>0</asrwt>
<pdfrwt beam="2">  1        4 0.44214603E-02 0.12500158E+03</pdfrwt>
<pdfrwt beam="1">  1       -4 0.20911182E-01 0.12500158E+03</pdfrwt>
<totfact> 0.96447984E+03</totfact>
</mgrwt>
</event>
<event>
 5    1  0.3327068E-002  0.1249987E+03  0.7818608E-02  0.1235071E+00
         -4   -1    0    0    0  501 -0.00000000000E+00  0.00000000000E+00  0.10344975271E+02  0.10422639463E+02  0.12700000000E+01 0.  1.
          4   -1    0    0  501    0  0.00000000000E+00 -0.00000000000E+00 -0.37610005303E+03  0.37610219727E+03  0.12700000000E+01 0.  1.
         25    2    1    2    0    0  0.00000000000E+00  0.00000000000E+00 -0.36575507776E+03  0.38652483673E+03  0.12499869000E+03 0.  0.
    9000005    1    3    3    0    0 -0.14576407204E+02 -0.59859980612E+02 -0.21523226673E+03  0.22387857773E+03  0.10000000000E+01 0.  0.
    9000005    1    3    3    0    0  0.14576407204E+02  0.59859980612E+02 -0.15052281103E+03  0.16264625900E+03  0.10000000000E+01 0.  0.
<mgrwt>
<rscale>  0 0.12499869E+03</rscale>
<asrwt>0</asrwt>
<pdfrwt beam="2">  1        4 0.57867675E-01 0.12499869E+03</pdfrwt>
<pdfrwt beam="1">  1       -4 0.15976741E-02 0.12499869E+03</pdfrwt>
<totfact> 0.65886724E+03</totfact>
</mgrwt>
</event>
<event>
 5    1  0.3327068E-002  0.1249990E+03  0.7818608E-02  0.1235071E+00
         -4   -1    0    0    0  501 -0.00000000000E+00  0.00000000000E+00  0.15636257800E+03  0.15636773547E+03  0.12700000000E+01 0.  1.
          4   -1    0    0  501    0  0.00000000000E+00 -0.00000000000E+00 -0.24959895763E+02  0.24992184709E+02  0.12700000000E+01 0.  1.
         25    2    1    2    0    0  0.00000000000E+00  0.00000000000E+00  0.13140268223E+03  0.18135992018E+03  0.12499902300E+03 0.  0.
    9000005    1    3    3    0    0 -0.64406865905E+01 -0.23271196001E+02  0.14932801709E+03  0.15127090829E+03  0.10000000000E+01 0.  0.
    9000005    1    3    3    0    0  0.64406865905E+01  0.23271196001E+02 -0.17925334856E+02  0.30089011894E+02  0.10000000000E+01 0.  0.
<mgrwt>
<rscale>  0 0.12499902E+03</rscale>
<asrwt>0</asrwt>
<pdfrwt beam="2">  1        4 0.38428644E-02 0.12499902E+03</pdfrwt>
<pdfrwt beam="1">  1       -4 0.24058662E-01 0.12499902E+03</pdfrwt>
<totfact> 0.93374829E+03</totfact>
</mgrwt>
</event>
<event>
 5    1  0.3327068E-002  0.1250014E+03  0.7818608E-02  0.1235067E+00
          4   -1    0    0  501    0  0.00000000000E+00  0.00000000000E+00  0.29415150363E+01  0.32039679632E+01  0.12700000000E+01 0. -1.
         -4   -1    0    0    0  501 -0.00000000000E+00 -0.00000000000E+00 -0.12710249185E+04  0.12710255530E+04  0.12700000000E+01 0. -1.
         25    2    1    2    0    0  0.00000000000E+00  0.00000000000E+00 -0.12680834035E+04  0.12742295210E+04  0.12500141569E+03 0.  0.
    9000005    1    3    3    0    0  0.61133898118E+02 -0.38202290326E+01 -0.76029200570E+03  0.76275610885E+03  0.10000000000E+01 0.  0.
    9000005    1    3    3    0    0 -0.61133898118E+02  0.38202290326E+01 -0.50779139781E+03  0.51147341215E+03  0.10000000000E+01 0.  0.
<mgrwt>
<rscale>  0 0.12500142E+03</rscale>
<asrwt>0</asrwt>
<pdfrwt beam="1">  1        4 0.47277928E-03 0.12500142E+03</pdfrwt>
<pdfrwt beam="2">  1       -4 0.19556211E+00 0.12500142E+03</pdfrwt>
<totfact> 0.22844396E+03</totfact>
</mgrwt>
</event>
<event>
 5    1  0.3327068E-002  0.1249983E+03  0.7818608E-02  0.1235072E+00
         -4   -1    0    0    0  501 -0.00000000000E+00  0.00000000000E+00  0.37781063256E+03  0.37781276709E+03  0.12700000000E+01 0. -1.
          4   -1    0    0  501    0  0.00000000000E+00 -0.00000000000E+00 -0.10297717332E+02  0.10375735263E+02  0.12700000000E+01 0. -1.
         25    2    1    2    0    0  0.00000000000E+00  0.00000000000E+00  0.36751291523E+03  0.38818850236E+03  0.12499828198E+03 0.  0.
    9000005    1    3    3    0    0 -0.44212835968E+02  0.31979768748E+02  0.89169002076E+02  0.10454468616E+03  0.10000000000E+01 0.  0.
    9000005    1    3    3    0    0  0.44212835968E+02 -0.31979768748E+02  0.27834391316E+03  0.28364381619E+03  0.10000000000E+01 0.  0.
<mgrwt>
<rscale>  0 0.12499828E+03</rscale>
<asrwt>0</asrwt>
<pdfrwt beam="2">  1        4 0.15904297E-02 0.12499828E+03</pdfrwt>
<pdfrwt beam="1">  1       -4 0.58130882E-01 0.12499828E+03</pdfrwt>
<totfact> 0.65720494E+03</totfact>
</mgrwt>
</event>
<event>
 5    1  0.3327068E-002  0.1250005E+03  0.7818608E-02  0.1235069E+00
          4   -1    0    0  501    0  0.00000000000E+00  0.00000000000E+00  0.12136476872E+03  0.12137141338E+03  0.12700000000E+01 0. -1.
         -4   -1    0    0    0  501 -0.00000000000E+00 -0.00000000000E+00 -0.32166204532E+02  0.32191266113E+02  0.12700000000E+01 0. -1.
         25    2    1    2    0    0  0.00000000000E+00  0.00000000000E+00  0.89198564188E+02  0.15356267949E+03  0.12500045072E+03 0.  0.
    9000005    1    3    3    0    0  0.13786209264E+02 -0.17952985645E+02  0.11615761309E+03  0.11834678000E+03  0.10000000000E+01 0.  0.
    9000005    1    3    3    0    0 -0.13786209264E+02  0.17952985645E+02 -0.26959048899E+02  0.35215899491E+02  0.10000000000E+01 0.  0.
<mgrwt>
<rscale>  0 0.12500045E+03</rscale>
<asrwt>0</asrwt>
<pdfrwt beam="1">  1        4 0.18673942E-01 0.12500045E+03</pdfrwt>
<pdfrwt beam="2">  1       -4 0.49510857E-02 0.12500045E+03</pdfrwt>
<totfact> 0.98597213E+03</totfact>
</mgrwt>
</event>
<event>
 4    1  0.3327068E-002  0.1251792E+03  0.7818608E-02  0.1234789E+00
          4   -1    0    0  501    0  0.00000000000E+00  0.00000000000E+00  0.69000879362E+02  0.69012565905E+02  0.12700000000E+01 0.  1.
         -4   -1    0    0    0  501 -0.00000000000E+00 -0.00000000000E+00 -0.56750470986E+02  0.56764679662E+02  0.12700000000E+01 0.  1.
    9000005    1    1    2    0    0  0.29303093764E+02  0.55274384465E+02  0.45264186291E+01  0.62732904824E+02  0.10000000000E+01 0.  0.
    9000005    1    1    2    0    0 -0.29303093764E+02 -0.55274384465E+02  0.77239897473E+01  0.63044340743E+02  0.10000000000E+01 0.  0.
<mgrwt>
<rscale>  0 0.12517924E+03</rscale>
<asrwt>0</asrwt>
<pdfrwt beam="1">  1        4 0.10617512E-01 0.12517924E+03</pdfrwt>
<pdfrwt beam="2">  1       -4 0.87328337E-02 0.12517924E+03</pdfrwt>
<totfact> 0.10393757E+04</totfact>
</mgrwt>
</event>
<event>
 5    1  0.3327068E-002  0.1250041E+03  0.7818608E-02  0.1235063E+00
         -4   -1    0    0    0  501 -0.00000000000E+00  0.00000000000E+00  0.17140275910E+02  0.17187261511E+02  0.12700000000E+01 0.  1.
          4   -1    0    0  501    0  0.00000000000E+00 -0.00000000000E+00 -0.22755309922E+03  0.22755664320E+03  0.12700000000E+01 0.  1.
         25    2    1    2    0    0  0.00000000000E+00  0.00000000000E+00 -0.21041282331E+03  0.24474390471E+03  0.12500409065E+03 0.  0.
    9000005    1    3    3    0    0 -0.52424006974E+02  0.24826266024E+02 -0.59671929645E+02  0.83224751003E+02  0.10000000000E+01 0.  0.
    9000005    1    3    3    0    0  0.52424006974E+02 -0.24826266024E+02 -0.15074089367E+03  0.16151915371E+03  0.10000000000E+01 0.  0.
<mgrwt>
<rscale>  0 0.12500409E+03</rscale>
<asrwt>0</asrwt>
<pdfrwt beam="2">  1        4 0.35012054E-01 0.12500409E+03</pdfrwt>
<pdfrwt beam="1">  1       -4 0.26408526E-02 0.12500409E+03</pdfrwt>
<totfact> 0.83088308E+03</totfact>
</mgrwt>
</event>
<event>
 5    1  0.3327068E-002  0.1250065E+03  0.7818608E-02  0.1235059E+00
          4   -1    0    0  501    0  0.00000000000E+00  0.00000000000E+00  0.28098955407E+02  0.28127641120E+02  0.12700000000E+01 0. -1.
         -4   -1    0    0    0  501 -0.00000000000E+00 -0.00000000000E+00 -0.13892959804E+03  0.13893540266E+03  0.12700000000E+01 0. -1.
         25    2    1    2    0    0  0.00000000000E+00  0.00000000000E+00 -0.11083064263E+03  0.16706304378E+03  0.12500651683E+03 0.  0.
    9000005    1    3    3    0    0 -0.38309979829E+02 -0.86062439212E+01  0.95625576156E+01  0.40424800520E+02  0.10000000000E+01 0.  0.
    9000005    1    3    3    0    0  0.38309979829E+02  0.86062439212E+01 -0.12039320025E+03  0.12663824326E+03  0.10000000000E+01 0.  0.
<mgrwt>
<rscale>  0 0.12500652E+03</rscale>
<asrwt>0</asrwt>
<pdfrwt beam="1">  1        4 0.43255694E-02 0.12500652E+03</pdfrwt>
<pdfrwt beam="2">  1       -4 0.21376437E-01 0.12500652E+03</pdfrwt>
<totfact> 0.95984056E+03</totfact>
</mgrwt>
</event>
<event>
 5    1  0.3327068E-002  0.1249953E+03  0.7818608E-02  0.1235077E+00
          4   -1    0    0  501    0  0.00000000000E+00  0.00000000000E+00  0.20000026896E+03  0.20000430116E+03  0.12700000000E+01 0. -1.
         -4   -1    0    0    0  501 -0.00000000000E+00 -0.00000000000E+00 -0.19504886841E+02  0.19546189160E+02  0.12700000000E+01 0. -1.
         25    2    1    2    0    0  0.00000000000E+00  0.00000000000E+00  0.18049538211E+03  0.21955049032E+03  0.12499533925E+03 0.  0.
    9000005    1    3    3    0    0  0.97706041793E+01  0.52929751249E+02  0.34483301993E+02  0.63930598227E+02  0.10000000000E+01 0.  0.
    9000005    1    3    3    0    0 -0.97706041793E+01 -0.52929751249E+02  0.14601208012E+03  0.15561989209E+03  0.10000000000E+01 0.  0.
<mgrwt>
<rscale>  0 0.12499534E+03</rscale>
<asrwt>0</asrwt>
<pdfrwt beam="1">  1        4 0.30772762E-01 0.12499534E+03</pdfrwt>
<pdfrwt beam="2">  1       -4 0.30042388E-02 0.12499534E+03</pdfrwt>
<totfact> 0.86948577E+03</totfact>
</mgrwt>
</event>
<event>
 5    1  0.3327068E-002  0.1250011E+03  0.7818608E-02  0.1235068E+00
          4   -1    0    0  501    0  0.00000000000E+00  0.00000000000E+00  0.98748695705E+02  0.98756862057E+02  0.12700000000E+01 0. -1.
         -4   -1    0    0    0  501 -0.00000000000E+00 -0.00000000000E+00 -0.39538194095E+02  0.39558585570E+02  0.12700000000E+01 0. -1.
         25    2    1    2    0    0  0.00000000000E+00  0.00000000000E+00  0.59210501609E+02  0.13831544763E+03  0.12500111820E+03 0.  0.
    9000005    1    3    3    0    0  0.44652199614E+01 -0.50191256175E+02 -0.11294157847E+02  0.51649379350E+02  0.10000000000E+01 0.  0.
    9000005    1    3    3    0    0 -0.44652199614E+01  0.50191256175E+02  0.70504659456E+02  0.86666068278E+02  0.10000000000E+01 0.  0.
<mgrwt>
<rscale>  0 0.12500112E+03</rscale>
<asrwt>0</asrwt>
<pdfrwt beam="1">  1        4 0.15194304E-01 0.12500112E+03</pdfrwt>
<pdfrwt beam="2">  1       -4 0.60849958E-02 0.12500112E+03</pdfrwt>
<totfact> 0.10168363E+04</totfact>
</mgrwt>
</event>
<event>
 5    1  0.3327068E-002  0.1250001E+03  0.7818608E-02  0.1235069E+00
         -4   -1    0    0    0  501 -0.00000000000E+00  0.00000000000E+00  0.41161384088E+02  0.41180971820E+02  0.12700000000E+01 0. -1.
          4   -1    0    0  501    0  0.00000000000E+00 -0.00000000000E+00 -0.94854573686E+02  0.94863075267E+02  0.12700000000E+01 0. -1.
         25    2    1    2    0    0  0.00000000000E+00  0.00000000000E+00 -0.53693189598E+02  0.13604404709E+03  0.12500009655E+03 0.  0.
    9000005    1    3    3    0    0  0.10702434006E+02 -0.61561971217E+02 -0.25850505832E+02  0.67628892092E+02  0.10000000000E+01 0.  0.
    9000005    1    3    3    0    0 -0.10702434006E+02  0.61561971217E+02 -0.27842683766E+02  0.68415154996E+02  0.10000000000E+01 0.  0.
<mgrwt>
<rscale>  0 0.12500010E+03</rscale>
<asrwt>0</asrwt>
<pdfrwt beam="2">  1        4 0.14595172E-01 0.12500010E+03</pdfrwt>
<pdfrwt beam="1">  1       -4 0.63346814E-02 0.12500010E+03</pdfrwt>
<totfact> 0.10216089E+04</totfact>
</mgrwt>
</event>
<event>
 5    1  0.3327068E-002  0.1249861E+03  0.7818608E-02  0.1235091E+00
          4   -1    0    0  501    0  0.00000000000E+00  0.00000000000E+00  0.26452791272E+01  0.29343485923E+01  0.12700000000E+01 0.  1.
         -4   -1    0    0    0  501 -0.00000000000E+00 -0.00000000000E+00 -0.13995822763E+04  0.13995828525E+04  0.12700000000E+01 0.  1.
         25    2    1    2    0    0  0.00000000000E+00  0.00000000000E+00 -0.13969369972E+04  0.14025172011E+04  0.12498610047E+03 0.  0.
    9000005    1    3    3    0    0 -0.49494713276E+02 -0.33624047843E+02 -0.90047777570E+03  0.90246414209E+03  0.10000000000E+01 0.  0.
    9000005    1    3    3    0    0  0.49494713276E+02  0.33624047843E+02 -0.49645922145E+03  0.50005305898E+03  0.10000000000E+01 0.  0.
<mgrwt>
<rscale>  0 0.12498610E+03</rscale>
<asrwt>0</asrwt>
<pdfrwt beam="1">  1        4 0.42924757E-03 0.12498610E+03</pdfrwt>
<pdfrwt beam="2">  1       -4 0.21534207E+00 0.12498610E+03</pdfrwt>
<totfact> 0.19933099E+03</totfact>
</mgrwt>
</event>
<event>
 5    1  0.3327068E-002  0.1250052E+03  0.7818608E-02  0.1235061E+00
          4   -1    0    0  501    0  0.00000000000E+00  0.00000000000E+00  0.54489951810E+02  0.54504749777E+02  0.12700000000E+01 0.  1.
         -4   -1    0    0    0  501 -0.00000000000E+00 -0.00000000000E+00 -0.71663308837E+02  0.71674561271E+02  0.12700000000E+01 0.  1.
         25    2    1    2    0    0  0.00000000000E+00  0.00000000000E+00 -0.17173357027E+02  0.12617931105E+03  0.12500517727E+03 0.  0.
    9000005    1    3    3    0    0  0.42322401739E+02  0.35477762539E+02 -0.38114067425E+02  0.67108415712E+02  0.10000000000E+01 0.  0.
    9000005    1    3    3    0    0 -0.42322401739E+02 -0.35477762539E+02  0.20940710398E+02  0.59070895335E+02  0.10000000000E+01 0.  0.
<mgrwt>
<rscale>  0 0.12500518E+03</rscale>
<asrwt>0</asrwt>
<pdfrwt beam="1">  1        4 0.83850734E-02 0.12500518E+03</pdfrwt>
<pdfrwt beam="2">  1       -4 0.11027128E-01 0.12500518E+03</pdfrwt>
<totfact> 0.10425813E+04</totfact>
</mgrwt>
</event>
<event>
 5    1  0.3327068E-002  0.1250012E+03  0.7818608E-02  0.1235067E+00
         -4   -1    0    0    0  501 -0.00000000000E+00  0.00000000000E+00  0.44213282592E+02  0.44231518825E+02  0.12700000000E+01 0.  1.
          4   -1    0    0  501    0  0.00000000000E+00 -0.00000000000E+00 -0.88310871264E+02  0.88320002736E+02  0.12700000000E+01 0.  1.
         25    2    1    2    0    0  0.00000000000E+00  0.00000000000E+00 -0.44097588671E+02  0.13255152156E+03  0.12500123416E+03 0.  0.
    9000005    1    3    3    0    0  0.14522829245E+02 -0.29822275513E+02  0.34112931500E+02  0.47591730181E+02  0.10000000000E+01 0.  0.
    9000005    1    3    3    0    0 -0.14522829245E+02  0.29822275513E+02 -0.78210520171E+02  0.84959791381E+02  0.10000000000E+01 0.  0.
<mgrwt>
<rscale>  0 0.12500123E+03</rscale>
<asrwt>0</asrwt>
<pdfrwt beam="2">  1        4 0.13588393E-01 0.12500123E+03</pdfrwt>
<pdfrwt beam="1">  1       -4 0.68041487E-02 0.12500123E+03</pdfrwt>
<totfact> 0.10289654E+04</totfact>
</mgrwt>
</event>
<event>
 5    1  0.3327068E-002  0.1249979E+03  0.7818608E-02  0.1235073E+00
          4   -1    0    0  501    0  0.00000000000E+00  0.00000000000E+00  0.12163176152E+04  0.12163182783E+04  0.12700000000E+01 0.  1.
         -4   -1    0    0    0  501 -0.00000000000E+00 -0.00000000000E+00 -0.30851814399E+01  0.33363519774E+01  0.12700000000E+01 0.  1.
         25    2    1    2    0    0  0.00000000000E+00  0.00000000000E+00  0.12132324338E+04  0.12196546302E+04  0.12499791458E+03 0.  0.
    9000005    1    3    3    0    0 -0.29381208329E+02  0.35813824974E+02  0.10158730422E+04  0.10169291634E+04  0.10000000000E+01 0.  0.
    9000005    1    3    3    0    0  0.29381208329E+02 -0.35813824974E+02  0.19735939157E+03  0.20272546683E+03  0.10000000000E+01 0.  0.
<mgrwt>
<rscale>  0 0.12499791E+03</rscale>
<asrwt>0</asrwt>
<pdfrwt beam="1">  1        4 0.18714514E+00 0.12499791E+03</pdfrwt>
<pdfrwt beam="2">  1       -4 0.49401517E-03 0.12499791E+03</pdfrwt>
<totfact> 0.24205121E+03</totfact>
</mgrwt>
</event>
<event>
 5    1  0.3327068E-002  0.1250015E+03  0.7818608E-02  0.1235067E+00
          4   -1    0    0  501    0  0.00000000000E+00  0.00000000000E+00  0.12653639997E+03  0.12654277308E+03  0.12700000000E+01 0. -1.
         -4   -1    0    0    0  501 -0.00000000000E+00 -0.00000000000E+00 -0.30851094202E+02  0.30877223215E+02  0.12700000000E+01 0. -1.
         25    2    1    2    0    0  0.00000000000E+00  0.00000000000E+00  0.95685305769E+02  0.15741999629E+03  0.12500150996E+03 0.  0.
    9000005    1    3    3    0    0  0.58384324542E+02  0.19540980288E+02  0.34351484039E+02  0.70509600187E+02  0.10000000000E+01 0.  0.
    9000005    1    3    3    0    0 -0.58384324542E+02 -0.19540980288E+02  0.61333821730E+02  0.86910396104E+02  0.10000000000E+01 0.  0.
<mgrwt>
<rscale>  0 0.12500151E+03</rscale>
<asrwt>0</asrwt>
<pdfrwt beam="1">  1        4 0.19469639E-01 0.12500151E+03</pdfrwt>
<pdfrwt beam="2">  1       -4 0.47488223E-02 0.12500151E+03</pdfrwt>
<totfact> 0.97839186E+03</totfact>
</mgrwt>
</event>
<event>
 5    1  0.3327068E-002  0.1249982E+03  0.7818608E-02  0.1235072E+00
          4   -1    0    0  501    0  0.00000000000E+00  0.00000000000E+00  0.13981769885E+02  0.14039330081E+02  0.12700000000E+01 0. -1.
         -4   -1    0    0    0  501 -0.00000000000E+00 -0.00000000000E+00 -0.27874074469E+03  0.27874363787E+03  0.12700000000E+01 0. -1.
         25    2    1    2    0    0  0.00000000000E+00  0.00000000000E+00 -0.26475897480E+03  0.29278296795E+03  0.12499820631E+03 0.  0.
    9000005    1    3    3    0    0  0.58676968751E+02  0.17559142729E+02 -0.10332860306E+03  0.12012123195E+03  0.10000000000E+01 0.  0.
    9000005    1    3    3    0    0 -0.58676968751E+02 -0.17559142729E+02 -0.16143037174E+03  0.17266173599E+03  0.10000000000E+01 0.  0.
<mgrwt>
<rscale>  0 0.12499821E+03</rscale>
<asrwt>0</asrwt>
<pdfrwt beam="1">  1        4 0.21556920E-02 0.12499821E+03</pdfrwt>
<pdfrwt beam="2">  1       -4 0.42887837E-01 0.12499821E+03</pdfrwt>
<totfact> 0.76516190E+03</totfact>
</mgrwt>
</event>
<event>
 5    1  0.3327068E-002  0.1250049E+03  0.7818608E-02  0.1235062E+00
         -4   -1    0    0    0  501 -0.00000000000E+00  0.00000000000E+00  0.30958359023E+03  0.30958619517E+03  0.12700000000E+01 0. -1.
          4   -1    0    0  501    0  0.00000000000E+00 -0.00000000000E+00 -0.12584131586E+02  0.12648053913E+02  0.12700000000E+01 0. -1.
         25    2    1    2    0    0  0.00000000000E+00  0.00000000000E+00  0.29699945865E+03  0.32223424908E+03  0.12500493129E+03 0.  0.
    9000005    1    3    3    0    0  0.36906487314E+02  0.48403019610E+02  0.18501113260E+03  0.19476924886E+03  0.10000000000E+01 0.  0.
    9000005    1    3    3    0    0 -0.36906487314E+02 -0.48403019610E+02  0.11198832604E+03  0.12746500023E+03  0.10000000000E+01 0.  0.
<mgrwt>
<rscale>  0 0.12500493E+03</rscale>
<asrwt>0</asrwt>
<pdfrwt beam="2">  1        4 0.19411378E-02 0.12500493E+03</pdfrwt>
<pdfrwt beam="1">  1       -4 0.47633361E-01 0.12500493E+03</pdfrwt>
<totfact> 0.72883210E+03</totfact>
</mgrwt>
</event>
<event>
 5    1  0.3327068E-002  0.1250196E+03  0.7818608E-02  0.1235039E+00
         -4   -1    0    0    0  501 -0.00000000000E+00  0.00000000000E+00  0.49982231696E+02  0.49998363826E+02  0.12700000000E+01 0. -1.
          4   -1    0    0  501    0  0.00000000000E+00 -0.00000000000E+00 -0.78143397135E+02  0.78153716583E+02  0.12700000000E+01 0. -1.
         25    2    1    2    0    0  0.00000000000E+00  0.00000000000E+00 -0.28161165439E+02  0.12815208041E+03  0.12501961636E+03 0.  0.
    9000005    1    3    3    0    0 -0.80756194215E+01 -0.47970152568E+02  0.26147142740E+02  0.55236077340E+02  0.10000000000E+01 0.  0.
    9000005    1    3    3    0    0  0.80756194215E+01  0.47970152568E+02 -0.54308308178E+02  0.72916003070E+02  0.10000000000E+01 0.  0.
<mgrwt>
<rscale>  0 0.12501962E+03</rscale>
<asrwt>0</asrwt>
<pdfrwt beam="2">  1        4 0.12024096E-01 0.12501962E+03</pdfrwt>
<pdfrwt beam="1">  1       -4 0.76916088E-02 0.12501962E+03</pdfrwt>
<totfact> 0.10379607E+04</totfact>
</mgrwt>
</event>
<event>
 5    1  0.3327068E-002  0.1249938E+03  0.7818608E-02  0.1235079E+00
          4   -1    0    0  501    0  0.00000000000E+00  0.00000000000E+00  0.26800123310E+02  0.26830197716E+02  0.12700000000E+01 0. -1.
         -4   -1    0    0    0  501 -0.00000000000E+00 -0.00000000000E+00 -0.14562595196E+03  0.14563148967E+03  0.12700000000E+01 0. -1.
         25    2    1    2    0    0  0.00000000000E+00  0.00000000000E+00 -0.11882582865E+03  0.17246168739E+03  0.12499382410E+03 0.  0.
    9000005    1    3    3    0    0 -0.43140249495E+02 -0.44795396568E+02 -0.51002552713E+02  0.80436117904E+02  0.10000000000E+01 0.  0.
    9000005    1    3    3    0    0  0.43140249495E+02  0.44795396568E+02 -0.67823275938E+02  0.92025569486E+02  0.10000000000E+01 0.  0.
<mgrwt>
<rscale>  0 0.12499382E+03</rscale>
<asrwt>0</asrwt>
<pdfrwt beam="1">  1        4 0.41258354E-02 0.12499382E+03</pdfrwt>
<pdfrwt beam="2">  1       -4 0.22406732E-01 0.12499382E+03</pdfrwt>
<totfact> 0.95004959E+03</totfact>
</mgrwt>
</event>
<event>
 5    1  0.3327068E-002  0.1250030E+03  0.7818608E-02  0.1235065E+00
          4   -1    0    0  501    0  0.00000000000E+00  0.00000000000E+00  0.55947250820E+02  0.55961663434E+02  0.12700000000E+01 0. -1.
         -4   -1    0    0    0  501 -0.00000000000E+00 -0.00000000000E+00 -0.69794383271E+02  0.69805936969E+02  0.12700000000E+01 0. -1.
         25    2    1    2    0    0  0.00000000000E+00  0.00000000000E+00 -0.13847132451E+02  0.12576760040E+03  0.12500298490E+03 0.  0.
    9000005    1    3    3    0    0 -0.56827007974E+02 -0.14499089898E+02 -0.28640407874E+02  0.65274845127E+02  0.10000000000E+01 0.  0.
    9000005    1    3    3    0    0  0.56827007974E+02  0.14499089898E+02  0.14793275423E+02  0.60492755276E+02  0.10000000000E+01 0.  0.
<mgrwt>
<rscale>  0 0.12500298E+03</rscale>
<asrwt>0</asrwt>
<pdfrwt beam="1">  1        4 0.86092668E-02 0.12500298E+03</pdfrwt>
<pdfrwt beam="2">  1       -4 0.10739595E-01 0.12500298E+03</pdfrwt>
<totfact> 0.10435355E+04</totfact>
</mgrwt>
</event>
<event>
 5    1  0.3327068E-002  0.1249992E+03  0.7818608E-02  0.1235071E+00
         -4   -1    0    0    0  501 -0.00000000000E+00  0.00000000000E+00  0.24990657630E+01  0.28032534113E+01  0.12700000000E+01 0. -1.
          4   -1    0    0  501    0  0.00000000000E+00 -0.00000000000E+00 -0.14730889285E+04  0.14730894759E+04  0.12700000000E+01 0. -1.
         25    2    1    2    0    0  0.00000000000E+00  0.00000000000E+00 -0.14705898627E+04  0.14758927293E+04  0.12499921684E+03 0.  0.
    9000005    1    3    3    0    0  0.51418291165E+02  0.15521553383E+02 -0.35812104708E+03  0.36212766208E+03  0.10000000000E+01 0.  0.
    9000005    1    3    3    0    0 -0.51418291165E+02 -0.15521553383E+02 -0.11124688156E+04  0.11137650673E+04  0.10000000000E+01 0.  0.
<mgrwt>
<rscale>  0 0.12499922E+03</rscale>
<asrwt>0</asrwt>
<pdfrwt beam="2">  1        4 0.22665185E+00 0.12499922E+03</pdfrwt>
<pdfrwt beam="1">  1       -4 0.40791399E-03 0.12499922E+03</pdfrwt>
<totfact> 0.18408965E+03</totfact>
</mgrwt>
</event>
<event>
 5    1  0.3327068E-002  0.1249999E+03  0.7818608E-02  0.1235069E+00
         -4   -1    0    0    0  501 -0.00000000000E+00  0.00000000000E+00  0.52009407377E+02  0.52024910915E+02  0.12700000000E+01 0.  1.
          4   -1    0    0  501    0  0.00000000000E+00 -0.00000000000E+00 -0.75074393525E+02  0.75085134768E+02  0.12700000000E+01 0.  1.
         25    2    1    2    0    0  0.00000000000E+00  0.00000000000E+00 -0.23064986148E+02  0.12711004568E+03  0.12499988051E+03 0.  0.
    9000005    1    3    3    0    0  0.38700689593E+02  0.28020028913E+02 -0.52491195117E+02  0.70987259139E+02  0.10000000000E+01 0.  0.
    9000005    1    3    3    0    0 -0.38700689593E+02 -0.28020028913E+02  0.29426208968E+02  0.56122786545E+02  0.10000000000E+01 0.  0.
<mgrwt>
<rscale>  0 0.12499988E+03</rscale>
<asrwt>0</asrwt>
<pdfrwt beam="2">  1        4 0.11551926E-01 0.12499988E+03</pdfrwt>
<pdfrwt beam="1">  1       -4 0.80034661E-02 0.12499988E+03</pdfrwt>
<totfact> 0.10406784E+04</totfact>
</mgrwt>
</event>
<event>
 5    1  0.3327068E-002  0.1250039E+03  0.7818608E-02  0.1235063E+00
         -4   -1    0    0    0  501 -0.00000000000E+00  0.00000000000E+00  0.23714677767E+02  0.23748659785E+02  0.12700000000E+01 0. -1.
          4   -1    0    0  501    0  0.00000000000E+00 -0.00000000000E+00 -0.16457451684E+03  0.16457941698E+03  0.12700000000E+01 0. -1.
         25    2    1    2    0    0  0.00000000000E+00  0.00000000000E+00 -0.14085983907E+03  0.18832807676E+03  0.12500388087E+03 0.  0.
    9000005    1    3    3    0    0 -0.47453187280E+02 -0.31425615660E+02 -0.10931358903E+03  0.12324704885E+03  0.10000000000E+01 0.  0.
    9000005    1    3    3    0    0  0.47453187280E+02  0.31425615660E+02 -0.31546250035E+02  0.65081027911E+02  0.10000000000E+01 0.  0.
<mgrwt>
<rscale>  0 0.12500388E+03</rscale>
<asrwt>0</asrwt>
<pdfrwt beam="2">  1        4 0.25322147E-01 0.12500388E+03</pdfrwt>
<pdfrwt beam="1">  1       -4 0.36514030E-02 0.12500388E+03</pdfrwt>
<totfact> 0.92131030E+03</totfact>
</mgrwt>
</event>
<event>
 4    1  0.3327068E-002  0.1250811E+03  0.7818608E-02  0.1234943E+00
          4   -1    0    0  501    0  0.00000000000E+00  0.00000000000E+00  0.55647775198E+02  0.55662265356E+02  0.12700000000E+01 0. -1.
         -4   -1    0    0    0  501 -0.00000000000E+00 -0.00000000000E+00 -0.70257681198E+02  0.70269158721E+02  0.12700000000E+01 0. -1.
    9000005    1    1    2    0    0 -0.40973609294E+02 -0.35205712482E+02 -0.39015742291E+02  0.66644632166E+02  0.10000000000E+01 0.  0.
    9000005    1    1    2    0    0  0.40973609294E+02  0.35205712482E+02  0.24405836292E+02  0.59286791911E+02  0.10000000000E+01 0.  0.
<mgrwt>
<rscale>  0 0.12508107E+03</rscale>
<asrwt>0</asrwt>
<pdfrwt beam="1">  1        4 0.85631937E-02 0.12508107E+03</pdfrwt>
<pdfrwt beam="2">  1       -4 0.10810872E-01 0.12508107E+03</pdfrwt>
<totfact> 0.10413399E+04</totfact>
</mgrwt>
</event>
<event>
 5    1  0.3327068E-002  0.1249991E+03  0.7818608E-02  0.1235071E+00
          4   -1    0    0  501    0  0.00000000000E+00  0.00000000000E+00  0.96623147599E+01  0.97454207974E+01  0.12700000000E+01 0.  1.
         -4   -1    0    0    0  501 -0.00000000000E+00 -0.00000000000E+00 -0.40245597182E+03  0.40245797563E+03  0.12700000000E+01 0.  1.
         25    2    1    2    0    0  0.00000000000E+00  0.00000000000E+00 -0.39279365706E+03  0.41220339643E+03  0.12499913202E+03 0.  0.
    9000005    1    3    3    0    0  0.32478323625E+02  0.52348648050E+02 -0.23097867542E+03  0.23905516300E+03  0.10000000000E+01 0.  0.
    9000005    1    3    3    0    0 -0.32478323625E+02 -0.52348648050E+02 -0.16181498164E+03  0.17314823343E+03  0.10000000000E+01 0.  0.
<mgrwt>
<rscale>  0 0.12499913E+03</rscale>
<asrwt>0</asrwt>
<pdfrwt beam="1">  1        4 0.14930572E-02 0.12499913E+03</pdfrwt>
<pdfrwt beam="2">  1       -4 0.61922837E-01 0.12499913E+03</pdfrwt>
<totfact> 0.63384178E+03</totfact>
</mgrwt>
</event>
<event>
 5    1  0.3327068E-002  0.1249985E+03  0.7818608E-02  0.1235072E+00
          4   -1    0    0  501    0  0.00000000000E+00  0.00000000000E+00  0.36829734052E+03  0.36829953018E+03  0.12700000000E+01 0. -1.
         -4   -1    0    0    0  501 -0.00000000000E+00 -0.00000000000E+00 -0.10565735257E+02  0.10641788455E+02  0.12700000000E+01 0. -1.
         25    2    1    2    0    0  0.00000000000E+00  0.00000000000E+00  0.35773160526E+03  0.37894131864E+03  0.12499848626E+03 0.  0.
    9000005    1    3    3    0    0  0.59086564093E+02  0.13467159630E+02  0.22509784417E+03  0.23311504863E+03  0.10000000000E+01 0.  0.
    9000005    1    3    3    0    0 -0.59086564093E+02 -0.13467159630E+02  0.13263376109E+03  0.14582627001E+03  0.10000000000E+01 0.  0.
<mgrwt>
<rscale>  0 0.12499849E+03</rscale>
<asrwt>0</asrwt>
<pdfrwt beam="1">  1        4 0.56667138E-01 0.12499849E+03</pdfrwt>
<pdfrwt beam="2">  1       -4 0.16315167E-02 0.12499849E+03</pdfrwt>
<totfact> 0.66656002E+03</totfact>
</mgrwt>
</event>
<event>
 4    1  0.3327068E-002  0.1249167E+03  0.7818608E-02  0.1235199E+00
          4   -1    0    0  501    0  0.00000000000E+00  0.00000000000E+00  0.17359071688E+03  0.17359536252E+03  0.12700000000E+01 0.  1.
         -4   -1    0    0    0  501 -0.00000000000E+00 -0.00000000000E+00 -0.22449782995E+02  0.22485676697E+02  0.12700000000E+01 0.  1.
    9000005    1    1    2    0    0  0.31741153776E+02  0.12572448928E+02 -0.65123755715E+01  0.34770365984E+02  0.10000000000E+01 0.  0.
    9000005    1    1    2    0    0 -0.31741153776E+02 -0.12572448928E+02  0.15765330946E+03  0.16131067323E+03  0.10000000000E+01 0.  0.
<mgrwt>
<rscale>  0 0.12491674E+03</rscale>
<asrwt>0</asrwt>
<pdfrwt beam="1">  1        4 0.26709383E-01 0.12491674E+03</pdfrwt>
<pdfrwt beam="2">  1       -4 0.34569311E-02 0.12491674E+03</pdfrwt>
<totfact> 0.90969316E+03</totfact>
</mgrwt>
</event>
<event>
 5    1  0.3327068E-002  0.1249985E+03  0.7818608E-02  0.1235072E+00
          4   -1    0    0  501    0  0.00000000000E+00  0.00000000000E+00  0.29944667195E+02  0.29971586435E+02  0.12700000000E+01 0.  1.
         -4   -1    0    0    0  501 -0.00000000000E+00 -0.00000000000E+00 -0.13035726820E+03  0.13036345451E+03  0.12700000000E+01 0.  1.
         25    2    1    2    0    0  0.00000000000E+00  0.00000000000E+00 -0.10041260100E+03  0.16033504094E+03  0.12499853965E+03 0.  0.
    9000005    1    3    3    0    0 -0.54898797575E+02 -0.29680913037E+02 -0.54327757399E+02  0.82748654357E+02  0.10000000000E+01 0.  0.
    9000005    1    3    3    0    0  0.54898797575E+02  0.29680913037E+02 -0.46084843603E+02  0.77586386588E+02  0.10000000000E+01 0.  0.
<mgrwt>
<rscale>  0 0.12499854E+03</rscale>
<asrwt>0</asrwt>
<pdfrwt beam="1">  1        4 0.46094185E-02 0.12499854E+03</pdfrwt>
<pdfrwt beam="2">  1       -4 0.20057511E-01 0.12499854E+03</pdfrwt>
<totfact> 0.97281424E+03</totfact>
</mgrwt>
</event>
<event>
 5    1  0.3327068E-002  0.1250021E+03  0.7818608E-02  0.1235066E+00
         -4   -1    0    0    0  501 -0.00000000000E+00  0.00000000000E+00  0.45248412735E+01  0.46996902612E+01  0.12700000000E+01 0. -1.
          4   -1    0    0  501    0  0.00000000000E+00 -0.00000000000E+00 -0.84678027591E+03  0.84678122828E+03  0.12700000000E+01 0. -1.
         25    2    1    2    0    0  0.00000000000E+00  0.00000000000E+00 -0.84225543464E+03  0.85148091854E+03  0.12500214985E+03 0.  0.
    9000005    1    3    3    0    0 -0.21985418827E+02  0.24217767656E+02 -0.78384998082E+03  0.78453275989E+03  0.10000000000E+01 0.  0.
    9000005    1    3    3    0    0  0.21985418827E+02 -0.24217767656E+02 -0.58405453813E+02  0.66948158648E+02  0.10000000000E+01 0.  0.
<mgrwt>
<rscale>  0 0.12500215E+03</rscale>
<asrwt>0</asrwt>
<pdfrwt beam="2">  1        4 0.13028729E+00 0.12500215E+03</pdfrwt>
<pdfrwt beam="1">  1       -4 0.70965328E-03 0.12500215E+03</pdfrwt>
<totfact> 0.36065137E+03</totfact>
</mgrwt>
</event>
<event>
 5    1  0.3327068E-002  0.1249991E+03  0.7818608E-02  0.1235071E+00
         -4   -1    0    0    0  501 -0.00000000000E+00  0.00000000000E+00  0.75003878967E+02  0.75014630307E+02  0.12700000000E+01 0. -1.
          4   -1    0    0  501    0  0.00000000000E+00 -0.00000000000E+00 -0.52057688484E+02  0.52073177647E+02  0.12700000000E+01 0. -1.
         25    2    1    2    0    0  0.00000000000E+00  0.00000000000E+00  0.22946190483E+02  0.12708780795E+03  0.12499913309E+03 0.  0.
    9000005    1    3    3    0    0  0.60353472022E+02 -0.48942960141E+01  0.27181178265E+02  0.66380058530E+02  0.10000000000E+01 0.  0.
    9000005    1    3    3    0    0 -0.60353472022E+02  0.48942960141E+01 -0.42349877816E+01  0.60707749424E+02  0.10000000000E+01 0.  0.
<mgrwt>
<rscale>  0 0.12499913E+03</rscale>
<asrwt>0</asrwt>
<pdfrwt beam="2">  1        4 0.80108938E-02 0.12499913E+03</pdfrwt>
<pdfrwt beam="1">  1       -4 0.11541077E-01 0.12499913E+03</pdfrwt>
<totfact> 0.10407442E+04</totfact>
</mgrwt>
</event>
<event>
 5    1  0.3327068E-002  0.1250004E+03  0.7818608E-02  0.1235069E+00
         -4   -1    0    0    0  501 -0.00000000000E+00  0.00000000000E+00  0.74564231491E+02  0.74575046215E+02  0.12700000000E+01 0.  1.
          4   -1    0    0  501    0  0.00000000000E+00 -0.00000000000E+00 -0.52365779006E+02  0.52381177067E+02  0.12700000000E+01 0.  1.
         25    2    1    2    0    0  0.00000000000E+00  0.00000000000E+00  0.22198452485E+02  0.12695622328E+03  0.12500044535E+03 0.  0.
    9000005    1    3    3    0    0 -0.44539773465E+02 -0.38033836468E+02 -0.11034257809E+02  0.59608044610E+02  0.10000000000E+01 0.  0.
    9000005    1    3    3    0    0  0.44539773465E+02  0.38033836468E+02  0.33232710294E+02  0.67348178671E+02  0.10000000000E+01 0.  0.
<mgrwt>
<rscale>  0 0.12500045E+03</rscale>
<asrwt>0</asrwt>
<pdfrwt beam="2">  1        4 0.80582901E-02 0.12500045E+03</pdfrwt>
<pdfrwt beam="1">  1       -4 0.11473437E-01 0.12500045E+03</pdfrwt>
<totfact> 0.10409992E+04</totfact>
</mgrwt>
</event>
<event>
 5    1  0.3327068E-002  0.1249983E+03  0.7818608E-02  0.1235072E+00
         -4   -1    0    0    0  501 -0.00000000000E+00  0.00000000000E+00  0.25621726578E+03  0.25622041328E+03  0.12700000000E+01 0.  1.
          4   -1    0    0  501    0  0.00000000000E+00 -0.00000000000E+00 -0.15215738035E+02  0.15268647089E+02  0.12700000000E+01 0.  1.
         25    2    1    2    0    0  0.00000000000E+00  0.00000000000E+00  0.24100152774E+03  0.27148906037E+03  0.12499829410E+03 0.  0.
    9000005    1    3    3    0    0 -0.29953513559E+02 -0.49269166950E+02  0.68171849179E+02  0.89292019839E+02  0.10000000000E+01 0.  0.
    9000005    1    3    3    0    0  0.29953513559E+02  0.49269166950E+02  0.17282967857E+03  0.18219704053E+03  0.10000000000E+01 0.  0.
<mgrwt>
<rscale>  0 0.12499829E+03</rscale>
<asrwt>0</asrwt>
<pdfrwt beam="2">  1        4 0.23451949E-02 0.12499829E+03</pdfrwt>
<pdfrwt beam="1">  1       -4 0.39422352E-01 0.12499829E+03</pdfrwt>
<totfact> 0.79323298E+03</totfact>
</mgrwt>
</event>
<event>
 5    1  0.3327068E-002  0.1249916E+03  0.7818608E-02  0.1235082E+00
          4   -1    0    0  501    0  0.00000000000E+00  0.00000000000E+00  0.21662458992E+04  0.21662462715E+04  0.12700000000E+01 0.  1.
         -4   -1    0    0    0  501 -0.00000000000E+00 -0.00000000000E+00 -0.15789331610E+01  0.20263094352E+01  0.12700000000E+01 0.  1.
         25    2    1    2    0    0  0.00000000000E+00  0.00000000000E+00  0.21646669660E+04  0.21682725809E+04  0.12499164487E+03 0.  0.
    9000005    1    3    3    0    0 -0.62272560483E+02 -0.48366287505E+01  0.11146156441E+04  0.11163647697E+04  0.10000000000E+01 0.  0.
    9000005    1    3    3    0    0  0.62272560483E+02  0.48366287505E+01  0.10500513219E+04  0.10519078112E+04  0.10000000000E+01 0.  0.
<mgrwt>
<rscale>  0 0.12499164E+03</rscale>
<asrwt>0</asrwt>
<pdfrwt beam="1">  1        4 0.33330154E+00 0.12499164E+03</pdfrwt>
<pdfrwt beam="2">  1       -4 0.27735624E-03 0.12499164E+03</pdfrwt>
<totfact> 0.78232351E+02</totfact>
</mgrwt>
</event>
<event>
 5    1  0.3327068E-002  0.1249999E+03  0.7818608E-02  0.1235069E+00
         -4   -1    0    0    0  501 -0.00000000000E+00  0.00000000000E+00  0.45123185614E+01  0.46876346701E+01  0.12700000000E+01 0.  1.
          4   -1    0    0  501    0  0.00000000000E+00 -0.00000000000E+00 -0.84901215112E+03  0.84901310099E+03  0.12700000000E+01 0.  1.
         25    2    1    2    0    0  0.00000000000E+00  0.00000000000E+00 -0.84449983256E+03  0.85370073566E+03  0.12499991549E+03 0.  0.
    9000005    1    3    3    0    0  0.24386300391E+02  0.51061905846E+02 -0.60336145752E+03  0.60600994901E+03  0.10000000000E+01 0.  0.
    9000005    1    3    3    0    0 -0.24386300391E+02 -0.51061905846E+02 -0.24113837504E+03  0.24769078665E+03  0.10000000000E+01 0.  0.
<mgrwt>
<rscale>  0 0.12499992E+03</rscale>
<asrwt>0</asrwt>
<pdfrwt beam="2">  1        4 0.13063069E+00 0.12499992E+03</pdfrwt>
<pdfrwt beam="1">  1       -4 0.70776245E-03 0.12499992E+03</pdfrwt>
<totfact> 0.35976460E+03</totfact>
</mgrwt>
</event>
<event>
 5    1  0.3327068E-002  0.1249984E+03  0.7818608E-02  0.1235072E+00
          4   -1    0    0  501    0  0.00000000000E+00  0.00000000000E+00  0.90340595296E+03  0.90340684564E+03  0.12700000000E+01 0. -1.
         -4   -1    0    0    0  501 -0.00000000000E+00 -0.00000000000E+00 -0.42296334703E+01  0.44161860574E+01  0.12700000000E+01 0. -1.
         25    2    1    2    0    0  0.00000000000E+00  0.00000000000E+00  0.89917631949E+03  0.90782303170E+03  0.12499841336E+03 0.  0.
    9000005    1    3    3    0    0  0.54643600143E+02 -0.19463737750E+00  0.66977903705E+03  0.67200514834E+03  0.10000000000E+01 0.  0.
    9000005    1    3    3    0    0 -0.54643600143E+02  0.19463737750E+00  0.22939728244E+03  0.23581788336E+03  0.10000000000E+01 0.  0.
<mgrwt>
<rscale>  0 0.12499841E+03</rscale>
<asrwt>0</asrwt>
<pdfrwt beam="1">  1        4 0.13899982E+00 0.12499841E+03</pdfrwt>
<pdfrwt beam="2">  1       -4 0.66513232E-03 0.12499841E+03</pdfrwt>
<totfact> 0.33863335E+03</totfact>
</mgrwt>
</event>
<event>
 5    1  0.3327068E-002  0.1249987E+03  0.7818608E-02  0.1235071E+00
         -4   -1    0    0    0  501 -0.00000000000E+00  0.00000000000E+00  0.11281964630E+04  0.11281971778E+04  0.12700000000E+01 0. -1.
          4   -1    0    0  501    0  0.00000000000E+00 -0.00000000000E+00 -0.33451113407E+01  0.35780818719E+01  0.12700000000E+01 0. -1.
         25    2    1    2    0    0  0.00000000000E+00  0.00000000000E+00  0.11248513516E+04  0.11317752596E+04  0.12499870041E+03 0.  0.
    9000005    1    3    3    0    0 -0.49912072615E+02  0.34587663112E+02  0.42884876848E+03  0.43312791143E+03  0.10000000000E+01 0.  0.
    9000005    1    3    3    0    0  0.49912072615E+02 -0.34587663112E+02  0.69600258313E+03  0.69864734821E+03  0.10000000000E+01 0.  0.
<mgrwt>
<rscale>  0 0.12499870E+03</rscale>
<asrwt>0</asrwt>
<pdfrwt beam="2">  1        4 0.53260791E-03 0.12499870E+03</pdfrwt>
<pdfrwt beam="1">  1       -4 0.17358679E+00 0.12499870E+03</pdfrwt>
<totfact> 0.26572089E+03</totfact>
</mgrwt>
</event>
<event>
 5    1  0.3327068E-002  0.1250010E+03  0.7818608E-02  0.1235068E+00
          4   -1    0    0  501    0  0.00000000000E+00  0.00000000000E+00  0.19093536469E+02  0.19135726662E+02  0.12700000000E+01 0.  1.
         -4   -1    0    0    0  501 -0.00000000000E+00 -0.00000000000E+00 -0.20431825570E+03  0.20432220269E+03  0.12700000000E+01 0.  1.
         25    2    1    2    0    0  0.00000000000E+00  0.00000000000E+00 -0.18522471923E+03  0.22345792935E+03  0.12500099830E+03 0.  0.
    9000005    1    3    3    0    0  0.55335101158E+02  0.11432954379E+02 -0.44890948055E+02  0.72172592327E+02  0.10000000000E+01 0.  0.
    9000005    1    3    3    0    0 -0.55335101158E+02 -0.11432954379E+02 -0.14033377117E+03  0.15128533702E+03  0.10000000000E+01 0.  0.
<mgrwt>
<rscale>  0 0.12500100E+03</rscale>
<asrwt>0</asrwt>
<pdfrwt beam="1">  1        4 0.29410163E-02 0.12500100E+03</pdfrwt>
<pdfrwt beam="2">  1       -4 0.31437125E-01 0.12500100E+03</pdfrwt>
<totfact> 0.86322194E+03</totfact>
</mgrwt>
</event>
<event>
 5    1  0.3327068E-002  0.1249967E+03  0.7818608E-02  0.1235074E+00
         -4   -1    0    0    0  501 -0.00000000000E+00  0.00000000000E+00  0.90720663404E+01  0.91605287885E+01  0.12700000000E+01 0. -1.
          4   -1    0    0  501    0  0.00000000000E+00 -0.00000000000E+00 -0.42837854212E+03  0.42838042468E+03  0.12700000000E+01 0. -1.
         25    2    1    2    0    0  0.00000000000E+00  0.00000000000E+00 -0.41930647578E+03  0.43754095347E+03  0.12499666128E+03 0.  0.
    9000005    1    3    3    0    0 -0.20865351998E+02  0.55620037982E+02 -0.27753702608E+03  0.28382521450E+03  0.10000000000E+01 0.  0.
    9000005    1    3    3    0    0  0.20865351998E+02 -0.55620037982E+02 -0.14176944969E+03  0.15371573897E+03  0.10000000000E+01 0.  0.
<mgrwt>
<rscale>  0 0.12499666E+03</rscale>
<asrwt>0</asrwt>
<pdfrwt beam="2">  1        4 0.65911325E-01 0.12499666E+03</pdfrwt>
<pdfrwt beam="1">  1       -4 0.14026525E-02 0.12499666E+03</pdfrwt>
<totfact> 0.61062849E+03</totfact>
</mgrwt>
</event>
<event>
 5    1  0.3327068E-002  0.1249978E+03  0.7818608E-02  0.1235073E+00
          4   -1    0    0  501    0  0.00000000000E+00  0.00000000000E+00  0.50591783862E+03  0.50591943265E+03  0.12700000000E+01 0.  1.
         -4   -1    0    0    0  501 -0.00000000000E+00 -0.00000000000E+00 -0.76669950720E+01  0.77714679073E+01  0.12700000000E+01 0.  1.
         25    2    1    2    0    0  0.00000000000E+00  0.00000000000E+00  0.49825084355E+03  0.51369090056E+03  0.12499775286E+03 0.  0.
    9000005    1    3    3    0    0 -0.22941753925E+01  0.51202285615E+02  0.10220087439E+03  0.11433702821E+03  0.10000000000E+01 0.  0.
    9000005    1    3    3    0    0  0.22941753925E+01 -0.51202285615E+02  0.39604996915E+03  0.39935387235E+03  0.10000000000E+01 0.  0.
<mgrwt>
<rscale>  0 0.12499775E+03</rscale>
<asrwt>0</asrwt>
<pdfrwt beam="1">  1        4 0.77841657E-01 0.12499775E+03</pdfrwt>
<pdfrwt beam="2">  1       -4 0.11876969E-02 0.12499775E+03</pdfrwt>
<totfact> 0.54820264E+03</totfact>
</mgrwt>
</event>
<event>
 5    1  0.3327068E-002  0.1249988E+03  0.7818608E-02  0.1235071E+00
         -4   -1    0    0    0  501 -0.00000000000E+00  0.00000000000E+00  0.20541566195E+02  0.20580788171E+02  0.12700000000E+01 0. -1.
          4   -1    0    0  501    0  0.00000000000E+00 -0.00000000000E+00 -0.18993691906E+03  0.18994116489E+03  0.12700000000E+01 0. -1.
         25    2    1    2    0    0  0.00000000000E+00  0.00000000000E+00 -0.16939535286E+03  0.21052195306E+03  0.12499882860E+03 0.  0.
    9000005    1    3    3    0    0  0.48661983864E+02  0.34262889528E+02 -0.11679654943E+03  0.13108916138E+03  0.10000000000E+01 0.  0.
    9000005    1    3    3    0    0 -0.48661983864E+02 -0.34262889528E+02 -0.52598803436E+02  0.79432791688E+02  0.10000000000E+01 0.  0.
<mgrwt>
<rscale>  0 0.12499883E+03</rscale>
<asrwt>0</asrwt>
<pdfrwt beam="2">  1        4 0.29224407E-01 0.12499883E+03</pdfrwt>
<pdfrwt beam="1">  1       -4 0.31635848E-02 0.12499883E+03</pdfrwt>
<totfact> 0.88393025E+03</totfact>
</mgrwt>
</event>
<event>
 5    1  0.3327068E-002  0.1249995E+03  0.7818608E-02  0.1235070E+00
         -4   -1    0    0    0  501 -0.00000000000E+00  0.00000000000E+00  0.23823883827E+03  0.23824222330E+03  0.12700000000E+01 0. -1.
          4   -1    0    0  501    0  0.00000000000E+00 -0.00000000000E+00 -0.16368122208E+02  0.16417317826E+02  0.12700000000E+01 0. -1.
         25    2    1    2    0    0  0.00000000000E+00  0.00000000000E+00  0.22187071606E+03  0.25465954112E+03  0.12499946895E+03 0.  0.
    9000005    1    3    3    0    0 -0.28220598509E+02 -0.13637644971E+02  0.22107749746E+03  0.22329050007E+03  0.10000000000E+01 0.  0.
    9000005    1    3    3    0    0  0.28220598509E+02  0.13637644971E+02  0.79321860551E+00  0.31369041049E+02  0.10000000000E+01 0.  0.
<mgrwt>
<rscale>  0 0.12499947E+03</rscale>
<asrwt>0</asrwt>
<pdfrwt beam="2">  1        4 0.25222174E-02 0.12499947E+03</pdfrwt>
<pdfrwt beam="1">  1       -4 0.36656173E-01 0.12499947E+03</pdfrwt>
<totfact> 0.81662374E+03</totfact>
</mgrwt>
</event>
<event>
 4    1  0.3327068E-002  0.1232810E+03  0.7818608E-02  0.1237780E+00
         -4   -1    0    0    0  501 -0.00000000000E+00  0.00000000000E+00  0.28653714871E+03  0.28653996316E+03  0.12700000000E+01 0.  1.
          4   -1    0    0  501    0  0.00000000000E+00 -0.00000000000E+00 -0.13226949698E+02  0.13287780037E+02  0.12700000000E+01 0.  1.
    9000005    1    1    2    0    0 -0.31714123013E+02 -0.41658401864E+02  0.21573823279E+03  0.22200268722E+03  0.10000000000E+01 0.  0.
    9000005    1    1    2    0    0  0.31714123013E+02  0.41658401864E+02  0.57571966217E+02  0.77825055981E+02  0.10000000000E+01 0.  0.
<mgrwt>
<rscale>  0 0.12328102E+03</rscale>
<asrwt>0</asrwt>
<pdfrwt beam="2">  1        4 0.20398113E-02 0.12328102E+03</pdfrwt>
<pdfrwt beam="1">  1       -4 0.44087530E-01 0.12328102E+03</pdfrwt>
<totfact> 0.78580278E+03</totfact>
</mgrwt>
</event>
<event>
 5    1  0.3327068E-002  0.1250022E+03  0.7818608E-02  0.1235066E+00
         -4   -1    0    0    0  501 -0.00000000000E+00  0.00000000000E+00  0.16045317310E+03  0.16045819910E+03  0.12700000000E+01 0. -1.
          4   -1    0    0  501    0  0.00000000000E+00 -0.00000000000E+00 -0.24323992337E+02  0.24357124280E+02  0.12700000000E+01 0. -1.
         25    2    1    2    0    0  0.00000000000E+00  0.00000000000E+00  0.13612918077E+03  0.18481532338E+03  0.12500219958E+03 0.  0.
    9000005    1    3    3    0    0  0.10008870348E+02 -0.66432066077E+01 -0.22608095352E+02  0.25621000276E+02  0.10000000000E+01 0.  0.
    9000005    1    3    3    0    0 -0.10008870348E+02  0.66432066077E+01  0.15873727612E+03  0.15919432311E+03  0.10000000000E+01 0.  0.
<mgrwt>
<rscale>  0 0.12500220E+03</rscale>
<asrwt>0</asrwt>
<pdfrwt beam="2">  1        4 0.37450879E-02 0.12500220E+03</pdfrwt>
<pdfrwt beam="1">  1       -4 0.24688039E-01 0.12500220E+03</pdfrwt>
<totfact> 0.92752767E+03</totfact>
</mgrwt>
</event>
<event>
 5    1  0.3327068E-002  0.1250005E+03  0.7818608E-02  0.1235069E+00
          4   -1    0    0  501    0  0.00000000000E+00  0.00000000000E+00  0.71292671241E+01  0.72415018972E+01  0.12700000000E+01 0.  1.
         -4   -1    0    0    0  501 -0.00000000000E+00 -0.00000000000E+00 -0.54352948822E+03  0.54353097195E+03  0.12700000000E+01 0.  1.
         25    2    1    2    0    0  0.00000000000E+00  0.00000000000E+00 -0.53640022110E+03  0.55077247385E+03  0.12500048301E+03 0.  0.
    9000005    1    3    3    0    0  0.54950366183E+02 -0.15032214691E+02 -0.38137675329E+03  0.38560956701E+03  0.10000000000E+01 0.  0.
    9000005    1    3    3    0    0 -0.54950366183E+02  0.15032214691E+02 -0.15502346782E+03  0.16516290684E+03  0.10000000000E+01 0.  0.
<mgrwt>
<rscale>  0 0.12500048E+03</rscale>
<asrwt>0</asrwt>
<pdfrwt beam="1">  1        4 0.11055583E-02 0.12500048E+03</pdfrwt>
<pdfrwt beam="2">  1       -4 0.83628637E-01 0.12500048E+03</pdfrwt>
<totfact> 0.52129591E+03</totfact>
</mgrwt>
</event>
<event>
 5    1  0.3327068E-002  0.1250028E+03  0.7818608E-02  0.1235065E+00
         -4   -1    0    0    0  501 -0.00000000000E+00  0.00000000000E+00  0.67125731158E+02  0.67137744105E+02  0.12700000000E+01 0.  1.
          4   -1    0    0  501    0  0.00000000000E+00 -0.00000000000E+00 -0.58171464192E+02  0.58185325867E+02  0.12700000000E+01 0.  1.
         25    2    1    2    0    0  0.00000000000E+00  0.00000000000E+00  0.89542669663E+01  0.12532306997E+03  0.12500277185E+03 0.  0.
    9000005    1    3    3    0    0  0.54548894292E+01 -0.27904789824E+02 -0.51316069258E+02  0.58675140204E+02  0.10000000000E+01 0.  0.
    9000005    1    3    3    0    0 -0.54548894292E+01  0.27904789824E+02  0.60270336224E+02  0.66647929769E+02  0.10000000000E+01 0.  0.
<mgrwt>
<rscale>  0 0.12500277E+03</rscale>
<asrwt>0</asrwt>
<pdfrwt beam="2">  1        4 0.89514464E-02 0.12500277E+03</pdfrwt>
<pdfrwt beam="1">  1       -4 0.10329026E-01 0.12500277E+03</pdfrwt>
<totfact> 0.10445195E+04</totfact>
</mgrwt>
</event>
<event>
 5    1  0.3327068E-002  0.1250005E+03  0.7818608E-02  0.1235068E+00
          4   -1    0    0  501    0  0.00000000000E+00  0.00000000000E+00  0.10102353869E+03  0.10103152117E+03  0.12700000000E+01 0. -1.
         -4   -1    0    0    0  501 -0.00000000000E+00 -0.00000000000E+00 -0.38647110046E+02  0.38667971435E+02  0.12700000000E+01 0. -1.
         25    2    1    2    0    0  0.00000000000E+00  0.00000000000E+00  0.62376428645E+02  0.13969949260E+03  0.12500051753E+03 0.  0.
    9000005    1    3    3    0    0 -0.48816941359E+01  0.44744680897E+00 -0.38437376503E+02  0.38761618371E+02  0.10000000000E+01 0.  0.
    9000005    1    3    3    0    0  0.48816941359E+01 -0.44744680897E+00  0.10081380515E+03  0.10093787423E+03  0.10000000000E+01 0.  0.
<mgrwt>
<rscale>  0 0.12500052E+03</rscale>
<asrwt>0</asrwt>
<pdfrwt beam="1">  1        4 0.15544301E-01 0.12500052E+03</pdfrwt>
<pdfrwt beam="2">  1       -4 0.59479281E-02 0.12500052E+03</pdfrwt>
<totfact> 0.10139699E+04</totfact>
</mgrwt>
</event>
<event>
 5    1  0.3327068E-002  0.1250001E+03  0.7818608E-02  0.1235069E+00
         -4   -1    0    0    0  501 -0.00000000000E+00  0.00000000000E+00  0.99333865809E+02  0.99341984058E+02  0.12700000000E+01 0. -1.
          4   -1    0    0  501    0  0.00000000000E+00 -0.00000000000E+00 -0.39304541147E+02  0.39325053780E+02  0.12700000000E+01 0. -1.
         25    2    1    2    0    0  0.00000000000E+00  0.00000000000E+00  0.60029324662E+02  0.13866703784E+03  0.12500011025E+03 0.  0.
    9000005    1    3    3    0    0 -0.31803914672E+02  0.28070274037E+02 -0.20891956304E+02  0.47295910089E+02  0.10000000000E+01 0.  0.
    9000005    1    3    3    0    0  0.31803914672E+02 -0.28070274037E+02  0.80921280966E+02  0.91371127749E+02  0.10000000000E+01 0.  0.
<mgrwt>
<rscale>  0 0.12500011E+03</rscale>
<asrwt>0</asrwt>
<pdfrwt beam="2">  1        4 0.60490548E-02 0.12500011E+03</pdfrwt>
<pdfrwt beam="1">  1       -4 0.15284336E-01 0.12500011E+03</pdfrwt>
<totfact> 0.10161262E+04</totfact>
</mgrwt>
</event>
<event>
 5    1  0.3327068E-002  0.1249996E+03  0.7818608E-02  0.1235070E+00
          4   -1    0    0  501    0  0.00000000000E+00  0.00000000000E+00  0.27208717105E+03  0.27209013498E+03  0.12700000000E+01 0. -1.
         -4   -1    0    0    0  501 -0.00000000000E+00 -0.00000000000E+00 -0.14325386676E+02  0.14381571660E+02  0.12700000000E+01 0. -1.
         25    2    1    2    0    0  0.00000000000E+00  0.00000000000E+00  0.25776178438E+03  0.28647170664E+03  0.12499960487E+03 0.  0.
    9000005    1    3    3    0    0  0.41268897200E+02  0.86889541552E+01  0.23195110983E+02  0.48141800692E+02  0.10000000000E+01 0.  0.
    9000005    1    3    3    0    0 -0.41268897200E+02 -0.86889541552E+01  0.23456667339E+03  0.23832990594E+03  0.10000000000E+01 0.  0.
<mgrwt>
<rscale>  0 0.12499960E+03</rscale>
<asrwt>0</asrwt>
<pdfrwt beam="1">  1        4 0.41864109E-01 0.12499960E+03</pdfrwt>
<pdfrwt beam="2">  1       -4 0.22084559E-02 0.12499960E+03</pdfrwt>
<totfact> 0.77328438E+03</totfact>
</mgrwt>
</event>
<event>
 5    1  0.3327068E-002  0.1250001E+03  0.7818608E-02  0.1235069E+00
         -4   -1    0    0    0  501 -0.00000000000E+00  0.00000000000E+00  0.43003432845E+03  0.43003620376E+03  0.12700000000E+01 0.  1.
          4   -1    0    0  501    0  0.00000000000E+00 -0.00000000000E+00 -0.90373014300E+01  0.91261008726E+01  0.12700000000E+01 0.  1.
         25    2    1    2    0    0  0.00000000000E+00  0.00000000000E+00  0.42099702702E+03  0.43916230464E+03  0.12500013221E+03 0.  0.
    9000005    1    3    3    0    0  0.10102628655E+02 -0.58004976577E+02  0.28407816625E+03  0.29011729516E+03  0.10000000000E+01 0.  0.
    9000005    1    3    3    0    0 -0.10102628655E+02  0.58004976577E+02  0.13691886078E+03  0.14904500948E+03  0.10000000000E+01 0.  0.
<mgrwt>
<rscale>  0 0.12500013E+03</rscale>
<asrwt>0</asrwt>
<pdfrwt beam="2">  1        4 0.13973293E-02 0.12500013E+03</pdfrwt>
<pdfrwt beam="1">  1       -4 0.66166089E-01 0.12500013E+03</pdfrwt>
<totfact> 0.60914003E+03</totfact>
</mgrwt>
</event>
<event>
 5    1  0.3327068E-002  0.1250005E+03  0.7818608E-02  0.1235069E+00
          4   -1    0    0  501    0  0.00000000000E+00  0.00000000000E+00  0.14989082679E+02  0.15042788956E+02  0.12700000000E+01 0. -1.
         -4   -1    0    0    0  501 -0.00000000000E+00 -0.00000000000E+00 -0.26008698717E+03  0.26009008784E+03  0.12700000000E+01 0. -1.
         25    2    1    2    0    0  0.00000000000E+00  0.00000000000E+00 -0.24509790449E+03  0.27513287680E+03  0.12500046844E+03 0.  0.
    9000005    1    3    3    0    0  0.27951650235E+02  0.18243720594E+02 -0.62642649794E+01  0.33976007825E+02  0.10000000000E+01 0.  0.
    9000005    1    3    3    0    0 -0.27951650235E+02 -0.18243720594E+02 -0.23883363951E+03  0.24115686897E+03  0.10000000000E+01 0.  0.
<mgrwt>
<rscale>  0 0.12500047E+03</rscale>
<asrwt>0</asrwt>
<pdfrwt beam="1">  1        4 0.23103827E-02 0.12500047E+03</pdfrwt>
<pdfrwt beam="2">  1       -4 0.40017749E-01 0.12500047E+03</pdfrwt>
<totfact> 0.78827088E+03</totfact>
</mgrwt>
</event>
<event>
 5    1  0.3327068E-002  0.1250014E+03  0.7818608E-02  0.1235067E+00
          4   -1    0    0  501    0  0.00000000000E+00  0.00000000000E+00  0.55005174508E+02  0.55019833903E+02  0.12700000000E+01 0.  1.
         -4   -1    0    0    0  501 -0.00000000000E+00 -0.00000000000E+00 -0.70987801984E+02  0.70999161478E+02  0.12700000000E+01 0.  1.
         25    2    1    2    0    0  0.00000000000E+00  0.00000000000E+00 -0.15982627476E+02  0.12601899538E+03  0.12500137126E+03 0.  0.
    9000005    1    3    3    0    0  0.35343222301E+02 -0.27929333706E+02 -0.51658418361E+02  0.68547671233E+02  0.10000000000E+01 0.  0.
    9000005    1    3    3    0    0 -0.35343222301E+02  0.27929333706E+02  0.35675790886E+02  0.57471324147E+02  0.10000000000E+01 0.  0.
<mgrwt>
<rscale>  0 0.12500137E+03</rscale>
<asrwt>0</asrwt>
<pdfrwt beam="1">  1        4 0.84643360E-02 0.12500137E+03</pdfrwt>
<pdfrwt beam="2">  1       -4 0.10923202E-01 0.12500137E+03</pdfrwt>
<totfact> 0.10430218E+04</totfact>
</mgrwt>
</event>
<event>
 5    1  0.3327068E-002  0.1249989E+03  0.7818608E-02  0.1235071E+00
          4   -1    0    0  501    0  0.00000000000E+00  0.00000000000E+00  0.23568090129E+02  0.23602283201E+02  0.12700000000E+01 0. -1.
         -4   -1    0    0    0  501 -0.00000000000E+00 -0.00000000000E+00 -0.16558335455E+03  0.16558822483E+03  0.12700000000E+01 0. -1.
         25    2    1    2    0    0  0.00000000000E+00  0.00000000000E+00 -0.14201526442E+03  0.18919050803E+03  0.12499885200E+03 0.  0.
    9000005    1    3    3    0    0  0.44627601922E+02 -0.12448928188E+02 -0.75367795681E+01  0.46951056565E+02  0.10000000000E+01 0.  0.
    9000005    1    3    3    0    0 -0.44627601922E+02  0.12448928188E+02 -0.13447848485E+03  0.14223945147E+03  0.10000000000E+01 0.  0.
<mgrwt>
<rscale>  0 0.12499885E+03</rscale>
<asrwt>0</asrwt>
<pdfrwt beam="1">  1        4 0.36288650E-02 0.12499885E+03</pdfrwt>
<pdfrwt beam="2">  1       -4 0.25477366E-01 0.12499885E+03</pdfrwt>
<totfact> 0.91990720E+03</totfact>
</mgrwt>
</event>
<event>
 5    1  0.3327068E-002  0.1249995E+03  0.7818608E-02  0.1235070E+00
          4   -1    0    0  501    0  0.00000000000E+00  0.00000000000E+00  0.60080739889E+02  0.60094161161E+02  0.12700000000E+01 0.  1.
         -4   -1    0    0    0  501 -0.00000000000E+00 -0.00000000000E+00 -0.64989231369E+02  0.65001639164E+02  0.12700000000E+01 0.  1.
         25    2    1    2    0    0  0.00000000000E+00  0.00000000000E+00 -0.49084914804E+01  0.12509580032E+03  0.12499946388E+03 0.  0.
    9000005    1    3    3    0    0 -0.43034136016E+02 -0.32286263216E+02  0.29364547339E+02  0.61299398819E+02  0.10000000000E+01 0.  0.
    9000005    1    3    3    0    0  0.43034136016E+02  0.32286263216E+02 -0.34273038819E+02  0.63796401506E+02  0.10000000000E+01 0.  0.
<mgrwt>
<rscale>  0 0.12499946E+03</rscale>
<asrwt>0</asrwt>
<pdfrwt beam="1">  1        4 0.92451776E-02 0.12499946E+03</pdfrwt>
<pdfrwt beam="2">  1       -4 0.10000330E-01 0.12499946E+03</pdfrwt>
<totfact> 0.10450909E+04</totfact>
</mgrwt>
</event>
<event>
 5    1  0.3327068E-002  0.1250010E+03  0.7818608E-02  0.1235068E+00
         -4   -1    0    0    0  501 -0.00000000000E+00  0.00000000000E+00  0.33143891747E+02  0.33168214606E+02  0.12700000000E+01 0.  1.
          4   -1    0    0  501    0  0.00000000000E+00 -0.00000000000E+00 -0.11778820223E+03  0.11779504864E+03  0.12700000000E+01 0.  1.
         25    2    1    2    0    0  0.00000000000E+00  0.00000000000E+00 -0.84644310484E+02  0.15096326325E+03  0.12500099021E+03 0.  0.
    9000005    1    3    3    0    0  0.69141709542E+01 -0.61972081181E+02 -0.37347488784E+02  0.72692362215E+02  0.10000000000E+01 0.  0.
    9000005    1    3    3    0    0 -0.69141709542E+01  0.61972081181E+02 -0.47296821700E+02  0.78270901035E+02  0.10000000000E+01 0.  0.
<mgrwt>
<rscale>  0 0.12500099E+03</rscale>
<asrwt>0</asrwt>
<pdfrwt beam="2">  1        4 0.18123659E-01 0.12500099E+03</pdfrwt>
<pdfrwt beam="1">  1       -4 0.51014580E-02 0.12500099E+03</pdfrwt>
<totfact> 0.99109823E+03</totfact>
</mgrwt>
</event>
<event>
 5    1  0.3327068E-002  0.1249876E+03  0.7818608E-02  0.1235089E+00
          4   -1    0    0  501    0  0.00000000000E+00  0.00000000000E+00  0.14626277185E+03  0.14626828545E+03  0.12700000000E+01 0. -1.
         -4   -1    0    0    0  501 -0.00000000000E+00 -0.00000000000E+00 -0.26680658021E+02  0.26710866936E+02  0.12700000000E+01 0. -1.
         25    2    1    2    0    0  0.00000000000E+00  0.00000000000E+00  0.11958211383E+03  0.17297915239E+03  0.12498762024E+03 0.  0.
    9000005    1    3    3    0    0  0.16681323469E+02 -0.33280708114E+02  0.12924657076E+03  0.13450482571E+03  0.10000000000E+01 0.  0.
    9000005    1    3    3    0    0 -0.16681323469E+02  0.33280708114E+02 -0.96644569374E+01  0.38474326675E+02  0.10000000000E+01 0.  0.
<mgrwt>
<rscale>  0 0.12498762E+03</rscale>
<asrwt>0</asrwt>
<pdfrwt beam="1">  1        4 0.22504712E-01 0.12498762E+03</pdfrwt>
<pdfrwt beam="2">  1       -4 0.41074647E-02 0.12498762E+03</pdfrwt>
<totfact> 0.94922628E+03</totfact>
</mgrwt>
</event>
<event>
 5    1  0.3327068E-002  0.1250050E+03  0.7818608E-02  0.1235061E+00
         -4   -1    0    0    0  501 -0.00000000000E+00  0.00000000000E+00  0.39343123363E+02  0.39363615890E+02  0.12700000000E+01 0.  1.
          4   -1    0    0  501    0  0.00000000000E+00 -0.00000000000E+00 -0.99244243907E+02  0.99252369486E+02  0.12700000000E+01 0.  1.
         25    2    1    2    0    0  0.00000000000E+00  0.00000000000E+00 -0.59901120544E+02  0.13861598538E+03  0.12500498854E+03 0.  0.
    9000005    1    3    3    0    0 -0.25647284700E+02  0.23502586520E+02 -0.87520814626E+02  0.94186239857E+02  0.10000000000E+01 0.  0.
    9000005    1    3    3    0    0  0.25647284700E+02 -0.23502586520E+02  0.27619694083E+02  0.44429745518E+02  0.10000000000E+01 0.  0.
<mgrwt>
<rscale>  0 0.12500499E+03</rscale>
<asrwt>0</asrwt>
<pdfrwt beam="2">  1        4 0.15270547E-01 0.12500499E+03</pdfrwt>
<pdfrwt beam="1">  1       -4 0.60549896E-02 0.12500499E+03</pdfrwt>
<totfact> 0.10161209E+04</totfact>
</mgrwt>
</event>
<event>
 5    1  0.3327068E-002  0.1250016E+03  0.7818608E-02  0.1235067E+00
          4   -1    0    0  501    0  0.00000000000E+00  0.00000000000E+00  0.66377006547E+02  0.66389154974E+02  0.12700000000E+01 0.  1.
         -4   -1    0    0    0  501 -0.00000000000E+00 -0.00000000000E+00 -0.58826586759E+02  0.58840294099E+02  0.12700000000E+01 0.  1.
         25    2    1    2    0    0  0.00000000000E+00  0.00000000000E+00  0.75504197889E+01  0.12522944907E+03  0.12500162429E+03 0.  0.
    9000005    1    3    3    0    0  0.16720854363E+02  0.39441771866E+02 -0.41806188952E+02  0.59866499591E+02  0.10000000000E+01 0.  0.
    9000005    1    3    3    0    0 -0.16720854363E+02 -0.39441771866E+02  0.49356608741E+02  0.65362949482E+02  0.10000000000E+01 0.  0.
<mgrwt>
<rscale>  0 0.12500162E+03</rscale>
<asrwt>0</asrwt>
<pdfrwt beam="1">  1        4 0.10213836E-01 0.12500162E+03</pdfrwt>
<pdfrwt beam="2">  1       -4 0.90522331E-02 0.12500162E+03</pdfrwt>
<totfact> 0.10447498E+04</totfact>
</mgrwt>
</event>
<event>
 5    1  0.3327068E-002  0.1249990E+03  0.7818608E-02  0.1235071E+00
         -4   -1    0    0    0  501 -0.00000000000E+00  0.00000000000E+00  0.47105657264E+01  0.48787631079E+01  0.12700000000E+01 0. -1.
          4   -1    0    0  501    0  0.00000000000E+00 -0.00000000000E+00 -0.81452557060E+03  0.81452656069E+03  0.12700000000E+01 0. -1.
         25    2    1    2    0    0  0.00000000000E+00  0.00000000000E+00 -0.80981500488E+03  0.81940532380E+03  0.12499897016E+03 0.  0.
    9000005    1    3    3    0    0  0.33660669881E+02  0.20830903257E+02 -0.87925296108E+02  0.96430414927E+02  0.10000000000E+01 0.  0.
    9000005    1    3    3    0    0 -0.33660669881E+02 -0.20830903257E+02 -0.72188970877E+03  0.72297490887E+03  0.10000000000E+01 0.  0.
<mgrwt>
<rscale>  0 0.12499897E+03</rscale>
<asrwt>0</asrwt>
<pdfrwt beam="2">  1        4 0.12532453E+00 0.12499897E+03</pdfrwt>
<pdfrwt beam="1">  1       -4 0.73771748E-03 0.12499897E+03</pdfrwt>
<totfact> 0.37413839E+03</totfact>
</mgrwt>
</event>
<event>
 5    1  0.3327068E-002  0.1250001E+03  0.7818608E-02  0.1235069E+00
          4   -1    0    0  501    0  0.00000000000E+00  0.00000000000E+00  0.61728850881E+02  0.61741913893E+02  0.12700000000E+01 0. -1.
         -4   -1    0    0    0  501 -0.00000000000E+00 -0.00000000000E+00 -0.63254738892E+02  0.63267486850E+02  0.12700000000E+01 0. -1.
         25    2    1    2    0    0  0.00000000000E+00  0.00000000000E+00 -0.15258880105E+01  0.12500940074E+03  0.12500008776E+03 0.  0.
    9000005    1    3    3    0    0 -0.81820807028E+01 -0.41311018038E+02 -0.46936816289E+02  0.63068307249E+02  0.10000000000E+01 0.  0.
    9000005    1    3    3    0    0  0.81820807028E+01  0.41311018038E+02  0.45410928279E+02  0.61941093493E+02  0.10000000000E+01 0.  0.
<mgrwt>
<rscale>  0 0.12500009E+03</rscale>
<asrwt>0</asrwt>
<pdfrwt beam="1">  1        4 0.94987317E-02 0.12500009E+03</pdfrwt>
<pdfrwt beam="2">  1       -4 0.97334838E-02 0.12500009E+03</pdfrwt>
<totfact> 0.10452638E+04</totfact>
</mgrwt>
</event>
<event>
 4    1  0.3327068E-002  0.1249369E+03  0.7818608E-02  0.1235168E+00
         -4   -1    0    0    0  501 -0.00000000000E+00  0.00000000000E+00  0.11853308373E+02  0.11921150086E+02  0.12700000000E+01 0.  1.
          4   -1    0    0  501    0  0.00000000000E+00 -0.00000000000E+00 -0.32820803146E+03  0.32821048858E+03  0.12700000000E+01 0.  1.
    9000005    1    1    2    0    0 -0.41804369721E+02 -0.64392807755E+01 -0.28329760819E+03  0.28643953021E+03  0.10000000000E+01 0.  0.
    9000005    1    1    2    0    0  0.41804369721E+02  0.64392807755E+01 -0.33057114901E+02  0.53692108455E+02  0.10000000000E+01 0.  0.
<mgrwt>
<rscale>  0 0.12493687E+03</rscale>
<asrwt>0</asrwt>
<pdfrwt beam="2">  1        4 0.50498944E-01 0.12493687E+03</pdfrwt>
<pdfrwt beam="1">  1       -4 0.18289938E-02 0.12493687E+03</pdfrwt>
<totfact> 0.70923115E+03</totfact>
</mgrwt>
</event>
<event>
 5    1  0.3327068E-002  0.1249995E+03  0.7818608E-02  0.1235070E+00
          4   -1    0    0  501    0  0.00000000000E+00  0.00000000000E+00  0.14159392132E+04  0.14159397828E+04  0.12700000000E+01 0. -1.
         -4   -1    0    0    0  501 -0.00000000000E+00 -0.00000000000E+00 -0.26119826365E+01  0.29043679680E+01  0.12700000000E+01 0. -1.
         25    2    1    2    0    0  0.00000000000E+00  0.00000000000E+00  0.14133272306E+04  0.14188441507E+04  0.12499945351E+03 0.  0.
    9000005    1    3    3    0    0 -0.25270350657E+02  0.35732552308E+02  0.20033511175E+03  0.20506233910E+03  0.10000000000E+01 0.  0.
    9000005    1    3    3    0    0  0.25270350657E+02 -0.35732552308E+02  0.12129921188E+04  0.12137818116E+04  0.10000000000E+01 0.  0.
<mgrwt>
<rscale>  0 0.12499945E+03</rscale>
<asrwt>0</asrwt>
<pdfrwt beam="1">  1        4 0.21785947E+00 0.12499945E+03</pdfrwt>
<pdfrwt beam="2">  1       -4 0.42437822E-03 0.12499945E+03</pdfrwt>
<totfact> 0.19580332E+03</totfact>
</mgrwt>
</event>
<event>
 5    1  0.3327068E-002  0.1250020E+03  0.7818608E-02  0.1235066E+00
         -4   -1    0    0    0  501 -0.00000000000E+00  0.00000000000E+00  0.41630211809E+03  0.41630405526E+03  0.12700000000E+01 0. -1.
          4   -1    0    0  501    0  0.00000000000E+00 -0.00000000000E+00 -0.93385686853E+01  0.94245299665E+01  0.12700000000E+01 0. -1.
         25    2    1    2    0    0  0.00000000000E+00  0.00000000000E+00  0.40696354940E+03  0.42572858522E+03  0.12500199092E+03 0.  0.
    9000005    1    3    3    0    0  0.31328946162E+02  0.25167250472E+02  0.36647863344E+03  0.36867666339E+03  0.10000000000E+01 0.  0.
    9000005    1    3    3    0    0 -0.31328946162E+02 -0.25167250472E+02  0.40484915961E+02  0.57051921828E+02  0.10000000000E+01 0.  0.
<mgrwt>
<rscale>  0 0.12500199E+03</rscale>
<asrwt>0</asrwt>
<pdfrwt beam="2">  1        4 0.14434645E-02 0.12500199E+03</pdfrwt>
<pdfrwt beam="1">  1       -4 0.64053234E-01 0.12500199E+03</pdfrwt>
<totfact> 0.62122361E+03</totfact>
</mgrwt>
</event>
<event>
 5    1  0.3327068E-002  0.1250005E+03  0.7818608E-02  0.1235068E+00
          4   -1    0    0  501    0  0.00000000000E+00  0.00000000000E+00  0.27083864954E+02  0.27113624635E+02  0.12700000000E+01 0.  1.
         -4   -1    0    0    0  501 -0.00000000000E+00 -0.00000000000E+00 -0.14411741781E+03  0.14412301349E+03  0.12700000000E+01 0.  1.
         25    2    1    2    0    0  0.00000000000E+00  0.00000000000E+00 -0.11703355286E+03  0.17123663812E+03  0.12500053496E+03 0.  0.
    9000005    1    3    3    0    0  0.26275110696E+02 -0.52980566643E+02 -0.86185838552E+02  0.10452904214E+03  0.10000000000E+01 0.  0.
    9000005    1    3    3    0    0 -0.26275110696E+02  0.52980566643E+02 -0.30847714305E+02  0.66707595982E+02  0.10000000000E+01 0.  0.
<mgrwt>
<rscale>  0 0.12500053E+03</rscale>
<asrwt>0</asrwt>
<pdfrwt beam="1">  1        4 0.41694682E-02 0.12500053E+03</pdfrwt>
<pdfrwt beam="2">  1       -4 0.22174630E-01 0.12500053E+03</pdfrwt>
<totfact> 0.95217502E+03</totfact>
</mgrwt>
</event>
<event>
 5    1  0.3327068E-002  0.1249990E+03  0.7818608E-02  0.1235071E+00
          4   -1    0    0  501    0  0.00000000000E+00  0.00000000000E+00  0.88098598837E+01  0.89009286690E+01  0.12700000000E+01 0. -1.
         -4   -1    0    0    0  501 -0.00000000000E+00 -0.00000000000E+00 -0.44101661789E+03  0.44101844650E+03  0.12700000000E+01 0. -1.
         25    2    1    2    0    0  0.00000000000E+00  0.00000000000E+00 -0.43220675801E+03  0.44991937517E+03  0.12499904995E+03 0.  0.
    9000005    1    3    3    0    0  0.51010466443E+02  0.34064168513E+02 -0.17309785995E+03  0.18364722808E+03  0.10000000000E+01 0.  0.
    9000005    1    3    3    0    0 -0.51010466443E+02 -0.34064168513E+02 -0.25910889806E+03  0.26627214709E+03  0.10000000000E+01 0.  0.
<mgrwt>
<rscale>  0 0.12499905E+03</rscale>
<asrwt>0</asrwt>
<pdfrwt beam="1">  1        4 0.13625094E-02 0.12499905E+03</pdfrwt>
<pdfrwt beam="2">  1       -4 0.67855840E-01 0.12499905E+03</pdfrwt>
<totfact> 0.59972042E+03</totfact>
</mgrwt>
</event>
<event>
 5    1  0.3327068E-002  0.1249989E+03  0.7818608E-02  0.1235071E+00
          4   -1    0    0  501    0  0.00000000000E+00  0.00000000000E+00  0.17577303146E+01  0.21685285008E+01  0.12700000000E+01 0. -1.
         -4   -1    0    0    0  501 -0.00000000000E+00 -0.00000000000E+00 -0.19893622683E+04  0.19893626737E+04  0.12700000000E+01 0. -1.
         25    2    1    2    0    0  0.00000000000E+00  0.00000000000E+00 -0.19876045380E+04  0.19915312022E+04  0.12499891937E+03 0.  0.
    9000005    1    3    3    0    0 -0.43591219340E+02 -0.85329984684E+01 -0.29346990330E+03  0.29681406740E+03  0.10000000000E+01 0.  0.
    9000005    1    3    3    0    0  0.43591219340E+02  0.85329984684E+01 -0.16941346347E+04  0.16947171348E+04  0.10000000000E+01 0.  0.
<mgrwt>
<rscale>  0 0.12499892E+03</rscale>
<asrwt>0</asrwt>
<pdfrwt beam="1">  1        4 0.30205268E-03 0.12499892E+03</pdfrwt>
<pdfrwt beam="2">  1       -4 0.30608575E+00 0.12499892E+03</pdfrwt>
<totfact> 0.99725420E+02</totfact>
</mgrwt>
</event>
<event>
 5    1  0.3327068E-002  0.1250006E+03  0.7818608E-02  0.1235068E+00
         -4   -1    0    0    0  501 -0.00000000000E+00  0.00000000000E+00  0.23493417456E+02  0.23527719051E+02  0.12700000000E+01 0.  1.
          4   -1    0    0  501    0  0.00000000000E+00 -0.00000000000E+00 -0.16611349609E+03  0.16611835083E+03  0.12700000000E+01 0.  1.
         25    2    1    2    0    0  0.00000000000E+00  0.00000000000E+00 -0.14262007864E+03  0.18964606988E+03  0.12500057997E+03 0.  0.
    9000005    1    3    3    0    0 -0.55609834796E+02  0.12305104412E+02 -0.32291637952E+02  0.65479914495E+02  0.10000000000E+01 0.  0.
    9000005    1    3    3    0    0  0.55609834796E+02 -0.12305104412E+02 -0.11032844068E+03  0.12416615539E+03  0.10000000000E+01 0.  0.
<mgrwt>
<rscale>  0 0.12500058E+03</rscale>
<asrwt>0</asrwt>
<pdfrwt beam="2">  1        4 0.25558934E-01 0.12500058E+03</pdfrwt>
<pdfrwt beam="1">  1       -4 0.36173841E-02 0.12500058E+03</pdfrwt>
<totfact> 0.91907740E+03</totfact>
</mgrwt>
</event>
<event>
 5    1  0.3327068E-002  0.1250003E+03  0.7818608E-02  0.1235069E+00
          4   -1    0    0  501    0  0.00000000000E+00  0.00000000000E+00  0.25916768518E+02  0.25947866779E+02  0.12700000000E+01 0.  1.
         -4   -1    0    0    0  501 -0.00000000000E+00 -0.00000000000E+00 -0.15059952631E+03  0.15060488115E+03  0.12700000000E+01 0.  1.
         25    2    1    2    0    0  0.00000000000E+00  0.00000000000E+00 -0.12468275779E+03  0.17655274792E+03  0.12500033084E+03 0.  0.
    9000005    1    3    3    0    0  0.22963812905E+01 -0.28533714164E+02  0.16118733880E+02  0.32867305836E+02  0.10000000000E+01 0.  0.
    9000005    1    3    3    0    0 -0.22963812905E+01  0.28533714164E+02 -0.14080149167E+03  0.14368544209E+03  0.10000000000E+01 0.  0.
<mgrwt>
<rscale>  0 0.12500033E+03</rscale>
<asrwt>0</asrwt>
<pdfrwt beam="1">  1        4 0.39899993E-02 0.12500033E+03</pdfrwt>
<pdfrwt beam="2">  1       -4 0.23171961E-01 0.12500033E+03</pdfrwt>
<totfact> 0.94240527E+03</totfact>
</mgrwt>
</event>
<event>
 5    1  0.3327068E-002  0.1249961E+03  0.7818608E-02  0.1235075E+00
          4   -1    0    0  501    0  0.00000000000E+00  0.00000000000E+00  0.10975870849E+03  0.10976605572E+03  0.12700000000E+01 0. -1.
         -4   -1    0    0    0  501 -0.00000000000E+00 -0.00000000000E+00 -0.35567357821E+02  0.35590024478E+02  0.12700000000E+01 0. -1.
         25    2    1    2    0    0  0.00000000000E+00  0.00000000000E+00  0.74191350667E+02  0.14535608020E+03  0.12499613409E+03 0.  0.
    9000005    1    3    3    0    0 -0.35290805117E+02 -0.22938610937E+02 -0.16616346885E+02  0.45262830019E+02  0.10000000000E+01 0.  0.
    9000005    1    3    3    0    0  0.35290805117E+02  0.22938610937E+02  0.90807697552E+02  0.10009325018E+03  0.10000000000E+01 0.  0.
<mgrwt>
<rscale>  0 0.12499613E+03</rscale>
<asrwt>0</asrwt>
<pdfrwt beam="1">  1        4 0.16888264E-01 0.12499613E+03</pdfrwt>
<pdfrwt beam="2">  1       -4 0.54742100E-02 0.12499613E+03</pdfrwt>
<totfact> 0.10024631E+04</totfact>
</mgrwt>
</event>
<event>
 5    1  0.3327068E-002  0.1249995E+03  0.7818608E-02  0.1235070E+00
         -4   -1    0    0    0  501 -0.00000000000E+00  0.00000000000E+00  0.39490564803E+02  0.39510980859E+02  0.12700000000E+01 0. -1.
          4   -1    0    0  501    0  0.00000000000E+00 -0.00000000000E+00 -0.98865145047E+02  0.98873301782E+02  0.12700000000E+01 0. -1.
         25    2    1    2    0    0  0.00000000000E+00  0.00000000000E+00 -0.59374580245E+02  0.13838428264E+03  0.12499947561E+03 0.  0.
    9000005    1    3    3    0    0 -0.36059518518E+02 -0.50437373231E+02 -0.38333833757E+02  0.72901991089E+02  0.10000000000E+01 0.  0.
    9000005    1    3    3    0    0  0.36059518518E+02  0.50437373231E+02 -0.21040746487E+02  0.65482291552E+02  0.10000000000E+01 0.  0.
<mgrwt>
<rscale>  0 0.12499948E+03</rscale>
<asrwt>0</asrwt>
<pdfrwt beam="2">  1        4 0.15212220E-01 0.12499948E+03</pdfrwt>
<pdfrwt beam="1">  1       -4 0.60776694E-02 0.12499948E+03</pdfrwt>
<totfact> 0.10167303E+04</totfact>
</mgrwt>
</event>
<event>
 5    1  0.3327068E-002  0.1249985E+03  0.7818608E-02  0.1235072E+00
         -4   -1    0    0    0  501 -0.00000000000E+00  0.00000000000E+00  0.20216852933E+02  0.20256703643E+02  0.12700000000E+01 0.  1.
          4   -1    0    0  501    0  0.00000000000E+00 -0.00000000000E+00 -0.19298065692E+03  0.19298483579E+03  0.12700000000E+01 0.  1.
         25    2    1    2    0    0  0.00000000000E+00  0.00000000000E+00 -0.17276380399E+03  0.21324153944E+03  0.12499848868E+03 0.  0.
    9000005    1    3    3    0    0 -0.24324665074E+02  0.44548012375E+02 -0.24192001002E+02  0.56235821769E+02  0.10000000000E+01 0.  0.
    9000005    1    3    3    0    0  0.24324665074E+02 -0.44548012375E+02 -0.14857180299E+03  0.15700571767E+03  0.10000000000E+01 0.  0.
<mgrwt>
<rscale>  0 0.12499849E+03</rscale>
<asrwt>0</asrwt>
<pdfrwt beam="2">  1        4 0.29692717E-01 0.12499849E+03</pdfrwt>
<pdfrwt beam="1">  1       -4 0.31136721E-02 0.12499849E+03</pdfrwt>
<totfact> 0.87952188E+03</totfact>
</mgrwt>
</event>
<event>
 5    1  0.3327068E-002  0.1250007E+03  0.7818608E-02  0.1235068E+00
          4   -1    0    0  501    0  0.00000000000E+00  0.00000000000E+00  0.10162253439E+02  0.10241303382E+02  0.12700000000E+01 0. -1.
         -4   -1    0    0    0  501 -0.00000000000E+00 -0.00000000000E+00 -0.38282307183E+03  0.38282517841E+03  0.12700000000E+01 0. -1.
         25    2    1    2    0    0  0.00000000000E+00  0.00000000000E+00 -0.37266081839E+03  0.39306648179E+03  0.12500069418E+03 0.  0.
    9000005    1    3    3    0    0  0.61036764633E+02 -0.11654606010E+02 -0.20718328384E+03  0.21630355887E+03  0.10000000000E+01 0.  0.
    9000005    1    3    3    0    0 -0.61036764633E+02  0.11654606010E+02 -0.16547753456E+03  0.17676292292E+03  0.10000000000E+01 0.  0.
<mgrwt>
<rscale>  0 0.12500069E+03</rscale>
<asrwt>0</asrwt>
<pdfrwt beam="1">  1        4 0.15696667E-02 0.12500069E+03</pdfrwt>
<pdfrwt beam="2">  1       -4 0.58902089E-01 0.12500069E+03</pdfrwt>
<totfact> 0.65231772E+03</totfact>
</mgrwt>
</event>
<event>
 5    1  0.3327068E-002  0.1249976E+03  0.7818608E-02  0.1235073E+00
          4   -1    0    0  501    0  0.00000000000E+00  0.00000000000E+00  0.71516106252E+01  0.72635001573E+01  0.12700000000E+01 0. -1.
         -4   -1    0    0    0  501 -0.00000000000E+00 -0.00000000000E+00 -0.54183284259E+03  0.54183433097E+03  0.12700000000E+01 0. -1.
         25    2    1    2    0    0  0.00000000000E+00  0.00000000000E+00 -0.53468123197E+03  0.54909783112E+03  0.12499763328E+03 0.  0.
    9000005    1    3    3    0    0 -0.52400013082E+02  0.18455586548E+02 -0.14164537640E+03  0.15215381264E+03  0.10000000000E+01 0.  0.
    9000005    1    3    3    0    0  0.52400013082E+02 -0.18455586548E+02 -0.39303585557E+03  0.39694401849E+03  0.10000000000E+01 0.  0.
<mgrwt>
<rscale>  0 0.12499763E+03</rscale>
<asrwt>0</asrwt>
<pdfrwt beam="1">  1        4 0.11089696E-02 0.12499763E+03</pdfrwt>
<pdfrwt beam="2">  1       -4 0.83367588E-01 0.12499763E+03</pdfrwt>
<totfact> 0.52249597E+03</totfact>
</mgrwt>
</event>
<event>
 5    1  0.3327068E-002  0.1250011E+03  0.7818608E-02  0.1235068E+00
          4   -1    0    0  501    0  0.00000000000E+00  0.00000000000E+00  0.33595785269E+02  0.33619781198E+02  0.12700000000E+01 0. -1.
         -4   -1    0    0    0  501 -0.00000000000E+00 -0.00000000000E+00 -0.11620512303E+03  0.11621206271E+03  0.12700000000E+01 0. -1.
         25    2    1    2    0    0  0.00000000000E+00  0.00000000000E+00 -0.82609337764E+02  0.14983184391E+03  0.12500111505E+03 0.  0.
    9000005    1    3    3    0    0  0.19467191460E+02 -0.56302269962E+02 -0.18675915196E+02  0.62439626477E+02  0.10000000000E+01 0.  0.
    9000005    1    3    3    0    0 -0.19467191460E+02  0.56302269962E+02 -0.63933422568E+02  0.87392217431E+02  0.10000000000E+01 0.  0.
<mgrwt>
<rscale>  0 0.12500112E+03</rscale>
<asrwt>0</asrwt>
<pdfrwt beam="1">  1        4 0.51709621E-02 0.12500112E+03</pdfrwt>
<pdfrwt beam="2">  1       -4 0.17880091E-01 0.12500112E+03</pdfrwt>
<totfact> 0.99334735E+03</totfact>
</mgrwt>
</event>
<event>
 4    1  0.3327068E-002  0.1252184E+03  0.7818608E-02  0.1234728E+00
         -4   -1    0    0    0  501 -0.00000000000E+00  0.00000000000E+00  0.71943159351E+02  0.71954368022E+02  0.12700000000E+01 0.  1.
          4   -1    0    0  501    0  0.00000000000E+00 -0.00000000000E+00 -0.54463343894E+02  0.54478149089E+02  0.12700000000E+01 0.  1.
    9000005    1    1    2    0    0 -0.83690803630E+01 -0.51900399154E+02  0.43057945892E+02  0.67960868468E+02  0.10000000000E+01 0.  0.
    9000005    1    1    2    0    0  0.83690803630E+01  0.51900399154E+02 -0.25578130435E+02  0.58471648643E+02  0.10000000000E+01 0.  0.
<mgrwt>
<rscale>  0 0.12521836E+03</rscale>
<asrwt>0</asrwt>
<pdfrwt beam="2">  1        4 0.83809771E-02 0.12521836E+03</pdfrwt>
<pdfrwt beam="1">  1       -4 0.11070179E-01 0.12521836E+03</pdfrwt>
<totfact> 0.10370306E+04</totfact>
</mgrwt>
</event>
<event>
 5    1  0.3327068E-002  0.1249866E+03  0.7818608E-02  0.1235090E+00
          4   -1    0    0  501    0  0.00000000000E+00  0.00000000000E+00  0.57571045283E+02  0.57585051488E+02  0.12700000000E+01 0. -1.
         -4   -1    0    0    0  501 -0.00000000000E+00 -0.00000000000E+00 -0.67808144128E+02  0.67820036199E+02  0.12700000000E+01 0. -1.
         25    2    1    2    0    0  0.00000000000E+00  0.00000000000E+00 -0.10237098845E+02  0.12540508769E+03  0.12498655058E+03 0.  0.
    9000005    1    3    3    0    0  0.57288213147E+02 -0.22948505587E+02 -0.14940927020E+02  0.63504366578E+02  0.10000000000E+01 0.  0.
    9000005    1    3    3    0    0 -0.57288213147E+02  0.22948505587E+02  0.47038281745E+01  0.61900721109E+02  0.10000000000E+01 0.  0.
<mgrwt>
<rscale>  0 0.12498655E+03</rscale>
<asrwt>0</asrwt>
<pdfrwt beam="1">  1        4 0.88590761E-02 0.12498655E+03</pdfrwt>
<pdfrwt beam="2">  1       -4 0.10434014E-01 0.12498655E+03</pdfrwt>
<totfact> 0.10447222E+04</totfact>
</mgrwt>
</event>
<event>
 5    1  0.3327068E-002  0.1250007E+03  0.7818608E-02  0.1235068E+00
         -4   -1    0    0    0  501 -0.00000000000E+00  0.00000000000E+00  0.32465824906E+02  0.32490655377E+02  0.12700000000E+01 0. -1.
          4   -1    0    0  501    0  0.00000000000E+00 -0.00000000000E+00 -0.12024599864E+03  0.12025270512E+03  0.12700000000E+01 0. -1.
         25    2    1    2    0    0  0.00000000000E+00  0.00000000000E+00 -0.87780173733E+02  0.15274336050E+03  0.12500070110E+03 0.  0.
    9000005    1    3    3    0    0  0.61289718555E+02  0.79779043399E+01 -0.55170205750E+02  0.82854258555E+02  0.10000000000E+01 0.  0.
    9000005    1    3    3    0    0 -0.61289718555E+02 -0.79779043399E+01 -0.32609967983E+02  0.69889101941E+02  0.10000000000E+01 0.  0.
<mgrwt>
<rscale>  0 0.12500070E+03</rscale>
<asrwt>0</asrwt>
<pdfrwt beam="2">  1        4 0.18501810E-01 0.12500070E+03</pdfrwt>
<pdfrwt beam="1">  1       -4 0.49971683E-02 0.12500070E+03</pdfrwt>
<totfact> 0.98758077E+03</totfact>
</mgrwt>
</event>
<event>
 5    1  0.3327068E-002  0.1250076E+03  0.7818608E-02  0.1235057E+00
         -4   -1    0    0    0  501 -0.00000000000E+00  0.00000000000E+00  0.27831268082E+03  0.27831557844E+03  0.12700000000E+01 0. -1.
          4   -1    0    0  501    0  0.00000000000E+00 -0.00000000000E+00 -0.14005478610E+02  0.14062941766E+02  0.12700000000E+01 0. -1.
         25    2    1    2    0    0  0.00000000000E+00  0.00000000000E+00  0.26430720221E+03  0.29237852021E+03  0.12500760753E+03 0.  0.
    9000005    1    3    3    0    0 -0.15558861888E+02  0.50621021479E+01  0.27322588779E+03  0.27371716940E+03  0.10000000000E+01 0.  0.
    9000005    1    3    3    0    0  0.15558861888E+02 -0.50621021479E+01 -0.89186855891E+01  0.18661350810E+02  0.10000000000E+01 0.  0.
<mgrwt>
<rscale>  0 0.12500761E+03</rscale>
<asrwt>0</asrwt>
<pdfrwt beam="2">  1        4 0.21593321E-02 0.12500761E+03</pdfrwt>
<pdfrwt beam="1">  1       -4 0.42821980E-01 0.12500761E+03</pdfrwt>
<totfact> 0.76551980E+03</totfact>
</mgrwt>
</event>
<event>
 5    1  0.3327068E-002  0.1250213E+03  0.7818608E-02  0.1235036E+00
          4   -1    0    0  501    0  0.00000000000E+00  0.00000000000E+00  0.38964498562E+01  0.40981973454E+01  0.12700000000E+01 0. -1.
         -4   -1    0    0    0  501 -0.00000000000E+00 -0.00000000000E+00 -0.97734705441E+03  0.97734787955E+03  0.12700000000E+01 0. -1.
         25    2    1    2    0    0  0.00000000000E+00  0.00000000000E+00 -0.97345060455E+03  0.98144607689E+03  0.12502128759E+03 0.  0.
    9000005    1    3    3    0    0 -0.21973061465E+02  0.58490996429E+02 -0.49930649330E+03  0.50320173523E+03  0.10000000000E+01 0.  0.
    9000005    1    3    3    0    0  0.21973061465E+02 -0.58490996429E+02 -0.47414411126E+03  0.47824434166E+03  0.10000000000E+01 0.  0.
<mgrwt>
<rscale>  0 0.12502129E+03</rscale>
<asrwt>0</asrwt>
<pdfrwt beam="1">  1        4 0.61503711E-03 0.12502129E+03</pdfrwt>
<pdfrwt beam="2">  1       -4 0.15037648E+00 0.12502129E+03</pdfrwt>
<totfact> 0.31210697E+03</totfact>
</mgrwt>
</event>
<event>
 5    1  0.3327068E-002  0.1249995E+03  0.7818608E-02  0.1235070E+00
          4   -1    0    0  501    0  0.00000000000E+00  0.00000000000E+00  0.65470022012E+02  0.65482338705E+02  0.12700000000E+01 0.  1.
         -4   -1    0    0    0  501 -0.00000000000E+00 -0.00000000000E+00 -0.59639521039E+02  0.59653041580E+02  0.12700000000E+01 0.  1.
         25    2    1    2    0    0  0.00000000000E+00  0.00000000000E+00  0.58305009737E+01  0.12513538028E+03  0.12499947463E+03 0.  0.
    9000005    1    3    3    0    0 -0.59800591189E+02  0.20150568218E+01  0.20963884798E+02  0.63408639998E+02  0.10000000000E+01 0.  0.
    9000005    1    3    3    0    0  0.59800591189E+02 -0.20150568218E+01 -0.15133383824E+02  0.61726740287E+02  0.10000000000E+01 0.  0.
<mgrwt>
<rscale>  0 0.12499947E+03</rscale>
<asrwt>0</asrwt>
<pdfrwt beam="1">  1        4 0.10074299E-01 0.12499947E+03</pdfrwt>
<pdfrwt beam="2">  1       -4 0.91772984E-02 0.12499947E+03</pdfrwt>
<totfact> 0.10450047E+04</totfact>
</mgrwt>
</event>
<event>
 5    1  0.3327068E-002  0.1249995E+03  0.7818608E-02  0.1235070E+00
         -4   -1    0    0    0  501 -0.00000000000E+00  0.00000000000E+00  0.73769761882E+02  0.73780693058E+02  0.12700000000E+01 0. -1.
          4   -1    0    0  501    0  0.00000000000E+00 -0.00000000000E+00 -0.52929013418E+02  0.52944247671E+02  0.12700000000E+01 0. -1.
         25    2    1    2    0    0  0.00000000000E+00  0.00000000000E+00  0.20840748464E+02  0.12672494073E+03  0.12499949522E+03 0.  0.
    9000005    1    3    3    0    0  0.38222149892E+02 -0.34889047289E+02  0.45933035048E+02  0.69202760580E+02  0.10000000000E+01 0.  0.
    9000005    1    3    3    0    0 -0.38222149892E+02  0.34889047289E+02 -0.25092286584E+02  0.57522180149E+02  0.10000000000E+01 0.  0.
<mgrwt>
<rscale>  0 0.12499950E+03</rscale>
<asrwt>0</asrwt>
<pdfrwt beam="2">  1        4 0.81449379E-02 0.12499950E+03</pdfrwt>
<pdfrwt beam="1">  1       -4 0.11351207E-01 0.12499950E+03</pdfrwt>
<totfact> 0.10415246E+04</totfact>
</mgrwt>
</event>
<event>
 5    1  0.3327068E-002  0.1250210E+03  0.7818608E-02  0.1235036E+00
          4   -1    0    0  501    0  0.00000000000E+00  0.00000000000E+00  0.17330858467E+03  0.17331323787E+03  0.12700000000E+01 0. -1.
         -4   -1    0    0    0  501 -0.00000000000E+00 -0.00000000000E+00 -0.22524010607E+02  0.22559786210E+02  0.12700000000E+01 0. -1.
         25    2    1    2    0    0  0.00000000000E+00  0.00000000000E+00  0.15078457406E+03  0.19587302408E+03  0.12502101338E+03 0.  0.
    9000005    1    3    3    0    0  0.19461327895E+02 -0.56787226336E+02  0.48119142982E+02  0.76941434089E+02  0.10000000000E+01 0.  0.
    9000005    1    3    3    0    0 -0.19461327895E+02  0.56787226336E+02  0.10266543108E+03  0.11893158999E+03  0.10000000000E+01 0.  0.
<mgrwt>
<rscale>  0 0.12502101E+03</rscale>
<asrwt>0</asrwt>
<pdfrwt beam="1">  1        4 0.26665970E-01 0.12502101E+03</pdfrwt>
<pdfrwt beam="2">  1       -4 0.34683422E-02 0.12502101E+03</pdfrwt>
<totfact> 0.90792630E+03</totfact>
</mgrwt>
</event>
<event>
 5    1  0.3327068E-002  0.1250015E+03  0.7818608E-02  0.1235067E+00
          4   -1    0    0  501    0  0.00000000000E+00  0.00000000000E+00  0.11574948374E+03  0.11575645073E+03  0.12700000000E+01 0.  1.
         -4   -1    0    0    0  501 -0.00000000000E+00 -0.00000000000E+00 -0.33728333950E+02  0.33752235645E+02  0.12700000000E+01 0.  1.
         25    2    1    2    0    0  0.00000000000E+00  0.00000000000E+00  0.82021149787E+02  0.14950868637E+03  0.12500151315E+03 0.  0.
    9000005    1    3    3    0    0 -0.25157984841E+02 -0.65596417555E+01 -0.26958522465E+02  0.37466185217E+02  0.10000000000E+01 0.  0.
    9000005    1    3    3    0    0  0.25157984841E+02  0.65596417555E+01  0.10897967225E+03  0.11204250116E+03  0.10000000000E+01 0.  0.
<mgrwt>
<rscale>  0 0.12500151E+03</rscale>
<asrwt>0</asrwt>
<pdfrwt beam="1">  1        4 0.17809988E-01 0.12500151E+03</pdfrwt>
<pdfrwt beam="2">  1       -4 0.51913489E-02 0.12500151E+03</pdfrwt>
<totfact> 0.99398339E+03</totfact>
</mgrwt>
</event>
<event>
 5    1  0.3327068E-002  0.1249996E+03  0.7818608E-02  0.1235070E+00
         -4   -1    0    0    0  501 -0.00000000000E+00  0.00000000000E+00  0.40222577360E+02  0.40242622050E+02  0.12700000000E+01 0. -1.
          4   -1    0    0  501    0  0.00000000000E+00 -0.00000000000E+00 -0.97066774798E+02  0.97075082640E+02  0.12700000000E+01 0. -1.
         25    2    1    2    0    0  0.00000000000E+00  0.00000000000E+00 -0.56844197438E+02  0.13731770469E+03  0.12499955696E+03 0.  0.
    9000005    1    3    3    0    0  0.19138891163E+02  0.30753884188E+02 -0.84363028985E+02  0.91816225184E+02  0.10000000000E+01 0.  0.
    9000005    1    3    3    0    0 -0.19138891163E+02 -0.30753884188E+02  0.27518831546E+02  0.45501479506E+02  0.10000000000E+01 0.  0.
<mgrwt>
<rscale>  0 0.12499956E+03</rscale>
<asrwt>0</asrwt>
<pdfrwt beam="2">  1        4 0.14935531E-01 0.12499956E+03</pdfrwt>
<pdfrwt beam="1">  1       -4 0.61902698E-02 0.12499956E+03</pdfrwt>
<totfact> 0.10189549E+04</totfact>
</mgrwt>
</event>
<event>
 5    1  0.3327068E-002  0.1249981E+03  0.7818608E-02  0.1235072E+00
          4   -1    0    0  501    0  0.00000000000E+00  0.00000000000E+00  0.25912863092E+03  0.25913174307E+03  0.12700000000E+01 0. -1.
         -4   -1    0    0    0  501 -0.00000000000E+00 -0.00000000000E+00 -0.15044145921E+02  0.15097656325E+02  0.12700000000E+01 0. -1.
         25    2    1    2    0    0  0.00000000000E+00  0.00000000000E+00  0.24408448500E+03  0.27422939939E+03  0.12499811067E+03 0.  0.
    9000005    1    3    3    0    0 -0.27610184033E+02  0.47318756500E+02  0.18799508270E+03  0.19581761438E+03  0.10000000000E+01 0.  0.
    9000005    1    3    3    0    0  0.27610184033E+02 -0.47318756500E+02  0.56089402300E+02  0.78411785016E+02  0.10000000000E+01 0.  0.
<mgrwt>
<rscale>  0 0.12499811E+03</rscale>
<asrwt>0</asrwt>
<pdfrwt beam="1">  1        4 0.39870301E-01 0.12499811E+03</pdfrwt>
<pdfrwt beam="2">  1       -4 0.23188394E-02 0.12499811E+03</pdfrwt>
<totfact> 0.78952833E+03</totfact>
</mgrwt>
</event>
<event>
 5    1  0.3327068E-002  0.1249993E+03  0.7818608E-02  0.1235070E+00
          4   -1    0    0  501    0  0.00000000000E+00  0.00000000000E+00  0.11730918224E+02  0.11799463648E+02  0.12700000000E+01 0.  1.
         -4   -1    0    0    0  501 -0.00000000000E+00 -0.00000000000E+00 -0.33194429726E+03  0.33194672672E+03  0.12700000000E+01 0.  1.
         25    2    1    2    0    0  0.00000000000E+00  0.00000000000E+00 -0.32021337903E+03  0.34374619037E+03  0.12499934113E+03 0.  0.
    9000005    1    3    3    0    0  0.24746803594E+02  0.54397614736E+02 -0.10987116925E+03  0.12507669091E+03  0.10000000000E+01 0.  0.
    9000005    1    3    3    0    0 -0.24746803594E+02 -0.54397614736E+02 -0.21034220978E+03  0.21866949946E+03  0.10000000000E+01 0.  0.
<mgrwt>
<rscale>  0 0.12499934E+03</rscale>
<asrwt>0</asrwt>
<pdfrwt beam="1">  1        4 0.18102165E-02 0.12499934E+03</pdfrwt>
<pdfrwt beam="2">  1       -4 0.51073806E-01 0.12499934E+03</pdfrwt>
<totfact> 0.70419105E+03</totfact>
</mgrwt>
</event>
<event>
 5    1  0.3327068E-002  0.1250079E+03  0.7818608E-02  0.1235057E+00
         -4   -1    0    0    0  501 -0.00000000000E+00  0.00000000000E+00  0.76026327054E+02  0.76036933824E+02  0.12700000000E+01 0. -1.
          4   -1    0    0  501    0  0.00000000000E+00 -0.00000000000E+00 -0.51364666426E+02  0.51380364508E+02  0.12700000000E+01 0. -1.
         25    2    1    2    0    0  0.00000000000E+00  0.00000000000E+00  0.24661660629E+02  0.12741729833E+03  0.12500788139E+03 0.  0.
    9000005    1    3    3    0    0 -0.11738497511E+02 -0.24878576395E+02  0.69528428283E+02  0.74779263348E+02  0.10000000000E+01 0.  0.
    9000005    1    3    3    0    0  0.11738497511E+02  0.24878576395E+02 -0.44866767655E+02  0.52638034985E+02  0.10000000000E+01 0.  0.
<mgrwt>
<rscale>  0 0.12500788E+03</rscale>
<asrwt>0</asrwt>
<pdfrwt beam="2">  1        4 0.79042798E-02 0.12500788E+03</pdfrwt>
<pdfrwt beam="1">  1       -4 0.11698381E-01 0.12500788E+03</pdfrwt>
<totfact> 0.10398242E+04</totfact>
</mgrwt>
</event>
<event>
 5    1  0.3327068E-002  0.1249891E+03  0.7818608E-02  0.1235086E+00
          4   -1    0    0  501    0  0.00000000000E+00  0.00000000000E+00  0.78375296325E+02  0.78385585244E+02  0.12700000000E+01 0.  1.
         -4   -1    0    0    0  501 -0.00000000000E+00 -0.00000000000E+00 -0.49809987032E+02  0.49826174930E+02  0.12700000000E+01 0.  1.
         25    2    1    2    0    0  0.00000000000E+00  0.00000000000E+00  0.28565309293E+02  0.12821176017E+03  0.12498911373E+03 0.  0.
    9000005    1    3    3    0    0  0.39254207314E+02  0.48459322672E+02  0.10260995930E+02  0.63209863021E+02  0.10000000000E+01 0.  0.
    9000005    1    3    3    0    0 -0.39254207314E+02 -0.48459322672E+02  0.18304313363E+02  0.65001897152E+02  0.10000000000E+01 0.  0.
<mgrwt>
<rscale>  0 0.12498911E+03</rscale>
<asrwt>0</asrwt>
<pdfrwt beam="1">  1        4 0.12059775E-01 0.12498911E+03</pdfrwt>
<pdfrwt beam="2">  1       -4 0.76651116E-02 0.12498911E+03</pdfrwt>
<totfact> 0.10385469E+04</totfact>
</mgrwt>
</event>
<event>
 5    1  0.3327068E-002  0.1249958E+03  0.7818608E-02  0.1235076E+00
          4   -1    0    0  501    0  0.00000000000E+00  0.00000000000E+00  0.16767937593E+03  0.16768418534E+03  0.12700000000E+01 0. -1.
         -4   -1    0    0    0  501 -0.00000000000E+00 -0.00000000000E+00 -0.23271923070E+02  0.23306550653E+02  0.12700000000E+01 0. -1.
         25    2    1    2    0    0  0.00000000000E+00  0.00000000000E+00  0.14440745286E+03  0.19099073599E+03  0.12499579510E+03 0.  0.
    9000005    1    3    3    0    0  0.48454004032E+02 -0.18808207661E+01  0.11976234231E+02  0.49957563790E+02  0.10000000000E+01 0.  0.
    9000005    1    3    3    0    0 -0.48454004032E+02  0.18808207661E+01  0.13243121863E+03  0.14103317220E+03  0.10000000000E+01 0.  0.
<mgrwt>
<rscale>  0 0.12499580E+03</rscale>
<asrwt>0</asrwt>
<pdfrwt beam="1">  1        4 0.25799861E-01 0.12499580E+03</pdfrwt>
<pdfrwt beam="2">  1       -4 0.35833294E-02 0.12499580E+03</pdfrwt>
<totfact> 0.91683849E+03</totfact>
</mgrwt>
</event>
<event>
 5    1  0.3327068E-002  0.1250041E+03  0.7818608E-02  0.1235063E+00
          4   -1    0    0  501    0  0.00000000000E+00  0.00000000000E+00  0.74876648599E+02  0.74887418205E+02  0.12700000000E+01 0.  1.
         -4   -1    0    0    0  501 -0.00000000000E+00 -0.00000000000E+00 -0.52150301136E+02  0.52165762801E+02  0.12700000000E+01 0.  1.
         25    2    1    2    0    0  0.00000000000E+00  0.00000000000E+00  0.22726347462E+02  0.12705318101E+03  0.12500409567E+03 0.  0.
    9000005    1    3    3    0    0  0.51524026417E+02  0.35267666985E+02  0.86793689796E+01  0.63046531060E+02  0.10000000000E+01 0.  0.
    9000005    1    3    3    0    0 -0.51524026417E+02 -0.35267666985E+02  0.14046978483E+02  0.64006649946E+02  0.10000000000E+01 0.  0.
<mgrwt>
<rscale>  0 0.12500410E+03</rscale>
<asrwt>0</asrwt>
<pdfrwt beam="1">  1        4 0.11521502E-01 0.12500410E+03</pdfrwt>
<pdfrwt beam="2">  1       -4 0.80251411E-02 0.12500410E+03</pdfrwt>
<totfact> 0.10407028E+04</totfact>
</mgrwt>
</event>
<event>
 5    1  0.3327068E-002  0.1250013E+03  0.7818608E-02  0.1235067E+00
          4   -1    0    0  501    0  0.00000000000E+00  0.00000000000E+00  0.71591943447E+01  0.72709671753E+01  0.12700000000E+01 0.  1.
         -4   -1    0    0    0  501 -0.00000000000E+00 -0.00000000000E+00 -0.54129944951E+03  0.54130093935E+03  0.12700000000E+01 0.  1.
         25    2    1    2    0    0  0.00000000000E+00  0.00000000000E+00 -0.53414025517E+03  0.54857190653E+03  0.12500129775E+03 0.  0.
    9000005    1    3    3    0    0 -0.33438468104E+02 -0.49911883983E+02 -0.34257373166E+03  0.34780323307E+03  0.10000000000E+01 0.  0.
    9000005    1    3    3    0    0  0.33438468104E+02  0.49911883983E+02 -0.19156652351E+03  0.20076867346E+03  0.10000000000E+01 0.  0.
<mgrwt>
<rscale>  0 0.12500130E+03</rscale>
<asrwt>0</asrwt>
<pdfrwt beam="1">  1        4 0.11101275E-02 0.12500130E+03</pdfrwt>
<pdfrwt beam="2">  1       -4 0.83285519E-01 0.12500130E+03</pdfrwt>
<totfact> 0.52282137E+03</totfact>
</mgrwt>
</event>
<event>
 5    1  0.3327068E-002  0.1249985E+03  0.7818608E-02  0.1235072E+00
          4   -1    0    0  501    0  0.00000000000E+00  0.00000000000E+00  0.12065225173E+02  0.12131881902E+02  0.12700000000E+01 0. -1.
         -4   -1    0    0    0  501 -0.00000000000E+00 -0.00000000000E+00 -0.32279350703E+03  0.32279600536E+03  0.12700000000E+01 0. -1.
         25    2    1    2    0    0  0.00000000000E+00  0.00000000000E+00 -0.31072828185E+03  0.33492788726E+03  0.12499849809E+03 0.  0.
    9000005    1    3    3    0    0  0.52652863507E+02  0.20904827016E+02 -0.84684381371E+02  0.10189102157E+03  0.10000000000E+01 0.  0.
    9000005    1    3    3    0    0 -0.52652863507E+02 -0.20904827016E+02 -0.22604390048E+03  0.23303686570E+03  0.10000000000E+01 0.  0.
<mgrwt>
<rscale>  0 0.12499850E+03</rscale>
<asrwt>0</asrwt>
<pdfrwt beam="1">  1        4 0.18615084E-02 0.12499850E+03</pdfrwt>
<pdfrwt beam="2">  1       -4 0.49665853E-01 0.12499850E+03</pdfrwt>
<totfact> 0.71417512E+03</totfact>
</mgrwt>
</event>
<event>
 5    1  0.3327068E-002  0.1250009E+03  0.7818608E-02  0.1235068E+00
         -4   -1    0    0    0  501 -0.00000000000E+00  0.00000000000E+00  0.91799047035E+01  0.92673378252E+01  0.12700000000E+01 0.  1.
          4   -1    0    0  501    0  0.00000000000E+00 -0.00000000000E+00 -0.42342296914E+03  0.42342487373E+03  0.12700000000E+01 0.  1.
         25    2    1    2    0    0  0.00000000000E+00  0.00000000000E+00 -0.41424306444E+03  0.43269221156E+03  0.12500093403E+03 0.  0.
    9000005    1    3    3    0    0  0.41965664378E+02  0.35946447282E+02 -0.30816236389E+03  0.31307875459E+03  0.10000000000E+01 0.  0.
    9000005    1    3    3    0    0 -0.41965664378E+02 -0.35946447282E+02 -0.10608070055E+03  0.11961345697E+03  0.10000000000E+01 0.  0.
<mgrwt>
<rscale>  0 0.12500093E+03</rscale>
<asrwt>0</asrwt>
<pdfrwt beam="2">  1        4 0.65148852E-01 0.12500093E+03</pdfrwt>
<pdfrwt beam="1">  1       -4 0.14191655E-02 0.12500093E+03</pdfrwt>
<totfact> 0.61491456E+03</totfact>
</mgrwt>
</event>
<event>
 5    1  0.3327068E-002  0.1249833E+03  0.7818608E-02  0.1235095E+00
          4   -1    0    0  501    0  0.00000000000E+00  0.00000000000E+00  0.35935516342E+02  0.35957950926E+02  0.12700000000E+01 0. -1.
         -4   -1    0    0    0  501 -0.00000000000E+00 -0.00000000000E+00 -0.10861249572E+03  0.10861992049E+03  0.12700000000E+01 0. -1.
         25    2    1    2    0    0  0.00000000000E+00  0.00000000000E+00 -0.72676979380E+02  0.14457787141E+03  0.12498326916E+03 0.  0.
    9000005    1    3    3    0    0 -0.28071290440E+02  0.41767591832E+02 -0.79181068890E+02  0.93825213802E+02  0.10000000000E+01 0.  0.
    9000005    1    3    3    0    0  0.28071290440E+02 -0.41767591832E+02  0.65040895105E+01  0.50752657613E+02  0.10000000000E+01 0.  0.
<mgrwt>
<rscale>  0 0.12498327E+03</rscale>
<asrwt>0</asrwt>
<pdfrwt beam="1">  1        4 0.55308379E-02 0.12498327E+03</pdfrwt>
<pdfrwt beam="2">  1       -4 0.16711911E-01 0.12498327E+03</pdfrwt>
<totfact> 0.10043356E+04</totfact>
</mgrwt>
</event>
<event>
 5    1  0.3327068E-002  0.1249933E+03  0.7818608E-02  0.1235080E+00
          4   -1    0    0  501    0  0.00000000000E+00  0.00000000000E+00  0.64857130247E+01  0.66088859454E+01  0.12700000000E+01 0.  1.
         -4   -1    0    0    0  501 -0.00000000000E+00 -0.00000000000E+00 -0.59643254518E+03  0.59643389730E+03  0.12700000000E+01 0.  1.
         25    2    1    2    0    0  0.00000000000E+00  0.00000000000E+00 -0.58994683215E+03  0.60304278325E+03  0.12499333445E+03 0.  0.
    9000005    1    3    3    0    0 -0.60282488733E+02 -0.15418187601E+02 -0.26720179693E+03  0.27435287358E+03  0.10000000000E+01 0.  0.
    9000005    1    3    3    0    0  0.60282488733E+02  0.15418187601E+02 -0.32274503522E+03  0.32868990967E+03  0.10000000000E+01 0.  0.
<mgrwt>
<rscale>  0 0.12499333E+03</rscale>
<asrwt>0</asrwt>
<pdfrwt beam="1">  1        4 0.10073813E-02 0.12499333E+03</pdfrwt>
<pdfrwt beam="2">  1       -4 0.91768389E-01 0.12499333E+03</pdfrwt>
<totfact> 0.48683234E+03</totfact>
</mgrwt>
</event>
<event>
 5    1  0.3327068E-002  0.1250061E+03  0.7818608E-02  0.1235060E+00
          4   -1    0    0  501    0  0.00000000000E+00  0.00000000000E+00  0.69514807640E+01  0.70665398048E+01  0.12700000000E+01 0.  1.
         -4   -1    0    0    0  501 -0.00000000000E+00 -0.00000000000E+00 -0.55725685304E+03  0.55725830022E+03  0.12700000000E+01 0.  1.
         25    2    1    2    0    0  0.00000000000E+00  0.00000000000E+00 -0.55030537228E+03  0.56432484002E+03  0.12500608909E+03 0.  0.
    9000005    1    3    3    0    0 -0.17403948030E+02  0.27303617529E+02 -0.33844648261E+02  0.46849174519E+02  0.10000000000E+01 0.  0.
    9000005    1    3    3    0    0  0.17403948030E+02 -0.27303617529E+02 -0.51646072402E+03  0.51747566550E+03  0.10000000000E+01 0.  0.
<mgrwt>
<rscale>  0 0.12500609E+03</rscale>
<asrwt>0</asrwt>
<pdfrwt beam="1">  1        4 0.10784210E-02 0.12500609E+03</pdfrwt>
<pdfrwt beam="2">  1       -4 0.85740751E-01 0.12500609E+03</pdfrwt>
<totfact> 0.51193021E+03</totfact>
</mgrwt>
</event>
<event>
 5    1  0.3327068E-002  0.1250015E+03  0.7818608E-02  0.1235067E+00
         -4   -1    0    0    0  501 -0.00000000000E+00  0.00000000000E+00  0.15872669068E+03  0.15873177134E+03  0.12700000000E+01 0. -1.
          4   -1    0    0  501    0  0.00000000000E+00 -0.00000000000E+00 -0.24588631689E+02  0.24621407522E+02  0.12700000000E+01 0. -1.
         25    2    1    2    0    0  0.00000000000E+00  0.00000000000E+00  0.13413805899E+03  0.18335317887E+03  0.12500147731E+03 0.  0.
    9000005    1    3    3    0    0  0.44037023979E+02  0.43924091101E+02  0.75961936617E+02  0.98182488635E+02  0.10000000000E+01 0.  0.
    9000005    1    3    3    0    0 -0.44037023979E+02 -0.43924091101E+02  0.58176122374E+02  0.85170690231E+02  0.10000000000E+01 0.  0.
<mgrwt>
<rscale>  0 0.12500148E+03</rscale>
<asrwt>0</asrwt>
<pdfrwt beam="2">  1        4 0.37857784E-02 0.12500148E+03</pdfrwt>
<pdfrwt beam="1">  1       -4 0.24422403E-01 0.12500148E+03</pdfrwt>
<totfact> 0.93013798E+03</totfact>
</mgrwt>
</event>
<event>
 5    1  0.3327068E-002  0.1250540E+03  0.7818608E-02  0.1234985E+00
         -4   -1    0    0    0  501 -0.00000000000E+00  0.00000000000E+00  0.15520166212E+03  0.15520685817E+03  0.12700000000E+01 0. -1.
          4   -1    0    0  501    0  0.00000000000E+00 -0.00000000000E+00 -0.25168984222E+02  0.25201005273E+02  0.12700000000E+01 0. -1.
         25    2    1    2    0    0  0.00000000000E+00  0.00000000000E+00  0.13003267790E+03  0.18040786345E+03  0.12505398783E+03 0.  0.
    9000005    1    3    3    0    0  0.13436522072E+02 -0.46894235063E+02  0.86053296168E+01  0.49544536584E+02  0.10000000000E+01 0.  0.
    9000005    1    3    3    0    0 -0.13436522072E+02  0.46894235063E+02  0.12142734828E+03  0.13086332686E+03  0.10000000000E+01 0.  0.
<mgrwt>
<rscale>  0 0.12505399E+03</rscale>
<asrwt>0</asrwt>
<pdfrwt beam="2">  1        4 0.38750142E-02 0.12505399E+03</pdfrwt>
<pdfrwt beam="1">  1       -4 0.23880042E-01 0.12505399E+03</pdfrwt>
<totfact> 0.93430496E+03</totfact>
</mgrwt>
</event>
<event>
 5    1  0.3327068E-002  0.1250007E+03  0.7818608E-02  0.1235068E+00
         -4   -1    0    0    0  501 -0.00000000000E+00  0.00000000000E+00  0.31853762551E+02  0.31879069759E+02  0.12700000000E+01 0.  1.
          4   -1    0    0  501    0  0.00000000000E+00 -0.00000000000E+00 -0.12255487878E+03  0.12256145892E+03  0.12700000000E+01 0.  1.
         25    2    1    2    0    0  0.00000000000E+00  0.00000000000E+00 -0.90701116224E+02  0.15444052867E+03  0.12500073765E+03 0.  0.
    9000005    1    3    3    0    0  0.17897509612E+02  0.28746894955E+02 -0.11024274101E+03  0.11533068440E+03  0.10000000000E+01 0.  0.
    9000005    1    3    3    0    0 -0.17897509612E+02 -0.28746894955E+02  0.19541624784E+02  0.39109844272E+02  0.10000000000E+01 0.  0.
<mgrwt>
<rscale>  0 0.12500074E+03</rscale>
<asrwt>0</asrwt>
<pdfrwt beam="2">  1        4 0.18857049E-01 0.12500074E+03</pdfrwt>
<pdfrwt beam="1">  1       -4 0.49030318E-02 0.12500074E+03</pdfrwt>
<totfact> 0.98423809E+03</totfact>
</mgrwt>
</event>
<event>
 5    1  0.3327068E-002  0.1249975E+03  0.7818608E-02  0.1235073E+00
         -4   -1    0    0    0  501 -0.00000000000E+00  0.00000000000E+00  0.80900798383E+02  0.80910766151E+02  0.12700000000E+01 0.  1.
          4   -1    0    0  501    0  0.00000000000E+00 -0.00000000000E+00 -0.48261201771E+02  0.48277908989E+02  0.12700000000E+01 0.  1.
         25    2    1    2    0    0  0.00000000000E+00  0.00000000000E+00  0.32639596612E+02  0.12918867514E+03  0.12499748204E+03 0.  0.
    9000005    1    3    3    0    0 -0.22224849298E+02  0.19573480495E+02  0.73192399477E+02  0.78963234523E+02  0.10000000000E+01 0.  0.
    9000005    1    3    3    0    0  0.22224849298E+02 -0.19573480495E+02 -0.40552802865E+02  0.50225440618E+02  0.10000000000E+01 0.  0.
<mgrwt>
<rscale>  0 0.12499748E+03</rscale>
<asrwt>0</asrwt>
<pdfrwt beam="2">  1        4 0.74268522E-02 0.12499748E+03</pdfrwt>
<pdfrwt beam="1">  1       -4 0.12448329E-01 0.12499748E+03</pdfrwt>
<totfact> 0.10362483E+04</totfact>
</mgrwt>
</event>
<event>
 5    1  0.3327068E-002  0.1250064E+03  0.7818608E-02  0.1235059E+00
          4   -1    0    0  501    0  0.00000000000E+00  0.00000000000E+00  0.23557005250E+02  0.23591214389E+02  0.12700000000E+01 0.  1.
         -4   -1    0    0    0  501 -0.00000000000E+00 -0.00000000000E+00 -0.16568122929E+03  0.16568609670E+03  0.12700000000E+01 0.  1.
         25    2    1    2    0    0  0.00000000000E+00  0.00000000000E+00 -0.14212422404E+03  0.18927731108E+03  0.12500642157E+03 0.  0.
    9000005    1    3    3    0    0 -0.37647497101E+02  0.35905509629E+02 -0.12349406739E+03  0.13400867263E+03  0.10000000000E+01 0.  0.
    9000005    1    3    3    0    0  0.37647497101E+02 -0.35905509629E+02 -0.18630156644E+02  0.55268638451E+02  0.10000000000E+01 0.  0.
<mgrwt>
<rscale>  0 0.12500642E+03</rscale>
<asrwt>0</asrwt>
<pdfrwt beam="1">  1        4 0.36271606E-02 0.12500642E+03</pdfrwt>
<pdfrwt beam="2">  1       -4 0.25492425E-01 0.12500642E+03</pdfrwt>
<totfact> 0.91959983E+03</totfact>
</mgrwt>
</event>
<event>
 5    1  0.3327068E-002  0.1250014E+03  0.7818608E-02  0.1235067E+00
         -4   -1    0    0    0  501 -0.00000000000E+00  0.00000000000E+00  0.12710981688E+03  0.12711616124E+03  0.12700000000E+01 0.  1.
          4   -1    0    0  501    0  0.00000000000E+00 -0.00000000000E+00 -0.30711731326E+02  0.30737978805E+02  0.12700000000E+01 0.  1.
         25    2    1    2    0    0  0.00000000000E+00  0.00000000000E+00  0.96398085555E+02  0.15785414004E+03  0.12500135451E+03 0.  0.
    9000005    1    3    3    0    0  0.29048593719E+02 -0.54255342207E+02  0.61909313662E+02  0.87299633865E+02  0.10000000000E+01 0.  0.
    9000005    1    3    3    0    0 -0.29048593719E+02  0.54255342207E+02  0.34488771893E+02  0.70554506176E+02  0.10000000000E+01 0.  0.
<mgrwt>
<rscale>  0 0.12500135E+03</rscale>
<asrwt>0</asrwt>
<pdfrwt beam="2">  1        4 0.47273887E-02 0.12500135E+03</pdfrwt>
<pdfrwt beam="1">  1       -4 0.19557864E-01 0.12500135E+03</pdfrwt>
<totfact> 0.97755115E+03</totfact>
</mgrwt>
</event>
<event>
 5    1  0.3327068E-002  0.1250001E+03  0.7818608E-02  0.1235069E+00
         -4   -1    0    0    0  501 -0.00000000000E+00  0.00000000000E+00  0.65476360339E+03  0.65476483506E+03  0.12700000000E+01 0.  1.
          4   -1    0    0  501    0  0.00000000000E+00 -0.00000000000E+00 -0.58970668011E+01  0.60322712850E+01  0.12700000000E+01 0.  1.
         25    2    1    2    0    0  0.00000000000E+00  0.00000000000E+00  0.64886653659E+03  0.66079710634E+03  0.12500013377E+03 0.  0.
    9000005    1    3    3    0    0 -0.37784535760E+02 -0.25860396808E+02  0.54926426313E+03  0.55117026591E+03  0.10000000000E+01 0.  0.
    9000005    1    3    3    0    0  0.37784535760E+02  0.25860396808E+02  0.99602273460E+02  0.10962684044E+03  0.10000000000E+01 0.  0.
<mgrwt>
<rscale>  0 0.12500013E+03</rscale>
<asrwt>0</asrwt>
<pdfrwt beam="2">  1        4 0.91773574E-03 0.12500013E+03</pdfrwt>
<pdfrwt beam="1">  1       -4 0.10074340E+00 0.12500013E+03</pdfrwt>
<totfact> 0.45238229E+03</totfact>
</mgrwt>
</event>
<event>
 5    1  0.3327068E-002  0.1250081E+03  0.7818608E-02  0.1235057E+00
         -4   -1    0    0    0  501 -0.00000000000E+00  0.00000000000E+00  0.72253071233E+02  0.72264231834E+02  0.12700000000E+01 0.  1.
          4   -1    0    0  501    0  0.00000000000E+00 -0.00000000000E+00 -0.54047632483E+02  0.54062551521E+02  0.12700000000E+01 0.  1.
         25    2    1    2    0    0  0.00000000000E+00  0.00000000000E+00  0.18205438750E+02  0.12632678336E+03  0.12500807251E+03 0.  0.
    9000005    1    3    3    0    0  0.20698726279E+02 -0.48877039362E+02 -0.24235479200E+02  0.58358895623E+02  0.10000000000E+01 0.  0.
    9000005    1    3    3    0    0 -0.20698726279E+02  0.48877039362E+02  0.42440917950E+02  0.67967887732E+02  0.10000000000E+01 0.  0.
<mgrwt>
<rscale>  0 0.12500807E+03</rscale>
<asrwt>0</asrwt>
<pdfrwt beam="2">  1        4 0.83170265E-02 0.12500807E+03</pdfrwt>
<pdfrwt beam="1">  1       -4 0.11117863E-01 0.12500807E+03</pdfrwt>
<totfact> 0.10421909E+04</totfact>
</mgrwt>
</event>
<event>
 5    1  0.3327068E-002  0.1249533E+03  0.7818608E-02  0.1235142E+00
          4   -1    0    0  501    0  0.00000000000E+00  0.00000000000E+00  0.26188656175E+02  0.26219431959E+02  0.12700000000E+01 0. -1.
         -4   -1    0    0    0  501 -0.00000000000E+00 -0.00000000000E+00 -0.14892554004E+03  0.14893095506E+03  0.12700000000E+01 0. -1.
         25    2    1    2    0    0  0.00000000000E+00  0.00000000000E+00 -0.12273688387E+03  0.17515038702E+03  0.12495325291E+03 0.  0.
    9000005    1    3    3    0    0 -0.18167726206E+02  0.44625901581E+02 -0.11709995433E+03  0.12662913042E+03  0.10000000000E+01 0.  0.
    9000005    1    3    3    0    0  0.18167726206E+02 -0.44625901581E+02 -0.56369295334E+01  0.48521256599E+02  0.10000000000E+01 0.  0.
<mgrwt>
<rscale>  0 0.12495325E+03</rscale>
<asrwt>0</asrwt>
<pdfrwt beam="1">  1        4 0.40318080E-02 0.12495325E+03</pdfrwt>
<pdfrwt beam="2">  1       -4 0.22914405E-01 0.12495325E+03</pdfrwt>
<totfact> 0.94596470E+03</totfact>
</mgrwt>
</event>
<event>
 5    1  0.3327068E-002  0.1249995E+03  0.7818608E-02  0.1235070E+00
         -4   -1    0    0    0  501 -0.00000000000E+00  0.00000000000E+00  0.13876098361E+01  0.18810531777E+01  0.12700000000E+01 0. -1.
          4   -1    0    0  501    0  0.00000000000E+00 -0.00000000000E+00 -0.23896078912E+04  0.23896082287E+04  0.12700000000E+01 0. -1.
         25    2    1    2    0    0  0.00000000000E+00  0.00000000000E+00 -0.23882202813E+04  0.23914892818E+04  0.12499949173E+03 0.  0.
    9000005    1    3    3    0    0 -0.56635805080E+02 -0.26379480273E+02 -0.11689689528E+04  0.11706378193E+04  0.10000000000E+01 0.  0.
    9000005    1    3    3    0    0  0.56635805080E+02  0.26379480273E+02 -0.12192513286E+04  0.12208514625E+04  0.10000000000E+01 0.  0.
<mgrwt>
<rscale>  0 0.12499949E+03</rscale>
<asrwt>0</asrwt>
<pdfrwt beam="2">  1        4 0.36766717E+00 0.12499949E+03</pdfrwt>
<pdfrwt beam="1">  1       -4 0.25146349E-03 0.12499949E+03</pdfrwt>
<totfact> 0.55790079E+02</totfact>
</mgrwt>
</event>
<event>
 5    1  0.3327068E-002  0.1250000E+03  0.7818608E-02  0.1235069E+00
         -4   -1    0    0    0  501 -0.00000000000E+00  0.00000000000E+00  0.11288079917E+03  0.11288794321E+03  0.12700000000E+01 0.  1.
          4   -1    0    0  501    0  0.00000000000E+00 -0.00000000000E+00 -0.34585181442E+02  0.34608491376E+02  0.12700000000E+01 0.  1.
         25    2    1    2    0    0  0.00000000000E+00  0.00000000000E+00  0.78295617728E+02  0.14749643458E+03  0.12499997784E+03 0.  0.
    9000005    1    3    3    0    0  0.22092470806E+02  0.57243304168E+02  0.53128131943E+02  0.81169400282E+02  0.10000000000E+01 0.  0.
    9000005    1    3    3    0    0 -0.22092470806E+02 -0.57243304168E+02  0.25167485785E+02  0.66327034300E+02  0.10000000000E+01 0.  0.
<mgrwt>
<rscale>  0 0.12499998E+03</rscale>
<asrwt>0</asrwt>
<pdfrwt beam="2">  1        4 0.53231398E-02 0.12499998E+03</pdfrwt>
<pdfrwt beam="1">  1       -4 0.17368619E-01 0.12499998E+03</pdfrwt>
<totfact> 0.99805157E+03</totfact>
</mgrwt>
</event>
<event>
 5    1  0.3327068E-002  0.1249991E+03  0.7818608E-02  0.1235071E+00
         -4   -1    0    0    0  501 -0.00000000000E+00  0.00000000000E+00  0.74464997969E+03  0.74465106268E+03  0.12700000000E+01 0.  1.
          4   -1    0    0  501    0  0.00000000000E+00 -0.00000000000E+00 -0.51677100061E+01  0.53214778687E+01  0.12700000000E+01 0.  1.
         25    2    1    2    0    0  0.00000000000E+00  0.00000000000E+00  0.73948226969E+03  0.74997254055E+03  0.12499913761E+03 0.  0.
    9000005    1    3    3    0    0 -0.24290331482E+02  0.40445930005E+02  0.12387266892E+03  0.13255689934E+03  0.10000000000E+01 0.  0.
    9000005    1    3    3    0    0  0.24290331482E+02 -0.40445930005E+02  0.61560960076E+03  0.61741564121E+03  0.10000000000E+01 0.  0.
<mgrwt>
<rscale>  0 0.12499914E+03</rscale>
<asrwt>0</asrwt>
<pdfrwt beam="2">  1        4 0.80694365E-03 0.12499914E+03</pdfrwt>
<pdfrwt beam="1">  1       -4 0.11457348E+00 0.12499914E+03</pdfrwt>
<totfact> 0.40576201E+03</totfact>
</mgrwt>
</event>
<event>
 5    1  0.3327068E-002  0.1249944E+03  0.7818608E-02  0.1235078E+00
         -4   -1    0    0    0  501 -0.00000000000E+00  0.00000000000E+00  0.15615331723E+03  0.15615848162E+03  0.12700000000E+01 0. -1.
          4   -1    0    0  501    0  0.00000000000E+00 -0.00000000000E+00 -0.24991540640E+02  0.25023788753E+02  0.12700000000E+01 0. -1.
         25    2    1    2    0    0  0.00000000000E+00  0.00000000000E+00  0.13116177659E+03  0.18118227038E+03  0.12499441371E+03 0.  0.
    9000005    1    3    3    0    0  0.46840465044E+02 -0.40761871118E+02  0.75762851950E+02  0.97962079593E+02  0.10000000000E+01 0.  0.
    9000005    1    3    3    0    0 -0.46840465044E+02  0.40761871118E+02  0.55398924643E+02  0.83220190784E+02  0.10000000000E+01 0.  0.
<mgrwt>
<rscale>  0 0.12499441E+03</rscale>
<asrwt>0</asrwt>
<pdfrwt beam="2">  1        4 0.38477302E-02 0.12499441E+03</pdfrwt>
<pdfrwt beam="1">  1       -4 0.24026466E-01 0.12499441E+03</pdfrwt>
<totfact> 0.93416321E+03</totfact>
</mgrwt>
</event>
<event>
 5    1  0.3327068E-002  0.1249903E+03  0.7818608E-02  0.1235084E+00
          4   -1    0    0  501    0  0.00000000000E+00  0.00000000000E+00  0.24829929661E+02  0.24862387395E+02  0.12700000000E+01 0. -1.
         -4   -1    0    0    0  501 -0.00000000000E+00 -0.00000000000E+00 -0.15715804844E+03  0.15716317982E+03  0.12700000000E+01 0. -1.
         25    2    1    2    0    0  0.00000000000E+00  0.00000000000E+00 -0.13232811878E+03  0.18202556721E+03  0.12499030402E+03 0.  0.
    9000005    1    3    3    0    0 -0.93099689365E+01 -0.61629768448E+02 -0.59693657928E+02  0.86308960586E+02  0.10000000000E+01 0.  0.
    9000005    1    3    3    0    0  0.93099689365E+01  0.61629768448E+02 -0.72634460853E+02  0.95716606626E+02  0.10000000000E+01 0.  0.
<mgrwt>
<rscale>  0 0.12499030E+03</rscale>
<asrwt>0</asrwt>
<pdfrwt beam="1">  1        4 0.38228808E-02 0.12499030E+03</pdfrwt>
<pdfrwt beam="2">  1       -4 0.24181052E-01 0.12499030E+03</pdfrwt>
<totfact> 0.93273933E+03</totfact>
</mgrwt>
</event>
<event>
 5    1  0.3327068E-002  0.1250074E+03  0.7818608E-02  0.1235058E+00
         -4   -1    0    0    0  501 -0.00000000000E+00  0.00000000000E+00  0.18218898687E+03  0.18219341327E+03  0.12700000000E+01 0. -1.
          4   -1    0    0  501    0  0.00000000000E+00 -0.00000000000E+00 -0.21419696748E+02  0.21457313643E+02  0.12700000000E+01 0. -1.
         25    2    1    2    0    0  0.00000000000E+00  0.00000000000E+00  0.16076929013E+03  0.20365072691E+03  0.12500741548E+03 0.  0.
    9000005    1    3    3    0    0 -0.31705942899E+02 -0.52574031836E+02  0.99412322320E+02  0.11684650387E+03  0.10000000000E+01 0.  0.
    9000005    1    3    3    0    0  0.31705942899E+02  0.52574031836E+02  0.61356967805E+02  0.86804223036E+02  0.10000000000E+01 0.  0.
<mgrwt>
<rscale>  0 0.12500742E+03</rscale>
<asrwt>0</asrwt>
<pdfrwt beam="2">  1        4 0.32985722E-02 0.12500742E+03</pdfrwt>
<pdfrwt beam="1">  1       -4 0.28032308E-01 0.12500742E+03</pdfrwt>
<totfact> 0.89508565E+03</totfact>
</mgrwt>
</event>
<event>
 5    1  0.3327068E-002  0.1250009E+03  0.7818608E-02  0.1235068E+00
         -4   -1    0    0    0  501 -0.00000000000E+00  0.00000000000E+00  0.86120502901E+02  0.86129866596E+02  0.12700000000E+01 0.  1.
          4   -1    0    0  501    0  0.00000000000E+00 -0.00000000000E+00 -0.45337895740E+02  0.45355679800E+02  0.12700000000E+01 0.  1.
         25    2    1    2    0    0  0.00000000000E+00  0.00000000000E+00  0.40782607160E+02  0.13148554640E+03  0.12500091145E+03 0.  0.
    9000005    1    3    3    0    0  0.13731992073E+02 -0.57795685899E+01 -0.43447612048E+02  0.45941985287E+02  0.10000000000E+01 0.  0.
    9000005    1    3    3    0    0 -0.13731992073E+02  0.57795685899E+01  0.84230219209E+02  0.85543561110E+02  0.10000000000E+01 0.  0.
<mgrwt>
<rscale>  0 0.12500091E+03</rscale>
<asrwt>0</asrwt>
<pdfrwt beam="2">  1        4 0.69771492E-02 0.12500091E+03</pdfrwt>
<pdfrwt beam="1">  1       -4 0.13251396E-01 0.12500091E+03</pdfrwt>
<totfact> 0.10312479E+04</totfact>
</mgrwt>
</event>
<event>
 5    1  0.3327068E-002  0.1249979E+03  0.7818608E-02  0.1235073E+00
         -4   -1    0    0    0  501 -0.00000000000E+00  0.00000000000E+00  0.53358673377E+02  0.53373784994E+02  0.12700000000E+01 0.  1.
          4   -1    0    0  501    0  0.00000000000E+00 -0.00000000000E+00 -0.73173939145E+02  0.73184959315E+02  0.12700000000E+01 0.  1.
         25    2    1    2    0    0  0.00000000000E+00  0.00000000000E+00 -0.19815265768E+02  0.12655874431E+03  0.12499788400E+03 0.  0.
    9000005    1    3    3    0    0 -0.32531235234E+02  0.53255402964E+02 -0.65959270179E+01  0.62760859331E+02  0.10000000000E+01 0.  0.
    9000005    1    3    3    0    0  0.32531235234E+02 -0.53255402964E+02 -0.13219338750E+02  0.63797884978E+02  0.10000000000E+01 0.  0.
<mgrwt>
<rscale>  0 0.12499788E+03</rscale>
<asrwt>0</asrwt>
<pdfrwt beam="2">  1        4 0.11259539E-01 0.12499788E+03</pdfrwt>
<pdfrwt beam="1">  1       -4 0.82110368E-02 0.12499788E+03</pdfrwt>
<totfact> 0.10419245E+04</totfact>
</mgrwt>
</event>
<event>
 5    1  0.3327068E-002  0.1249873E+03  0.7818608E-02  0.1235089E+00
          4   -1    0    0  501    0  0.00000000000E+00  0.00000000000E+00  0.10808773490E+02  0.10883128427E+02  0.12700000000E+01 0. -1.
         -4   -1    0    0    0  501 -0.00000000000E+00 -0.00000000000E+00 -0.36000898531E+03  0.36001122538E+03  0.12700000000E+01 0. -1.
         25    2    1    2    0    0  0.00000000000E+00  0.00000000000E+00 -0.34920021182E+03  0.37089435381E+03  0.12498733438E+03 0.  0.
    9000005    1    3    3    0    0  0.74811573244E+01  0.56255241236E+02 -0.97000233305E+02  0.11238623200E+03  0.10000000000E+01 0.  0.
    9000005    1    3    3    0    0 -0.74811573244E+01 -0.56255241236E+02 -0.25219997851E+03  0.25850812181E+03  0.10000000000E+01 0.  0.
<mgrwt>
<rscale>  0 0.12498733E+03</rscale>
<asrwt>0</asrwt>
<pdfrwt beam="1">  1        4 0.16687804E-02 0.12498733E+03</pdfrwt>
<pdfrwt beam="2">  1       -4 0.55391881E-01 0.12498733E+03</pdfrwt>
<totfact> 0.67504378E+03</totfact>
</mgrwt>
</event>
<event>
 5    1  0.3327068E-002  0.1249934E+03  0.7818608E-02  0.1235080E+00
          4   -1    0    0  501    0  0.00000000000E+00  0.00000000000E+00  0.10496070440E+03  0.10496838747E+03  0.12700000000E+01 0. -1.
         -4   -1    0    0    0  501 -0.00000000000E+00 -0.00000000000E+00 -0.37192516588E+02  0.37214193396E+02  0.12700000000E+01 0. -1.
         25    2    1    2    0    0  0.00000000000E+00  0.00000000000E+00  0.67768187816E+02  0.14218258087E+03  0.12499343592E+03 0.  0.
    9000005    1    3    3    0    0  0.27916576283E+02  0.14062856612E+02 -0.27665541328E+02  0.41755015800E+02  0.10000000000E+01 0.  0.
    9000005    1    3    3    0    0 -0.27916576283E+02 -0.14062856612E+02  0.95433729145E+02  0.10042756507E+03  0.10000000000E+01 0.  0.
<mgrwt>
<rscale>  0 0.12499344E+03</rscale>
<asrwt>0</asrwt>
<pdfrwt beam="1">  1        4 0.16150059E-01 0.12499344E+03</pdfrwt>
<pdfrwt beam="2">  1       -4 0.57241841E-02 0.12499344E+03</pdfrwt>
<totfact> 0.10090041E+04</totfact>
</mgrwt>
</event>
<event>
 5    1  0.3327068E-002  0.1249994E+03  0.7818608E-02  0.1235070E+00
          4   -1    0    0  501    0  0.00000000000E+00  0.00000000000E+00  0.43405552120E+03  0.43405737914E+03  0.12700000000E+01 0.  1.
         -4   -1    0    0    0  501 -0.00000000000E+00 -0.00000000000E+00 -0.89526495160E+01  0.90422803184E+01  0.12700000000E+01 0.  1.
         25    2    1    2    0    0  0.00000000000E+00  0.00000000000E+00  0.42510287168E+03  0.44309965946E+03  0.12499942678E+03 0.  0.
    9000005    1    3    3    0    0 -0.60258077019E+02  0.12389479321E-01  0.27124761546E+03  0.27786202492E+03  0.10000000000E+01 0.  0.
    9000005    1    3    3    0    0  0.60258077019E+02 -0.12389479321E-01  0.15385525622E+03  0.16523763453E+03  0.10000000000E+01 0.  0.
<mgrwt>
<rscale>  0 0.12499943E+03</rscale>
<asrwt>0</asrwt>
<pdfrwt beam="1">  1        4 0.66784799E-01 0.12499943E+03</pdfrwt>
<pdfrwt beam="2">  1       -4 0.13843685E-02 0.12499943E+03</pdfrwt>
<totfact> 0.60567037E+03</totfact>
</mgrwt>
</event>
<event>
 5    1  0.3327068E-002  0.1249990E+03  0.7818608E-02  0.1235071E+00
         -4   -1    0    0    0  501 -0.00000000000E+00  0.00000000000E+00  0.12053246737E+03  0.12053915791E+03  0.12700000000E+01 0.  1.
          4   -1    0    0  501    0  0.00000000000E+00 -0.00000000000E+00 -0.32387727430E+02  0.32412617730E+02  0.12700000000E+01 0.  1.
         25    2    1    2    0    0  0.00000000000E+00  0.00000000000E+00  0.88144739937E+02  0.15295177564E+03  0.12499900197E+03 0.  0.
    9000005    1    3    3    0    0 -0.55043720980E+02  0.24309884865E+02  0.64707978465E+02  0.88368004382E+02  0.10000000000E+01 0.  0.
    9000005    1    3    3    0    0  0.55043720980E+02 -0.24309884865E+02  0.23436761472E+02  0.64583771257E+02  0.10000000000E+01 0.  0.
<mgrwt>
<rscale>  0 0.12499900E+03</rscale>
<asrwt>0</asrwt>
<pdfrwt beam="2">  1        4 0.49851566E-02 0.12499900E+03</pdfrwt>
<pdfrwt beam="1">  1       -4 0.18545886E-01 0.12499900E+03</pdfrwt>
<totfact> 0.98720743E+03</totfact>
</mgrwt>
</event>
<event>
 5    1  0.3327068E-002  0.1249990E+03  0.7818608E-02  0.1235071E+00
          4   -1    0    0  501    0  0.00000000000E+00  0.00000000000E+00  0.10380057999E+02  0.10457461645E+02  0.12700000000E+01 0.  1.
         -4   -1    0    0    0  501 -0.00000000000E+00 -0.00000000000E+00 -0.37484007217E+03  0.37484222362E+03  0.12700000000E+01 0.  1.
         25    2    1    2    0    0  0.00000000000E+00  0.00000000000E+00 -0.36446001417E+03  0.38529968526E+03  0.12499898212E+03 0.  0.
    9000005    1    3    3    0    0  0.19478177833E+02  0.47641517047E+01 -0.36466906240E+03  0.36522133238E+03  0.10000000000E+01 0.  0.
    9000005    1    3    3    0    0 -0.19478177833E+02 -0.47641517047E+01  0.20904823067E+00  0.20078352878E+02  0.10000000000E+01 0.  0.
<mgrwt>
<rscale>  0 0.12499898E+03</rscale>
<asrwt>0</asrwt>
<pdfrwt beam="1">  1        4 0.16030519E-02 0.12499898E+03</pdfrwt>
<pdfrwt beam="2">  1       -4 0.57673813E-01 0.12499898E+03</pdfrwt>
<totfact> 0.66009573E+03</totfact>
</mgrwt>
</event>
<event>
 5    1  0.3327068E-002  0.1250024E+03  0.7818608E-02  0.1235066E+00
         -4   -1    0    0    0  501 -0.00000000000E+00  0.00000000000E+00  0.60050644579E+02  0.60064072576E+02  0.12700000000E+01 0. -1.
          4   -1    0    0  501    0  0.00000000000E+00 -0.00000000000E+00 -0.65024827170E+02  0.65037228173E+02  0.12700000000E+01 0. -1.
         25    2    1    2    0    0  0.00000000000E+00  0.00000000000E+00 -0.49741825904E+01  0.12510130075E+03  0.12500237180E+03 0.  0.
    9000005    1    3    3    0    0 -0.33050377005E+02  0.80132795284E+01  0.49983956680E+02  0.60464336549E+02  0.10000000000E+01 0.  0.
    9000005    1    3    3    0    0  0.33050377005E+02 -0.80132795284E+01 -0.54958139270E+02  0.64636964200E+02  0.10000000000E+01 0.  0.
<mgrwt>
<rscale>  0 0.12500237E+03</rscale>
<asrwt>0</asrwt>
<pdfrwt beam="2">  1        4 0.10005806E-01 0.12500237E+03</pdfrwt>
<pdfrwt beam="1">  1       -4 0.92405475E-02 0.12500237E+03</pdfrwt>
<totfact> 0.10450103E+04</totfact>
</mgrwt>
</event>
<event>
 5    1  0.3327068E-002  0.1250001E+03  0.7818608E-02  0.1235069E+00
         -4   -1    0    0    0  501 -0.00000000000E+00  0.00000000000E+00  0.32733444645E+01  0.35110801733E+01  0.12700000000E+01 0. -1.
          4   -1    0    0  501    0  0.00000000000E+00 -0.00000000000E+00 -0.11512981586E+04  0.11512988590E+04  0.12700000000E+01 0. -1.
         25    2    1    2    0    0  0.00000000000E+00  0.00000000000E+00 -0.11480248141E+04  0.11548099392E+04  0.12500008762E+03 0.  0.
    9000005    1    3    3    0    0 -0.48363162380E+02  0.38455683580E+02 -0.66039109294E+03  0.66327613459E+03  0.10000000000E+01 0.  0.
    9000005    1    3    3    0    0  0.48363162380E+02 -0.38455683580E+02 -0.48763372116E+03  0.49153380463E+03  0.10000000000E+01 0.  0.
<mgrwt>
<rscale>  0 0.12500009E+03</rscale>
<asrwt>0</asrwt>
<pdfrwt beam="2">  1        4 0.17714082E+00 0.12500009E+03</pdfrwt>
<pdfrwt beam="1">  1       -4 0.52193362E-03 0.12500009E+03</pdfrwt>
<totfact> 0.25927156E+03</totfact>
</mgrwt>
</event>
<event>
 5    1  0.3327068E-002  0.1249624E+03  0.7818608E-02  0.1235128E+00
          4   -1    0    0  501    0  0.00000000000E+00  0.00000000000E+00  0.22165740263E+03  0.22166104087E+03  0.12700000000E+01 0.  1.
         -4   -1    0    0    0  501 -0.00000000000E+00 -0.00000000000E+00 -0.17585627248E+02  0.17631426083E+02  0.12700000000E+01 0.  1.
         25    2    1    2    0    0  0.00000000000E+00  0.00000000000E+00  0.20407177538E+03  0.23929246696E+03  0.12496237527E+03 0.  0.
    9000005    1    3    3    0    0  0.18589760517E+02 -0.51716322883E+02  0.45141878013E+02  0.71126270809E+02  0.10000000000E+01 0.  0.
    9000005    1    3    3    0    0 -0.18589760517E+02  0.51716322883E+02  0.15892989737E+03  0.16816619615E+03  0.10000000000E+01 0.  0.
<mgrwt>
<rscale>  0 0.12496238E+03</rscale>
<asrwt>0</asrwt>
<pdfrwt beam="1">  1        4 0.34104941E-01 0.12496238E+03</pdfrwt>
<pdfrwt beam="2">  1       -4 0.27092840E-02 0.12496238E+03</pdfrwt>
<totfact> 0.83973274E+03</totfact>
</mgrwt>
</event>
<event>
 5    1  0.3327068E-002  0.1250051E+03  0.7818608E-02  0.1235061E+00
         -4   -1    0    0    0  501 -0.00000000000E+00  0.00000000000E+00  0.48873782877E+02  0.48890280759E+02  0.12700000000E+01 0. -1.
          4   -1    0    0  501    0  0.00000000000E+00 -0.00000000000E+00 -0.79896712241E+02  0.79906805261E+02  0.12700000000E+01 0. -1.
         25    2    1    2    0    0  0.00000000000E+00  0.00000000000E+00 -0.31022929364E+02  0.12879708602E+03  0.12500506878E+03 0.  0.
    9000005    1    3    3    0    0  0.54172907178E+01  0.37787908229E+02  0.35469749753E+02  0.52118866014E+02  0.10000000000E+01 0.  0.
    9000005    1    3    3    0    0 -0.54172907178E+01 -0.37787908229E+02 -0.66492679118E+02  0.76678220006E+02  0.10000000000E+01 0.  0.
<mgrwt>
<rscale>  0 0.12500507E+03</rscale>
<asrwt>0</asrwt>
<pdfrwt beam="2">  1        4 0.12293847E-01 0.12500507E+03</pdfrwt>
<pdfrwt beam="1">  1       -4 0.75210890E-02 0.12500507E+03</pdfrwt>
<totfact> 0.10369123E+04</totfact>
</mgrwt>
</event>
<event>
 4    1  0.3327068E-002  0.1253048E+03  0.7818608E-02  0.1234594E+00
          4   -1    0    0  501    0  0.00000000000E+00  0.00000000000E+00  0.48445584374E+03  0.48445750839E+03  0.12700000000E+01 0. -1.
         -4   -1    0    0    0  501 -0.00000000000E+00 -0.00000000000E+00 -0.80510860792E+01  0.81506372178E+01  0.12700000000E+01 0. -1.
    9000005    1    1    2    0    0 -0.56144379996E+01  0.41854184641E+02  0.56297185153E+02  0.70382297079E+02  0.10000000000E+01 0.  0.
    9000005    1    1    2    0    0  0.56144379996E+01 -0.41854184641E+02  0.42010757250E+03  0.42222584852E+03  0.10000000000E+01 0.  0.
<mgrwt>
<rscale>  0 0.12530480E+03</rscale>
<asrwt>0</asrwt>
<pdfrwt beam="1">  1        4 0.74539476E-01 0.12530480E+03</pdfrwt>
<pdfrwt beam="2">  1       -4 0.12464141E-02 0.12530480E+03</pdfrwt>
<totfact> 0.56065771E+03</totfact>
</mgrwt>
</event>
<event>
 5    1  0.3327068E-002  0.1250099E+03  0.7818608E-02  0.1235054E+00
          4   -1    0    0  501    0  0.00000000000E+00  0.00000000000E+00  0.38757522257E+03  0.38757730332E+03  0.12700000000E+01 0.  1.
         -4   -1    0    0    0  501 -0.00000000000E+00 -0.00000000000E+00 -0.10038166707E+02  0.10118186143E+02  0.12700000000E+01 0.  1.
         25    2    1    2    0    0  0.00000000000E+00  0.00000000000E+00  0.37753705586E+03  0.39769548947E+03  0.12500989477E+03 0.  0.
    9000005    1    3    3    0    0 -0.13953944196E+02  0.87956550341E+01 -0.30039714288E+01  0.16795831341E+02  0.10000000000E+01 0.  0.
    9000005    1    3    3    0    0  0.13953944196E+02 -0.87956550341E+01  0.38054102729E+03  0.38089965812E+03  0.10000000000E+01 0.  0.
<mgrwt>
<rscale>  0 0.12500989E+03</rscale>
<asrwt>0</asrwt>
<pdfrwt beam="1">  1        4 0.59633263E-01 0.12500989E+03</pdfrwt>
<pdfrwt beam="2">  1       -4 0.15506490E-02 0.12500989E+03</pdfrwt>
<totfact> 0.64763396E+03</totfact>
</mgrwt>
</event>
<event>
 5    1  0.3327068E-002  0.1250004E+03  0.7818608E-02  0.1235069E+00
          4   -1    0    0  501    0  0.00000000000E+00  0.00000000000E+00  0.22013101646E+02  0.22049706213E+02  0.12700000000E+01 0.  1.
         -4   -1    0    0    0  501 -0.00000000000E+00 -0.00000000000E+00 -0.17726599478E+03  0.17727054410E+03  0.12700000000E+01 0.  1.
         25    2    1    2    0    0  0.00000000000E+00  0.00000000000E+00 -0.15525289314E+03  0.19932025032E+03  0.12500040543E+03 0.  0.
    9000005    1    3    3    0    0  0.18164236619E+02 -0.50485488585E+02 -0.12871579087E+03  0.13945421782E+03  0.10000000000E+01 0.  0.
    9000005    1    3    3    0    0 -0.18164236619E+02  0.50485488585E+02 -0.26537102268E+02  0.59866032492E+02  0.10000000000E+01 0.  0.
<mgrwt>
<rscale>  0 0.12500041E+03</rscale>
<asrwt>0</asrwt>
<pdfrwt beam="1">  1        4 0.33897968E-02 0.12500041E+03</pdfrwt>
<pdfrwt beam="2">  1       -4 0.27274856E-01 0.12500041E+03</pdfrwt>
<totfact> 0.90249460E+03</totfact>
</mgrwt>
</event>
<event>
 5    1  0.3327068E-002  0.1250009E+03  0.7818608E-02  0.1235068E+00
         -4   -1    0    0    0  501 -0.00000000000E+00  0.00000000000E+00  0.71912111115E+01  0.73024939062E+01  0.12700000000E+01 0. -1.
          4   -1    0    0  501    0  0.00000000000E+00 -0.00000000000E+00 -0.53892326013E+03  0.53892475654E+03  0.12700000000E+01 0. -1.
         25    2    1    2    0    0  0.00000000000E+00  0.00000000000E+00 -0.53173204902E+03  0.54622725045E+03  0.12500094869E+03 0.  0.
    9000005    1    3    3    0    0 -0.47521377275E+02  0.36533005194E+02 -0.34309726191E+03  0.34829538168E+03  0.10000000000E+01 0.  0.
    9000005    1    3    3    0    0  0.47521377275E+02 -0.36533005194E+02 -0.18863478711E+03  0.19793186877E+03  0.10000000000E+01 0.  0.
<mgrwt>
<rscale>  0 0.12500095E+03</rscale>
<asrwt>0</asrwt>
<pdfrwt beam="2">  1        4 0.82919915E-01 0.12500095E+03</pdfrwt>
<pdfrwt beam="1">  1       -4 0.11150159E-02 0.12500095E+03</pdfrwt>
<totfact> 0.52446923E+03</totfact>
</mgrwt>
</event>
<event>
 5    1  0.3327068E-002  0.1249993E+03  0.7818608E-02  0.1235070E+00
          4   -1    0    0  501    0  0.00000000000E+00  0.00000000000E+00  0.23544824500E+03  0.23545167015E+03  0.12700000000E+01 0.  1.
         -4   -1    0    0    0  501 -0.00000000000E+00 -0.00000000000E+00 -0.16562642854E+02  0.16611262393E+02  0.12700000000E+01 0.  1.
         25    2    1    2    0    0  0.00000000000E+00  0.00000000000E+00  0.21888560215E+03  0.25206293254E+03  0.12499926053E+03 0.  0.
    9000005    1    3    3    0    0  0.31588806285E+02 -0.40701795255E+02  0.18075777269E+03  0.18795973294E+03  0.10000000000E+01 0.  0.
    9000005    1    3    3    0    0 -0.31588806285E+02  0.40701795255E+02  0.38127829457E+02  0.64103199597E+02  0.10000000000E+01 0.  0.
<mgrwt>
<rscale>  0 0.12499926E+03</rscale>
<asrwt>0</asrwt>
<pdfrwt beam="1">  1        4 0.36226809E-01 0.12499926E+03</pdfrwt>
<pdfrwt beam="2">  1       -4 0.25521024E-02 0.12499926E+03</pdfrwt>
<totfact> 0.82034332E+03</totfact>
</mgrwt>
</event>
<event>
 5    1  0.3327068E-002  0.1250032E+03  0.7818608E-02  0.1235064E+00
          4   -1    0    0  501    0  0.00000000000E+00  0.00000000000E+00  0.47360173558E+02  0.47377198518E+02  0.12700000000E+01 0.  1.
         -4   -1    0    0    0  501 -0.00000000000E+00 -0.00000000000E+00 -0.82447098911E+02  0.82456879755E+02  0.12700000000E+01 0.  1.
         25    2    1    2    0    0  0.00000000000E+00  0.00000000000E+00 -0.35086925353E+02  0.12983407827E+03  0.12500318216E+03 0.  0.
    9000005    1    3    3    0    0  0.46453219065E+02 -0.41792124980E+02 -0.16522829234E+02  0.64641218721E+02  0.10000000000E+01 0.  0.
    9000005    1    3    3    0    0 -0.46453219065E+02  0.41792124980E+02 -0.18564096119E+02  0.65192859552E+02  0.10000000000E+01 0.  0.
<mgrwt>
<rscale>  0 0.12500318E+03</rscale>
<asrwt>0</asrwt>
<pdfrwt beam="1">  1        4 0.72882425E-02 0.12500318E+03</pdfrwt>
<pdfrwt beam="2">  1       -4 0.12686231E-01 0.12500318E+03</pdfrwt>
<totfact> 0.10347315E+04</totfact>
</mgrwt>
</event>
<event>
 5    1  0.3327068E-002  0.1250012E+03  0.7818608E-02  0.1235067E+00
         -4   -1    0    0    0  501 -0.00000000000E+00  0.00000000000E+00  0.70535989349E+02  0.70547421593E+02  0.12700000000E+01 0.  1.
          4   -1    0    0  501    0  0.00000000000E+00 -0.00000000000E+00 -0.55357387445E+02  0.55371953593E+02  0.12700000000E+01 0.  1.
         25    2    1    2    0    0  0.00000000000E+00  0.00000000000E+00  0.15178601904E+02  0.12591937519E+03  0.12500119636E+03 0.  0.
    9000005    1    3    3    0    0 -0.53025395084E+02 -0.31368180343E+02  0.18138545113E+02  0.64231316977E+02  0.10000000000E+01 0.  0.
    9000005    1    3    3    0    0  0.53025395084E+02  0.31368180343E+02 -0.29599432091E+01  0.61688058209E+02  0.10000000000E+01 0.  0.
<mgrwt>
<rscale>  0 0.12500120E+03</rscale>
<asrwt>0</asrwt>
<pdfrwt beam="2">  1        4 0.85185211E-02 0.12500120E+03</pdfrwt>
<pdfrwt beam="1">  1       -4 0.10853690E-01 0.12500120E+03</pdfrwt>
<totfact> 0.10432443E+04</totfact>
</mgrwt>
</event>
<event>
 4    1  0.3327068E-002  0.1251307E+03  0.7818608E-02  0.1234865E+00
          4   -1    0    0  501    0  0.00000000000E+00  0.00000000000E+00  0.16480648885E+04  0.16480653778E+04  0.12700000000E+01 0.  1.
         -4   -1    0    0    0  501 -0.00000000000E+00 -0.00000000000E+00 -0.22048723428E+01  0.25444767729E+01  0.12700000000E+01 0.  1.
    9000005    1    1    2    0    0  0.16845581716E+02 -0.10802439485E+02  0.16047683583E+04  0.16048934389E+04  0.10000000000E+01 0.  0.
    9000005    1    1    2    0    0 -0.16845581716E+02  0.10802439485E+02  0.41091657845E+02  0.45716415724E+02  0.10000000000E+01 0.  0.
<mgrwt>
<rscale>  0 0.12513073E+03</rscale>
<asrwt>0</asrwt>
<pdfrwt beam="1">  1        4 0.25357570E+00 0.12513073E+03</pdfrwt>
<pdfrwt beam="2">  1       -4 0.36537061E-03 0.12513073E+03</pdfrwt>
<totfact> 0.15105403E+03</totfact>
</mgrwt>
</event>
<event>
 5    1  0.3327068E-002  0.1250008E+03  0.7818608E-02  0.1235068E+00
          4   -1    0    0  501    0  0.00000000000E+00  0.00000000000E+00  0.12111442832E+03  0.12112108671E+03  0.12700000000E+01 0.  1.
         -4   -1    0    0    0  501 -0.00000000000E+00 -0.00000000000E+00 -0.32232928333E+02  0.32257938076E+02  0.12700000000E+01 0.  1.
         25    2    1    2    0    0  0.00000000000E+00  0.00000000000E+00  0.88881499986E+02  0.15337902479E+03  0.12500081682E+03 0.  0.
    9000005    1    3    3    0    0 -0.38032375779E+02  0.19708358471E+02 -0.11391143085E+02  0.44335529114E+02  0.10000000000E+01 0.  0.
    9000005    1    3    3    0    0  0.38032375779E+02 -0.19708358471E+02  0.10027264307E+03  0.10904349568E+03  0.10000000000E+01 0.  0.
<mgrwt>
<rscale>  0 0.12500082E+03</rscale>
<asrwt>0</asrwt>
<pdfrwt beam="1">  1        4 0.18635425E-01 0.12500082E+03</pdfrwt>
<pdfrwt beam="2">  1       -4 0.49613481E-02 0.12500082E+03</pdfrwt>
<totfact> 0.98632542E+03</totfact>
</mgrwt>
</event>
<event>
 5    1  0.3327068E-002  0.1249965E+03  0.7818608E-02  0.1235075E+00
          4   -1    0    0  501    0  0.00000000000E+00  0.00000000000E+00  0.70258599350E+03  0.70258714133E+03  0.12700000000E+01 0.  1.
         -4   -1    0    0    0  501 -0.00000000000E+00 -0.00000000000E+00 -0.54858090174E+01  0.56308969601E+01  0.12700000000E+01 0.  1.
         25    2    1    2    0    0  0.00000000000E+00  0.00000000000E+00  0.69710018449E+03  0.70821803829E+03  0.12499649017E+03 0.  0.
    9000005    1    3    3    0    0 -0.49873171174E+02  0.34323143978E+02  0.26084395315E+03  0.26777972162E+03  0.10000000000E+01 0.  0.
    9000005    1    3    3    0    0  0.49873171174E+02 -0.34323143978E+02  0.43625623133E+03  0.44043831667E+03  0.10000000000E+01 0.  0.
<mgrwt>
<rscale>  0 0.12499649E+03</rscale>
<asrwt>0</asrwt>
<pdfrwt beam="1">  1        4 0.10810143E+00 0.12499649E+03</pdfrwt>
<pdfrwt beam="2">  1       -4 0.85521927E-03 0.12499649E+03</pdfrwt>
<totfact> 0.42659678E+03</totfact>
</mgrwt>
</event>
<event>
 5    1  0.3327068E-002  0.1250017E+03  0.7818608E-02  0.1235067E+00
         -4   -1    0    0    0  501 -0.00000000000E+00  0.00000000000E+00  0.53166717347E+03  0.53166869030E+03  0.12700000000E+01 0. -1.
          4   -1    0    0  501    0  0.00000000000E+00 -0.00000000000E+00 -0.72909581642E+01  0.74007412434E+01  0.12700000000E+01 0. -1.
         25    2    1    2    0    0  0.00000000000E+00  0.00000000000E+00  0.52437621530E+03  0.53906943154E+03  0.12500174737E+03 0.  0.
    9000005    1    3    3    0    0 -0.48218893351E+02 -0.26747012210E+02  0.13536152722E+03  0.14616500057E+03  0.10000000000E+01 0.  0.
    9000005    1    3    3    0    0  0.48218893351E+02  0.26747012210E+02  0.38901468808E+03  0.39290443097E+03  0.10000000000E+01 0.  0.
<mgrwt>
<rscale>  0 0.12500175E+03</rscale>
<asrwt>0</asrwt>
<pdfrwt beam="2">  1        4 0.11302470E-02 0.12500175E+03</pdfrwt>
<pdfrwt beam="1">  1       -4 0.81803540E-01 0.12500175E+03</pdfrwt>
<totfact> 0.52953516E+03</totfact>
</mgrwt>
</event>
<event>
 5    1  0.3327068E-002  0.1250054E+03  0.7818608E-02  0.1235061E+00
          4   -1    0    0  501    0  0.00000000000E+00  0.00000000000E+00  0.51964992643E+01  0.53494396533E+01  0.12700000000E+01 0.  1.
         -4   -1    0    0    0  501 -0.00000000000E+00 -0.00000000000E+00 -0.74071743811E+03  0.74071852685E+03  0.12700000000E+01 0.  1.
         25    2    1    2    0    0  0.00000000000E+00  0.00000000000E+00 -0.73552093884E+03  0.74606796650E+03  0.12500543653E+03 0.  0.
    9000005    1    3    3    0    0  0.56911723067E+02  0.70087470099E+01 -0.51607239483E+03  0.51924924985E+03  0.10000000000E+01 0.  0.
    9000005    1    3    3    0    0 -0.56911723067E+02 -0.70087470099E+01 -0.21944854401E+03  0.22681871665E+03  0.10000000000E+01 0.  0.
<mgrwt>
<rscale>  0 0.12500544E+03</rscale>
<asrwt>0</asrwt>
<pdfrwt beam="1">  1        4 0.81131041E-03 0.12500544E+03</pdfrwt>
<pdfrwt beam="2">  1       -4 0.11396829E+00 0.12500544E+03</pdfrwt>
<totfact> 0.40758094E+03</totfact>
</mgrwt>
</event>
<event>
 5    1  0.3327068E-002  0.1250007E+03  0.7818608E-02  0.1235068E+00
          4   -1    0    0  501    0  0.00000000000E+00  0.00000000000E+00  0.29132493136E+03  0.29132769956E+03  0.12700000000E+01 0. -1.
         -4   -1    0    0    0  501 -0.00000000000E+00 -0.00000000000E+00 -0.13375808949E+02  0.13435965356E+02  0.12700000000E+01 0. -1.
         25    2    1    2    0    0  0.00000000000E+00  0.00000000000E+00  0.27794912241E+03  0.30476366492E+03  0.12500070722E+03 0.  0.
    9000005    1    3    3    0    0 -0.45900503504E+02 -0.13323615554E+02  0.23713385090E+03  0.24190460557E+03  0.10000000000E+01 0.  0.
    9000005    1    3    3    0    0  0.45900503504E+02  0.13323615554E+02  0.40815271505E+02  0.62859059342E+02  0.10000000000E+01 0.  0.
<mgrwt>
<rscale>  0 0.12500071E+03</rscale>
<asrwt>0</asrwt>
<pdfrwt beam="1">  1        4 0.44824058E-01 0.12500071E+03</pdfrwt>
<pdfrwt beam="2">  1       -4 0.20626572E-02 0.12500071E+03</pdfrwt>
<totfact> 0.75003976E+03</totfact>
</mgrwt>
</event>
<event>
 5    1  0.3327068E-002  0.1249966E+03  0.7818608E-02  0.1235075E+00
          4   -1    0    0  501    0  0.00000000000E+00  0.00000000000E+00  0.21437988060E+02  0.21475572916E+02  0.12700000000E+01 0.  1.
         -4   -1    0    0    0  501 -0.00000000000E+00 -0.00000000000E+00 -0.18200218153E+03  0.18200661247E+03  0.12700000000E+01 0.  1.
         25    2    1    2    0    0  0.00000000000E+00  0.00000000000E+00 -0.16056419347E+03  0.20348218539E+03  0.12499655813E+03 0.  0.
    9000005    1    3    3    0    0 -0.29384264284E+01  0.53978285675E+02 -0.13131482737E+03  0.14201011781E+03  0.10000000000E+01 0.  0.
    9000005    1    3    3    0    0  0.29384264284E+01 -0.53978285675E+02 -0.29249366105E+02  0.61472067574E+02  0.10000000000E+01 0.  0.
<mgrwt>
<rscale>  0 0.12499656E+03</rscale>
<asrwt>0</asrwt>
<pdfrwt beam="1">  1        4 0.33013841E-02 0.12499656E+03</pdfrwt>
<pdfrwt beam="2">  1       -4 0.28003567E-01 0.12499656E+03</pdfrwt>
<totfact> 0.89558409E+03</totfact>
</mgrwt>
</event>
<event>
 5    1  0.3327068E-002  0.1250046E+03  0.7818608E-02  0.1235062E+00
          4   -1    0    0  501    0  0.00000000000E+00  0.00000000000E+00  0.17719036542E+03  0.17719491668E+03  0.12700000000E+01 0. -1.
         -4   -1    0    0    0  501 -0.00000000000E+00 -0.00000000000E+00 -0.22024007886E+02  0.22060594356E+02  0.12700000000E+01 0. -1.
         25    2    1    2    0    0  0.00000000000E+00  0.00000000000E+00  0.15516635753E+03  0.19925551103E+03  0.12500464059E+03 0.  0.
    9000005    1    3    3    0    0 -0.52365757056E+02 -0.29954110767E+02  0.51580267938E+02  0.79378493967E+02  0.10000000000E+01 0.  0.
    9000005    1    3    3    0    0  0.52365757056E+02  0.29954110767E+02  0.10358608959E+03  0.11987701707E+03  0.10000000000E+01 0.  0.
<mgrwt>
<rscale>  0 0.12500464E+03</rscale>
<asrwt>0</asrwt>
<pdfrwt beam="1">  1        4 0.27263220E-01 0.12500464E+03</pdfrwt>
<pdfrwt beam="2">  1       -4 0.33914734E-02 0.12500464E+03</pdfrwt>
<totfact> 0.90251849E+03</totfact>
</mgrwt>
</event>
<event>
 5    1  0.3327068E-002  0.1249980E+03  0.7818608E-02  0.1235072E+00
          4   -1    0    0  501    0  0.00000000000E+00  0.00000000000E+00  0.13833854471E+02  0.13892027552E+02  0.12700000000E+01 0. -1.
         -4   -1    0    0    0  501 -0.00000000000E+00 -0.00000000000E+00 -0.28170793678E+03  0.28171079948E+03  0.12700000000E+01 0. -1.
         25    2    1    2    0    0  0.00000000000E+00  0.00000000000E+00 -0.26787408231E+03  0.29560282703E+03  0.12499802949E+03 0.  0.
    9000005    1    3    3    0    0 -0.82914313187E+01  0.54990599013E+02 -0.66531770493E+02  0.86719030772E+02  0.10000000000E+01 0.  0.
    9000005    1    3    3    0    0  0.82914313187E+01 -0.54990599013E+02 -0.20134231181E+03  0.20888379626E+03  0.10000000000E+01 0.  0.
<mgrwt>
<rscale>  0 0.12499803E+03</rscale>
<asrwt>0</asrwt>
<pdfrwt beam="1">  1        4 0.21329806E-02 0.12499803E+03</pdfrwt>
<pdfrwt beam="2">  1       -4 0.43344373E-01 0.12499803E+03</pdfrwt>
<totfact> 0.76157077E+03</totfact>
</mgrwt>
</event>
<event>
 5    1  0.3327068E-002  0.1250009E+03  0.7818608E-02  0.1235068E+00
          4   -1    0    0  501    0  0.00000000000E+00  0.00000000000E+00  0.26595337491E+03  0.26595640719E+03  0.12700000000E+01 0.  1.
         -4   -1    0    0    0  501 -0.00000000000E+00 -0.00000000000E+00 -0.14657362814E+02  0.14712280063E+02  0.12700000000E+01 0.  1.
         25    2    1    2    0    0  0.00000000000E+00  0.00000000000E+00  0.25129601210E+03  0.28066868726E+03  0.12500090524E+03 0.  0.
    9000005    1    3    3    0    0  0.13780611532E+02  0.53548601731E+02  0.60264897778E+02  0.81793740016E+02  0.10000000000E+01 0.  0.
    9000005    1    3    3    0    0 -0.13780611532E+02 -0.53548601731E+02  0.19103111432E+03  0.19887494724E+03  0.10000000000E+01 0.  0.
<mgrwt>
<rscale>  0 0.12500091E+03</rscale>
<asrwt>0</asrwt>
<pdfrwt beam="1">  1        4 0.40920366E-01 0.12500091E+03</pdfrwt>
<pdfrwt beam="2">  1       -4 0.22594363E-02 0.12500091E+03</pdfrwt>
<totfact> 0.78087949E+03</totfact>
</mgrwt>
</event>
<event>
 5    1  0.3327068E-002  0.1250001E+03  0.7818608E-02  0.1235069E+00
          4   -1    0    0  501    0  0.00000000000E+00  0.00000000000E+00  0.13048958146E+02  0.13110614352E+02  0.12700000000E+01 0. -1.
         -4   -1    0    0    0  501 -0.00000000000E+00 -0.00000000000E+00 -0.29858517898E+03  0.29858787987E+03  0.12700000000E+01 0. -1.
         25    2    1    2    0    0  0.00000000000E+00  0.00000000000E+00 -0.28553622084E+03  0.31169849423E+03  0.12500007157E+03 0.  0.
    9000005    1    3    3    0    0  0.15830438390E+01 -0.56209066845E+02 -0.74784634081E+02  0.93571933388E+02  0.10000000000E+01 0.  0.
    9000005    1    3    3    0    0 -0.15830438390E+01  0.56209066845E+02 -0.21075158676E+03  0.21812656084E+03  0.10000000000E+01 0.  0.
<mgrwt>
<rscale>  0 0.12500007E+03</rscale>
<asrwt>0</asrwt>
<pdfrwt beam="1">  1        4 0.20124828E-02 0.12500007E+03</pdfrwt>
<pdfrwt beam="2">  1       -4 0.45941127E-01 0.12500007E+03</pdfrwt>
<totfact> 0.74154332E+03</totfact>
</mgrwt>
</event>
<event>
 5    1  0.3327068E-002  0.1249983E+03  0.7818608E-02  0.1235072E+00
          4   -1    0    0  501    0  0.00000000000E+00  0.00000000000E+00  0.83445706019E+02  0.83455369827E+02  0.12700000000E+01 0. -1.
         -4   -1    0    0    0  501 -0.00000000000E+00 -0.00000000000E+00 -0.46789590782E+02  0.46806823280E+02  0.12700000000E+01 0. -1.
         25    2    1    2    0    0  0.00000000000E+00  0.00000000000E+00  0.36656115237E+02  0.13026219311E+03  0.12499827266E+03 0.  0.
    9000005    1    3    3    0    0  0.49707479200E+02  0.34546224481E+02  0.21545967943E+01  0.60579843196E+02  0.10000000000E+01 0.  0.
    9000005    1    3    3    0    0 -0.49707479200E+02 -0.34546224481E+02  0.34501518443E+02  0.69682349911E+02  0.10000000000E+01 0.  0.
<mgrwt>
<rscale>  0 0.12499827E+03</rscale>
<asrwt>0</asrwt>
<pdfrwt beam="1">  1        4 0.12839870E-01 0.12499827E+03</pdfrwt>
<pdfrwt beam="2">  1       -4 0.72004676E-02 0.12499827E+03</pdfrwt>
<totfact> 0.10339305E+04</totfact>
</mgrwt>
</event>
<event>
 5    1  0.3327068E-002  0.1249990E+03  0.7818608E-02  0.1235071E+00
         -4   -1    0    0    0  501 -0.00000000000E+00  0.00000000000E+00  0.18321555258E+03  0.18321995418E+03  0.12700000000E+01 0.  1.
          4   -1    0    0  501    0  0.00000000000E+00 -0.00000000000E+00 -0.21296589103E+02  0.21334423063E+02  0.12700000000E+01 0.  1.
         25    2    1    2    0    0  0.00000000000E+00  0.00000000000E+00  0.16191896348E+03  0.20455437724E+03  0.12499897005E+03 0.  0.
    9000005    1    3    3    0    0  0.81129288896E+01  0.44416168437E+02  0.10258656527E+02  0.46312586491E+02  0.10000000000E+01 0.  0.
    9000005    1    3    3    0    0 -0.81129288896E+01 -0.44416168437E+02  0.15166030695E+03  0.15824179075E+03  0.10000000000E+01 0.  0.
<mgrwt>
<rscale>  0 0.12499897E+03</rscale>
<asrwt>0</asrwt>
<pdfrwt beam="2">  1        4 0.32796473E-02 0.12499897E+03</pdfrwt>
<pdfrwt beam="1">  1       -4 0.28190257E-01 0.12499897E+03</pdfrwt>
<totfact> 0.89375076E+03</totfact>
</mgrwt>
</event>
<event>
 5    1  0.3327068E-002  0.1250026E+03  0.7818608E-02  0.1235065E+00
         -4   -1    0    0    0  501 -0.00000000000E+00  0.00000000000E+00  0.70951504889E+02  0.70962870193E+02  0.12700000000E+01 0. -1.
          4   -1    0    0  501    0  0.00000000000E+00 -0.00000000000E+00 -0.55034395286E+02  0.55049046899E+02  0.12700000000E+01 0. -1.
         25    2    1    2    0    0  0.00000000000E+00  0.00000000000E+00  0.15917109603E+02  0.12601191709E+03  0.12500259546E+03 0.  0.
    9000005    1    3    3    0    0  0.53685816719E+02  0.31331298106E+02  0.14460053287E+02  0.63827190905E+02  0.10000000000E+01 0.  0.
    9000005    1    3    3    0    0 -0.53685816719E+02 -0.31331298106E+02  0.14570563162E+01  0.62184726187E+02  0.10000000000E+01 0.  0.
<mgrwt>
<rscale>  0 0.12500260E+03</rscale>
<asrwt>0</asrwt>
<pdfrwt beam="2">  1        4 0.84688313E-02 0.12500260E+03</pdfrwt>
<pdfrwt beam="1">  1       -4 0.10917617E-01 0.12500260E+03</pdfrwt>
<totfact> 0.10430085E+04</totfact>
</mgrwt>
</event>
<event>
 5    1  0.3327068E-002  0.1249995E+03  0.7818608E-02  0.1235070E+00
         -4   -1    0    0    0  501 -0.00000000000E+00  0.00000000000E+00  0.46291955569E+01  0.48002449421E+01  0.12700000000E+01 0. -1.
          4   -1    0    0  501    0  0.00000000000E+00 -0.00000000000E+00 -0.82834367214E+03  0.82834464571E+03  0.12700000000E+01 0. -1.
         25    2    1    2    0    0  0.00000000000E+00  0.00000000000E+00 -0.82371447658E+03  0.83314489065E+03  0.12499947954E+03 0.  0.
    9000005    1    3    3    0    0  0.41298822716E+02 -0.37086613526E+02 -0.60320821948E+03  0.60575751395E+03  0.10000000000E+01 0.  0.
    9000005    1    3    3    0    0 -0.41298822716E+02  0.37086613526E+02 -0.22050625710E+03  0.22738737670E+03  0.10000000000E+01 0.  0.
<mgrwt>
<rscale>  0 0.12499948E+03</rscale>
<asrwt>0</asrwt>
<pdfrwt beam="2">  1        4 0.12745060E+00 0.12499948E+03</pdfrwt>
<pdfrwt beam="1">  1       -4 0.72541713E-03 0.12499948E+03</pdfrwt>
<totfact> 0.36827598E+03</totfact>
</mgrwt>
</event>
<event>
 5    1  0.3327068E-002  0.1249989E+03  0.7818608E-02  0.1235071E+00
         -4   -1    0    0    0  501 -0.00000000000E+00  0.00000000000E+00  0.29755205459E+02  0.29782295948E+02  0.12700000000E+01 0. -1.
          4   -1    0    0  501    0  0.00000000000E+00 -0.00000000000E+00 -0.13118743050E+03  0.13119357767E+03  0.12700000000E+01 0. -1.
         25    2    1    2    0    0  0.00000000000E+00  0.00000000000E+00 -0.10143222504E+03  0.16097587362E+03  0.12499894243E+03 0.  0.
    9000005    1    3    3    0    0 -0.27124517948E+01 -0.61624411072E+01 -0.13072527280E+03  0.13090236829E+03  0.10000000000E+01 0.  0.
    9000005    1    3    3    0    0  0.27124517948E+01  0.61624411072E+01  0.29293047763E+02  0.30073505322E+02  0.10000000000E+01 0.  0.
<mgrwt>
<rscale>  0 0.12499894E+03</rscale>
<asrwt>0</asrwt>
<pdfrwt beam="2">  1        4 0.20185238E-01 0.12499894E+03</pdfrwt>
<pdfrwt beam="1">  1       -4 0.45802807E-02 0.12499894E+03</pdfrwt>
<totfact> 0.97157283E+03</totfact>
</mgrwt>
</event>
<event>
 5    1  0.3327068E-002  0.1250067E+03  0.7818608E-02  0.1235059E+00
         -4   -1    0    0    0  501 -0.00000000000E+00  0.00000000000E+00  0.70418601983E+01  0.71554660961E+01  0.12700000000E+01 0. -1.
          4   -1    0    0  501    0  0.00000000000E+00 -0.00000000000E+00 -0.55022427737E+03  0.55022574305E+03  0.12700000000E+01 0. -1.
         25    2    1    2    0    0  0.00000000000E+00  0.00000000000E+00 -0.54318241717E+03  0.55738120914E+03  0.12500669573E+03 0.  0.
    9000005    1    3    3    0    0  0.47889774151E+02  0.40133310820E+02 -0.26603039281E+03  0.27327144564E+03  0.10000000000E+01 0.  0.
    9000005    1    3    3    0    0 -0.47889774151E+02 -0.40133310820E+02 -0.27715202437E+03  0.28410976350E+03  0.10000000000E+01 0.  0.
<mgrwt>
<rscale>  0 0.12500670E+03</rscale>
<asrwt>0</asrwt>
<pdfrwt beam="2">  1        4 0.84658707E-01 0.12500670E+03</pdfrwt>
<pdfrwt beam="1">  1       -4 0.10922152E-02 0.12500670E+03</pdfrwt>
<totfact> 0.51665719E+03</totfact>
</mgrwt>
</event>
<event>
 5    1  0.3327068E-002  0.1250007E+03  0.7818608E-02  0.1235068E+00
         -4   -1    0    0    0  501 -0.00000000000E+00  0.00000000000E+00  0.46870484885E+02  0.46887687652E+02  0.12700000000E+01 0. -1.
          4   -1    0    0  501    0  0.00000000000E+00 -0.00000000000E+00 -0.83304982811E+02  0.83314662942E+02  0.12700000000E+01 0. -1.
         25    2    1    2    0    0  0.00000000000E+00  0.00000000000E+00 -0.36434497926E+02  0.13020235059E+03  0.12500071784E+03 0.  0.
    9000005    1    3    3    0    0  0.58373801399E+02 -0.21526096616E+02 -0.12106137509E+02  0.63391104192E+02  0.10000000000E+01 0.  0.
    9000005    1    3    3    0    0 -0.58373801399E+02  0.21526096616E+02 -0.24328360416E+02  0.66811246402E+02  0.10000000000E+01 0.  0.
<mgrwt>
<rscale>  0 0.12500072E+03</rscale>
<asrwt>0</asrwt>
<pdfrwt beam="2">  1        4 0.12818219E-01 0.12500072E+03</pdfrwt>
<pdfrwt beam="1">  1       -4 0.72129118E-02 0.12500072E+03</pdfrwt>
<totfact> 0.10340013E+04</totfact>
</mgrwt>
</event>
<event>
 5    1  0.3327068E-002  0.1250018E+03  0.7818608E-02  0.1235066E+00
         -4   -1    0    0    0  501 -0.00000000000E+00  0.00000000000E+00  0.46027547299E+02  0.46045064995E+02  0.12700000000E+01 0. -1.
          4   -1    0    0  501    0  0.00000000000E+00 -0.00000000000E+00 -0.84831691696E+02  0.84841197634E+02  0.12700000000E+01 0. -1.
         25    2    1    2    0    0  0.00000000000E+00  0.00000000000E+00 -0.38804144397E+02  0.13088626263E+03  0.12500180848E+03 0.  0.
    9000005    1    3    3    0    0  0.32503181576E+02 -0.56671544690E+01  0.36169792960E+02  0.48967615575E+02  0.10000000000E+01 0.  0.
    9000005    1    3    3    0    0 -0.32503181576E+02  0.56671544690E+01 -0.74973937357E+02  0.81918647054E+02  0.10000000000E+01 0.  0.
<mgrwt>
<rscale>  0 0.12500181E+03</rscale>
<asrwt>0</asrwt>
<pdfrwt beam="2">  1        4 0.13053108E-01 0.12500181E+03</pdfrwt>
<pdfrwt beam="1">  1       -4 0.70832399E-02 0.12500181E+03</pdfrwt>
<totfact> 0.10325107E+04</totfact>
</mgrwt>
</event>
<event>
 5    1  0.3327068E-002  0.1250009E+03  0.7818608E-02  0.1235068E+00
          4   -1    0    0  501    0  0.00000000000E+00  0.00000000000E+00  0.67808621017E+02  0.67820513005E+02  0.12700000000E+01 0. -1.
         -4   -1    0    0    0  501 -0.00000000000E+00 -0.00000000000E+00 -0.57583866234E+02  0.57597869322E+02  0.12700000000E+01 0. -1.
         25    2    1    2    0    0  0.00000000000E+00  0.00000000000E+00  0.10224754784E+02  0.12541838233E+03  0.12500090006E+03 0.  0.
    9000005    1    3    3    0    0 -0.50150405489E+02  0.33740556156E+02  0.21034149362E+02  0.64007216310E+02  0.10000000000E+01 0.  0.
    9000005    1    3    3    0    0  0.50150405489E+02 -0.33740556156E+02 -0.10809394578E+02  0.61411166017E+02  0.10000000000E+01 0.  0.
<mgrwt>
<rscale>  0 0.12500090E+03</rscale>
<asrwt>0</asrwt>
<pdfrwt beam="1">  1        4 0.10434087E-01 0.12500090E+03</pdfrwt>
<pdfrwt beam="2">  1       -4 0.88610483E-02 0.12500090E+03</pdfrwt>
<totfact> 0.10443548E+04</totfact>
</mgrwt>
</event>
<event>
 5    1  0.3327068E-002  0.1249996E+03  0.7818608E-02  0.1235070E+00
          4   -1    0    0  501    0  0.00000000000E+00  0.00000000000E+00  0.24692998004E+01  0.27767501696E+01  0.12700000000E+01 0. -1.
         -4   -1    0    0    0  501 -0.00000000000E+00 -0.00000000000E+00 -0.14888977380E+04  0.14888982796E+04  0.12700000000E+01 0. -1.
         25    2    1    2    0    0  0.00000000000E+00  0.00000000000E+00 -0.14864284382E+04  0.14916750298E+04  0.12499957070E+03 0.  0.
    9000005    1    3    3    0    0 -0.53567747553E+02  0.11443336975E+02 -0.11021648372E+04  0.11035256145E+04  0.10000000000E+01 0.  0.
    9000005    1    3    3    0    0  0.53567747553E+02 -0.11443336975E+02 -0.38426360099E+03  0.38814941528E+03  0.10000000000E+01 0.  0.
<mgrwt>
<rscale>  0 0.12499957E+03</rscale>
<asrwt>0</asrwt>
<pdfrwt beam="1">  1        4 0.40358516E-03 0.12499957E+03</pdfrwt>
<pdfrwt beam="2">  1       -4 0.22908421E+00 0.12499957E+03</pdfrwt>
<totfact> 0.18094970E+03</totfact>
</mgrwt>
</event>
<event>
 5    1  0.3327068E-002  0.1250226E+03  0.7818608E-02  0.1235034E+00
         -4   -1    0    0    0  501 -0.00000000000E+00  0.00000000000E+00  0.10100440541E+03  0.10101238940E+03  0.12700000000E+01 0. -1.
          4   -1    0    0  501    0  0.00000000000E+00 -0.00000000000E+00 -0.38668073568E+02  0.38688923654E+02  0.12700000000E+01 0. -1.
         25    2    1    2    0    0  0.00000000000E+00  0.00000000000E+00  0.62336331838E+02  0.13970131305E+03  0.12502255237E+03 0.  0.
    9000005    1    3    3    0    0 -0.89589494212E+00  0.53196767773E+02  0.67821237595E+02  0.86205678457E+02  0.10000000000E+01 0.  0.
    9000005    1    3    3    0    0  0.89589494212E+00 -0.53196767773E+02 -0.54849057571E+01  0.53495634592E+02  0.10000000000E+01 0.  0.
<mgrwt>
<rscale>  0 0.12502255E+03</rscale>
<asrwt>0</asrwt>
<pdfrwt beam="2">  1        4 0.59511525E-02 0.12502255E+03</pdfrwt>
<pdfrwt beam="1">  1       -4 0.15541357E-01 0.12502255E+03</pdfrwt>
<totfact> 0.10134630E+04</totfact>
</mgrwt>
</event>
<event>
 5    1  0.3327068E-002  0.1249976E+03  0.7818608E-02  0.1235073E+00
          4   -1    0    0  501    0  0.00000000000E+00  0.00000000000E+00  0.42263671543E+01  0.44130578200E+01  0.12700000000E+01 0. -1.
         -4   -1    0    0    0  501 -0.00000000000E+00 -0.00000000000E+00 -0.90406282670E+03  0.90406371873E+03  0.12700000000E+01 0. -1.
         25    2    1    2    0    0  0.00000000000E+00  0.00000000000E+00 -0.89983645955E+03  0.90847677655E+03  0.12499759838E+03 0.  0.
    9000005    1    3    3    0    0  0.61370839792E+02 -0.11741030927E+02 -0.44314647829E+03  0.44753104139E+03  0.10000000000E+01 0.  0.
    9000005    1    3    3    0    0 -0.61370839792E+02  0.11741030927E+02 -0.45668998125E+03  0.46094573516E+03  0.10000000000E+01 0.  0.
<mgrwt>
<rscale>  0 0.12499760E+03</rscale>
<asrwt>0</asrwt>
<pdfrwt beam="1">  1        4 0.66464049E-03 0.12499760E+03</pdfrwt>
<pdfrwt beam="2">  1       -4 0.13910087E+00 0.12499760E+03</pdfrwt>
<totfact> 0.33839216E+03</totfact>
</mgrwt>
</event>
<event>
 5    1  0.3327068E-002  0.1249965E+03  0.7818608E-02  0.1235075E+00
         -4   -1    0    0    0  501 -0.00000000000E+00  0.00000000000E+00  0.84472744647E+02  0.84482290974E+02  0.12700000000E+01 0.  1.
          4   -1    0    0  501    0  0.00000000000E+00 -0.00000000000E+00 -0.46219227442E+02  0.46236672516E+02  0.12700000000E+01 0.  1.
         25    2    1    2    0    0  0.00000000000E+00  0.00000000000E+00  0.38253517205E+02  0.13071896349E+03  0.12499646330E+03 0.  0.
    9000005    1    3    3    0    0  0.35800044877E+02 -0.15159981191E+02 -0.32037076991E+02  0.50386928315E+02  0.10000000000E+01 0.  0.
    9000005    1    3    3    0    0 -0.35800044877E+02  0.15159981191E+02  0.70290594196E+02  0.80332035174E+02  0.10000000000E+01 0.  0.
<mgrwt>
<rscale>  0 0.12499646E+03</rscale>
<asrwt>0</asrwt>
<pdfrwt beam="2">  1        4 0.71127267E-02 0.12499646E+03</pdfrwt>
<pdfrwt beam="1">  1       -4 0.12997883E-01 0.12499646E+03</pdfrwt>
<totfact> 0.10329942E+04</totfact>
</mgrwt>
</event>
<event>
 5    1  0.3327068E-002  0.1249982E+03  0.7818608E-02  0.1235072E+00
          4   -1    0    0  501    0  0.00000000000E+00  0.00000000000E+00  0.33061319838E+03  0.33061563763E+03  0.12700000000E+01 0. -1.
         -4   -1    0    0    0  501 -0.00000000000E+00 -0.00000000000E+00 -0.11778212735E+02  0.11846484509E+02  0.12700000000E+01 0. -1.
         25    2    1    2    0    0  0.00000000000E+00  0.00000000000E+00  0.31883498565E+03  0.34246212214E+03  0.12499822809E+03 0.  0.
    9000005    1    3    3    0    0 -0.59241801041E+02  0.11614649482E+02  0.20364943794E+03  0.21241135715E+03  0.10000000000E+01 0.  0.
    9000005    1    3    3    0    0  0.59241801041E+02 -0.11614649482E+02  0.11518554771E+03  0.13005076499E+03  0.10000000000E+01 0.  0.
<mgrwt>
<rscale>  0 0.12499823E+03</rscale>
<asrwt>0</asrwt>
<pdfrwt beam="1">  1        4 0.50869003E-01 0.12499823E+03</pdfrwt>
<pdfrwt beam="2">  1       -4 0.18174722E-02 0.12499823E+03</pdfrwt>
<totfact> 0.70564623E+03</totfact>
</mgrwt>
</event>
<event>
 5    1  0.3327068E-002  0.1250007E+03  0.7818608E-02  0.1235068E+00
          4   -1    0    0  501    0  0.00000000000E+00  0.00000000000E+00  0.68227617681E+02  0.68239436651E+02  0.12700000000E+01 0. -1.
         -4   -1    0    0    0  501 -0.00000000000E+00 -0.00000000000E+00 -0.57230019216E+02  0.57244108863E+02  0.12700000000E+01 0. -1.
         25    2    1    2    0    0  0.00000000000E+00  0.00000000000E+00  0.10997598465E+02  0.12548354551E+03  0.12500069209E+03 0.  0.
    9000005    1    3    3    0    0  0.29750076544E+02  0.31400717356E+02  0.50775361683E+02  0.66709890263E+02  0.10000000000E+01 0.  0.
    9000005    1    3    3    0    0 -0.29750076544E+02 -0.31400717356E+02 -0.39777763218E+02  0.58773655251E+02  0.10000000000E+01 0.  0.
<mgrwt>
<rscale>  0 0.12500069E+03</rscale>
<asrwt>0</asrwt>
<pdfrwt beam="1">  1        4 0.10498550E-01 0.12500069E+03</pdfrwt>
<pdfrwt beam="2">  1       -4 0.88066113E-02 0.12500069E+03</pdfrwt>
<totfact> 0.10442155E+04</totfact>
</mgrwt>
</event>
<event>
 5    1  0.3327068E-002  0.1250014E+03  0.7818608E-02  0.1235067E+00
          4   -1    0    0  501    0  0.00000000000E+00  0.00000000000E+00  0.68539768061E+02  0.68551533213E+02  0.12700000000E+01 0. -1.
         -4   -1    0    0    0  501 -0.00000000000E+00 -0.00000000000E+00 -0.56970013888E+02  0.56984167822E+02  0.12700000000E+01 0. -1.
         25    2    1    2    0    0  0.00000000000E+00  0.00000000000E+00  0.11569754173E+02  0.12553570103E+03  0.12500141208E+03 0.  0.
    9000005    1    3    3    0    0  0.43595443492E+02 -0.23297572549E+02 -0.32614645308E+02  0.59228833084E+02  0.10000000000E+01 0.  0.
    9000005    1    3    3    0    0 -0.43595443492E+02  0.23297572549E+02  0.44184399481E+02  0.66306867951E+02  0.10000000000E+01 0.  0.
<mgrwt>
<rscale>  0 0.12500141E+03</rscale>
<asrwt>0</asrwt>
<pdfrwt beam="1">  1        4 0.10546573E-01 0.12500141E+03</pdfrwt>
<pdfrwt beam="2">  1       -4 0.87666113E-02 0.12500141E+03</pdfrwt>
<totfact> 0.10440833E+04</totfact>
</mgrwt>
</event>
<event>
 5    1  0.3327068E-002  0.1249688E+03  0.7818608E-02  0.1235118E+00
          4   -1    0    0  501    0  0.00000000000E+00  0.00000000000E+00  0.81235779132E+01  0.82222514016E+01  0.12700000000E+01 0.  1.
         -4   -1    0    0    0  501 -0.00000000000E+00 -0.00000000000E+00 -0.47761275247E+03  0.47761444097E+03  0.12700000000E+01 0.  1.
         25    2    1    2    0    0  0.00000000000E+00  0.00000000000E+00 -0.46948917456E+03  0.48583669237E+03  0.12496882262E+03 0.  0.
    9000005    1    3    3    0    0 -0.10810919266E+02  0.31607611340E+02 -0.43999643732E+03  0.44126384616E+03  0.10000000000E+01 0.  0.
    9000005    1    3    3    0    0  0.10810919266E+02 -0.31607611340E+02 -0.29492737239E+02  0.44572846217E+02  0.10000000000E+01 0.  0.
<mgrwt>
<rscale>  0 0.12496882E+03</rscale>
<asrwt>0</asrwt>
<pdfrwt beam="1">  1        4 0.12575017E-02 0.12496882E+03</pdfrwt>
<pdfrwt beam="2">  1       -4 0.73486584E-01 0.12496882E+03</pdfrwt>
<totfact> 0.57019364E+03</totfact>
</mgrwt>
</event>
<event>
 5    1  0.3327068E-002  0.1250017E+03  0.7818608E-02  0.1235067E+00
         -4   -1    0    0    0  501 -0.00000000000E+00  0.00000000000E+00  0.43575846280E+01  0.45388813369E+01  0.12700000000E+01 0. -1.
          4   -1    0    0  501    0  0.00000000000E+00 -0.00000000000E+00 -0.87799999572E+03  0.87800091423E+03  0.12700000000E+01 0. -1.
         25    2    1    2    0    0  0.00000000000E+00  0.00000000000E+00 -0.87364241110E+03  0.88253979557E+03  0.12500171317E+03 0.  0.
    9000005    1    3    3    0    0  0.19914183856E+02 -0.53578291694E+01 -0.85331899256E+03  0.85356873426E+03  0.10000000000E+01 0.  0.
    9000005    1    3    3    0    0 -0.19914183856E+02  0.53578291694E+01 -0.20323418538E+02  0.28971061305E+02  0.10000000000E+01 0.  0.
<mgrwt>
<rscale>  0 0.12500171E+03</rscale>
<asrwt>0</asrwt>
<pdfrwt beam="2">  1        4 0.13509080E+00 0.12500171E+03</pdfrwt>
<pdfrwt beam="1">  1       -4 0.68441489E-03 0.12500171E+03</pdfrwt>
<totfact> 0.34830206E+03</totfact>
</mgrwt>
</event>
<event>
 5    1  0.3327068E-002  0.1249990E+03  0.7818608E-02  0.1235071E+00
          4   -1    0    0  501    0  0.00000000000E+00  0.00000000000E+00  0.22486611351E+02  0.22522446360E+02  0.12700000000E+01 0.  1.
         -4   -1    0    0    0  501 -0.00000000000E+00 -0.00000000000E+00 -0.17353515465E+03  0.17353980177E+03  0.12700000000E+01 0.  1.
         25    2    1    2    0    0  0.00000000000E+00  0.00000000000E+00 -0.15104854329E+03  0.19606224813E+03  0.12499897084E+03 0.  0.
    9000005    1    3    3    0    0  0.16476934558E+02  0.53978295049E+02 -0.33435539555E+02  0.65605495304E+02  0.10000000000E+01 0.  0.
    9000005    1    3    3    0    0 -0.16476934558E+02 -0.53978295049E+02 -0.11761300374E+03  0.13045675282E+03  0.10000000000E+01 0.  0.
<mgrwt>
<rscale>  0 0.12499897E+03</rscale>
<asrwt>0</asrwt>
<pdfrwt beam="1">  1        4 0.34625928E-02 0.12499897E+03</pdfrwt>
<pdfrwt beam="2">  1       -4 0.26700829E-01 0.12499897E+03</pdfrwt>
<totfact> 0.90805164E+03</totfact>
</mgrwt>
</event>
<event>
 5    1  0.3327068E-002  0.1250006E+03  0.7818608E-02  0.1235068E+00
          4   -1    0    0  501    0  0.00000000000E+00  0.00000000000E+00  0.28360294549E+02  0.28388716190E+02  0.12700000000E+01 0.  1.
         -4   -1    0    0    0  501 -0.00000000000E+00 -0.00000000000E+00 -0.13763747233E+03  0.13764333144E+03  0.12700000000E+01 0.  1.
         25    2    1    2    0    0  0.00000000000E+00  0.00000000000E+00 -0.10927717778E+03  0.16603204763E+03  0.12500055702E+03 0.  0.
    9000005    1    3    3    0    0 -0.50222307579E+02 -0.14630210895E+02 -0.10005157834E+03  0.11290545415E+03  0.10000000000E+01 0.  0.
    9000005    1    3    3    0    0  0.50222307579E+02  0.14630210895E+02 -0.92255994454E+01  0.53126593478E+02  0.10000000000E+01 0.  0.
<mgrwt>
<rscale>  0 0.12500056E+03</rscale>
<asrwt>0</asrwt>
<pdfrwt beam="1">  1        4 0.43657593E-02 0.12500056E+03</pdfrwt>
<pdfrwt beam="2">  1       -4 0.21177632E-01 0.12500056E+03</pdfrwt>
<totfact> 0.96191092E+03</totfact>
</mgrwt>
</event>
<event>
 5    1  0.3327068E-002  0.1249966E+03  0.7818608E-02  0.1235075E+00
         -4   -1    0    0    0  501 -0.00000000000E+00  0.00000000000E+00  0.13105697816E+02  0.13167088336E+02  0.12700000000E+01 0. -1.
          4   -1    0    0  501    0  0.00000000000E+00 -0.00000000000E+00 -0.29728213215E+03  0.29728484488E+03  0.12700000000E+01 0. -1.
         25    2    1    2    0    0  0.00000000000E+00  0.00000000000E+00 -0.28417643433E+03  0.31045193321E+03  0.12499662798E+03 0.  0.
    9000005    1    3    3    0    0  0.50813065930E+00  0.35198189773E+02 -0.27032583213E+03  0.27261002600E+03  0.10000000000E+01 0.  0.
    9000005    1    3    3    0    0 -0.50813065930E+00 -0.35198189773E+02 -0.13850602200E+02  0.37841907211E+02  0.10000000000E+01 0.  0.
<mgrwt>
<rscale>  0 0.12499663E+03</rscale>
<asrwt>0</asrwt>
<pdfrwt beam="2">  1        4 0.45740639E-01 0.12499663E+03</pdfrwt>
<pdfrwt beam="1">  1       -4 0.20211924E-02 0.12499663E+03</pdfrwt>
<totfact> 0.74311758E+03</totfact>
</mgrwt>
</event>
<event>
 5    1  0.3327068E-002  0.1250109E+03  0.7818608E-02  0.1235052E+00
         -4   -1    0    0    0  501 -0.00000000000E+00  0.00000000000E+00  0.13226336994E+03  0.13226946710E+03  0.12700000000E+01 0. -1.
          4   -1    0    0  501    0  0.00000000000E+00 -0.00000000000E+00 -0.29518603493E+02  0.29545910921E+02  0.12700000000E+01 0. -1.
         25    2    1    2    0    0  0.00000000000E+00  0.00000000000E+00  0.10274476644E+03  0.16181537802E+03  0.12501091765E+03 0.  0.
    9000005    1    3    3    0    0 -0.15358862573E+02 -0.58996195595E+02  0.69190472630E+02  0.92221295029E+02  0.10000000000E+01 0.  0.
    9000005    1    3    3    0    0  0.15358862573E+02  0.58996195595E+02  0.33554293814E+02  0.69594082992E+02  0.10000000000E+01 0.  0.
<mgrwt>
<rscale>  0 0.12501092E+03</rscale>
<asrwt>0</asrwt>
<pdfrwt beam="2">  1        4 0.45438932E-02 0.12501092E+03</pdfrwt>
<pdfrwt beam="1">  1       -4 0.20350780E-01 0.12501092E+03</pdfrwt>
<totfact> 0.96970138E+03</totfact>
</mgrwt>
</event>
<event>
 5    1  0.3327068E-002  0.1250009E+03  0.7818608E-02  0.1235068E+00
          4   -1    0    0  501    0  0.00000000000E+00  0.00000000000E+00  0.34155901507E+03  0.34156137615E+03  0.12700000000E+01 0.  1.
         -4   -1    0    0    0  501 -0.00000000000E+00 -0.00000000000E+00 -0.11399028481E+02  0.11469557547E+02  0.12700000000E+01 0.  1.
         25    2    1    2    0    0  0.00000000000E+00  0.00000000000E+00  0.33015998659E+03  0.35303093370E+03  0.12500089360E+03 0.  0.
    9000005    1    3    3    0    0  0.49459972989E+02  0.35292379243E+02  0.12381679660E+03  0.13792548742E+03  0.10000000000E+01 0.  0.
    9000005    1    3    3    0    0 -0.49459972989E+02 -0.35292379243E+02  0.20634318999E+03  0.21510544627E+03  0.10000000000E+01 0.  0.
<mgrwt>
<rscale>  0 0.12500089E+03</rscale>
<asrwt>0</asrwt>
<pdfrwt beam="1">  1        4 0.52553148E-01 0.12500089E+03</pdfrwt>
<pdfrwt beam="2">  1       -4 0.17593036E-02 0.12500089E+03</pdfrwt>
<totfact> 0.69391024E+03</totfact>
</mgrwt>
</event>
<event>
 5    1  0.3327068E-002  0.1250007E+03  0.7818608E-02  0.1235068E+00
          4   -1    0    0  501    0  0.00000000000E+00  0.00000000000E+00  0.79962070483E+02  0.79972155254E+02  0.12700000000E+01 0. -1.
         -4   -1    0    0    0  501 -0.00000000000E+00 -0.00000000000E+00 -0.48830447578E+02  0.48846960096E+02  0.12700000000E+01 0. -1.
         25    2    1    2    0    0  0.00000000000E+00  0.00000000000E+00  0.31131622906E+02  0.12881911535E+03  0.12500074614E+03 0.  0.
    9000005    1    3    3    0    0  0.33609121954E+02  0.49481020403E+02  0.34211366773E+02  0.68915615612E+02  0.10000000000E+01 0.  0.
    9000005    1    3    3    0    0 -0.33609121954E+02 -0.49481020403E+02 -0.30797438678E+01  0.59903499738E+02  0.10000000000E+01 0.  0.
<mgrwt>
<rscale>  0 0.12500075E+03</rscale>
<asrwt>0</asrwt>
<pdfrwt beam="1">  1        4 0.12303903E-01 0.12500075E+03</pdfrwt>
<pdfrwt beam="2">  1       -4 0.75144226E-02 0.12500075E+03</pdfrwt>
<totfact> 0.10369661E+04</totfact>
</mgrwt>
</event>
<event>
 5    1  0.3327068E-002  0.1250031E+03  0.7818608E-02  0.1235064E+00
         -4   -1    0    0    0  501 -0.00000000000E+00  0.00000000000E+00  0.13814197953E+04  0.13814203791E+04  0.12700000000E+01 0.  1.
          4   -1    0    0  501    0  0.00000000000E+00 -0.00000000000E+00 -0.26846427310E+01  0.29698832625E+01  0.12700000000E+01 0.  1.
         25    2    1    2    0    0  0.00000000000E+00  0.00000000000E+00  0.13787351526E+04  0.13843902624E+04  0.12500311016E+03 0.  0.
    9000005    1    3    3    0    0  0.49473400360E+02  0.89803280176E+01  0.11003594069E+04  0.11015080971E+04  0.10000000000E+01 0.  0.
    9000005    1    3    3    0    0 -0.49473400360E+02 -0.89803280176E+01  0.27837574566E+03  0.28288216523E+03  0.10000000000E+01 0.  0.
<mgrwt>
<rscale>  0 0.12500311E+03</rscale>
<asrwt>0</asrwt>
<pdfrwt beam="2">  1        4 0.43500913E-03 0.12500311E+03</pdfrwt>
<pdfrwt beam="1">  1       -4 0.21254778E+00 0.12500311E+03</pdfrwt>
<totfact> 0.20317062E+03</totfact>
</mgrwt>
</event>
<event>
 5    1  0.3327068E-002  0.1249995E+03  0.7818608E-02  0.1235070E+00
         -4   -1    0    0    0  501 -0.00000000000E+00  0.00000000000E+00  0.29827039379E+02  0.29854064684E+02  0.12700000000E+01 0.  1.
          4   -1    0    0  501    0  0.00000000000E+00 -0.00000000000E+00 -0.13087287488E+03  0.13087903682E+03  0.12700000000E+01 0.  1.
         25    2    1    2    0    0  0.00000000000E+00  0.00000000000E+00 -0.10104583550E+03  0.16073310150E+03  0.12499947619E+03 0.  0.
    9000005    1    3    3    0    0 -0.58057330874E+02  0.11717015029E+02 -0.24893258433E+02  0.64254310554E+02  0.10000000000E+01 0.  0.
    9000005    1    3    3    0    0  0.58057330874E+02 -0.11717015029E+02 -0.76152577067E+02  0.96478790951E+02  0.10000000000E+01 0.  0.
<mgrwt>
<rscale>  0 0.12499948E+03</rscale>
<asrwt>0</asrwt>
<pdfrwt beam="2">  1        4 0.20136841E-01 0.12499948E+03</pdfrwt>
<pdfrwt beam="1">  1       -4 0.45913282E-02 0.12499948E+03</pdfrwt>
<totfact> 0.97202779E+03</totfact>
</mgrwt>
</event>
<event>
 5    1  0.3327068E-002  0.1250011E+03  0.7818608E-02  0.1235068E+00
         -4   -1    0    0    0  501 -0.00000000000E+00  0.00000000000E+00  0.29628092367E+02  0.29655298975E+02  0.12700000000E+01 0. -1.
          4   -1    0    0  501    0  0.00000000000E+00 -0.00000000000E+00 -0.13175438239E+03  0.13176050310E+03  0.12700000000E+01 0. -1.
         25    2    1    2    0    0  0.00000000000E+00  0.00000000000E+00 -0.10212629002E+03  0.16141580208E+03  0.12500112818E+03 0.  0.
    9000005    1    3    3    0    0  0.10152082656E+02  0.42855195948E+02  0.61886884148E+01  0.44485193787E+02  0.10000000000E+01 0.  0.
    9000005    1    3    3    0    0 -0.10152082656E+02 -0.42855195948E+02 -0.10831497844E+03  0.11693060829E+03  0.10000000000E+01 0.  0.
<mgrwt>
<rscale>  0 0.12500113E+03</rscale>
<asrwt>0</asrwt>
<pdfrwt beam="2">  1        4 0.20272468E-01 0.12500113E+03</pdfrwt>
<pdfrwt beam="1">  1       -4 0.45607318E-02 0.12500113E+03</pdfrwt>
<totfact> 0.97068061E+03</totfact>
</mgrwt>
</event>
<event>
 5    1  0.3327068E-002  0.1249996E+03  0.7818608E-02  0.1235070E+00
         -4   -1    0    0    0  501 -0.00000000000E+00  0.00000000000E+00  0.33732499431E+03  0.33732738502E+03  0.12700000000E+01 0.  1.
          4   -1    0    0  501    0  0.00000000000E+00 -0.00000000000E+00 -0.11542743224E+02  0.11612399456E+02  0.12700000000E+01 0.  1.
         25    2    1    2    0    0  0.00000000000E+00  0.00000000000E+00  0.32578225109E+03  0.34893978448E+03  0.12499959228E+03 0.  0.
    9000005    1    3    3    0    0  0.18866118033E+02 -0.24596651794E+02  0.11418959752E+02  0.33050239499E+02  0.10000000000E+01 0.  0.
    9000005    1    3    3    0    0 -0.18866118033E+02  0.24596651794E+02  0.31436329134E+03  0.31588954498E+03  0.10000000000E+01 0.  0.
<mgrwt>
<rscale>  0 0.12499959E+03</rscale>
<asrwt>0</asrwt>
<pdfrwt beam="2">  1        4 0.17813490E-02 0.12499959E+03</pdfrwt>
<pdfrwt beam="1">  1       -4 0.51901687E-01 0.12499959E+03</pdfrwt>
<totfact> 0.69841984E+03</totfact>
</mgrwt>
</event>
<event>
 5    1  0.3327068E-002  0.1250083E+03  0.7818608E-02  0.1235056E+00
          4   -1    0    0  501    0  0.00000000000E+00  0.00000000000E+00  0.13875161340E+02  0.13933161960E+02  0.12700000000E+01 0. -1.
         -4   -1    0    0    0  501 -0.00000000000E+00 -0.00000000000E+00 -0.28091892880E+03  0.28092179955E+03  0.12700000000E+01 0. -1.
         25    2    1    2    0    0  0.00000000000E+00  0.00000000000E+00 -0.26704376746E+03  0.29485496151E+03  0.12500829806E+03 0.  0.
    9000005    1    3    3    0    0  0.28130074097E+02 -0.13436344184E+02 -0.57619621050E+01  0.31718080349E+02  0.10000000000E+01 0.  0.
    9000005    1    3    3    0    0 -0.28130074097E+02  0.13436344184E+02 -0.26128180536E+03  0.26313688116E+03  0.10000000000E+01 0.  0.
<mgrwt>
<rscale>  0 0.12500830E+03</rscale>
<asrwt>0</asrwt>
<pdfrwt beam="1">  1        4 0.21393228E-02 0.12500830E+03</pdfrwt>
<pdfrwt beam="2">  1       -4 0.43222975E-01 0.12500830E+03</pdfrwt>
<totfact> 0.76234741E+03</totfact>
</mgrwt>
</event>
<event>
 5    1  0.3327068E-002  0.1250188E+03  0.7818608E-02  0.1235040E+00
          4   -1    0    0  501    0  0.00000000000E+00  0.00000000000E+00  0.33489596965E+02  0.33513668926E+02  0.12700000000E+01 0.  1.
         -4   -1    0    0    0  501 -0.00000000000E+00 -0.00000000000E+00 -0.11660634024E+03  0.11661325604E+03  0.12700000000E+01 0.  1.
         25    2    1    2    0    0  0.00000000000E+00  0.00000000000E+00 -0.83116743277E+02  0.15012692497E+03  0.12501880094E+03 0.  0.
    9000005    1    3    3    0    0 -0.60763238339E+02 -0.12241427037E+02 -0.31921608706E+02  0.69728134722E+02  0.10000000000E+01 0.  0.
    9000005    1    3    3    0    0  0.60763238339E+02  0.12241427037E+02 -0.51195134571E+02  0.80398790247E+02  0.10000000000E+01 0.  0.
<mgrwt>
<rscale>  0 0.12501880E+03</rscale>
<asrwt>0</asrwt>
<pdfrwt beam="1">  1        4 0.51546294E-02 0.12501880E+03</pdfrwt>
<pdfrwt beam="2">  1       -4 0.17941820E-01 0.12501880E+03</pdfrwt>
<totfact> 0.99236408E+03</totfact>
</mgrwt>
</event>
<event>
 5    1  0.3327068E-002  0.1249992E+03  0.7818608E-02  0.1235071E+00
          4   -1    0    0  501    0  0.00000000000E+00  0.00000000000E+00  0.81895007041E+02  0.81904853814E+02  0.12700000000E+01 0.  1.
         -4   -1    0    0    0  501 -0.00000000000E+00 -0.00000000000E+00 -0.47676451576E+02  0.47693363636E+02  0.12700000000E+01 0.  1.
         25    2    1    2    0    0  0.00000000000E+00  0.00000000000E+00  0.34218555465E+02  0.12959821745E+03  0.12499915371E+03 0.  0.
    9000005    1    3    3    0    0  0.25268418927E+01  0.19983727263E+02  0.78442057338E+02  0.80993151838E+02  0.10000000000E+01 0.  0.
    9000005    1    3    3    0    0 -0.25268418927E+01 -0.19983727263E+02 -0.44223501873E+02  0.48605065612E+02  0.10000000000E+01 0.  0.
<mgrwt>
<rscale>  0 0.12499915E+03</rscale>
<asrwt>0</asrwt>
<pdfrwt beam="1">  1        4 0.12601290E-01 0.12499915E+03</pdfrwt>
<pdfrwt beam="2">  1       -4 0.73368971E-02 0.12499915E+03</pdfrwt>
<totfact> 0.10353308E+04</totfact>
</mgrwt>
</event>
<event>
 5    1  0.3327068E-002  0.1250050E+03  0.7818608E-02  0.1235062E+00
         -4   -1    0    0    0  501 -0.00000000000E+00  0.00000000000E+00  0.75844941049E+02  0.75855573182E+02  0.12700000000E+01 0.  1.
          4   -1    0    0  501    0  0.00000000000E+00 -0.00000000000E+00 -0.51485132156E+02  0.51500793519E+02  0.12700000000E+01 0.  1.
         25    2    1    2    0    0  0.00000000000E+00  0.00000000000E+00  0.24359808893E+02  0.12735636670E+03  0.12500497530E+03 0.  0.
    9000005    1    3    3    0    0  0.21685665552E+02  0.34836383826E+02 -0.35841841911E+02  0.54492929450E+02  0.10000000000E+01 0.  0.
    9000005    1    3    3    0    0 -0.21685665552E+02 -0.34836383826E+02  0.60201650804E+02  0.72863437251E+02  0.10000000000E+01 0.  0.
<mgrwt>
<rscale>  0 0.12500498E+03</rscale>
<asrwt>0</asrwt>
<pdfrwt beam="2">  1        4 0.79228121E-02 0.12500498E+03</pdfrwt>
<pdfrwt beam="1">  1       -4 0.11670475E-01 0.12500498E+03</pdfrwt>
<totfact> 0.10400244E+04</totfact>
</mgrwt>
</event>
<event>
 5    1  0.3327068E-002  0.1249921E+03  0.7818608E-02  0.1235082E+00
         -4   -1    0    0    0  501 -0.00000000000E+00  0.00000000000E+00  0.63780744308E+01  0.65032863573E+01  0.12700000000E+01 0. -1.
          4   -1    0    0  501    0  0.00000000000E+00 -0.00000000000E+00 -0.60629441234E+03  0.60629574247E+03  0.12700000000E+01 0. -1.
         25    2    1    2    0    0  0.00000000000E+00  0.00000000000E+00 -0.59991633791E+03  0.61279902883E+03  0.12499214871E+03 0.  0.
    9000005    1    3    3    0    0  0.50331933420E+02  0.20556896648E+02 -0.14893671613E+03  0.15855294047E+03  0.10000000000E+01 0.  0.
    9000005    1    3    3    0    0 -0.50331933420E+02 -0.20556896648E+02 -0.45097962178E+03  0.45424608836E+03  0.10000000000E+01 0.  0.
<mgrwt>
<rscale>  0 0.12499215E+03</rscale>
<asrwt>0</asrwt>
<pdfrwt beam="2">  1        4 0.93285752E-01 0.12499215E+03</pdfrwt>
<pdfrwt beam="1">  1       -4 0.99097671E-03 0.12499215E+03</pdfrwt>
<totfact> 0.48077830E+03</totfact>
</mgrwt>
</event>
<event>
 5    1  0.3327068E-002  0.1250079E+03  0.7818608E-02  0.1235057E+00
          4   -1    0    0  501    0  0.00000000000E+00  0.00000000000E+00  0.10854040599E+04  0.10854048029E+04  0.12700000000E+01 0. -1.
         -4   -1    0    0    0  501 -0.00000000000E+00 -0.00000000000E+00 -0.34865513442E+01  0.37106522709E+01  0.12700000000E+01 0. -1.
         25    2    1    2    0    0  0.00000000000E+00  0.00000000000E+00  0.10819175086E+04  0.10891154552E+04  0.12500791720E+03 0.  0.
    9000005    1    3    3    0    0 -0.17606155531E+02  0.18341707751E+02  0.10383543020E+04  0.10386659961E+04  0.10000000000E+01 0.  0.
    9000005    1    3    3    0    0  0.17606155531E+02 -0.18341707751E+02  0.43563206584E+02  0.50449459102E+02  0.10000000000E+01 0.  0.
<mgrwt>
<rscale>  0 0.12500792E+03</rscale>
<asrwt>0</asrwt>
<pdfrwt beam="1">  1        4 0.16700245E+00 0.12500792E+03</pdfrwt>
<pdfrwt beam="2">  1       -4 0.55368850E-03 0.12500792E+03</pdfrwt>
<totfact> 0.27799364E+03</totfact>
</mgrwt>
</event>
<event>
 5    1  0.3327068E-002  0.1249983E+03  0.7818608E-02  0.1235072E+00
         -4   -1    0    0    0  501 -0.00000000000E+00  0.00000000000E+00  0.13397911668E+02  0.13457969278E+02  0.12700000000E+01 0.  1.
          4   -1    0    0  501    0  0.00000000000E+00 -0.00000000000E+00 -0.29083544223E+03  0.29083821509E+03  0.12700000000E+01 0.  1.
         25    2    1    2    0    0  0.00000000000E+00  0.00000000000E+00 -0.27743753056E+03  0.30429618437E+03  0.12499833782E+03 0.  0.
    9000005    1    3    3    0    0  0.10698548828E+02  0.14504051979E+02 -0.28438307978E+03  0.28495536937E+03  0.10000000000E+01 0.  0.
    9000005    1    3    3    0    0 -0.10698548828E+02 -0.14504051979E+02  0.69455492149E+01  0.19340814996E+02  0.10000000000E+01 0.  0.
<mgrwt>
<rscale>  0 0.12499834E+03</rscale>
<asrwt>0</asrwt>
<pdfrwt beam="2">  1        4 0.44748743E-01 0.12499834E+03</pdfrwt>
<pdfrwt beam="1">  1       -4 0.20660505E-02 0.12499834E+03</pdfrwt>
<totfact> 0.75065845E+03</totfact>
</mgrwt>
</event>
<event>
 5    1  0.3327068E-002  0.1250053E+03  0.7818608E-02  0.1235061E+00
         -4   -1    0    0    0  501 -0.00000000000E+00  0.00000000000E+00  0.24455499288E+02  0.24488453308E+02  0.12700000000E+01 0. -1.
          4   -1    0    0  501    0  0.00000000000E+00 -0.00000000000E+00 -0.15959928369E+03  0.15960433658E+03  0.12700000000E+01 0. -1.
         25    2    1    2    0    0  0.00000000000E+00  0.00000000000E+00 -0.13514378441E+03  0.18409278989E+03  0.12500525119E+03 0.  0.
    9000005    1    3    3    0    0 -0.60985491031E+02  0.96064358612E+01 -0.53288829179E+02  0.81561100051E+02  0.10000000000E+01 0.  0.
    9000005    1    3    3    0    0  0.60985491031E+02 -0.96064358612E+01 -0.81854955226E+02  0.10253168984E+03  0.10000000000E+01 0.  0.
<mgrwt>
<rscale>  0 0.12500525E+03</rscale>
<asrwt>0</asrwt>
<pdfrwt beam="2">  1        4 0.24556659E-01 0.12500525E+03</pdfrwt>
<pdfrwt beam="1">  1       -4 0.37653082E-02 0.12500525E+03</pdfrwt>
<totfact> 0.92874502E+03</totfact>
</mgrwt>
</event>
<event>
 5    1  0.3327068E-002  0.1250017E+03  0.7818608E-02  0.1235067E+00
          4   -1    0    0  501    0  0.00000000000E+00  0.00000000000E+00  0.53933603535E+03  0.53933753061E+03  0.12700000000E+01 0. -1.
         -4   -1    0    0    0  501 -0.00000000000E+00 -0.00000000000E+00 -0.71857155683E+01  0.72970821723E+01  0.12700000000E+01 0. -1.
         25    2    1    2    0    0  0.00000000000E+00  0.00000000000E+00  0.53215031978E+03  0.54663461278E+03  0.12500174819E+03 0.  0.
    9000005    1    3    3    0    0  0.11046050746E+02 -0.58112041943E+02  0.17792503198E+03  0.18750291107E+03  0.10000000000E+01 0.  0.
    9000005    1    3    3    0    0 -0.11046050746E+02  0.58112041943E+02  0.35422528780E+03  0.35913170171E+03  0.10000000000E+01 0.  0.
<mgrwt>
<rscale>  0 0.12500175E+03</rscale>
<asrwt>0</asrwt>
<pdfrwt beam="1">  1        4 0.82983464E-01 0.12500175E+03</pdfrwt>
<pdfrwt beam="2">  1       -4 0.11141763E-02 0.12500175E+03</pdfrwt>
<totfact> 0.52417325E+03</totfact>
</mgrwt>
</event>
<event>
 5    1  0.3327068E-002  0.1249986E+03  0.7818608E-02  0.1235072E+00
         -4   -1    0    0    0  501 -0.00000000000E+00  0.00000000000E+00  0.39480202384E+02  0.39500623796E+02  0.12700000000E+01 0.  1.
          4   -1    0    0  501    0  0.00000000000E+00 -0.00000000000E+00 -0.98889650628E+02  0.98897805341E+02  0.12700000000E+01 0.  1.
         25    2    1    2    0    0  0.00000000000E+00  0.00000000000E+00 -0.59409448244E+02  0.13839842914E+03  0.12499857058E+03 0.  0.
    9000005    1    3    3    0    0 -0.31274782983E+02  0.41733462559E+02 -0.67824687785E+02  0.85562738507E+02  0.10000000000E+01 0.  0.
    9000005    1    3    3    0    0  0.31274782983E+02 -0.41733462559E+02  0.84152395408E+01  0.52835690629E+02  0.10000000000E+01 0.  0.
<mgrwt>
<rscale>  0 0.12499857E+03</rscale>
<asrwt>0</asrwt>
<pdfrwt beam="2">  1        4 0.15215990E-01 0.12499857E+03</pdfrwt>
<pdfrwt beam="1">  1       -4 0.60760755E-02 0.12499857E+03</pdfrwt>
<totfact> 0.10167215E+04</totfact>
</mgrwt>
</event>
<event>
 5    1  0.3327068E-002  0.1249990E+03  0.7818608E-02  0.1235071E+00
          4   -1    0    0  501    0  0.00000000000E+00  0.00000000000E+00  0.53103642255E+03  0.53103794118E+03  0.12700000000E+01 0.  1.
         -4   -1    0    0    0  501 -0.00000000000E+00 -0.00000000000E+00 -0.72994171930E+01  0.74090749327E+01  0.12700000000E+01 0.  1.
         25    2    1    2    0    0  0.00000000000E+00  0.00000000000E+00  0.52373700536E+03  0.53844701612E+03  0.12499895353E+03 0.  0.
    9000005    1    3    3    0    0 -0.43324911634E+02 -0.15763911188E+01  0.67994768576E+02  0.80646274128E+02  0.10000000000E+01 0.  0.
    9000005    1    3    3    0    0  0.43324911634E+02  0.15763911188E+01  0.45574223678E+03  0.45780074199E+03  0.10000000000E+01 0.  0.
<mgrwt>
<rscale>  0 0.12499895E+03</rscale>
<asrwt>0</asrwt>
<pdfrwt beam="1">  1        4 0.81706488E-01 0.12499895E+03</pdfrwt>
<pdfrwt beam="2">  1       -4 0.11315389E-02 0.12499895E+03</pdfrwt>
<totfact> 0.53001261E+03</totfact>
</mgrwt>
</event>
<event>
 5    1  0.3327068E-002  0.1249970E+03  0.7818608E-02  0.1235074E+00
          4   -1    0    0  501    0  0.00000000000E+00  0.00000000000E+00  0.37212154821E+03  0.37212371537E+03  0.12700000000E+01 0. -1.
         -4   -1    0    0    0  501 -0.00000000000E+00 -0.00000000000E+00 -0.10456118730E+02  0.10532963443E+02  0.12700000000E+01 0. -1.
         25    2    1    2    0    0  0.00000000000E+00  0.00000000000E+00  0.36166542948E+03  0.38265667882E+03  0.12499700381E+03 0.  0.
    9000005    1    3    3    0    0  0.25558013405E+02  0.25256493783E+02  0.33734887363E+03  0.33925855195E+03  0.10000000000E+01 0.  0.
    9000005    1    3    3    0    0 -0.25558013405E+02 -0.25256493783E+02  0.24316555845E+02  0.43398126867E+02  0.10000000000E+01 0.  0.
<mgrwt>
<rscale>  0 0.12499700E+03</rscale>
<asrwt>0</asrwt>
<pdfrwt beam="1">  1        4 0.57255536E-01 0.12499700E+03</pdfrwt>
<pdfrwt beam="2">  1       -4 0.16147118E-02 0.12499700E+03</pdfrwt>
<totfact> 0.66279665E+03</totfact>
</mgrwt>
</event>
<event>
 5    1  0.3327068E-002  0.1250129E+03  0.7818608E-02  0.1235049E+00
         -4   -1    0    0    0  501 -0.00000000000E+00  0.00000000000E+00  0.41508010826E+02  0.41527435061E+02  0.12700000000E+01 0. -1.
          4   -1    0    0  501    0  0.00000000000E+00 -0.00000000000E+00 -0.94082017242E+02  0.94090588628E+02  0.12700000000E+01 0. -1.
         25    2    1    2    0    0  0.00000000000E+00  0.00000000000E+00 -0.52574006416E+02  0.13561802369E+03  0.12501288813E+03 0.  0.
    9000005    1    3    3    0    0  0.33079450849E+01  0.59335129986E+02 -0.52945752850E+01  0.59671037184E+02  0.10000000000E+01 0.  0.
    9000005    1    3    3    0    0 -0.33079450849E+01 -0.59335129986E+02 -0.47279431131E+02  0.75946986505E+02  0.10000000000E+01 0.  0.
<mgrwt>
<rscale>  0 0.12501289E+03</rscale>
<asrwt>0</asrwt>
<pdfrwt beam="2">  1        4 0.14476310E-01 0.12501289E+03</pdfrwt>
<pdfrwt beam="1">  1       -4 0.63880014E-02 0.12501289E+03</pdfrwt>
<totfact> 0.10222090E+04</totfact>
</mgrwt>
</event>
<event>
 5    1  0.3327068E-002  0.1250010E+03  0.7818608E-02  0.1235068E+00
         -4   -1    0    0    0  501 -0.00000000000E+00  0.00000000000E+00  0.10059021210E+02  0.10138876057E+02  0.12700000000E+01 0. -1.
          4   -1    0    0  501    0  0.00000000000E+00 -0.00000000000E+00 -0.38672295863E+03  0.38672504397E+03  0.12700000000E+01 0. -1.
         25    2    1    2    0    0  0.00000000000E+00  0.00000000000E+00 -0.37666393742E+03  0.39686392002E+03  0.12500099705E+03 0.  0.
    9000005    1    3    3    0    0  0.25120834237E+02 -0.31087177816E+02 -0.35810384765E+02  0.53673574451E+02  0.10000000000E+01 0.  0.
    9000005    1    3    3    0    0 -0.25120834237E+02  0.31087177816E+02 -0.34085355265E+03  0.34319034557E+03  0.10000000000E+01 0.  0.
<mgrwt>
<rscale>  0 0.12500100E+03</rscale>
<asrwt>0</asrwt>
<pdfrwt beam="2">  1        4 0.59502132E-01 0.12500100E+03</pdfrwt>
<pdfrwt beam="1">  1       -4 0.15538451E-02 0.12500100E+03</pdfrwt>
<totfact> 0.64857525E+03</totfact>
</mgrwt>
</event>
<event>
 5    1  0.3327068E-002  0.1250009E+03  0.7818608E-02  0.1235068E+00
         -4   -1    0    0    0  501 -0.00000000000E+00  0.00000000000E+00  0.15905374111E+03  0.15905881133E+03  0.12700000000E+01 0. -1.
          4   -1    0    0  501    0  0.00000000000E+00 -0.00000000000E+00 -0.24537788604E+02  0.24570632259E+02  0.12700000000E+01 0. -1.
         25    2    1    2    0    0  0.00000000000E+00  0.00000000000E+00  0.13451595251E+03  0.18362944359E+03  0.12500092429E+03 0.  0.
    9000005    1    3    3    0    0  0.36240527870E+02 -0.50786352763E+02  0.62027282626E+02  0.87983028348E+02  0.10000000000E+01 0.  0.
    9000005    1    3    3    0    0 -0.36240527870E+02  0.50786352763E+02  0.72488669883E+02  0.95646415243E+02  0.10000000000E+01 0.  0.
<mgrwt>
<rscale>  0 0.12500092E+03</rscale>
<asrwt>0</asrwt>
<pdfrwt beam="2">  1        4 0.37779608E-02 0.12500092E+03</pdfrwt>
<pdfrwt beam="1">  1       -4 0.24472723E-01 0.12500092E+03</pdfrwt>
<totfact> 0.92965814E+03</totfact>
</mgrwt>
</event>
<event>
 5    1  0.3327068E-002  0.1250009E+03  0.7818608E-02  0.1235068E+00
          4   -1    0    0  501    0  0.00000000000E+00  0.00000000000E+00  0.31880638700E+03  0.31880891659E+03  0.12700000000E+01 0. -1.
         -4   -1    0    0    0  501 -0.00000000000E+00 -0.00000000000E+00 -0.12217418631E+02  0.12283249489E+02  0.12700000000E+01 0. -1.
         25    2    1    2    0    0  0.00000000000E+00  0.00000000000E+00  0.30658896837E+03  0.33109216607E+03  0.12500090763E+03 0.  0.
    9000005    1    3    3    0    0 -0.49270435887E+02  0.26537703613E+02  0.22695938510E+03  0.23375925233E+03  0.10000000000E+01 0.  0.
    9000005    1    3    3    0    0  0.49270435887E+02 -0.26537703613E+02  0.79629583275E+02  0.97332913745E+02  0.10000000000E+01 0.  0.
<mgrwt>
<rscale>  0 0.12500091E+03</rscale>
<asrwt>0</asrwt>
<pdfrwt beam="1">  1        4 0.49052380E-01 0.12500091E+03</pdfrwt>
<pdfrwt beam="2">  1       -4 0.18848619E-02 0.12500091E+03</pdfrwt>
<totfact> 0.71854559E+03</totfact>
</mgrwt>
</event>
<event>
 5    1  0.3327068E-002  0.1249912E+03  0.7818608E-02  0.1235083E+00
         -4   -1    0    0    0  501 -0.00000000000E+00  0.00000000000E+00  0.15709675604E+03  0.15710188942E+03  0.12700000000E+01 0.  1.
          4   -1    0    0  501    0  0.00000000000E+00 -0.00000000000E+00 -0.24839996664E+02  0.24872441260E+02  0.12700000000E+01 0.  1.
         25    2    1    2    0    0  0.00000000000E+00  0.00000000000E+00  0.13225675938E+03  0.18197433068E+03  0.12499122619E+03 0.  0.
    9000005    1    3    3    0    0 -0.19053967585E+02 -0.56740230889E+02  0.92261390233E+02  0.10998032374E+03  0.10000000000E+01 0.  0.
    9000005    1    3    3    0    0  0.19053967585E+02  0.56740230889E+02  0.39995369142E+02  0.71994006937E+02  0.10000000000E+01 0.  0.
<mgrwt>
<rscale>  0 0.12499123E+03</rscale>
<asrwt>0</asrwt>
<pdfrwt beam="2">  1        4 0.38244286E-02 0.12499123E+03</pdfrwt>
<pdfrwt beam="1">  1       -4 0.24171622E-01 0.12499123E+03</pdfrwt>
<totfact> 0.93281166E+03</totfact>
</mgrwt>
</event>
<event>
 5    1  0.3327068E-002  0.1250376E+03  0.7818608E-02  0.1235010E+00
         -4   -1    0    0    0  501 -0.00000000000E+00  0.00000000000E+00  0.58317698485E+02  0.58331525410E+02  0.12700000000E+01 0. -1.
          4   -1    0    0  501    0  0.00000000000E+00 -0.00000000000E+00 -0.66994790593E+02  0.67006827015E+02  0.12700000000E+01 0. -1.
         25    2    1    2    0    0  0.00000000000E+00  0.00000000000E+00 -0.86770921074E+01  0.12533835242E+03  0.12503763698E+03 0.  0.
    9000005    1    3    3    0    0 -0.62278522960E+02  0.76860974704E+00  0.10031988289E+01  0.62299370710E+02  0.10000000000E+01 0.  0.
    9000005    1    3    3    0    0  0.62278522960E+02 -0.76860974704E+00 -0.96802909363E+01  0.63038981714E+02  0.10000000000E+01 0.  0.
<mgrwt>
<rscale>  0 0.12503764E+03</rscale>
<asrwt>0</asrwt>
<pdfrwt beam="2">  1        4 0.10308880E-01 0.12503764E+03</pdfrwt>
<pdfrwt beam="1">  1       -4 0.89739431E-02 0.12503764E+03</pdfrwt>
<totfact> 0.10436638E+04</totfact>
</mgrwt>
</event>
<event>
 5    1  0.3327068E-002  0.1250009E+03  0.7818608E-02  0.1235068E+00
         -4   -1    0    0    0  501 -0.00000000000E+00  0.00000000000E+00  0.15577875820E+03  0.15578393501E+03  0.12700000000E+01 0.  1.
          4   -1    0    0  501    0  0.00000000000E+00 -0.00000000000E+00 -0.25054307122E+02  0.25086474551E+02  0.12700000000E+01 0.  1.
         25    2    1    2    0    0  0.00000000000E+00  0.00000000000E+00  0.13072445108E+03  0.18087040956E+03  0.12500089177E+03 0.  0.
    9000005    1    3    3    0    0  0.26519932328E+02 -0.50767505810E+02  0.10152618789E+03  0.11657278106E+03  0.10000000000E+01 0.  0.
    9000005    1    3    3    0    0 -0.26519932328E+02  0.50767505810E+02  0.29198263184E+02  0.64297628494E+02  0.10000000000E+01 0.  0.
<mgrwt>
<rscale>  0 0.12500089E+03</rscale>
<asrwt>0</asrwt>
<pdfrwt beam="2">  1        4 0.38573814E-02 0.12500089E+03</pdfrwt>
<pdfrwt beam="1">  1       -4 0.23968835E-01 0.12500089E+03</pdfrwt>
<totfact> 0.93458692E+03</totfact>
</mgrwt>
</event>
<event>
 5    1  0.3327068E-002  0.1250035E+03  0.7818608E-02  0.1235064E+00
          4   -1    0    0  501    0  0.00000000000E+00  0.00000000000E+00  0.92178852514E+03  0.92178940002E+03  0.12700000000E+01 0. -1.
         -4   -1    0    0    0  501 -0.00000000000E+00 -0.00000000000E+00 -0.41418787265E+01  0.43322118352E+01  0.12700000000E+01 0. -1.
         25    2    1    2    0    0  0.00000000000E+00  0.00000000000E+00  0.91764664642E+03  0.92612161185E+03  0.12500348900E+03 0.  0.
    9000005    1    3    3    0    0 -0.29006614364E+01  0.64079464875E+01  0.91888278981E+03  0.91891025515E+03  0.10000000000E+01 0.  0.
    9000005    1    3    3    0    0  0.29006614364E+01 -0.64079464875E+01 -0.12361433948E+01  0.72113566996E+01  0.10000000000E+01 0.  0.
<mgrwt>
<rscale>  0 0.12500349E+03</rscale>
<asrwt>0</asrwt>
<pdfrwt beam="1">  1        4 0.14182828E+00 0.12500349E+03</pdfrwt>
<pdfrwt beam="2">  1       -4 0.65192066E-03 0.12500349E+03</pdfrwt>
<totfact> 0.33176685E+03</totfact>
</mgrwt>
</event>
<event>
 5    1  0.3327068E-002  0.1249982E+03  0.7818608E-02  0.1235072E+00
         -4   -1    0    0    0  501 -0.00000000000E+00  0.00000000000E+00  0.98544647184E+02  0.98552830445E+02  0.12700000000E+01 0. -1.
          4   -1    0    0  501    0  0.00000000000E+00 -0.00000000000E+00 -0.39618232471E+02  0.39638582772E+02  0.12700000000E+01 0. -1.
         25    2    1    2    0    0  0.00000000000E+00  0.00000000000E+00  0.58926414713E+02  0.13819141322E+03  0.12499817733E+03 0.  0.
    9000005    1    3    3    0    0 -0.13206755439E+02  0.50067847702E+02  0.68140437972E+02  0.85588124467E+02  0.10000000000E+01 0.  0.
    9000005    1    3    3    0    0  0.13206755439E+02 -0.50067847702E+02 -0.92140232589E+01  0.52603288750E+02  0.10000000000E+01 0.  0.
<mgrwt>
<rscale>  0 0.12499818E+03</rscale>
<asrwt>0</asrwt>
<pdfrwt beam="2">  1        4 0.60973076E-02 0.12499818E+03</pdfrwt>
<pdfrwt beam="1">  1       -4 0.15162910E-01 0.12499818E+03</pdfrwt>
<totfact> 0.10171626E+04</totfact>
</mgrwt>
</event>
<event>
 5    1  0.3327068E-002  0.1249988E+03  0.7818608E-02  0.1235071E+00
         -4   -1    0    0    0  501 -0.00000000000E+00  0.00000000000E+00  0.19315629665E+03  0.19316047172E+03  0.12700000000E+01 0.  1.
          4   -1    0    0  501    0  0.00000000000E+00 -0.00000000000E+00 -0.20198539926E+02  0.20238426697E+02  0.12700000000E+01 0.  1.
         25    2    1    2    0    0  0.00000000000E+00  0.00000000000E+00  0.17295775672E+03  0.21339889842E+03  0.12499881693E+03 0.  0.
    9000005    1    3    3    0    0  0.84323799353E+01  0.58077461867E+02  0.49820423633E+02  0.76988123884E+02  0.10000000000E+01 0.  0.
    9000005    1    3    3    0    0 -0.84323799353E+01 -0.58077461867E+02  0.12313733309E+03  0.13641077453E+03  0.10000000000E+01 0.  0.
<mgrwt>
<rscale>  0 0.12499882E+03</rscale>
<asrwt>0</asrwt>
<pdfrwt beam="2">  1        4 0.31108570E-02 0.12499882E+03</pdfrwt>
<pdfrwt beam="1">  1       -4 0.29719743E-01 0.12499882E+03</pdfrwt>
<totfact> 0.87926111E+03</totfact>
</mgrwt>
</event>
<event>
 5    1  0.3327068E-002  0.1250025E+03  0.7818608E-02  0.1235065E+00
          4   -1    0    0  501    0  0.00000000000E+00  0.00000000000E+00  0.19968740525E+02  0.20009085390E+02  0.12700000000E+01 0.  1.
         -4   -1    0    0    0  501 -0.00000000000E+00 -0.00000000000E+00 -0.19538633404E+03  0.19539046146E+03  0.12700000000E+01 0.  1.
         25    2    1    2    0    0  0.00000000000E+00  0.00000000000E+00 -0.17541759352E+03  0.21539954685E+03  0.12500253065E+03 0.  0.
    9000005    1    3    3    0    0  0.43593177132E+02  0.19869950484E+02 -0.18562378897E+02  0.51388149753E+02  0.10000000000E+01 0.  0.
    9000005    1    3    3    0    0 -0.43593177132E+02 -0.19869950484E+02 -0.15685521462E+03  0.16401139710E+03  0.10000000000E+01 0.  0.
<mgrwt>
<rscale>  0 0.12500253E+03</rscale>
<asrwt>0</asrwt>
<pdfrwt beam="1">  1        4 0.30755350E-02 0.12500253E+03</pdfrwt>
<pdfrwt beam="2">  1       -4 0.30062856E-01 0.12500253E+03</pdfrwt>
<totfact> 0.87596634E+03</totfact>
</mgrwt>
</event>
<event>
 5    1  0.3327068E-002  0.1249999E+03  0.7818608E-02  0.1235069E+00
          4   -1    0    0  501    0  0.00000000000E+00  0.00000000000E+00  0.76373382499E+02  0.76383941076E+02  0.12700000000E+01 0.  1.
         -4   -1    0    0    0  501 -0.00000000000E+00 -0.00000000000E+00 -0.51124699611E+02  0.51140471354E+02  0.12700000000E+01 0.  1.
         25    2    1    2    0    0  0.00000000000E+00  0.00000000000E+00  0.25248682887E+02  0.12752441243E+03  0.12499991911E+03 0.  0.
    9000005    1    3    3    0    0  0.55531334706E+02 -0.20287462285E+01  0.41791956230E+02  0.69537130736E+02  0.10000000000E+01 0.  0.
    9000005    1    3    3    0    0 -0.55531334706E+02  0.20287462285E+01 -0.16543273342E+02  0.57987281695E+02  0.10000000000E+01 0.  0.
<mgrwt>
<rscale>  0 0.12499992E+03</rscale>
<asrwt>0</asrwt>
<pdfrwt beam="1">  1        4 0.11751776E-01 0.12499992E+03</pdfrwt>
<pdfrwt beam="2">  1       -4 0.78673639E-02 0.12499992E+03</pdfrwt>
<totfact> 0.10397791E+04</totfact>
</mgrwt>
</event>
<event>
 5    1  0.3327068E-002  0.1249946E+03  0.7818608E-02  0.1235078E+00
          4   -1    0    0  501    0  0.00000000000E+00  0.00000000000E+00  0.36694385178E+02  0.36716356077E+02  0.12700000000E+01 0. -1.
         -4   -1    0    0    0  501 -0.00000000000E+00 -0.00000000000E+00 -0.10638678203E+03  0.10639436212E+03  0.12700000000E+01 0. -1.
         25    2    1    2    0    0  0.00000000000E+00  0.00000000000E+00 -0.69692396851E+02  0.14311071819E+03  0.12499458982E+03 0.  0.
    9000005    1    3    3    0    0  0.27209597239E+02  0.18281630423E+02 -0.95757742897E+02  0.10121820744E+03  0.10000000000E+01 0.  0.
    9000005    1    3    3    0    0 -0.27209597239E+02 -0.18281630423E+02  0.26065346045E+02  0.41892510754E+02  0.10000000000E+01 0.  0.
<mgrwt>
<rscale>  0 0.12499459E+03</rscale>
<asrwt>0</asrwt>
<pdfrwt beam="1">  1        4 0.56475632E-02 0.12499459E+03</pdfrwt>
<pdfrwt beam="2">  1       -4 0.16369470E-01 0.12499459E+03</pdfrwt>
<totfact> 0.10070744E+04</totfact>
</mgrwt>
</event>
<event>
 5    1  0.3327068E-002  0.1250261E+03  0.7818608E-02  0.1235028E+00
          4   -1    0    0  501    0  0.00000000000E+00  0.00000000000E+00  0.48280318511E+02  0.48297019117E+02  0.12700000000E+01 0. -1.
         -4   -1    0    0    0  501 -0.00000000000E+00 -0.00000000000E+00 -0.80905882698E+02  0.80915849839E+02  0.12700000000E+01 0. -1.
         25    2    1    2    0    0  0.00000000000E+00  0.00000000000E+00 -0.32625564187E+02  0.12921286896E+03  0.12502614953E+03 0.  0.
    9000005    1    3    3    0    0 -0.51960979221E+02 -0.33828206290E+02 -0.81362352997E+01  0.62541899773E+02  0.10000000000E+01 0.  0.
    9000005    1    3    3    0    0  0.51960979221E+02  0.33828206290E+02 -0.24489328887E+02  0.66670969182E+02  0.10000000000E+01 0.  0.
<mgrwt>
<rscale>  0 0.12502615E+03</rscale>
<asrwt>0</asrwt>
<pdfrwt beam="1">  1        4 0.74297926E-02 0.12502615E+03</pdfrwt>
<pdfrwt beam="2">  1       -4 0.12449110E-01 0.12502615E+03</pdfrwt>
<totfact> 0.10355261E+04</totfact>
</mgrwt>
</event>
<event>
 5    1  0.3327068E-002  0.1250010E+03  0.7818608E-02  0.1235068E+00
         -4   -1    0    0    0  501 -0.00000000000E+00  0.00000000000E+00  0.59430455905E+02  0.59444023998E+02  0.12700000000E+01 0. -1.
          4   -1    0    0  501    0  0.00000000000E+00 -0.00000000000E+00 -0.65701975794E+02  0.65714249012E+02  0.12700000000E+01 0. -1.
         25    2    1    2    0    0  0.00000000000E+00  0.00000000000E+00 -0.62715198887E+01  0.12515827301E+03  0.12500104536E+03 0.  0.
    9000005    1    3    3    0    0  0.39787610390E+02 -0.17515887170E+02  0.41814528174E+02  0.60326735452E+02  0.10000000000E+01 0.  0.
    9000005    1    3    3    0    0 -0.39787610390E+02  0.17515887170E+02 -0.48086048062E+02  0.64831537558E+02  0.10000000000E+01 0.  0.
<mgrwt>
<rscale>  0 0.12500105E+03</rscale>
<asrwt>0</asrwt>
<pdfrwt beam="2">  1        4 0.10109984E-01 0.12500105E+03</pdfrwt>
<pdfrwt beam="1">  1       -4 0.91451348E-02 0.12500105E+03</pdfrwt>
<totfact> 0.10449179E+04</totfact>
</mgrwt>
</event>
<event>
 5    1  0.3327068E-002  0.1250006E+03  0.7818608E-02  0.1235068E+00
          4   -1    0    0  501    0  0.00000000000E+00  0.00000000000E+00  0.35426954722E+03  0.35427182358E+03  0.12700000000E+01 0. -1.
         -4   -1    0    0    0  501 -0.00000000000E+00 -0.00000000000E+00 -0.10987424079E+02  0.11060578100E+02  0.12700000000E+01 0. -1.
         25    2    1    2    0    0  0.00000000000E+00  0.00000000000E+00  0.34328212314E+03  0.36533240168E+03  0.12500059061E+03 0.  0.
    9000005    1    3    3    0    0  0.27574314506E+02  0.27641350372E+02  0.29032141848E+02  0.48664692860E+02  0.10000000000E+01 0.  0.
    9000005    1    3    3    0    0 -0.27574314506E+02 -0.27641350372E+02  0.31424998129E+03  0.31666770882E+03  0.10000000000E+01 0.  0.
<mgrwt>
<rscale>  0 0.12500059E+03</rscale>
<asrwt>0</asrwt>
<pdfrwt beam="1">  1        4 0.54508815E-01 0.12500059E+03</pdfrwt>
<pdfrwt beam="2">  1       -4 0.16961751E-02 0.12500059E+03</pdfrwt>
<totfact> 0.68069204E+03</totfact>
</mgrwt>
</event>
<event>
 5    1  0.3327068E-002  0.1249953E+03  0.7818608E-02  0.1235077E+00
         -4   -1    0    0    0  501 -0.00000000000E+00  0.00000000000E+00  0.43956712989E+03  0.43956896454E+03  0.12700000000E+01 0. -1.
          4   -1    0    0  501    0  0.00000000000E+00 -0.00000000000E+00 -0.88386762557E+01  0.89294511564E+01  0.12700000000E+01 0. -1.
         25    2    1    2    0    0  0.00000000000E+00  0.00000000000E+00  0.43072845364E+03  0.44849841569E+03  0.12499531233E+03 0.  0.
    9000005    1    3    3    0    0  0.59035686815E+02 -0.71291299872E+01  0.14644610820E+03  0.15806169498E+03  0.10000000000E+01 0.  0.
    9000005    1    3    3    0    0 -0.59035686815E+02  0.71291299872E+01  0.28428234543E+03  0.29043672071E+03  0.10000000000E+01 0.  0.
<mgrwt>
<rscale>  0 0.12499531E+03</rscale>
<asrwt>0</asrwt>
<pdfrwt beam="2">  1        4 0.13669204E-02 0.12499531E+03</pdfrwt>
<pdfrwt beam="1">  1       -4 0.67632826E-01 0.12499531E+03</pdfrwt>
<totfact> 0.60100307E+03</totfact>
</mgrwt>
</event>
<event>
 5    1  0.3327068E-002  0.1249999E+03  0.7818608E-02  0.1235069E+00
          4   -1    0    0  501    0  0.00000000000E+00  0.00000000000E+00  0.57114998817E+01  0.58509940094E+01  0.12700000000E+01 0. -1.
         -4   -1    0    0    0  501 -0.00000000000E+00 -0.00000000000E+00 -0.67553502960E+03  0.67553622339E+03  0.12700000000E+01 0. -1.
         25    2    1    2    0    0  0.00000000000E+00  0.00000000000E+00 -0.66982352972E+03  0.68138721740E+03  0.12499991630E+03 0.  0.
    9000005    1    3    3    0    0 -0.46909997631E+02  0.40279892023E+02 -0.28548160856E+03  0.29210232181E+03  0.10000000000E+01 0.  0.
    9000005    1    3    3    0    0  0.46909997631E+02 -0.40279892023E+02 -0.38434192116E+03  0.38928489559E+03  0.10000000000E+01 0.  0.
<mgrwt>
<rscale>  0 0.12499992E+03</rscale>
<asrwt>0</asrwt>
<pdfrwt beam="1">  1        4 0.88951497E-03 0.12499992E+03</pdfrwt>
<pdfrwt beam="2">  1       -4 0.10393923E+00 0.12499992E+03</pdfrwt>
<totfact> 0.44087725E+03</totfact>
</mgrwt>
</event>
<event>
 5    1  0.3327068E-002  0.1250001E+03  0.7818608E-02  0.1235069E+00
          4   -1    0    0  501    0  0.00000000000E+00  0.00000000000E+00  0.24910770138E+03  0.24911093872E+03  0.12700000000E+01 0.  1.
         -4   -1    0    0    0  501 -0.00000000000E+00 -0.00000000000E+00 -0.15651937946E+02  0.15703377390E+02  0.12700000000E+01 0.  1.
         25    2    1    2    0    0  0.00000000000E+00  0.00000000000E+00  0.23345576344E+03  0.26481431611E+03  0.12500011413E+03 0.  0.
    9000005    1    3    3    0    0  0.20594260301E+02  0.57094032850E+02  0.85205084262E+02  0.10461719997E+03  0.10000000000E+01 0.  0.
    9000005    1    3    3    0    0 -0.20594260301E+02 -0.57094032850E+02  0.14825067917E+03  0.16019711614E+03  0.10000000000E+01 0.  0.
<mgrwt>
<rscale>  0 0.12500011E+03</rscale>
<asrwt>0</asrwt>
<pdfrwt beam="1">  1        4 0.38328468E-01 0.12500011E+03</pdfrwt>
<pdfrwt beam="2">  1       -4 0.24121963E-02 0.12500011E+03</pdfrwt>
<totfact> 0.80234946E+03</totfact>
</mgrwt>
</event>
<event>
 5    1  0.3327068E-002  0.1249996E+03  0.7818608E-02  0.1235070E+00
          4   -1    0    0  501    0  0.00000000000E+00  0.00000000000E+00  0.10127576961E+03  0.10128373221E+03  0.12700000000E+01 0.  1.
         -4   -1    0    0    0  501 -0.00000000000E+00 -0.00000000000E+00 -0.38550241333E+02  0.38571155114E+02  0.12700000000E+01 0.  1.
         25    2    1    2    0    0  0.00000000000E+00  0.00000000000E+00  0.62725528279E+02  0.13985488732E+03  0.12499959044E+03 0.  0.
    9000005    1    3    3    0    0  0.25888013926E+02  0.26138406176E+02 -0.25156172079E+02  0.44578453720E+02  0.10000000000E+01 0.  0.
    9000005    1    3    3    0    0 -0.25888013926E+02 -0.26138406176E+02  0.87881700358E+02  0.95276433604E+02  0.10000000000E+01 0.  0.
<mgrwt>
<rscale>  0 0.12499959E+03</rscale>
<asrwt>0</asrwt>
<pdfrwt beam="1">  1        4 0.15583109E-01 0.12499959E+03</pdfrwt>
<pdfrwt beam="2">  1       -4 0.59330276E-02 0.12499959E+03</pdfrwt>
<totfact> 0.10136688E+04</totfact>
</mgrwt>
</event>
<event>
 5    1  0.3327068E-002  0.1250033E+03  0.7818608E-02  0.1235064E+00
          4   -1    0    0  501    0  0.00000000000E+00  0.00000000000E+00  0.12585487431E+02  0.12649402906E+02  0.12700000000E+01 0.  1.
         -4   -1    0    0    0  501 -0.00000000000E+00 -0.00000000000E+00 -0.30954221817E+03  0.30954482345E+03  0.12700000000E+01 0.  1.
         25    2    1    2    0    0  0.00000000000E+00  0.00000000000E+00 -0.29695673074E+03  0.32219422636E+03  0.12500327824E+03 0.  0.
    9000005    1    3    3    0    0 -0.14963845583E+02  0.11830308574E+02 -0.30186764327E+03  0.30247139853E+03  0.10000000000E+01 0.  0.
    9000005    1    3    3    0    0  0.14963845583E+02 -0.11830308574E+02  0.49109125365E+01  0.19722827828E+02  0.10000000000E+01 0.  0.
<mgrwt>
<rscale>  0 0.12500328E+03</rscale>
<asrwt>0</asrwt>
<pdfrwt beam="1">  1        4 0.19413460E-02 0.12500328E+03</pdfrwt>
<pdfrwt beam="2">  1       -4 0.47626991E-01 0.12500328E+03</pdfrwt>
<totfact> 0.72890615E+03</totfact>
</mgrwt>
</event>
<event>
 5    1  0.3327068E-002  0.1250015E+03  0.7818608E-02  0.1235067E+00
          4   -1    0    0  501    0  0.00000000000E+00  0.00000000000E+00  0.28805717618E+02  0.28833700205E+02  0.12700000000E+01 0.  1.
         -4   -1    0    0    0  501 -0.00000000000E+00 -0.00000000000E+00 -0.13551330524E+03  0.13551925619E+03  0.12700000000E+01 0.  1.
         25    2    1    2    0    0  0.00000000000E+00  0.00000000000E+00 -0.10670758762E+03  0.16435295639E+03  0.12500154006E+03 0.  0.
    9000005    1    3    3    0    0  0.61076685231E+02 -0.41213290619E+01 -0.36826950610E+02  0.71446281382E+02  0.10000000000E+01 0.  0.
    9000005    1    3    3    0    0 -0.61076685231E+02  0.41213290619E+01 -0.69880637011E+02  0.92906675008E+02  0.10000000000E+01 0.  0.
<mgrwt>
<rscale>  0 0.12500154E+03</rscale>
<asrwt>0</asrwt>
<pdfrwt beam="1">  1        4 0.44342592E-02 0.12500154E+03</pdfrwt>
<pdfrwt beam="2">  1       -4 0.20850811E-01 0.12500154E+03</pdfrwt>
<totfact> 0.96506733E+03</totfact>
</mgrwt>
</event>
<event>
 5    1  0.3327068E-002  0.1250019E+03  0.7818608E-02  0.1235066E+00
          4   -1    0    0  501    0  0.00000000000E+00  0.00000000000E+00  0.15058563453E+03  0.15059098986E+03  0.12700000000E+01 0.  1.
         -4   -1    0    0    0  501 -0.00000000000E+00 -0.00000000000E+00 -0.25919799556E+02  0.25950894186E+02  0.12700000000E+01 0.  1.
         25    2    1    2    0    0  0.00000000000E+00  0.00000000000E+00  0.12466583498E+03  0.17654188405E+03  0.12500186564E+03 0.  0.
    9000005    1    3    3    0    0  0.32205584644E+02  0.10074465847E+02  0.13661945292E+03  0.14072870873E+03  0.10000000000E+01 0.  0.
    9000005    1    3    3    0    0 -0.32205584644E+02 -0.10074465847E+02 -0.11953617945E+02  0.35813175317E+02  0.10000000000E+01 0.  0.
<mgrwt>
<rscale>  0 0.12500187E+03</rscale>
<asrwt>0</asrwt>
<pdfrwt beam="1">  1        4 0.23169825E-01 0.12500187E+03</pdfrwt>
<pdfrwt beam="2">  1       -4 0.39904652E-02 0.12500187E+03</pdfrwt>
<totfact> 0.94239260E+03</totfact>
</mgrwt>
</event>
<event>
 5    1  0.3327068E-002  0.1250005E+03  0.7818608E-02  0.1235069E+00
         -4   -1    0    0    0  501 -0.00000000000E+00  0.00000000000E+00  0.19705709499E+03  0.19706118742E+03  0.12700000000E+01 0.  1.
          4   -1    0    0  501    0  0.00000000000E+00 -0.00000000000E+00 -0.19798438357E+02  0.19839129552E+02  0.12700000000E+01 0.  1.
         25    2    1    2    0    0  0.00000000000E+00  0.00000000000E+00  0.17725865664E+03  0.21690031697E+03  0.12500046460E+03 0.  0.
    9000005    1    3    3    0    0  0.35508960128E+02  0.18729198430E+02  0.17173072789E+03  0.17636357907E+03  0.10000000000E+01 0.  0.
    9000005    1    3    3    0    0 -0.35508960128E+02 -0.18729198430E+02  0.55279287504E+01  0.40536737899E+02  0.10000000000E+01 0.  0.
<mgrwt>
<rscale>  0 0.12500046E+03</rscale>
<asrwt>0</asrwt>
<pdfrwt beam="2">  1        4 0.30493585E-02 0.12500046E+03</pdfrwt>
<pdfrwt beam="1">  1       -4 0.30319921E-01 0.12500046E+03</pdfrwt>
<totfact> 0.87360315E+03</totfact>
</mgrwt>
</event>
<event>
 5    1  0.3327068E-002  0.1249999E+03  0.7818608E-02  0.1235070E+00
          4   -1    0    0  501    0  0.00000000000E+00  0.00000000000E+00  0.12329275878E+03  0.12329929954E+03  0.12700000000E+01 0. -1.
         -4   -1    0    0    0  501 -0.00000000000E+00 -0.00000000000E+00 -0.31662534333E+02  0.31687994263E+02  0.12700000000E+01 0. -1.
         25    2    1    2    0    0  0.00000000000E+00  0.00000000000E+00  0.91630224445E+02  0.15498729380E+03  0.12499985283E+03 0.  0.
    9000005    1    3    3    0    0 -0.12152532558E+02 -0.55766924665E+02  0.77368232756E+02  0.96148205256E+02  0.10000000000E+01 0.  0.
    9000005    1    3    3    0    0  0.12152532558E+02  0.55766924665E+02  0.14261991689E+02  0.58839088547E+02  0.10000000000E+01 0.  0.
<mgrwt>
<rscale>  0 0.12499985E+03</rscale>
<asrwt>0</asrwt>
<pdfrwt beam="1">  1        4 0.18970578E-01 0.12499985E+03</pdfrwt>
<pdfrwt beam="2">  1       -4 0.48736208E-02 0.12499985E+03</pdfrwt>
<totfact> 0.98318319E+03</totfact>
</mgrwt>
</event>
<event>
 5    1  0.3327068E-002  0.1250032E+03  0.7818608E-02  0.1235064E+00
         -4   -1    0    0    0  501 -0.00000000000E+00  0.00000000000E+00  0.39803056822E+03  0.39803259432E+03  0.12700000000E+01 0. -1.
          4   -1    0    0  501    0  0.00000000000E+00 -0.00000000000E+00 -0.97713014632E+01  0.98534883308E+01  0.12700000000E+01 0. -1.
         25    2    1    2    0    0  0.00000000000E+00  0.00000000000E+00  0.38825926676E+03  0.40788608265E+03  0.12500319274E+03 0.  0.
    9000005    1    3    3    0    0 -0.59281471028E+02 -0.18170585181E+02  0.16864755159E+03  0.17968711593E+03  0.10000000000E+01 0.  0.
    9000005    1    3    3    0    0  0.59281471028E+02  0.18170585181E+02  0.21961171517E+03  0.22819896672E+03  0.10000000000E+01 0.  0.
<mgrwt>
<rscale>  0 0.12500319E+03</rscale>
<asrwt>0</asrwt>
<pdfrwt beam="2">  1        4 0.15097547E-02 0.12500319E+03</pdfrwt>
<pdfrwt beam="1">  1       -4 0.61241963E-01 0.12500319E+03</pdfrwt>
<totfact> 0.63788453E+03</totfact>
</mgrwt>
</event>
<event>
 5    1  0.3327068E-002  0.1250076E+03  0.7818608E-02  0.1235057E+00
         -4   -1    0    0    0  501 -0.00000000000E+00  0.00000000000E+00  0.20350935355E+03  0.20351331622E+03  0.12700000000E+01 0.  1.
          4   -1    0    0  501    0  0.00000000000E+00 -0.00000000000E+00 -0.19171620520E+02  0.19213639254E+02  0.12700000000E+01 0.  1.
         25    2    1    2    0    0  0.00000000000E+00  0.00000000000E+00  0.18433773303E+03  0.22272695548E+03  0.12500758729E+03 0.  0.
    9000005    1    3    3    0    0 -0.94891228706E+01 -0.61206265586E+02  0.10701956898E+03  0.12365451284E+03  0.10000000000E+01 0.  0.
    9000005    1    3    3    0    0  0.94891228706E+01  0.61206265586E+02  0.77318164044E+02  0.99072442642E+02  0.10000000000E+01 0.  0.
<mgrwt>
<rscale>  0 0.12500759E+03</rscale>
<asrwt>0</asrwt>
<pdfrwt beam="2">  1        4 0.29530172E-02 0.12500759E+03</pdfrwt>
<pdfrwt beam="1">  1       -4 0.31312667E-01 0.12500759E+03</pdfrwt>
<totfact> 0.86424032E+03</totfact>
</mgrwt>
</event>
<event>
 5    1  0.3327068E-002  0.1250014E+03  0.7818608E-02  0.1235067E+00
         -4   -1    0    0    0  501 -0.00000000000E+00  0.00000000000E+00  0.13950241123E+03  0.13950819201E+03  0.12700000000E+01 0.  1.
          4   -1    0    0  501    0  0.00000000000E+00 -0.00000000000E+00 -0.27981159290E+02  0.28009965641E+02  0.12700000000E+01 0.  1.
         25    2    1    2    0    0  0.00000000000E+00  0.00000000000E+00  0.11152125194E+03  0.16751815765E+03  0.12500137403E+03 0.  0.
    9000005    1    3    3    0    0  0.24114054449E+02 -0.52126699249E+02  0.22752705519E+02  0.61784836368E+02  0.10000000000E+01 0.  0.
    9000005    1    3    3    0    0 -0.24114054449E+02  0.52126699249E+02  0.88768546419E+02  0.10573332128E+03  0.10000000000E+01 0.  0.
<mgrwt>
<rscale>  0 0.12500137E+03</rscale>
<asrwt>0</asrwt>
<pdfrwt beam="2">  1        4 0.43074543E-02 0.12500137E+03</pdfrwt>
<pdfrwt beam="1">  1       -4 0.21464570E-01 0.12500137E+03</pdfrwt>
<totfact> 0.95909648E+03</totfact>
</mgrwt>
</event>
<event>
 5    1  0.3327068E-002  0.1249949E+03  0.7818608E-02  0.1235077E+00
         -4   -1    0    0    0  501 -0.00000000000E+00  0.00000000000E+00  0.34726341655E+02  0.34749556900E+02  0.12700000000E+01 0. -1.
          4   -1    0    0  501    0  0.00000000000E+00 -0.00000000000E+00 -0.11241302795E+03  0.11242020171E+03  0.12700000000E+01 0. -1.
         25    2    1    2    0    0  0.00000000000E+00  0.00000000000E+00 -0.77686686292E+02  0.14716975861E+03  0.12499486638E+03 0.  0.
    9000005    1    3    3    0    0 -0.23591494047E+02 -0.12405317186E+02  0.27703337422E+02  0.38456799011E+02  0.10000000000E+01 0.  0.
    9000005    1    3    3    0    0  0.23591494047E+02  0.12405317186E+02 -0.10539002371E+03  0.10871295960E+03  0.10000000000E+01 0.  0.
<mgrwt>
<rscale>  0 0.12499487E+03</rscale>
<asrwt>0</asrwt>
<pdfrwt beam="2">  1        4 0.17296649E-01 0.12499487E+03</pdfrwt>
<pdfrwt beam="1">  1       -4 0.53448518E-02 0.12499487E+03</pdfrwt>
<totfact> 0.99882429E+03</totfact>
</mgrwt>
</event>
<event>
 5    1  0.3327068E-002  0.1249955E+03  0.7818608E-02  0.1235076E+00
          4   -1    0    0  501    0  0.00000000000E+00  0.00000000000E+00  0.84564570894E+02  0.84574106856E+02  0.12700000000E+01 0. -1.
         -4   -1    0    0    0  501 -0.00000000000E+00 -0.00000000000E+00 -0.46168350899E+02  0.46185815190E+02  0.12700000000E+01 0. -1.
         25    2    1    2    0    0  0.00000000000E+00  0.00000000000E+00  0.38396219994E+02  0.13075992205E+03  0.12499554994E+03 0.  0.
    9000005    1    3    3    0    0 -0.27119414533E+02 -0.12978489691E+02 -0.38110255501E+02  0.48551986711E+02  0.10000000000E+01 0.  0.
    9000005    1    3    3    0    0  0.27119414533E+02  0.12978489691E+02  0.76506475495E+02  0.82207935334E+02  0.10000000000E+01 0.  0.
<mgrwt>
<rscale>  0 0.12499555E+03</rscale>
<asrwt>0</asrwt>
<pdfrwt beam="1">  1        4 0.13012011E-01 0.12499555E+03</pdfrwt>
<pdfrwt beam="2">  1       -4 0.71049003E-02 0.12499555E+03</pdfrwt>
<totfact> 0.10329276E+04</totfact>
</mgrwt>
</event>
<event>
 5    1  0.3327068E-002  0.1249995E+03  0.7818608E-02  0.1235070E+00
          4   -1    0    0  501    0  0.00000000000E+00  0.00000000000E+00  0.98967293571E+02  0.98975441887E+02  0.12700000000E+01 0. -1.
         -4   -1    0    0    0  501 -0.00000000000E+00 -0.00000000000E+00 -0.39449778620E+02  0.39470215773E+02  0.12700000000E+01 0. -1.
         25    2    1    2    0    0  0.00000000000E+00  0.00000000000E+00  0.59517514952E+02  0.13844565766E+03  0.12499946215E+03 0.  0.
    9000005    1    3    3    0    0 -0.89985164877E+01  0.41589943720E+02 -0.20930206597E+02  0.47431743229E+02  0.10000000000E+01 0.  0.
    9000005    1    3    3    0    0  0.89985164877E+01 -0.41589943720E+02  0.80447721549E+02  0.91013914431E+02  0.10000000000E+01 0.  0.
<mgrwt>
<rscale>  0 0.12499946E+03</rscale>
<asrwt>0</asrwt>
<pdfrwt beam="1">  1        4 0.15227936E-01 0.12499946E+03</pdfrwt>
<pdfrwt beam="2">  1       -4 0.60713957E-02 0.12499946E+03</pdfrwt>
<totfact> 0.10166026E+04</totfact>
</mgrwt>
</event>
<event>
 5    1  0.3327068E-002  0.1249957E+03  0.7818608E-02  0.1235076E+00
         -4   -1    0    0    0  501 -0.00000000000E+00  0.00000000000E+00  0.32896035672E+02  0.32920541656E+02  0.12700000000E+01 0. -1.
          4   -1    0    0  501    0  0.00000000000E+00 -0.00000000000E+00 -0.11866508374E+03  0.11867187956E+03  0.12700000000E+01 0. -1.
         25    2    1    2    0    0  0.00000000000E+00  0.00000000000E+00 -0.85769048069E+02  0.15159242122E+03  0.12499573018E+03 0.  0.
    9000005    1    3    3    0    0  0.21136287122E+02  0.57638328811E+02 -0.28737886506E+02  0.67792224497E+02  0.10000000000E+01 0.  0.
    9000005    1    3    3    0    0 -0.21136287122E+02 -0.57638328811E+02 -0.57031161563E+02  0.83800196722E+02  0.10000000000E+01 0.  0.
<mgrwt>
<rscale>  0 0.12499573E+03</rscale>
<asrwt>0</asrwt>
<pdfrwt beam="2">  1        4 0.18258574E-01 0.12499573E+03</pdfrwt>
<pdfrwt beam="1">  1       -4 0.50633365E-02 0.12499573E+03</pdfrwt>
<totfact> 0.98996726E+03</totfact>
</mgrwt>
</event>
<event>
 5    1  0.3327068E-002  0.1250009E+03  0.7818608E-02  0.1235068E+00
          4   -1    0    0  501    0  0.00000000000E+00  0.00000000000E+00  0.44192453524E+02  0.44210698349E+02  0.12700000000E+01 0. -1.
         -4   -1    0    0    0  501 -0.00000000000E+00 -0.00000000000E+00 -0.88352027871E+02  0.88361155091E+02  0.12700000000E+01 0. -1.
         25    2    1    2    0    0  0.00000000000E+00  0.00000000000E+00 -0.44159574347E+02  0.13257185344E+03  0.12500091327E+03 0.  0.
    9000005    1    3    3    0    0  0.92032331311E+01  0.16101916758E+02  0.41211599102E+02  0.45203618482E+02  0.10000000000E+01 0.  0.
    9000005    1    3    3    0    0 -0.92032331311E+01 -0.16101916758E+02 -0.85371173450E+02  0.87368234957E+02  0.10000000000E+01 0.  0.
<mgrwt>
<rscale>  0 0.12500091E+03</rscale>
<asrwt>0</asrwt>
<pdfrwt beam="1">  1        4 0.68009446E-02 0.12500091E+03</pdfrwt>
<pdfrwt beam="2">  1       -4 0.13594725E-01 0.12500091E+03</pdfrwt>
<totfact> 0.10289296E+04</totfact>
</mgrwt>
</event>
<event>
 5    1  0.3327068E-002  0.1249949E+03  0.7818608E-02  0.1235077E+00
          4   -1    0    0  501    0  0.00000000000E+00  0.00000000000E+00  0.19527073657E+03  0.19527486643E+03  0.12700000000E+01 0. -1.
         -4   -1    0    0    0  501 -0.00000000000E+00 -0.00000000000E+00 -0.19978130356E+02  0.20018456297E+02  0.12700000000E+01 0. -1.
         25    2    1    2    0    0  0.00000000000E+00  0.00000000000E+00  0.17529260622E+03  0.21529332273E+03  0.12499486797E+03 0.  0.
    9000005    1    3    3    0    0 -0.20350545466E+02  0.23148912560E+02 -0.59827612995E+01  0.31413536672E+02  0.10000000000E+01 0.  0.
    9000005    1    3    3    0    0  0.20350545466E+02 -0.23148912560E+02  0.18127536751E+03  0.18387978606E+03  0.10000000000E+01 0.  0.
<mgrwt>
<rscale>  0 0.12499487E+03</rscale>
<asrwt>0</asrwt>
<pdfrwt beam="1">  1        4 0.30045072E-01 0.12499487E+03</pdfrwt>
<pdfrwt beam="2">  1       -4 0.30769781E-02 0.12499487E+03</pdfrwt>
<totfact> 0.87628690E+03</totfact>
</mgrwt>
</event>
<event>
 5    1  0.3327068E-002  0.1250043E+03  0.7818608E-02  0.1235063E+00
          4   -1    0    0  501    0  0.00000000000E+00  0.00000000000E+00  0.49985173816E+03  0.49985335153E+03  0.12700000000E+01 0.  1.
         -4   -1    0    0    0  501 -0.00000000000E+00 -0.00000000000E+00 -0.77621259894E+01  0.78653353314E+01  0.12700000000E+01 0.  1.
         25    2    1    2    0    0  0.00000000000E+00  0.00000000000E+00  0.49208961217E+03  0.50771868686E+03  0.12500431428E+03 0.  0.
    9000005    1    3    3    0    0 -0.56007578484E+02  0.11281900120E+02  0.34890778061E+03  0.35355589302E+03  0.10000000000E+01 0.  0.
    9000005    1    3    3    0    0  0.56007578484E+02 -0.11281900120E+02  0.14318183155E+03  0.15416279384E+03  0.10000000000E+01 0.  0.
<mgrwt>
<rscale>  0 0.12500431E+03</rscale>
<asrwt>0</asrwt>
<pdfrwt beam="1">  1        4 0.76908327E-01 0.12500431E+03</pdfrwt>
<pdfrwt beam="2">  1       -4 0.12022366E-02 0.12500431E+03</pdfrwt>
<totfact> 0.55265185E+03</totfact>
</mgrwt>
</event>
<event>
 5    1  0.3327068E-002  0.1249961E+03  0.7818608E-02  0.1235075E+00
          4   -1    0    0  501    0  0.00000000000E+00  0.00000000000E+00  0.23879972705E+03  0.23880310413E+03  0.12700000000E+01 0. -1.
         -4   -1    0    0    0  501 -0.00000000000E+00 -0.00000000000E+00 -0.16328683846E+02  0.16377997929E+02  0.12700000000E+01 0. -1.
         25    2    1    2    0    0  0.00000000000E+00  0.00000000000E+00  0.22247104321E+03  0.25518110206E+03  0.12499611906E+03 0.  0.
    9000005    1    3    3    0    0  0.26643979798E+02  0.52120551434E+02  0.66575656039E+02  0.88655352451E+02  0.10000000000E+01 0.  0.
    9000005    1    3    3    0    0 -0.26643979798E+02 -0.52120551434E+02  0.15589538717E+03  0.16652574961E+03  0.10000000000E+01 0.  0.
<mgrwt>
<rscale>  0 0.12499612E+03</rscale>
<asrwt>0</asrwt>
<pdfrwt beam="1">  1        4 0.36742468E-01 0.12499612E+03</pdfrwt>
<pdfrwt beam="2">  1       -4 0.25161587E-02 0.12499612E+03</pdfrwt>
<totfact> 0.81594171E+03</totfact>
</mgrwt>
</event>
<event>
 5    1  0.3327068E-002  0.1249999E+03  0.7818608E-02  0.1235069E+00
          4   -1    0    0  501    0  0.00000000000E+00  0.00000000000E+00  0.18940386560E+02  0.18982917138E+02  0.12700000000E+01 0.  1.
         -4   -1    0    0    0  501 -0.00000000000E+00 -0.00000000000E+00 -0.20596295651E+03  0.20596687198E+03  0.12700000000E+01 0.  1.
         25    2    1    2    0    0  0.00000000000E+00  0.00000000000E+00 -0.18702256995E+03  0.22494978912E+03  0.12499986382E+03 0.  0.
    9000005    1    3    3    0    0  0.83345158514E+01 -0.60174599037E+02 -0.11988601961E+03  0.13440276866E+03  0.10000000000E+01 0.  0.
    9000005    1    3    3    0    0 -0.83345158514E+01  0.60174599037E+02 -0.67136550334E+02  0.90547020462E+02  0.10000000000E+01 0.  0.
<mgrwt>
<rscale>  0 0.12499986E+03</rscale>
<asrwt>0</asrwt>
<pdfrwt beam="1">  1        4 0.29174785E-02 0.12499986E+03</pdfrwt>
<pdfrwt beam="2">  1       -4 0.31690180E-01 0.12499986E+03</pdfrwt>
<totfact> 0.86091382E+03</totfact>
</mgrwt>
</event>
<event>
 5    1  0.3327068E-002  0.1250006E+03  0.7818608E-02  0.1235068E+00
         -4   -1    0    0    0  501 -0.00000000000E+00  0.00000000000E+00  0.14939875695E+02  0.14993758227E+02  0.12700000000E+01 0.  1.
          4   -1    0    0  501    0  0.00000000000E+00 -0.00000000000E+00 -0.26094120291E+03  0.26094429344E+03  0.12700000000E+01 0.  1.
         25    2    1    2    0    0  0.00000000000E+00  0.00000000000E+00 -0.24600132722E+03  0.27593805166E+03  0.12500062145E+03 0.  0.
    9000005    1    3    3    0    0 -0.50377336367E+02  0.36188447702E+02 -0.10621658794E+03  0.12300586701E+03  0.10000000000E+01 0.  0.
    9000005    1    3    3    0    0  0.50377336367E+02 -0.36188447702E+02 -0.13978473928E+03  0.15293218465E+03  0.10000000000E+01 0.  0.
<mgrwt>
<rscale>  0 0.12500062E+03</rscale>
<asrwt>0</asrwt>
<pdfrwt beam="2">  1        4 0.40149180E-01 0.12500062E+03</pdfrwt>
<pdfrwt beam="1">  1       -4 0.23028251E-02 0.12500062E+03</pdfrwt>
<totfact> 0.78718705E+03</totfact>
</mgrwt>
</event>
<event>
 5    1  0.3327068E-002  0.1250006E+03  0.7818608E-02  0.1235068E+00
         -4   -1    0    0    0  501 -0.00000000000E+00  0.00000000000E+00  0.47815635201E+03  0.47815803859E+03  0.12700000000E+01 0. -1.
          4   -1    0    0  501    0  0.00000000000E+00 -0.00000000000E+00 -0.81184073183E+01  0.82171428967E+01  0.12700000000E+01 0. -1.
         25    2    1    2    0    0  0.00000000000E+00  0.00000000000E+00  0.47003794469E+03  0.48637518149E+03  0.12500059086E+03 0.  0.
    9000005    1    3    3    0    0 -0.33686300261E+01 -0.25270749710E+02  0.45702090139E+03  0.45773252317E+03  0.10000000000E+01 0.  0.
    9000005    1    3    3    0    0  0.33686300261E+01  0.25270749710E+02  0.13017043302E+02  0.28642658318E+02  0.10000000000E+01 0.  0.
<mgrwt>
<rscale>  0 0.12500059E+03</rscale>
<asrwt>0</asrwt>
<pdfrwt beam="2">  1        4 0.12567105E-02 0.12500059E+03</pdfrwt>
<pdfrwt beam="1">  1       -4 0.73570240E-01 0.12500059E+03</pdfrwt>
<totfact> 0.56936459E+03</totfact>
</mgrwt>
</event>
<event>
 5    1  0.3327068E-002  0.1250119E+03  0.7818608E-02  0.1235051E+00
         -4   -1    0    0    0  501 -0.00000000000E+00  0.00000000000E+00  0.13805905191E+03  0.13806489313E+03  0.12700000000E+01 0. -1.
          4   -1    0    0  501    0  0.00000000000E+00 -0.00000000000E+00 -0.28278757246E+02  0.28307260753E+02  0.12700000000E+01 0. -1.
         25    2    1    2    0    0  0.00000000000E+00  0.00000000000E+00  0.10978029466E+03  0.16637215388E+03  0.12501192139E+03 0.  0.
    9000005    1    3    3    0    0 -0.12757417236E+02 -0.37359681583E+02  0.11937115106E+03  0.12573372343E+03  0.10000000000E+01 0.  0.
    9000005    1    3    3    0    0  0.12757417236E+02  0.37359681583E+02 -0.95908564011E+01  0.40638430444E+02  0.10000000000E+01 0.  0.
<mgrwt>
<rscale>  0 0.12501192E+03</rscale>
<asrwt>0</asrwt>
<pdfrwt beam="2">  1        4 0.43532199E-02 0.12501192E+03</pdfrwt>
<pdfrwt beam="1">  1       -4 0.21242496E-01 0.12501192E+03</pdfrwt>
<totfact> 0.96102421E+03</totfact>
</mgrwt>
</event>
<event>
 5    1  0.3327068E-002  0.1249953E+03  0.7818608E-02  0.1235077E+00
         -4   -1    0    0    0  501 -0.00000000000E+00  0.00000000000E+00  0.15371382193E+03  0.15371906828E+03  0.12700000000E+01 0. -1.
          4   -1    0    0  501    0  0.00000000000E+00 -0.00000000000E+00 -0.25389025808E+02  0.25420769687E+02  0.12700000000E+01 0. -1.
         25    2    1    2    0    0  0.00000000000E+00  0.00000000000E+00  0.12832479613E+03  0.17913983797E+03  0.12499531290E+03 0.  0.
    9000005    1    3    3    0    0 -0.56437462318E+02 -0.54190526814E+01  0.10181977177E+03  0.11654535258E+03  0.10000000000E+01 0.  0.
    9000005    1    3    3    0    0  0.56437462318E+02  0.54190526814E+01  0.26505024356E+02  0.62594485388E+02  0.10000000000E+01 0.  0.
<mgrwt>
<rscale>  0 0.12499531E+03</rscale>
<asrwt>0</asrwt>
<pdfrwt beam="2">  1        4 0.39088494E-02 0.12499531E+03</pdfrwt>
<pdfrwt beam="1">  1       -4 0.23651126E-01 0.12499531E+03</pdfrwt>
<totfact> 0.93781921E+03</totfact>
</mgrwt>
</event>
<event>
 5    1  0.3327068E-002  0.1249995E+03  0.7818608E-02  0.1235070E+00
         -4   -1    0    0    0  501 -0.00000000000E+00  0.00000000000E+00  0.35776650194E+02  0.35799184336E+02  0.12700000000E+01 0. -1.
          4   -1    0    0  501    0  0.00000000000E+00 -0.00000000000E+00 -0.10912283338E+03  0.10913022342E+03  0.12700000000E+01 0. -1.
         25    2    1    2    0    0  0.00000000000E+00  0.00000000000E+00 -0.73346183183E+02  0.14492940776E+03  0.12499948258E+03 0.  0.
    9000005    1    3    3    0    0  0.38415685841E+02 -0.49103028061E+02 -0.31707035338E+02  0.69951471559E+02  0.10000000000E+01 0.  0.
    9000005    1    3    3    0    0 -0.38415685841E+02  0.49103028061E+02 -0.41639147845E+02  0.74977936199E+02  0.10000000000E+01 0.  0.
<mgrwt>
<rscale>  0 0.12499948E+03</rscale>
<asrwt>0</asrwt>
<pdfrwt beam="2">  1        4 0.16790430E-01 0.12499948E+03</pdfrwt>
<pdfrwt beam="1">  1       -4 0.55064020E-02 0.12499948E+03</pdfrwt>
<totfact> 0.10032540E+04</totfact>
</mgrwt>
</event>
<event>
 5    1  0.3327068E-002  0.1249996E+03  0.7818608E-02  0.1235070E+00
          4   -1    0    0  501    0  0.00000000000E+00  0.00000000000E+00  0.42102350349E+02  0.42121500506E+02  0.12700000000E+01 0. -1.
         -4   -1    0    0    0  501 -0.00000000000E+00 -0.00000000000E+00 -0.92734740691E+02  0.92743436593E+02  0.12700000000E+01 0. -1.
         25    2    1    2    0    0  0.00000000000E+00  0.00000000000E+00 -0.50632390342E+02  0.13486493710E+03  0.12499964923E+03 0.  0.
    9000005    1    3    3    0    0  0.24928734530E+02  0.37304182917E+02 -0.72248509068E+02  0.85052283514E+02  0.10000000000E+01 0.  0.
    9000005    1    3    3    0    0 -0.24928734530E+02 -0.37304182917E+02  0.21616118726E+02  0.49812653585E+02  0.10000000000E+01 0.  0.
<mgrwt>
<rscale>  0 0.12499965E+03</rscale>
<asrwt>0</asrwt>
<pdfrwt beam="1">  1        4 0.64794267E-02 0.12499965E+03</pdfrwt>
<pdfrwt beam="2">  1       -4 0.14269025E-01 0.12499965E+03</pdfrwt>
<totfact> 0.10240999E+04</totfact>
</mgrwt>
</event>
<event>
 5    1  0.3327068E-002  0.1250005E+03  0.7818608E-02  0.1235069E+00
         -4   -1    0    0    0  501 -0.00000000000E+00  0.00000000000E+00  0.25880451676E+01  0.28828593080E+01  0.12700000000E+01 0.  1.
          4   -1    0    0  501    0  0.00000000000E+00 -0.00000000000E+00 -0.14277250788E+04  0.14277256437E+04  0.12700000000E+01 0.  1.
         25    2    1    2    0    0  0.00000000000E+00  0.00000000000E+00 -0.14251370337E+04  0.14306085030E+04  0.12500049642E+03 0.  0.
    9000005    1    3    3    0    0 -0.35054251766E+02  0.68997503027E+01 -0.12576333264E+03  0.13074334766E+03  0.10000000000E+01 0.  0.
    9000005    1    3    3    0    0  0.35054251766E+02 -0.68997503027E+01 -0.12993737010E+04  0.12998651553E+04  0.10000000000E+01 0.  0.
<mgrwt>
<rscale>  0 0.12500050E+03</rscale>
<asrwt>0</asrwt>
<pdfrwt beam="2">  1        4 0.21967214E+00 0.12500050E+03</pdfrwt>
<pdfrwt beam="1">  1       -4 0.42088340E-03 0.12500050E+03</pdfrwt>
<totfact> 0.19333335E+03</totfact>
</mgrwt>
</event>
<event>
 5    1  0.3327068E-002  0.1249982E+03  0.7818608E-02  0.1235072E+00
          4   -1    0    0  501    0  0.00000000000E+00  0.00000000000E+00  0.11312907249E+03  0.11313620085E+03  0.12700000000E+01 0.  1.
         -4   -1    0    0    0  501 -0.00000000000E+00 -0.00000000000E+00 -0.34508268929E+02  0.34531630782E+02  0.12700000000E+01 0.  1.
         25    2    1    2    0    0  0.00000000000E+00  0.00000000000E+00  0.78620803562E+02  0.14766783163E+03  0.12499823097E+03 0.  0.
    9000005    1    3    3    0    0  0.20179651362E+02  0.99314759638E+01 -0.29566870692E+02  0.37162513188E+02  0.10000000000E+01 0.  0.
    9000005    1    3    3    0    0 -0.20179651362E+02 -0.99314759638E+01  0.10818767425E+03  0.11050531844E+03  0.10000000000E+01 0.  0.
<mgrwt>
<rscale>  0 0.12499823E+03</rscale>
<asrwt>0</asrwt>
<pdfrwt beam="1">  1        4 0.17406818E-01 0.12499823E+03</pdfrwt>
<pdfrwt beam="2">  1       -4 0.53113099E-02 0.12499823E+03</pdfrwt>
<totfact> 0.99774602E+03</totfact>
</mgrwt>
</event>
<event>
 5    1  0.3327068E-002  0.1249994E+03  0.7818608E-02  0.1235070E+00
         -4   -1    0    0    0  501 -0.00000000000E+00  0.00000000000E+00  0.17778039810E+03  0.17778493426E+03  0.12700000000E+01 0. -1.
          4   -1    0    0  501    0  0.00000000000E+00 -0.00000000000E+00 -0.21948966405E+02  0.21985677752E+02  0.12700000000E+01 0. -1.
         25    2    1    2    0    0  0.00000000000E+00  0.00000000000E+00  0.15583143170E+03  0.19977061201E+03  0.12499944927E+03 0.  0.
    9000005    1    3    3    0    0  0.30493511430E+02 -0.54421136825E+02  0.83831371873E+02  0.10449982432E+03  0.10000000000E+01 0.  0.
    9000005    1    3    3    0    0 -0.30493511430E+02  0.54421136825E+02  0.72000059826E+02  0.95270787693E+02  0.10000000000E+01 0.  0.
<mgrwt>
<rscale>  0 0.12499945E+03</rscale>
<asrwt>0</asrwt>
<pdfrwt beam="2">  1        4 0.33799370E-02 0.12499945E+03</pdfrwt>
<pdfrwt beam="1">  1       -4 0.27354003E-01 0.12499945E+03</pdfrwt>
<totfact> 0.90175320E+03</totfact>
</mgrwt>
</event>
<event>
 5    1  0.3327068E-002  0.1250004E+03  0.7818608E-02  0.1235069E+00
         -4   -1    0    0    0  501 -0.00000000000E+00  0.00000000000E+00  0.26848651811E+02  0.26878671918E+02  0.12700000000E+01 0. -1.
          4   -1    0    0  501    0  0.00000000000E+00 -0.00000000000E+00 -0.14537822892E+03  0.14538377607E+03  0.12700000000E+01 0. -1.
         25    2    1    2    0    0  0.00000000000E+00  0.00000000000E+00 -0.11852957711E+03  0.17226244799E+03  0.12500036135E+03 0.  0.
    9000005    1    3    3    0    0 -0.54020850097E+02  0.43157865393E+01 -0.16379783648E+02  0.56623101037E+02  0.10000000000E+01 0.  0.
    9000005    1    3    3    0    0  0.54020850097E+02 -0.43157865393E+01 -0.10214979346E+03  0.11563934695E+03  0.10000000000E+01 0.  0.
<mgrwt>
<rscale>  0 0.12500036E+03</rscale>
<asrwt>0</asrwt>
<pdfrwt beam="2">  1        4 0.22368617E-01 0.12500036E+03</pdfrwt>
<pdfrwt beam="1">  1       -4 0.41332978E-02 0.12500036E+03</pdfrwt>
<totfact> 0.95027851E+03</totfact>
</mgrwt>
</event>
<event>
 5    1  0.3327068E-002  0.1250024E+03  0.7818608E-02  0.1235066E+00
          4   -1    0    0  501    0  0.00000000000E+00  0.00000000000E+00  0.49606854401E+02  0.49623108564E+02  0.12700000000E+01 0.  1.
         -4   -1    0    0    0  501 -0.00000000000E+00 -0.00000000000E+00 -0.78712893043E+02  0.78723137839E+02  0.12700000000E+01 0.  1.
         25    2    1    2    0    0  0.00000000000E+00  0.00000000000E+00 -0.29106038642E+02  0.12834624640E+03  0.12500238990E+03 0.  0.
    9000005    1    3    3    0    0  0.35632888838E+01 -0.51867697087E+02  0.21050862190E+02  0.56098964587E+02  0.10000000000E+01 0.  0.
    9000005    1    3    3    0    0 -0.35632888838E+01  0.51867697087E+02 -0.50156900832E+02  0.72247281816E+02  0.10000000000E+01 0.  0.
<mgrwt>
<rscale>  0 0.12500239E+03</rscale>
<asrwt>0</asrwt>
<pdfrwt beam="1">  1        4 0.76338621E-02 0.12500239E+03</pdfrwt>
<pdfrwt beam="2">  1       -4 0.12111714E-01 0.12500239E+03</pdfrwt>
<totfact> 0.10379457E+04</totfact>
</mgrwt>
</event>
<event>
 5    1  0.3327068E-002  0.1250002E+03  0.7818608E-02  0.1235069E+00
         -4   -1    0    0    0  501 -0.00000000000E+00  0.00000000000E+00  0.12962816277E+02  0.13024880262E+02  0.12700000000E+01 0.  1.
          4   -1    0    0  501    0  0.00000000000E+00 -0.00000000000E+00 -0.30056064564E+03  0.30056332878E+03  0.12700000000E+01 0.  1.
         25    2    1    2    0    0  0.00000000000E+00  0.00000000000E+00 -0.28759782937E+03  0.31358820905E+03  0.12500021359E+03 0.  0.
    9000005    1    3    3    0    0  0.45010001947E+01 -0.16744221777E+02 -0.29441787326E+03  0.29492967308E+03  0.10000000000E+01 0.  0.
    9000005    1    3    3    0    0 -0.45010001947E+01  0.16744221777E+02  0.68200438971E+01  0.18658535967E+02  0.10000000000E+01 0.  0.
<mgrwt>
<rscale>  0 0.12500021E+03</rscale>
<asrwt>0</asrwt>
<pdfrwt beam="2">  1        4 0.46245075E-01 0.12500021E+03</pdfrwt>
<pdfrwt beam="1">  1       -4 0.19992602E-02 0.12500021E+03</pdfrwt>
<totfact> 0.73924921E+03</totfact>
</mgrwt>
</event>
<event>
 5    1  0.3327068E-002  0.1249964E+03  0.7818608E-02  0.1235075E+00
          4   -1    0    0  501    0  0.00000000000E+00  0.00000000000E+00  0.16441849861E+03  0.16442340340E+03  0.12700000000E+01 0.  1.
         -4   -1    0    0    0  501 -0.00000000000E+00 -0.00000000000E+00 -0.23734367021E+02  0.23768320889E+02  0.12700000000E+01 0.  1.
         25    2    1    2    0    0  0.00000000000E+00  0.00000000000E+00  0.14068413159E+03  0.18819172429E+03  0.12499640078E+03 0.  0.
    9000005    1    3    3    0    0 -0.35044960176E+01 -0.18131407762E+02  0.16022383119E+03  0.16128764838E+03  0.10000000000E+01 0.  0.
    9000005    1    3    3    0    0  0.35044960176E+01  0.18131407762E+02 -0.19539699601E+02  0.26904075904E+02  0.10000000000E+01 0.  0.
<mgrwt>
<rscale>  0 0.12499640E+03</rscale>
<asrwt>0</asrwt>
<pdfrwt beam="1">  1        4 0.25298144E-01 0.12499640E+03</pdfrwt>
<pdfrwt beam="2">  1       -4 0.36544300E-02 0.12499640E+03</pdfrwt>
<totfact> 0.92170334E+03</totfact>
</mgrwt>
</event>
<event>
 5    1  0.3327068E-002  0.1250163E+03  0.7818608E-02  0.1235044E+00
          4   -1    0    0  501    0  0.00000000000E+00  0.00000000000E+00  0.89551119103E+01  0.90447183110E+01  0.12700000000E+01 0.  1.
         -4   -1    0    0    0  501 -0.00000000000E+00 -0.00000000000E+00 -0.43405428078E+03  0.43405613872E+03  0.12700000000E+01 0.  1.
         25    2    1    2    0    0  0.00000000000E+00  0.00000000000E+00 -0.42509916887E+03  0.44310085703E+03  0.12501626347E+03 0.  0.
    9000005    1    3    3    0    0 -0.21189441468E+02  0.58489062464E+02 -0.23390516444E+03  0.24203840359E+03  0.10000000000E+01 0.  0.
    9000005    1    3    3    0    0  0.21189441468E+02 -0.58489062464E+02 -0.19119400443E+03  0.20106245345E+03  0.10000000000E+01 0.  0.
<mgrwt>
<rscale>  0 0.12501626E+03</rscale>
<asrwt>0</asrwt>
<pdfrwt beam="1">  1        4 0.13847456E-02 0.12501626E+03</pdfrwt>
<pdfrwt beam="2">  1       -4 0.66784601E-01 0.12501626E+03</pdfrwt>
<totfact> 0.60544472E+03</totfact>
</mgrwt>
</event>
<event>
 5    1  0.3327068E-002  0.1250025E+03  0.7818608E-02  0.1235065E+00
          4   -1    0    0  501    0  0.00000000000E+00  0.00000000000E+00  0.77241246494E+02  0.77251686454E+02  0.12700000000E+01 0.  1.
         -4   -1    0    0    0  501 -0.00000000000E+00 -0.00000000000E+00 -0.50552252046E+02  0.50568202331E+02  0.12700000000E+01 0.  1.
         25    2    1    2    0    0  0.00000000000E+00  0.00000000000E+00  0.26688994448E+02  0.12781988878E+03  0.12500248615E+03 0.  0.
    9000005    1    3    3    0    0 -0.48121728033E+02 -0.38929744032E+02  0.22151382533E+02  0.65748835940E+02  0.10000000000E+01 0.  0.
    9000005    1    3    3    0    0  0.48121728033E+02  0.38929744032E+02  0.45376119150E+01  0.62071052844E+02  0.10000000000E+01 0.  0.
<mgrwt>
<rscale>  0 0.12500249E+03</rscale>
<asrwt>0</asrwt>
<pdfrwt beam="1">  1        4 0.11885299E-01 0.12500249E+03</pdfrwt>
<pdfrwt beam="2">  1       -4 0.77792996E-02 0.12500249E+03</pdfrwt>
<totfact> 0.10390796E+04</totfact>
</mgrwt>
</event>
<event>
 5    1  0.3327068E-002  0.1249970E+03  0.7818608E-02  0.1235074E+00
         -4   -1    0    0    0  501 -0.00000000000E+00  0.00000000000E+00  0.13906113489E+02  0.13963985547E+02  0.12700000000E+01 0.  1.
          4   -1    0    0  501    0  0.00000000000E+00 -0.00000000000E+00 -0.28024536277E+03  0.28024824042E+03  0.12700000000E+01 0.  1.
         25    2    1    2    0    0  0.00000000000E+00  0.00000000000E+00 -0.26633924928E+03  0.29421222596E+03  0.12499695275E+03 0.  0.
    9000005    1    3    3    0    0 -0.30791550153E+02  0.19347105894E+02 -0.25278646938E+03  0.25539073822E+03  0.10000000000E+01 0.  0.
    9000005    1    3    3    0    0  0.30791550153E+02 -0.19347105894E+02 -0.13552779903E+02  0.38821487741E+02  0.10000000000E+01 0.  0.
<mgrwt>
<rscale>  0 0.12499695E+03</rscale>
<asrwt>0</asrwt>
<pdfrwt beam="2">  1        4 0.43119340E-01 0.12499695E+03</pdfrwt>
<pdfrwt beam="1">  1       -4 0.21440753E-02 0.12499695E+03</pdfrwt>
<totfact> 0.76335797E+03</totfact>
</mgrwt>
</event>
<event>
 5    1  0.3327068E-002  0.1250004E+03  0.7818608E-02  0.1235069E+00
         -4   -1    0    0    0  501 -0.00000000000E+00  0.00000000000E+00  0.23073299399E+02  0.23108224621E+02  0.12700000000E+01 0. -1.
          4   -1    0    0  501    0  0.00000000000E+00 -0.00000000000E+00 -0.16913316358E+03  0.16913793165E+03  0.12700000000E+01 0. -1.
         25    2    1    2    0    0  0.00000000000E+00  0.00000000000E+00 -0.14605986418E+03  0.19224615627E+03  0.12500040270E+03 0.  0.
    9000005    1    3    3    0    0 -0.38939582168E+02  0.45525511484E+02 -0.45672667744E+02  0.75338276023E+02  0.10000000000E+01 0.  0.
    9000005    1    3    3    0    0  0.38939582168E+02 -0.45525511484E+02 -0.10038719643E+03  0.11690788024E+03  0.10000000000E+01 0.  0.
<mgrwt>
<rscale>  0 0.12500040E+03</rscale>
<asrwt>0</asrwt>
<pdfrwt beam="2">  1        4 0.26023539E-01 0.12500040E+03</pdfrwt>
<pdfrwt beam="1">  1       -4 0.35527918E-02 0.12500040E+03</pdfrwt>
<totfact> 0.91457129E+03</totfact>
</mgrwt>
</event>
<event>
 5    1  0.3327068E-002  0.1250013E+03  0.7818608E-02  0.1235067E+00
         -4   -1    0    0    0  501 -0.00000000000E+00  0.00000000000E+00  0.25082894748E+01  0.28114793418E+01  0.12700000000E+01 0.  1.
          4   -1    0    0  501    0  0.00000000000E+00 -0.00000000000E+00 -0.14683063441E+04  0.14683068933E+04  0.12700000000E+01 0.  1.
         25    2    1    2    0    0  0.00000000000E+00  0.00000000000E+00 -0.14657980546E+04  0.14711183726E+04  0.12500131796E+03 0.  0.
    9000005    1    3    3    0    0  0.23511346942E+02 -0.49622297264E+02 -0.38176646743E+03  0.38569650177E+03  0.10000000000E+01 0.  0.
    9000005    1    3    3    0    0 -0.23511346942E+02  0.49622297264E+02 -0.10840315872E+04  0.10854218709E+04  0.10000000000E+01 0.  0.
<mgrwt>
<rscale>  0 0.12500132E+03</rscale>
<asrwt>0</asrwt>
<pdfrwt beam="2">  1        4 0.22591600E+00 0.12500132E+03</pdfrwt>
<pdfrwt beam="1">  1       -4 0.40925641E-03 0.12500132E+03</pdfrwt>
<totfact> 0.18503854E+03</totfact>
</mgrwt>
</event>
<event>
 5    1  0.3327068E-002  0.1249980E+03  0.7818608E-02  0.1235072E+00
          4   -1    0    0  501    0  0.00000000000E+00  0.00000000000E+00  0.17573868317E+01  0.21682500954E+01  0.12700000000E+01 0. -1.
         -4   -1    0    0    0  501 -0.00000000000E+00 -0.00000000000E+00 -0.19896475016E+04  0.19896479070E+04  0.12700000000E+01 0. -1.
         25    2    1    2    0    0  0.00000000000E+00  0.00000000000E+00 -0.19878901148E+04  0.19918161571E+04  0.12499797985E+03 0.  0.
    9000005    1    3    3    0    0  0.49765095631E+00 -0.36767987791E+02 -0.17990841468E+04  0.17994601690E+04  0.10000000000E+01 0.  0.
    9000005    1    3    3    0    0 -0.49765095631E+00  0.36767987791E+02 -0.18880596797E+03  0.19235598801E+03  0.10000000000E+01 0.  0.
<mgrwt>
<rscale>  0 0.12499798E+03</rscale>
<asrwt>0</asrwt>
<pdfrwt beam="1">  1        4 0.30200484E-03 0.12499798E+03</pdfrwt>
<pdfrwt beam="2">  1       -4 0.30612964E+00 0.12499798E+03</pdfrwt>
<totfact> 0.99690010E+02</totfact>
</mgrwt>
</event>
<event>
 5    1  0.3327068E-002  0.1250009E+03  0.7818608E-02  0.1235068E+00
         -4   -1    0    0    0  501 -0.00000000000E+00  0.00000000000E+00  0.66138114004E+02  0.66150306303E+02  0.12700000000E+01 0.  1.
          4   -1    0    0  501    0  0.00000000000E+00 -0.00000000000E+00 -0.59038381965E+02  0.59052040143E+02  0.12700000000E+01 0.  1.
         25    2    1    2    0    0  0.00000000000E+00  0.00000000000E+00  0.70997320389E+01  0.12520234645E+03  0.12500088544E+03 0.  0.
    9000005    1    3    3    0    0  0.17730829869E+02 -0.59743381740E+02 -0.11107344488E+01  0.62336888923E+02  0.10000000000E+01 0.  0.
    9000005    1    3    3    0    0 -0.17730829869E+02  0.59743381740E+02  0.82104664877E+01  0.62865457523E+02  0.10000000000E+01 0.  0.
<mgrwt>
<rscale>  0 0.12500089E+03</rscale>
<asrwt>0</asrwt>
<pdfrwt beam="2">  1        4 0.90848165E-02 0.12500089E+03</pdfrwt>
<pdfrwt beam="1">  1       -4 0.10177083E-01 0.12500089E+03</pdfrwt>
<totfact> 0.10448260E+04</totfact>
</mgrwt>
</event>
<event>
 5    1  0.3327068E-002  0.1249997E+03  0.7818608E-02  0.1235070E+00
         -4   -1    0    0    0  501 -0.00000000000E+00  0.00000000000E+00  0.62201010491E+03  0.62201140143E+03  0.12700000000E+01 0.  1.
          4   -1    0    0  501    0  0.00000000000E+00 -0.00000000000E+00 -0.62144900264E+01  0.63429319947E+01  0.12700000000E+01 0.  1.
         25    2    1    2    0    0  0.00000000000E+00  0.00000000000E+00  0.61579561489E+03  0.62835433343E+03  0.12499971610E+03 0.  0.
    9000005    1    3    3    0    0  0.35985948371E+02 -0.51078385467E+02  0.30229492757E+03  0.30868626982E+03  0.10000000000E+01 0.  0.
    9000005    1    3    3    0    0 -0.35985948371E+02  0.51078385467E+02  0.31350068732E+03  0.31966806361E+03  0.10000000000E+01 0.  0.
<mgrwt>
<rscale>  0 0.12499972E+03</rscale>
<asrwt>0</asrwt>
<pdfrwt beam="2">  1        4 0.96605513E-03 0.12499972E+03</pdfrwt>
<pdfrwt beam="1">  1       -4 0.95703857E-01 0.12499972E+03</pdfrwt>
<totfact> 0.47125647E+03</totfact>
</mgrwt>
</event>
<event>
 5    1  0.3327068E-002  0.1249989E+03  0.7818608E-02  0.1235071E+00
         -4   -1    0    0    0  501 -0.00000000000E+00  0.00000000000E+00  0.40885781612E+02  0.40905501317E+02  0.12700000000E+01 0. -1.
          4   -1    0    0  501    0  0.00000000000E+00 -0.00000000000E+00 -0.95491933420E+02  0.95500378262E+02  0.12700000000E+01 0. -1.
         25    2    1    2    0    0  0.00000000000E+00  0.00000000000E+00 -0.54606151808E+02  0.13640587958E+03  0.12499892867E+03 0.  0.
    9000005    1    3    3    0    0  0.31356080113E+02  0.33754660472E+02 -0.73376874128E+02  0.86647253392E+02  0.10000000000E+01 0.  0.
    9000005    1    3    3    0    0 -0.31356080113E+02 -0.33754660472E+02  0.18770722320E+02  0.49758626188E+02  0.10000000000E+01 0.  0.
<mgrwt>
<rscale>  0 0.12499893E+03</rscale>
<asrwt>0</asrwt>
<pdfrwt beam="2">  1        4 0.14693233E-01 0.12499893E+03</pdfrwt>
<pdfrwt beam="1">  1       -4 0.62922868E-02 0.12499893E+03</pdfrwt>
<totfact> 0.10208769E+04</totfact>
</mgrwt>
</event>
<event>
 5    1  0.3327068E-002  0.1249986E+03  0.7818608E-02  0.1235071E+00
          4   -1    0    0  501    0  0.00000000000E+00  0.00000000000E+00  0.12899083603E+03  0.12899708787E+03  0.12700000000E+01 0.  1.
         -4   -1    0    0    0  501 -0.00000000000E+00 -0.00000000000E+00 -0.30262173965E+02  0.30288811021E+02  0.12700000000E+01 0.  1.
         25    2    1    2    0    0  0.00000000000E+00  0.00000000000E+00  0.98728662062E+02  0.15928589889E+03  0.12499859548E+03 0.  0.
    9000005    1    3    3    0    0  0.11085436639E+02  0.69513636788E+00  0.12772912977E+03  0.12821505649E+03  0.10000000000E+01 0.  0.
    9000005    1    3    3    0    0 -0.11085436639E+02 -0.69513636788E+00 -0.29000467707E+02  0.31070842397E+02  0.10000000000E+01 0.  0.
<mgrwt>
<rscale>  0 0.12499860E+03</rscale>
<asrwt>0</asrwt>
<pdfrwt beam="1">  1        4 0.19847274E-01 0.12499860E+03</pdfrwt>
<pdfrwt beam="2">  1       -4 0.46582490E-02 0.12499860E+03</pdfrwt>
<totfact> 0.97483713E+03</totfact>
</mgrwt>
</event>
<event>
 5    1  0.3327068E-002  0.1249962E+03  0.7818608E-02  0.1235075E+00
          4   -1    0    0  501    0  0.00000000000E+00  0.00000000000E+00  0.46166073883E+03  0.46166248567E+03  0.12700000000E+01 0. -1.
         -4   -1    0    0    0  501 -0.00000000000E+00 -0.00000000000E+00 -0.84113592172E+01  0.85066952385E+01  0.12700000000E+01 0. -1.
         25    2    1    2    0    0  0.00000000000E+00  0.00000000000E+00  0.45324937961E+03  0.47016918091E+03  0.12499623418E+03 0.  0.
    9000005    1    3    3    0    0 -0.50032935067E+02  0.29564559028E+02  0.14022085079E+03  0.15179013387E+03  0.10000000000E+01 0.  0.
    9000005    1    3    3    0    0  0.50032935067E+02 -0.29564559028E+02  0.31302852881E+03  0.31837904704E+03  0.10000000000E+01 0.  0.
<mgrwt>
<rscale>  0 0.12499623E+03</rscale>
<asrwt>0</asrwt>
<pdfrwt beam="1">  1        4 0.71032205E-01 0.12499623E+03</pdfrwt>
<pdfrwt beam="2">  1       -4 0.13015230E-02 0.12499623E+03</pdfrwt>
<totfact> 0.58260331E+03</totfact>
</mgrwt>
</event>
<event>
 5    1  0.3327068E-002  0.1249947E+03  0.7818608E-02  0.1235077E+00
         -4   -1    0    0    0  501 -0.00000000000E+00  0.00000000000E+00  0.44171442494E+02  0.44189695993E+02  0.12700000000E+01 0. -1.
          4   -1    0    0  501    0  0.00000000000E+00 -0.00000000000E+00 -0.88385317019E+02  0.88394440802E+02  0.12700000000E+01 0. -1.
         25    2    1    2    0    0  0.00000000000E+00  0.00000000000E+00 -0.44213874526E+02  0.13258413679E+03  0.12499474641E+03 0.  0.
    9000005    1    3    3    0    0 -0.31541115325E+02 -0.47760987264E+02  0.44950456854E+01  0.57420895988E+02  0.10000000000E+01 0.  0.
    9000005    1    3    3    0    0  0.31541115325E+02  0.47760987264E+02 -0.48708920211E+02  0.75163240806E+02  0.10000000000E+01 0.  0.
<mgrwt>
<rscale>  0 0.12499475E+03</rscale>
<asrwt>0</asrwt>
<pdfrwt beam="2">  1        4 0.13599847E-01 0.12499475E+03</pdfrwt>
<pdfrwt beam="1">  1       -4 0.67977125E-02 0.12499475E+03</pdfrwt>
<totfact> 0.10290466E+04</totfact>
</mgrwt>
</event>
<event>
 5    1  0.3327068E-002  0.1250000E+03  0.7818608E-02  0.1235069E+00
          4   -1    0    0  501    0  0.00000000000E+00  0.00000000000E+00  0.33275898962E+03  0.33276141314E+03  0.12700000000E+01 0. -1.
         -4   -1    0    0    0  501 -0.00000000000E+00 -0.00000000000E+00 -0.11702157244E+02  0.11770870153E+02  0.12700000000E+01 0. -1.
         25    2    1    2    0    0  0.00000000000E+00  0.00000000000E+00  0.32105683238E+03  0.34453228329E+03  0.12500001846E+03 0.  0.
    9000005    1    3    3    0    0  0.48021575474E+02  0.10191157967E+02  0.26711115569E+03  0.27158663610E+03  0.10000000000E+01 0.  0.
    9000005    1    3    3    0    0 -0.48021575474E+02 -0.10191157967E+02  0.53945676688E+02  0.72945647198E+02  0.10000000000E+01 0.  0.
<mgrwt>
<rscale>  0 0.12500002E+03</rscale>
<asrwt>0</asrwt>
<pdfrwt beam="1">  1        4 0.51199159E-01 0.12500002E+03</pdfrwt>
<pdfrwt beam="2">  1       -4 0.18058040E-02 0.12500002E+03</pdfrwt>
<totfact> 0.70330261E+03</totfact>
</mgrwt>
</event>
<event>
 5    1  0.3327068E-002  0.1250027E+03  0.7818608E-02  0.1235065E+00
         -4   -1    0    0    0  501 -0.00000000000E+00  0.00000000000E+00  0.89774711444E+02  0.89783694037E+02  0.12700000000E+01 0.  1.
          4   -1    0    0  501    0  0.00000000000E+00 -0.00000000000E+00 -0.43493139009E+02  0.43511677063E+02  0.12700000000E+01 0.  1.
         25    2    1    2    0    0  0.00000000000E+00  0.00000000000E+00  0.46281572435E+02  0.13329537110E+03  0.12500268801E+03 0.  0.
    9000005    1    3    3    0    0  0.93338819994E+01 -0.22807150361E+02 -0.38098431839E+02  0.45384776846E+02  0.10000000000E+01 0.  0.
    9000005    1    3    3    0    0 -0.93338819994E+01  0.22807150361E+02  0.84380004274E+02  0.87910594254E+02  0.10000000000E+01 0.  0.
<mgrwt>
<rscale>  0 0.12500269E+03</rscale>
<asrwt>0</asrwt>
<pdfrwt beam="2">  1        4 0.66933692E-02 0.12500269E+03</pdfrwt>
<pdfrwt beam="1">  1       -4 0.13813611E-01 0.12500269E+03</pdfrwt>
<totfact> 0.10273503E+04</totfact>
</mgrwt>
</event>
<event>
 5    1  0.3327068E-002  0.1249994E+03  0.7818608E-02  0.1235070E+00
         -4   -1    0    0    0  501 -0.00000000000E+00  0.00000000000E+00  0.62212133673E+03  0.62212263302E+03  0.12700000000E+01 0. -1.
          4   -1    0    0  501    0  0.00000000000E+00 -0.00000000000E+00 -0.62133198886E+01  0.63417855560E+01  0.12700000000E+01 0. -1.
         25    2    1    2    0    0  0.00000000000E+00  0.00000000000E+00  0.61590801684E+03  0.62846441857E+03  0.12499936082E+03 0.  0.
    9000005    1    3    3    0    0  0.55772123394E+02 -0.55407548256E+01  0.16898626884E+03  0.17804097497E+03  0.10000000000E+01 0.  0.
    9000005    1    3    3    0    0 -0.55772123394E+02  0.55407548256E+01  0.44692174800E+03  0.45042344360E+03  0.10000000000E+01 0.  0.
<mgrwt>
<rscale>  0 0.12499936E+03</rscale>
<asrwt>0</asrwt>
<pdfrwt beam="2">  1        4 0.96587667E-03 0.12499936E+03</pdfrwt>
<pdfrwt beam="1">  1       -4 0.95720995E-01 0.12499936E+03</pdfrwt>
<totfact> 0.47119421E+03</totfact>
</mgrwt>
</event>
<event>
 5    1  0.3327068E-002  0.1250008E+03  0.7818608E-02  0.1235068E+00
         -4   -1    0    0    0  501 -0.00000000000E+00  0.00000000000E+00  0.84312223195E+02  0.84321787695E+02  0.12700000000E+01 0.  1.
          4   -1    0    0  501    0  0.00000000000E+00 -0.00000000000E+00 -0.46310474633E+02  0.46327885347E+02  0.12700000000E+01 0.  1.
         25    2    1    2    0    0  0.00000000000E+00  0.00000000000E+00  0.38001748562E+02  0.13064967304E+03  0.12500081669E+03 0.  0.
    9000005    1    3    3    0    0 -0.63424988487E+01 -0.57611454989E+02 -0.54215861159E+01  0.58221135626E+02  0.10000000000E+01 0.  0.
    9000005    1    3    3    0    0  0.63424988487E+01  0.57611454989E+02  0.43423334678E+02  0.72428537415E+02  0.10000000000E+01 0.  0.
<mgrwt>
<rscale>  0 0.12500082E+03</rscale>
<asrwt>0</asrwt>
<pdfrwt beam="2">  1        4 0.71267635E-02 0.12500082E+03</pdfrwt>
<pdfrwt beam="1">  1       -4 0.12973186E-01 0.12500082E+03</pdfrwt>
<totfact> 0.10330415E+04</totfact>
</mgrwt>
</event>
<event>
 5    1  0.3327068E-002  0.1249975E+03  0.7818608E-02  0.1235073E+00
         -4   -1    0    0    0  501 -0.00000000000E+00  0.00000000000E+00  0.39976591205E+02  0.39996759174E+02  0.12700000000E+01 0.  1.
          4   -1    0    0  501    0  0.00000000000E+00 -0.00000000000E+00 -0.97660597351E+02  0.97668854682E+02  0.12700000000E+01 0.  1.
         25    2    1    2    0    0  0.00000000000E+00  0.00000000000E+00 -0.57684006146E+02  0.13766561386E+03  0.12499750667E+03 0.  0.
    9000005    1    3    3    0    0 -0.65611604435E+01  0.31553643295E+02 -0.87806894480E+02  0.93540001870E+02  0.10000000000E+01 0.  0.
    9000005    1    3    3    0    0  0.65611604435E+01 -0.31553643295E+02  0.30122888335E+02  0.44125611986E+02  0.10000000000E+01 0.  0.
<mgrwt>
<rscale>  0 0.12499751E+03</rscale>
<asrwt>0</asrwt>
<pdfrwt beam="2">  1        4 0.15026894E-01 0.12499751E+03</pdfrwt>
<pdfrwt beam="1">  1       -4 0.61524314E-02 0.12499751E+03</pdfrwt>
<totfact> 0.10182759E+04</totfact>
</mgrwt>
</event>
<event>
 5    1  0.3327068E-002  0.1249988E+03  0.7818608E-02  0.1235071E+00
         -4   -1    0    0    0  501 -0.00000000000E+00  0.00000000000E+00  0.13977105647E+03  0.13977682614E+03  0.12700000000E+01 0.  1.
          4   -1    0    0  501    0  0.00000000000E+00 -0.00000000000E+00 -0.27926192972E+02  0.27955055963E+02  0.12700000000E+01 0.  1.
         25    2    1    2    0    0  0.00000000000E+00  0.00000000000E+00  0.11184486350E+03  0.16773188211E+03  0.12499884313E+03 0.  0.
    9000005    1    3    3    0    0  0.61229979741E+01  0.15742972324E+01 -0.27502540635E+02  0.28237550484E+02  0.10000000000E+01 0.  0.
    9000005    1    3    3    0    0 -0.61229979741E+01 -0.15742972324E+01  0.13934740413E+03  0.13949433162E+03  0.10000000000E+01 0.  0.
<mgrwt>
<rscale>  0 0.12499884E+03</rscale>
<asrwt>0</asrwt>
<pdfrwt beam="2">  1        4 0.42990014E-02 0.12499884E+03</pdfrwt>
<pdfrwt beam="1">  1       -4 0.21505904E-01 0.12499884E+03</pdfrwt>
<totfact> 0.95874995E+03</totfact>
</mgrwt>
</event>
<event>
 5    1  0.3327068E-002  0.1250005E+03  0.7818608E-02  0.1235068E+00
         -4   -1    0    0    0  501 -0.00000000000E+00  0.00000000000E+00  0.66125280903E+01  0.67333815981E+01  0.12700000000E+01 0.  1.
          4   -1    0    0  501    0  0.00000000000E+00 -0.00000000000E+00 -0.58526866289E+03  0.58527004080E+03  0.12700000000E+01 0.  1.
         25    2    1    2    0    0  0.00000000000E+00  0.00000000000E+00 -0.57865613480E+03  0.59200342240E+03  0.12500051917E+03 0.  0.
    9000005    1    3    3    0    0 -0.29685263018E+02 -0.53808974602E+02 -0.34304822935E+03  0.34851070034E+03  0.10000000000E+01 0.  0.
    9000005    1    3    3    0    0  0.29685263018E+02  0.53808974602E+02 -0.23560790545E+03  0.24349272206E+03  0.10000000000E+01 0.  0.
<mgrwt>
<rscale>  0 0.12500052E+03</rscale>
<asrwt>0</asrwt>
<pdfrwt beam="2">  1        4 0.90050695E-01 0.12500052E+03</pdfrwt>
<pdfrwt beam="1">  1       -4 0.10267149E-02 0.12500052E+03</pdfrwt>
<totfact> 0.49375753E+03</totfact>
</mgrwt>
</event>
<event>
 5    1  0.3327068E-002  0.1249976E+03  0.7818608E-02  0.1235073E+00
         -4   -1    0    0    0  501 -0.00000000000E+00  0.00000000000E+00  0.37319769384E+03  0.37319985476E+03  0.12700000000E+01 0. -1.
          4   -1    0    0  501    0  0.00000000000E+00 -0.00000000000E+00 -0.10425839475E+02  0.10502905729E+02  0.12700000000E+01 0. -1.
         25    2    1    2    0    0  0.00000000000E+00  0.00000000000E+00  0.36277185437E+03  0.38370276049E+03  0.12499756031E+03 0.  0.
    9000005    1    3    3    0    0 -0.15617224371E+02 -0.47502811130E+02  0.29643483839E+03  0.30062439717E+03  0.10000000000E+01 0.  0.
    9000005    1    3    3    0    0  0.15617224371E+02  0.47502811130E+02  0.66337015977E+02  0.83078363314E+02  0.10000000000E+01 0.  0.
<mgrwt>
<rscale>  0 0.12499756E+03</rscale>
<asrwt>0</asrwt>
<pdfrwt beam="2">  1        4 0.16100696E-02 0.12499756E+03</pdfrwt>
<pdfrwt beam="1">  1       -4 0.57421128E-01 0.12499756E+03</pdfrwt>
<totfact> 0.66172878E+03</totfact>
</mgrwt>
</event>
<event>
 5    1  0.3327068E-002  0.1250016E+03  0.7818608E-02  0.1235067E+00
          4   -1    0    0  501    0  0.00000000000E+00  0.00000000000E+00  0.22730975435E+03  0.22731330212E+03  0.12700000000E+01 0.  1.
         -4   -1    0    0    0  501 -0.00000000000E+00 -0.00000000000E+00 -0.17157997000E+02  0.17204934207E+02  0.12700000000E+01 0.  1.
         25    2    1    2    0    0  0.00000000000E+00  0.00000000000E+00  0.21015175735E+03  0.24451823633E+03  0.12500162711E+03 0.  0.
    9000005    1    3    3    0    0 -0.23356904609E+02 -0.57853225903E+02  0.98074455281E+02  0.11624172882E+03  0.10000000000E+01 0.  0.
    9000005    1    3    3    0    0  0.23356904609E+02  0.57853225903E+02  0.11207730207E+03  0.12827650751E+03  0.10000000000E+01 0.  0.
<mgrwt>
<rscale>  0 0.12500163E+03</rscale>
<asrwt>0</asrwt>
<pdfrwt beam="1">  1        4 0.34974611E-01 0.12500163E+03</pdfrwt>
<pdfrwt beam="2">  1       -4 0.26435756E-02 0.12500163E+03</pdfrwt>
<totfact> 0.83126013E+03</totfact>
</mgrwt>
</event>
<event>
 5    1  0.3327068E-002  0.1250004E+03  0.7818608E-02  0.1235069E+00
          4   -1    0    0  501    0  0.00000000000E+00  0.00000000000E+00  0.30391027801E+02  0.30417552019E+02  0.12700000000E+01 0. -1.
         -4   -1    0    0    0  501 -0.00000000000E+00 -0.00000000000E+00 -0.12844809258E+03  0.12845437084E+03  0.12700000000E+01 0. -1.
         25    2    1    2    0    0  0.00000000000E+00  0.00000000000E+00 -0.98057064780E+02  0.15887192286E+03  0.12500039968E+03 0.  0.
    9000005    1    3    3    0    0 -0.11786425325E+01  0.53030309284E+02 -0.70350537876E+01  0.53517239118E+02  0.10000000000E+01 0.  0.
    9000005    1    3    3    0    0  0.11786425325E+01 -0.53030309284E+02 -0.91022010992E+02  0.10535468374E+03  0.10000000000E+01 0.  0.
<mgrwt>
<rscale>  0 0.12500040E+03</rscale>
<asrwt>0</asrwt>
<pdfrwt beam="1">  1        4 0.46780661E-02 0.12500040E+03</pdfrwt>
<pdfrwt beam="2">  1       -4 0.19763768E-01 0.12500040E+03</pdfrwt>
<totfact> 0.97559834E+03</totfact>
</mgrwt>
</event>
<event>
 5    1  0.3327068E-002  0.1250058E+03  0.7818608E-02  0.1235060E+00
         -4   -1    0    0    0  501 -0.00000000000E+00  0.00000000000E+00  0.65253380531E+03  0.65253504119E+03  0.12700000000E+01 0.  1.
          4   -1    0    0  501    0  0.00000000000E+00 -0.00000000000E+00 -0.59182275466E+01  0.60529593831E+01  0.12700000000E+01 0.  1.
         25    2    1    2    0    0  0.00000000000E+00  0.00000000000E+00  0.64661557777E+03  0.65858800057E+03  0.12500579620E+03 0.  0.
    9000005    1    3    3    0    0  0.47959420650E+02 -0.37340485049E+02  0.24674374194E+03  0.25412180552E+03  0.10000000000E+01 0.  0.
    9000005    1    3    3    0    0 -0.47959420650E+02  0.37340485049E+02  0.39987183583E+03  0.40446619505E+03  0.10000000000E+01 0.  0.
<mgrwt>
<rscale>  0 0.12500580E+03</rscale>
<asrwt>0</asrwt>
<pdfrwt beam="2">  1        4 0.92095547E-03 0.12500580E+03</pdfrwt>
<pdfrwt beam="1">  1       -4 0.10040029E+00 0.12500580E+03</pdfrwt>
<totfact> 0.45358817E+03</totfact>
</mgrwt>
</event>
<event>
 5    1  0.3327068E-002  0.1250035E+03  0.7818608E-02  0.1235064E+00
         -4   -1    0    0    0  501 -0.00000000000E+00  0.00000000000E+00  0.35912250364E+02  0.35934699473E+02  0.12700000000E+01 0. -1.
          4   -1    0    0  501    0  0.00000000000E+00 -0.00000000000E+00 -0.10871808740E+03  0.10872550496E+03  0.12700000000E+01 0. -1.
         25    2    1    2    0    0  0.00000000000E+00  0.00000000000E+00 -0.72805837041E+02  0.14466020443E+03  0.12500353931E+03 0.  0.
    9000005    1    3    3    0    0 -0.19015603366E+02  0.53773501657E+02 -0.68468513326E+01  0.57454869463E+02  0.10000000000E+01 0.  0.
    9000005    1    3    3    0    0  0.19015603366E+02 -0.53773501657E+02 -0.65958985708E+02  0.87205334971E+02  0.10000000000E+01 0.  0.
<mgrwt>
<rscale>  0 0.12500354E+03</rscale>
<asrwt>0</asrwt>
<pdfrwt beam="2">  1        4 0.16728157E-01 0.12500354E+03</pdfrwt>
<pdfrwt beam="1">  1       -4 0.55272591E-02 0.12500354E+03</pdfrwt>
<totfact> 0.10037097E+04</totfact>
</mgrwt>
</event>
<event>
 5    1  0.3327068E-002  0.1250029E+03  0.7818608E-02  0.1235065E+00
         -4   -1    0    0    0  501 -0.00000000000E+00  0.00000000000E+00  0.15336006966E+03  0.15336532811E+03  0.12700000000E+01 0.  1.
          4   -1    0    0  501    0  0.00000000000E+00 -0.00000000000E+00 -0.25450756161E+02  0.25482423142E+02  0.12700000000E+01 0.  1.
         25    2    1    2    0    0  0.00000000000E+00  0.00000000000E+00  0.12790931350E+03  0.17884775125E+03  0.12500290256E+03 0.  0.
    9000005    1    3    3    0    0  0.23322756190E+02 -0.25418205565E+02 -0.10600882543E+02  0.36102837023E+02  0.10000000000E+01 0.  0.
    9000005    1    3    3    0    0 -0.23322756190E+02  0.25418205565E+02  0.13851019604E+03  0.14274491423E+03  0.10000000000E+01 0.  0.
<mgrwt>
<rscale>  0 0.12500290E+03</rscale>
<asrwt>0</asrwt>
<pdfrwt beam="2">  1        4 0.39183414E-02 0.12500290E+03</pdfrwt>
<pdfrwt beam="1">  1       -4 0.23596697E-01 0.12500290E+03</pdfrwt>
<totfact> 0.93818717E+03</totfact>
</mgrwt>
</event>
<event>
 5    1  0.3327068E-002  0.1250024E+03  0.7818608E-02  0.1235066E+00
          4   -1    0    0  501    0  0.00000000000E+00  0.00000000000E+00  0.98493161174E+02  0.98501348712E+02  0.12700000000E+01 0.  1.
         -4   -1    0    0    0  501 -0.00000000000E+00 -0.00000000000E+00 -0.39641629318E+02  0.39661967613E+02  0.12700000000E+01 0.  1.
         25    2    1    2    0    0  0.00000000000E+00  0.00000000000E+00  0.58851531857E+02  0.13816331633E+03  0.12500239668E+03 0.  0.
    9000005    1    3    3    0    0 -0.55039508638E+02 -0.20613364844E+01 -0.32092352193E+01  0.55180574570E+02  0.10000000000E+01 0.  0.
    9000005    1    3    3    0    0  0.55039508638E+02  0.20613364844E+01  0.62060767076E+02  0.82982741755E+02  0.10000000000E+01 0.  0.
<mgrwt>
<rscale>  0 0.12500240E+03</rscale>
<asrwt>0</asrwt>
<pdfrwt beam="1">  1        4 0.15154988E-01 0.12500240E+03</pdfrwt>
<pdfrwt beam="2">  1       -4 0.61009064E-02 0.12500240E+03</pdfrwt>
<totfact> 0.10171245E+04</totfact>
</mgrwt>
</event>
<event>
 5    1  0.3327068E-002  0.1250023E+03  0.7818608E-02  0.1235066E+00
          4   -1    0    0  501    0  0.00000000000E+00  0.00000000000E+00  0.67285745281E+03  0.67285865135E+03  0.12700000000E+01 0.  1.
         -4   -1    0    0    0  501 -0.00000000000E+00 -0.00000000000E+00 -0.57350017614E+01  0.58739377936E+01  0.12700000000E+01 0.  1.
         25    2    1    2    0    0  0.00000000000E+00  0.00000000000E+00  0.66712245105E+03  0.67873258915E+03  0.12500225149E+03 0.  0.
    9000005    1    3    3    0    0  0.61967636208E+02  0.15690831862E+01  0.37663836526E+03  0.38170657335E+03  0.10000000000E+01 0.  0.
    9000005    1    3    3    0    0 -0.61967636208E+02 -0.15690831862E+01  0.29048408579E+03  0.29702601579E+03  0.10000000000E+01 0.  0.
<mgrwt>
<rscale>  0 0.12500225E+03</rscale>
<asrwt>0</asrwt>
<pdfrwt beam="1">  1        4 0.10352722E+00 0.12500225E+03</pdfrwt>
<pdfrwt beam="2">  1       -4 0.89308834E-03 0.12500225E+03</pdfrwt>
<totfact> 0.44231258E+03</totfact>
</mgrwt>
</event>
<event>
 5    1  0.3327068E-002  0.1249945E+03  0.7818608E-02  0.1235078E+00
         -4   -1    0    0    0  501 -0.00000000000E+00  0.00000000000E+00  0.25787381551E+03  0.25787694280E+03  0.12700000000E+01 0.  1.
          4   -1    0    0  501    0  0.00000000000E+00 -0.00000000000E+00 -0.15116722564E+02  0.15169976964E+02  0.12700000000E+01 0.  1.
         25    2    1    2    0    0  0.00000000000E+00  0.00000000000E+00  0.24275709295E+03  0.27304691976E+03  0.12499445674E+03 0.  0.
    9000005    1    3    3    0    0  0.84868281919E+01 -0.48637445851E+02  0.20505484473E+03  0.21091732204E+03  0.10000000000E+01 0.  0.
    9000005    1    3    3    0    0 -0.84868281919E+01  0.48637445851E+02  0.37702248218E+02  0.62129597716E+02  0.10000000000E+01 0.  0.
<mgrwt>
<rscale>  0 0.12499446E+03</rscale>
<asrwt>0</asrwt>
<pdfrwt beam="2">  1        4 0.23299869E-02 0.12499446E+03</pdfrwt>
<pdfrwt beam="1">  1       -4 0.39677227E-01 0.12499446E+03</pdfrwt>
<totfact> 0.79118914E+03</totfact>
</mgrwt>
</event>
<event>
 5    1  0.3327068E-002  0.1249975E+03  0.7818608E-02  0.1235073E+00
          4   -1    0    0  501    0  0.00000000000E+00  0.00000000000E+00  0.46304332476E+02  0.46321745498E+02  0.12700000000E+01 0.  1.
         -4   -1    0    0    0  501 -0.00000000000E+00 -0.00000000000E+00 -0.84318961485E+02  0.84328525220E+02  0.12700000000E+01 0.  1.
         25    2    1    2    0    0  0.00000000000E+00  0.00000000000E+00 -0.38014629009E+02  0.13065027072E+03  0.12499752486E+03 0.  0.
    9000005    1    3    3    0    0  0.31190096585E+02  0.34939969550E+02  0.24233489722E+02  0.52743583697E+02  0.10000000000E+01 0.  0.
    9000005    1    3    3    0    0 -0.31190096585E+02 -0.34939969550E+02 -0.62248118731E+02  0.77906687022E+02  0.10000000000E+01 0.  0.
<mgrwt>
<rscale>  0 0.12499752E+03</rscale>
<asrwt>0</asrwt>
<pdfrwt beam="1">  1        4 0.71258186E-02 0.12499752E+03</pdfrwt>
<pdfrwt beam="2">  1       -4 0.12974223E-01 0.12499752E+03</pdfrwt>
<totfact> 0.10331170E+04</totfact>
</mgrwt>
</event>
<event>
 5    1  0.3327068E-002  0.1249965E+03  0.7818608E-02  0.1235075E+00
          4   -1    0    0  501    0  0.00000000000E+00  0.00000000000E+00  0.19077646471E+03  0.19078069187E+03  0.12700000000E+01 0.  1.
         -4   -1    0    0    0  501 -0.00000000000E+00 -0.00000000000E+00 -0.20450249596E+02  0.20489646374E+02  0.12700000000E+01 0.  1.
         25    2    1    2    0    0  0.00000000000E+00  0.00000000000E+00  0.17032621512E+03  0.21127033824E+03  0.12499654501E+03 0.  0.
    9000005    1    3    3    0    0 -0.29412705128E+02 -0.44575393385E+02  0.14000932638E+03  0.14985220850E+03  0.10000000000E+01 0.  0.
    9000005    1    3    3    0    0  0.29412705128E+02  0.44575393385E+02  0.30316888740E+02  0.61418129744E+02  0.10000000000E+01 0.  0.
<mgrwt>
<rscale>  0 0.12499655E+03</rscale>
<asrwt>0</asrwt>
<pdfrwt beam="1">  1        4 0.29353582E-01 0.12499655E+03</pdfrwt>
<pdfrwt beam="2">  1       -4 0.31495478E-02 0.12499655E+03</pdfrwt>
<totfact> 0.88275653E+03</totfact>
</mgrwt>
</event>
<event>
 5    1  0.3327068E-002  0.1249975E+03  0.7818608E-02  0.1235073E+00
          4   -1    0    0  501    0  0.00000000000E+00  0.00000000000E+00  0.90786917902E+00  0.15611298621E+01  0.12700000000E+01 0.  1.
         -4   -1    0    0    0  501 -0.00000000000E+00 -0.00000000000E+00 -0.31634557734E+04  0.31634560283E+04  0.12700000000E+01 0.  1.
         25    2    1    2    0    0  0.00000000000E+00  0.00000000000E+00 -0.31625479042E+04  0.31650171582E+04  0.12499746053E+03 0.  0.
    9000005    1    3    3    0    0  0.19628109280E+02  0.41026445823E+02 -0.49612542233E+03  0.49820665051E+03  0.10000000000E+01 0.  0.
    9000005    1    3    3    0    0 -0.19628109280E+02 -0.41026445823E+02 -0.26664224819E+04  0.26668105077E+04  0.10000000000E+01 0.  0.
<mgrwt>
<rscale>  0 0.12499746E+03</rscale>
<asrwt>0</asrwt>
<pdfrwt beam="1">  1        4 0.18994515E-03 0.12499746E+03</pdfrwt>
<pdfrwt beam="2">  1       -4 0.48672928E+00 0.12499746E+03</pdfrwt>
<totfact> 0.12726161E+02</totfact>
</mgrwt>
</event>
<event>
 5    1  0.3327068E-002  0.1249997E+03  0.7818608E-02  0.1235070E+00
          4   -1    0    0  501    0  0.00000000000E+00  0.00000000000E+00  0.23751486837E+02  0.23785416267E+02  0.12700000000E+01 0.  1.
         -4   -1    0    0    0  501 -0.00000000000E+00 -0.00000000000E+00 -0.16430877552E+03  0.16431368358E+03  0.12700000000E+01 0.  1.
         25    2    1    2    0    0  0.00000000000E+00  0.00000000000E+00 -0.14055728868E+03  0.18809909985E+03  0.12499967985E+03 0.  0.
    9000005    1    3    3    0    0  0.10215158844E+01  0.59071368123E+02 -0.10092481605E+03  0.11694994024E+03  0.10000000000E+01 0.  0.
    9000005    1    3    3    0    0 -0.10215158844E+01 -0.59071368123E+02 -0.39632472630E+02  0.71149159611E+02  0.10000000000E+01 0.  0.
<mgrwt>
<rscale>  0 0.12499968E+03</rscale>
<asrwt>0</asrwt>
<pdfrwt beam="1">  1        4 0.36570625E-02 0.12499968E+03</pdfrwt>
<pdfrwt beam="2">  1       -4 0.25281260E-01 0.12499968E+03</pdfrwt>
<totfact> 0.92179782E+03</totfact>
</mgrwt>
</event>
<event>
 5    1  0.3327068E-002  0.1250007E+03  0.7818608E-02  0.1235068E+00
          4   -1    0    0  501    0  0.00000000000E+00  0.00000000000E+00  0.48984259128E+02  0.49000719814E+02  0.12700000000E+01 0. -1.
         -4   -1    0    0    0  501 -0.00000000000E+00 -0.00000000000E+00 -0.79710933997E+02  0.79721050537E+02  0.12700000000E+01 0. -1.
         25    2    1    2    0    0  0.00000000000E+00  0.00000000000E+00 -0.30726674869E+02  0.12872177035E+03  0.12500066245E+03 0.  0.
    9000005    1    3    3    0    0  0.49796298472E+02 -0.33497150166E+02  0.25783246022E+01  0.60078100574E+02  0.10000000000E+01 0.  0.
    9000005    1    3    3    0    0 -0.49796298472E+02  0.33497150166E+02 -0.33304999472E+02  0.68643669778E+02  0.10000000000E+01 0.  0.
<mgrwt>
<rscale>  0 0.12500066E+03</rscale>
<asrwt>0</asrwt>
<pdfrwt beam="1">  1        4 0.75380843E-02 0.12500066E+03</pdfrwt>
<pdfrwt beam="2">  1       -4 0.12265265E-01 0.12500066E+03</pdfrwt>
<totfact> 0.10371774E+04</totfact>
</mgrwt>
</event>
<event>
 5    1  0.3327068E-002  0.1249976E+03  0.7818608E-02  0.1235073E+00
          4   -1    0    0  501    0  0.00000000000E+00  0.00000000000E+00  0.72727730061E+02  0.72738817833E+02  0.12700000000E+01 0.  1.
         -4   -1    0    0    0  501 -0.00000000000E+00 -0.00000000000E+00 -0.53685841526E+02  0.53700861077E+02  0.12700000000E+01 0.  1.
         25    2    1    2    0    0  0.00000000000E+00  0.00000000000E+00  0.19041888534E+02  0.12643967891E+03  0.12499759551E+03 0.  0.
    9000005    1    3    3    0    0  0.11255913605E+02 -0.54560419115E+02  0.38159495423E+02  0.67532821769E+02  0.10000000000E+01 0.  0.
    9000005    1    3    3    0    0 -0.11255913605E+02  0.54560419115E+02 -0.19117606889E+02  0.58906857141E+02  0.10000000000E+01 0.  0.
<mgrwt>
<rscale>  0 0.12499760E+03</rscale>
<asrwt>0</asrwt>
<pdfrwt beam="1">  1        4 0.11190890E-01 0.12499760E+03</pdfrwt>
<pdfrwt beam="2">  1       -4 0.82613685E-02 0.12499760E+03</pdfrwt>
<totfact> 0.10421909E+04</totfact>
</mgrwt>
</event>
<event>
 5    1  0.3327068E-002  0.1250000E+03  0.7818608E-02  0.1235069E+00
         -4   -1    0    0    0  501 -0.00000000000E+00  0.00000000000E+00  0.98173848188E+02  0.98182062354E+02  0.12700000000E+01 0.  1.
          4   -1    0    0  501    0  0.00000000000E+00 -0.00000000000E+00 -0.39769102856E+02  0.39789375994E+02  0.12700000000E+01 0.  1.
         25    2    1    2    0    0  0.00000000000E+00  0.00000000000E+00  0.58404745332E+02  0.13797143835E+03  0.12500001409E+03 0.  0.
    9000005    1    3    3    0    0  0.36594186248E+02  0.13604261132E+02  0.83061897853E+02  0.91785016550E+02  0.10000000000E+01 0.  0.
    9000005    1    3    3    0    0 -0.36594186248E+02 -0.13604261132E+02 -0.24657152521E+02  0.46186421799E+02  0.10000000000E+01 0.  0.
<mgrwt>
<rscale>  0 0.12500001E+03</rscale>
<asrwt>0</asrwt>
<pdfrwt beam="2">  1        4 0.61205149E-02 0.12500001E+03</pdfrwt>
<pdfrwt beam="1">  1       -4 0.15105860E-01 0.12500001E+03</pdfrwt>
<totfact> 0.10175800E+04</totfact>
</mgrwt>
</event>
<event>
 5    1  0.3327068E-002  0.1250001E+03  0.7818608E-02  0.1235069E+00
          4   -1    0    0  501    0  0.00000000000E+00  0.00000000000E+00  0.12355980272E+04  0.12355986799E+04  0.12700000000E+01 0. -1.
         -4   -1    0    0    0  501 -0.00000000000E+00 -0.00000000000E+00 -0.30332035653E+01  0.32883466771E+01  0.12700000000E+01 0. -1.
         25    2    1    2    0    0  0.00000000000E+00  0.00000000000E+00  0.12325648237E+04  0.12388870266E+04  0.12500008044E+03 0.  0.
    9000005    1    3    3    0    0 -0.38411831294E+02  0.45739517070E+02  0.43415475630E+03  0.43824527907E+03  0.10000000000E+01 0.  0.
    9000005    1    3    3    0    0  0.38411831294E+02 -0.45739517070E+02  0.79841006738E+03  0.80064174754E+03  0.10000000000E+01 0.  0.
<mgrwt>
<rscale>  0 0.12500008E+03</rscale>
<asrwt>0</asrwt>
<pdfrwt beam="1">  1        4 0.19011151E+00 0.12500008E+03</pdfrwt>
<pdfrwt beam="2">  1       -4 0.48632373E-03 0.12500008E+03</pdfrwt>
<totfact> 0.23716954E+03</totfact>
</mgrwt>
</event>
<event>
 5    1  0.3327068E-002  0.1250146E+03  0.7818608E-02  0.1235046E+00
          4   -1    0    0  501    0  0.00000000000E+00  0.00000000000E+00  0.45020611168E+02  0.45038520512E+02  0.12700000000E+01 0. -1.
         -4   -1    0    0    0  501 -0.00000000000E+00 -0.00000000000E+00 -0.86746308551E+02  0.86755604703E+02  0.12700000000E+01 0. -1.
         25    2    1    2    0    0  0.00000000000E+00  0.00000000000E+00 -0.41725697384E+02  0.13179412521E+03  0.12501462962E+03 0.  0.
    9000005    1    3    3    0    0 -0.38162288422E+02  0.17251943058E+02  0.28044482527E+02  0.50413121278E+02  0.10000000000E+01 0.  0.
    9000005    1    3    3    0    0  0.38162288422E+02 -0.17251943058E+02 -0.69770179911E+02  0.81381003936E+02  0.10000000000E+01 0.  0.
<mgrwt>
<rscale>  0 0.12501463E+03</rscale>
<asrwt>0</asrwt>
<pdfrwt beam="1">  1        4 0.69283406E-02 0.12501463E+03</pdfrwt>
<pdfrwt beam="2">  1       -4 0.13347679E-01 0.12501463E+03</pdfrwt>
<totfact> 0.10302694E+04</totfact>
</mgrwt>
</event>
<event>
 5    1  0.3327068E-002  0.1250002E+03  0.7818608E-02  0.1235069E+00
          4   -1    0    0  501    0  0.00000000000E+00  0.00000000000E+00  0.78539242513E+02  0.78549509957E+02  0.12700000000E+01 0. -1.
         -4   -1    0    0    0  501 -0.00000000000E+00 -0.00000000000E+00 -0.49714811785E+02  0.49731030663E+02  0.12700000000E+01 0. -1.
         25    2    1    2    0    0  0.00000000000E+00  0.00000000000E+00  0.28824430728E+02  0.12828054062E+03  0.12500019718E+03 0.  0.
    9000005    1    3    3    0    0  0.24095048872E+02 -0.56296298100E+02  0.27206040526E+02  0.67015022204E+02  0.10000000000E+01 0.  0.
    9000005    1    3    3    0    0 -0.24095048872E+02  0.56296298100E+02  0.16183902021E+01  0.61265518416E+02  0.10000000000E+01 0.  0.
<mgrwt>
<rscale>  0 0.12500020E+03</rscale>
<asrwt>0</asrwt>
<pdfrwt beam="1">  1        4 0.12084998E-01 0.12500020E+03</pdfrwt>
<pdfrwt beam="2">  1       -4 0.76504700E-02 0.12500020E+03</pdfrwt>
<totfact> 0.10381387E+04</totfact>
</mgrwt>
</event>
<event>
 5    1  0.3327068E-002  0.1249987E+03  0.7818608E-02  0.1235071E+00
         -4   -1    0    0    0  501 -0.00000000000E+00  0.00000000000E+00  0.56000520930E+02  0.56014919837E+02  0.12700000000E+01 0. -1.
          4   -1    0    0  501    0  0.00000000000E+00 -0.00000000000E+00 -0.69723221735E+02  0.69734787223E+02  0.12700000000E+01 0. -1.
         25    2    1    2    0    0  0.00000000000E+00  0.00000000000E+00 -0.13722700805E+02  0.12574970706E+03  0.12499870523E+03 0.  0.
    9000005    1    3    3    0    0 -0.58965724502E+02 -0.19212395342E+02  0.87224639186E+00  0.62030908543E+02  0.10000000000E+01 0.  0.
    9000005    1    3    3    0    0  0.58965724502E+02  0.19212395342E+02 -0.14594947197E+02  0.63718798518E+02  0.10000000000E+01 0.  0.
<mgrwt>
<rscale>  0 0.12499871E+03</rscale>
<asrwt>0</asrwt>
<pdfrwt beam="2">  1        4 0.10728647E-01 0.12499871E+03</pdfrwt>
<pdfrwt beam="1">  1       -4 0.86174620E-02 0.12499871E+03</pdfrwt>
<totfact> 0.10436756E+04</totfact>
</mgrwt>
</event>
<event>
 5    1  0.3327068E-002  0.1250116E+03  0.7818608E-02  0.1235051E+00
          4   -1    0    0  501    0  0.00000000000E+00  0.00000000000E+00  0.56731052303E+03  0.56731194456E+03  0.12700000000E+01 0. -1.
         -4   -1    0    0    0  501 -0.00000000000E+00 -0.00000000000E+00 -0.68268398359E+01  0.69439644400E+01  0.12700000000E+01 0. -1.
         25    2    1    2    0    0  0.00000000000E+00  0.00000000000E+00  0.56048368320E+03  0.57425590900E+03  0.12501155904E+03 0.  0.
    9000005    1    3    3    0    0 -0.10365660073E+02 -0.44154513039E+02  0.47776250981E+03  0.47991153738E+03  0.10000000000E+01 0.  0.
    9000005    1    3    3    0    0  0.10365660073E+02  0.44154513039E+02  0.82721173389E+02  0.94344371625E+02  0.10000000000E+01 0.  0.
<mgrwt>
<rscale>  0 0.12501156E+03</rscale>
<asrwt>0</asrwt>
<pdfrwt beam="1">  1        4 0.87287666E-01 0.12501156E+03</pdfrwt>
<pdfrwt beam="2">  1       -4 0.10594019E-02 0.12501156E+03</pdfrwt>
<totfact> 0.50521230E+03</totfact>
</mgrwt>
</event>
<event>
 5    1  0.3327068E-002  0.1250070E+03  0.7818608E-02  0.1235058E+00
          4   -1    0    0  501    0  0.00000000000E+00  0.00000000000E+00  0.13517707286E+04  0.13517713252E+04  0.12700000000E+01 0.  1.
         -4   -1    0    0    0  501 -0.00000000000E+00 -0.00000000000E+00 -0.27499049302E+01  0.30290059632E+01  0.12700000000E+01 0.  1.
         25    2    1    2    0    0  0.00000000000E+00  0.00000000000E+00  0.13490208236E+04  0.13548003311E+04  0.12500701817E+03 0.  0.
    9000005    1    3    3    0    0  0.11156022986E+02 -0.44651917400E+02  0.21630902412E+03  0.22115344106E+03  0.10000000000E+01 0.  0.
    9000005    1    3    3    0    0 -0.11156022986E+02  0.44651917400E+02  0.11327117995E+04  0.11336468901E+04  0.10000000000E+01 0.  0.
<mgrwt>
<rscale>  0 0.12500702E+03</rscale>
<asrwt>0</asrwt>
<pdfrwt beam="1">  1        4 0.20798638E+00 0.12500702E+03</pdfrwt>
<pdfrwt beam="2">  1       -4 0.44457721E-03 0.12500702E+03</pdfrwt>
<totfact> 0.20967607E+03</totfact>
</mgrwt>
</event>
<event>
 5    1  0.3327068E-002  0.1249994E+03  0.7818608E-02  0.1235070E+00
          4   -1    0    0  501    0  0.00000000000E+00  0.00000000000E+00  0.16240826832E+03  0.16241323382E+03  0.12700000000E+01 0.  1.
         -4   -1    0    0    0  501 -0.00000000000E+00 -0.00000000000E+00 -0.24029711779E+02  0.24063248912E+02  0.12700000000E+01 0.  1.
         25    2    1    2    0    0  0.00000000000E+00  0.00000000000E+00  0.13837855654E+03  0.18647648273E+03  0.12499941480E+03 0.  0.
    9000005    1    3    3    0    0  0.34093703724E+02  0.42235198785E+02  0.11538801465E+03  0.12752092602E+03  0.10000000000E+01 0.  0.
    9000005    1    3    3    0    0 -0.34093703724E+02 -0.42235198785E+02  0.22990541899E+02  0.58955556709E+02  0.10000000000E+01 0.  0.
<mgrwt>
<rscale>  0 0.12499941E+03</rscale>
<asrwt>0</asrwt>
<pdfrwt beam="1">  1        4 0.24988849E-01 0.12499941E+03</pdfrwt>
<pdfrwt beam="2">  1       -4 0.36998405E-02 0.12499941E+03</pdfrwt>
<totfact> 0.92465247E+03</totfact>
</mgrwt>
</event>
<event>
 5    1  0.3327068E-002  0.1250034E+03  0.7818608E-02  0.1235064E+00
         -4   -1    0    0    0  501 -0.00000000000E+00  0.00000000000E+00  0.29894509484E+01  0.32480327851E+01  0.12700000000E+01 0.  1.
          4   -1    0    0  501    0  0.00000000000E+00 -0.00000000000E+00 -0.12523184482E+04  0.12523190921E+04  0.12700000000E+01 0.  1.
         25    2    1    2    0    0  0.00000000000E+00  0.00000000000E+00 -0.12493289972E+04  0.12555671249E+04  0.12500344748E+03 0.  0.
    9000005    1    3    3    0    0 -0.52045076989E+01  0.20867700443E+02 -0.12140253207E+04  0.12142162193E+04  0.10000000000E+01 0.  0.
    9000005    1    3    3    0    0  0.52045076989E+01 -0.20867700443E+02 -0.35303676478E+02  0.41350905613E+02  0.10000000000E+01 0.  0.
<mgrwt>
<rscale>  0 0.12500345E+03</rscale>
<asrwt>0</asrwt>
<pdfrwt beam="2">  1        4 0.19268392E+00 0.12500345E+03</pdfrwt>
<pdfrwt beam="1">  1       -4 0.47985698E-03 0.12500345E+03</pdfrwt>
<totfact> 0.23300404E+03</totfact>
</mgrwt>
</event>
<event>
 5    1  0.3327068E-002  0.1250015E+03  0.7818608E-02  0.1235067E+00
         -4   -1    0    0    0  501 -0.00000000000E+00  0.00000000000E+00  0.53767263811E+02  0.53782260623E+02  0.12700000000E+01 0.  1.
          4   -1    0    0  501    0  0.00000000000E+00 -0.00000000000E+00 -0.72622097620E+02  0.72633201518E+02  0.12700000000E+01 0.  1.
         25    2    1    2    0    0  0.00000000000E+00  0.00000000000E+00 -0.18854833809E+02  0.12641546214E+03  0.12500145723E+03 0.  0.
    9000005    1    3    3    0    0 -0.59576039260E+02  0.16968912908E+02 -0.17772585942E+02  0.64452410896E+02  0.10000000000E+01 0.  0.
    9000005    1    3    3    0    0  0.59576039260E+02 -0.16968912908E+02 -0.10822478663E+01  0.61963051246E+02  0.10000000000E+01 0.  0.
<mgrwt>
<rscale>  0 0.12500146E+03</rscale>
<asrwt>0</asrwt>
<pdfrwt beam="2">  1        4 0.11174638E-01 0.12500146E+03</pdfrwt>
<pdfrwt beam="1">  1       -4 0.82738945E-02 0.12500146E+03</pdfrwt>
<totfact> 0.10421529E+04</totfact>
</mgrwt>
</event>
<event>
 5    1  0.3327068E-002  0.1249476E+03  0.7818608E-02  0.1235151E+00
         -4   -1    0    0    0  501 -0.00000000000E+00  0.00000000000E+00  0.16477944934E+03  0.16478434338E+03  0.12700000000E+01 0.  1.
          4   -1    0    0  501    0  0.00000000000E+00 -0.00000000000E+00 -0.23663773134E+02  0.23697828148E+02  0.12700000000E+01 0.  1.
         25    2    1    2    0    0  0.00000000000E+00  0.00000000000E+00  0.14111567620E+03  0.18848217153E+03  0.12494756866E+03 0.  0.
    9000005    1    3    3    0    0 -0.36509372379E+01 -0.18222437369E+01  0.16458559526E+03  0.16463920579E+03  0.10000000000E+01 0.  0.
    9000005    1    3    3    0    0  0.36509372379E+01  0.18222437369E+01 -0.23469919057E+02  0.23842965744E+02  0.10000000000E+01 0.  0.
<mgrwt>
<rscale>  0 0.12494757E+03</rscale>
<asrwt>0</asrwt>
<pdfrwt beam="2">  1        4 0.36435766E-02 0.12494757E+03</pdfrwt>
<pdfrwt beam="1">  1       -4 0.25353680E-01 0.12494757E+03</pdfrwt>
<totfact> 0.92220365E+03</totfact>
</mgrwt>
</event>
<event>
 5    1  0.3327068E-002  0.1249924E+03  0.7818608E-02  0.1235081E+00
         -4   -1    0    0    0  501 -0.00000000000E+00  0.00000000000E+00  0.49624332081E+03  0.49624494592E+03  0.12700000000E+01 0.  1.
          4   -1    0    0  501    0  0.00000000000E+00 -0.00000000000E+00 -0.78178007278E+01  0.79202846047E+01  0.12700000000E+01 0.  1.
         25    2    1    2    0    0  0.00000000000E+00  0.00000000000E+00  0.48842552008E+03  0.50416523052E+03  0.12499236377E+03 0.  0.
    9000005    1    3    3    0    0  0.55450592937E+02 -0.11700285445E+02  0.13802124728E+03  0.14920633243E+03  0.10000000000E+01 0.  0.
    9000005    1    3    3    0    0 -0.55450592937E+02  0.11700285445E+02  0.35040427280E+03  0.35495889809E+03  0.10000000000E+01 0.  0.
<mgrwt>
<rscale>  0 0.12499236E+03</rscale>
<asrwt>0</asrwt>
<pdfrwt beam="2">  1        4 0.12107466E-02 0.12499236E+03</pdfrwt>
<pdfrwt beam="1">  1       -4 0.76353159E-01 0.12499236E+03</pdfrwt>
<totfact> 0.55551950E+03</totfact>
</mgrwt>
</event>
<event>
 5    1  0.3327068E-002  0.1250032E+03  0.7818608E-02  0.1235064E+00
         -4   -1    0    0    0  501 -0.00000000000E+00  0.00000000000E+00  0.76934483147E+02  0.76944964729E+02  0.12700000000E+01 0. -1.
          4   -1    0    0  501    0  0.00000000000E+00 -0.00000000000E+00 -0.50754473248E+02  0.50770360001E+02  0.12700000000E+01 0. -1.
         25    2    1    2    0    0  0.00000000000E+00  0.00000000000E+00  0.26180009900E+02  0.12771532473E+03  0.12500324497E+03 0.  0.
    9000005    1    3    3    0    0  0.38032820725E+01 -0.56599610415E+02 -0.13698545819E+02  0.58366351704E+02  0.10000000000E+01 0.  0.
    9000005    1    3    3    0    0 -0.38032820725E+01  0.56599610415E+02  0.39878555719E+02  0.69348973027E+02  0.10000000000E+01 0.  0.
<mgrwt>
<rscale>  0 0.12500324E+03</rscale>
<asrwt>0</asrwt>
<pdfrwt beam="2">  1        4 0.78104089E-02 0.12500324E+03</pdfrwt>
<pdfrwt beam="1">  1       -4 0.11838103E-01 0.12500324E+03</pdfrwt>
<totfact> 0.10392879E+04</totfact>
</mgrwt>
</event>
<event>
 5    1  0.3327068E-002  0.1250037E+03  0.7818608E-02  0.1235063E+00
         -4   -1    0    0    0  501 -0.00000000000E+00  0.00000000000E+00  0.12081649729E+03  0.12082317210E+03  0.12700000000E+01 0. -1.
          4   -1    0    0  501    0  0.00000000000E+00 -0.00000000000E+00 -0.32313984421E+02  0.32338931478E+02  0.12700000000E+01 0. -1.
         25    2    1    2    0    0  0.00000000000E+00  0.00000000000E+00  0.88502512867E+02  0.15316210358E+03  0.12500374070E+03 0.  0.
    9000005    1    3    3    0    0 -0.60193772531E+02  0.35821920402E+01  0.24141999151E+02  0.64961207457E+02  0.10000000000E+01 0.  0.
    9000005    1    3    3    0    0  0.60193772531E+02 -0.35821920402E+01  0.64360513717E+02  0.88200896124E+02  0.10000000000E+01 0.  0.
<mgrwt>
<rscale>  0 0.12500374E+03</rscale>
<asrwt>0</asrwt>
<pdfrwt beam="2">  1        4 0.49738147E-02 0.12500374E+03</pdfrwt>
<pdfrwt beam="1">  1       -4 0.18589586E-01 0.12500374E+03</pdfrwt>
<totfact> 0.98668770E+03</totfact>
</mgrwt>
</event>
<event>
 5    1  0.3327068E-002  0.1250003E+03  0.7818608E-02  0.1235069E+00
          4   -1    0    0  501    0  0.00000000000E+00  0.00000000000E+00  0.11089248348E+03  0.11089975560E+03  0.12700000000E+01 0.  1.
         -4   -1    0    0    0  501 -0.00000000000E+00 -0.00000000000E+00 -0.35205874751E+02  0.35228773993E+02  0.12700000000E+01 0.  1.
         25    2    1    2    0    0  0.00000000000E+00  0.00000000000E+00  0.75686608727E+02  0.14612852959E+03  0.12500033768E+03 0.  0.
    9000005    1    3    3    0    0  0.55051081624E+02  0.15825325261E+02  0.86361866459E+01  0.57936570725E+02  0.10000000000E+01 0.  0.
    9000005    1    3    3    0    0 -0.55051081624E+02 -0.15825325261E+02  0.67050422081E+02  0.88191958867E+02  0.10000000000E+01 0.  0.
<mgrwt>
<rscale>  0 0.12500034E+03</rscale>
<asrwt>0</asrwt>
<pdfrwt beam="1">  1        4 0.17062703E-01 0.12500034E+03</pdfrwt>
<pdfrwt beam="2">  1       -4 0.54186093E-02 0.12500034E+03</pdfrwt>
<totfact> 0.10008033E+04</totfact>
</mgrwt>
</event>
<event>
 5    1  0.3327068E-002  0.1250008E+03  0.7818608E-02  0.1235068E+00
          4   -1    0    0  501    0  0.00000000000E+00  0.00000000000E+00  0.97033818765E+03  0.97033901875E+03  0.12700000000E+01 0.  1.
         -4   -1    0    0    0  501 -0.00000000000E+00 -0.00000000000E+00 -0.39246924486E+01  0.41250588864E+01  0.12700000000E+01 0.  1.
         25    2    1    2    0    0  0.00000000000E+00  0.00000000000E+00  0.96641349520E+03  0.97446407764E+03  0.12500077960E+03 0.  0.
    9000005    1    3    3    0    0  0.31428739587E+02  0.39881974721E+02  0.76718312563E+03  0.76886233217E+03  0.10000000000E+01 0.  0.
    9000005    1    3    3    0    0 -0.31428739587E+02 -0.39881974721E+02  0.19923036957E+03  0.20560174547E+03  0.10000000000E+01 0.  0.
<mgrwt>
<rscale>  0 0.12500078E+03</rscale>
<asrwt>0</asrwt>
<pdfrwt beam="1">  1        4 0.14929816E+00 0.12500078E+03</pdfrwt>
<pdfrwt beam="2">  1       -4 0.61927603E-03 0.12500078E+03</pdfrwt>
<totfact> 0.31462502E+03</totfact>
</mgrwt>
</event>
<event>
 5    1  0.3327068E-002  0.1250004E+03  0.7818608E-02  0.1235069E+00
         -4   -1    0    0    0  501 -0.00000000000E+00  0.00000000000E+00  0.61692799334E+02  0.61705869978E+02  0.12700000000E+01 0.  1.
          4   -1    0    0  501    0  0.00000000000E+00 -0.00000000000E+00 -0.63291990625E+02  0.63304731082E+02  0.12700000000E+01 0.  1.
         25    2    1    2    0    0  0.00000000000E+00  0.00000000000E+00 -0.15991912910E+01  0.12501060106E+03  0.12500037186E+03 0.  0.
    9000005    1    3    3    0    0 -0.23308744326E+02 -0.55543974916E+02  0.15840351512E+02  0.62292434914E+02  0.10000000000E+01 0.  0.
    9000005    1    3    3    0    0  0.23308744326E+02  0.55543974916E+02 -0.17439542803E+02  0.62718166146E+02  0.10000000000E+01 0.  0.
<mgrwt>
<rscale>  0 0.12500037E+03</rscale>
<asrwt>0</asrwt>
<pdfrwt beam="2">  1        4 0.97392147E-02 0.12500037E+03</pdfrwt>
<pdfrwt beam="1">  1       -4 0.94931854E-02 0.12500037E+03</pdfrwt>
<totfact> 0.10452544E+04</totfact>
</mgrwt>
</event>
<event>
 5    1  0.3327068E-002  0.1249883E+03  0.7818608E-02  0.1235088E+00
          4   -1    0    0  501    0  0.00000000000E+00  0.00000000000E+00  0.15038773302E+02  0.15092302754E+02  0.12700000000E+01 0.  1.
         -4   -1    0    0    0  501 -0.00000000000E+00 -0.00000000000E+00 -0.25918002771E+03  0.25918313924E+03  0.12700000000E+01 0.  1.
         25    2    1    2    0    0  0.00000000000E+00  0.00000000000E+00 -0.24414125441E+03  0.27427544199E+03  0.12498826335E+03 0.  0.
    9000005    1    3    3    0    0 -0.18053503607E+01  0.91333641260E+01 -0.25766026078E+03  0.25783034657E+03  0.10000000000E+01 0.  0.
    9000005    1    3    3    0    0  0.18053503607E+01 -0.91333641260E+01  0.13519006367E+02  0.16445095418E+02  0.10000000000E+01 0.  0.
<mgrwt>
<rscale>  0 0.12498826E+03</rscale>
<asrwt>0</asrwt>
<pdfrwt beam="1">  1        4 0.23180146E-02 0.12498826E+03</pdfrwt>
<pdfrwt beam="2">  1       -4 0.39878204E-01 0.12498826E+03</pdfrwt>
<totfact> 0.78963923E+03</totfact>
</mgrwt>
</event>
<event>
 5    1  0.3327068E-002  0.1250025E+03  0.7818608E-02  0.1235065E+00
         -4   -1    0    0    0  501 -0.00000000000E+00  0.00000000000E+00  0.30196274257E+02  0.30222969394E+02  0.12700000000E+01 0. -1.
          4   -1    0    0  501    0  0.00000000000E+00 -0.00000000000E+00 -0.12928025467E+03  0.12928649252E+03  0.12700000000E+01 0. -1.
         25    2    1    2    0    0  0.00000000000E+00  0.00000000000E+00 -0.99083980411E+02  0.15950946191E+03  0.12500253303E+03 0.  0.
    9000005    1    3    3    0    0 -0.11877973997E+02  0.49143296817E+02 -0.96414175963E+02  0.10887076382E+03  0.10000000000E+01 0.  0.
    9000005    1    3    3    0    0  0.11877973997E+02 -0.49143296817E+02 -0.26698044477E+01  0.50638698088E+02  0.10000000000E+01 0.  0.
<mgrwt>
<rscale>  0 0.12500253E+03</rscale>
<asrwt>0</asrwt>
<pdfrwt beam="2">  1        4 0.19891803E-01 0.12500253E+03</pdfrwt>
<pdfrwt beam="1">  1       -4 0.46481140E-02 0.12500253E+03</pdfrwt>
<totfact> 0.97431892E+03</totfact>
</mgrwt>
</event>
<event>
 5    1  0.3327068E-002  0.1249990E+03  0.7818608E-02  0.1235071E+00
         -4   -1    0    0    0  501 -0.00000000000E+00  0.00000000000E+00  0.98972715191E+02  0.98980863061E+02  0.12700000000E+01 0. -1.
          4   -1    0    0  501    0  0.00000000000E+00 -0.00000000000E+00 -0.39447295961E+02  0.39467734399E+02  0.12700000000E+01 0. -1.
         25    2    1    2    0    0  0.00000000000E+00  0.00000000000E+00  0.59525419231E+02  0.13844859746E+03  0.12499895441E+03 0.  0.
    9000005    1    3    3    0    0  0.69377582800E+01 -0.62089178668E+02  0.31323618825E+02  0.69895405385E+02  0.10000000000E+01 0.  0.
    9000005    1    3    3    0    0 -0.69377582800E+01  0.62089178668E+02  0.28201800406E+02  0.68553192076E+02  0.10000000000E+01 0.  0.
<mgrwt>
<rscale>  0 0.12499895E+03</rscale>
<asrwt>0</asrwt>
<pdfrwt beam="2">  1        4 0.60710138E-02 0.12499895E+03</pdfrwt>
<pdfrwt beam="1">  1       -4 0.15228770E-01 0.12499895E+03</pdfrwt>
<totfact> 0.10166081E+04</totfact>
</mgrwt>
</event>
<event>
 5    1  0.3327068E-002  0.1249955E+03  0.7818608E-02  0.1235076E+00
          4   -1    0    0  501    0  0.00000000000E+00  0.00000000000E+00  0.55894242249E+03  0.55894386531E+03  0.12700000000E+01 0.  1.
         -4   -1    0    0    0  501 -0.00000000000E+00 -0.00000000000E+00 -0.69289782094E+01  0.70444048029E+01  0.12700000000E+01 0.  1.
         25    2    1    2    0    0  0.00000000000E+00  0.00000000000E+00  0.55201344428E+03  0.56598827011E+03  0.12499551684E+03 0.  0.
    9000005    1    3    3    0    0 -0.46737910296E+02 -0.20739738747E+02  0.43866467547E+03  0.44163589814E+03  0.10000000000E+01 0.  0.
    9000005    1    3    3    0    0  0.46737910296E+02  0.20739738747E+02  0.11334876881E+03  0.12435237197E+03  0.10000000000E+01 0.  0.
<mgrwt>
<rscale>  0 0.12499552E+03</rscale>
<asrwt>0</asrwt>
<pdfrwt beam="1">  1        4 0.86000150E-01 0.12499552E+03</pdfrwt>
<pdfrwt beam="2">  1       -4 0.10749864E-02 0.12499552E+03</pdfrwt>
<totfact> 0.51092424E+03</totfact>
</mgrwt>
</event>
<event>
 5    1  0.3327068E-002  0.1249986E+03  0.7818608E-02  0.1235071E+00
         -4   -1    0    0    0  501 -0.00000000000E+00  0.00000000000E+00  0.12435064432E+03  0.12435712944E+03  0.12700000000E+01 0. -1.
          4   -1    0    0  501    0  0.00000000000E+00 -0.00000000000E+00 -0.31392336760E+02  0.31418015648E+02  0.12700000000E+01 0. -1.
         25    2    1    2    0    0  0.00000000000E+00  0.00000000000E+00  0.92958307562E+02  0.15577514509E+03  0.12499859553E+03 0.  0.
    9000005    1    3    3    0    0 -0.60901601647E+01 -0.55566129297E+02  0.81294699708E+02  0.98663635532E+02  0.10000000000E+01 0.  0.
    9000005    1    3    3    0    0  0.60901601647E+01  0.55566129297E+02  0.11663607854E+02  0.57111509558E+02  0.10000000000E+01 0.  0.
<mgrwt>
<rscale>  0 0.12499860E+03</rscale>
<asrwt>0</asrwt>
<pdfrwt beam="2">  1        4 0.48320643E-02 0.12499860E+03</pdfrwt>
<pdfrwt beam="1">  1       -4 0.19133343E-01 0.12499860E+03</pdfrwt>
<totfact> 0.98166643E+03</totfact>
</mgrwt>
</event>
<event>
 5    1  0.3327068E-002  0.1249999E+03  0.7818608E-02  0.1235069E+00
         -4   -1    0    0    0  501 -0.00000000000E+00  0.00000000000E+00  0.13665284322E+03  0.13665874454E+03  0.12700000000E+01 0.  1.
          4   -1    0    0  501    0  0.00000000000E+00 -0.00000000000E+00 -0.28564550836E+02  0.28592769444E+02  0.12700000000E+01 0.  1.
         25    2    1    2    0    0  0.00000000000E+00  0.00000000000E+00  0.10808829238E+03  0.16525151399E+03  0.12499993570E+03 0.  0.
    9000005    1    3    3    0    0  0.33797471729E+01 -0.20754828224E+02  0.13184165497E+03  0.13351182558E+03  0.10000000000E+01 0.  0.
    9000005    1    3    3    0    0 -0.33797471729E+01  0.20754828224E+02 -0.23753362588E+02  0.31739688401E+02  0.10000000000E+01 0.  0.
<mgrwt>
<rscale>  0 0.12499994E+03</rscale>
<asrwt>0</asrwt>
<pdfrwt beam="2">  1        4 0.43971709E-02 0.12499994E+03</pdfrwt>
<pdfrwt beam="1">  1       -4 0.21026139E-01 0.12499994E+03</pdfrwt>
<totfact> 0.96339920E+03</totfact>
</mgrwt>
</event>
<event>
 5    1  0.3327068E-002  0.1250037E+03  0.7818608E-02  0.1235063E+00
         -4   -1    0    0    0  501 -0.00000000000E+00  0.00000000000E+00  0.34499968291E+03  0.34500202044E+03  0.12700000000E+01 0.  1.
          4   -1    0    0  501    0  0.00000000000E+00 -0.00000000000E+00 -0.11285156804E+02  0.11356393093E+02  0.12700000000E+01 0.  1.
         25    2    1    2    0    0  0.00000000000E+00  0.00000000000E+00  0.33371452611E+03  0.35635841353E+03  0.12500373579E+03 0.  0.
    9000005    1    3    3    0    0  0.43509624240E+02 -0.24612241428E+02  0.59938351856E+02  0.78054185364E+02  0.10000000000E+01 0.  0.
    9000005    1    3    3    0    0 -0.43509624240E+02  0.24612241428E+02  0.27377617425E+03  0.27830422817E+03  0.10000000000E+01 0.  0.
<mgrwt>
<rscale>  0 0.12500374E+03</rscale>
<asrwt>0</asrwt>
<pdfrwt beam="2">  1        4 0.17418377E-02 0.12500374E+03</pdfrwt>
<pdfrwt beam="1">  1       -4 0.53082528E-01 0.12500374E+03</pdfrwt>
<totfact> 0.69024968E+03</totfact>
</mgrwt>
</event>
<event>
 5    1  0.3327068E-002  0.1250000E+03  0.7818608E-02  0.1235069E+00
          4   -1    0    0  501    0  0.00000000000E+00  0.00000000000E+00  0.91186047598E+01  0.92066200511E+01  0.12700000000E+01 0.  1.
         -4   -1    0    0    0  501 -0.00000000000E+00 -0.00000000000E+00 -0.42623623772E+03  0.42623812974E+03  0.12700000000E+01 0.  1.
         25    2    1    2    0    0  0.00000000000E+00  0.00000000000E+00 -0.41711763296E+03  0.43544474979E+03  0.12500004158E+03 0.  0.
    9000005    1    3    3    0    0  0.41133549368E+02 -0.84516444339E+01 -0.47339240597E+02  0.63288252287E+02  0.10000000000E+01 0.  0.
    9000005    1    3    3    0    0 -0.41133549368E+02  0.84516444339E+01 -0.36977839236E+03  0.37215649750E+03  0.10000000000E+01 0.  0.
<mgrwt>
<rscale>  0 0.12500004E+03</rscale>
<asrwt>0</asrwt>
<pdfrwt beam="1">  1        4 0.14097785E-02 0.12500004E+03</pdfrwt>
<pdfrwt beam="2">  1       -4 0.65581706E-01 0.12500004E+03</pdfrwt>
<totfact> 0.61245491E+03</totfact>
</mgrwt>
</event>
<event>
 5    1  0.3327068E-002  0.1249991E+03  0.7818608E-02  0.1235071E+00
          4   -1    0    0  501    0  0.00000000000E+00  0.00000000000E+00  0.19796294124E+02  0.19836989717E+02  0.12700000000E+01 0.  1.
         -4   -1    0    0    0  501 -0.00000000000E+00 -0.00000000000E+00 -0.19707408221E+03  0.19707817428E+03  0.12700000000E+01 0.  1.
         25    2    1    2    0    0  0.00000000000E+00  0.00000000000E+00 -0.17727778808E+03  0.21691516400E+03  0.12499909690E+03 0.  0.
    9000005    1    3    3    0    0 -0.50434569371E+02 -0.36632187329E+02 -0.96327543239E+02  0.11474126774E+03  0.10000000000E+01 0.  0.
    9000005    1    3    3    0    0  0.50434569371E+02  0.36632187329E+02 -0.80950244844E+02  0.10217389626E+03  0.10000000000E+01 0.  0.
<mgrwt>
<rscale>  0 0.12499910E+03</rscale>
<asrwt>0</asrwt>
<pdfrwt beam="1">  1        4 0.30490291E-02 0.12499910E+03</pdfrwt>
<pdfrwt beam="2">  1       -4 0.30322533E-01 0.12499910E+03</pdfrwt>
<totfact> 0.87360614E+03</totfact>
</mgrwt>
</event>
<event>
 5    1  0.3327068E-002  0.1250051E+03  0.7818608E-02  0.1235061E+00
          4   -1    0    0  501    0  0.00000000000E+00  0.00000000000E+00  0.95569083278E+02  0.95577521303E+02  0.12700000000E+01 0. -1.
         -4   -1    0    0    0  501 -0.00000000000E+00 -0.00000000000E+00 -0.40856786692E+02  0.40876520385E+02  0.12700000000E+01 0. -1.
         25    2    1    2    0    0  0.00000000000E+00  0.00000000000E+00  0.54712296586E+02  0.13645404169E+03  0.12500508028E+03 0.  0.
    9000005    1    3    3    0    0 -0.19600779771E+02  0.51408786894E+02 -0.49982242271E+01  0.55254286557E+02  0.10000000000E+01 0.  0.
    9000005    1    3    3    0    0  0.19600779771E+02 -0.51408786894E+02  0.59710520813E+02  0.81199755131E+02  0.10000000000E+01 0.  0.
<mgrwt>
<rscale>  0 0.12500508E+03</rscale>
<asrwt>0</asrwt>
<pdfrwt beam="1">  1        4 0.14705103E-01 0.12500508E+03</pdfrwt>
<pdfrwt beam="2">  1       -4 0.62878266E-02 0.12500508E+03</pdfrwt>
<totfact> 0.10206344E+04</totfact>
</mgrwt>
</event>
<event>
 5    1  0.3327068E-002  0.1250003E+03  0.7818608E-02  0.1235069E+00
          4   -1    0    0  501    0  0.00000000000E+00  0.00000000000E+00  0.96265816522E+01  0.97099935276E+01  0.12700000000E+01 0. -1.
         -4   -1    0    0    0  501 -0.00000000000E+00 -0.00000000000E+00 -0.40394492757E+03  0.40394692400E+03  0.12700000000E+01 0. -1.
         25    2    1    2    0    0  0.00000000000E+00  0.00000000000E+00 -0.39431834592E+03  0.41365691753E+03  0.12500034997E+03 0.  0.
    9000005    1    3    3    0    0 -0.36429046968E+02  0.45692563427E+02 -0.27044130895E+03  0.27668463528E+03  0.10000000000E+01 0.  0.
    9000005    1    3    3    0    0  0.36429046968E+02 -0.45692563427E+02 -0.12387703697E+03  0.13697228225E+03  0.10000000000E+01 0.  0.
<mgrwt>
<rscale>  0 0.12500035E+03</rscale>
<asrwt>0</asrwt>
<pdfrwt beam="1">  1        4 0.14875827E-02 0.12500035E+03</pdfrwt>
<pdfrwt beam="2">  1       -4 0.62151930E-01 0.12500035E+03</pdfrwt>
<totfact> 0.63245377E+03</totfact>
</mgrwt>
</event>
<event>
 5    1  0.3327068E-002  0.1250016E+03  0.7818608E-02  0.1235067E+00
         -4   -1    0    0    0  501 -0.00000000000E+00  0.00000000000E+00  0.26913600217E+03  0.26913899860E+03  0.12700000000E+01 0. -1.
          4   -1    0    0  501    0  0.00000000000E+00 -0.00000000000E+00 -0.14483540165E+02  0.14539113994E+02  0.12700000000E+01 0. -1.
         25    2    1    2    0    0  0.00000000000E+00  0.00000000000E+00  0.25465246201E+03  0.28367811259E+03  0.12500158062E+03 0.  0.
    9000005    1    3    3    0    0  0.32794323254E+02 -0.36864841805E+02  0.40290682512E+02  0.63708894954E+02  0.10000000000E+01 0.  0.
    9000005    1    3    3    0    0 -0.32794323254E+02  0.36864841805E+02  0.21436177950E+03  0.21996921764E+03  0.10000000000E+01 0.  0.
<mgrwt>
<rscale>  0 0.12500158E+03</rscale>
<asrwt>0</asrwt>
<pdfrwt beam="2">  1        4 0.22327424E-02 0.12500158E+03</pdfrwt>
<pdfrwt beam="1">  1       -4 0.41410044E-01 0.12500158E+03</pdfrwt>
<totfact> 0.77690198E+03</totfact>
</mgrwt>
</event>
<event>
 5    1  0.3327068E-002  0.1250027E+03  0.7818608E-02  0.1235065E+00
          4   -1    0    0  501    0  0.00000000000E+00  0.00000000000E+00  0.13806630673E+02  0.13864917978E+02  0.12700000000E+01 0.  1.
         -4   -1    0    0    0  501 -0.00000000000E+00 -0.00000000000E+00 -0.28228232422E+03  0.28228518109E+03  0.12700000000E+01 0.  1.
         25    2    1    2    0    0  0.00000000000E+00  0.00000000000E+00 -0.26847569354E+03  0.29615009907E+03  0.12500273260E+03 0.  0.
    9000005    1    3    3    0    0  0.85826089385E+01  0.16520129225E+02 -0.27557193078E+03  0.27620185532E+03  0.10000000000E+01 0.  0.
    9000005    1    3    3    0    0 -0.85826089385E+01 -0.16520129225E+02  0.70962372407E+01  0.19948243752E+02  0.10000000000E+01 0.  0.
<mgrwt>
<rscale>  0 0.12500273E+03</rscale>
<asrwt>0</asrwt>
<pdfrwt beam="1">  1        4 0.21288006E-02 0.12500273E+03</pdfrwt>
<pdfrwt beam="2">  1       -4 0.43432749E-01 0.12500273E+03</pdfrwt>
<totfact> 0.76079700E+03</totfact>
</mgrwt>
</event>
<event>
 5    1  0.3327068E-002  0.1250363E+03  0.7818608E-02  0.1235013E+00
          4   -1    0    0  501    0  0.00000000000E+00  0.00000000000E+00  0.16706800387E+02  0.16755001617E+02  0.12700000000E+01 0.  1.
         -4   -1    0    0    0  501 -0.00000000000E+00 -0.00000000000E+00 -0.23356100109E+03  0.23356445391E+03  0.12700000000E+01 0.  1.
         25    2    1    2    0    0  0.00000000000E+00  0.00000000000E+00 -0.21685420070E+03  0.25031945552E+03  0.12503633653E+03 0.  0.
    9000005    1    3    3    0    0  0.51371704536E+01 -0.54632799563E+02 -0.48488527918E+02  0.73234354288E+02  0.10000000000E+01 0.  0.
    9000005    1    3    3    0    0 -0.51371704536E+01  0.54632799563E+02 -0.16836567278E+03  0.17708510123E+03  0.10000000000E+01 0.  0.
<mgrwt>
<rscale>  0 0.12503634E+03</rscale>
<asrwt>0</asrwt>
<pdfrwt beam="1">  1        4 0.25742505E-02 0.12503634E+03</pdfrwt>
<pdfrwt beam="2">  1       -4 0.35936433E-01 0.12503634E+03</pdfrwt>
<totfact> 0.82217512E+03</totfact>
</mgrwt>
</event>
<event>
 5    1  0.3327068E-002  0.1250003E+03  0.7818608E-02  0.1235069E+00
         -4   -1    0    0    0  501 -0.00000000000E+00  0.00000000000E+00  0.14203118927E+03  0.14203686713E+03  0.12700000000E+01 0.  1.
          4   -1    0    0  501    0  0.00000000000E+00 -0.00000000000E+00 -0.27482013861E+02  0.27511342858E+02  0.12700000000E+01 0.  1.
         25    2    1    2    0    0  0.00000000000E+00  0.00000000000E+00  0.11454917541E+03  0.16954820999E+03  0.12500032770E+03 0.  0.
    9000005    1    3    3    0    0  0.54478106210E+02 -0.26335015064E+02  0.36092718606E+02  0.70463333806E+02  0.10000000000E+01 0.  0.
    9000005    1    3    3    0    0 -0.54478106210E+02  0.26335015064E+02  0.78456456801E+02  0.99084876184E+02  0.10000000000E+01 0.  0.
<mgrwt>
<rscale>  0 0.12500033E+03</rscale>
<asrwt>0</asrwt>
<pdfrwt beam="2">  1        4 0.42306950E-02 0.12500033E+03</pdfrwt>
<pdfrwt beam="1">  1       -4 0.21853645E-01 0.12500033E+03</pdfrwt>
<totfact> 0.95532196E+03</totfact>
</mgrwt>
</event>
<event>
 5    1  0.3327068E-002  0.1249841E+03  0.7818608E-02  0.1235094E+00
          4   -1    0    0  501    0  0.00000000000E+00  0.00000000000E+00  0.37318506316E+03  0.37318722415E+03  0.12700000000E+01 0.  1.
         -4   -1    0    0    0  501 -0.00000000000E+00 -0.00000000000E+00 -0.10423926560E+02  0.10501006853E+02  0.12700000000E+01 0.  1.
         25    2    1    2    0    0  0.00000000000E+00  0.00000000000E+00  0.36276113660E+03  0.38368823100E+03  0.12498406451E+03 0.  0.
    9000005    1    3    3    0    0  0.31951425518E+02  0.53490978304E+02  0.19580442815E+03  0.20548127028E+03  0.10000000000E+01 0.  0.
    9000005    1    3    3    0    0 -0.31951425518E+02 -0.53490978304E+02  0.16695670845E+03  0.17820696072E+03  0.10000000000E+01 0.  0.
<mgrwt>
<rscale>  0 0.12498406E+03</rscale>
<asrwt>0</asrwt>
<pdfrwt beam="1">  1        4 0.57419192E-01 0.12498406E+03</pdfrwt>
<pdfrwt beam="2">  1       -4 0.16097762E-02 0.12498406E+03</pdfrwt>
<totfact> 0.66194079E+03</totfact>
</mgrwt>
</event>
<event>
 5    1  0.3327068E-002  0.1249970E+03  0.7818608E-02  0.1235074E+00
         -4   -1    0    0    0  501 -0.00000000000E+00  0.00000000000E+00  0.11399143866E+03  0.11399851309E+03  0.12700000000E+01 0. -1.
          4   -1    0    0  501    0  0.00000000000E+00 -0.00000000000E+00 -0.34246372532E+02  0.34269912921E+02  0.12700000000E+01 0. -1.
         25    2    1    2    0    0  0.00000000000E+00  0.00000000000E+00  0.79745066125E+02  0.14826842601E+03  0.12499700229E+03 0.  0.
    9000005    1    3    3    0    0 -0.59324033335E+02  0.35870238541E+01  0.62776939940E+02  0.86453177267E+02  0.10000000000E+01 0.  0.
    9000005    1    3    3    0    0  0.59324033335E+02 -0.35870238541E+01  0.16968126185E+02  0.61815248746E+02  0.10000000000E+01 0.  0.
<mgrwt>
<rscale>  0 0.12499700E+03</rscale>
<asrwt>0</asrwt>
<pdfrwt beam="2">  1        4 0.52710278E-02 0.12499700E+03</pdfrwt>
<pdfrwt beam="1">  1       -4 0.17539499E-01 0.12499700E+03</pdfrwt>
<totfact> 0.99656712E+03</totfact>
</mgrwt>
</event>
<event>
 5    1  0.3327068E-002  0.1250008E+03  0.7818608E-02  0.1235068E+00
         -4   -1    0    0    0  501 -0.00000000000E+00  0.00000000000E+00  0.13475478704E+03  0.13476077148E+03  0.12700000000E+01 0. -1.
          4   -1    0    0  501    0  0.00000000000E+00 -0.00000000000E+00 -0.28967686389E+02  0.28995512665E+02  0.12700000000E+01 0. -1.
         25    2    1    2    0    0  0.00000000000E+00  0.00000000000E+00  0.10578710065E+03  0.16375628415E+03  0.12500083973E+03 0.  0.
    9000005    1    3    3    0    0  0.78174694247E+01 -0.57076717973E+02  0.84618143903E+02  0.10237233435E+03  0.10000000000E+01 0.  0.
    9000005    1    3    3    0    0 -0.78174694247E+01  0.57076717973E+02  0.21168956747E+02  0.61383949795E+02  0.10000000000E+01 0.  0.
<mgrwt>
<rscale>  0 0.12500084E+03</rscale>
<asrwt>0</asrwt>
<pdfrwt beam="2">  1        4 0.44591679E-02 0.12500084E+03</pdfrwt>
<pdfrwt beam="1">  1       -4 0.20734107E-01 0.12500084E+03</pdfrwt>
<totfact> 0.96621628E+03</totfact>
</mgrwt>
</event>
<event>
 5    1  0.3327068E-002  0.1250016E+03  0.7818608E-02  0.1235067E+00
         -4   -1    0    0    0  501 -0.00000000000E+00  0.00000000000E+00  0.42762907924E+02  0.42781762400E+02  0.12700000000E+01 0.  1.
          4   -1    0    0  501    0  0.00000000000E+00 -0.00000000000E+00 -0.91305606085E+02  0.91314438084E+02  0.12700000000E+01 0.  1.
         25    2    1    2    0    0  0.00000000000E+00  0.00000000000E+00 -0.48542698161E+02  0.13409620048E+03  0.12500158975E+03 0.  0.
    9000005    1    3    3    0    0  0.26905650620E+01 -0.55338119493E+02  0.67422975546E+01  0.55821189397E+02  0.10000000000E+01 0.  0.
    9000005    1    3    3    0    0 -0.26905650620E+01  0.55338119493E+02 -0.55284995716E+02  0.78275011087E+02  0.10000000000E+01 0.  0.
<mgrwt>
<rscale>  0 0.12500159E+03</rscale>
<asrwt>0</asrwt>
<pdfrwt beam="2">  1        4 0.14049146E-01 0.12500159E+03</pdfrwt>
<pdfrwt beam="1">  1       -4 0.65810387E-02 0.12500159E+03</pdfrwt>
<totfact> 0.10256788E+04</totfact>
</mgrwt>
</event>
<event>
 5    1  0.3327068E-002  0.1250003E+03  0.7818608E-02  0.1235069E+00
         -4   -1    0    0    0  501 -0.00000000000E+00  0.00000000000E+00  0.14525139193E+03  0.14525694392E+03  0.12700000000E+01 0. -1.
          4   -1    0    0  501    0  0.00000000000E+00 -0.00000000000E+00 -0.26872101998E+02  0.26902095937E+02  0.12700000000E+01 0. -1.
         25    2    1    2    0    0  0.00000000000E+00  0.00000000000E+00  0.11837928993E+03  0.17215903986E+03  0.12500031488E+03 0.  0.
    9000005    1    3    3    0    0 -0.42718158444E+02 -0.26095041362E+02  0.11071270816E+03  0.12150759644E+03  0.10000000000E+01 0.  0.
    9000005    1    3    3    0    0  0.42718158444E+02  0.26095041362E+02  0.76665817754E+01  0.50651443421E+02  0.10000000000E+01 0.  0.
<mgrwt>
<rscale>  0 0.12500031E+03</rscale>
<asrwt>0</asrwt>
<pdfrwt beam="2">  1        4 0.41369038E-02 0.12500031E+03</pdfrwt>
<pdfrwt beam="1">  1       -4 0.22349103E-01 0.12500031E+03</pdfrwt>
<totfact> 0.95047074E+03</totfact>
</mgrwt>
</event>
<event>
 5    1  0.3327068E-002  0.1250086E+03  0.7818608E-02  0.1235056E+00
          4   -1    0    0  501    0  0.00000000000E+00  0.00000000000E+00  0.27085705139E+02  0.27115462801E+02  0.12700000000E+01 0.  1.
         -4   -1    0    0    0  501 -0.00000000000E+00 -0.00000000000E+00 -0.14412612350E+03  0.14413171884E+03  0.12700000000E+01 0.  1.
         25    2    1    2    0    0  0.00000000000E+00  0.00000000000E+00 -0.11704041836E+03  0.17124718164E+03  0.12500855046E+03 0.  0.
    9000005    1    3    3    0    0 -0.10211485671E+02  0.51145912267E+02 -0.10568890210E+03  0.11786145599E+03  0.10000000000E+01 0.  0.
    9000005    1    3    3    0    0  0.10211485671E+02 -0.51145912267E+02 -0.11351516257E+02  0.53385725644E+02  0.10000000000E+01 0.  0.
<mgrwt>
<rscale>  0 0.12500855E+03</rscale>
<asrwt>0</asrwt>
<pdfrwt beam="1">  1        4 0.41697511E-02 0.12500855E+03</pdfrwt>
<pdfrwt beam="2">  1       -4 0.22175969E-01 0.12500855E+03</pdfrwt>
<totfact> 0.95198420E+03</totfact>
</mgrwt>
</event>
<event>
 5    1  0.3327068E-002  0.1250025E+03  0.7818608E-02  0.1235065E+00
         -4   -1    0    0    0  501 -0.00000000000E+00  0.00000000000E+00  0.14733846730E+03  0.14734394065E+03  0.12700000000E+01 0.  1.
          4   -1    0    0  501    0  0.00000000000E+00 -0.00000000000E+00 -0.26491958793E+02  0.26522382636E+02  0.12700000000E+01 0.  1.
         25    2    1    2    0    0  0.00000000000E+00  0.00000000000E+00  0.12084650851E+03  0.17386632329E+03  0.12500247900E+03 0.  0.
    9000005    1    3    3    0    0  0.45815100750E+02 -0.20887286317E+02  0.11190738847E+03  0.12271742248E+03  0.10000000000E+01 0.  0.
    9000005    1    3    3    0    0 -0.45815100750E+02  0.20887286317E+02  0.89391200354E+01  0.51148900804E+02  0.10000000000E+01 0.  0.
<mgrwt>
<rscale>  0 0.12500248E+03</rscale>
<asrwt>0</asrwt>
<pdfrwt beam="2">  1        4 0.40784473E-02 0.12500248E+03</pdfrwt>
<pdfrwt beam="1">  1       -4 0.22670218E-01 0.12500248E+03</pdfrwt>
<totfact> 0.94727613E+03</totfact>
</mgrwt>
</event>
<event>
 5    1  0.3327068E-002  0.1249989E+03  0.7818608E-02  0.1235071E+00
         -4   -1    0    0    0  501 -0.00000000000E+00  0.00000000000E+00  0.55763531317E+02  0.55777991403E+02  0.12700000000E+01 0.  1.
          4   -1    0    0  501    0  0.00000000000E+00 -0.00000000000E+00 -0.70019708662E+02  0.70031225186E+02  0.12700000000E+01 0.  1.
         25    2    1    2    0    0  0.00000000000E+00  0.00000000000E+00 -0.14256177345E+02  0.12580921659E+03  0.12499888154E+03 0.  0.
    9000005    1    3    3    0    0  0.12590170561E+02 -0.47178513066E+02 -0.46379052229E+02  0.67352364291E+02  0.10000000000E+01 0.  0.
    9000005    1    3    3    0    0 -0.12590170561E+02  0.47178513066E+02  0.32122874884E+02  0.58456852299E+02  0.10000000000E+01 0.  0.
<mgrwt>
<rscale>  0 0.12499888E+03</rscale>
<asrwt>0</asrwt>
<pdfrwt beam="2">  1        4 0.10774261E-01 0.12499888E+03</pdfrwt>
<pdfrwt beam="1">  1       -4 0.85810030E-02 0.12499888E+03</pdfrwt>
<totfact> 0.10435406E+04</totfact>
</mgrwt>
</event>
<event>
 5    1  0.3327068E-002  0.1249997E+03  0.7818608E-02  0.1235070E+00
          4   -1    0    0  501    0  0.00000000000E+00  0.00000000000E+00  0.90227578708E+01  0.91116990510E+01  0.12700000000E+01 0.  1.
         -4   -1    0    0    0  501 -0.00000000000E+00 -0.00000000000E+00 -0.43071763504E+03  0.43071950737E+03  0.12700000000E+01 0.  1.
         25    2    1    2    0    0  0.00000000000E+00  0.00000000000E+00 -0.42169487717E+03  0.43983120642E+03  0.12499968287E+03 0.  0.
    9000005    1    3    3    0    0 -0.47825995317E+02  0.24308115935E+02 -0.98084457806E+02  0.11180237561E+03  0.10000000000E+01 0.  0.
    9000005    1    3    3    0    0  0.47825995317E+02 -0.24308115935E+02 -0.32361041936E+03  0.32802883082E+03  0.10000000000E+01 0.  0.
<mgrwt>
<rscale>  0 0.12499968E+03</rscale>
<asrwt>0</asrwt>
<pdfrwt beam="1">  1        4 0.13951026E-02 0.12499968E+03</pdfrwt>
<pdfrwt beam="2">  1       -4 0.66271221E-01 0.12499968E+03</pdfrwt>
<totfact> 0.60855283E+03</totfact>
</mgrwt>
</event>
<event>
 5    1  0.3327068E-002  0.1249998E+03  0.7818608E-02  0.1235070E+00
          4   -1    0    0  501    0  0.00000000000E+00  0.00000000000E+00  0.57437879952E+02  0.57451918622E+02  0.12700000000E+01 0.  1.
         -4   -1    0    0    0  501 -0.00000000000E+00 -0.00000000000E+00 -0.67979750131E+02  0.67991612188E+02  0.12700000000E+01 0.  1.
         25    2    1    2    0    0  0.00000000000E+00  0.00000000000E+00 -0.10541870180E+02  0.12544353081E+03  0.12499979358E+03 0.  0.
    9000005    1    3    3    0    0 -0.21248459234E+02 -0.51776488317E+02  0.22629472951E+02  0.60377105002E+02  0.10000000000E+01 0.  0.
    9000005    1    3    3    0    0  0.21248459234E+02  0.51776488317E+02 -0.33171343131E+02  0.65066425808E+02  0.10000000000E+01 0.  0.
<mgrwt>
<rscale>  0 0.12499979E+03</rscale>
<asrwt>0</asrwt>
<pdfrwt beam="1">  1        4 0.88385892E-02 0.12499979E+03</pdfrwt>
<pdfrwt beam="2">  1       -4 0.10460416E-01 0.12499979E+03</pdfrwt>
<totfact> 0.10443251E+04</totfact>
</mgrwt>
</event>
<event>
 5    1  0.3327068E-002  0.1250027E+03  0.7818608E-02  0.1235065E+00
         -4   -1    0    0    0  501 -0.00000000000E+00  0.00000000000E+00  0.23976261278E+02  0.24009873071E+02  0.12700000000E+01 0.  1.
          4   -1    0    0  501    0  0.00000000000E+00 -0.00000000000E+00 -0.16277850892E+03  0.16278346312E+03  0.12700000000E+01 0.  1.
         25    2    1    2    0    0  0.00000000000E+00  0.00000000000E+00 -0.13880224764E+03  0.18679333619E+03  0.12500274595E+03 0.  0.
    9000005    1    3    3    0    0 -0.59310223789E+02  0.15766462035E+02 -0.51774701872E+02  0.80298840121E+02  0.10000000000E+01 0.  0.
    9000005    1    3    3    0    0  0.59310223789E+02 -0.15766462035E+02 -0.87027545771E+02  0.10649449607E+03  0.10000000000E+01 0.  0.
<mgrwt>
<rscale>  0 0.12500275E+03</rscale>
<asrwt>0</asrwt>
<pdfrwt beam="2">  1        4 0.25045813E-01 0.12500275E+03</pdfrwt>
<pdfrwt beam="1">  1       -4 0.36916223E-02 0.12500275E+03</pdfrwt>
<totfact> 0.92402591E+03</totfact>
</mgrwt>
</event>
<event>
 5    1  0.3327068E-002  0.1250045E+03  0.7818608E-02  0.1235062E+00
         -4   -1    0    0    0  501 -0.00000000000E+00  0.00000000000E+00  0.39116569580E+03  0.39116775745E+03  0.12700000000E+01 0. -1.
          4   -1    0    0  501    0  0.00000000000E+00 -0.00000000000E+00 -0.99444317034E+01  0.10025199345E+02  0.12700000000E+01 0. -1.
         25    2    1    2    0    0  0.00000000000E+00  0.00000000000E+00  0.38122126409E+03  0.40119295680E+03  0.12500454546E+03 0.  0.
    9000005    1    3    3    0    0 -0.21393451718E+02 -0.12641714685E+02  0.65774516972E+01  0.25724610734E+02  0.10000000000E+01 0.  0.
    9000005    1    3    3    0    0  0.21393451718E+02  0.12641714685E+02  0.37464381240E+03  0.37546834606E+03  0.10000000000E+01 0.  0.
<mgrwt>
<rscale>  0 0.12500455E+03</rscale>
<asrwt>0</asrwt>
<pdfrwt beam="2">  1        4 0.15362845E-02 0.12500455E+03</pdfrwt>
<pdfrwt beam="1">  1       -4 0.60185692E-01 0.12500455E+03</pdfrwt>
<totfact> 0.64430472E+03</totfact>
</mgrwt>
</event>
<event>
 5    1  0.3327068E-002  0.1250014E+03  0.7818608E-02  0.1235067E+00
         -4   -1    0    0    0  501 -0.00000000000E+00  0.00000000000E+00  0.85374283300E+02  0.85383728831E+02  0.12700000000E+01 0.  1.
          4   -1    0    0  501    0  0.00000000000E+00 -0.00000000000E+00 -0.45734617218E+02  0.45752247071E+02  0.12700000000E+01 0.  1.
         25    2    1    2    0    0  0.00000000000E+00  0.00000000000E+00  0.39639666083E+02  0.13113597590E+03  0.12500136419E+03 0.  0.
    9000005    1    3    3    0    0 -0.47897860980E+02 -0.23824603211E+02 -0.14069043176E+02  0.55324088609E+02  0.10000000000E+01 0.  0.
    9000005    1    3    3    0    0  0.47897860980E+02  0.23824603211E+02  0.53708709259E+02  0.75811887292E+02  0.10000000000E+01 0.  0.
<mgrwt>
<rscale>  0 0.12500136E+03</rscale>
<asrwt>0</asrwt>
<pdfrwt beam="2">  1        4 0.70381777E-02 0.12500136E+03</pdfrwt>
<pdfrwt beam="1">  1       -4 0.13136588E-01 0.12500136E+03</pdfrwt>
<totfact> 0.10319857E+04</totfact>
</mgrwt>
</event>
<event>
 5    1  0.3327068E-002  0.1249988E+03  0.7818608E-02  0.1235071E+00
         -4   -1    0    0    0  501 -0.00000000000E+00  0.00000000000E+00  0.52102068487E+01  0.53627563254E+01  0.12700000000E+01 0.  1.
          4   -1    0    0  501    0  0.00000000000E+00 -0.00000000000E+00 -0.73874572486E+03  0.73874681651E+03  0.12700000000E+01 0.  1.
         25    2    1    2    0    0  0.00000000000E+00  0.00000000000E+00 -0.73353551802E+03  0.74410957284E+03  0.12499880078E+03 0.  0.
    9000005    1    3    3    0    0  0.52745408581E+02  0.20682658891E+00 -0.56626247309E+03  0.56871461150E+03  0.10000000000E+01 0.  0.
    9000005    1    3    3    0    0 -0.52745408581E+02 -0.20682658891E+00 -0.16727304493E+03  0.17539496134E+03  0.10000000000E+01 0.  0.
<mgrwt>
<rscale>  0 0.12499880E+03</rscale>
<asrwt>0</asrwt>
<pdfrwt beam="2">  1        4 0.11366493E+00 0.12499880E+03</pdfrwt>
<pdfrwt beam="1">  1       -4 0.81338942E-03 0.12499880E+03</pdfrwt>
<totfact> 0.40858567E+03</totfact>
</mgrwt>
</event>
<event>
 5    1  0.3327068E-002  0.1250017E+03  0.7818608E-02  0.1235067E+00
          4   -1    0    0  501    0  0.00000000000E+00  0.00000000000E+00  0.10775048846E+02  0.10849634908E+02  0.12700000000E+01 0.  1.
         -4   -1    0    0    0  501 -0.00000000000E+00 -0.00000000000E+00 -0.36121113699E+03  0.36121336961E+03  0.12700000000E+01 0.  1.
         25    2    1    2    0    0  0.00000000000E+00  0.00000000000E+00 -0.35043608815E+03  0.37206300452E+03  0.12500170982E+03 0.  0.
    9000005    1    3    3    0    0  0.49558998926E+02  0.93164647278E+00 -0.61940461437E+02  0.79338408749E+02  0.10000000000E+01 0.  0.
    9000005    1    3    3    0    0 -0.49558998926E+02 -0.93164647278E+00 -0.28849562671E+03  0.29272459577E+03  0.10000000000E+01 0.  0.
<mgrwt>
<rscale>  0 0.12500171E+03</rscale>
<asrwt>0</asrwt>
<pdfrwt beam="1">  1        4 0.16636092E-02 0.12500171E+03</pdfrwt>
<pdfrwt beam="2">  1       -4 0.55576844E-01 0.12500171E+03</pdfrwt>
<totfact> 0.67361117E+03</totfact>
</mgrwt>
</event>
<event>
 5    1  0.3327068E-002  0.1250017E+03  0.7818608E-02  0.1235067E+00
          4   -1    0    0  501    0  0.00000000000E+00  0.00000000000E+00  0.28574040144E+02  0.28602249389E+02  0.12700000000E+01 0. -1.
         -4   -1    0    0    0  501 -0.00000000000E+00 -0.00000000000E+00 -0.13661132285E+03  0.13661722596E+03  0.12700000000E+01 0. -1.
         25    2    1    2    0    0  0.00000000000E+00  0.00000000000E+00 -0.10803728270E+03  0.16521947535E+03  0.12500168232E+03 0.  0.
    9000005    1    3    3    0    0 -0.60655586125E+02 -0.89959205615E+01 -0.69952489449E+02  0.93028906771E+02  0.10000000000E+01 0.  0.
    9000005    1    3    3    0    0  0.60655586125E+02  0.89959205615E+01 -0.38084793255E+02  0.72190568582E+02  0.10000000000E+01 0.  0.
<mgrwt>
<rscale>  0 0.12500168E+03</rscale>
<asrwt>0</asrwt>
<pdfrwt beam="1">  1        4 0.43986303E-02 0.12500168E+03</pdfrwt>
<pdfrwt beam="2">  1       -4 0.21019750E-01 0.12500168E+03</pdfrwt>
<totfact> 0.96342202E+03</totfact>
</mgrwt>
</event>
<event>
 4    1  0.3327068E-002  0.1249274E+03  0.7818608E-02  0.1235183E+00
         -4   -1    0    0    0  501 -0.00000000000E+00  0.00000000000E+00  0.74221177540E+03  0.74221286195E+03  0.12700000000E+01 0. -1.
          4   -1    0    0  501    0  0.00000000000E+00 -0.00000000000E+00 -0.51790612692E+01  0.53325018171E+01  0.12700000000E+01 0. -1.
    9000005    1    1    2    0    0  0.35924473063E+02  0.29737242238E+02  0.61710444910E+03  0.61886490646E+03  0.10000000000E+01 0.  0.
    9000005    1    1    2    0    0 -0.35924473063E+02 -0.29737242238E+02  0.11992826502E+03  0.12868045731E+03  0.10000000000E+01 0.  0.
<mgrwt>
<rscale>  0 0.12492738E+03</rscale>
<asrwt>0</asrwt>
<pdfrwt beam="2">  1        4 0.80866566E-03 0.12492738E+03</pdfrwt>
<pdfrwt beam="1">  1       -4 0.11419827E+00 0.12492738E+03</pdfrwt>
<totfact> 0.40756507E+03</totfact>
</mgrwt>
</event>
<event>
 5    1  0.3327068E-002  0.1249887E+03  0.7818608E-02  0.1235087E+00
         -4   -1    0    0    0  501 -0.00000000000E+00  0.00000000000E+00  0.52144041168E+01  0.53668342897E+01  0.12700000000E+01 0.  1.
          4   -1    0    0  501    0  0.00000000000E+00 -0.00000000000E+00 -0.73804887063E+03  0.73804996331E+03  0.12700000000E+01 0.  1.
         25    2    1    2    0    0  0.00000000000E+00  0.00000000000E+00 -0.73283446652E+03  0.74341679760E+03  0.12498871805E+03 0.  0.
    9000005    1    3    3    0    0 -0.14997932965E+02  0.22099364805E+02 -0.30416466606E+02  0.40490509490E+02  0.10000000000E+01 0.  0.
    9000005    1    3    3    0    0  0.14997932965E+02 -0.22099364805E+02 -0.70241799991E+03  0.70292628811E+03  0.10000000000E+01 0.  0.
<mgrwt>
<rscale>  0 0.12498872E+03</rscale>
<asrwt>0</asrwt>
<pdfrwt beam="2">  1        4 0.11355771E+00 0.12498872E+03</pdfrwt>
<pdfrwt beam="1">  1       -4 0.81402605E-03 0.12498872E+03</pdfrwt>
<totfact> 0.40901120E+03</totfact>
</mgrwt>
</event>
<event>
 5    1  0.3327068E-002  0.1249990E+03  0.7818608E-02  0.1235071E+00
         -4   -1    0    0    0  501 -0.00000000000E+00  0.00000000000E+00  0.12579921447E+03  0.12580562492E+03  0.12700000000E+01 0.  1.
          4   -1    0    0  501    0  0.00000000000E+00 -0.00000000000E+00 -0.31030780541E+02  0.31056758379E+02  0.12700000000E+01 0.  1.
         25    2    1    2    0    0  0.00000000000E+00  0.00000000000E+00  0.94768433933E+02  0.15686238330E+03  0.12499900490E+03 0.  0.
    9000005    1    3    3    0    0  0.18874742835E+02  0.36957897037E+02  0.10601742691E+03  0.11385445481E+03  0.10000000000E+01 0.  0.
    9000005    1    3    3    0    0 -0.18874742835E+02 -0.36957897037E+02 -0.11248992978E+02  0.43007928496E+02  0.10000000000E+01 0.  0.
<mgrwt>
<rscale>  0 0.12499900E+03</rscale>
<asrwt>0</asrwt>
<pdfrwt beam="2">  1        4 0.47764577E-02 0.12499900E+03</pdfrwt>
<pdfrwt beam="1">  1       -4 0.19356217E-01 0.12499900E+03</pdfrwt>
<totfact> 0.97953317E+03</totfact>
</mgrwt>
</event>
<event>
 5    1  0.3327068E-002  0.1249979E+03  0.7818608E-02  0.1235073E+00
         -4   -1    0    0    0  501 -0.00000000000E+00  0.00000000000E+00  0.54106545881E+02  0.54121448680E+02  0.12700000000E+01 0.  1.
          4   -1    0    0  501    0  0.00000000000E+00 -0.00000000000E+00 -0.72162665651E+02  0.72173840232E+02  0.12700000000E+01 0.  1.
         25    2    1    2    0    0  0.00000000000E+00  0.00000000000E+00 -0.18056119769E+02  0.12629528891E+03  0.12499790614E+03 0.  0.
    9000005    1    3    3    0    0 -0.47371596688E+02  0.40532837888E+02 -0.47247439237E+01  0.62532410198E+02  0.10000000000E+01 0.  0.
    9000005    1    3    3    0    0  0.47371596688E+02 -0.40532837888E+02 -0.13331375846E+02  0.63762878714E+02  0.10000000000E+01 0.  0.
<mgrwt>
<rscale>  0 0.12499791E+03</rscale>
<asrwt>0</asrwt>
<pdfrwt beam="2">  1        4 0.11103955E-01 0.12499791E+03</pdfrwt>
<pdfrwt beam="1">  1       -4 0.83260899E-02 0.12499791E+03</pdfrwt>
<totfact> 0.10424989E+04</totfact>
</mgrwt>
</event>
<event>
 5    1  0.3327068E-002  0.1250041E+03  0.7818608E-02  0.1235063E+00
         -4   -1    0    0    0  501 -0.00000000000E+00  0.00000000000E+00  0.31507922266E+01  0.33971151960E+01  0.12700000000E+01 0. -1.
          4   -1    0    0  501    0  0.00000000000E+00 -0.00000000000E+00 -0.11929613013E+04  0.11929619773E+04  0.12700000000E+01 0. -1.
         25    2    1    2    0    0  0.00000000000E+00  0.00000000000E+00 -0.11898105091E+04  0.11963590925E+04  0.12500412278E+03 0.  0.
    9000005    1    3    3    0    0  0.53342716913E+02  0.33902603033E+00 -0.90649227094E+03  0.90806100988E+03  0.10000000000E+01 0.  0.
    9000005    1    3    3    0    0 -0.53342716913E+02 -0.33902603033E+00 -0.28331823815E+03  0.28829808264E+03  0.10000000000E+01 0.  0.
<mgrwt>
<rscale>  0 0.12500412E+03</rscale>
<asrwt>0</asrwt>
<pdfrwt beam="2">  1        4 0.18355116E+00 0.12500412E+03</pdfrwt>
<pdfrwt beam="1">  1       -4 0.50373814E-03 0.12500412E+03</pdfrwt>
<totfact> 0.24806074E+03</totfact>
</mgrwt>
</event>
<event>
 5    1  0.3327068E-002  0.1249992E+03  0.7818608E-02  0.1235071E+00
         -4   -1    0    0    0  501 -0.00000000000E+00  0.00000000000E+00  0.10447063678E+02  0.10523974510E+02  0.12700000000E+01 0. -1.
          4   -1    0    0  501    0  0.00000000000E+00 -0.00000000000E+00 -0.37245454120E+03  0.37245670642E+03  0.12700000000E+01 0. -1.
         25    2    1    2    0    0  0.00000000000E+00  0.00000000000E+00 -0.36200747752E+03  0.38298068093E+03  0.12499915274E+03 0.  0.
    9000005    1    3    3    0    0  0.23834393934E+02  0.57559150975E+02 -0.19603319761E+03  0.20569673979E+03  0.10000000000E+01 0.  0.
    9000005    1    3    3    0    0 -0.23834393934E+02 -0.57559150975E+02 -0.16597427992E+03  0.17728394115E+03  0.10000000000E+01 0.  0.
<mgrwt>
<rscale>  0 0.12499915E+03</rscale>
<asrwt>0</asrwt>
<pdfrwt beam="2">  1        4 0.57306771E-01 0.12499915E+03</pdfrwt>
<pdfrwt beam="1">  1       -4 0.16133236E-02 0.12499915E+03</pdfrwt>
<totfact> 0.66243670E+03</totfact>
</mgrwt>
</event>
<event>
 5    1  0.3327068E-002  0.1250021E+03  0.7818608E-02  0.1235066E+00
          4   -1    0    0  501    0  0.00000000000E+00  0.00000000000E+00  0.84903368941E+02  0.84912866855E+02  0.12700000000E+01 0.  1.
         -4   -1    0    0    0  501 -0.00000000000E+00 -0.00000000000E+00 -0.45988889725E+02  0.46006422140E+02  0.12700000000E+01 0.  1.
         25    2    1    2    0    0  0.00000000000E+00  0.00000000000E+00  0.38914479216E+02  0.13091928899E+03  0.12500209414E+03 0.  0.
    9000005    1    3    3    0    0 -0.16745879792E-01 -0.51361466734E+02  0.56742727654E+02  0.76542391438E+02  0.10000000000E+01 0.  0.
    9000005    1    3    3    0    0  0.16745879792E-01  0.51361466734E+02 -0.17828248438E+02  0.54376897556E+02  0.10000000000E+01 0.  0.
<mgrwt>
<rscale>  0 0.12500209E+03</rscale>
<asrwt>0</asrwt>
<pdfrwt beam="1">  1        4 0.13064136E-01 0.12500209E+03</pdfrwt>
<pdfrwt beam="2">  1       -4 0.70772932E-02 0.12500209E+03</pdfrwt>
<totfact> 0.10324332E+04</totfact>
</mgrwt>
</event>
<event>
 5    1  0.3327068E-002  0.1250206E+03  0.7818608E-02  0.1235037E+00
         -4   -1    0    0    0  501 -0.00000000000E+00  0.00000000000E+00  0.29537793577E+02  0.29565083280E+02  0.12700000000E+01 0. -1.
          4   -1    0    0  501    0  0.00000000000E+00 -0.00000000000E+00 -0.13219810045E+03  0.13220420063E+03  0.12700000000E+01 0. -1.
         25    2    1    2    0    0  0.00000000000E+00  0.00000000000E+00 -0.10266030688E+03  0.16176928391E+03  0.12502064873E+03 0.  0.
    9000005    1    3    3    0    0  0.85321007952E+01  0.13112838371E+02 -0.12963010071E+03  0.13057452387E+03  0.10000000000E+01 0.  0.
    9000005    1    3    3    0    0 -0.85321007952E+01 -0.13112838371E+02  0.26969793835E+02  0.31194760035E+02  0.10000000000E+01 0.  0.
<mgrwt>
<rscale>  0 0.12502065E+03</rscale>
<asrwt>0</asrwt>
<pdfrwt beam="2">  1        4 0.20340737E-01 0.12502065E+03</pdfrwt>
<pdfrwt beam="1">  1       -4 0.45468444E-02 0.12502065E+03</pdfrwt>
<totfact> 0.96957763E+03</totfact>
</mgrwt>
</event>
<event>
 5    1  0.3327068E-002  0.1250000E+03  0.7818608E-02  0.1235069E+00
         -4   -1    0    0    0  501 -0.00000000000E+00  0.00000000000E+00  0.13086459693E+02  0.13147940040E+02  0.12700000000E+01 0.  1.
          4   -1    0    0  501    0  0.00000000000E+00 -0.00000000000E+00 -0.29773310247E+03  0.29773581109E+03  0.12700000000E+01 0.  1.
         25    2    1    2    0    0  0.00000000000E+00  0.00000000000E+00 -0.28464664277E+03  0.31088375113E+03  0.12499998189E+03 0.  0.
    9000005    1    3    3    0    0  0.11130109211E+02 -0.58940523612E+02 -0.98719068147E+02  0.11551761368E+03  0.10000000000E+01 0.  0.
    9000005    1    3    3    0    0 -0.11130109211E+02  0.58940523612E+02 -0.18592757463E+03  0.19536613745E+03  0.10000000000E+01 0.  0.
<mgrwt>
<rscale>  0 0.12499998E+03</rscale>
<asrwt>0</asrwt>
<pdfrwt beam="2">  1        4 0.45810025E-01 0.12499998E+03</pdfrwt>
<pdfrwt beam="1">  1       -4 0.20182393E-02 0.12499998E+03</pdfrwt>
<totfact> 0.74253604E+03</totfact>
</mgrwt>
</event>
<event>
 5    1  0.3327068E-002  0.1250020E+03  0.7818608E-02  0.1235066E+00
          4   -1    0    0  501    0  0.00000000000E+00  0.00000000000E+00  0.15875931731E+03  0.15876439693E+03  0.12700000000E+01 0. -1.
         -4   -1    0    0    0  501 -0.00000000000E+00 -0.00000000000E+00 -0.24583795996E+02  0.24616578267E+02  0.12700000000E+01 0. -1.
         25    2    1    2    0    0  0.00000000000E+00  0.00000000000E+00  0.13417552131E+03  0.18338097519E+03  0.12500204616E+03 0.  0.
    9000005    1    3    3    0    0  0.22590825614E+02 -0.54468619825E+02  0.97444943776E+02  0.11390212033E+03  0.10000000000E+01 0.  0.
    9000005    1    3    3    0    0 -0.22590825614E+02  0.54468619825E+02  0.36730577534E+02  0.69478854866E+02  0.10000000000E+01 0.  0.
<mgrwt>
<rscale>  0 0.12500205E+03</rscale>
<asrwt>0</asrwt>
<pdfrwt beam="1">  1        4 0.24427422E-01 0.12500205E+03</pdfrwt>
<pdfrwt beam="2">  1       -4 0.37850350E-02 0.12500205E+03</pdfrwt>
<totfact> 0.93007667E+03</totfact>
</mgrwt>
</event>
<event>
 5    1  0.3327068E-002  0.1249988E+03  0.7818608E-02  0.1235071E+00
          4   -1    0    0  501    0  0.00000000000E+00  0.00000000000E+00  0.12540586996E+02  0.12604730152E+02  0.12700000000E+01 0. -1.
         -4   -1    0    0    0  501 -0.00000000000E+00 -0.00000000000E+00 -0.31062259401E+03  0.31062519024E+03  0.12700000000E+01 0. -1.
         25    2    1    2    0    0  0.00000000000E+00  0.00000000000E+00 -0.29808200702E+03  0.32322992039E+03  0.12499879411E+03 0.  0.
    9000005    1    3    3    0    0  0.22771635947E+02 -0.53538162744E+02 -0.20802435633E+03  0.21600929401E+03  0.10000000000E+01 0.  0.
    9000005    1    3    3    0    0 -0.22771635947E+02  0.53538162744E+02 -0.90057650686E+02  0.10722062638E+03  0.10000000000E+01 0.  0.
<mgrwt>
<rscale>  0 0.12499879E+03</rscale>
<asrwt>0</asrwt>
<pdfrwt beam="1">  1        4 0.19344551E-02 0.12499879E+03</pdfrwt>
<pdfrwt beam="2">  1       -4 0.47793219E-01 0.12499879E+03</pdfrwt>
<totfact> 0.72775556E+03</totfact>
</mgrwt>
</event>
<event>
 5    1  0.3327068E-002  0.1249996E+03  0.7818608E-02  0.1235070E+00
         -4   -1    0    0    0  501 -0.00000000000E+00  0.00000000000E+00  0.86058528448E+02  0.86067898886E+02  0.12700000000E+01 0. -1.
          4   -1    0    0  501    0  0.00000000000E+00 -0.00000000000E+00 -0.45369629318E+02  0.45387400944E+02  0.12700000000E+01 0. -1.
         25    2    1    2    0    0  0.00000000000E+00  0.00000000000E+00  0.40688899130E+02  0.13145529983E+03  0.12499963736E+03 0.  0.
    9000005    1    3    3    0    0  0.56227107045E+02  0.26226953886E+02  0.12482623727E+02  0.63294206464E+02  0.10000000000E+01 0.  0.
    9000005    1    3    3    0    0 -0.56227107045E+02 -0.26226953886E+02  0.28206275403E+02  0.68161093366E+02  0.10000000000E+01 0.  0.
<mgrwt>
<rscale>  0 0.12499964E+03</rscale>
<asrwt>0</asrwt>
<pdfrwt beam="2">  1        4 0.69820308E-02 0.12499964E+03</pdfrwt>
<pdfrwt beam="1">  1       -4 0.13241861E-01 0.12499964E+03</pdfrwt>
<totfact> 0.10313423E+04</totfact>
</mgrwt>
</event>
<event>
 5    1  0.3327068E-002  0.1250099E+03  0.7818608E-02  0.1235054E+00
         -4   -1    0    0    0  501 -0.00000000000E+00  0.00000000000E+00  0.19863746127E+03  0.19864152114E+03  0.12700000000E+01 0. -1.
          4   -1    0    0  501    0  0.00000000000E+00 -0.00000000000E+00 -0.19643584396E+02  0.19684595701E+02  0.12700000000E+01 0. -1.
         25    2    1    2    0    0  0.00000000000E+00  0.00000000000E+00  0.17899387687E+03  0.21832611684E+03  0.12500994095E+03 0.  0.
    9000005    1    3    3    0    0 -0.39713345043E+02 -0.45322842368E+02  0.11843576886E+03  0.13288845383E+03  0.10000000000E+01 0.  0.
    9000005    1    3    3    0    0  0.39713345043E+02  0.45322842368E+02  0.60558108014E+02  0.85437663013E+02  0.10000000000E+01 0.  0.
<mgrwt>
<rscale>  0 0.12500994E+03</rscale>
<asrwt>0</asrwt>
<pdfrwt beam="2">  1        4 0.30255569E-02 0.12500994E+03</pdfrwt>
<pdfrwt beam="1">  1       -4 0.30563077E-01 0.12500994E+03</pdfrwt>
<totfact> 0.87114566E+03</totfact>
</mgrwt>
</event>
<event>
 5    1  0.3327068E-002  0.1249942E+03  0.7818608E-02  0.1235078E+00
         -4   -1    0    0    0  501 -0.00000000000E+00  0.00000000000E+00  0.48300839554E+02  0.48317533067E+02  0.12700000000E+01 0.  1.
          4   -1    0    0  501    0  0.00000000000E+00 -0.00000000000E+00 -0.80830190889E+02  0.80840167362E+02  0.12700000000E+01 0.  1.
         25    2    1    2    0    0  0.00000000000E+00  0.00000000000E+00 -0.32529351335E+02  0.12915770043E+03  0.12499421139E+03 0.  0.
    9000005    1    3    3    0    0  0.52025526669E+02 -0.21425942013E+02  0.11828456451E+02  0.57503380755E+02  0.10000000000E+01 0.  0.
    9000005    1    3    3    0    0 -0.52025526669E+02  0.21425942013E+02 -0.44357807785E+02  0.71654319673E+02  0.10000000000E+01 0.  0.
<mgrwt>
<rscale>  0 0.12499421E+03</rscale>
<asrwt>0</asrwt>
<pdfrwt beam="2">  1        4 0.12437465E-01 0.12499421E+03</pdfrwt>
<pdfrwt beam="1">  1       -4 0.74329499E-02 0.12499421E+03</pdfrwt>
<totfact> 0.10363914E+04</totfact>
</mgrwt>
</event>
<event>
 5    1  0.3327068E-002  0.1249997E+03  0.7818608E-02  0.1235070E+00
         -4   -1    0    0    0  501 -0.00000000000E+00  0.00000000000E+00  0.82214432296E+01  0.83189559909E+01  0.12700000000E+01 0.  1.
          4   -1    0    0  501    0  0.00000000000E+00 -0.00000000000E+00 -0.47222744970E+03  0.47222915746E+03  0.12700000000E+01 0.  1.
         25    2    1    2    0    0  0.00000000000E+00  0.00000000000E+00 -0.46400600648E+03  0.48054811345E+03  0.12499966118E+03 0.  0.
    9000005    1    3    3    0    0  0.55633540179E+02 -0.20219406887E+02 -0.30901705781E+03  0.31463702456E+03  0.10000000000E+01 0.  0.
    9000005    1    3    3    0    0 -0.55633540179E+02  0.20219406887E+02 -0.15498894866E+03  0.16591108889E+03  0.10000000000E+01 0.  0.
<mgrwt>
<rscale>  0 0.12499966E+03</rscale>
<asrwt>0</asrwt>
<pdfrwt beam="2">  1        4 0.72657988E-01 0.12499966E+03</pdfrwt>
<pdfrwt beam="1">  1       -4 0.12724701E-02 0.12499966E+03</pdfrwt>
<totfact> 0.57406260E+03</totfact>
</mgrwt>
</event>
<event>
 5    1  0.3327068E-002  0.1249974E+03  0.7818608E-02  0.1235073E+00
          4   -1    0    0  501    0  0.00000000000E+00  0.00000000000E+00  0.10407177142E+04  0.10407184891E+04  0.12700000000E+01 0.  1.
         -4   -1    0    0    0  501 -0.00000000000E+00 -0.00000000000E+00 -0.36450316104E+01  0.38599424142E+01  0.12700000000E+01 0.  1.
         25    2    1    2    0    0  0.00000000000E+00  0.00000000000E+00  0.10370726826E+04  0.10445784315E+04  0.12499740240E+03 0.  0.
    9000005    1    3    3    0    0  0.48141728884E+02 -0.36524729910E+02  0.38550675113E+03  0.39021550088E+03  0.10000000000E+01 0.  0.
    9000005    1    3    3    0    0 -0.48141728884E+02  0.36524729910E+02  0.65156593142E+03  0.65436293060E+03  0.10000000000E+01 0.  0.
<mgrwt>
<rscale>  0 0.12499740E+03</rscale>
<asrwt>0</asrwt>
<pdfrwt beam="1">  1        4 0.16012677E+00 0.12499740E+03</pdfrwt>
<pdfrwt beam="2">  1       -4 0.57736615E-03 0.12499740E+03</pdfrwt>
<totfact> 0.29166354E+03</totfact>
</mgrwt>
</event>
<event>
 5    1  0.3327068E-002  0.1250023E+03  0.7818608E-02  0.1235066E+00
         -4   -1    0    0    0  501 -0.00000000000E+00  0.00000000000E+00  0.77262185661E+02  0.77272622791E+02  0.12700000000E+01 0. -1.
          4   -1    0    0  501    0  0.00000000000E+00 -0.00000000000E+00 -0.50538362038E+02  0.50554316705E+02  0.12700000000E+01 0. -1.
         25    2    1    2    0    0  0.00000000000E+00  0.00000000000E+00  0.26723823622E+02  0.12782693950E+03  0.12500225483E+03 0.  0.
    9000005    1    3    3    0    0 -0.38001435326E+02  0.74957259896E+01 -0.36788066079E+02  0.53428988393E+02  0.10000000000E+01 0.  0.
    9000005    1    3    3    0    0  0.38001435326E+02 -0.74957259896E+01  0.63511889701E+02  0.74397951103E+02  0.10000000000E+01 0.  0.
<mgrwt>
<rscale>  0 0.12500225E+03</rscale>
<asrwt>0</asrwt>
<pdfrwt beam="2">  1        4 0.77771628E-02 0.12500225E+03</pdfrwt>
<pdfrwt beam="1">  1       -4 0.11888520E-01 0.12500225E+03</pdfrwt>
<totfact> 0.10390698E+04</totfact>
</mgrwt>
</event>
<event>
 5    1  0.3327068E-002  0.1249945E+03  0.7818608E-02  0.1235078E+00
         -4   -1    0    0    0  501 -0.00000000000E+00  0.00000000000E+00  0.80416534748E+01  0.81413199549E+01  0.12700000000E+01 0. -1.
          4   -1    0    0  501    0  0.00000000000E+00 -0.00000000000E+00 -0.48261782224E+03  0.48261949323E+03  0.12700000000E+01 0. -1.
         25    2    1    2    0    0  0.00000000000E+00  0.00000000000E+00 -0.47457616877E+03  0.49076081319E+03  0.12499454307E+03 0.  0.
    9000005    1    3    3    0    0  0.49159458505E+02  0.24251670806E+01 -0.86120773448E+02  0.99198394216E+02  0.10000000000E+01 0.  0.
    9000005    1    3    3    0    0 -0.49159458505E+02 -0.24251670806E+01 -0.38845539532E+03  0.39156241897E+03  0.10000000000E+01 0.  0.
<mgrwt>
<rscale>  0 0.12499454E+03</rscale>
<asrwt>0</asrwt>
<pdfrwt beam="2">  1        4 0.74256668E-01 0.12499454E+03</pdfrwt>
<pdfrwt beam="1">  1       -4 0.12449730E-02 0.12499454E+03</pdfrwt>
<totfact> 0.56595210E+03</totfact>
</mgrwt>
</event>
<event>
 5    1  0.3327068E-002  0.1250136E+03  0.7818608E-02  0.1235048E+00
         -4   -1    0    0    0  501 -0.00000000000E+00  0.00000000000E+00  0.71751985439E+02  0.71763223969E+02  0.12700000000E+01 0.  1.
          4   -1    0    0  501    0  0.00000000000E+00 -0.00000000000E+00 -0.54429967556E+02  0.54444781827E+02  0.12700000000E+01 0.  1.
         25    2    1    2    0    0  0.00000000000E+00  0.00000000000E+00  0.17322017882E+02  0.12620800580E+03  0.12501363295E+03 0.  0.
    9000005    1    3    3    0    0 -0.46688102381E+02  0.41390830473E+02  0.12318096970E+02  0.63605937334E+02  0.10000000000E+01 0.  0.
    9000005    1    3    3    0    0  0.46688102381E+02 -0.41390830473E+02  0.50039209118E+01  0.62602068462E+02  0.10000000000E+01 0.  0.
<mgrwt>
<rscale>  0 0.12501363E+03</rscale>
<asrwt>0</asrwt>
<pdfrwt beam="2">  1        4 0.83758452E-02 0.12501363E+03</pdfrwt>
<pdfrwt beam="1">  1       -4 0.11040771E-01 0.12501363E+03</pdfrwt>
<totfact> 0.10423196E+04</totfact>
</mgrwt>
</event>
<event>
 5    1  0.3327068E-002  0.1250000E+03  0.7818608E-02  0.1235069E+00
          4   -1    0    0  501    0  0.00000000000E+00  0.00000000000E+00  0.12816384893E+02  0.12879154543E+02  0.12700000000E+01 0. -1.
         -4   -1    0    0    0  501 -0.00000000000E+00 -0.00000000000E+00 -0.30397722652E+03  0.30397987950E+03  0.12700000000E+01 0. -1.
         25    2    1    2    0    0  0.00000000000E+00  0.00000000000E+00 -0.29116084163E+03  0.31685903405E+03  0.12500004704E+03 0.  0.
    9000005    1    3    3    0    0  0.45861579513E+02 -0.40433515213E+02 -0.11281292531E+03  0.12831956104E+03  0.10000000000E+01 0.  0.
    9000005    1    3    3    0    0 -0.45861579513E+02  0.40433515213E+02 -0.17834791632E+03  0.18853947301E+03  0.10000000000E+01 0.  0.
<mgrwt>
<rscale>  0 0.12500005E+03</rscale>
<asrwt>0</asrwt>
<pdfrwt beam="1">  1        4 0.19767843E-02 0.12500005E+03</pdfrwt>
<pdfrwt beam="2">  1       -4 0.46770754E-01 0.12500005E+03</pdfrwt>
<totfact> 0.73531191E+03</totfact>
</mgrwt>
</event>
<event>
 5    1  0.3327068E-002  0.1249997E+03  0.7818608E-02  0.1235070E+00
         -4   -1    0    0    0  501 -0.00000000000E+00  0.00000000000E+00  0.21433940704E+03  0.21434316950E+03  0.12700000000E+01 0.  1.
          4   -1    0    0  501    0  0.00000000000E+00 -0.00000000000E+00 -0.18198466405E+02  0.18242726756E+02  0.12700000000E+01 0.  1.
         25    2    1    2    0    0  0.00000000000E+00  0.00000000000E+00  0.19614094064E+03  0.23258589626E+03  0.12499972217E+03 0.  0.
    9000005    1    3    3    0    0 -0.17566370012E+02  0.59899203211E+02  0.10357155469E+03  0.12093204224E+03  0.10000000000E+01 0.  0.
    9000005    1    3    3    0    0  0.17566370012E+02 -0.59899203211E+02  0.92569385950E+02  0.11165385401E+03  0.10000000000E+01 0.  0.
<mgrwt>
<rscale>  0 0.12499972E+03</rscale>
<asrwt>0</asrwt>
<pdfrwt beam="2">  1        4 0.28034582E-02 0.12499972E+03</pdfrwt>
<pdfrwt beam="1">  1       -4 0.32978987E-01 0.12499972E+03</pdfrwt>
<totfact> 0.84914632E+03</totfact>
</mgrwt>
</event>
<event>
 5    1  0.3327068E-002  0.1249953E+03  0.7818608E-02  0.1235077E+00
         -4   -1    0    0    0  501 -0.00000000000E+00  0.00000000000E+00  0.13999948676E+02  0.14057434436E+02  0.12700000000E+01 0. -1.
          4   -1    0    0  501    0  0.00000000000E+00 -0.00000000000E+00 -0.27836714175E+03  0.27837003880E+03  0.12700000000E+01 0. -1.
         25    2    1    2    0    0  0.00000000000E+00  0.00000000000E+00 -0.26436719307E+03  0.29242747324E+03  0.12499525725E+03 0.  0.
    9000005    1    3    3    0    0  0.16632357686E+02  0.28519672541E+02 -0.80584675910E+01  0.33999205049E+02  0.10000000000E+01 0.  0.
    9000005    1    3    3    0    0 -0.16632357686E+02 -0.28519672541E+02 -0.25630872548E+03  0.25842826819E+03  0.10000000000E+01 0.  0.
<mgrwt>
<rscale>  0 0.12499526E+03</rscale>
<asrwt>0</asrwt>
<pdfrwt beam="2">  1        4 0.42830355E-01 0.12499526E+03</pdfrwt>
<pdfrwt beam="1">  1       -4 0.21584833E-02 0.12499526E+03</pdfrwt>
<totfact> 0.76566714E+03</totfact>
</mgrwt>
</event>
<event>
 5    1  0.3327068E-002  0.1250001E+03  0.7818608E-02  0.1235069E+00
          4   -1    0    0  501    0  0.00000000000E+00  0.00000000000E+00  0.12799947204E+03  0.12800577230E+03  0.12700000000E+01 0. -1.
         -4   -1    0    0    0  501 -0.00000000000E+00 -0.00000000000E+00 -0.30497500332E+02  0.30523932029E+02  0.12700000000E+01 0. -1.
         25    2    1    2    0    0  0.00000000000E+00  0.00000000000E+00  0.97501971709E+02  0.15852970433E+03  0.12500013067E+03 0.  0.
    9000005    1    3    3    0    0  0.54439763926E+02 -0.25615362757E+02  0.27324792633E+02  0.66086904890E+02  0.10000000000E+01 0.  0.
    9000005    1    3    3    0    0 -0.54439763926E+02  0.25615362757E+02  0.70177179076E+02  0.92442799441E+02  0.10000000000E+01 0.  0.
<mgrwt>
<rscale>  0 0.12500013E+03</rscale>
<asrwt>0</asrwt>
<pdfrwt beam="1">  1        4 0.19694744E-01 0.12500013E+03</pdfrwt>
<pdfrwt beam="2">  1       -4 0.46944411E-02 0.12500013E+03</pdfrwt>
<totfact> 0.97626711E+03</totfact>
</mgrwt>
</event>
<event>
 5    1  0.3327068E-002  0.1250044E+03  0.7818608E-02  0.1235062E+00
          4   -1    0    0  501    0  0.00000000000E+00  0.00000000000E+00  0.44112368138E+02  0.44130646072E+02  0.12700000000E+01 0. -1.
         -4   -1    0    0    0  501 -0.00000000000E+00 -0.00000000000E+00 -0.88517370516E+02  0.88526480689E+02  0.12700000000E+01 0. -1.
         25    2    1    2    0    0  0.00000000000E+00  0.00000000000E+00 -0.44405002378E+02  0.13265712676E+03  0.12500443610E+03 0.  0.
    9000005    1    3    3    0    0  0.52998756073E+02  0.16300919504E+02  0.83882237601E+01  0.56088772671E+02  0.10000000000E+01 0.  0.
    9000005    1    3    3    0    0 -0.52998756073E+02 -0.16300919504E+02 -0.52793226138E+02  0.76568354090E+02  0.10000000000E+01 0.  0.
<mgrwt>
<rscale>  0 0.12500444E+03</rscale>
<asrwt>0</asrwt>
<pdfrwt beam="1">  1        4 0.67886250E-02 0.12500444E+03</pdfrwt>
<pdfrwt beam="2">  1       -4 0.13620164E-01 0.12500444E+03</pdfrwt>
<totfact> 0.10286663E+04</totfact>
</mgrwt>
</event>
<event>
 5    1  0.3327068E-002  0.1249982E+03  0.7818608E-02  0.1235072E+00
          4   -1    0    0  501    0  0.00000000000E+00  0.00000000000E+00  0.55883801605E+02  0.55898230579E+02  0.12700000000E+01 0. -1.
         -4   -1    0    0    0  501 -0.00000000000E+00 -0.00000000000E+00 -0.69868224946E+02  0.69879766436E+02  0.12700000000E+01 0. -1.
         25    2    1    2    0    0  0.00000000000E+00  0.00000000000E+00 -0.13984423341E+02  0.12577799701E+03  0.12499816173E+03 0.  0.
    9000005    1    3    3    0    0 -0.16269716034E+02  0.24338018500E+02  0.48561759039E+02  0.56712320049E+02  0.10000000000E+01 0.  0.
    9000005    1    3    3    0    0  0.16269716034E+02 -0.24338018500E+02 -0.62546182380E+02  0.69065676965E+02  0.10000000000E+01 0.  0.
<mgrwt>
<rscale>  0 0.12499816E+03</rscale>
<asrwt>0</asrwt>
<pdfrwt beam="1">  1        4 0.85995057E-02 0.12499816E+03</pdfrwt>
<pdfrwt beam="2">  1       -4 0.10750955E-01 0.12499816E+03</pdfrwt>
<totfact> 0.10436262E+04</totfact>
</mgrwt>
</event>
<event>
 5    1  0.3327068E-002  0.1250053E+03  0.7818608E-02  0.1235061E+00
         -4   -1    0    0    0  501 -0.00000000000E+00  0.00000000000E+00  0.23720164482E+03  0.23720504464E+03  0.12700000000E+01 0.  1.
          4   -1    0    0  501    0  0.00000000000E+00 -0.00000000000E+00 -0.16441445217E+02  0.16490422094E+02  0.12700000000E+01 0.  1.
         25    2    1    2    0    0  0.00000000000E+00  0.00000000000E+00  0.22076019960E+03  0.25369546674E+03  0.12500529635E+03 0.  0.
    9000005    1    3    3    0    0  0.43934968211E+02 -0.36993791214E+02  0.16037116716E+03  0.17034885757E+03  0.10000000000E+01 0.  0.
    9000005    1    3    3    0    0 -0.43934968211E+02  0.36993791214E+02  0.60389032442E+02  0.83346609165E+02  0.10000000000E+01 0.  0.
<mgrwt>
<rscale>  0 0.12500530E+03</rscale>
<asrwt>0</asrwt>
<pdfrwt beam="2">  1        4 0.25334819E-02 0.12500530E+03</pdfrwt>
<pdfrwt beam="1">  1       -4 0.36496592E-01 0.12500530E+03</pdfrwt>
<totfact> 0.81789384E+03</totfact>
</mgrwt>
</event>
<event>
 5    1  0.3327068E-002  0.1249997E+03  0.7818608E-02  0.1235070E+00
         -4   -1    0    0    0  501 -0.00000000000E+00  0.00000000000E+00  0.60941912065E+02  0.60955143722E+02  0.12700000000E+01 0. -1.
          4   -1    0    0  501    0  0.00000000000E+00 -0.00000000000E+00 -0.64071121842E+02  0.64083707400E+02  0.12700000000E+01 0. -1.
         25    2    1    2    0    0  0.00000000000E+00  0.00000000000E+00 -0.31292097775E+01  0.12503885112E+03  0.12499968934E+03 0.  0.
    9000005    1    3    3    0    0 -0.26671006778E+02 -0.51998431625E+02 -0.23708637927E+02  0.63073599916E+02  0.10000000000E+01 0.  0.
    9000005    1    3    3    0    0  0.26671006778E+02  0.51998431625E+02  0.20579428149E+02  0.61965251206E+02  0.10000000000E+01 0.  0.
<mgrwt>
<rscale>  0 0.12499969E+03</rscale>
<asrwt>0</asrwt>
<pdfrwt beam="2">  1        4 0.98590817E-02 0.12499969E+03</pdfrwt>
<pdfrwt beam="1">  1       -4 0.93776647E-02 0.12499969E+03</pdfrwt>
<totfact> 0.10452092E+04</totfact>
</mgrwt>
</event>
<event>
 5    1  0.3327068E-002  0.1250327E+03  0.7818608E-02  0.1235018E+00
         -4   -1    0    0    0  501 -0.00000000000E+00  0.00000000000E+00  0.32492543418E+02  0.32517353487E+02  0.12700000000E+01 0. -1.
          4   -1    0    0  501    0  0.00000000000E+00 -0.00000000000E+00 -0.12020866103E+03  0.12021536959E+03  0.12700000000E+01 0. -1.
         25    2    1    2    0    0  0.00000000000E+00  0.00000000000E+00 -0.87716117610E+02  0.15273272308E+03  0.12503266537E+03 0.  0.
    9000005    1    3    3    0    0 -0.54013117266E+02  0.49224002677E+01 -0.58988325214E+01  0.54565951713E+02  0.10000000000E+01 0.  0.
    9000005    1    3    3    0    0  0.54013117266E+02 -0.49224002677E+01 -0.81817285089E+02  0.98166771367E+02  0.10000000000E+01 0.  0.
<mgrwt>
<rscale>  0 0.12503267E+03</rscale>
<asrwt>0</asrwt>
<pdfrwt beam="2">  1        4 0.18496064E-01 0.12503267E+03</pdfrwt>
<pdfrwt beam="1">  1       -4 0.50012774E-02 0.12503267E+03</pdfrwt>
<totfact> 0.98689186E+03</totfact>
</mgrwt>
</event>
<event>
 5    1  0.3327068E-002  0.1249398E+03  0.7818608E-02  0.1235163E+00
          4   -1    0    0  501    0  0.00000000000E+00  0.00000000000E+00  0.14301128338E+03  0.14301692233E+03  0.12700000000E+01 0.  1.
         -4   -1    0    0    0  501 -0.00000000000E+00 -0.00000000000E+00 -0.27267023187E+02  0.27296583184E+02  0.12700000000E+01 0.  1.
         25    2    1    2    0    0  0.00000000000E+00  0.00000000000E+00  0.11574426019E+03  0.17031350551E+03  0.12493981108E+03 0.  0.
    9000005    1    3    3    0    0  0.37547161846E+02  0.60243984720E+01 -0.96754711865E+01  0.39251719482E+02  0.10000000000E+01 0.  0.
    9000005    1    3    3    0    0 -0.37547161846E+02 -0.60243984720E+01  0.12541973137E+03  0.13106178603E+03  0.10000000000E+01 0.  0.
<mgrwt>
<rscale>  0 0.12493981E+03</rscale>
<asrwt>0</asrwt>
<pdfrwt beam="1">  1        4 0.22004443E-01 0.12493981E+03</pdfrwt>
<pdfrwt beam="2">  1       -4 0.41976343E-02 0.12493981E+03</pdfrwt>
<totfact> 0.95519213E+03</totfact>
</mgrwt>
</event>
<event>
 5    1  0.3327068E-002  0.1249938E+03  0.7818608E-02  0.1235079E+00
         -4   -1    0    0    0  501 -0.00000000000E+00  0.00000000000E+00  0.14839449171E+03  0.14839992611E+03  0.12700000000E+01 0. -1.
          4   -1    0    0  501    0  0.00000000000E+00 -0.00000000000E+00 -0.26299581103E+02  0.26330227234E+02  0.12700000000E+01 0. -1.
         25    2    1    2    0    0  0.00000000000E+00  0.00000000000E+00  0.12209491060E+03  0.17473015334E+03  0.12499383701E+03 0.  0.
    9000005    1    3    3    0    0  0.35684368056E+02  0.36255834070E+02  0.10316504489E+02  0.51916181413E+02  0.10000000000E+01 0.  0.
    9000005    1    3    3    0    0 -0.35684368056E+02 -0.36255834070E+02  0.11177840611E+03  0.12281397193E+03  0.10000000000E+01 0.  0.
<mgrwt>
<rscale>  0 0.12499384E+03</rscale>
<asrwt>0</asrwt>
<pdfrwt beam="2">  1        4 0.40488648E-02 0.12499384E+03</pdfrwt>
<pdfrwt beam="1">  1       -4 0.22832697E-01 0.12499384E+03</pdfrwt>
<totfact> 0.94587362E+03</totfact>
</mgrwt>
</event>
<event>
 5    1  0.3327068E-002  0.1250368E+03  0.7818608E-02  0.1235012E+00
          4   -1    0    0  501    0  0.00000000000E+00  0.00000000000E+00  0.22693645843E+02  0.22729154442E+02  0.12700000000E+01 0. -1.
         -4   -1    0    0    0  501 -0.00000000000E+00 -0.00000000000E+00 -0.17205845969E+03  0.17206314670E+03  0.12700000000E+01 0. -1.
         25    2    1    2    0    0  0.00000000000E+00  0.00000000000E+00 -0.14936481385E+03  0.19479230114E+03  0.12503676646E+03 0.  0.
    9000005    1    3    3    0    0  0.33267018892E+02 -0.19676987538E+02  0.18548666253E+01  0.38708124660E+02  0.10000000000E+01 0.  0.
    9000005    1    3    3    0    0 -0.33267018892E+02  0.19676987538E+02 -0.15121968048E+03  0.15608417648E+03  0.10000000000E+01 0.  0.
<mgrwt>
<rscale>  0 0.12503677E+03</rscale>
<asrwt>0</asrwt>
<pdfrwt beam="1">  1        4 0.34944222E-02 0.12503677E+03</pdfrwt>
<pdfrwt beam="2">  1       -4 0.26473623E-01 0.12503677E+03</pdfrwt>
<totfact> 0.90945206E+03</totfact>
</mgrwt>
</event>
<event>
 5    1  0.3327068E-002  0.1250019E+03  0.7818608E-02  0.1235066E+00
         -4   -1    0    0    0  501 -0.00000000000E+00  0.00000000000E+00  0.62643503993E+02  0.62656376312E+02  0.12700000000E+01 0.  1.
          4   -1    0    0  501    0  0.00000000000E+00 -0.00000000000E+00 -0.62332939242E+02  0.62345875682E+02  0.12700000000E+01 0.  1.
         25    2    1    2    0    0  0.00000000000E+00  0.00000000000E+00  0.31056475113E+00  0.12500225199E+03  0.12500186620E+03 0.  0.
    9000005    1    3    3    0    0 -0.22654076389E+01 -0.15027891553E+02 -0.60461709654E+02  0.62350524702E+02  0.10000000000E+01 0.  0.
    9000005    1    3    3    0    0  0.22654076389E+01  0.15027891553E+02  0.60772274405E+02  0.62651727292E+02  0.10000000000E+01 0.  0.
<mgrwt>
<rscale>  0 0.12500187E+03</rscale>
<asrwt>0</asrwt>
<pdfrwt beam="2">  1        4 0.95916682E-02 0.12500187E+03</pdfrwt>
<pdfrwt beam="1">  1       -4 0.96394475E-02 0.12500187E+03</pdfrwt>
<totfact> 0.10452373E+04</totfact>
</mgrwt>
</event>
<event>
 5    1  0.3327068E-002  0.1250000E+03  0.7818608E-02  0.1235069E+00
          4   -1    0    0  501    0  0.00000000000E+00  0.00000000000E+00  0.13642419954E+02  0.13701405847E+02  0.12700000000E+01 0. -1.
         -4   -1    0    0    0  501 -0.00000000000E+00 -0.00000000000E+00 -0.28565309093E+03  0.28565591410E+03  0.12700000000E+01 0. -1.
         25    2    1    2    0    0  0.00000000000E+00  0.00000000000E+00 -0.27201067098E+03  0.29935731995E+03  0.12499999951E+03 0.  0.
    9000005    1    3    3    0    0 -0.46856711495E+02 -0.34119019124E+02 -0.19194418191E+03  0.20050742591E+03  0.10000000000E+01 0.  0.
    9000005    1    3    3    0    0  0.46856711495E+02  0.34119019124E+02 -0.80066489074E+02  0.98849894035E+02  0.10000000000E+01 0.  0.
<mgrwt>
<rscale>  0 0.12500000E+03</rscale>
<asrwt>0</asrwt>
<pdfrwt beam="1">  1        4 0.21035886E-02 0.12500000E+03</pdfrwt>
<pdfrwt beam="2">  1       -4 0.43951379E-01 0.12500000E+03</pdfrwt>
<totfact> 0.75679529E+03</totfact>
</mgrwt>
</event>
<event>
 5    1  0.3327068E-002  0.1250010E+03  0.7818608E-02  0.1235068E+00
          4   -1    0    0  501    0  0.00000000000E+00  0.00000000000E+00  0.67946422159E+02  0.67958290033E+02  0.12700000000E+01 0.  1.
         -4   -1    0    0    0  501 -0.00000000000E+00 -0.00000000000E+00 -0.57467164222E+02  0.57481195740E+02  0.12700000000E+01 0.  1.
         25    2    1    2    0    0  0.00000000000E+00  0.00000000000E+00  0.10479257937E+02  0.12543948577E+03  0.12500099897E+03 0.  0.
    9000005    1    3    3    0    0  0.34681273323E+02  0.44513044537E+02  0.32187329711E+02  0.64970963108E+02  0.10000000000E+01 0.  0.
    9000005    1    3    3    0    0 -0.34681273323E+02 -0.44513044537E+02 -0.21708071774E+02  0.60468522666E+02  0.10000000000E+01 0.  0.
<mgrwt>
<rscale>  0 0.12500100E+03</rscale>
<asrwt>0</asrwt>
<pdfrwt beam="1">  1        4 0.10455288E-01 0.12500100E+03</pdfrwt>
<pdfrwt beam="2">  1       -4 0.88430944E-02 0.12500100E+03</pdfrwt>
<totfact> 0.10443057E+04</totfact>
</mgrwt>
</event>
<event>
 5    1  0.3327068E-002  0.1250013E+03  0.7818608E-02  0.1235067E+00
          4   -1    0    0  501    0  0.00000000000E+00  0.00000000000E+00  0.12436573037E+02  0.12501249893E+02  0.12700000000E+01 0. -1.
         -4   -1    0    0    0  501 -0.00000000000E+00 -0.00000000000E+00 -0.31321983470E+03  0.31322240940E+03  0.12700000000E+01 0. -1.
         25    2    1    2    0    0  0.00000000000E+00  0.00000000000E+00 -0.30078326166E+03  0.32572365929E+03  0.12500132690E+03 0.  0.
    9000005    1    3    3    0    0  0.53881978959E+02 -0.28318529970E+02 -0.11352897798E+03  0.12882172037E+03  0.10000000000E+01 0.  0.
    9000005    1    3    3    0    0 -0.53881978959E+02  0.28318529970E+02 -0.18725428368E+03  0.19690193892E+03  0.10000000000E+01 0.  0.
<mgrwt>
<rscale>  0 0.12500133E+03</rscale>
<asrwt>0</asrwt>
<pdfrwt beam="1">  1        4 0.19184924E-02 0.12500133E+03</pdfrwt>
<pdfrwt beam="2">  1       -4 0.48192834E-01 0.12500133E+03</pdfrwt>
<totfact> 0.72478375E+03</totfact>
</mgrwt>
</event>
<event>
 5    1  0.3327068E-002  0.1250019E+03  0.7818608E-02  0.1235066E+00
          4   -1    0    0  501    0  0.00000000000E+00  0.00000000000E+00  0.18480018931E+02  0.18523606552E+02  0.12700000000E+01 0. -1.
         -4   -1    0    0    0  501 -0.00000000000E+00 -0.00000000000E+00 -0.21108876867E+03  0.21109258906E+03  0.12700000000E+01 0. -1.
         25    2    1    2    0    0  0.00000000000E+00  0.00000000000E+00 -0.19260874974E+03  0.22961619562E+03  0.12500186724E+03 0.  0.
    9000005    1    3    3    0    0  0.30572435529E+02  0.25733319373E+02 -0.80472172156E+01  0.40775424523E+02  0.10000000000E+01 0.  0.
    9000005    1    3    3    0    0 -0.30572435529E+02 -0.25733319373E+02 -0.18456153252E+03  0.18884077109E+03  0.10000000000E+01 0.  0.
<mgrwt>
<rscale>  0 0.12500187E+03</rscale>
<asrwt>0</asrwt>
<pdfrwt beam="1">  1        4 0.28467268E-02 0.12500187E+03</pdfrwt>
<pdfrwt beam="2">  1       -4 0.32478840E-01 0.12500187E+03</pdfrwt>
<totfact> 0.85365009E+03</totfact>
</mgrwt>
</event>
<event>
 5    1  0.3327068E-002  0.1249989E+03  0.7818608E-02  0.1235071E+00
         -4   -1    0    0    0  501 -0.00000000000E+00  0.00000000000E+00  0.19953962532E+03  0.19954366683E+03  0.12700000000E+01 0. -1.
          4   -1    0    0  501    0  0.00000000000E+00 -0.00000000000E+00 -0.19551113665E+02  0.19592318534E+02  0.12700000000E+01 0. -1.
         25    2    1    2    0    0  0.00000000000E+00  0.00000000000E+00  0.17998851165E+03  0.21913598536E+03  0.12499886301E+03 0.  0.
    9000005    1    3    3    0    0  0.32515946709E+02 -0.17710413042E+02  0.17409575780E+01  0.37080674938E+02  0.10000000000E+01 0.  0.
    9000005    1    3    3    0    0 -0.32515946709E+02  0.17710413042E+02  0.17824755407E+03  0.18205531043E+03  0.10000000000E+01 0.  0.
<mgrwt>
<rscale>  0 0.12499886E+03</rscale>
<asrwt>0</asrwt>
<pdfrwt beam="2">  1        4 0.30113439E-02 0.12499886E+03</pdfrwt>
<pdfrwt beam="1">  1       -4 0.30701886E-01 0.12499886E+03</pdfrwt>
<totfact> 0.87007461E+03</totfact>
</mgrwt>
</event>
<event>
 5    1  0.3327068E-002  0.1249999E+03  0.7818608E-02  0.1235069E+00
         -4   -1    0    0    0  501 -0.00000000000E+00  0.00000000000E+00  0.18928213190E+02  0.18970771058E+02  0.12700000000E+01 0.  1.
          4   -1    0    0  501    0  0.00000000000E+00 -0.00000000000E+00 -0.20609511494E+03  0.20609902790E+03  0.12700000000E+01 0.  1.
         25    2    1    2    0    0  0.00000000000E+00  0.00000000000E+00 -0.18716690175E+03  0.22506979896E+03  0.12499986117E+03 0.  0.
    9000005    1    3    3    0    0 -0.52311549171E+02  0.33999192664E+02 -0.87142062200E+02  0.10717827337E+03  0.10000000000E+01 0.  0.
    9000005    1    3    3    0    0  0.52311549171E+02 -0.33999192664E+02 -0.10002483955E+03  0.11789152559E+03  0.10000000000E+01 0.  0.
<mgrwt>
<rscale>  0 0.12499986E+03</rscale>
<asrwt>0</asrwt>
<pdfrwt beam="2">  1        4 0.31710514E-01 0.12499986E+03</pdfrwt>
<pdfrwt beam="1">  1       -4 0.29156076E-02 0.12499986E+03</pdfrwt>
<totfact> 0.86072691E+03</totfact>
</mgrwt>
</event>
<event>
 5    1  0.3327068E-002  0.1250111E+03  0.7818608E-02  0.1235052E+00
          4   -1    0    0  501    0  0.00000000000E+00  0.00000000000E+00  0.61207829629E+02  0.61221003813E+02  0.12700000000E+01 0.  1.
         -4   -1    0    0    0  501 -0.00000000000E+00 -0.00000000000E+00 -0.63804421223E+02  0.63817059377E+02  0.12700000000E+01 0.  1.
         25    2    1    2    0    0  0.00000000000E+00  0.00000000000E+00 -0.25965915937E+01  0.12503806319E+03  0.12501109934E+03 0.  0.
    9000005    1    3    3    0    0 -0.16415489074E+02  0.57785292173E+02 -0.18545433123E+02  0.62877192708E+02  0.10000000000E+01 0.  0.
    9000005    1    3    3    0    0  0.16415489074E+02 -0.57785292173E+02  0.15948841530E+02  0.62160870483E+02  0.10000000000E+01 0.  0.
<mgrwt>
<rscale>  0 0.12501110E+03</rscale>
<asrwt>0</asrwt>
<pdfrwt beam="1">  1        4 0.94185747E-02 0.12501110E+03</pdfrwt>
<pdfrwt beam="2">  1       -4 0.98180504E-02 0.12501110E+03</pdfrwt>
<totfact> 0.10449414E+04</totfact>
</mgrwt>
</event>
<event>
 5    1  0.3327068E-002  0.1249989E+03  0.7818608E-02  0.1235071E+00
         -4   -1    0    0    0  501 -0.00000000000E+00  0.00000000000E+00  0.54429215204E+02  0.54444029679E+02  0.12700000000E+01 0. -1.
          4   -1    0    0  501    0  0.00000000000E+00 -0.00000000000E+00 -0.71736021533E+02  0.71747262564E+02  0.12700000000E+01 0. -1.
         25    2    1    2    0    0  0.00000000000E+00  0.00000000000E+00 -0.17306806329E+02  0.12619129224E+03  0.12499886677E+03 0.  0.
    9000005    1    3    3    0    0 -0.30855772466E+02  0.53480770757E+02  0.10774074775E+01  0.61761090843E+02  0.10000000000E+01 0.  0.
    9000005    1    3    3    0    0  0.30855772466E+02 -0.53480770757E+02 -0.18384213807E+02  0.64430201401E+02  0.10000000000E+01 0.  0.
<mgrwt>
<rscale>  0 0.12499887E+03</rscale>
<asrwt>0</asrwt>
<pdfrwt beam="2">  1        4 0.11038315E-01 0.12499887E+03</pdfrwt>
<pdfrwt beam="1">  1       -4 0.83757297E-02 0.12499887E+03</pdfrwt>
<totfact> 0.10427036E+04</totfact>
</mgrwt>
</event>
<event>
 5    1  0.3327068E-002  0.1250010E+03  0.7818608E-02  0.1235068E+00
          4   -1    0    0  501    0  0.00000000000E+00  0.00000000000E+00  0.13266579498E+02  0.13327228953E+02  0.12700000000E+01 0.  1.
         -4   -1    0    0    0  501 -0.00000000000E+00 -0.00000000000E+00 -0.29371396488E+03  0.29371671057E+03  0.12700000000E+01 0.  1.
         25    2    1    2    0    0  0.00000000000E+00  0.00000000000E+00 -0.28044738538E+03  0.30704393952E+03  0.12500097931E+03 0.  0.
    9000005    1    3    3    0    0 -0.51742906150E+02  0.34525592924E+02 -0.12549259819E+03  0.14006690224E+03  0.10000000000E+01 0.  0.
    9000005    1    3    3    0    0  0.51742906150E+02 -0.34525592924E+02 -0.15495478719E+03  0.16697703728E+03  0.10000000000E+01 0.  0.
<mgrwt>
<rscale>  0 0.12500098E+03</rscale>
<asrwt>0</asrwt>
<pdfrwt beam="1">  1        4 0.20458890E-02 0.12500098E+03</pdfrwt>
<pdfrwt beam="2">  1       -4 0.45191635E-01 0.12500098E+03</pdfrwt>
<totfact> 0.74722049E+03</totfact>
</mgrwt>
</event>
<event>
 5    1  0.3327068E-002  0.1250000E+03  0.7818608E-02  0.1235069E+00
          4   -1    0    0  501    0  0.00000000000E+00  0.00000000000E+00  0.41196852055E+03  0.41197047809E+03  0.12700000000E+01 0. -1.
         -4   -1    0    0    0  501 -0.00000000000E+00 -0.00000000000E+00 -0.94374018250E+01  0.95224709612E+01  0.12700000000E+01 0. -1.
         25    2    1    2    0    0  0.00000000000E+00  0.00000000000E+00  0.40253111872E+03  0.42149294905E+03  0.12500001826E+03 0.  0.
    9000005    1    3    3    0    0 -0.30709021494E+02  0.42849478710E+02  0.88110397719E+02  0.10268185825E+03  0.10000000000E+01 0.  0.
    9000005    1    3    3    0    0  0.30709021494E+02 -0.42849478710E+02  0.31442072100E+03  0.31881109081E+03  0.10000000000E+01 0.  0.
<mgrwt>
<rscale>  0 0.12500002E+03</rscale>
<asrwt>0</asrwt>
<pdfrwt beam="1">  1        4 0.63386444E-01 0.12500002E+03</pdfrwt>
<pdfrwt beam="2">  1       -4 0.14586029E-02 0.12500002E+03</pdfrwt>
<totfact> 0.62514733E+03</totfact>
</mgrwt>
</event>
<event>
 5    1  0.3327068E-002  0.1250026E+03  0.7818608E-02  0.1235065E+00
         -4   -1    0    0    0  501 -0.00000000000E+00  0.00000000000E+00  0.14255952375E+02  0.14312409934E+02  0.12700000000E+01 0.  1.
          4   -1    0    0  501    0  0.00000000000E+00 -0.00000000000E+00 -0.27342050591E+03  0.27342345538E+03  0.12700000000E+01 0.  1.
         25    2    1    2    0    0  0.00000000000E+00  0.00000000000E+00 -0.25916455353E+03  0.28773586531E+03  0.12500264949E+03 0.  0.
    9000005    1    3    3    0    0  0.19005556090E+02  0.57790797311E+02 -0.96670967458E+02  0.11422461804E+03  0.10000000000E+01 0.  0.
    9000005    1    3    3    0    0 -0.19005556090E+02 -0.57790797311E+02 -0.16249358607E+03  0.17351124727E+03  0.10000000000E+01 0.  0.
<mgrwt>
<rscale>  0 0.12500265E+03</rscale>
<asrwt>0</asrwt>
<pdfrwt beam="2">  1        4 0.42069259E-01 0.12500265E+03</pdfrwt>
<pdfrwt beam="1">  1       -4 0.21977934E-02 0.12500265E+03</pdfrwt>
<totfact> 0.77158901E+03</totfact>
</mgrwt>
</event>
<event>
 5    1  0.3327068E-002  0.1250058E+03  0.7818608E-02  0.1235060E+00
         -4   -1    0    0    0  501 -0.00000000000E+00  0.00000000000E+00  0.19940191689E+03  0.19940596120E+03  0.12700000000E+01 0.  1.
          4   -1    0    0  501    0  0.00000000000E+00 -0.00000000000E+00 -0.19566830966E+02  0.19608002806E+02  0.12700000000E+01 0.  1.
         25    2    1    2    0    0  0.00000000000E+00  0.00000000000E+00  0.17983508593E+03  0.21901396400E+03  0.12500583305E+03 0.  0.
    9000005    1    3    3    0    0  0.27220199791E+02  0.23562452636E+02  0.41836984008E+00  0.36018099398E+02  0.10000000000E+01 0.  0.
    9000005    1    3    3    0    0 -0.27220199791E+02 -0.23562452636E+02  0.17941671609E+03  0.18299586461E+03  0.10000000000E+01 0.  0.
<mgrwt>
<rscale>  0 0.12500583E+03</rscale>
<asrwt>0</asrwt>
<pdfrwt beam="2">  1        4 0.30137598E-02 0.12500583E+03</pdfrwt>
<pdfrwt beam="1">  1       -4 0.30680697E-01 0.12500583E+03</pdfrwt>
<totfact> 0.87013278E+03</totfact>
</mgrwt>
</event>
<event>
 5    1  0.3327068E-002  0.1249991E+03  0.7818608E-02  0.1235071E+00
         -4   -1    0    0    0  501 -0.00000000000E+00  0.00000000000E+00  0.35191100342E+03  0.35191329504E+03  0.12700000000E+01 0.  1.
          4   -1    0    0  501    0  0.00000000000E+00 -0.00000000000E+00 -0.11061278019E+02  0.11133946803E+02  0.12700000000E+01 0.  1.
         25    2    1    2    0    0  0.00000000000E+00  0.00000000000E+00  0.34084972540E+03  0.36304724184E+03  0.12499905802E+03 0.  0.
    9000005    1    3    3    0    0 -0.44722491827E+02  0.26826028145E+02  0.70425146705E+02  0.87638110144E+02  0.10000000000E+01 0.  0.
    9000005    1    3    3    0    0  0.44722491827E+02 -0.26826028145E+02  0.27042457870E+03  0.27540913170E+03  0.10000000000E+01 0.  0.
<mgrwt>
<rscale>  0 0.12499906E+03</rscale>
<asrwt>0</asrwt>
<pdfrwt beam="2">  1        4 0.17075014E-02 0.12499906E+03</pdfrwt>
<pdfrwt beam="1">  1       -4 0.54145916E-01 0.12499906E+03</pdfrwt>
<totfact> 0.68314077E+03</totfact>
</mgrwt>
</event>
<event>
 5    1  0.3327068E-002  0.1250014E+03  0.7818608E-02  0.1235067E+00
          4   -1    0    0  501    0  0.00000000000E+00  0.00000000000E+00  0.25884501775E+03  0.25884813330E+03  0.12700000000E+01 0.  1.
         -4   -1    0    0    0  501 -0.00000000000E+00 -0.00000000000E+00 -0.15061478260E+02  0.15114927303E+02  0.12700000000E+01 0.  1.
         25    2    1    2    0    0  0.00000000000E+00  0.00000000000E+00  0.24378353949E+03  0.27396306060E+03  0.12500137779E+03 0.  0.
    9000005    1    3    3    0    0  0.39170120714E+02  0.34792146905E+02  0.47228317770E+02  0.70542936162E+02  0.10000000000E+01 0.  0.
    9000005    1    3    3    0    0 -0.39170120714E+02 -0.34792146905E+02  0.19655522172E+03  0.20342012444E+03  0.10000000000E+01 0.  0.
<mgrwt>
<rscale>  0 0.12500138E+03</rscale>
<asrwt>0</asrwt>
<pdfrwt beam="1">  1        4 0.39826663E-01 0.12500138E+03</pdfrwt>
<pdfrwt beam="2">  1       -4 0.23215015E-02 0.12500138E+03</pdfrwt>
<totfact> 0.78983007E+03</totfact>
</mgrwt>
</event>
<event>
 5    1  0.3327068E-002  0.1249990E+03  0.7818608E-02  0.1235071E+00
         -4   -1    0    0    0  501 -0.00000000000E+00  0.00000000000E+00  0.18371120554E+03  0.18371559526E+03  0.12700000000E+01 0.  1.
          4   -1    0    0  501    0  0.00000000000E+00 -0.00000000000E+00 -0.21239048240E+02  0.21276984517E+02  0.12700000000E+01 0.  1.
         25    2    1    2    0    0  0.00000000000E+00  0.00000000000E+00  0.16247215730E+03  0.20499257978E+03  0.12499902346E+03 0.  0.
    9000005    1    3    3    0    0  0.43781847449E+02 -0.42824636345E+02  0.10161307422E+03  0.11864660339E+03  0.10000000000E+01 0.  0.
    9000005    1    3    3    0    0 -0.43781847449E+02  0.42824636345E+02  0.60859083084E+02  0.86345976386E+02  0.10000000000E+01 0.  0.
<mgrwt>
<rscale>  0 0.12499902E+03</rscale>
<asrwt>0</asrwt>
<pdfrwt beam="2">  1        4 0.32708018E-02 0.12499902E+03</pdfrwt>
<pdfrwt beam="1">  1       -4 0.28266517E-01 0.12499902E+03</pdfrwt>
<totfact> 0.89302195E+03</totfact>
</mgrwt>
</event>
<event>
 5    1  0.3327068E-002  0.1250007E+03  0.7818608E-02  0.1235068E+00
          4   -1    0    0  501    0  0.00000000000E+00  0.00000000000E+00  0.43718835430E+02  0.43737277823E+02  0.12700000000E+01 0. -1.
         -4   -1    0    0    0  501 -0.00000000000E+00 -0.00000000000E+00 -0.89308501912E+02  0.89317531391E+02  0.12700000000E+01 0. -1.
         25    2    1    2    0    0  0.00000000000E+00  0.00000000000E+00 -0.45589666482E+02  0.13305480921E+03  0.12500065826E+03 0.  0.
    9000005    1    3    3    0    0 -0.37577936035E+02 -0.44472756200E+02 -0.46959190062E+02  0.74807037449E+02  0.10000000000E+01 0.  0.
    9000005    1    3    3    0    0  0.37577936035E+02  0.44472756200E+02  0.13695235799E+01  0.58247771764E+02  0.10000000000E+01 0.  0.
<mgrwt>
<rscale>  0 0.12500066E+03</rscale>
<asrwt>0</asrwt>
<pdfrwt beam="1">  1        4 0.67280879E-02 0.12500066E+03</pdfrwt>
<pdfrwt beam="2">  1       -4 0.13741883E-01 0.12500066E+03</pdfrwt>
<totfact> 0.10279083E+04</totfact>
</mgrwt>
</event>
<event>
 5    1  0.3327068E-002  0.1249998E+03  0.7818608E-02  0.1235070E+00
          4   -1    0    0  501    0  0.00000000000E+00  0.00000000000E+00  0.13930078470E+04  0.13930084260E+04  0.12700000000E+01 0.  1.
         -4   -1    0    0    0  501 -0.00000000000E+00 -0.00000000000E+00 -0.26597720347E+01  0.29474204445E+01  0.12700000000E+01 0.  1.
         25    2    1    2    0    0  0.00000000000E+00  0.00000000000E+00  0.13903480750E+04  0.13959558464E+04  0.12499982184E+03 0.  0.
    9000005    1    3    3    0    0  0.39585842451E+02  0.31848104931E+02  0.28883403746E+03  0.29327025404E+03  0.10000000000E+01 0.  0.
    9000005    1    3    3    0    0 -0.39585842451E+02 -0.31848104931E+02  0.11015140376E+04  0.11026855924E+04  0.10000000000E+01 0.  0.
<mgrwt>
<rscale>  0 0.12499982E+03</rscale>
<asrwt>0</asrwt>
<pdfrwt beam="1">  1        4 0.21433094E+00 0.12499982E+03</pdfrwt>
<pdfrwt beam="2">  1       -4 0.43136729E-03 0.12499982E+03</pdfrwt>
<totfact> 0.20067972E+03</totfact>
</mgrwt>
</event>
<event>
 5    1  0.3327068E-002  0.1250072E+03  0.7818608E-02  0.1235058E+00
         -4   -1    0    0    0  501 -0.00000000000E+00  0.00000000000E+00  0.91593560616E+02  0.91602364851E+02  0.12700000000E+01 0.  1.
          4   -1    0    0  501    0  0.00000000000E+00 -0.00000000000E+00 -0.42632274742E+02  0.42651186967E+02  0.12700000000E+01 0.  1.
         25    2    1    2    0    0  0.00000000000E+00  0.00000000000E+00  0.48961285874E+02  0.13425355182E+03  0.12500723444E+03 0.  0.
    9000005    1    3    3    0    0 -0.14918655758E+02 -0.31423495778E+02  0.80241109538E+02  0.87462209190E+02  0.10000000000E+01 0.  0.
    9000005    1    3    3    0    0  0.14918655758E+02  0.31423495778E+02 -0.31279823663E+02  0.46791342628E+02  0.10000000000E+01 0.  0.
<mgrwt>
<rscale>  0 0.12500723E+03</rscale>
<asrwt>0</asrwt>
<pdfrwt beam="2">  1        4 0.65609436E-02 0.12500723E+03</pdfrwt>
<pdfrwt beam="1">  1       -4 0.14093449E-01 0.12500723E+03</pdfrwt>
<totfact> 0.10252155E+04</totfact>
</mgrwt>
</event>
<event>
 5    1  0.3327068E-002  0.1250039E+03  0.7818608E-02  0.1235063E+00
          4   -1    0    0  501    0  0.00000000000E+00  0.00000000000E+00  0.18817677979E+02  0.18860485267E+02  0.12700000000E+01 0.  1.
         -4   -1    0    0    0  501 -0.00000000000E+00 -0.00000000000E+00 -0.20731645136E+03  0.20732034127E+03  0.12700000000E+01 0.  1.
         25    2    1    2    0    0  0.00000000000E+00  0.00000000000E+00 -0.18849877338E+03  0.22618082654E+03  0.12500391485E+03 0.  0.
    9000005    1    3    3    0    0  0.62863972818E+01 -0.30053334164E+02  0.42381695050E+01  0.31011026522E+02  0.10000000000E+01 0.  0.
    9000005    1    3    3    0    0 -0.62863972818E+01  0.30053334164E+02 -0.19273694289E+03  0.19516980002E+03  0.10000000000E+01 0.  0.
<mgrwt>
<rscale>  0 0.12500391E+03</rscale>
<asrwt>0</asrwt>
<pdfrwt beam="1">  1        4 0.28986196E-02 0.12500391E+03</pdfrwt>
<pdfrwt beam="2">  1       -4 0.31898429E-01 0.12500391E+03</pdfrwt>
<totfact> 0.85892001E+03</totfact>
</mgrwt>
</event>
<event>
 5    1  0.3327068E-002  0.1250006E+03  0.7818608E-02  0.1235068E+00
         -4   -1    0    0    0  501 -0.00000000000E+00  0.00000000000E+00  0.78902787900E+01  0.79918332931E+01  0.12700000000E+01 0. -1.
          4   -1    0    0  501    0  0.00000000000E+00 -0.00000000000E+00 -0.49180823983E+03  0.49180987959E+03  0.12700000000E+01 0. -1.
         25    2    1    2    0    0  0.00000000000E+00  0.00000000000E+00 -0.48391796104E+03  0.49980171288E+03  0.12500063674E+03 0.  0.
    9000005    1    3    3    0    0  0.45543380484E+02 -0.41179831830E+02 -0.19544823981E+03  0.20486823204E+03  0.10000000000E+01 0.  0.
    9000005    1    3    3    0    0 -0.45543380484E+02  0.41179831830E+02 -0.28846972123E+03  0.29493348084E+03  0.10000000000E+01 0.  0.
<mgrwt>
<rscale>  0 0.12500064E+03</rscale>
<asrwt>0</asrwt>
<pdfrwt beam="2">  1        4 0.75670720E-01 0.12500064E+03</pdfrwt>
<pdfrwt beam="1">  1       -4 0.12218274E-02 0.12500064E+03</pdfrwt>
<totfact> 0.55878982E+03</totfact>
</mgrwt>
</event>
