<event>
 5    1  0.3294152E-002  0.1250033E+03  0.7818608E-02  0.1235064E+00
         -4   -1    0    0    0  501 -0.00000000000E+00  0.00000000000E+00  0.20875414105E+02  0.20914009994E+02  0.12700000000E+01 0. -1.
          4   -1    0    0  501    0  0.00000000000E+00 -0.00000000000E+00 -0.18691845564E+03  0.18692277004E+03  0.12700000000E+01 0. -1.
         25    2    1    2    0    0  0.00000000000E+00  0.00000000000E+00 -0.16604304154E+03  0.20783678003E+03  0.12500334192E+03 0.  0.
    9000005    1    3    3    0    0 -0.35875199139E+01  0.50220603238E+02 -0.14457279763E+03  0.15309236788E+03  0.10000000000E+01 0.  0.
    9000005    1    3    3    0    0  0.35875199139E+01 -0.50220603238E+02 -0.21470243907E+02  0.54744412154E+02  0.10000000000E+01 0.  0.
<mgrwt>
<rscale>  0 0.12500334E+03</rscale>
<asrwt>0</asrwt>
<pdfrwt beam="2">  1        4 0.28759985E-01 0.12500334E+03</pdfrwt>
<pdfrwt beam="1">  1       -4 0.32149031E-02 0.12500334E+03</pdfrwt>
<totfact> 0.88823749E+03</totfact>
</mgrwt>
</event>
<event>
 5    1  0.3294152E-002  0.1250099E+03  0.7818608E-02  0.1235054E+00
         -4   -1    0    0    0  501 -0.00000000000E+00  0.00000000000E+00  0.25101303861E+02  0.25133411139E+02  0.12700000000E+01 0.  1.
          4   -1    0    0  501    0  0.00000000000E+00 -0.00000000000E+00 -0.15550996399E+03  0.15551514975E+03  0.12700000000E+01 0.  1.
         25    2    1    2    0    0  0.00000000000E+00  0.00000000000E+00 -0.13040866013E+03  0.18064856089E+03  0.12500993526E+03 0.  0.
    9000005    1    3    3    0    0  0.23555659673E+02 -0.10431484762E+02 -0.14748710680E+03  0.14972351735E+03  0.10000000000E+01 0.  0.
    9000005    1    3    3    0    0 -0.23555659673E+02  0.10431484762E+02  0.17078446666E+02  0.30925043533E+02  0.10000000000E+01 0.  0.
<mgrwt>
<rscale>  0 0.12500994E+03</rscale>
<asrwt>0</asrwt>
<pdfrwt beam="2">  1        4 0.23927478E-01 0.12500994E+03</pdfrwt>
<pdfrwt beam="1">  1       -4 0.38646078E-02 0.12500994E+03</pdfrwt>
<totfact> 0.93479566E+03</totfact>
</mgrwt>
</event>
<event>
 5    1  0.3294152E-002  0.1249890E+03  0.7818608E-02  0.1235087E+00
          4   -1    0    0  501    0  0.00000000000E+00  0.00000000000E+00  0.29304671942E+02  0.29332178535E+02  0.12700000000E+01 0.  1.
         -4   -1    0    0    0  501 -0.00000000000E+00 -0.00000000000E+00 -0.13318130460E+03  0.13318735974E+03  0.12700000000E+01 0.  1.
         25    2    1    2    0    0  0.00000000000E+00  0.00000000000E+00 -0.10387663266E+03  0.16251953827E+03  0.12498898155E+03 0.  0.
    9000005    1    3    3    0    0 -0.27552095222E+02 -0.48660487161E+02 -0.88197004919E+02  0.10443501634E+03  0.10000000000E+01 0.  0.
    9000005    1    3    3    0    0  0.27552095222E+02  0.48660487161E+02 -0.15679627737E+02  0.58084521930E+02  0.10000000000E+01 0.  0.
<mgrwt>
<rscale>  0 0.12498898E+03</rscale>
<asrwt>0</asrwt>
<pdfrwt beam="1">  1        4 0.45109928E-02 0.12498898E+03</pdfrwt>
<pdfrwt beam="2">  1       -4 0.20492013E-01 0.12498898E+03</pdfrwt>
<totfact> 0.96883212E+03</totfact>
</mgrwt>
</event>
<event>
 5    1  0.3294152E-002  0.1249835E+03  0.7818608E-02  0.1235095E+00
          4   -1    0    0  501    0  0.00000000000E+00  0.00000000000E+00  0.70628274533E+02  0.70639691842E+02  0.12700000000E+01 0. -1.
         -4   -1    0    0    0  501 -0.00000000000E+00 -0.00000000000E+00 -0.55269431243E+02  0.55284020566E+02  0.12700000000E+01 0. -1.
         25    2    1    2    0    0  0.00000000000E+00  0.00000000000E+00  0.15358843290E+02  0.12592371241E+03  0.12498354803E+03 0.  0.
    9000005    1    3    3    0    0 -0.34580231855E+02  0.38965114696E+01 -0.44607458405E+02  0.56584455304E+02  0.10000000000E+01 0.  0.
    9000005    1    3    3    0    0  0.34580231855E+02 -0.38965114696E+01  0.59966301694E+02  0.69339257103E+02  0.10000000000E+01 0.  0.
<mgrwt>
<rscale>  0 0.12498355E+03</rscale>
<asrwt>0</asrwt>
<pdfrwt beam="1">  1        4 0.10867889E-01 0.12498355E+03</pdfrwt>
<pdfrwt beam="2">  1       -4 0.85049899E-02 0.12498355E+03</pdfrwt>
<totfact> 0.10436503E+04</totfact>
</mgrwt>
</event>
<event>
 5    1  0.3294152E-002  0.1250028E+03  0.7818608E-02  0.1235065E+00
         -4   -1    0    0    0  501 -0.00000000000E+00  0.00000000000E+00  0.22650625537E+02  0.22686201472E+02  0.12700000000E+01 0. -1.
          4   -1    0    0  501    0  0.00000000000E+00 -0.00000000000E+00 -0.17229098023E+03  0.17229566091E+03  0.12700000000E+01 0. -1.
         25    2    1    2    0    0  0.00000000000E+00  0.00000000000E+00 -0.14964035469E+03  0.19498186238E+03  0.12500276359E+03 0.  0.
    9000005    1    3    3    0    0  0.13287322100E+02 -0.56726529528E+02 -0.39560967521E+02  0.70430974947E+02  0.10000000000E+01 0.  0.
    9000005    1    3    3    0    0 -0.13287322100E+02  0.56726529528E+02 -0.11007938717E+03  0.12455088744E+03  0.10000000000E+01 0.  0.
<mgrwt>
<rscale>  0 0.12500276E+03</rscale>
<asrwt>0</asrwt>
<pdfrwt beam="2">  1        4 0.26509400E-01 0.12500276E+03</pdfrwt>
<pdfrwt beam="1">  1       -4 0.34878084E-02 0.12500276E+03</pdfrwt>
<totfact> 0.90982011E+03</totfact>
</mgrwt>
</event>
<event>
 4    1  0.3294152E-002  0.1250962E+03  0.7818608E-02  0.1234919E+00
         -4   -1    0    0    0  501 -0.00000000000E+00  0.00000000000E+00  0.29523396900E+03  0.29523670055E+03  0.12700000000E+01 0.  1.
          4   -1    0    0  501    0  0.00000000000E+00 -0.00000000000E+00 -0.13218170213E+02  0.13279040771E+02  0.12700000000E+01 0.  1.
    9000005    1    1    2    0    0 -0.60510318932E+02  0.66344708231E+01  0.17638328615E+03  0.18659469053E+03  0.10000000000E+01 0.  0.
    9000005    1    1    2    0    0  0.60510318932E+02 -0.66344708231E+01  0.10563251264E+03  0.12192105079E+03  0.10000000000E+01 0.  0.
<mgrwt>
<rscale>  0 0.12509617E+03</rscale>
<asrwt>0</asrwt>
<pdfrwt beam="2">  1        4 0.20384571E-02 0.12509617E+03</pdfrwt>
<pdfrwt beam="1">  1       -4 0.45425503E-01 0.12509617E+03</pdfrwt>
<totfact> 0.74384072E+03</totfact>
</mgrwt>
</event>
<event>
 5    1  0.3294152E-002  0.1249945E+03  0.7818608E-02  0.1235078E+00
         -4   -1    0    0    0  501 -0.00000000000E+00  0.00000000000E+00  0.65838123401E+03  0.65838245890E+03  0.12700000000E+01 0. -1.
          4   -1    0    0  501    0  0.00000000000E+00 -0.00000000000E+00 -0.58633752427E+01  0.59993390666E+01  0.12700000000E+01 0. -1.
         25    2    1    2    0    0  0.00000000000E+00  0.00000000000E+00  0.65251785876E+03  0.66438179797E+03  0.12499446975E+03 0.  0.
    9000005    1    3    3    0    0  0.38001934881E+02 -0.27313239279E+02  0.54636225653E+03  0.54836381669E+03  0.10000000000E+01 0.  0.
    9000005    1    3    3    0    0 -0.38001934881E+02  0.27313239279E+02  0.10615560223E+03  0.11601798128E+03  0.10000000000E+01 0.  0.
<mgrwt>
<rscale>  0 0.12499447E+03</rscale>
<asrwt>0</asrwt>
<pdfrwt beam="2">  1        4 0.91261100E-03 0.12499447E+03</pdfrwt>
<pdfrwt beam="1">  1       -4 0.10129994E+00 0.12499447E+03</pdfrwt>
<totfact> 0.45040186E+03</totfact>
</mgrwt>
</event>
<event>
 5    1  0.3294152E-002  0.1250004E+03  0.7818608E-02  0.1235069E+00
          4   -1    0    0  501    0  0.00000000000E+00  0.00000000000E+00  0.68405057337E+02  0.68416845654E+02  0.12700000000E+01 0. -1.
         -4   -1    0    0    0  501 -0.00000000000E+00 -0.00000000000E+00 -0.57081251772E+02  0.57095378131E+02  0.12700000000E+01 0. -1.
         25    2    1    2    0    0  0.00000000000E+00  0.00000000000E+00  0.11323805564E+02  0.12551222378E+03  0.12500035899E+03 0.  0.
    9000005    1    3    3    0    0  0.27772685044E+02 -0.19506904818E+02 -0.47026115999E+02  0.58002559909E+02  0.10000000000E+01 0.  0.
    9000005    1    3    3    0    0 -0.27772685044E+02  0.19506904818E+02  0.58349921563E+02  0.67509663875E+02  0.10000000000E+01 0.  0.
<mgrwt>
<rscale>  0 0.12500036E+03</rscale>
<asrwt>0</asrwt>
<pdfrwt beam="1">  1        4 0.10525848E-01 0.12500036E+03</pdfrwt>
<pdfrwt beam="2">  1       -4 0.87837245E-02 0.12500036E+03</pdfrwt>
<totfact> 0.10441600E+04</totfact>
</mgrwt>
</event>
<event>
 5    1  0.3294152E-002  0.1249997E+03  0.7818608E-02  0.1235070E+00
          4   -1    0    0  501    0  0.00000000000E+00  0.00000000000E+00  0.36110550340E+02  0.36132876247E+02  0.12700000000E+01 0.  1.
         -4   -1    0    0    0  501 -0.00000000000E+00 -0.00000000000E+00 -0.10811482501E+03  0.10812228395E+03  0.12700000000E+01 0.  1.
         25    2    1    2    0    0  0.00000000000E+00  0.00000000000E+00 -0.72004274669E+02  0.14425516020E+03  0.12499974269E+03 0.  0.
    9000005    1    3    3    0    0 -0.29342019123E+02  0.50982524429E+02 -0.60348411762E+02  0.84279906773E+02  0.10000000000E+01 0.  0.
    9000005    1    3    3    0    0  0.29342019123E+02 -0.50982524429E+02 -0.11655862907E+02  0.59975253426E+02  0.10000000000E+01 0.  0.
<mgrwt>
<rscale>  0 0.12499974E+03</rscale>
<asrwt>0</asrwt>
<pdfrwt beam="1">  1        4 0.55577605E-02 0.12499974E+03</pdfrwt>
<pdfrwt beam="2">  1       -4 0.16635341E-01 0.12499974E+03</pdfrwt>
<totfact> 0.10046202E+04</totfact>
</mgrwt>
</event>
<event>
 5    1  0.3294152E-002  0.1249960E+03  0.7818608E-02  0.1235076E+00
          4   -1    0    0  501    0  0.00000000000E+00  0.00000000000E+00  0.59269244373E+03  0.59269380439E+03  0.12700000000E+01 0.  1.
         -4   -1    0    0    0  501 -0.00000000000E+00 -0.00000000000E+00 -0.65276994655E+01  0.66500947596E+01  0.12700000000E+01 0.  1.
         25    2    1    2    0    0  0.00000000000E+00  0.00000000000E+00  0.58616474427E+03  0.59934389915E+03  0.12499600802E+03 0.  0.
    9000005    1    3    3    0    0  0.46030946963E+02 -0.35526822011E+02  0.40284247082E+03  0.40701850014E+03  0.10000000000E+01 0.  0.
    9000005    1    3    3    0    0 -0.46030946963E+02  0.35526822011E+02  0.18332227345E+03  0.19232539901E+03  0.10000000000E+01 0.  0.
<mgrwt>
<rscale>  0 0.12499601E+03</rscale>
<asrwt>0</asrwt>
<pdfrwt beam="1">  1        4 0.91192981E-01 0.12499601E+03</pdfrwt>
<pdfrwt beam="2">  1       -4 0.10137810E-02 0.12499601E+03</pdfrwt>
<totfact> 0.48913329E+03</totfact>
</mgrwt>
</event>
<event>
 5    1  0.3294152E-002  0.1250017E+03  0.7818608E-02  0.1235067E+00
          4   -1    0    0  501    0  0.00000000000E+00  0.00000000000E+00  0.71724706687E+02  0.71735949490E+02  0.12700000000E+01 0. -1.
         -4   -1    0    0    0  501 -0.00000000000E+00 -0.00000000000E+00 -0.54440307221E+02  0.54455118678E+02  0.12700000000E+01 0. -1.
         25    2    1    2    0    0  0.00000000000E+00  0.00000000000E+00  0.17284399466E+02  0.12619106817E+03  0.12500174087E+03 0.  0.
    9000005    1    3    3    0    0  0.25997723861E+02  0.21214600423E+02  0.61863990013E+02  0.70385326435E+02  0.10000000000E+01 0.  0.
    9000005    1    3    3    0    0 -0.25997723861E+02 -0.21214600423E+02 -0.44579590547E+02  0.55805741733E+02  0.10000000000E+01 0.  0.
<mgrwt>
<rscale>  0 0.12500174E+03</rscale>
<asrwt>0</asrwt>
<pdfrwt beam="1">  1        4 0.11036574E-01 0.12500174E+03</pdfrwt>
<pdfrwt beam="2">  1       -4 0.83774361E-02 0.12500174E+03</pdfrwt>
<totfact> 0.10426365E+04</totfact>
</mgrwt>
</event>
<event>
 5    1  0.3294152E-002  0.1250010E+03  0.7818608E-02  0.1235068E+00
          4   -1    0    0  501    0  0.00000000000E+00  0.00000000000E+00  0.10366421374E+03  0.10367199290E+03  0.12700000000E+01 0.  1.
         -4   -1    0    0    0  501 -0.00000000000E+00 -0.00000000000E+00 -0.37662479361E+02  0.37683885835E+02  0.12700000000E+01 0.  1.
         25    2    1    2    0    0  0.00000000000E+00  0.00000000000E+00  0.66001734382E+02  0.14135587873E+03  0.12500102204E+03 0.  0.
    9000005    1    3    3    0    0 -0.60077641295E+01  0.14715196412E+02  0.10134580311E+03  0.10258948311E+03  0.10000000000E+01 0.  0.
    9000005    1    3    3    0    0  0.60077641295E+01 -0.14715196412E+02 -0.35344068731E+02  0.38766395625E+02  0.10000000000E+01 0.  0.
<mgrwt>
<rscale>  0 0.12500102E+03</rscale>
<asrwt>0</asrwt>
<pdfrwt beam="1">  1        4 0.15950586E-01 0.12500102E+03</pdfrwt>
<pdfrwt beam="2">  1       -4 0.57964727E-02 0.12500102E+03</pdfrwt>
<totfact> 0.10105329E+04</totfact>
</mgrwt>
</event>
<event>
 5    1  0.3294152E-002  0.1250002E+03  0.7818608E-02  0.1235069E+00
         -4   -1    0    0    0  501 -0.00000000000E+00  0.00000000000E+00  0.13287892872E+02  0.13348445489E+02  0.12700000000E+01 0.  1.
          4   -1    0    0  501    0  0.00000000000E+00 -0.00000000000E+00 -0.29324155317E+03  0.29324430328E+03  0.12700000000E+01 0.  1.
         25    2    1    2    0    0  0.00000000000E+00  0.00000000000E+00 -0.27995366030E+03  0.30659274877E+03  0.12500024673E+03 0.  0.
    9000005    1    3    3    0    0  0.25607346604E+02 -0.56349011815E+02 -0.11883228863E+03  0.13398902998E+03  0.10000000000E+01 0.  0.
    9000005    1    3    3    0    0 -0.25607346604E+02  0.56349011815E+02 -0.16112137166E+03  0.17260371879E+03  0.10000000000E+01 0.  0.
<mgrwt>
<rscale>  0 0.12500025E+03</rscale>
<asrwt>0</asrwt>
<pdfrwt beam="2">  1        4 0.45118950E-01 0.12500025E+03</pdfrwt>
<pdfrwt beam="1">  1       -4 0.20491609E-02 0.12500025E+03</pdfrwt>
<totfact> 0.74778822E+03</totfact>
</mgrwt>
</event>
<event>
 5    1  0.3294152E-002  0.1250037E+03  0.7818608E-02  0.1235064E+00
         -4   -1    0    0    0  501 -0.00000000000E+00  0.00000000000E+00  0.44659671397E+02  0.44677725426E+02  0.12700000000E+01 0. -1.
          4   -1    0    0  501    0  0.00000000000E+00 -0.00000000000E+00 -0.87431877201E+02  0.87441100467E+02  0.12700000000E+01 0. -1.
         25    2    1    2    0    0  0.00000000000E+00  0.00000000000E+00 -0.42772205804E+02  0.13211882589E+03  0.12500369021E+03 0.  0.
    9000005    1    3    3    0    0 -0.23410953544E+02 -0.60608311147E+01  0.39519185922E+02  0.46341908416E+02  0.10000000000E+01 0.  0.
    9000005    1    3    3    0    0  0.23410953544E+02  0.60608311147E+01 -0.82291391726E+02  0.85776917477E+02  0.10000000000E+01 0.  0.
<mgrwt>
<rscale>  0 0.12500369E+03</rscale>
<asrwt>0</asrwt>
<pdfrwt beam="2">  1        4 0.13453156E-01 0.12500369E+03</pdfrwt>
<pdfrwt beam="1">  1       -4 0.68728169E-02 0.12500369E+03</pdfrwt>
<totfact> 0.10298305E+04</totfact>
</mgrwt>
</event>
<event>
 5    1  0.3294152E-002  0.1250011E+03  0.7818608E-02  0.1235068E+00
          4   -1    0    0  501    0  0.00000000000E+00  0.00000000000E+00  0.11303950263E+02  0.11375068859E+02  0.12700000000E+01 0.  1.
         -4   -1    0    0    0  501 -0.00000000000E+00 -0.00000000000E+00 -0.34441509922E+03  0.34441744072E+03  0.12700000000E+01 0.  1.
         25    2    1    2    0    0  0.00000000000E+00  0.00000000000E+00 -0.33311114896E+03  0.35579250958E+03  0.12500108924E+03 0.  0.
    9000005    1    3    3    0    0  0.42029060481E+02 -0.45781020429E+02 -0.14789661087E+03  0.16042677851E+03  0.10000000000E+01 0.  0.
    9000005    1    3    3    0    0 -0.42029060481E+02  0.45781020429E+02 -0.18521453808E+03  0.19536573106E+03  0.10000000000E+01 0.  0.
<mgrwt>
<rscale>  0 0.12500109E+03</rscale>
<asrwt>0</asrwt>
<pdfrwt beam="1">  1        4 0.17447203E-02 0.12500109E+03</pdfrwt>
<pdfrwt beam="2">  1       -4 0.52992581E-01 0.12500109E+03</pdfrwt>
<totfact> 0.69090314E+03</totfact>
</mgrwt>
</event>
<event>
 5    1  0.3294152E-002  0.1249988E+03  0.7818608E-02  0.1235071E+00
         -4   -1    0    0    0  501 -0.00000000000E+00  0.00000000000E+00  0.24642998866E+02  0.24675702484E+02  0.12700000000E+01 0.  1.
          4   -1    0    0  501    0  0.00000000000E+00 -0.00000000000E+00 -0.15837011440E+03  0.15837520650E+03  0.12700000000E+01 0.  1.
         25    2    1    2    0    0  0.00000000000E+00  0.00000000000E+00 -0.13372711553E+03  0.18305090898E+03  0.12499877540E+03 0.  0.
    9000005    1    3    3    0    0  0.45981454361E+02  0.63323303291E+01 -0.55887393603E+01  0.46761378938E+02  0.10000000000E+01 0.  0.
    9000005    1    3    3    0    0 -0.45981454361E+02 -0.63323303291E+01 -0.12813837617E+03  0.13628953005E+03  0.10000000000E+01 0.  0.
<mgrwt>
<rscale>  0 0.12499878E+03</rscale>
<asrwt>0</asrwt>
<pdfrwt beam="2">  1        4 0.24367540E-01 0.12499878E+03</pdfrwt>
<pdfrwt beam="1">  1       -4 0.37941381E-02 0.12499878E+03</pdfrwt>
<totfact> 0.93073250E+03</totfact>
</mgrwt>
</event>
<event>
 5    1  0.3294152E-002  0.1249990E+03  0.7818608E-02  0.1235071E+00
         -4   -1    0    0    0  501 -0.00000000000E+00  0.00000000000E+00  0.20413432775E+03  0.20413827830E+03  0.12700000000E+01 0.  1.
          4   -1    0    0  501    0  0.00000000000E+00 -0.00000000000E+00 -0.19110167520E+02  0.19152321078E+02  0.12700000000E+01 0.  1.
         25    2    1    2    0    0  0.00000000000E+00  0.00000000000E+00  0.18502416023E+03  0.22329059938E+03  0.12499900760E+03 0.  0.
    9000005    1    3    3    0    0 -0.11622609653E+02  0.42384767444E+02  0.13152889737E+02  0.45886295066E+02  0.10000000000E+01 0.  0.
    9000005    1    3    3    0    0  0.11622609653E+02 -0.42384767444E+02  0.17187127050E+03  0.17740430431E+03  0.10000000000E+01 0.  0.
<mgrwt>
<rscale>  0 0.12499901E+03</rscale>
<asrwt>0</asrwt>
<pdfrwt beam="2">  1        4 0.29435723E-02 0.12499901E+03</pdfrwt>
<pdfrwt beam="1">  1       -4 0.31408828E-01 0.12499901E+03</pdfrwt>
<totfact> 0.86352232E+03</totfact>
</mgrwt>
</event>
<event>
 5    1  0.3294152E-002  0.1249976E+03  0.7818608E-02  0.1235073E+00
          4   -1    0    0  501    0  0.00000000000E+00  0.00000000000E+00  0.95385192951E+02  0.95393647243E+02  0.12700000000E+01 0. -1.
         -4   -1    0    0    0  501 -0.00000000000E+00 -0.00000000000E+00 -0.40930695802E+02  0.40950393879E+02  0.12700000000E+01 0. -1.
         25    2    1    2    0    0  0.00000000000E+00  0.00000000000E+00  0.54454497148E+02  0.13634404112E+03  0.12499762114E+03 0.  0.
    9000005    1    3    3    0    0 -0.39470186011E+02 -0.18071162332E+01  0.80036214775E+02  0.89263413157E+02  0.10000000000E+01 0.  0.
    9000005    1    3    3    0    0  0.39470186011E+02  0.18071162332E+01 -0.25581717627E+02  0.47080627965E+02  0.10000000000E+01 0.  0.
<mgrwt>
<rscale>  0 0.12499762E+03</rscale>
<asrwt>0</asrwt>
<pdfrwt beam="1">  1        4 0.14676810E-01 0.12499762E+03</pdfrwt>
<pdfrwt beam="2">  1       -4 0.62991958E-02 0.12499762E+03</pdfrwt>
<totfact> 0.10210367E+04</totfact>
</mgrwt>
</event>
<event>
 5    1  0.3294152E-002  0.1249952E+03  0.7818608E-02  0.1235077E+00
          4   -1    0    0  501    0  0.00000000000E+00  0.00000000000E+00  0.96708108635E+02  0.96716447287E+02  0.12700000000E+01 0. -1.
         -4   -1    0    0    0  501 -0.00000000000E+00 -0.00000000000E+00 -0.40369023753E+02  0.40388995764E+02  0.12700000000E+01 0. -1.
         25    2    1    2    0    0  0.00000000000E+00  0.00000000000E+00  0.56339084882E+02  0.13710544305E+03  0.12499524002E+03 0.  0.
    9000005    1    3    3    0    0 -0.56157332986E+02  0.50223953952E+01 -0.13870292334E+01  0.56407396268E+02  0.10000000000E+01 0.  0.
    9000005    1    3    3    0    0  0.56157332986E+02 -0.50223953952E+01  0.57726114115E+02  0.80698046783E+02  0.10000000000E+01 0.  0.
<mgrwt>
<rscale>  0 0.12499524E+03</rscale>
<asrwt>0</asrwt>
<pdfrwt beam="1">  1        4 0.14880348E-01 0.12499524E+03</pdfrwt>
<pdfrwt beam="2">  1       -4 0.62127968E-02 0.12499524E+03</pdfrwt>
<totfact> 0.10194976E+04</totfact>
</mgrwt>
</event>
<event>
 5    1  0.3294152E-002  0.1250114E+03  0.7818608E-02  0.1235052E+00
         -4   -1    0    0    0  501 -0.00000000000E+00  0.00000000000E+00  0.11134152529E+03  0.11134876808E+03  0.12700000000E+01 0.  1.
          4   -1    0    0  501    0  0.00000000000E+00 -0.00000000000E+00 -0.35069997675E+02  0.35092985580E+02  0.12700000000E+01 0.  1.
         25    2    1    2    0    0  0.00000000000E+00  0.00000000000E+00  0.76271527610E+02  0.14644175366E+03  0.12501136465E+03 0.  0.
    9000005    1    3    3    0    0 -0.43934110613E+02  0.35248259614E+02  0.69857762570E+02  0.89742703728E+02  0.10000000000E+01 0.  0.
    9000005    1    3    3    0    0  0.43934110613E+02 -0.35248259614E+02  0.64137650408E+01  0.56699049931E+02  0.10000000000E+01 0.  0.
<mgrwt>
<rscale>  0 0.12501136E+03</rscale>
<asrwt>0</asrwt>
<pdfrwt beam="2">  1        4 0.53977097E-02 0.12501136E+03</pdfrwt>
<pdfrwt beam="1">  1       -4 0.17131791E-01 0.12501136E+03</pdfrwt>
<totfact> 0.99992184E+03</totfact>
</mgrwt>
</event>
<event>
 5    1  0.3294152E-002  0.1249996E+03  0.7818608E-02  0.1235070E+00
          4   -1    0    0  501    0  0.00000000000E+00  0.00000000000E+00  0.39928249234E+01  0.41899344708E+01  0.12700000000E+01 0. -1.
         -4   -1    0    0    0  501 -0.00000000000E+00 -0.00000000000E+00 -0.95454731459E+03  0.95454815944E+03  0.12700000000E+01 0. -1.
         25    2    1    2    0    0  0.00000000000E+00  0.00000000000E+00 -0.95055448967E+03  0.95873809391E+03  0.12499957956E+03 0.  0.
    9000005    1    3    3    0    0  0.20522340136E+02  0.48221779110E+02 -0.73636119601E+03  0.73822443567E+03  0.10000000000E+01 0.  0.
    9000005    1    3    3    0    0 -0.20522340136E+02 -0.48221779110E+02 -0.21419329366E+03  0.22051365824E+03  0.10000000000E+01 0.  0.
<mgrwt>
<rscale>  0 0.12499958E+03</rscale>
<asrwt>0</asrwt>
<pdfrwt beam="1">  1        4 0.62950878E-03 0.12499958E+03</pdfrwt>
<pdfrwt beam="2">  1       -4 0.14686848E+00 0.12499958E+03</pdfrwt>
<totfact> 0.32008083E+03</totfact>
</mgrwt>
</event>
<event>
 5    1  0.3294152E-002  0.1249995E+03  0.7818608E-02  0.1235070E+00
         -4   -1    0    0    0  501 -0.00000000000E+00  0.00000000000E+00  0.27769187600E+02  0.27798213611E+02  0.12700000000E+01 0. -1.
          4   -1    0    0  501    0  0.00000000000E+00 -0.00000000000E+00 -0.14056211282E+03  0.14056785003E+03  0.12700000000E+01 0. -1.
         25    2    1    2    0    0  0.00000000000E+00  0.00000000000E+00 -0.11279292522E+03  0.16836606364E+03  0.12499954962E+03 0.  0.
    9000005    1    3    3    0    0  0.19497886110E+02  0.11804548781E+02 -0.13477024206E+03  0.13668772103E+03  0.10000000000E+01 0.  0.
    9000005    1    3    3    0    0 -0.19497886110E+02 -0.11804548781E+02  0.21977316842E+02  0.31678342606E+02  0.10000000000E+01 0.  0.
<mgrwt>
<rscale>  0 0.12499955E+03</rscale>
<asrwt>0</asrwt>
<pdfrwt beam="2">  1        4 0.21627614E-01 0.12499955E+03</pdfrwt>
<pdfrwt beam="1">  1       -4 0.42748569E-02 0.12499955E+03</pdfrwt>
<totfact> 0.95754652E+03</totfact>
</mgrwt>
</event>
<event>
 5    1  0.3294152E-002  0.1249993E+03  0.7818608E-02  0.1235070E+00
          4   -1    0    0  501    0  0.00000000000E+00  0.00000000000E+00  0.42628780636E+02  0.42647694410E+02  0.12700000000E+01 0.  1.
         -4   -1    0    0    0  501 -0.00000000000E+00 -0.00000000000E+00 -0.91589495204E+02  0.91598299830E+02  0.12700000000E+01 0.  1.
         25    2    1    2    0    0  0.00000000000E+00  0.00000000000E+00 -0.48960714568E+02  0.13424599424E+03  0.12499934159E+03 0.  0.
    9000005    1    3    3    0    0 -0.71817579549E+01 -0.17425940250E+02  0.39508715567E+02  0.43785610041E+02  0.10000000000E+01 0.  0.
    9000005    1    3    3    0    0  0.71817579549E+01  0.17425940250E+02 -0.88469430136E+02  0.90460384199E+02  0.10000000000E+01 0.  0.
<mgrwt>
<rscale>  0 0.12499934E+03</rscale>
<asrwt>0</asrwt>
<pdfrwt beam="1">  1        4 0.65604062E-02 0.12499934E+03</pdfrwt>
<pdfrwt beam="2">  1       -4 0.14092824E-01 0.12499934E+03</pdfrwt>
<totfact> 0.10254140E+04</totfact>
</mgrwt>
</event>
<event>
 5    1  0.3294152E-002  0.1249993E+03  0.7818608E-02  0.1235070E+00
         -4   -1    0    0    0  501 -0.00000000000E+00  0.00000000000E+00  0.32116724642E+01  0.34536560363E+01  0.12700000000E+01 0. -1.
          4   -1    0    0  501    0  0.00000000000E+00 -0.00000000000E+00 -0.11718554636E+04  0.11718561518E+04  0.12700000000E+01 0. -1.
         25    2    1    2    0    0  0.00000000000E+00  0.00000000000E+00 -0.11686437912E+04  0.11753098078E+04  0.12499933517E+03 0.  0.
    9000005    1    3    3    0    0 -0.80484788323E+01 -0.57582179335E+02 -0.79970405776E+03  0.80181548089E+03  0.10000000000E+01 0.  0.
    9000005    1    3    3    0    0  0.80484788323E+01  0.57582179335E+02 -0.36893973340E+03  0.37349432696E+03  0.10000000000E+01 0.  0.
<mgrwt>
<rscale>  0 0.12499934E+03</rscale>
<asrwt>0</asrwt>
<pdfrwt beam="2">  1        4 0.18030379E+00 0.12499934E+03</pdfrwt>
<pdfrwt beam="1">  1       -4 0.51277145E-03 0.12499934E+03</pdfrwt>
<totfact> 0.25368740E+03</totfact>
</mgrwt>
</event>
<event>
 5    1  0.3294152E-002  0.1250034E+03  0.7818608E-02  0.1235064E+00
         -4   -1    0    0    0  501 -0.00000000000E+00  0.00000000000E+00  0.19845016664E+02  0.19885612548E+02  0.12700000000E+01 0. -1.
          4   -1    0    0  501    0  0.00000000000E+00 -0.00000000000E+00 -0.19660462357E+03  0.19660872541E+03  0.12700000000E+01 0. -1.
         25    2    1    2    0    0  0.00000000000E+00  0.00000000000E+00 -0.17675960690E+03  0.21649433796E+03  0.12500335890E+03 0.  0.
    9000005    1    3    3    0    0 -0.28275025517E+02 -0.23113681879E+02 -0.55070228132E+00  0.36537961506E+02  0.10000000000E+01 0.  0.
    9000005    1    3    3    0    0  0.28275025517E+02  0.23113681879E+02 -0.17620890462E+03  0.17995637645E+03  0.10000000000E+01 0.  0.
<mgrwt>
<rscale>  0 0.12500336E+03</rscale>
<asrwt>0</asrwt>
<pdfrwt beam="2">  1        4 0.30250302E-01 0.12500336E+03</pdfrwt>
<pdfrwt beam="1">  1       -4 0.30565179E-02 0.12500336E+03</pdfrwt>
<totfact> 0.87419572E+03</totfact>
</mgrwt>
</event>
<event>
 5    1  0.3294152E-002  0.1249999E+03  0.7818608E-02  0.1235069E+00
          4   -1    0    0  501    0  0.00000000000E+00  0.00000000000E+00  0.17165541057E+02  0.17212457692E+02  0.12700000000E+01 0. -1.
         -4   -1    0    0    0  501 -0.00000000000E+00 -0.00000000000E+00 -0.22720382655E+03  0.22720737597E+03  0.12700000000E+01 0. -1.
         25    2    1    2    0    0  0.00000000000E+00  0.00000000000E+00 -0.21003828549E+03  0.24441983367E+03  0.12499989487E+03 0.  0.
    9000005    1    3    3    0    0 -0.49991768858E+02 -0.31056968508E+02 -0.63931853728E+02  0.86902210372E+02  0.10000000000E+01 0.  0.
    9000005    1    3    3    0    0  0.49991768858E+02  0.31056968508E+02 -0.14610643176E+03  0.15751762329E+03  0.10000000000E+01 0.  0.
<mgrwt>
<rscale>  0 0.12499989E+03</rscale>
<asrwt>0</asrwt>
<pdfrwt beam="1">  1        4 0.26447346E-02 0.12499989E+03</pdfrwt>
<pdfrwt beam="2">  1       -4 0.34958315E-01 0.12499989E+03</pdfrwt>
<totfact> 0.83143680E+03</totfact>
</mgrwt>
</event>
<event>
 5    1  0.3294152E-002  0.1250011E+03  0.7818608E-02  0.1235068E+00
         -4   -1    0    0    0  501 -0.00000000000E+00  0.00000000000E+00  0.14742114494E+02  0.14796717195E+02  0.12700000000E+01 0. -1.
          4   -1    0    0  501    0  0.00000000000E+00 -0.00000000000E+00 -0.26443088459E+03  0.26443393433E+03  0.12700000000E+01 0. -1.
         25    2    1    2    0    0  0.00000000000E+00  0.00000000000E+00 -0.24968877010E+03  0.27923065153E+03  0.12500109935E+03 0.  0.
    9000005    1    3    3    0    0 -0.25190958178E+02 -0.68659627080E+01  0.19848438052E+01  0.26204301608E+02  0.10000000000E+01 0.  0.
    9000005    1    3    3    0    0  0.25190958178E+02  0.68659627080E+01 -0.25167361391E+03  0.25302634992E+03  0.10000000000E+01 0.  0.
<mgrwt>
<rscale>  0 0.12500110E+03</rscale>
<asrwt>0</asrwt>
<pdfrwt beam="2">  1        4 0.40686106E-01 0.12500110E+03</pdfrwt>
<pdfrwt beam="1">  1       -4 0.22724526E-02 0.12500110E+03</pdfrwt>
<totfact> 0.78278314E+03</totfact>
</mgrwt>
</event>
<event>
 5    1  0.3294152E-002  0.1250011E+03  0.7818608E-02  0.1235067E+00
          4   -1    0    0  501    0  0.00000000000E+00  0.00000000000E+00  0.10261004823E+02  0.10339299782E+02  0.12700000000E+01 0.  1.
         -4   -1    0    0    0  501 -0.00000000000E+00 -0.00000000000E+00 -0.37916958010E+03  0.37917170698E+03  0.12700000000E+01 0.  1.
         25    2    1    2    0    0  0.00000000000E+00  0.00000000000E+00 -0.36890857528E+03  0.38951100676E+03  0.12500114990E+03 0.  0.
    9000005    1    3    3    0    0 -0.49066737738E+02 -0.25333685792E+02 -0.93287235823E+02  0.10841055648E+03  0.10000000000E+01 0.  0.
    9000005    1    3    3    0    0  0.49066737738E+02  0.25333685792E+02 -0.27562133946E+03  0.28110045029E+03  0.10000000000E+01 0.  0.
<mgrwt>
<rscale>  0 0.12500115E+03</rscale>
<asrwt>0</asrwt>
<pdfrwt beam="1">  1        4 0.15848027E-02 0.12500115E+03</pdfrwt>
<pdfrwt beam="2">  1       -4 0.58339957E-01 0.12500115E+03</pdfrwt>
<totfact> 0.65584221E+03</totfact>
</mgrwt>
</event>
<event>
 5    1  0.3294152E-002  0.1250031E+03  0.7818608E-02  0.1235064E+00
         -4   -1    0    0    0  501 -0.00000000000E+00  0.00000000000E+00  0.12052469706E+03  0.12053138803E+03  0.12700000000E+01 0. -1.
          4   -1    0    0  501    0  0.00000000000E+00 -0.00000000000E+00 -0.32391967508E+02  0.32416854552E+02  0.12700000000E+01 0. -1.
         25    2    1    2    0    0  0.00000000000E+00  0.00000000000E+00  0.88132729552E+02  0.15294824259E+03  0.12500314753E+03 0.  0.
    9000005    1    3    3    0    0  0.19264586816E+02  0.57259774159E+02  0.63629503097E+02  0.87746907104E+02  0.10000000000E+01 0.  0.
    9000005    1    3    3    0    0 -0.19264586816E+02 -0.57259774159E+02  0.24503226455E+02  0.65201335482E+02  0.10000000000E+01 0.  0.
<mgrwt>
<rscale>  0 0.12500315E+03</rscale>
<asrwt>0</asrwt>
<pdfrwt beam="2">  1        4 0.49858087E-02 0.12500315E+03</pdfrwt>
<pdfrwt beam="1">  1       -4 0.18544690E-01 0.12500315E+03</pdfrwt>
<totfact> 0.98712233E+03</totfact>
</mgrwt>
</event>
<event>
 5    1  0.3294152E-002  0.1249975E+03  0.7818608E-02  0.1235073E+00
          4   -1    0    0  501    0  0.00000000000E+00  0.00000000000E+00  0.97417640973E+01  0.98241980704E+01  0.12700000000E+01 0. -1.
         -4   -1    0    0    0  501 -0.00000000000E+00 -0.00000000000E+00 -0.39919087128E+03  0.39919289149E+03  0.12700000000E+01 0. -1.
         25    2    1    2    0    0  0.00000000000E+00  0.00000000000E+00 -0.38944910719E+03  0.40901708956E+03  0.12499748983E+03 0.  0.
    9000005    1    3    3    0    0  0.29293984720E+02  0.51106507265E+02 -0.26297805995E+03  0.26949670247E+03  0.10000000000E+01 0.  0.
    9000005    1    3    3    0    0 -0.29293984720E+02 -0.51106507265E+02 -0.12647104724E+03  0.13952038709E+03  0.10000000000E+01 0.  0.
<mgrwt>
<rscale>  0 0.12499749E+03</rscale>
<asrwt>0</asrwt>
<pdfrwt beam="1">  1        4 0.15052297E-02 0.12499749E+03</pdfrwt>
<pdfrwt beam="2">  1       -4 0.61420464E-01 0.12499749E+03</pdfrwt>
<totfact> 0.63688679E+03</totfact>
</mgrwt>
</event>
<event>
 5    1  0.3294152E-002  0.1250007E+03  0.7818608E-02  0.1235068E+00
          4   -1    0    0  501    0  0.00000000000E+00  0.00000000000E+00  0.10359241628E+04  0.10359249413E+04  0.12700000000E+01 0. -1.
         -4   -1    0    0    0  501 -0.00000000000E+00 -0.00000000000E+00 -0.36630945804E+01  0.38770042436E+01  0.12700000000E+01 0. -1.
         25    2    1    2    0    0  0.00000000000E+00  0.00000000000E+00  0.10322610682E+04  0.10398019455E+04  0.12500069184E+03 0.  0.
    9000005    1    3    3    0    0  0.52192337967E+02  0.28154442349E+01  0.80106673201E+03  0.80277074934E+03  0.10000000000E+01 0.  0.
    9000005    1    3    3    0    0 -0.52192337967E+02 -0.28154442349E+01  0.23119433621E+03  0.23703119618E+03  0.10000000000E+01 0.  0.
<mgrwt>
<rscale>  0 0.12500069E+03</rscale>
<asrwt>0</asrwt>
<pdfrwt beam="1">  1        4 0.15938941E+00 0.12500069E+03</pdfrwt>
<pdfrwt beam="2">  1       -4 0.58006766E-03 0.12500069E+03</pdfrwt>
<totfact> 0.29314906E+03</totfact>
</mgrwt>
</event>
<event>
 5    1  0.3294152E-002  0.1249986E+03  0.7818608E-02  0.1235071E+00
          4   -1    0    0  501    0  0.00000000000E+00  0.00000000000E+00  0.65656369058E+02  0.65668650800E+02  0.12700000000E+01 0. -1.
         -4   -1    0    0    0  501 -0.00000000000E+00 -0.00000000000E+00 -0.59469423381E+02  0.59482982586E+02  0.12700000000E+01 0. -1.
         25    2    1    2    0    0  0.00000000000E+00  0.00000000000E+00  0.61869456768E+01  0.12515163339E+03  0.12499861216E+03 0.  0.
    9000005    1    3    3    0    0  0.49756571325E+02 -0.36217517035E+02 -0.77705399316E+01  0.62038747739E+02  0.10000000000E+01 0.  0.
    9000005    1    3    3    0    0 -0.49756571325E+02  0.36217517035E+02  0.13957485608E+02  0.63112885647E+02  0.10000000000E+01 0.  0.
<mgrwt>
<rscale>  0 0.12499861E+03</rscale>
<asrwt>0</asrwt>
<pdfrwt beam="1">  1        4 0.10102968E-01 0.12499861E+03</pdfrwt>
<pdfrwt beam="2">  1       -4 0.91511299E-02 0.12499861E+03</pdfrwt>
<totfact> 0.10449898E+04</totfact>
</mgrwt>
</event>
<event>
 5    1  0.3294152E-002  0.1250058E+03  0.7818608E-02  0.1235060E+00
         -4   -1    0    0    0  501 -0.00000000000E+00  0.00000000000E+00  0.10497475211E+03  0.10498243416E+03  0.12700000000E+01 0. -1.
          4   -1    0    0  501    0  0.00000000000E+00 -0.00000000000E+00 -0.37194924472E+02  0.37216599878E+02  0.12700000000E+01 0. -1.
         25    2    1    2    0    0  0.00000000000E+00  0.00000000000E+00  0.67779827642E+02  0.14219903404E+03  0.12500584084E+03 0.  0.
    9000005    1    3    3    0    0 -0.52112012202E+02 -0.29934596004E+02  0.14389387318E+02  0.61804500815E+02  0.10000000000E+01 0.  0.
    9000005    1    3    3    0    0  0.52112012202E+02  0.29934596004E+02  0.53390440324E+02  0.80394533220E+02  0.10000000000E+01 0.  0.
<mgrwt>
<rscale>  0 0.12500584E+03</rscale>
<asrwt>0</asrwt>
<pdfrwt beam="2">  1        4 0.57245544E-02 0.12500584E+03</pdfrwt>
<pdfrwt beam="1">  1       -4 0.16152220E-01 0.12500584E+03</pdfrwt>
<totfact> 0.10086884E+04</totfact>
</mgrwt>
</event>
<event>
 5    1  0.3294152E-002  0.1249989E+03  0.7818608E-02  0.1235071E+00
         -4   -1    0    0    0  501 -0.00000000000E+00  0.00000000000E+00  0.44102890832E+01  0.45895043084E+01  0.12700000000E+01 0. -1.
          4   -1    0    0  501    0  0.00000000000E+00 -0.00000000000E+00 -0.86788068096E+03  0.86788161018E+03  0.12700000000E+01 0. -1.
         25    2    1    2    0    0  0.00000000000E+00  0.00000000000E+00 -0.86347039188E+03  0.87247111449E+03  0.12499891185E+03 0.  0.
    9000005    1    3    3    0    0 -0.15974798611E+02  0.50291496892E+02 -0.19806689147E+03  0.20497785818E+03  0.10000000000E+01 0.  0.
    9000005    1    3    3    0    0  0.15974798611E+02 -0.50291496892E+02 -0.66540350041E+03  0.66749325630E+03  0.10000000000E+01 0.  0.
<mgrwt>
<rscale>  0 0.12499891E+03</rscale>
<asrwt>0</asrwt>
<pdfrwt beam="2">  1        4 0.13353383E+00 0.12499891E+03</pdfrwt>
<pdfrwt beam="1">  1       -4 0.69236397E-03 0.12499891E+03</pdfrwt>
<totfact> 0.35225887E+03</totfact>
</mgrwt>
</event>
<event>
 5    1  0.3294152E-002  0.1249968E+03  0.7818608E-02  0.1235074E+00
         -4   -1    0    0    0  501 -0.00000000000E+00  0.00000000000E+00  0.61116819093E+02  0.61130012890E+02  0.12700000000E+01 0. -1.
          4   -1    0    0  501    0  0.00000000000E+00 -0.00000000000E+00 -0.63884828428E+02  0.63897450679E+02  0.12700000000E+01 0. -1.
         25    2    1    2    0    0  0.00000000000E+00  0.00000000000E+00 -0.27680093358E+01  0.12502746357E+03  0.12499681904E+03 0.  0.
    9000005    1    3    3    0    0  0.35048416998E+01  0.62337196715E+02 -0.40002114517E+01  0.62571652538E+02  0.10000000000E+01 0.  0.
    9000005    1    3    3    0    0 -0.35048416998E+01 -0.62337196715E+02  0.12322021159E+01  0.62455811032E+02  0.10000000000E+01 0.  0.
<mgrwt>
<rscale>  0 0.12499682E+03</rscale>
<asrwt>0</asrwt>
<pdfrwt beam="2">  1        4 0.98304210E-02 0.12499682E+03</pdfrwt>
<pdfrwt beam="1">  1       -4 0.94045734E-02 0.12499682E+03</pdfrwt>
<totfact> 0.10453018E+04</totfact>
</mgrwt>
</event>
<event>
 5    1  0.3294152E-002  0.1250005E+03  0.7818608E-02  0.1235068E+00
          4   -1    0    0  501    0  0.00000000000E+00  0.00000000000E+00  0.10160717697E+04  0.10160725634E+04  0.12700000000E+01 0. -1.
         -4   -1    0    0    0  501 -0.00000000000E+00 -0.00000000000E+00 -0.37387945021E+01  0.39486053651E+01  0.12700000000E+01 0. -1.
         25    2    1    2    0    0  0.00000000000E+00  0.00000000000E+00  0.10123329752E+04  0.10200211688E+04  0.12500052817E+03 0.  0.
    9000005    1    3    3    0    0 -0.44175567316E+02 -0.43968909818E+02  0.54314660590E+03  0.54671197286E+03  0.10000000000E+01 0.  0.
    9000005    1    3    3    0    0  0.44175567316E+02  0.43968909818E+02  0.46918636931E+03  0.47330919590E+03  0.10000000000E+01 0.  0.
<mgrwt>
<rscale>  0 0.12500053E+03</rscale>
<asrwt>0</asrwt>
<pdfrwt beam="1">  1        4 0.15633493E+00 0.12500053E+03</pdfrwt>
<pdfrwt beam="2">  1       -4 0.59139953E-03 0.12500053E+03</pdfrwt>
<totfact> 0.29949235E+03</totfact>
</mgrwt>
</event>
<event>
 5    1  0.3294152E-002  0.1250041E+03  0.7818608E-02  0.1235063E+00
          4   -1    0    0  501    0  0.00000000000E+00  0.00000000000E+00  0.28297335163E+03  0.28297620153E+03  0.12700000000E+01 0.  1.
         -4   -1    0    0    0  501 -0.00000000000E+00 -0.00000000000E+00 -0.13773083511E+02  0.13831512188E+02  0.12700000000E+01 0.  1.
         25    2    1    2    0    0  0.00000000000E+00  0.00000000000E+00  0.26920026812E+03  0.29680771372E+03  0.12500413820E+03 0.  0.
    9000005    1    3    3    0    0 -0.11085657214E+02 -0.42650580472E+02  0.23981357011E+03  0.24383090907E+03  0.10000000000E+01 0.  0.
    9000005    1    3    3    0    0  0.11085657214E+02  0.42650580472E+02  0.29386698005E+02  0.52976804642E+02  0.10000000000E+01 0.  0.
<mgrwt>
<rscale>  0 0.12500414E+03</rscale>
<asrwt>0</asrwt>
<pdfrwt beam="1">  1        4 0.43539074E-01 0.12500414E+03</pdfrwt>
<pdfrwt beam="2">  1       -4 0.21236498E-02 0.12500414E+03</pdfrwt>
<totfact> 0.75994043E+03</totfact>
</mgrwt>
</event>
<event>
 5    1  0.3294152E-002  0.1250007E+03  0.7818608E-02  0.1235068E+00
          4   -1    0    0  501    0  0.00000000000E+00  0.00000000000E+00  0.57890265571E+03  0.57890404878E+03  0.12700000000E+01 0. -1.
         -4   -1    0    0    0  501 -0.00000000000E+00 -0.00000000000E+00 -0.66865891079E+01  0.68061276728E+01  0.12700000000E+01 0. -1.
         25    2    1    2    0    0  0.00000000000E+00  0.00000000000E+00  0.57221606661E+03  0.58571017645E+03  0.12500073567E+03 0.  0.
    9000005    1    3    3    0    0 -0.16847076141E+02  0.57042635911E+02  0.37594677861E+03  0.38062404894E+03  0.10000000000E+01 0.  0.
    9000005    1    3    3    0    0  0.16847076141E+02 -0.57042635911E+02  0.19626928799E+03  0.20508612751E+03  0.10000000000E+01 0.  0.
<mgrwt>
<rscale>  0 0.12500074E+03</rscale>
<asrwt>0</asrwt>
<pdfrwt beam="1">  1        4 0.89071249E-01 0.12500074E+03</pdfrwt>
<pdfrwt beam="2">  1       -4 0.10380085E-02 0.12500074E+03</pdfrwt>
<totfact> 0.49781426E+03</totfact>
</mgrwt>
</event>
<event>
 5    1  0.3294152E-002  0.1250000E+03  0.7818608E-02  0.1235069E+00
         -4   -1    0    0    0  501 -0.00000000000E+00  0.00000000000E+00  0.29056547845E+02  0.29084289103E+02  0.12700000000E+01 0. -1.
          4   -1    0    0  501    0  0.00000000000E+00 -0.00000000000E+00 -0.13434116397E+03  0.13434716684E+03  0.12700000000E+01 0. -1.
         25    2    1    2    0    0  0.00000000000E+00  0.00000000000E+00 -0.10528461613E+03  0.16343145594E+03  0.12499996159E+03 0.  0.
    9000005    1    3    3    0    0  0.41566223821E+02  0.82120098061E+01  0.74160042865E+01  0.43025401652E+02  0.10000000000E+01 0.  0.
    9000005    1    3    3    0    0 -0.41566223821E+02 -0.82120098061E+01 -0.11270062042E+03  0.12040605429E+03  0.10000000000E+01 0.  0.
<mgrwt>
<rscale>  0 0.12499996E+03</rscale>
<asrwt>0</asrwt>
<pdfrwt beam="2">  1        4 0.20670467E-01 0.12499996E+03</pdfrwt>
<pdfrwt beam="1">  1       -4 0.44728339E-02 0.12499996E+03</pdfrwt>
<totfact> 0.96685360E+03</totfact>
</mgrwt>
</event>
<event>
 5    1  0.3294152E-002  0.1250002E+03  0.7818608E-02  0.1235069E+00
         -4   -1    0    0    0  501 -0.00000000000E+00  0.00000000000E+00  0.80668373185E+02  0.80678369669E+02  0.12700000000E+01 0.  1.
          4   -1    0    0  501    0  0.00000000000E+00 -0.00000000000E+00 -0.48402420388E+02  0.48419078878E+02  0.12700000000E+01 0.  1.
         25    2    1    2    0    0  0.00000000000E+00  0.00000000000E+00  0.32265952798E+02  0.12909744855E+03  0.12500023804E+03 0.  0.
    9000005    1    3    3    0    0  0.44079246840E+02 -0.41057651808E+02  0.33307981421E+02  0.68841356758E+02  0.10000000000E+01 0.  0.
    9000005    1    3    3    0    0 -0.44079246840E+02  0.41057651808E+02 -0.10420286231E+01  0.60256091788E+02  0.10000000000E+01 0.  0.
<mgrwt>
<rscale>  0 0.12500024E+03</rscale>
<asrwt>0</asrwt>
<pdfrwt beam="2">  1        4 0.74485766E-02 0.12500024E+03</pdfrwt>
<pdfrwt beam="1">  1       -4 0.12412569E-01 0.12500024E+03</pdfrwt>
<totfact> 0.10363798E+04</totfact>
</mgrwt>
</event>
<event>
 5    1  0.3294152E-002  0.1249975E+03  0.7818608E-02  0.1235073E+00
          4   -1    0    0  501    0  0.00000000000E+00  0.00000000000E+00  0.93682504423E+02  0.93691112359E+02  0.12700000000E+01 0.  1.
         -4   -1    0    0    0  501 -0.00000000000E+00 -0.00000000000E+00 -0.41674827228E+02  0.41694173747E+02  0.12700000000E+01 0.  1.
         25    2    1    2    0    0  0.00000000000E+00  0.00000000000E+00  0.52007677195E+02  0.13538528611E+03  0.12499750880E+03 0.  0.
    9000005    1    3    3    0    0  0.49111105834E+02  0.10524244070E+02 -0.14267150142E+02  0.52222715390E+02  0.10000000000E+01 0.  0.
    9000005    1    3    3    0    0 -0.49111105834E+02 -0.10524244070E+02  0.66274827338E+02  0.83162570716E+02  0.10000000000E+01 0.  0.
<mgrwt>
<rscale>  0 0.12499751E+03</rscale>
<asrwt>0</asrwt>
<pdfrwt beam="1">  1        4 0.14414843E-01 0.12499751E+03</pdfrwt>
<pdfrwt beam="2">  1       -4 0.64136622E-02 0.12499751E+03</pdfrwt>
<totfact> 0.10230531E+04</totfact>
</mgrwt>
</event>
<event>
 5    1  0.3294152E-002  0.1249999E+03  0.7818608E-02  0.1235069E+00
          4   -1    0    0  501    0  0.00000000000E+00  0.00000000000E+00  0.64173983986E+01  0.65418577030E+01  0.12700000000E+01 0. -1.
         -4   -1    0    0    0  501 -0.00000000000E+00 -0.00000000000E+00 -0.60272462848E+03  0.60272596649E+03  0.12700000000E+01 0. -1.
         25    2    1    2    0    0  0.00000000000E+00  0.00000000000E+00 -0.59630723008E+03  0.60926782419E+03  0.12499987578E+03 0.  0.
    9000005    1    3    3    0    0  0.17065818234E+02  0.52500409259E+02 -0.44090100214E+03  0.44434471844E+03  0.10000000000E+01 0.  0.
    9000005    1    3    3    0    0 -0.17065818234E+02 -0.52500409259E+02 -0.15540622794E+03  0.16492310574E+03  0.10000000000E+01 0.  0.
<mgrwt>
<rscale>  0 0.12499988E+03</rscale>
<asrwt>0</asrwt>
<pdfrwt beam="1">  1        4 0.99696925E-03 0.12499988E+03</pdfrwt>
<pdfrwt beam="2">  1       -4 0.92736498E-01 0.12499988E+03</pdfrwt>
<totfact> 0.48287925E+03</totfact>
</mgrwt>
</event>
<event>
 5    1  0.3294152E-002  0.1249938E+03  0.7818608E-02  0.1235079E+00
          4   -1    0    0  501    0  0.00000000000E+00  0.00000000000E+00  0.48947382759E+02  0.48963855843E+02  0.12700000000E+01 0.  1.
         -4   -1    0    0    0  501 -0.00000000000E+00 -0.00000000000E+00 -0.79762275576E+02  0.79772385604E+02  0.12700000000E+01 0.  1.
         25    2    1    2    0    0  0.00000000000E+00  0.00000000000E+00 -0.30814892817E+02  0.12873624145E+03  0.12499384882E+03 0.  0.
    9000005    1    3    3    0    0 -0.54649212404E+02 -0.19102330098E+02 -0.39636897959E+02  0.70167792550E+02  0.10000000000E+01 0.  0.
    9000005    1    3    3    0    0  0.54649212404E+02  0.19102330098E+02  0.88220051429E+01  0.58568448897E+02  0.10000000000E+01 0.  0.
<mgrwt>
<rscale>  0 0.12499385E+03</rscale>
<asrwt>0</asrwt>
<pdfrwt beam="1">  1        4 0.75324114E-02 0.12499385E+03</pdfrwt>
<pdfrwt beam="2">  1       -4 0.12273164E-01 0.12499385E+03</pdfrwt>
<totfact> 0.10373058E+04</totfact>
</mgrwt>
</event>
<event>
 5    1  0.3294152E-002  0.1250027E+03  0.7818608E-02  0.1235065E+00
         -4   -1    0    0    0  501 -0.00000000000E+00  0.00000000000E+00  0.89486297284E+02  0.89495308825E+02  0.12700000000E+01 0. -1.
          4   -1    0    0  501    0  0.00000000000E+00 -0.00000000000E+00 -0.43633341592E+02  0.43651820105E+02  0.12700000000E+01 0. -1.
         25    2    1    2    0    0  0.00000000000E+00  0.00000000000E+00  0.45852955692E+02  0.13314712893E+03  0.12500265756E+03 0.  0.
    9000005    1    3    3    0    0 -0.55169338186E+02 -0.20447750162E+01 -0.82659844439E+01  0.55831563471E+02  0.10000000000E+01 0.  0.
    9000005    1    3    3    0    0  0.55169338186E+02  0.20447750162E+01  0.54118940136E+02  0.77315565459E+02  0.10000000000E+01 0.  0.
<mgrwt>
<rscale>  0 0.12500266E+03</rscale>
<asrwt>0</asrwt>
<pdfrwt beam="2">  1        4 0.67149365E-02 0.12500266E+03</pdfrwt>
<pdfrwt beam="1">  1       -4 0.13769237E-01 0.12500266E+03</pdfrwt>
<totfact> 0.10276658E+04</totfact>
</mgrwt>
</event>
<event>
 5    1  0.3294152E-002  0.1249911E+03  0.7818608E-02  0.1235083E+00
          4   -1    0    0  501    0  0.00000000000E+00  0.00000000000E+00  0.85945334564E+02  0.85954717341E+02  0.12700000000E+01 0.  1.
         -4   -1    0    0    0  501 -0.00000000000E+00 -0.00000000000E+00 -0.45423182885E+02  0.45440933567E+02  0.12700000000E+01 0.  1.
         25    2    1    2    0    0  0.00000000000E+00  0.00000000000E+00  0.40522151678E+02  0.13139565091E+03  0.12499108889E+03 0.  0.
    9000005    1    3    3    0    0 -0.25299972654E+02  0.45780223859E+02  0.56200200932E+02  0.76781378586E+02  0.10000000000E+01 0.  0.
    9000005    1    3    3    0    0  0.25299972654E+02 -0.45780223859E+02 -0.15678049253E+02  0.54614272322E+02  0.10000000000E+01 0.  0.
<mgrwt>
<rscale>  0 0.12499109E+03</rscale>
<asrwt>0</asrwt>
<pdfrwt beam="1">  1        4 0.13224446E-01 0.12499109E+03</pdfrwt>
<pdfrwt beam="2">  1       -4 0.69902693E-02 0.12499109E+03</pdfrwt>
<totfact> 0.10316689E+04</totfact>
</mgrwt>
</event>
<event>
 5    1  0.3294152E-002  0.1250003E+03  0.7818608E-02  0.1235069E+00
         -4   -1    0    0    0  501 -0.00000000000E+00  0.00000000000E+00  0.17729633581E+03  0.17730088435E+03  0.12700000000E+01 0.  1.
          4   -1    0    0  501    0  0.00000000000E+00 -0.00000000000E+00 -0.22009278726E+02  0.22045889640E+02  0.12700000000E+01 0.  1.
         25    2    1    2    0    0  0.00000000000E+00  0.00000000000E+00  0.15528705708E+03  0.19934677399E+03  0.12500026481E+03 0.  0.
    9000005    1    3    3    0    0  0.48663044508E+02 -0.35788770518E+02  0.52110328691E+02  0.79783546877E+02  0.10000000000E+01 0.  0.
    9000005    1    3    3    0    0 -0.48663044508E+02  0.35788770518E+02  0.10317672839E+03  0.11956322711E+03  0.10000000000E+01 0.  0.
<mgrwt>
<rscale>  0 0.12500026E+03</rscale>
<asrwt>0</asrwt>
<pdfrwt beam="2">  1        4 0.33892090E-02 0.12500026E+03</pdfrwt>
<pdfrwt beam="1">  1       -4 0.27279526E-01 0.12500026E+03</pdfrwt>
<totfact> 0.90245260E+03</totfact>
</mgrwt>
</event>
<event>
 5    1  0.3294152E-002  0.1249999E+03  0.7818608E-02  0.1235069E+00
          4   -1    0    0  501    0  0.00000000000E+00  0.00000000000E+00  0.10549768134E+01  0.16510227366E+01  0.12700000000E+01 0. -1.
         -4   -1    0    0    0  501 -0.00000000000E+00 -0.00000000000E+00 -0.28865030116E+04  0.28865032910E+04  0.12700000000E+01 0. -1.
         25    2    1    2    0    0  0.00000000000E+00  0.00000000000E+00 -0.28854480348E+04  0.28881543137E+04  0.12499991369E+03 0.  0.
    9000005    1    3    3    0    0 -0.23175379085E+02  0.19705835891E+02 -0.27039884982E+04  0.27041597986E+04  0.10000000000E+01 0.  0.
    9000005    1    3    3    0    0  0.23175379085E+02 -0.19705835891E+02 -0.18145953662E+03  0.18399451512E+03  0.10000000000E+01 0.  0.
<mgrwt>
<rscale>  0 0.12499991E+03</rscale>
<asrwt>0</asrwt>
<pdfrwt beam="1">  1        4 0.20817761E-03 0.12499991E+03</pdfrwt>
<pdfrwt beam="2">  1       -4 0.44411833E+00 0.12499991E+03</pdfrwt>
<totfact> 0.22857396E+02</totfact>
</mgrwt>
</event>
<event>
 5    1  0.3294152E-002  0.1249989E+03  0.7818608E-02  0.1235071E+00
         -4   -1    0    0    0  501 -0.00000000000E+00  0.00000000000E+00  0.17185054466E+04  0.17185059159E+04  0.12700000000E+01 0.  1.
          4   -1    0    0  501    0  0.00000000000E+00 -0.00000000000E+00 -0.20951090166E+01  0.24499758756E+01  0.12700000000E+01 0.  1.
         25    2    1    2    0    0  0.00000000000E+00  0.00000000000E+00  0.17164103376E+04  0.17209558918E+04  0.12499893753E+03 0.  0.
    9000005    1    3    3    0    0 -0.45035789358E+02 -0.35548355426E+02  0.11991556409E+04  0.12005278668E+04  0.10000000000E+01 0.  0.
    9000005    1    3    3    0    0  0.45035789358E+02  0.35548355426E+02  0.51725469670E+03  0.52042802495E+03  0.10000000000E+01 0.  0.
<mgrwt>
<rscale>  0 0.12499894E+03</rscale>
<asrwt>0</asrwt>
<pdfrwt beam="2">  1        4 0.34965806E-03 0.12499894E+03</pdfrwt>
<pdfrwt beam="1">  1       -4 0.26441275E+00 0.12499894E+03</pdfrwt>
<totfact> 0.13961579E+03</totfact>
</mgrwt>
</event>
<event>
 5    1  0.3294152E-002  0.1249917E+03  0.7818608E-02  0.1235082E+00
         -4   -1    0    0    0  501 -0.00000000000E+00  0.00000000000E+00  0.10285621748E+02  0.10363730734E+02  0.12700000000E+01 0. -1.
          4   -1    0    0  501    0  0.00000000000E+00 -0.00000000000E+00 -0.37821190370E+03  0.37821403597E+03  0.12700000000E+01 0. -1.
         25    2    1    2    0    0  0.00000000000E+00  0.00000000000E+00 -0.36792628196E+03  0.38857776670E+03  0.12499172701E+03 0.  0.
    9000005    1    3    3    0    0  0.12644687226E+01 -0.48836434519E+02 -0.30509325447E+03  0.30898137507E+03  0.10000000000E+01 0.  0.
    9000005    1    3    3    0    0 -0.12644687226E+01  0.48836434519E+02 -0.62833027486E+02  0.79596391631E+02  0.10000000000E+01 0.  0.
<mgrwt>
<rscale>  0 0.12499173E+03</rscale>
<asrwt>0</asrwt>
<pdfrwt beam="2">  1        4 0.58192608E-01 0.12499173E+03</pdfrwt>
<pdfrwt beam="1">  1       -4 0.15885760E-02 0.12499173E+03</pdfrwt>
<totfact> 0.65691080E+03</totfact>
</mgrwt>
</event>
<event>
 5    1  0.3294152E-002  0.1249966E+03  0.7818608E-02  0.1235075E+00
          4   -1    0    0  501    0  0.00000000000E+00  0.00000000000E+00  0.42409476430E+03  0.42409666587E+03  0.12700000000E+01 0.  1.
         -4   -1    0    0    0  501 -0.00000000000E+00 -0.00000000000E+00 -0.91645811625E+01  0.92521590931E+01  0.12700000000E+01 0.  1.
         25    2    1    2    0    0  0.00000000000E+00  0.00000000000E+00  0.41493018313E+03  0.43334882496E+03  0.12499658885E+03 0.  0.
    9000005    1    3    3    0    0 -0.21875542964E+02 -0.84306951192E+01  0.66423190485E+01  0.24387218014E+02  0.10000000000E+01 0.  0.
    9000005    1    3    3    0    0  0.21875542964E+02  0.84306951192E+01  0.40828786408E+03  0.40896160695E+03  0.10000000000E+01 0.  0.
<mgrwt>
<rscale>  0 0.12499659E+03</rscale>
<asrwt>0</asrwt>
<pdfrwt beam="1">  1        4 0.65252231E-01 0.12499659E+03</pdfrwt>
<pdfrwt beam="2">  1       -4 0.14168186E-02 0.12499659E+03</pdfrwt>
<totfact> 0.61438228E+03</totfact>
</mgrwt>
</event>
<event>
 5    1  0.3294152E-002  0.1250024E+03  0.7818608E-02  0.1235065E+00
         -4   -1    0    0    0  501 -0.00000000000E+00  0.00000000000E+00  0.10578177455E+03  0.10578939799E+03  0.12700000000E+01 0.  1.
          4   -1    0    0  501    0  0.00000000000E+00 -0.00000000000E+00 -0.36908994185E+02  0.36930837410E+02  0.12700000000E+01 0.  1.
         25    2    1    2    0    0  0.00000000000E+00  0.00000000000E+00  0.68872780368E+02  0.14272023540E+03  0.12500242285E+03 0.  0.
    9000005    1    3    3    0    0  0.62410500013E+02  0.19739174893E+01  0.31540201870E+02  0.69962498498E+02  0.10000000000E+01 0.  0.
    9000005    1    3    3    0    0 -0.62410500013E+02 -0.19739174893E+01  0.37332578498E+02  0.72757736904E+02  0.10000000000E+01 0.  0.
<mgrwt>
<rscale>  0 0.12500242E+03</rscale>
<asrwt>0</asrwt>
<pdfrwt beam="2">  1        4 0.56805735E-02 0.12500242E+03</pdfrwt>
<pdfrwt beam="1">  1       -4 0.16276386E-01 0.12500242E+03</pdfrwt>
<totfact> 0.10076965E+04</totfact>
</mgrwt>
</event>
<event>
 5    1  0.3294152E-002  0.1249961E+03  0.7818608E-02  0.1235075E+00
          4   -1    0    0  501    0  0.00000000000E+00  0.00000000000E+00  0.26625908951E+02  0.26656179911E+02  0.12700000000E+01 0.  1.
         -4   -1    0    0    0  501 -0.00000000000E+00 -0.00000000000E+00 -0.14658314772E+03  0.14658864927E+03  0.12700000000E+01 0.  1.
         25    2    1    2    0    0  0.00000000000E+00  0.00000000000E+00 -0.11995723877E+03  0.17324482918E+03  0.12499612676E+03 0.  0.
    9000005    1    3    3    0    0  0.16109152407E+02  0.59010604479E+02 -0.42269679090E+02  0.74360486837E+02  0.10000000000E+01 0.  0.
    9000005    1    3    3    0    0 -0.16109152407E+02 -0.59010604479E+02 -0.77687559676E+02  0.98884342344E+02  0.10000000000E+01 0.  0.
<mgrwt>
<rscale>  0 0.12499613E+03</rscale>
<asrwt>0</asrwt>
<pdfrwt beam="1">  1        4 0.40990455E-02 0.12499613E+03</pdfrwt>
<pdfrwt beam="2">  1       -4 0.22554005E-01 0.12499613E+03</pdfrwt>
<totfact> 0.94855526E+03</totfact>
</mgrwt>
</event>
<event>
 5    1  0.3294152E-002  0.1250108E+03  0.7818608E-02  0.1235052E+00
          4   -1    0    0  501    0  0.00000000000E+00  0.00000000000E+00  0.71749460312E+01  0.72864772388E+01  0.12700000000E+01 0.  1.
         -4   -1    0    0    0  501 -0.00000000000E+00 -0.00000000000E+00 -0.54021134929E+03  0.54021284213E+03  0.12700000000E+01 0.  1.
         25    2    1    2    0    0  0.00000000000E+00  0.00000000000E+00 -0.53303640326E+03  0.54749931937E+03  0.12501078957E+03 0.  0.
    9000005    1    3    3    0    0 -0.32274038995E+01  0.21008883947E+02 -0.52391654142E+03  0.52434848309E+03  0.10000000000E+01 0.  0.
    9000005    1    3    3    0    0  0.32274038995E+01 -0.21008883947E+02 -0.91198618390E+01  0.23150836283E+02  0.10000000000E+01 0.  0.
<mgrwt>
<rscale>  0 0.12501079E+03</rscale>
<asrwt>0</asrwt>
<pdfrwt beam="1">  1        4 0.11125324E-02 0.12501079E+03</pdfrwt>
<pdfrwt beam="2">  1       -4 0.83118101E-01 0.12501079E+03</pdfrwt>
<totfact> 0.52346285E+03</totfact>
</mgrwt>
</event>
<event>
 5    1  0.3294152E-002  0.1249975E+03  0.7818608E-02  0.1235073E+00
         -4   -1    0    0    0  501 -0.00000000000E+00  0.00000000000E+00  0.14354894795E+02  0.14410964735E+02  0.12700000000E+01 0. -1.
          4   -1    0    0  501    0  0.00000000000E+00 -0.00000000000E+00 -0.27152105330E+03  0.27152402340E+03  0.12700000000E+01 0. -1.
         25    2    1    2    0    0  0.00000000000E+00  0.00000000000E+00 -0.25716615850E+03  0.28593498814E+03  0.12499753742E+03 0.  0.
    9000005    1    3    3    0    0 -0.52812582029E+02  0.92445782106E+01 -0.55151566449E+02  0.76924159590E+02  0.10000000000E+01 0.  0.
    9000005    1    3    3    0    0  0.52812582029E+02 -0.92445782106E+01 -0.20201459206E+03  0.20901082855E+03  0.10000000000E+01 0.  0.
<mgrwt>
<rscale>  0 0.12499754E+03</rscale>
<asrwt>0</asrwt>
<pdfrwt beam="2">  1        4 0.41777007E-01 0.12499754E+03</pdfrwt>
<pdfrwt beam="1">  1       -4 0.22129871E-02 0.12499754E+03</pdfrwt>
<totfact> 0.77401930E+03</totfact>
</mgrwt>
</event>
<event>
 5    1  0.3294152E-002  0.1249980E+03  0.7818608E-02  0.1235072E+00
          4   -1    0    0  501    0  0.00000000000E+00  0.00000000000E+00  0.10203121849E+03  0.10203912213E+03  0.12700000000E+01 0. -1.
         -4   -1    0    0    0  501 -0.00000000000E+00 -0.00000000000E+00 -0.38263721887E+02  0.38284792185E+02  0.12700000000E+01 0. -1.
         25    2    1    2    0    0  0.00000000000E+00  0.00000000000E+00  0.63767496599E+02  0.14032391432E+03  0.12499802921E+03 0.  0.
    9000005    1    3    3    0    0 -0.16989741555E+02  0.55699539383E+02  0.64315299873E+01  0.58595687415E+02  0.10000000000E+01 0.  0.
    9000005    1    3    3    0    0  0.16989741555E+02 -0.55699539383E+02  0.57335966612E+02  0.81728226904E+02  0.10000000000E+01 0.  0.
<mgrwt>
<rscale>  0 0.12499803E+03</rscale>
<asrwt>0</asrwt>
<pdfrwt beam="1">  1        4 0.15699339E-01 0.12499803E+03</pdfrwt>
<pdfrwt beam="2">  1       -4 0.58889551E-02 0.12499803E+03</pdfrwt>
<totfact> 0.10127327E+04</totfact>
</mgrwt>
</event>
<event>
 5    1  0.3294152E-002  0.1250065E+03  0.7818608E-02  0.1235059E+00
          4   -1    0    0  501    0  0.00000000000E+00  0.00000000000E+00  0.26782900321E+03  0.26783201425E+03  0.12700000000E+01 0.  1.
         -4   -1    0    0    0  501 -0.00000000000E+00 -0.00000000000E+00 -0.14555641189E+02  0.14610940778E+02  0.12700000000E+01 0.  1.
         25    2    1    2    0    0  0.00000000000E+00  0.00000000000E+00  0.25327336202E+03  0.28244295503E+03  0.12500650759E+03 0.  0.
    9000005    1    3    3    0    0 -0.21959158838E+02  0.53837887434E+02  0.17840337821E+03  0.18764191466E+03  0.10000000000E+01 0.  0.
    9000005    1    3    3    0    0  0.21959158838E+02 -0.53837887434E+02  0.74869983809E+02  0.94801040373E+02  0.10000000000E+01 0.  0.
<mgrwt>
<rscale>  0 0.12500651E+03</rscale>
<asrwt>0</asrwt>
<pdfrwt beam="1">  1        4 0.41208944E-01 0.12500651E+03</pdfrwt>
<pdfrwt beam="2">  1       -4 0.22438150E-02 0.12500651E+03</pdfrwt>
<totfact> 0.77844041E+03</totfact>
</mgrwt>
</event>
<event>
 5    1  0.3294152E-002  0.1249997E+03  0.7818608E-02  0.1235070E+00
         -4   -1    0    0    0  501 -0.00000000000E+00  0.00000000000E+00  0.60365299940E+01  0.61686784945E+01  0.12700000000E+01 0.  1.
          4   -1    0    0  501    0  0.00000000000E+00 -0.00000000000E+00 -0.63995928474E+03  0.63996054489E+03  0.12700000000E+01 0.  1.
         25    2    1    2    0    0  0.00000000000E+00  0.00000000000E+00 -0.63392275474E+03  0.64612922339E+03  0.12499965734E+03 0.  0.
    9000005    1    3    3    0    0 -0.19375137415E+02  0.25780490941E+02 -0.59364786539E+03  0.59452402622E+03  0.10000000000E+01 0.  0.
    9000005    1    3    3    0    0  0.19375137415E+02 -0.25780490941E+02 -0.40274889349E+02  0.51605197171E+02  0.10000000000E+01 0.  0.
<mgrwt>
<rscale>  0 0.12499966E+03</rscale>
<asrwt>0</asrwt>
<pdfrwt beam="2">  1        4 0.98465484E-01 0.12499966E+03</pdfrwt>
<pdfrwt beam="1">  1       -4 0.93895963E-03 0.12499966E+03</pdfrwt>
<totfact> 0.46079751E+03</totfact>
</mgrwt>
</event>
<event>
 5    1  0.3294152E-002  0.1250033E+03  0.7818608E-02  0.1235064E+00
         -4   -1    0    0    0  501 -0.00000000000E+00  0.00000000000E+00  0.20106278116E+02  0.20146347552E+02  0.12700000000E+01 0. -1.
          4   -1    0    0  501    0  0.00000000000E+00 -0.00000000000E+00 -0.19405488620E+03  0.19405904194E+03  0.12700000000E+01 0. -1.
         25    2    1    2    0    0  0.00000000000E+00  0.00000000000E+00 -0.17394860808E+03  0.21420538949E+03  0.12500332249E+03 0.  0.
    9000005    1    3    3    0    0  0.58240087765E+02  0.18639707600E+01 -0.48272960043E+02  0.75674704368E+02  0.10000000000E+01 0.  0.
    9000005    1    3    3    0    0 -0.58240087765E+02 -0.18639707600E+01 -0.12567564804E+03  0.13853068512E+03  0.10000000000E+01 0.  0.
<mgrwt>
<rscale>  0 0.12500332E+03</rscale>
<asrwt>0</asrwt>
<pdfrwt beam="2">  1        4 0.29857999E-01 0.12500332E+03</pdfrwt>
<pdfrwt beam="1">  1       -4 0.30966756E-02 0.12500332E+03</pdfrwt>
<totfact> 0.87787140E+03</totfact>
</mgrwt>
</event>
<event>
 5    1  0.3294152E-002  0.1249969E+03  0.7818608E-02  0.1235074E+00
         -4   -1    0    0    0  501 -0.00000000000E+00  0.00000000000E+00  0.79972973713E+02  0.79983057109E+02  0.12700000000E+01 0. -1.
          4   -1    0    0  501    0  0.00000000000E+00 -0.00000000000E+00 -0.48820757764E+02  0.48837273559E+02  0.12700000000E+01 0. -1.
         25    2    1    2    0    0  0.00000000000E+00  0.00000000000E+00  0.31152215949E+02  0.12882033067E+03  0.12499686810E+03 0.  0.
    9000005    1    3    3    0    0  0.24656425476E+02 -0.52996617212E+02 -0.72013778237E+01  0.58901957486E+02  0.10000000000E+01 0.  0.
    9000005    1    3    3    0    0 -0.24656425476E+02  0.52996617212E+02  0.38353593772E+02  0.69918373182E+02  0.10000000000E+01 0.  0.
<mgrwt>
<rscale>  0 0.12499687E+03</rscale>
<asrwt>0</asrwt>
<pdfrwt beam="2">  1        4 0.75129320E-02 0.12499687E+03</pdfrwt>
<pdfrwt beam="1">  1       -4 0.12305580E-01 0.12499687E+03</pdfrwt>
<totfact> 0.10370542E+04</totfact>
</mgrwt>
</event>
<event>
 5    1  0.3294152E-002  0.1250008E+03  0.7818608E-02  0.1235068E+00
         -4   -1    0    0    0  501 -0.00000000000E+00  0.00000000000E+00  0.31595818239E+03  0.31596073477E+03  0.12700000000E+01 0. -1.
          4   -1    0    0  501    0  0.00000000000E+00 -0.00000000000E+00 -0.12328126259E+02  0.12393369076E+02  0.12700000000E+01 0. -1.
         25    2    1    2    0    0  0.00000000000E+00  0.00000000000E+00  0.30363005613E+03  0.32835410385E+03  0.12500082612E+03 0.  0.
    9000005    1    3    3    0    0  0.43294083305E+02  0.44755341026E+02  0.16568586561E+03  0.17700345833E+03  0.10000000000E+01 0.  0.
    9000005    1    3    3    0    0 -0.43294083305E+02 -0.44755341026E+02  0.13794419052E+03  0.15135064552E+03  0.10000000000E+01 0.  0.
<mgrwt>
<rscale>  0 0.12500083E+03</rscale>
<asrwt>0</asrwt>
<pdfrwt beam="2">  1        4 0.19018498E-02 0.12500083E+03</pdfrwt>
<pdfrwt beam="1">  1       -4 0.48614167E-01 0.12500083E+03</pdfrwt>
<totfact> 0.72172086E+03</totfact>
</mgrwt>
</event>
<event>
 5    1  0.3294152E-002  0.1250026E+03  0.7818608E-02  0.1235065E+00
         -4   -1    0    0    0  501 -0.00000000000E+00  0.00000000000E+00  0.35768519144E+03  0.35768744607E+03  0.12700000000E+01 0.  1.
          4   -1    0    0  501    0  0.00000000000E+00 -0.00000000000E+00 -0.10882153503E+02  0.10956010444E+02  0.12700000000E+01 0.  1.
         25    2    1    2    0    0  0.00000000000E+00  0.00000000000E+00  0.34680303794E+03  0.36864345652E+03  0.12500260360E+03 0.  0.
    9000005    1    3    3    0    0 -0.57046818843E+02 -0.20036673769E+02  0.21999380468E+03  0.22815363668E+03  0.10000000000E+01 0.  0.
    9000005    1    3    3    0    0  0.57046818843E+02  0.20036673769E+02  0.12680923326E+03  0.14048981983E+03  0.10000000000E+01 0.  0.
<mgrwt>
<rscale>  0 0.12500260E+03</rscale>
<asrwt>0</asrwt>
<pdfrwt beam="2">  1        4 0.16800321E-02 0.12500260E+03</pdfrwt>
<pdfrwt beam="1">  1       -4 0.55034350E-01 0.12500260E+03</pdfrwt>
<totfact> 0.67717193E+03</totfact>
</mgrwt>
</event>
<event>
 5    1  0.3294152E-002  0.1250040E+03  0.7818608E-02  0.1235063E+00
          4   -1    0    0  501    0  0.00000000000E+00  0.00000000000E+00  0.48880468106E+03  0.48880633090E+03  0.12700000000E+01 0.  1.
         -4   -1    0    0    0  501 -0.00000000000E+00 -0.00000000000E+00 -0.79398163785E+01  0.80407452468E+01  0.12700000000E+01 0.  1.
         25    2    1    2    0    0  0.00000000000E+00  0.00000000000E+00  0.48086486468E+03  0.49684707614E+03  0.12500399589E+03 0.  0.
    9000005    1    3    3    0    0 -0.15441350333E+02 -0.41239734174E+02  0.41668242930E+03  0.41900405471E+03  0.10000000000E+01 0.  0.
    9000005    1    3    3    0    0  0.15441350333E+02  0.41239734174E+02  0.64182435380E+02  0.77843021435E+02  0.10000000000E+01 0.  0.
<mgrwt>
<rscale>  0 0.12500400E+03</rscale>
<asrwt>0</asrwt>
<pdfrwt beam="1">  1        4 0.75208627E-01 0.12500400E+03</pdfrwt>
<pdfrwt beam="2">  1       -4 0.12294006E-02 0.12500400E+03</pdfrwt>
<totfact> 0.56104887E+03</totfact>
</mgrwt>
</event>
<event>
 5    1  0.3294152E-002  0.1249985E+03  0.7818608E-02  0.1235072E+00
          4   -1    0    0  501    0  0.00000000000E+00  0.00000000000E+00  0.73942566677E+02  0.73953472310E+02  0.12700000000E+01 0. -1.
         -4   -1    0    0    0  501 -0.00000000000E+00 -0.00000000000E+00 -0.52804458776E+02  0.52819728953E+02  0.12700000000E+01 0. -1.
         25    2    1    2    0    0  0.00000000000E+00  0.00000000000E+00  0.21138107900E+02  0.12677320126E+03  0.12499849980E+03 0.  0.
    9000005    1    3    3    0    0 -0.47201685748E+02  0.10990874733E+02  0.50579866943E+02  0.70057986017E+02  0.10000000000E+01 0.  0.
    9000005    1    3    3    0    0  0.47201685748E+02 -0.10990874733E+02 -0.29441759042E+02  0.56715215245E+02  0.10000000000E+01 0.  0.
<mgrwt>
<rscale>  0 0.12499850E+03</rscale>
<asrwt>0</asrwt>
<pdfrwt beam="1">  1        4 0.11377793E-01 0.12499850E+03</pdfrwt>
<pdfrwt beam="2">  1       -4 0.81257764E-02 0.12499850E+03</pdfrwt>
<totfact> 0.10414430E+04</totfact>
</mgrwt>
</event>
<event>
 5    1  0.3294152E-002  0.1250132E+03  0.7818608E-02  0.1235049E+00
         -4   -1    0    0    0  501 -0.00000000000E+00  0.00000000000E+00  0.66017524920E+03  0.66017647077E+03  0.12700000000E+01 0. -1.
          4   -1    0    0  501    0  0.00000000000E+00 -0.00000000000E+00 -0.58488627670E+01  0.59851562776E+01  0.12700000000E+01 0. -1.
         25    2    1    2    0    0  0.00000000000E+00  0.00000000000E+00  0.65432638643E+03  0.66616162704E+03  0.12501317277E+03 0.  0.
    9000005    1    3    3    0    0  0.34055166549E+02  0.49367577650E+02  0.42085818168E+03  0.42511118684E+03  0.10000000000E+01 0.  0.
    9000005    1    3    3    0    0 -0.34055166549E+02 -0.49367577650E+02  0.23346820475E+03  0.24105044020E+03  0.10000000000E+01 0.  0.
<mgrwt>
<rscale>  0 0.12501317E+03</rscale>
<asrwt>0</asrwt>
<pdfrwt beam="2">  1        4 0.91040323E-03 0.12501317E+03</pdfrwt>
<pdfrwt beam="1">  1       -4 0.10157599E+00 0.12501317E+03</pdfrwt>
<totfact> 0.44921174E+03</totfact>
</mgrwt>
</event>
<event>
 5    1  0.3294152E-002  0.1249987E+03  0.7818608E-02  0.1235071E+00
         -4   -1    0    0    0  501 -0.00000000000E+00  0.00000000000E+00  0.45680610306E+02  0.45698260995E+02  0.12700000000E+01 0.  1.
          4   -1    0    0  501    0  0.00000000000E+00 -0.00000000000E+00 -0.85471551168E+02  0.85480985951E+02  0.12700000000E+01 0.  1.
         25    2    1    2    0    0  0.00000000000E+00  0.00000000000E+00 -0.39790940862E+02  0.13117924695E+03  0.12499870341E+03 0.  0.
    9000005    1    3    3    0    0  0.32032045964E+02 -0.10401120347E+02 -0.75137889970E+02  0.82346449725E+02  0.10000000000E+01 0.  0.
    9000005    1    3    3    0    0 -0.32032045964E+02  0.10401120347E+02  0.35346949109E+02  0.48832797221E+02  0.10000000000E+01 0.  0.
<mgrwt>
<rscale>  0 0.12499870E+03</rscale>
<asrwt>0</asrwt>
<pdfrwt beam="2">  1        4 0.13151553E-01 0.12499870E+03</pdfrwt>
<pdfrwt beam="1">  1       -4 0.70298697E-02 0.12499870E+03</pdfrwt>
<totfact> 0.10319550E+04</totfact>
</mgrwt>
</event>
<event>
 5    1  0.3294152E-002  0.1249991E+03  0.7818608E-02  0.1235071E+00
          4   -1    0    0  501    0  0.00000000000E+00  0.00000000000E+00  0.59031420907E+01  0.60382105414E+01  0.12700000000E+01 0.  1.
         -4   -1    0    0    0  501 -0.00000000000E+00 -0.00000000000E+00 -0.65409360778E+03  0.65409484070E+03  0.12700000000E+01 0.  1.
         25    2    1    2    0    0  0.00000000000E+00  0.00000000000E+00 -0.64819046569E+03  0.66013305125E+03  0.12499906215E+03 0.  0.
    9000005    1    3    3    0    0  0.47643982291E+02 -0.40046400991E+02 -0.29444189066E+03  0.30094964738E+03  0.10000000000E+01 0.  0.
    9000005    1    3    3    0    0 -0.47643982291E+02  0.40046400991E+02 -0.35374857503E+03  0.35918340387E+03  0.10000000000E+01 0.  0.
<mgrwt>
<rscale>  0 0.12499906E+03</rscale>
<asrwt>0</asrwt>
<pdfrwt beam="1">  1        4 0.91866094E-03 0.12499906E+03</pdfrwt>
<pdfrwt beam="2">  1       -4 0.10064021E+00 0.12499906E+03</pdfrwt>
<totfact> 0.45277208E+03</totfact>
</mgrwt>
</event>
<event>
 5    1  0.3294152E-002  0.1249985E+03  0.7818608E-02  0.1235072E+00
          4   -1    0    0  501    0  0.00000000000E+00  0.00000000000E+00  0.98273966361E+01  0.99091182576E+01  0.12700000000E+01 0. -1.
         -4   -1    0    0    0  501 -0.00000000000E+00 -0.00000000000E+00 -0.39574742063E+03  0.39574945841E+03  0.12700000000E+01 0. -1.
         25    2    1    2    0    0  0.00000000000E+00  0.00000000000E+00 -0.38592002399E+03  0.40565857667E+03  0.12499846362E+03 0.  0.
    9000005    1    3    3    0    0  0.48488934347E+02 -0.36604350336E+02 -0.24044573587E+03  0.24800444979E+03  0.10000000000E+01 0.  0.
    9000005    1    3    3    0    0 -0.48488934347E+02  0.36604350336E+02 -0.14547428812E+03  0.15765412688E+03  0.10000000000E+01 0.  0.
<mgrwt>
<rscale>  0 0.12499846E+03</rscale>
<asrwt>0</asrwt>
<pdfrwt beam="1">  1        4 0.15183505E-02 0.12499846E+03</pdfrwt>
<pdfrwt beam="2">  1       -4 0.60890649E-01 0.12499846E+03</pdfrwt>
<totfact> 0.64008315E+03</totfact>
</mgrwt>
</event>
<event>
 5    1  0.3294152E-002  0.1250029E+03  0.7818608E-02  0.1235065E+00
          4   -1    0    0  501    0  0.00000000000E+00  0.00000000000E+00  0.18187242865E+03  0.18187686274E+03  0.12700000000E+01 0. -1.
         -4   -1    0    0    0  501 -0.00000000000E+00 -0.00000000000E+00 -0.21455506571E+02  0.21493060792E+02  0.12700000000E+01 0. -1.
         25    2    1    2    0    0  0.00000000000E+00  0.00000000000E+00  0.16041692207E+03  0.20336992354E+03  0.12500294761E+03 0.  0.
    9000005    1    3    3    0    0  0.60653747432E+02  0.61545424988E+01  0.10255591105E+03  0.11931249039E+03  0.10000000000E+01 0.  0.
    9000005    1    3    3    0    0 -0.60653747432E+02 -0.61545424988E+01  0.57861011020E+02  0.84057433146E+02  0.10000000000E+01 0.  0.
<mgrwt>
<rscale>  0 0.12500295E+03</rscale>
<asrwt>0</asrwt>
<pdfrwt beam="1">  1        4 0.27983603E-01 0.12500295E+03</pdfrwt>
<pdfrwt beam="2">  1       -4 0.33040771E-02 0.12500295E+03</pdfrwt>
<totfact> 0.89564332E+03</totfact>
</mgrwt>
</event>
<event>
 5    1  0.3294152E-002  0.1250007E+03  0.7818608E-02  0.1235068E+00
          4   -1    0    0  501    0  0.00000000000E+00  0.00000000000E+00  0.68567464421E+02  0.68579224822E+02  0.12700000000E+01 0.  1.
         -4   -1    0    0    0  501 -0.00000000000E+00 -0.00000000000E+00 -0.56946359099E+02  0.56960518911E+02  0.12700000000E+01 0.  1.
         25    2    1    2    0    0  0.00000000000E+00  0.00000000000E+00  0.11621105322E+02  0.12553974373E+03  0.12500070867E+03 0.  0.
    9000005    1    3    3    0    0 -0.49487464790E+02  0.17797615133E+02  0.39713046622E+02  0.65908196363E+02  0.10000000000E+01 0.  0.
    9000005    1    3    3    0    0  0.49487464790E+02 -0.17797615133E+02 -0.28091941300E+02  0.59631547370E+02  0.10000000000E+01 0.  0.
<mgrwt>
<rscale>  0 0.12500071E+03</rscale>
<asrwt>0</asrwt>
<pdfrwt beam="1">  1        4 0.10550834E-01 0.12500071E+03</pdfrwt>
<pdfrwt beam="2">  1       -4 0.87629722E-02 0.12500071E+03</pdfrwt>
<totfact> 0.10440909E+04</totfact>
</mgrwt>
</event>
<event>
 5    1  0.3294152E-002  0.1249993E+03  0.7818608E-02  0.1235070E+00
         -4   -1    0    0    0  501 -0.00000000000E+00  0.00000000000E+00  0.18863659035E+03  0.18864086545E+03  0.12700000000E+01 0.  1.
          4   -1    0    0  501    0  0.00000000000E+00 -0.00000000000E+00 -0.20683577993E+02  0.20722531182E+02  0.12700000000E+01 0.  1.
         25    2    1    2    0    0  0.00000000000E+00  0.00000000000E+00  0.16795301236E+03  0.20936339663E+03  0.12499926996E+03 0.  0.
    9000005    1    3    3    0    0 -0.45419978878E+02  0.41949762351E+02  0.68768174442E+02  0.92481451430E+02  0.10000000000E+01 0.  0.
    9000005    1    3    3    0    0  0.45419978878E+02 -0.41949762351E+02  0.99184837915E+02  0.11688194520E+03  0.10000000000E+01 0.  0.
<mgrwt>
<rscale>  0 0.12499927E+03</rscale>
<asrwt>0</asrwt>
<pdfrwt beam="2">  1        4 0.31854141E-02 0.12499927E+03</pdfrwt>
<pdfrwt beam="1">  1       -4 0.29024340E-01 0.12499927E+03</pdfrwt>
<totfact> 0.88581396E+03</totfact>
</mgrwt>
</event>
<event>
 5    1  0.3294152E-002  0.1250033E+03  0.7818608E-02  0.1235064E+00
         -4   -1    0    0    0  501 -0.00000000000E+00  0.00000000000E+00  0.85980454585E+01  0.86913339429E+01  0.12700000000E+01 0.  1.
          4   -1    0    0  501    0  0.00000000000E+00 -0.00000000000E+00 -0.45179658436E+03  0.45179836934E+03  0.12700000000E+01 0.  1.
         25    2    1    2    0    0  0.00000000000E+00  0.00000000000E+00 -0.44319853890E+03  0.46048970329E+03  0.12500328774E+03 0.  0.
    9000005    1    3    3    0    0  0.50518195735E+02  0.16145366678E+02 -0.99827148395E+02  0.11304521450E+03  0.10000000000E+01 0.  0.
    9000005    1    3    3    0    0 -0.50518195735E+02 -0.16145366678E+02 -0.34337139051E+03  0.34744448878E+03  0.10000000000E+01 0.  0.
<mgrwt>
<rscale>  0 0.12500329E+03</rscale>
<asrwt>0</asrwt>
<pdfrwt beam="2">  1        4 0.69514462E-01 0.12500329E+03</pdfrwt>
<pdfrwt beam="1">  1       -4 0.13300899E-02 0.12500329E+03</pdfrwt>
<totfact> 0.59061456E+03</totfact>
</mgrwt>
</event>
<event>
 5    1  0.3294152E-002  0.1250259E+03  0.7818608E-02  0.1235029E+00
         -4   -1    0    0    0  501 -0.00000000000E+00  0.00000000000E+00  0.10298900414E+02  0.10376909450E+02  0.12700000000E+01 0. -1.
          4   -1    0    0  501    0  0.00000000000E+00 -0.00000000000E+00 -0.37793467267E+03  0.37793680650E+03  0.12700000000E+01 0. -1.
         25    2    1    2    0    0  0.00000000000E+00  0.00000000000E+00 -0.36763577225E+03  0.38831371595E+03  0.12502592112E+03 0.  0.
    9000005    1    3    3    0    0  0.40593970037E+02  0.30098510893E+02 -0.29806475895E+03  0.30232001471E+03  0.10000000000E+01 0.  0.
    9000005    1    3    3    0    0 -0.40593970037E+02 -0.30098510893E+02 -0.69571013300E+02  0.85993701240E+02  0.10000000000E+01 0.  0.
<mgrwt>
<rscale>  0 0.12502592E+03</rscale>
<asrwt>0</asrwt>
<pdfrwt beam="2">  1        4 0.58149950E-01 0.12502592E+03</pdfrwt>
<pdfrwt beam="1">  1       -4 0.15906113E-02 0.12502592E+03</pdfrwt>
<totfact> 0.65667876E+03</totfact>
</mgrwt>
</event>
<event>
 5    1  0.3294152E-002  0.1250000E+03  0.7818608E-02  0.1235069E+00
         -4   -1    0    0    0  501 -0.00000000000E+00  0.00000000000E+00  0.46105192594E+03  0.46105367508E+03  0.12700000000E+01 0. -1.
          4   -1    0    0  501    0  0.00000000000E+00 -0.00000000000E+00 -0.84231082253E+01  0.85183127540E+01  0.12700000000E+01 0. -1.
         25    2    1    2    0    0  0.00000000000E+00  0.00000000000E+00  0.45262881771E+03  0.46957198784E+03  0.12500002056E+03 0.  0.
    9000005    1    3    3    0    0  0.12944439891E+02  0.41514068934E+02  0.39491203718E+03  0.39730025617E+03  0.10000000000E+01 0.  0.
    9000005    1    3    3    0    0 -0.12944439891E+02 -0.41514068934E+02  0.57716780533E+02  0.72271731671E+02  0.10000000000E+01 0.  0.
<mgrwt>
<rscale>  0 0.12500002E+03</rscale>
<asrwt>0</asrwt>
<pdfrwt beam="2">  1        4 0.13033207E-02 0.12500002E+03</pdfrwt>
<pdfrwt beam="1">  1       -4 0.70938528E-01 0.12500002E+03</pdfrwt>
<totfact> 0.58304963E+03</totfact>
</mgrwt>
</event>
<event>
 5    1  0.3294152E-002  0.1250001E+03  0.7818608E-02  0.1235069E+00
          4   -1    0    0  501    0  0.00000000000E+00  0.00000000000E+00  0.11946035003E+03  0.11946710061E+03  0.12700000000E+01 0. -1.
         -4   -1    0    0    0  501 -0.00000000000E+00 -0.00000000000E+00 -0.32679169107E+02  0.32703837596E+02  0.12700000000E+01 0. -1.
         25    2    1    2    0    0  0.00000000000E+00  0.00000000000E+00  0.86781180920E+02  0.15217093821E+03  0.12500008429E+03 0.  0.
    9000005    1    3    3    0    0  0.13092072564E+02 -0.13350023783E+02  0.11598107231E+03  0.11748291209E+03  0.10000000000E+01 0.  0.
    9000005    1    3    3    0    0 -0.13092072564E+02  0.13350023783E+02 -0.29199891388E+02  0.34688026120E+02  0.10000000000E+01 0.  0.
<mgrwt>
<rscale>  0 0.12500008E+03</rscale>
<asrwt>0</asrwt>
<pdfrwt beam="1">  1        4 0.18380932E-01 0.12500008E+03</pdfrwt>
<pdfrwt beam="2">  1       -4 0.50299813E-02 0.12500008E+03</pdfrwt>
<totfact> 0.98872514E+03</totfact>
</mgrwt>
</event>
<event>
 5    1  0.3294152E-002  0.1250018E+03  0.7818608E-02  0.1235067E+00
          4   -1    0    0  501    0  0.00000000000E+00  0.00000000000E+00  0.17002448874E+02  0.17049814302E+02  0.12700000000E+01 0.  1.
         -4   -1    0    0    0  501 -0.00000000000E+00 -0.00000000000E+00 -0.22938406352E+03  0.22938757921E+03  0.12700000000E+01 0.  1.
         25    2    1    2    0    0  0.00000000000E+00  0.00000000000E+00 -0.21238161465E+03  0.24643739351E+03  0.12500175472E+03 0.  0.
    9000005    1    3    3    0    0  0.16653028952E+02 -0.45858669576E+02 -0.18317970208E+03  0.18956831012E+03  0.10000000000E+01 0.  0.
    9000005    1    3    3    0    0 -0.16653028952E+02  0.45858669576E+02 -0.29201912571E+02  0.56869083397E+02  0.10000000000E+01 0.  0.
<mgrwt>
<rscale>  0 0.12500175E+03</rscale>
<asrwt>0</asrwt>
<pdfrwt beam="1">  1        4 0.26196755E-02 0.12500175E+03</pdfrwt>
<pdfrwt beam="2">  1       -4 0.35293768E-01 0.12500175E+03</pdfrwt>
<totfact> 0.82844639E+03</totfact>
</mgrwt>
</event>
<event>
 5    1  0.3294152E-002  0.1249732E+03  0.7818608E-02  0.1235111E+00
          4   -1    0    0  501    0  0.00000000000E+00  0.00000000000E+00  0.32945575471E+01  0.35308652525E+01  0.12700000000E+01 0.  1.
         -4   -1    0    0    0  501 -0.00000000000E+00 -0.00000000000E+00 -0.11438901960E+04  0.11438909010E+04  0.12700000000E+01 0.  1.
         25    2    1    2    0    0  0.00000000000E+00  0.00000000000E+00 -0.11405956385E+04  0.11474217663E+04  0.12497319403E+03 0.  0.
    9000005    1    3    3    0    0  0.26190943866E+02 -0.38510292846E+02 -0.95268357473E+03  0.95382178721E+03  0.10000000000E+01 0.  0.
    9000005    1    3    3    0    0 -0.26190943866E+02  0.38510292846E+02 -0.18791206376E+03  0.19359997909E+03  0.10000000000E+01 0.  0.
<mgrwt>
<rscale>  0 0.12497319E+03</rscale>
<asrwt>0</asrwt>
<pdfrwt beam="1">  1        4 0.52508767E-03 0.12497319E+03</pdfrwt>
<pdfrwt beam="2">  1       -4 0.17600103E+00 0.12497319E+03</pdfrwt>
<totfact> 0.26147216E+03</totfact>
</mgrwt>
</event>
<event>
 5    1  0.3294152E-002  0.1250070E+03  0.7818608E-02  0.1235058E+00
         -4   -1    0    0    0  501 -0.00000000000E+00  0.00000000000E+00  0.80619666756E+02  0.80629669278E+02  0.12700000000E+01 0.  1.
          4   -1    0    0  501    0  0.00000000000E+00 -0.00000000000E+00 -0.48436873859E+02  0.48453520504E+02  0.12700000000E+01 0.  1.
         25    2    1    2    0    0  0.00000000000E+00  0.00000000000E+00  0.32182792897E+02  0.12908318978E+03  0.12500695071E+03 0.  0.
    9000005    1    3    3    0    0 -0.45918658848E+02 -0.40874568311E+02  0.27702194842E+02  0.67436378640E+02  0.10000000000E+01 0.  0.
    9000005    1    3    3    0    0  0.45918658848E+02  0.40874568311E+02  0.44805980557E+01  0.61646811142E+02  0.10000000000E+01 0.  0.
<mgrwt>
<rscale>  0 0.12500695E+03</rscale>
<asrwt>0</asrwt>
<pdfrwt beam="2">  1        4 0.74538768E-02 0.12500695E+03</pdfrwt>
<pdfrwt beam="1">  1       -4 0.12405075E-01 0.12500695E+03</pdfrwt>
<totfact> 0.10362533E+04</totfact>
</mgrwt>
</event>
<event>
 5    1  0.3294152E-002  0.1249984E+03  0.7818608E-02  0.1235072E+00
         -4   -1    0    0    0  501 -0.00000000000E+00  0.00000000000E+00  0.70627753249E+02  0.70639170642E+02  0.12700000000E+01 0.  1.
          4   -1    0    0  501    0  0.00000000000E+00 -0.00000000000E+00 -0.55282945962E+02  0.55297531719E+02  0.12700000000E+01 0.  1.
         25    2    1    2    0    0  0.00000000000E+00  0.00000000000E+00  0.15344807287E+02  0.12593670236E+03  0.12499835955E+03 0.  0.
    9000005    1    3    3    0    0 -0.11048354918E+01  0.44479676121E+02  0.51882157686E+02  0.68355106140E+02  0.10000000000E+01 0.  0.
    9000005    1    3    3    0    0  0.11048354918E+01 -0.44479676121E+02 -0.36537350399E+02  0.57581596222E+02  0.10000000000E+01 0.  0.
<mgrwt>
<rscale>  0 0.12499836E+03</rscale>
<asrwt>0</asrwt>
<pdfrwt beam="2">  1        4 0.85070689E-02 0.12499836E+03</pdfrwt>
<pdfrwt beam="1">  1       -4 0.10867808E-01 0.12499836E+03</pdfrwt>
<totfact> 0.10432731E+04</totfact>
</mgrwt>
</event>
<event>
 5    1  0.3294152E-002  0.1249983E+03  0.7818608E-02  0.1235072E+00
         -4   -1    0    0    0  501 -0.00000000000E+00  0.00000000000E+00  0.89185304289E+02  0.89194346240E+02  0.12700000000E+01 0. -1.
          4   -1    0    0  501    0  0.00000000000E+00 -0.00000000000E+00 -0.43777606305E+02  0.43796023949E+02  0.12700000000E+01 0. -1.
         25    2    1    2    0    0  0.00000000000E+00  0.00000000000E+00  0.45407697985E+02  0.13299037019E+03  0.12499831810E+03 0.  0.
    9000005    1    3    3    0    0 -0.15590136370E+02 -0.59609251527E+01 -0.41367438795E+02  0.44618941866E+02  0.10000000000E+01 0.  0.
    9000005    1    3    3    0    0  0.15590136370E+02  0.59609251527E+01  0.86775136780E+02  0.88371428323E+02  0.10000000000E+01 0.  0.
<mgrwt>
<rscale>  0 0.12499832E+03</rscale>
<asrwt>0</asrwt>
<pdfrwt beam="2">  1        4 0.67371287E-02 0.12499832E+03</pdfrwt>
<pdfrwt beam="1">  1       -4 0.13722928E-01 0.12499832E+03</pdfrwt>
<totfact> 0.10280995E+04</totfact>
</mgrwt>
</event>
<event>
 5    1  0.3294152E-002  0.1249985E+03  0.7818608E-02  0.1235072E+00
         -4   -1    0    0    0  501 -0.00000000000E+00  0.00000000000E+00  0.13583670054E+03  0.13584263732E+03  0.12700000000E+01 0.  1.
          4   -1    0    0  501    0  0.00000000000E+00 -0.00000000000E+00 -0.28735688518E+02  0.28763739232E+02  0.12700000000E+01 0.  1.
         25    2    1    2    0    0  0.00000000000E+00  0.00000000000E+00  0.10710101202E+03  0.16460637655E+03  0.12499852969E+03 0.  0.
    9000005    1    3    3    0    0 -0.57741116857E+02  0.14386034991E+02  0.78680360511E+02  0.98653908736E+02  0.10000000000E+01 0.  0.
    9000005    1    3    3    0    0  0.57741116857E+02 -0.14386034991E+02  0.28420651511E+02  0.65952467816E+02  0.10000000000E+01 0.  0.
<mgrwt>
<rscale>  0 0.12499853E+03</rscale>
<asrwt>0</asrwt>
<pdfrwt beam="2">  1        4 0.44234895E-02 0.12499853E+03</pdfrwt>
<pdfrwt beam="1">  1       -4 0.20900569E-01 0.12499853E+03</pdfrwt>
<totfact> 0.96465176E+03</totfact>
</mgrwt>
</event>
<event>
 5    1  0.3294152E-002  0.1250002E+03  0.7818608E-02  0.1235069E+00
          4   -1    0    0  501    0  0.00000000000E+00  0.00000000000E+00  0.22930137900E+03  0.22930489596E+03  0.12700000000E+01 0.  1.
         -4   -1    0    0    0  501 -0.00000000000E+00 -0.00000000000E+00 -0.17008177566E+02  0.17055527085E+02  0.12700000000E+01 0.  1.
         25    2    1    2    0    0  0.00000000000E+00  0.00000000000E+00  0.21229320143E+03  0.24636042304E+03  0.12500021867E+03 0.  0.
    9000005    1    3    3    0    0 -0.45103525332E+02 -0.14985898804E+01  0.20948720894E+02  0.49763668234E+02  0.10000000000E+01 0.  0.
    9000005    1    3    3    0    0  0.45103525332E+02  0.14985898804E+01  0.19134448054E+03  0.19659675481E+03  0.10000000000E+01 0.  0.
<mgrwt>
<rscale>  0 0.12500022E+03</rscale>
<asrwt>0</asrwt>
<pdfrwt beam="1">  1        4 0.35281045E-01 0.12500022E+03</pdfrwt>
<pdfrwt beam="2">  1       -4 0.26205557E-02 0.12500022E+03</pdfrwt>
<totfact> 0.82858719E+03</totfact>
</mgrwt>
</event>
<event>
 5    1  0.3294152E-002  0.1250012E+03  0.7818608E-02  0.1235067E+00
          4   -1    0    0  501    0  0.00000000000E+00  0.00000000000E+00  0.21047163098E+03  0.21047546258E+03  0.12700000000E+01 0.  1.
         -4   -1    0    0    0  501 -0.00000000000E+00 -0.00000000000E+00 -0.18534135097E+02  0.18577595748E+02  0.12700000000E+01 0.  1.
         25    2    1    2    0    0  0.00000000000E+00  0.00000000000E+00  0.19193749588E+03  0.22905305833E+03  0.12500120480E+03 0.  0.
    9000005    1    3    3    0    0 -0.51276701002E+02  0.33124046257E+02  0.71464953835E+02  0.93993308979E+02  0.10000000000E+01 0.  0.
    9000005    1    3    3    0    0  0.51276701002E+02 -0.33124046257E+02  0.12047254205E+03  0.13505974935E+03  0.10000000000E+01 0.  0.
<mgrwt>
<rscale>  0 0.12500120E+03</rscale>
<asrwt>0</asrwt>
<pdfrwt beam="1">  1        4 0.32383888E-01 0.12500120E+03</pdfrwt>
<pdfrwt beam="2">  1       -4 0.28550433E-02 0.12500120E+03</pdfrwt>
<totfact> 0.85452916E+03</totfact>
</mgrwt>
</event>
<event>
 5    1  0.3294152E-002  0.1249976E+03  0.7818608E-02  0.1235073E+00
          4   -1    0    0  501    0  0.00000000000E+00  0.00000000000E+00  0.12887609763E+03  0.12888235504E+03  0.12700000000E+01 0.  1.
         -4   -1    0    0    0  501 -0.00000000000E+00 -0.00000000000E+00 -0.30288676838E+02  0.30315290607E+02  0.12700000000E+01 0.  1.
         25    2    1    2    0    0  0.00000000000E+00  0.00000000000E+00  0.98587420797E+02  0.15919764565E+03  0.12499764334E+03 0.  0.
    9000005    1    3    3    0    0 -0.26166551573E+02  0.27103506999E+02  0.11279304110E+03  0.11892249002E+03  0.10000000000E+01 0.  0.
    9000005    1    3    3    0    0  0.26166551573E+02 -0.27103506999E+02 -0.14205620300E+02  0.40275155630E+02  0.10000000000E+01 0.  0.
<mgrwt>
<rscale>  0 0.12499764E+03</rscale>
<asrwt>0</asrwt>
<pdfrwt beam="1">  1        4 0.19829620E-01 0.12499764E+03</pdfrwt>
<pdfrwt beam="2">  1       -4 0.46623250E-02 0.12499764E+03</pdfrwt>
<totfact> 0.97502861E+03</totfact>
</mgrwt>
</event>
<event>
 5    1  0.3294152E-002  0.1249986E+03  0.7818608E-02  0.1235071E+00
          4   -1    0    0  501    0  0.00000000000E+00  0.00000000000E+00  0.75365563983E+01  0.76428124630E+01  0.12700000000E+01 0. -1.
         -4   -1    0    0    0  501 -0.00000000000E+00 -0.00000000000E+00 -0.51456061568E+03  0.51456218294E+03  0.12700000000E+01 0. -1.
         25    2    1    2    0    0  0.00000000000E+00  0.00000000000E+00 -0.50702405929E+03  0.52220499540E+03  0.12499864211E+03 0.  0.
    9000005    1    3    3    0    0  0.44304515136E+02  0.41701366855E+02 -0.31307461184E+03  0.31893354580E+03  0.10000000000E+01 0.  0.
    9000005    1    3    3    0    0 -0.44304515136E+02 -0.41701366855E+02 -0.19394944745E+03  0.20327144960E+03  0.10000000000E+01 0.  0.
<mgrwt>
<rscale>  0 0.12499864E+03</rscale>
<asrwt>0</asrwt>
<pdfrwt beam="1">  1        4 0.11677647E-02 0.12499864E+03</pdfrwt>
<pdfrwt beam="2">  1       -4 0.79171438E-01 0.12499864E+03</pdfrwt>
<totfact> 0.54183401E+03</totfact>
</mgrwt>
</event>
<event>
 5    1  0.3294152E-002  0.1250047E+03  0.7818608E-02  0.1235062E+00
         -4   -1    0    0    0  501 -0.00000000000E+00  0.00000000000E+00  0.12182335924E+02  0.12248355341E+02  0.12700000000E+01 0.  1.
          4   -1    0    0  501    0  0.00000000000E+00 -0.00000000000E+00 -0.31973904900E+03  0.31974157120E+03  0.12700000000E+01 0.  1.
         25    2    1    2    0    0  0.00000000000E+00  0.00000000000E+00 -0.30755671307E+03  0.33198992654E+03  0.12500471818E+03 0.  0.
    9000005    1    3    3    0    0 -0.30857852802E+02 -0.51171844899E+02 -0.20237187208E+03  0.21101217832E+03  0.10000000000E+01 0.  0.
    9000005    1    3    3    0    0  0.30857852802E+02  0.51171844899E+02 -0.10518484099E+03  0.12097774822E+03  0.10000000000E+01 0.  0.
<mgrwt>
<rscale>  0 0.12500472E+03</rscale>
<asrwt>0</asrwt>
<pdfrwt beam="2">  1        4 0.49195889E-01 0.12500472E+03</pdfrwt>
<pdfrwt beam="1">  1       -4 0.18794782E-02 0.12500472E+03</pdfrwt>
<totfact> 0.71744919E+03</totfact>
</mgrwt>
</event>
<event>
 5    1  0.3294152E-002  0.1249988E+03  0.7818608E-02  0.1235071E+00
         -4   -1    0    0    0  501 -0.00000000000E+00  0.00000000000E+00  0.15538945079E+03  0.15539464057E+03  0.12700000000E+01 0.  1.
          4   -1    0    0  501    0  0.00000000000E+00 -0.00000000000E+00 -0.25116295415E+02  0.25148383554E+02  0.12700000000E+01 0.  1.
         25    2    1    2    0    0  0.00000000000E+00  0.00000000000E+00  0.13027315538E+03  0.18054302412E+03  0.12499875418E+03 0.  0.
    9000005    1    3    3    0    0 -0.54245229063E+02 -0.10755245702E+01  0.10992265358E+03  0.12258748468E+03  0.10000000000E+01 0.  0.
    9000005    1    3    3    0    0  0.54245229063E+02  0.10755245702E+01  0.20350501798E+02  0.57955539447E+02  0.10000000000E+01 0.  0.
<mgrwt>
<rscale>  0 0.12499875E+03</rscale>
<asrwt>0</asrwt>
<pdfrwt beam="2">  1        4 0.38669130E-02 0.12499875E+03</pdfrwt>
<pdfrwt beam="1">  1       -4 0.23908937E-01 0.12499875E+03</pdfrwt>
<totfact> 0.93521961E+03</totfact>
</mgrwt>
</event>
<event>
 5    1  0.3294152E-002  0.1250017E+03  0.7818608E-02  0.1235067E+00
         -4   -1    0    0    0  501 -0.00000000000E+00  0.00000000000E+00  0.13789150111E+03  0.13789734942E+03  0.12700000000E+01 0. -1.
          4   -1    0    0  501    0  0.00000000000E+00 -0.00000000000E+00 -0.28308533528E+02  0.28337007084E+02  0.12700000000E+01 0. -1.
         25    2    1    2    0    0  0.00000000000E+00  0.00000000000E+00  0.10958296758E+03  0.16623435650E+03  0.12500173799E+03 0.  0.
    9000005    1    3    3    0    0 -0.28849315869E+02 -0.51442780428E+02  0.82262464797E+02  0.10122626042E+03  0.10000000000E+01 0.  0.
    9000005    1    3    3    0    0  0.28849315869E+02  0.51442780428E+02  0.27320502781E+02  0.65008096084E+02  0.10000000000E+01 0.  0.
<mgrwt>
<rscale>  0 0.12500174E+03</rscale>
<asrwt>0</asrwt>
<pdfrwt beam="2">  1        4 0.43577992E-02 0.12500174E+03</pdfrwt>
<pdfrwt beam="1">  1       -4 0.21216717E-01 0.12500174E+03</pdfrwt>
<totfact> 0.96150381E+03</totfact>
</mgrwt>
</event>
<event>
 5    1  0.3294152E-002  0.1249996E+03  0.7818608E-02  0.1235070E+00
         -4   -1    0    0    0  501 -0.00000000000E+00  0.00000000000E+00  0.12560553715E+02  0.12624595425E+02  0.12700000000E+01 0.  1.
          4   -1    0    0  501    0  0.00000000000E+00 -0.00000000000E+00 -0.31013556595E+03  0.31013816626E+03  0.12700000000E+01 0.  1.
         25    2    1    2    0    0  0.00000000000E+00  0.00000000000E+00 -0.29757501224E+03  0.32276276168E+03  0.12499964968E+03 0.  0.
    9000005    1    3    3    0    0 -0.26339607537E+02  0.12979610692E+02 -0.29122501902E+03  0.29270335995E+03  0.10000000000E+01 0.  0.
    9000005    1    3    3    0    0  0.26339607537E+02 -0.12979610692E+02 -0.63499932165E+01  0.30059401737E+02  0.10000000000E+01 0.  0.
<mgrwt>
<rscale>  0 0.12499965E+03</rscale>
<asrwt>0</asrwt>
<pdfrwt beam="2">  1        4 0.47718285E-01 0.12499965E+03</pdfrwt>
<pdfrwt beam="1">  1       -4 0.19375194E-02 0.12499965E+03</pdfrwt>
<totfact> 0.72829300E+03</totfact>
</mgrwt>
</event>
<event>
 5    1  0.3294152E-002  0.1249493E+03  0.7818608E-02  0.1235149E+00
          4   -1    0    0  501    0  0.00000000000E+00  0.00000000000E+00  0.12953309510E+03  0.12953932077E+03  0.12700000000E+01 0.  1.
         -4   -1    0    0    0  501 -0.00000000000E+00 -0.00000000000E+00 -0.30111579575E+02  0.30138349731E+02  0.12700000000E+01 0.  1.
         25    2    1    2    0    0  0.00000000000E+00  0.00000000000E+00  0.99421515527E+02  0.15967767050E+03  0.12494927254E+03 0.  0.
    9000005    1    3    3    0    0  0.24170050410E+02  0.57563690846E+02  0.52363933642E+02  0.81490805537E+02  0.10000000000E+01 0.  0.
    9000005    1    3    3    0    0 -0.24170050410E+02 -0.57563690846E+02  0.47057581885E+02  0.78186864968E+02  0.10000000000E+01 0.  0.
<mgrwt>
<rscale>  0 0.12494927E+03</rscale>
<asrwt>0</asrwt>
<pdfrwt beam="1">  1        4 0.19930706E-01 0.12494927E+03</pdfrwt>
<pdfrwt beam="2">  1       -4 0.46350890E-02 0.12494927E+03</pdfrwt>
<totfact> 0.97516114E+03</totfact>
</mgrwt>
</event>
<event>
 5    1  0.3294152E-002  0.1249556E+03  0.7818608E-02  0.1235139E+00
         -4   -1    0    0    0  501 -0.00000000000E+00  0.00000000000E+00  0.48061508075E+01  0.49711151249E+01  0.12700000000E+01 0. -1.
          4   -1    0    0  501    0  0.00000000000E+00 -0.00000000000E+00 -0.79831408055E+03  0.79831509074E+03  0.12700000000E+01 0. -1.
         25    2    1    2    0    0  0.00000000000E+00  0.00000000000E+00 -0.79350792974E+03  0.80328620587E+03  0.12495556798E+03 0.  0.
    9000005    1    3    3    0    0  0.22237856879E+02  0.57458675937E+02 -0.33042684386E+03  0.33612337149E+03  0.10000000000E+01 0.  0.
    9000005    1    3    3    0    0 -0.22237856879E+02 -0.57458675937E+02 -0.46308108588E+03  0.46716283438E+03  0.10000000000E+01 0.  0.
<mgrwt>
<rscale>  0 0.12495557E+03</rscale>
<asrwt>0</asrwt>
<pdfrwt beam="2">  1        4 0.12283021E+00 0.12495557E+03</pdfrwt>
<pdfrwt beam="1">  1       -4 0.75217572E-03 0.12495557E+03</pdfrwt>
<totfact> 0.38155493E+03</totfact>
</mgrwt>
</event>
<event>
 5    1  0.3294152E-002  0.1250025E+03  0.7818608E-02  0.1235065E+00
         -4   -1    0    0    0  501 -0.00000000000E+00  0.00000000000E+00  0.46017632447E+02  0.46035153915E+02  0.12700000000E+01 0.  1.
          4   -1    0    0  501    0  0.00000000000E+00 -0.00000000000E+00 -0.84850858794E+02  0.84860362585E+02  0.12700000000E+01 0.  1.
         25    2    1    2    0    0  0.00000000000E+00  0.00000000000E+00 -0.38833226348E+02  0.13089551650E+03  0.12500246706E+03 0.  0.
    9000005    1    3    3    0    0  0.19223532311E+02  0.15042555530E+02  0.40824463916E+02  0.47575829214E+02  0.10000000000E+01 0.  0.
    9000005    1    3    3    0    0 -0.19223532311E+02 -0.15042555530E+02 -0.79657690264E+02  0.83319687287E+02  0.10000000000E+01 0.  0.
<mgrwt>
<rscale>  0 0.12500247E+03</rscale>
<asrwt>0</asrwt>
<pdfrwt beam="2">  1        4 0.13056057E-01 0.12500247E+03</pdfrwt>
<pdfrwt beam="1">  1       -4 0.70817146E-02 0.12500247E+03</pdfrwt>
<totfact> 0.10324755E+04</totfact>
</mgrwt>
</event>
<event>
 5    1  0.3294152E-002  0.1249954E+03  0.7818608E-02  0.1235077E+00
         -4   -1    0    0    0  501 -0.00000000000E+00  0.00000000000E+00  0.11877831110E+03  0.11878510044E+03  0.12700000000E+01 0.  1.
          4   -1    0    0  501    0  0.00000000000E+00 -0.00000000000E+00 -0.32864458324E+02  0.32888987837E+02  0.12700000000E+01 0.  1.
         25    2    1    2    0    0  0.00000000000E+00  0.00000000000E+00  0.85913852772E+02  0.15167408828E+03  0.12499535574E+03 0.  0.
    9000005    1    3    3    0    0  0.27300891286E+02  0.44492269070E+02  0.12729261910E+01  0.52225673888E+02  0.10000000000E+01 0.  0.
    9000005    1    3    3    0    0 -0.27300891286E+02 -0.44492269070E+02  0.84640926581E+02  0.99448414389E+02  0.10000000000E+01 0.  0.
<mgrwt>
<rscale>  0 0.12499536E+03</rscale>
<asrwt>0</asrwt>
<pdfrwt beam="2">  1        4 0.50584796E-02 0.12499536E+03</pdfrwt>
<pdfrwt beam="1">  1       -4 0.18275996E-01 0.12499536E+03</pdfrwt>
<totfact> 0.98981378E+03</totfact>
</mgrwt>
</event>
<event>
 5    1  0.3294152E-002  0.1250018E+03  0.7818608E-02  0.1235067E+00
          4   -1    0    0  501    0  0.00000000000E+00  0.00000000000E+00  0.91993370276E+02  0.92002136251E+02  0.12700000000E+01 0.  1.
         -4   -1    0    0    0  501 -0.00000000000E+00 -0.00000000000E+00 -0.42443202531E+02  0.42462198966E+02  0.12700000000E+01 0.  1.
         25    2    1    2    0    0  0.00000000000E+00  0.00000000000E+00  0.49550167745E+02  0.13446433522E+03  0.12500175327E+03 0.  0.
    9000005    1    3    3    0    0 -0.59141279628E+02  0.91889848509E+00  0.46471820682E+02  0.75227424839E+02  0.10000000000E+01 0.  0.
    9000005    1    3    3    0    0  0.59141279628E+02 -0.91889848509E+00  0.30783470638E+01  0.59236910378E+02  0.10000000000E+01 0.  0.
<mgrwt>
<rscale>  0 0.12500175E+03</rscale>
<asrwt>0</asrwt>
<pdfrwt beam="1">  1        4 0.14154962E-01 0.12500175E+03</pdfrwt>
<pdfrwt beam="2">  1       -4 0.65318591E-02 0.12500175E+03</pdfrwt>
<totfact> 0.10248968E+04</totfact>
</mgrwt>
</event>
<event>
 5    1  0.3294152E-002  0.1249865E+03  0.7818608E-02  0.1235090E+00
         -4   -1    0    0    0  501 -0.00000000000E+00  0.00000000000E+00  0.18073839111E+04  0.18073843573E+04  0.12700000000E+01 0. -1.
          4   -1    0    0  501    0  0.00000000000E+00 -0.00000000000E+00 -0.19737138718E+01  0.23470079778E+01  0.12700000000E+01 0. -1.
         25    2    1    2    0    0  0.00000000000E+00  0.00000000000E+00  0.18054101973E+04  0.18097313653E+04  0.12498653610E+03 0.  0.
    9000005    1    3    3    0    0 -0.13945924842E+02 -0.60866822701E+02  0.93556291692E+03  0.93764504501E+03  0.10000000000E+01 0.  0.
    9000005    1    3    3    0    0  0.13945924842E+02  0.60866822701E+02  0.86984728035E+03  0.87208632031E+03  0.10000000000E+01 0.  0.
<mgrwt>
<rscale>  0 0.12498654E+03</rscale>
<asrwt>0</asrwt>
<pdfrwt beam="2">  1        4 0.33239791E-03 0.12498654E+03</pdfrwt>
<pdfrwt beam="1">  1       -4 0.27808750E+00 0.12498654E+03</pdfrwt>
<totfact> 0.12557903E+03</totfact>
</mgrwt>
</event>
<event>
 5    1  0.3294152E-002  0.1250005E+03  0.7818608E-02  0.1235068E+00
          4   -1    0    0  501    0  0.00000000000E+00  0.00000000000E+00  0.12609811045E+02  0.12673603852E+02  0.12700000000E+01 0.  1.
         -4   -1    0    0    0  501 -0.00000000000E+00 -0.00000000000E+00 -0.30893444721E+03  0.30893705762E+03  0.12700000000E+01 0.  1.
         25    2    1    2    0    0  0.00000000000E+00  0.00000000000E+00 -0.29632463617E+03  0.32161066148E+03  0.12500051030E+03 0.  0.
    9000005    1    3    3    0    0 -0.55785642533E+01  0.22660589727E+02  0.99030217102E+00  0.23379550986E+02  0.10000000000E+01 0.  0.
    9000005    1    3    3    0    0  0.55785642533E+01 -0.22660589727E+02 -0.29731493834E+03  0.29823111049E+03  0.10000000000E+01 0.  0.
<mgrwt>
<rscale>  0 0.12500051E+03</rscale>
<asrwt>0</asrwt>
<pdfrwt beam="1">  1        4 0.19450791E-02 0.12500051E+03</pdfrwt>
<pdfrwt beam="2">  1       -4 0.47533479E-01 0.12500051E+03</pdfrwt>
<totfact> 0.72964144E+03</totfact>
</mgrwt>
</event>
<event>
 5    1  0.3294152E-002  0.1249871E+03  0.7818608E-02  0.1235089E+00
          4   -1    0    0  501    0  0.00000000000E+00  0.00000000000E+00  0.71402745109E+02  0.71414038600E+02  0.12700000000E+01 0. -1.
         -4   -1    0    0    0  501 -0.00000000000E+00 -0.00000000000E+00 -0.54672982759E+02  0.54687731199E+02  0.12700000000E+01 0. -1.
         25    2    1    2    0    0  0.00000000000E+00  0.00000000000E+00  0.16729762351E+02  0.12610176980E+03  0.12498708493E+03 0.  0.
    9000005    1    3    3    0    0  0.42392070124E+01  0.36820809231E+02 -0.42389831504E+02  0.56317321345E+02  0.10000000000E+01 0.  0.
    9000005    1    3    3    0    0 -0.42392070124E+01 -0.36820809231E+02  0.59119593855E+02  0.69784448454E+02  0.10000000000E+01 0.  0.
<mgrwt>
<rscale>  0 0.12498708E+03</rscale>
<asrwt>0</asrwt>
<pdfrwt beam="1">  1        4 0.10987041E-01 0.12498708E+03</pdfrwt>
<pdfrwt beam="2">  1       -4 0.84132314E-02 0.12498708E+03</pdfrwt>
<totfact> 0.10431768E+04</totfact>
</mgrwt>
</event>
<event>
 5    1  0.3294152E-002  0.1250020E+03  0.7818608E-02  0.1235066E+00
          4   -1    0    0  501    0  0.00000000000E+00  0.00000000000E+00  0.98169349359E+02  0.98177563901E+02  0.12700000000E+01 0.  1.
         -4   -1    0    0    0  501 -0.00000000000E+00 -0.00000000000E+00 -0.39772171424E+02  0.39792442999E+02  0.12700000000E+01 0.  1.
         25    2    1    2    0    0  0.00000000000E+00  0.00000000000E+00  0.58397177934E+02  0.13797000690E+03  0.12500196964E+03 0.  0.
    9000005    1    3    3    0    0 -0.49029801930E+02  0.38533090605E+02  0.33702691410E+02  0.70891409615E+02  0.10000000000E+01 0.  0.
    9000005    1    3    3    0    0  0.49029801930E+02 -0.38533090605E+02  0.24694486524E+02  0.67078597284E+02  0.10000000000E+01 0.  0.
<mgrwt>
<rscale>  0 0.12500197E+03</rscale>
<asrwt>0</asrwt>
<pdfrwt beam="1">  1        4 0.15105168E-01 0.12500197E+03</pdfrwt>
<pdfrwt beam="2">  1       -4 0.61209869E-02 0.12500197E+03</pdfrwt>
<totfact> 0.10175381E+04</totfact>
</mgrwt>
</event>
<event>
 5    1  0.3294152E-002  0.1249985E+03  0.7818608E-02  0.1235072E+00
          4   -1    0    0  501    0  0.00000000000E+00  0.00000000000E+00  0.27196895038E+03  0.27197191559E+03  0.12700000000E+01 0.  1.
         -4   -1    0    0    0  501 -0.00000000000E+00 -0.00000000000E+00 -0.14331388449E+02  0.14387549996E+02  0.12700000000E+01 0.  1.
         25    2    1    2    0    0  0.00000000000E+00  0.00000000000E+00  0.25763756193E+03  0.28635946559E+03  0.12499852085E+03 0.  0.
    9000005    1    3    3    0    0  0.30987827889E+01  0.62254110938E+02  0.13905908332E+03  0.15239293107E+03  0.10000000000E+01 0.  0.
    9000005    1    3    3    0    0 -0.30987827889E+01 -0.62254110938E+02  0.11857847861E+03  0.13396653452E+03  0.10000000000E+01 0.  0.
<mgrwt>
<rscale>  0 0.12499852E+03</rscale>
<asrwt>0</asrwt>
<pdfrwt beam="1">  1        4 0.41845921E-01 0.12499852E+03</pdfrwt>
<pdfrwt beam="2">  1       -4 0.22093774E-02 0.12499852E+03</pdfrwt>
<totfact> 0.77344916E+03</totfact>
</mgrwt>
</event>
<event>
 5    1  0.3294152E-002  0.1249819E+03  0.7818608E-02  0.1235097E+00
         -4   -1    0    0    0  501 -0.00000000000E+00  0.00000000000E+00  0.60878082720E+02  0.60891328247E+02  0.12700000000E+01 0. -1.
          4   -1    0    0  501    0  0.00000000000E+00 -0.00000000000E+00 -0.64120082862E+02  0.64132658811E+02  0.12700000000E+01 0. -1.
         25    2    1    2    0    0  0.00000000000E+00  0.00000000000E+00 -0.32420001418E+01  0.12502398706E+03  0.12498194580E+03 0.  0.
    9000005    1    3    3    0    0 -0.36634426637E+02  0.19910198722E+02 -0.48172924311E+02  0.63719132643E+02  0.10000000000E+01 0.  0.
    9000005    1    3    3    0    0  0.36634426637E+02 -0.19910198722E+02  0.44930924169E+02  0.61304854415E+02  0.10000000000E+01 0.  0.
<mgrwt>
<rscale>  0 0.12498195E+03</rscale>
<asrwt>0</asrwt>
<pdfrwt beam="2">  1        4 0.98666144E-02 0.12498195E+03</pdfrwt>
<pdfrwt beam="1">  1       -4 0.93678452E-02 0.12498195E+03</pdfrwt>
<totfact> 0.10456608E+04</totfact>
</mgrwt>
</event>
<event>
 5    1  0.3294152E-002  0.1249997E+03  0.7818608E-02  0.1235070E+00
          4   -1    0    0  501    0  0.00000000000E+00  0.00000000000E+00  0.24401609206E+03  0.24401939694E+03  0.12700000000E+01 0.  1.
         -4   -1    0    0    0  501 -0.00000000000E+00 -0.00000000000E+00 -0.15979480092E+02  0.16029868496E+02  0.12700000000E+01 0.  1.
         25    2    1    2    0    0  0.00000000000E+00  0.00000000000E+00  0.22803661197E+03  0.26004926544E+03  0.12499969623E+03 0.  0.
    9000005    1    3    3    0    0 -0.33648928403E+02 -0.44693331738E+02  0.17195235187E+03  0.18082686636E+03  0.10000000000E+01 0.  0.
    9000005    1    3    3    0    0  0.33648928403E+02  0.44693331738E+02  0.56084260095E+02  0.79222399074E+02  0.10000000000E+01 0.  0.
<mgrwt>
<rscale>  0 0.12499970E+03</rscale>
<asrwt>0</asrwt>
<pdfrwt beam="1">  1        4 0.37545066E-01 0.12499970E+03</pdfrwt>
<pdfrwt beam="2">  1       -4 0.24625119E-02 0.12499970E+03</pdfrwt>
<totfact> 0.80899695E+03</totfact>
</mgrwt>
</event>
<event>
 5    1  0.3294152E-002  0.1250012E+03  0.7818608E-02  0.1235067E+00
          4   -1    0    0  501    0  0.00000000000E+00  0.00000000000E+00  0.93107113574E+02  0.93115774700E+02  0.12700000000E+01 0. -1.
         -4   -1    0    0    0  501 -0.00000000000E+00 -0.00000000000E+00 -0.41934968683E+02  0.41954195243E+02  0.12700000000E+01 0. -1.
         25    2    1    2    0    0  0.00000000000E+00  0.00000000000E+00  0.51172144890E+02  0.13506996994E+03  0.12500123346E+03 0.  0.
    9000005    1    3    3    0    0  0.14542954602E+02 -0.40305790768E+02 -0.23567306591E+02  0.48912904616E+02  0.10000000000E+01 0.  0.
    9000005    1    3    3    0    0 -0.14542954602E+02  0.40305790768E+02  0.74739451481E+02  0.86157065327E+02  0.10000000000E+01 0.  0.
<mgrwt>
<rscale>  0 0.12500123E+03</rscale>
<asrwt>0</asrwt>
<pdfrwt beam="1">  1        4 0.14326316E-01 0.12500123E+03</pdfrwt>
<pdfrwt beam="2">  1       -4 0.64536789E-02 0.12500123E+03</pdfrwt>
<totfact> 0.10236312E+04</totfact>
</mgrwt>
</event>
<event>
 5    1  0.3294152E-002  0.1249904E+03  0.7818608E-02  0.1235084E+00
          4   -1    0    0  501    0  0.00000000000E+00  0.00000000000E+00  0.85446282949E+01  0.86384936591E+01  0.12700000000E+01 0.  1.
         -4   -1    0    0    0  501 -0.00000000000E+00 -0.00000000000E+00 -0.45449674540E+03  0.45449851978E+03  0.12700000000E+01 0.  1.
         25    2    1    2    0    0  0.00000000000E+00  0.00000000000E+00 -0.44595211711E+03  0.46313701344E+03  0.12499040949E+03 0.  0.
    9000005    1    3    3    0    0 -0.36677713905E+02  0.49863411467E+02 -0.25464267292E+03  0.26206011786E+03  0.10000000000E+01 0.  0.
    9000005    1    3    3    0    0  0.36677713905E+02 -0.49863411467E+02 -0.19130944419E+03  0.20107689559E+03  0.10000000000E+01 0.  0.
<mgrwt>
<rscale>  0 0.12499041E+03</rscale>
<asrwt>0</asrwt>
<pdfrwt beam="1">  1        4 0.13219155E-02 0.12499041E+03</pdfrwt>
<pdfrwt beam="2">  1       -4 0.69929914E-01 0.12499041E+03</pdfrwt>
<totfact> 0.58854829E+03</totfact>
</mgrwt>
</event>
<event>
 5    1  0.3294152E-002  0.1249937E+03  0.7818608E-02  0.1235079E+00
          4   -1    0    0  501    0  0.00000000000E+00  0.00000000000E+00  0.17932703293E+02  0.17977617957E+02  0.12700000000E+01 0. -1.
         -4   -1    0    0    0  501 -0.00000000000E+00 -0.00000000000E+00 -0.21748699377E+03  0.21749070177E+03  0.12700000000E+01 0. -1.
         25    2    1    2    0    0  0.00000000000E+00  0.00000000000E+00 -0.19955429047E+03  0.23546831973E+03  0.12499365884E+03 0.  0.
    9000005    1    3    3    0    0 -0.12159654391E+02 -0.20840663551E+02 -0.20836660357E+03  0.20976136903E+03  0.10000000000E+01 0.  0.
    9000005    1    3    3    0    0  0.12159654391E+02  0.20840663551E+02  0.88123131000E+01  0.25706950701E+02  0.10000000000E+01 0.  0.
<mgrwt>
<rscale>  0 0.12499366E+03</rscale>
<asrwt>0</asrwt>
<pdfrwt beam="1">  1        4 0.27626178E-02 0.12499366E+03</pdfrwt>
<pdfrwt beam="2">  1       -4 0.33463276E-01 0.12499366E+03</pdfrwt>
<totfact> 0.84488892E+03</totfact>
</mgrwt>
</event>
<event>
 5    1  0.3294152E-002  0.1250068E+03  0.7818608E-02  0.1235059E+00
         -4   -1    0    0    0  501 -0.00000000000E+00  0.00000000000E+00  0.12883522269E+02  0.12945966401E+02  0.12700000000E+01 0.  1.
          4   -1    0    0  501    0  0.00000000000E+00 -0.00000000000E+00 -0.30243328932E+03  0.30243595585E+03  0.12700000000E+01 0.  1.
         25    2    1    2    0    0  0.00000000000E+00  0.00000000000E+00 -0.28954976705E+03  0.31538192225E+03  0.12500675695E+03 0.  0.
    9000005    1    3    3    0    0  0.59649175444E+02 -0.23937600855E+01 -0.19142624841E+03  0.20052122780E+03  0.10000000000E+01 0.  0.
    9000005    1    3    3    0    0 -0.59649175444E+02  0.23937600855E+01 -0.98123518642E+02  0.11486069445E+03  0.10000000000E+01 0.  0.
<mgrwt>
<rscale>  0 0.12500676E+03</rscale>
<asrwt>0</asrwt>
<pdfrwt beam="2">  1        4 0.46533201E-01 0.12500676E+03</pdfrwt>
<pdfrwt beam="1">  1       -4 0.19870891E-02 0.12500676E+03</pdfrwt>
<totfact> 0.73697732E+03</totfact>
</mgrwt>
</event>
<event>
 5    1  0.3294152E-002  0.1250012E+03  0.7818608E-02  0.1235067E+00
          4   -1    0    0  501    0  0.00000000000E+00  0.00000000000E+00  0.35899721943E+02  0.35922178881E+02  0.12700000000E+01 0. -1.
         -4   -1    0    0    0  501 -0.00000000000E+00 -0.00000000000E+00 -0.10875198829E+03  0.10875940353E+03  0.12700000000E+01 0. -1.
         25    2    1    2    0    0  0.00000000000E+00  0.00000000000E+00 -0.72852266347E+02  0.14468158241E+03  0.12500123031E+03 0.  0.
    9000005    1    3    3    0    0 -0.98026625769E+01 -0.58804523940E+02 -0.14733365819E+02  0.61417719738E+02  0.10000000000E+01 0.  0.
    9000005    1    3    3    0    0  0.98026625769E+01  0.58804523940E+02 -0.58118900528E+02  0.83263862677E+02  0.10000000000E+01 0.  0.
<mgrwt>
<rscale>  0 0.12500123E+03</rscale>
<asrwt>0</asrwt>
<pdfrwt beam="1">  1        4 0.55253321E-02 0.12500123E+03</pdfrwt>
<pdfrwt beam="2">  1       -4 0.16733373E-01 0.12500123E+03</pdfrwt>
<totfact> 0.10037184E+04</totfact>
</mgrwt>
</event>
<event>
 5    1  0.3294152E-002  0.1249971E+03  0.7818608E-02  0.1235074E+00
          4   -1    0    0  501    0  0.00000000000E+00  0.00000000000E+00  0.11476888227E+04  0.11476895253E+04  0.12700000000E+01 0. -1.
         -4   -1    0    0    0  501 -0.00000000000E+00 -0.00000000000E+00 -0.32842177480E+01  0.35212194218E+01  0.12700000000E+01 0. -1.
         25    2    1    2    0    0  0.00000000000E+00  0.00000000000E+00  0.11444046049E+04  0.11512107448E+04  0.12499711635E+03 0.  0.
    9000005    1    3    3    0    0 -0.74163926658E+01 -0.56480118269E+02  0.80882019330E+03  0.81082434086E+03  0.10000000000E+01 0.  0.
    9000005    1    3    3    0    0  0.74163926658E+01  0.56480118269E+02  0.33558441161E+03  0.34038640389E+03  0.10000000000E+01 0.  0.
<mgrwt>
<rscale>  0 0.12499712E+03</rscale>
<asrwt>0</asrwt>
<pdfrwt beam="1">  1        4 0.17658577E+00 0.12499712E+03</pdfrwt>
<pdfrwt beam="2">  1       -4 0.52354929E-03 0.12499712E+03</pdfrwt>
<totfact> 0.26028303E+03</totfact>
</mgrwt>
</event>
<event>
 5    1  0.3294152E-002  0.1250005E+03  0.7818608E-02  0.1235069E+00
         -4   -1    0    0    0  501 -0.00000000000E+00  0.00000000000E+00  0.40901154353E+02  0.40920866651E+02  0.12700000000E+01 0.  1.
          4   -1    0    0  501    0  0.00000000000E+00 -0.00000000000E+00 -0.95458389646E+02  0.95466837455E+02  0.12700000000E+01 0.  1.
         25    2    1    2    0    0  0.00000000000E+00  0.00000000000E+00 -0.54557235292E+02  0.13638770411E+03  0.12500045563E+03 0.  0.
    9000005    1    3    3    0    0 -0.27531945404E+02 -0.53275978131E+02 -0.46456520973E+02  0.75865316215E+02  0.10000000000E+01 0.  0.
    9000005    1    3    3    0    0  0.27531945404E+02  0.53275978131E+02 -0.81007143189E+01  0.60522387891E+02  0.10000000000E+01 0.  0.
<mgrwt>
<rscale>  0 0.12500046E+03</rscale>
<asrwt>0</asrwt>
<pdfrwt beam="2">  1        4 0.14688072E-01 0.12500046E+03</pdfrwt>
<pdfrwt beam="1">  1       -4 0.62946515E-02 0.12500046E+03</pdfrwt>
<totfact> 0.10208799E+04</totfact>
</mgrwt>
</event>
<event>
 5    1  0.3294152E-002  0.1249819E+03  0.7818608E-02  0.1235097E+00
          4   -1    0    0  501    0  0.00000000000E+00  0.00000000000E+00  0.98484510673E+01  0.99299994171E+01  0.12700000000E+01 0. -1.
         -4   -1    0    0    0  501 -0.00000000000E+00 -0.00000000000E+00 -0.39480396738E+03  0.39480601004E+03  0.12700000000E+01 0. -1.
         25    2    1    2    0    0  0.00000000000E+00  0.00000000000E+00 -0.38495551631E+03  0.40473600945E+03  0.12498194992E+03 0.  0.
    9000005    1    3    3    0    0 -0.42832562614E+02  0.44900198894E+02 -0.16879882891E+03  0.17984632585E+03  0.10000000000E+01 0.  0.
    9000005    1    3    3    0    0  0.42832562614E+02 -0.44900198894E+02 -0.21615668741E+03  0.22488968360E+03  0.10000000000E+01 0.  0.
<mgrwt>
<rscale>  0 0.12498195E+03</rscale>
<asrwt>0</asrwt>
<pdfrwt beam="1">  1        4 0.15215767E-02 0.12498195E+03</pdfrwt>
<pdfrwt beam="2">  1       -4 0.60745490E-01 0.12498195E+03</pdfrwt>
<totfact> 0.64120310E+03</totfact>
</mgrwt>
</event>
<event>
 5    1  0.3294152E-002  0.1249966E+03  0.7818608E-02  0.1235075E+00
         -4   -1    0    0    0  501 -0.00000000000E+00  0.00000000000E+00  0.10621544787E+02  0.10697201206E+02  0.12700000000E+01 0. -1.
          4   -1    0    0  501    0  0.00000000000E+00 -0.00000000000E+00 -0.36636493666E+03  0.36636713787E+03  0.12700000000E+01 0. -1.
         25    2    1    2    0    0  0.00000000000E+00  0.00000000000E+00 -0.35574339187E+03  0.37706433908E+03  0.12499661973E+03 0.  0.
    9000005    1    3    3    0    0 -0.74729082253E+01 -0.54693819142E+02 -0.89521954358E+02  0.10517812758E+03  0.10000000000E+01 0.  0.
    9000005    1    3    3    0    0  0.74729082253E+01  0.54693819142E+02 -0.26622143752E+03  0.27188621150E+03  0.10000000000E+01 0.  0.
<mgrwt>
<rscale>  0 0.12499662E+03</rscale>
<asrwt>0</asrwt>
<pdfrwt beam="2">  1        4 0.56369816E-01 0.12499662E+03</pdfrwt>
<pdfrwt beam="1">  1       -4 0.16400731E-02 0.12499662E+03</pdfrwt>
<totfact> 0.66851292E+03</totfact>
</mgrwt>
</event>
<event>
 5    1  0.3294152E-002  0.1249878E+03  0.7818608E-02  0.1235088E+00
          4   -1    0    0  501    0  0.00000000000E+00  0.00000000000E+00  0.61305952463E+02  0.61319105566E+02  0.12700000000E+01 0.  1.
         -4   -1    0    0    0  501 -0.00000000000E+00 -0.00000000000E+00 -0.63678497504E+02  0.63691160645E+02  0.12700000000E+01 0.  1.
         25    2    1    2    0    0  0.00000000000E+00  0.00000000000E+00 -0.23725450404E+01  0.12501026621E+03  0.12498775015E+03 0.  0.
    9000005    1    3    3    0    0 -0.53701046031E+02 -0.26167932670E+02  0.17145187262E+02  0.62157223967E+02  0.10000000000E+01 0.  0.
    9000005    1    3    3    0    0  0.53701046031E+02  0.26167932670E+02 -0.19517732303E+02  0.62853042244E+02  0.10000000000E+01 0.  0.
<mgrwt>
<rscale>  0 0.12498775E+03</rscale>
<asrwt>0</asrwt>
<pdfrwt beam="1">  1        4 0.94336709E-02 0.12498775E+03</pdfrwt>
<pdfrwt beam="2">  1       -4 0.97986778E-02 0.12498775E+03</pdfrwt>
<totfact> 0.10455534E+04</totfact>
</mgrwt>
</event>
<event>
 5    1  0.3294152E-002  0.1249989E+03  0.7818608E-02  0.1235071E+00
          4   -1    0    0  501    0  0.00000000000E+00  0.00000000000E+00  0.15555921426E+02  0.15607677323E+02  0.12700000000E+01 0. -1.
         -4   -1    0    0    0  501 -0.00000000000E+00 -0.00000000000E+00 -0.25063521229E+03  0.25063842990E+03  0.12700000000E+01 0. -1.
         25    2    1    2    0    0  0.00000000000E+00  0.00000000000E+00 -0.23507929087E+03  0.26624610722E+03  0.12499886646E+03 0.  0.
    9000005    1    3    3    0    0 -0.48690972659E+02 -0.38019607824E+02 -0.97459181934E+02  0.11539321272E+03  0.10000000000E+01 0.  0.
    9000005    1    3    3    0    0  0.48690972659E+02  0.38019607824E+02 -0.13762010893E+03  0.15085289450E+03  0.10000000000E+01 0.  0.
<mgrwt>
<rscale>  0 0.12499887E+03</rscale>
<asrwt>0</asrwt>
<pdfrwt beam="1">  1        4 0.23974476E-02 0.12499887E+03</pdfrwt>
<pdfrwt beam="2">  1       -4 0.38563489E-01 0.12499887E+03</pdfrwt>
<totfact> 0.80039442E+03</totfact>
</mgrwt>
</event>
<event>
 5    1  0.3294152E-002  0.1250035E+03  0.7818608E-02  0.1235064E+00
          4   -1    0    0  501    0  0.00000000000E+00  0.00000000000E+00  0.23284692942E+01  0.26522950918E+01  0.12700000000E+01 0.  1.
         -4   -1    0    0    0  501 -0.00000000000E+00 -0.00000000000E+00 -0.15682982767E+04  0.15682987910E+04  0.12700000000E+01 0.  1.
         25    2    1    2    0    0  0.00000000000E+00  0.00000000000E+00 -0.15659698075E+04  0.15709510861E+04  0.12500350769E+03 0.  0.
    9000005    1    3    3    0    0 -0.45974176744E+02  0.18165417091E+02 -0.12634851791E+04  0.12644522155E+04  0.10000000000E+01 0.  0.
    9000005    1    3    3    0    0  0.45974176744E+02 -0.18165417091E+02 -0.30248462832E+03  0.30649887059E+03  0.10000000000E+01 0.  0.
<mgrwt>
<rscale>  0 0.12500351E+03</rscale>
<asrwt>0</asrwt>
<pdfrwt beam="1">  1        4 0.38317653E-03 0.12500351E+03</pdfrwt>
<pdfrwt beam="2">  1       -4 0.24130082E+00 0.12500351E+03</pdfrwt>
<totfact> 0.16575946E+03</totfact>
</mgrwt>
</event>
<event>
 5    1  0.3294152E-002  0.1250000E+03  0.7818608E-02  0.1235069E+00
         -4   -1    0    0    0  501 -0.00000000000E+00  0.00000000000E+00  0.19015202190E+02  0.19057565802E+02  0.12700000000E+01 0. -1.
          4   -1    0    0  501    0  0.00000000000E+00 -0.00000000000E+00 -0.20515495119E+03  0.20515888208E+03  0.12700000000E+01 0. -1.
         25    2    1    2    0    0  0.00000000000E+00  0.00000000000E+00 -0.18613974900E+03  0.22421644789E+03  0.12500003738E+03 0.  0.
    9000005    1    3    3    0    0 -0.33156436655E+02  0.18247502555E+02 -0.18226957283E+03  0.18615992539E+03  0.10000000000E+01 0.  0.
    9000005    1    3    3    0    0  0.33156436655E+02 -0.18247502555E+02 -0.38701761734E+01  0.38056522500E+02  0.10000000000E+01 0.  0.
<mgrwt>
<rscale>  0 0.12500004E+03</rscale>
<asrwt>0</asrwt>
<pdfrwt beam="2">  1        4 0.31565860E-01 0.12500004E+03</pdfrwt>
<pdfrwt beam="1">  1       -4 0.29289770E-02 0.12500004E+03</pdfrwt>
<totfact> 0.86205447E+03</totfact>
</mgrwt>
</event>
<event>
 5    1  0.3294152E-002  0.1249994E+03  0.7818608E-02  0.1235070E+00
          4   -1    0    0  501    0  0.00000000000E+00  0.00000000000E+00  0.36736872525E+03  0.36737092045E+03  0.12700000000E+01 0. -1.
         -4   -1    0    0    0  501 -0.00000000000E+00 -0.00000000000E+00 -0.10592786098E+02  0.10668646462E+02  0.12700000000E+01 0. -1.
         25    2    1    2    0    0  0.00000000000E+00  0.00000000000E+00  0.35677593915E+03  0.37803956691E+03  0.12499937357E+03 0.  0.
    9000005    1    3    3    0    0  0.23746024904E+02  0.14608201769E+02  0.34753269526E+03  0.34865060954E+03  0.10000000000E+01 0.  0.
    9000005    1    3    3    0    0 -0.23746024904E+02 -0.14608201769E+02  0.92432438902E+01  0.29388957370E+02  0.10000000000E+01 0.  0.
<mgrwt>
<rscale>  0 0.12499937E+03</rscale>
<asrwt>0</asrwt>
<pdfrwt beam="1">  1        4 0.56524281E-01 0.12499937E+03</pdfrwt>
<pdfrwt beam="2">  1       -4 0.16356634E-02 0.12499937E+03</pdfrwt>
<totfact> 0.66747067E+03</totfact>
</mgrwt>
</event>
<event>
 5    1  0.3294152E-002  0.1249925E+03  0.7818608E-02  0.1235081E+00
         -4   -1    0    0    0  501 -0.00000000000E+00  0.00000000000E+00  0.56198129534E+03  0.56198273035E+03  0.12700000000E+01 0.  1.
          4   -1    0    0  501    0  0.00000000000E+00 -0.00000000000E+00 -0.68905494344E+01  0.70066091305E+01  0.12700000000E+01 0.  1.
         25    2    1    2    0    0  0.00000000000E+00  0.00000000000E+00  0.55509074591E+03  0.56898933948E+03  0.12499252879E+03 0.  0.
    9000005    1    3    3    0    0 -0.31508045664E+02  0.44409644116E+01  0.52236263738E+03  0.52333182976E+03  0.10000000000E+01 0.  0.
    9000005    1    3    3    0    0  0.31508045664E+02 -0.44409644116E+01  0.32728108524E+02  0.45657509722E+02  0.10000000000E+01 0.  0.
<mgrwt>
<rscale>  0 0.12499253E+03</rscale>
<asrwt>0</asrwt>
<pdfrwt beam="2">  1        4 0.10691227E-02 0.12499253E+03</pdfrwt>
<pdfrwt beam="1">  1       -4 0.86467686E-01 0.12499253E+03</pdfrwt>
<totfact> 0.50893835E+03</totfact>
</mgrwt>
</event>
<event>
 5    1  0.3294152E-002  0.1250006E+03  0.7818608E-02  0.1235068E+00
         -4   -1    0    0    0  501 -0.00000000000E+00  0.00000000000E+00  0.89703067800E+02  0.89712057566E+02  0.12700000000E+01 0. -1.
          4   -1    0    0  501    0  0.00000000000E+00 -0.00000000000E+00 -0.43526408115E+02  0.43544932006E+02  0.12700000000E+01 0. -1.
         25    2    1    2    0    0  0.00000000000E+00  0.00000000000E+00  0.46176659686E+02  0.13325698957E+03  0.12500056548E+03 0.  0.
    9000005    1    3    3    0    0  0.18409057126E+01 -0.59365187712E+02  0.43805707354E+02  0.73807550039E+02  0.10000000000E+01 0.  0.
    9000005    1    3    3    0    0 -0.18409057126E+01  0.59365187712E+02  0.23709523313E+01  0.59449439534E+02  0.10000000000E+01 0.  0.
<mgrwt>
<rscale>  0 0.12500057E+03</rscale>
<asrwt>0</asrwt>
<pdfrwt beam="2">  1        4 0.66984870E-02 0.12500057E+03</pdfrwt>
<pdfrwt beam="1">  1       -4 0.13802588E-01 0.12500057E+03</pdfrwt>
<totfact> 0.10274810E+04</totfact>
</mgrwt>
</event>
<event>
 5    1  0.3294152E-002  0.1249969E+03  0.7818608E-02  0.1235074E+00
          4   -1    0    0  501    0  0.00000000000E+00  0.00000000000E+00  0.36075357975E+03  0.36075581520E+03  0.12700000000E+01 0. -1.
         -4   -1    0    0    0  501 -0.00000000000E+00 -0.00000000000E+00 -0.10787971643E+02  0.10862468972E+02  0.12700000000E+01 0. -1.
         25    2    1    2    0    0  0.00000000000E+00  0.00000000000E+00  0.34996560811E+03  0.37161828417E+03  0.12499688906E+03 0.  0.
    9000005    1    3    3    0    0  0.48921864155E+00 -0.41252723823E+02  0.35439829108E+02  0.54396765022E+02  0.10000000000E+01 0.  0.
    9000005    1    3    3    0    0 -0.48921864155E+00  0.41252723823E+02  0.31452577900E+03  0.31722151915E+03  0.10000000000E+01 0.  0.
<mgrwt>
<rscale>  0 0.12499689E+03</rscale>
<asrwt>0</asrwt>
<pdfrwt beam="1">  1        4 0.55506442E-01 0.12499689E+03</pdfrwt>
<pdfrwt beam="2">  1       -4 0.16655908E-02 0.12499689E+03</pdfrwt>
<totfact> 0.67414615E+03</totfact>
</mgrwt>
</event>
<event>
 5    1  0.3294152E-002  0.1249961E+03  0.7818608E-02  0.1235075E+00
         -4   -1    0    0    0  501 -0.00000000000E+00  0.00000000000E+00  0.87764460820E+01  0.88678580182E+01  0.12700000000E+01 0. -1.
          4   -1    0    0  501    0  0.00000000000E+00 -0.00000000000E+00 -0.44265736072E+03  0.44265918255E+03  0.12700000000E+01 0. -1.
         25    2    1    2    0    0  0.00000000000E+00  0.00000000000E+00 -0.43388091464E+03  0.45152704057E+03  0.12499608106E+03 0.  0.
    9000005    1    3    3    0    0 -0.56951145024E+02 -0.21818556548E+02 -0.26614281829E+03  0.27304300404E+03  0.10000000000E+01 0.  0.
    9000005    1    3    3    0    0  0.56951145024E+02  0.21818556548E+02 -0.16773809634E+03  0.17848403653E+03  0.10000000000E+01 0.  0.
<mgrwt>
<rscale>  0 0.12499608E+03</rscale>
<asrwt>0</asrwt>
<pdfrwt beam="2">  1        4 0.68108287E-01 0.12499608E+03</pdfrwt>
<pdfrwt beam="1">  1       -4 0.13573946E-02 0.12499608E+03</pdfrwt>
<totfact> 0.59836908E+03</totfact>
</mgrwt>
</event>
<event>
 5    1  0.3294152E-002  0.1249982E+03  0.7818608E-02  0.1235072E+00
         -4   -1    0    0    0  501 -0.00000000000E+00  0.00000000000E+00  0.55669875907E+03  0.55670020770E+03  0.12700000000E+01 0.  1.
          4   -1    0    0  501    0  0.00000000000E+00 -0.00000000000E+00 -0.69576728222E+01  0.70726311300E+01  0.12700000000E+01 0.  1.
         25    2    1    2    0    0  0.00000000000E+00  0.00000000000E+00  0.54974108625E+03  0.56377283883E+03  0.12499820755E+03 0.  0.
    9000005    1    3    3    0    0 -0.85656731118E+01  0.59346266674E+02  0.35425446533E+03  0.35929455372E+03  0.10000000000E+01 0.  0.
    9000005    1    3    3    0    0  0.85656731118E+01 -0.59346266674E+02  0.19548662092E+03  0.20447828511E+03  0.10000000000E+01 0.  0.
<mgrwt>
<rscale>  0 0.12499821E+03</rscale>
<asrwt>0</asrwt>
<pdfrwt beam="2">  1        4 0.10793654E-02 0.12499821E+03</pdfrwt>
<pdfrwt beam="1">  1       -4 0.85654931E-01 0.12499821E+03</pdfrwt>
<totfact> 0.51239254E+03</totfact>
</mgrwt>
</event>
<event>
 5    1  0.3294152E-002  0.1249973E+03  0.7818608E-02  0.1235074E+00
         -4   -1    0    0    0  501 -0.00000000000E+00  0.00000000000E+00  0.60698432516E+02  0.60711717237E+02  0.12700000000E+01 0.  1.
          4   -1    0    0  501    0  0.00000000000E+00 -0.00000000000E+00 -0.64325641800E+02  0.64338177569E+02  0.12700000000E+01 0.  1.
         25    2    1    2    0    0  0.00000000000E+00  0.00000000000E+00 -0.36272092835E+01  0.12504989481E+03  0.12499727815E+03 0.  0.
    9000005    1    3    3    0    0  0.50849894895E+02  0.94884555825E+01 -0.36890270163E+02  0.63542384539E+02  0.10000000000E+01 0.  0.
    9000005    1    3    3    0    0 -0.50849894895E+02 -0.94884555825E+01  0.33263060880E+02  0.61507510267E+02  0.10000000000E+01 0.  0.
<mgrwt>
<rscale>  0 0.12499728E+03</rscale>
<asrwt>0</asrwt>
<pdfrwt beam="2">  1        4 0.98982388E-02 0.12499728E+03</pdfrwt>
<pdfrwt beam="1">  1       -4 0.93402066E-02 0.12499728E+03</pdfrwt>
<totfact> 0.10452422E+04</totfact>
</mgrwt>
</event>
<event>
 5    1  0.3294152E-002  0.1250028E+03  0.7818608E-02  0.1235065E+00
         -4   -1    0    0    0  501 -0.00000000000E+00  0.00000000000E+00  0.12428664812E+03  0.12429313658E+03  0.12700000000E+01 0. -1.
          4   -1    0    0  501    0  0.00000000000E+00 -0.00000000000E+00 -0.31410604838E+02  0.31436268804E+02  0.12700000000E+01 0. -1.
         25    2    1    2    0    0  0.00000000000E+00  0.00000000000E+00  0.92876043277E+02  0.15572940538E+03  0.12500275311E+03 0.  0.
    9000005    1    3    3    0    0 -0.28249299772E+01  0.43335117991E+02  0.10242331853E+03  0.11125398357E+03  0.10000000000E+01 0.  0.
    9000005    1    3    3    0    0  0.28249299772E+01 -0.43335117991E+02 -0.95472752527E+01  0.44475421813E+02  0.10000000000E+01 0.  0.
<mgrwt>
<rscale>  0 0.12500275E+03</rscale>
<asrwt>0</asrwt>
<pdfrwt beam="2">  1        4 0.48348740E-02 0.12500275E+03</pdfrwt>
<pdfrwt beam="1">  1       -4 0.19123496E-01 0.12500275E+03</pdfrwt>
<totfact> 0.98166420E+03</totfact>
</mgrwt>
</event>
<event>
 5    1  0.3294152E-002  0.1249982E+03  0.7818608E-02  0.1235072E+00
         -4   -1    0    0    0  501 -0.00000000000E+00  0.00000000000E+00  0.40286967673E+02  0.40306980342E+02  0.12700000000E+01 0.  1.
          4   -1    0    0  501    0  0.00000000000E+00 -0.00000000000E+00 -0.96909609549E+02  0.96917930864E+02  0.12700000000E+01 0.  1.
         25    2    1    2    0    0  0.00000000000E+00  0.00000000000E+00 -0.56622641876E+02  0.13722491121E+03  0.12499821072E+03 0.  0.
    9000005    1    3    3    0    0  0.34020137897E+02  0.21328236974E+02 -0.80879062950E+02  0.90303301704E+02  0.10000000000E+01 0.  0.
    9000005    1    3    3    0    0 -0.34020137897E+02 -0.21328236974E+02  0.24256421074E+02  0.46921609502E+02  0.10000000000E+01 0.  0.
<mgrwt>
<rscale>  0 0.12499821E+03</rscale>
<asrwt>0</asrwt>
<pdfrwt beam="2">  1        4 0.14911350E-01 0.12499821E+03</pdfrwt>
<pdfrwt beam="1">  1       -4 0.62001746E-02 0.12499821E+03</pdfrwt>
<totfact> 0.10191796E+04</totfact>
</mgrwt>
</event>
<event>
 5    1  0.3294152E-002  0.1250000E+03  0.7818608E-02  0.1235069E+00
          4   -1    0    0  501    0  0.00000000000E+00  0.00000000000E+00  0.40118978676E+02  0.40139075102E+02  0.12700000000E+01 0.  1.
         -4   -1    0    0    0  501 -0.00000000000E+00 -0.00000000000E+00 -0.97317984364E+02  0.97326270763E+02  0.12700000000E+01 0.  1.
         25    2    1    2    0    0  0.00000000000E+00  0.00000000000E+00 -0.57199005688E+02  0.13746534586E+03  0.12499998025E+03 0.  0.
    9000005    1    3    3    0    0  0.50151758688E+02  0.36433800396E+02 -0.19896527641E+02  0.65111385509E+02  0.10000000000E+01 0.  0.
    9000005    1    3    3    0    0 -0.50151758688E+02 -0.36433800396E+02 -0.37302478047E+02  0.72353960356E+02  0.10000000000E+01 0.  0.
<mgrwt>
<rscale>  0 0.12499998E+03</rscale>
<asrwt>0</asrwt>
<pdfrwt beam="1">  1        4 0.61743339E-02 0.12499998E+03</pdfrwt>
<pdfrwt beam="2">  1       -4 0.14974181E-01 0.12499998E+03</pdfrwt>
<totfact> 0.10186369E+04</totfact>
</mgrwt>
</event>
<event>
 5    1  0.3294152E-002  0.1249925E+03  0.7818608E-02  0.1235081E+00
         -4   -1    0    0    0  501 -0.00000000000E+00  0.00000000000E+00  0.37161849772E+02  0.37183544458E+02  0.12700000000E+01 0. -1.
          4   -1    0    0  501    0  0.00000000000E+00 -0.00000000000E+00 -0.10504576614E+03  0.10505344298E+03  0.12700000000E+01 0. -1.
         25    2    1    2    0    0  0.00000000000E+00  0.00000000000E+00 -0.67883916363E+02  0.14223698744E+03  0.12499253776E+03 0.  0.
    9000005    1    3    3    0    0 -0.56294491082E+02  0.12755112763E+02 -0.67015426966E+01  0.58117753761E+02  0.10000000000E+01 0.  0.
    9000005    1    3    3    0    0  0.56294491082E+02 -0.12755112763E+02 -0.61182373667E+02  0.84119233682E+02  0.10000000000E+01 0.  0.
<mgrwt>
<rscale>  0 0.12499254E+03</rscale>
<asrwt>0</asrwt>
<pdfrwt beam="2">  1        4 0.16163146E-01 0.12499254E+03</pdfrwt>
<pdfrwt beam="1">  1       -4 0.57194671E-02 0.12499254E+03</pdfrwt>
<totfact> 0.10089127E+04</totfact>
</mgrwt>
</event>
<event>
 5    1  0.3294152E-002  0.1249996E+03  0.7818608E-02  0.1235070E+00
         -4   -1    0    0    0  501 -0.00000000000E+00  0.00000000000E+00  0.82036718567E+01  0.83013933730E+01  0.12700000000E+01 0. -1.
          4   -1    0    0  501    0  0.00000000000E+00 -0.00000000000E+00 -0.47323827919E+03  0.47323998329E+03  0.12700000000E+01 0. -1.
         25    2    1    2    0    0  0.00000000000E+00  0.00000000000E+00 -0.46503460733E+03  0.48154137667E+03  0.12499964571E+03 0.  0.
    9000005    1    3    3    0    0 -0.17762384660E+02 -0.53683313135E+02 -0.13002564420E+03  0.14179234312E+03  0.10000000000E+01 0.  0.
    9000005    1    3    3    0    0  0.17762384660E+02  0.53683313135E+02 -0.33500896313E+03  0.33974903355E+03  0.10000000000E+01 0.  0.
<mgrwt>
<rscale>  0 0.12499965E+03</rscale>
<asrwt>0</asrwt>
<pdfrwt beam="2">  1        4 0.72813516E-01 0.12499965E+03</pdfrwt>
<pdfrwt beam="1">  1       -4 0.12697519E-02 0.12499965E+03</pdfrwt>
<totfact> 0.57325976E+03</totfact>
</mgrwt>
</event>
<event>
 4    1  0.3294152E-002  0.1249367E+03  0.7818608E-02  0.1235168E+00
          4   -1    0    0  501    0  0.00000000000E+00  0.00000000000E+00  0.15319309279E+03  0.15319835697E+03  0.12700000000E+01 0. -1.
         -4   -1    0    0    0  501 -0.00000000000E+00 -0.00000000000E+00 -0.25451506341E+02  0.25483172389E+02  0.12700000000E+01 0. -1.
    9000005    1    1    2    0    0 -0.51774475109E+02  0.54664210171E+01  0.11322361605E+03  0.12462369463E+03  0.10000000000E+01 0.  0.
    9000005    1    1    2    0    0  0.51774475109E+02 -0.54664210171E+01  0.14517970403E+02  0.54057834734E+02  0.10000000000E+01 0.  0.
<mgrwt>
<rscale>  0 0.12493669E+03</rscale>
<asrwt>0</asrwt>
<pdfrwt beam="1">  1        4 0.23571009E-01 0.12493669E+03</pdfrwt>
<pdfrwt beam="2">  1       -4 0.39184572E-02 0.12493669E+03</pdfrwt>
<totfact> 0.93988248E+03</totfact>
</mgrwt>
</event>
<event>
 5    1  0.3294152E-002  0.1249971E+03  0.7818608E-02  0.1235074E+00
         -4   -1    0    0    0  501 -0.00000000000E+00  0.00000000000E+00  0.10113253836E+03  0.10114051224E+03  0.12700000000E+01 0.  1.
          4   -1    0    0  501    0  0.00000000000E+00 -0.00000000000E+00 -0.38603303188E+02  0.38624188238E+02  0.12700000000E+01 0.  1.
         25    2    1    2    0    0  0.00000000000E+00  0.00000000000E+00  0.62529235177E+02  0.13976470048E+03  0.12499706496E+03 0.  0.
    9000005    1    3    3    0    0  0.12102414845E+02 -0.29194841790E+02  0.91543454623E+02  0.96850458525E+02  0.10000000000E+01 0.  0.
    9000005    1    3    3    0    0 -0.12102414845E+02  0.29194841790E+02 -0.29014219446E+02  0.42914241952E+02  0.10000000000E+01 0.  0.
<mgrwt>
<rscale>  0 0.12499706E+03</rscale>
<asrwt>0</asrwt>
<pdfrwt beam="2">  1        4 0.59411897E-02 0.12499706E+03</pdfrwt>
<pdfrwt beam="1">  1       -4 0.15561072E-01 0.12499706E+03</pdfrwt>
<totfact> 0.10139135E+04</totfact>
</mgrwt>
</event>
<event>
 5    1  0.3294152E-002  0.1249955E+03  0.7818608E-02  0.1235076E+00
         -4   -1    0    0    0  501 -0.00000000000E+00  0.00000000000E+00  0.63296444704E+01  0.64557957775E+01  0.12700000000E+01 0.  1.
          4   -1    0    0  501    0  0.00000000000E+00 -0.00000000000E+00 -0.61087599510E+03  0.61087731525E+03  0.12700000000E+01 0.  1.
         25    2    1    2    0    0  0.00000000000E+00  0.00000000000E+00 -0.60454635063E+03  0.61733311103E+03  0.12499551957E+03 0.  0.
    9000005    1    3    3    0    0 -0.36541146421E+02  0.38565611716E+02 -0.13978541225E+03  0.14954438561E+03  0.10000000000E+01 0.  0.
    9000005    1    3    3    0    0  0.36541146421E+02 -0.38565611716E+02 -0.46476093838E+03  0.46778872542E+03  0.10000000000E+01 0.  0.
<mgrwt>
<rscale>  0 0.12499552E+03</rscale>
<asrwt>0</asrwt>
<pdfrwt beam="2">  1        4 0.93990682E-01 0.12499552E+03</pdfrwt>
<pdfrwt beam="1">  1       -4 0.98359743E-03 0.12499552E+03</pdfrwt>
<totfact> 0.47796171E+03</totfact>
</mgrwt>
</event>
<event>
 5    1  0.3294152E-002  0.1250015E+03  0.7818608E-02  0.1235067E+00
         -4   -1    0    0    0  501 -0.00000000000E+00  0.00000000000E+00  0.14633595326E+03  0.14634146411E+03  0.12700000000E+01 0. -1.
          4   -1    0    0  501    0  0.00000000000E+00 -0.00000000000E+00 -0.26673219739E+02  0.26703437068E+02  0.12700000000E+01 0. -1.
         25    2    1    2    0    0  0.00000000000E+00  0.00000000000E+00  0.11966273352E+03  0.17304490118E+03  0.12500147211E+03 0.  0.
    9000005    1    3    3    0    0  0.57315230512E+02 -0.19905821513E+02  0.39109430622E+02  0.72192970173E+02  0.10000000000E+01 0.  0.
    9000005    1    3    3    0    0 -0.57315230512E+02  0.19905821513E+02  0.80553302901E+02  0.10085193100E+03  0.10000000000E+01 0.  0.
<mgrwt>
<rscale>  0 0.12500147E+03</rscale>
<asrwt>0</asrwt>
<pdfrwt beam="2">  1        4 0.41063205E-02 0.12500147E+03</pdfrwt>
<pdfrwt beam="1">  1       -4 0.22515972E-01 0.12500147E+03</pdfrwt>
<totfact> 0.94881002E+03</totfact>
</mgrwt>
</event>
<event>
 5    1  0.3294152E-002  0.1249990E+03  0.7818608E-02  0.1235071E+00
          4   -1    0    0  501    0  0.00000000000E+00  0.00000000000E+00  0.69359125162E+01  0.70512255979E+01  0.12700000000E+01 0.  1.
         -4   -1    0    0    0  501 -0.00000000000E+00 -0.00000000000E+00 -0.55842361296E+03  0.55842505711E+03  0.12700000000E+01 0.  1.
         25    2    1    2    0    0  0.00000000000E+00  0.00000000000E+00 -0.55148770044E+03  0.56547628271E+03  0.12499897027E+03 0.  0.
    9000005    1    3    3    0    0  0.60105815307E+02  0.17098091523E+02 -0.27738666322E+03  0.28434031494E+03  0.10000000000E+01 0.  0.
    9000005    1    3    3    0    0 -0.60105815307E+02 -0.17098091523E+02 -0.27410103722E+03  0.28113596777E+03  0.10000000000E+01 0.  0.
<mgrwt>
<rscale>  0 0.12499897E+03</rscale>
<asrwt>0</asrwt>
<pdfrwt beam="1">  1        4 0.10760452E-02 0.12499897E+03</pdfrwt>
<pdfrwt beam="2">  1       -4 0.85920271E-01 0.12499897E+03</pdfrwt>
<totfact> 0.51123144E+03</totfact>
</mgrwt>
</event>
<event>
 5    1  0.3294152E-002  0.1249957E+03  0.7818608E-02  0.1235076E+00
         -4   -1    0    0    0  501 -0.00000000000E+00  0.00000000000E+00  0.43504622742E+03  0.43504808112E+03  0.12700000000E+01 0.  1.
          4   -1    0    0  501    0  0.00000000000E+00 -0.00000000000E+00 -0.89315137388E+01  0.90213545361E+01  0.12700000000E+01 0.  1.
         25    2    1    2    0    0  0.00000000000E+00  0.00000000000E+00  0.42611471368E+03  0.44406943566E+03  0.12499565782E+03 0.  0.
    9000005    1    3    3    0    0 -0.33805172042E+02 -0.18377886103E+02  0.38128330314E+02  0.54178463681E+02  0.10000000000E+01 0.  0.
    9000005    1    3    3    0    0  0.33805172042E+02  0.18377886103E+02  0.38798638336E+03  0.38989097198E+03  0.10000000000E+01 0.  0.
<mgrwt>
<rscale>  0 0.12499566E+03</rscale>
<asrwt>0</asrwt>
<pdfrwt beam="2">  1        4 0.13811329E-02 0.12499566E+03</pdfrwt>
<pdfrwt beam="1">  1       -4 0.66937220E-01 0.12499566E+03</pdfrwt>
<totfact> 0.60486822E+03</totfact>
</mgrwt>
</event>
<event>
 5    1  0.3294152E-002  0.1250025E+03  0.7818608E-02  0.1235065E+00
          4   -1    0    0  501    0  0.00000000000E+00  0.00000000000E+00  0.48214170464E+02  0.48230893974E+02  0.12700000000E+01 0. -1.
         -4   -1    0    0    0  501 -0.00000000000E+00 -0.00000000000E+00 -0.80986141793E+02  0.80996099058E+02  0.12700000000E+01 0. -1.
         25    2    1    2    0    0  0.00000000000E+00  0.00000000000E+00 -0.32771971329E+02  0.12922699303E+03  0.12500245447E+03 0.  0.
    9000005    1    3    3    0    0 -0.61666861771E+02  0.35237347268E+00 -0.26851214838E+02  0.67267479112E+02  0.10000000000E+01 0.  0.
    9000005    1    3    3    0    0  0.61666861771E+02 -0.35237347268E+00 -0.59207564906E+01  0.61959513920E+02  0.10000000000E+01 0.  0.
<mgrwt>
<rscale>  0 0.12500245E+03</rscale>
<asrwt>0</asrwt>
<pdfrwt beam="1">  1        4 0.74196171E-02 0.12500245E+03</pdfrwt>
<pdfrwt beam="2">  1       -4 0.12461459E-01 0.12500245E+03</pdfrwt>
<totfact> 0.10360498E+04</totfact>
</mgrwt>
</event>
<event>
 5    1  0.3294152E-002  0.1249990E+03  0.7818608E-02  0.1235071E+00
         -4   -1    0    0    0  501 -0.00000000000E+00  0.00000000000E+00  0.17864411635E+02  0.17909497566E+02  0.12700000000E+01 0. -1.
          4   -1    0    0  501    0  0.00000000000E+00 -0.00000000000E+00 -0.21833484357E+03  0.21833853718E+03  0.12700000000E+01 0. -1.
         25    2    1    2    0    0  0.00000000000E+00  0.00000000000E+00 -0.20047043194E+03  0.23624803475E+03  0.12499895936E+03 0.  0.
    9000005    1    3    3    0    0  0.47484944342E+02 -0.32470475259E+02 -0.54093148102E+02  0.78969743410E+02  0.10000000000E+01 0.  0.
    9000005    1    3    3    0    0 -0.47484944342E+02  0.32470475259E+02 -0.14637728383E+03  0.15727829134E+03  0.10000000000E+01 0.  0.
<mgrwt>
<rscale>  0 0.12499896E+03</rscale>
<asrwt>0</asrwt>
<pdfrwt beam="2">  1        4 0.33593726E-01 0.12499896E+03</pdfrwt>
<pdfrwt beam="1">  1       -4 0.27521235E-02 0.12499896E+03</pdfrwt>
<totfact> 0.84361307E+03</totfact>
</mgrwt>
</event>
<event>
 5    1  0.3294152E-002  0.1249999E+03  0.7818608E-02  0.1235069E+00
         -4   -1    0    0    0  501 -0.00000000000E+00  0.00000000000E+00  0.88287405071E+02  0.88296538971E+02  0.12700000000E+01 0.  1.
          4   -1    0    0  501    0  0.00000000000E+00 -0.00000000000E+00 -0.44224127191E+02  0.44242358954E+02  0.12700000000E+01 0.  1.
         25    2    1    2    0    0  0.00000000000E+00  0.00000000000E+00  0.44063277880E+02  0.13253889792E+03  0.12499994802E+03 0.  0.
    9000005    1    3    3    0    0 -0.54183492871E+02  0.17132566736E+02 -0.55338329546E+01  0.57105157822E+02  0.10000000000E+01 0.  0.
    9000005    1    3    3    0    0  0.54183492871E+02 -0.17132566736E+02  0.49597110835E+02  0.75433740103E+02  0.10000000000E+01 0.  0.
<mgrwt>
<rscale>  0 0.12499995E+03</rscale>
<asrwt>0</asrwt>
<pdfrwt beam="2">  1        4 0.68058169E-02 0.12499995E+03</pdfrwt>
<pdfrwt beam="1">  1       -4 0.13584783E-01 0.12499995E+03</pdfrwt>
<totfact> 0.10290221E+04</totfact>
</mgrwt>
</event>
<event>
 5    1  0.3294152E-002  0.1249993E+03  0.7818608E-02  0.1235070E+00
          4   -1    0    0  501    0  0.00000000000E+00  0.00000000000E+00  0.97923596289E+01  0.98743712256E+01  0.12700000000E+01 0. -1.
         -4   -1    0    0    0  501 -0.00000000000E+00 -0.00000000000E+00 -0.39715701948E+03  0.39715905004E+03  0.12700000000E+01 0. -1.
         25    2    1    2    0    0  0.00000000000E+00  0.00000000000E+00 -0.38736465986E+03  0.40703342126E+03  0.12499930527E+03 0.  0.
    9000005    1    3    3    0    0  0.27222932468E+02  0.20955006860E+02 -0.23699044255E+02  0.41747395887E+02  0.10000000000E+01 0.  0.
    9000005    1    3    3    0    0 -0.27222932468E+02 -0.20955006860E+02 -0.36366561560E+03  0.36528602537E+03  0.10000000000E+01 0.  0.
<mgrwt>
<rscale>  0 0.12499931E+03</rscale>
<asrwt>0</asrwt>
<pdfrwt beam="1">  1        4 0.15129820E-02 0.12499931E+03</pdfrwt>
<pdfrwt beam="2">  1       -4 0.61107532E-01 0.12499931E+03</pdfrwt>
<totfact> 0.63875413E+03</totfact>
</mgrwt>
</event>
<event>
 5    1  0.3294152E-002  0.1249970E+03  0.7818608E-02  0.1235074E+00
         -4   -1    0    0    0  501 -0.00000000000E+00  0.00000000000E+00  0.12373053298E+02  0.12438060456E+02  0.12700000000E+01 0. -1.
          4   -1    0    0  501    0  0.00000000000E+00 -0.00000000000E+00 -0.31479769121E+03  0.31480025300E+03  0.12700000000E+01 0. -1.
         25    2    1    2    0    0  0.00000000000E+00  0.00000000000E+00 -0.30242463791E+03  0.32723831346E+03  0.12499700868E+03 0.  0.
    9000005    1    3    3    0    0  0.42687514499E+02  0.19826737580E+01 -0.31845896654E+02  0.53303996314E+02  0.10000000000E+01 0.  0.
    9000005    1    3    3    0    0 -0.42687514499E+02 -0.19826737580E+01 -0.27057874126E+03  0.27393431715E+03  0.10000000000E+01 0.  0.
<mgrwt>
<rscale>  0 0.12499701E+03</rscale>
<asrwt>0</asrwt>
<pdfrwt beam="2">  1        4 0.48435606E-01 0.12499701E+03</pdfrwt>
<pdfrwt beam="1">  1       -4 0.19087445E-02 0.12499701E+03</pdfrwt>
<totfact> 0.72308210E+03</totfact>
</mgrwt>
</event>
<event>
 5    1  0.3294152E-002  0.1250004E+03  0.7818608E-02  0.1235069E+00
         -4   -1    0    0    0  501 -0.00000000000E+00  0.00000000000E+00  0.20867526007E+03  0.20867912465E+03  0.12700000000E+01 0. -1.
          4   -1    0    0  501    0  0.00000000000E+00 -0.00000000000E+00 -0.18693824208E+02  0.18736914461E+02  0.12700000000E+01 0. -1.
         25    2    1    2    0    0  0.00000000000E+00  0.00000000000E+00  0.18998143586E+03  0.22741603911E+03  0.12500043549E+03 0.  0.
    9000005    1    3    3    0    0  0.49634131971E+02  0.37963429984E+02  0.96287609436E+02  0.11479143175E+03  0.10000000000E+01 0.  0.
    9000005    1    3    3    0    0 -0.49634131971E+02 -0.37963429984E+02  0.93693826426E+02  0.11262460736E+03  0.10000000000E+01 0.  0.
<mgrwt>
<rscale>  0 0.12500044E+03</rscale>
<asrwt>0</asrwt>
<pdfrwt beam="2">  1        4 0.28795847E-02 0.12500044E+03</pdfrwt>
<pdfrwt beam="1">  1       -4 0.32107500E-01 0.12500044E+03</pdfrwt>
<totfact> 0.85707117E+03</totfact>
</mgrwt>
</event>
<event>
 5    1  0.3294152E-002  0.1250185E+03  0.7818608E-02  0.1235040E+00
          4   -1    0    0  501    0  0.00000000000E+00  0.00000000000E+00  0.51309584823E+02  0.51325299753E+02  0.12700000000E+01 0. -1.
         -4   -1    0    0    0  501 -0.00000000000E+00 -0.00000000000E+00 -0.76120865877E+02  0.76131459476E+02  0.12700000000E+01 0. -1.
         25    2    1    2    0    0  0.00000000000E+00  0.00000000000E+00 -0.24811281054E+02  0.12745675923E+03  0.12501850185E+03 0.  0.
    9000005    1    3    3    0    0 -0.26170448352E+02 -0.41773311858E+01  0.45302777872E+02  0.52494610635E+02  0.10000000000E+01 0.  0.
    9000005    1    3    3    0    0  0.26170448352E+02  0.41773311858E+01 -0.70114058926E+02  0.74962148594E+02  0.10000000000E+01 0.  0.
<mgrwt>
<rscale>  0 0.12501850E+03</rscale>
<asrwt>0</asrwt>
<pdfrwt beam="1">  1        4 0.78958060E-02 0.12501850E+03</pdfrwt>
<pdfrwt beam="2">  1       -4 0.11712926E-01 0.12501850E+03</pdfrwt>
<totfact> 0.10394895E+04</totfact>
</mgrwt>
</event>
<event>
 5    1  0.3294152E-002  0.1249995E+03  0.7818608E-02  0.1235070E+00
          4   -1    0    0  501    0  0.00000000000E+00  0.00000000000E+00  0.14963526379E+02  0.15017324052E+02  0.12700000000E+01 0. -1.
         -4   -1    0    0    0  501 -0.00000000000E+00 -0.00000000000E+00 -0.26052559709E+03  0.26052869255E+03  0.12700000000E+01 0. -1.
         25    2    1    2    0    0  0.00000000000E+00  0.00000000000E+00 -0.24556207072E+03  0.27554601660E+03  0.12499950676E+03 0.  0.
    9000005    1    3    3    0    0 -0.51814061501E+02 -0.34218819799E+02 -0.13830500999E+03  0.15160771875E+03  0.10000000000E+01 0.  0.
    9000005    1    3    3    0    0  0.51814061501E+02  0.34218819799E+02 -0.10725706073E+03  0.12393829785E+03  0.10000000000E+01 0.  0.
<mgrwt>
<rscale>  0 0.12499951E+03</rscale>
<asrwt>0</asrwt>
<pdfrwt beam="1">  1        4 0.23064576E-02 0.12499951E+03</pdfrwt>
<pdfrwt beam="2">  1       -4 0.40085234E-01 0.12499951E+03</pdfrwt>
<totfact> 0.78773267E+03</totfact>
</mgrwt>
</event>
<event>
 5    1  0.3294152E-002  0.1249907E+03  0.7818608E-02  0.1235084E+00
         -4   -1    0    0    0  501 -0.00000000000E+00  0.00000000000E+00  0.80395273463E+03  0.80395373774E+03  0.12700000000E+01 0.  1.
          4   -1    0    0  501    0  0.00000000000E+00 -0.00000000000E+00 -0.47740603972E+01  0.49400964237E+01  0.12700000000E+01 0.  1.
         25    2    1    2    0    0  0.00000000000E+00  0.00000000000E+00  0.79917867424E+03  0.80889383416E+03  0.12499072603E+03 0.  0.
    9000005    1    3    3    0    0  0.36796659690E+01  0.41963126865E+02  0.69828342023E+03  0.69955355687E+03  0.10000000000E+01 0.  0.
    9000005    1    3    3    0    0 -0.36796659690E+01 -0.41963126865E+02  0.10089525400E+03  0.10934027729E+03  0.10000000000E+01 0.  0.
<mgrwt>
<rscale>  0 0.12499073E+03</rscale>
<asrwt>0</asrwt>
<pdfrwt beam="2">  1        4 0.74732052E-03 0.12499073E+03</pdfrwt>
<pdfrwt beam="1">  1       -4 0.12369780E+00 0.12499073E+03</pdfrwt>
<totfact> 0.37878450E+03</totfact>
</mgrwt>
</event>
<event>
 5    1  0.3294152E-002  0.1249998E+03  0.7818608E-02  0.1235070E+00
         -4   -1    0    0    0  501 -0.00000000000E+00  0.00000000000E+00  0.69677555212E+03  0.69677670952E+03  0.12700000000E+01 0.  1.
          4   -1    0    0  501    0  0.00000000000E+00 -0.00000000000E+00 -0.55330570928E+01  0.56769376245E+01  0.12700000000E+01 0.  1.
         25    2    1    2    0    0  0.00000000000E+00  0.00000000000E+00  0.69124249503E+03  0.70245364715E+03  0.12499975783E+03 0.  0.
    9000005    1    3    3    0    0  0.35475481011E+01 -0.61752652204E+02  0.29559075859E+03  0.30199482068E+03  0.10000000000E+01 0.  0.
    9000005    1    3    3    0    0 -0.35475481011E+01  0.61752652204E+02  0.39565173643E+03  0.40045882647E+03  0.10000000000E+01 0.  0.
<mgrwt>
<rscale>  0 0.12499976E+03</rscale>
<asrwt>0</asrwt>
<pdfrwt beam="2">  1        4 0.86239694E-03 0.12499976E+03</pdfrwt>
<pdfrwt beam="1">  1       -4 0.10720732E+00 0.12499976E+03</pdfrwt>
<totfact> 0.42957736E+03</totfact>
</mgrwt>
</event>
<event>
 5    1  0.3294152E-002  0.1250002E+03  0.7818608E-02  0.1235069E+00
         -4   -1    0    0    0  501 -0.00000000000E+00  0.00000000000E+00  0.33070078785E+03  0.33070322645E+03  0.12700000000E+01 0. -1.
          4   -1    0    0  501    0  0.00000000000E+00 -0.00000000000E+00 -0.11775450588E+02  0.11843738284E+02  0.12700000000E+01 0. -1.
         25    2    1    2    0    0  0.00000000000E+00  0.00000000000E+00  0.31892533726E+03  0.34254696473E+03  0.12500020920E+03 0.  0.
    9000005    1    3    3    0    0 -0.12388159648E+02 -0.43467274883E+02  0.41200728002E+02  0.61166743195E+02  0.10000000000E+01 0.  0.
    9000005    1    3    3    0    0  0.12388159648E+02  0.43467274883E+02  0.27772460925E+03  0.28138022153E+03  0.10000000000E+01 0.  0.
<mgrwt>
<rscale>  0 0.12500021E+03</rscale>
<asrwt>0</asrwt>
<pdfrwt beam="2">  1        4 0.18170486E-02 0.12500021E+03</pdfrwt>
<pdfrwt beam="1">  1       -4 0.50882476E-01 0.12500021E+03</pdfrwt>
<totfact> 0.70552016E+03</totfact>
</mgrwt>
</event>
<event>
 5    1  0.3294152E-002  0.1250024E+03  0.7818608E-02  0.1235065E+00
          4   -1    0    0  501    0  0.00000000000E+00  0.00000000000E+00  0.50573876699E+02  0.50589820165E+02  0.12700000000E+01 0.  1.
         -4   -1    0    0    0  501 -0.00000000000E+00 -0.00000000000E+00 -0.77208173478E+02  0.77218617909E+02  0.12700000000E+01 0.  1.
         25    2    1    2    0    0  0.00000000000E+00  0.00000000000E+00 -0.26634296779E+02  0.12780843807E+03  0.12500244429E+03 0.  0.
    9000005    1    3    3    0    0 -0.57668660016E+02  0.26505942429E+01  0.11151256854E+02  0.58805191330E+02  0.10000000000E+01 0.  0.
    9000005    1    3    3    0    0  0.57668660016E+02 -0.26505942429E+01 -0.37785553633E+02  0.69003246744E+02  0.10000000000E+01 0.  0.
<mgrwt>
<rscale>  0 0.12500244E+03</rscale>
<asrwt>0</asrwt>
<pdfrwt beam="1">  1        4 0.77826262E-02 0.12500244E+03</pdfrwt>
<pdfrwt beam="2">  1       -4 0.11880210E-01 0.12500244E+03</pdfrwt>
<totfact> 0.10391053E+04</totfact>
</mgrwt>
</event>
<event>
 5    1  0.3294152E-002  0.1249935E+03  0.7818608E-02  0.1235079E+00
          4   -1    0    0  501    0  0.00000000000E+00  0.00000000000E+00  0.90421022439E+02  0.90429940832E+02  0.12700000000E+01 0. -1.
         -4   -1    0    0    0  501 -0.00000000000E+00 -0.00000000000E+00 -0.43175780419E+02  0.43194454676E+02  0.12700000000E+01 0. -1.
         25    2    1    2    0    0  0.00000000000E+00  0.00000000000E+00  0.47245242020E+02  0.13362439551E+03  0.12499346456E+03 0.  0.
    9000005    1    3    3    0    0  0.57902251422E+02 -0.11413362504E+02  0.45581304006E+02  0.74576074168E+02  0.10000000000E+01 0.  0.
    9000005    1    3    3    0    0 -0.57902251422E+02  0.11413362504E+02  0.16639380141E+01  0.59048321341E+02  0.10000000000E+01 0.  0.
<mgrwt>
<rscale>  0 0.12499346E+03</rscale>
<asrwt>0</asrwt>
<pdfrwt beam="1">  1        4 0.13913049E-01 0.12499346E+03</pdfrwt>
<pdfrwt beam="2">  1       -4 0.66445502E-02 0.12499346E+03</pdfrwt>
<totfact> 0.10268661E+04</totfact>
</mgrwt>
</event>
<event>
 5    1  0.3294152E-002  0.1250014E+03  0.7818608E-02  0.1235067E+00
          4   -1    0    0  501    0  0.00000000000E+00  0.00000000000E+00  0.55725691417E+02  0.55740161319E+02  0.12700000000E+01 0. -1.
         -4   -1    0    0    0  501 -0.00000000000E+00 -0.00000000000E+00 -0.70070127587E+02  0.70081635826E+02  0.12700000000E+01 0. -1.
         25    2    1    2    0    0  0.00000000000E+00  0.00000000000E+00 -0.14344436170E+02  0.12582179715E+03  0.12500144714E+03 0.  0.
    9000005    1    3    3    0    0 -0.17799033002E+02 -0.59852597434E+02 -0.46656037418E+01  0.62625129570E+02  0.10000000000E+01 0.  0.
    9000005    1    3    3    0    0  0.17799033002E+02  0.59852597434E+02 -0.96788324287E+01  0.63196667575E+02  0.10000000000E+01 0.  0.
<mgrwt>
<rscale>  0 0.12500145E+03</rscale>
<asrwt>0</asrwt>
<pdfrwt beam="1">  1        4 0.85751816E-02 0.12500145E+03</pdfrwt>
<pdfrwt beam="2">  1       -4 0.10782018E-01 0.12500145E+03</pdfrwt>
<totfact> 0.10434526E+04</totfact>
</mgrwt>
</event>
<event>
 5    1  0.3294152E-002  0.1250171E+03  0.7818608E-02  0.1235043E+00
          4   -1    0    0  501    0  0.00000000000E+00  0.00000000000E+00  0.13325817122E+03  0.13326422287E+03  0.12700000000E+01 0. -1.
         -4   -1    0    0    0  501 -0.00000000000E+00 -0.00000000000E+00 -0.29300941523E+02  0.29328451615E+02  0.12700000000E+01 0. -1.
         25    2    1    2    0    0  0.00000000000E+00  0.00000000000E+00  0.10395722969E+03  0.16259267448E+03  0.12501708759E+03 0.  0.
    9000005    1    3    3    0    0  0.28491266069E+02  0.16053962963E+02  0.12124917799E+03  0.12558600691E+03  0.10000000000E+01 0.  0.
    9000005    1    3    3    0    0 -0.28491266069E+02 -0.16053962963E+02 -0.17291948292E+02  0.37006667571E+02  0.10000000000E+01 0.  0.
<mgrwt>
<rscale>  0 0.12501709E+03</rscale>
<asrwt>0</asrwt>
<pdfrwt beam="1">  1        4 0.20503838E-01 0.12501709E+03</pdfrwt>
<pdfrwt beam="2">  1       -4 0.45104189E-02 0.12501709E+03</pdfrwt>
<totfact> 0.96808078E+03</totfact>
</mgrwt>
</event>
<event>
 5    1  0.3294152E-002  0.1249995E+03  0.7818608E-02  0.1235070E+00
         -4   -1    0    0    0  501 -0.00000000000E+00  0.00000000000E+00  0.87620423552E+02  0.87629626973E+02  0.12700000000E+01 0. -1.
          4   -1    0    0  501    0  0.00000000000E+00 -0.00000000000E+00 -0.44560568887E+02  0.44578663052E+02  0.12700000000E+01 0. -1.
         25    2    1    2    0    0  0.00000000000E+00  0.00000000000E+00  0.43059854666E+02  0.13220829003E+03  0.12499952347E+03 0.  0.
    9000005    1    3    3    0    0 -0.34777310019E+02 -0.51476409289E+02  0.14361277415E+02  0.63769336632E+02  0.10000000000E+01 0.  0.
    9000005    1    3    3    0    0  0.34777310019E+02  0.51476409289E+02  0.28698577250E+02  0.68438953394E+02  0.10000000000E+01 0.  0.
<mgrwt>
<rscale>  0 0.12499952E+03</rscale>
<asrwt>0</asrwt>
<pdfrwt beam="2">  1        4 0.68575721E-02 0.12499952E+03</pdfrwt>
<pdfrwt beam="1">  1       -4 0.13482165E-01 0.12499952E+03</pdfrwt>
<totfact> 0.10297365E+04</totfact>
</mgrwt>
</event>
<event>
 5    1  0.3294152E-002  0.1250007E+03  0.7818608E-02  0.1235068E+00
         -4   -1    0    0    0  501 -0.00000000000E+00  0.00000000000E+00  0.12172922396E+02  0.12238992592E+02  0.12700000000E+01 0. -1.
          4   -1    0    0  501    0  0.00000000000E+00 -0.00000000000E+00 -0.31996452414E+03  0.31996704457E+03  0.12700000000E+01 0. -1.
         25    2    1    2    0    0  0.00000000000E+00  0.00000000000E+00 -0.30779160174E+03  0.33220603716E+03  0.12500072408E+03 0.  0.
    9000005    1    3    3    0    0  0.61806677953E+02  0.80790050679E+01 -0.14202254738E+03  0.15510235242E+03  0.10000000000E+01 0.  0.
    9000005    1    3    3    0    0 -0.61806677953E+02 -0.80790050679E+01 -0.16576905437E+03  0.17710368474E+03  0.10000000000E+01 0.  0.
<mgrwt>
<rscale>  0 0.12500072E+03</rscale>
<asrwt>0</asrwt>
<pdfrwt beam="2">  1        4 0.49230581E-01 0.12500072E+03</pdfrwt>
<pdfrwt beam="1">  1       -4 0.18780337E-02 0.12500072E+03</pdfrwt>
<totfact> 0.71726369E+03</totfact>
</mgrwt>
</event>
<event>
 5    1  0.3294152E-002  0.1250024E+03  0.7818608E-02  0.1235065E+00
          4   -1    0    0  501    0  0.00000000000E+00  0.00000000000E+00  0.66247615353E+03  0.66247737085E+03  0.12700000000E+01 0. -1.
         -4   -1    0    0    0  501 -0.00000000000E+00 -0.00000000000E+00 -0.58270503174E+01  0.59638423354E+01  0.12700000000E+01 0. -1.
         25    2    1    2    0    0  0.00000000000E+00  0.00000000000E+00  0.65664910321E+03  0.66844121319E+03  0.12500244295E+03 0.  0.
    9000005    1    3    3    0    0  0.27878679942E+02 -0.20446736377E+02  0.49944310380E+02  0.60751328900E+02  0.10000000000E+01 0.  0.
    9000005    1    3    3    0    0 -0.27878679942E+02  0.20446736377E+02  0.60670479283E+03  0.60768988429E+03  0.10000000000E+01 0.  0.
<mgrwt>
<rscale>  0 0.12500244E+03</rscale>
<asrwt>0</asrwt>
<pdfrwt beam="1">  1        4 0.10192996E+00 0.12500244E+03</pdfrwt>
<pdfrwt beam="2">  1       -4 0.90708596E-03 0.12500244E+03</pdfrwt>
<totfact> 0.44803412E+03</totfact>
</mgrwt>
</event>
<event>
 5    1  0.3294152E-002  0.1249996E+03  0.7818608E-02  0.1235070E+00
          4   -1    0    0  501    0  0.00000000000E+00  0.00000000000E+00  0.38086135647E+02  0.38107304136E+02  0.12700000000E+01 0.  1.
         -4   -1    0    0    0  501 -0.00000000000E+00 -0.00000000000E+00 -0.10250926134E+03  0.10251712813E+03  0.12700000000E+01 0.  1.
         25    2    1    2    0    0  0.00000000000E+00  0.00000000000E+00 -0.64423125692E+02  0.14062443227E+03  0.12499956731E+03 0.  0.
    9000005    1    3    3    0    0 -0.46714955385E+02  0.41330676812E+02 -0.36526496996E+02  0.72288981768E+02  0.10000000000E+01 0.  0.
    9000005    1    3    3    0    0  0.46714955385E+02 -0.41330676812E+02 -0.27896628696E+02  0.68335450499E+02  0.10000000000E+01 0.  0.
<mgrwt>
<rscale>  0 0.12499957E+03</rscale>
<asrwt>0</asrwt>
<pdfrwt beam="1">  1        4 0.58616390E-02 0.12499957E+03</pdfrwt>
<pdfrwt beam="2">  1       -4 0.15772889E-01 0.12499957E+03</pdfrwt>
<totfact> 0.10120759E+04</totfact>
</mgrwt>
</event>
<event>
 5    1  0.3294152E-002  0.1250000E+03  0.7818608E-02  0.1235069E+00
         -4   -1    0    0    0  501 -0.00000000000E+00  0.00000000000E+00  0.12257911811E+03  0.12258569695E+03  0.12700000000E+01 0. -1.
          4   -1    0    0  501    0  0.00000000000E+00 -0.00000000000E+00 -0.31847089249E+02  0.31872401755E+02  0.12700000000E+01 0. -1.
         25    2    1    2    0    0  0.00000000000E+00  0.00000000000E+00  0.90732028860E+02  0.15445809870E+03  0.12500001278E+03 0.  0.
    9000005    1    3    3    0    0  0.45296048025E+02 -0.31367317439E+02  0.81804720502E+02  0.98633933645E+02  0.10000000000E+01 0.  0.
    9000005    1    3    3    0    0 -0.45296048025E+02  0.31367317439E+02  0.89273083584E+01  0.55824165059E+02  0.10000000000E+01 0.  0.
<mgrwt>
<rscale>  0 0.12500001E+03</rscale>
<asrwt>0</asrwt>
<pdfrwt beam="2">  1        4 0.49020055E-02 0.12500001E+03</pdfrwt>
<pdfrwt beam="1">  1       -4 0.18860779E-01 0.12500001E+03</pdfrwt>
<totfact> 0.98421958E+03</totfact>
</mgrwt>
</event>
<event>
 5    1  0.3294152E-002  0.1249990E+03  0.7818608E-02  0.1235071E+00
          4   -1    0    0  501    0  0.00000000000E+00  0.00000000000E+00  0.50270340911E+03  0.50270501333E+03  0.12700000000E+01 0.  1.
         -4   -1    0    0    0  501 -0.00000000000E+00 -0.00000000000E+00 -0.77168371390E+01  0.78206441825E+01  0.12700000000E+01 0.  1.
         25    2    1    2    0    0  0.00000000000E+00  0.00000000000E+00  0.49498657197E+03  0.51052565752E+03  0.12499896220E+03 0.  0.
    9000005    1    3    3    0    0  0.21785186565E+02  0.42580460388E+01  0.89072949505E+01  0.23938780526E+02  0.10000000000E+01 0.  0.
    9000005    1    3    3    0    0 -0.21785186565E+02 -0.42580460388E+01  0.48607927702E+03  0.48658687699E+03  0.10000000000E+01 0.  0.
<mgrwt>
<rscale>  0 0.12499896E+03</rscale>
<asrwt>0</asrwt>
<pdfrwt beam="1">  1        4 0.77347088E-01 0.12499896E+03</pdfrwt>
<pdfrwt beam="2">  1       -4 0.11953144E-02 0.12499896E+03</pdfrwt>
<totfact> 0.55058112E+03</totfact>
</mgrwt>
</event>
<event>
 5    1  0.3294152E-002  0.1250177E+03  0.7818608E-02  0.1235042E+00
         -4   -1    0    0    0  501 -0.00000000000E+00  0.00000000000E+00  0.16956397684E+03  0.16956873279E+03  0.12700000000E+01 0.  1.
          4   -1    0    0  501    0  0.00000000000E+00 -0.00000000000E+00 -0.23020964896E+02  0.23055969395E+02  0.12700000000E+01 0.  1.
         25    2    1    2    0    0  0.00000000000E+00  0.00000000000E+00  0.14654301194E+03  0.19262470219E+03  0.12501768493E+03 0.  0.
    9000005    1    3    3    0    0  0.62057824600E+01 -0.54099152228E+02  0.12053918418E+03  0.13227216234E+03  0.10000000000E+01 0.  0.
    9000005    1    3    3    0    0 -0.62057824600E+01  0.54099152228E+02  0.26003827762E+02  0.60352539847E+02  0.10000000000E+01 0.  0.
<mgrwt>
<rscale>  0 0.12501768E+03</rscale>
<asrwt>0</asrwt>
<pdfrwt beam="2">  1        4 0.35447455E-02 0.12501768E+03</pdfrwt>
<pdfrwt beam="1">  1       -4 0.26089824E-01 0.12501768E+03</pdfrwt>
<totfact> 0.91356435E+03</totfact>
</mgrwt>
</event>
<event>
 5    1  0.3294152E-002  0.1249996E+03  0.7818608E-02  0.1235070E+00
         -4   -1    0    0    0  501 -0.00000000000E+00  0.00000000000E+00  0.18934916700E+03  0.18935342602E+03  0.12700000000E+01 0. -1.
          4   -1    0    0  501    0  0.00000000000E+00 -0.00000000000E+00 -0.20605714606E+02  0.20644814711E+02  0.12700000000E+01 0. -1.
         25    2    1    2    0    0  0.00000000000E+00  0.00000000000E+00  0.16874345239E+03  0.20999824073E+03  0.12499963353E+03 0.  0.
    9000005    1    3    3    0    0 -0.19778189552E+01  0.54200695125E+02  0.13652184557E+03  0.14690419135E+03  0.10000000000E+01 0.  0.
    9000005    1    3    3    0    0  0.19778189552E+01 -0.54200695125E+02  0.32221606826E+02  0.63094049373E+02  0.10000000000E+01 0.  0.
<mgrwt>
<rscale>  0 0.12499963E+03</rscale>
<asrwt>0</asrwt>
<pdfrwt beam="2">  1        4 0.31734452E-02 0.12499963E+03</pdfrwt>
<pdfrwt beam="1">  1       -4 0.29133977E-01 0.12499963E+03</pdfrwt>
<totfact> 0.88476892E+03</totfact>
</mgrwt>
</event>
<event>
 5    1  0.3294152E-002  0.1249944E+03  0.7818608E-02  0.1235078E+00
         -4   -1    0    0    0  501 -0.00000000000E+00  0.00000000000E+00  0.67070638770E+02  0.67082661582E+02  0.12700000000E+01 0.  1.
          4   -1    0    0  501    0  0.00000000000E+00 -0.00000000000E+00 -0.58211436864E+02  0.58225289023E+02  0.12700000000E+01 0.  1.
         25    2    1    2    0    0  0.00000000000E+00  0.00000000000E+00  0.88592019054E+01  0.12530795060E+03  0.12499438798E+03 0.  0.
    9000005    1    3    3    0    0 -0.33930789405E+02  0.51681435234E+02 -0.46833092701E+01  0.62009697655E+02  0.10000000000E+01 0.  0.
    9000005    1    3    3    0    0  0.33930789405E+02 -0.51681435234E+02  0.13542511176E+02  0.63298252950E+02  0.10000000000E+01 0.  0.
<mgrwt>
<rscale>  0 0.12499439E+03</rscale>
<asrwt>0</asrwt>
<pdfrwt beam="2">  1        4 0.89575960E-02 0.12499439E+03</pdfrwt>
<pdfrwt beam="1">  1       -4 0.10320550E-01 0.12499439E+03</pdfrwt>
<totfact> 0.10447502E+04</totfact>
</mgrwt>
</event>
<event>
 5    1  0.3294152E-002  0.1249697E+03  0.7818608E-02  0.1235117E+00
          4   -1    0    0  501    0  0.00000000000E+00  0.00000000000E+00  0.21202513860E+02  0.21240515389E+02  0.12700000000E+01 0.  1.
         -4   -1    0    0    0  501 -0.00000000000E+00 -0.00000000000E+00 -0.18394080747E+03  0.18394519170E+03  0.12700000000E+01 0.  1.
         25    2    1    2    0    0  0.00000000000E+00  0.00000000000E+00 -0.16273829361E+03  0.20518570709E+03  0.12496968508E+03 0.  0.
    9000005    1    3    3    0    0 -0.63662016196E+01  0.49342793991E+02 -0.19321669700E+02  0.53381333459E+02  0.10000000000E+01 0.  0.
    9000005    1    3    3    0    0  0.63662016196E+01 -0.49342793991E+02 -0.14341662391E+03  0.15180437363E+03  0.10000000000E+01 0.  0.
<mgrwt>
<rscale>  0 0.12496969E+03</rscale>
<asrwt>0</asrwt>
<pdfrwt beam="1">  1        4 0.32651858E-02 0.12496969E+03</pdfrwt>
<pdfrwt beam="2">  1       -4 0.28301845E-01 0.12496969E+03</pdfrwt>
<totfact> 0.89328758E+03</totfact>
</mgrwt>
</event>
<event>
 5    1  0.3294152E-002  0.1249663E+03  0.7818608E-02  0.1235122E+00
          4   -1    0    0  501    0  0.00000000000E+00  0.00000000000E+00  0.98104795250E+01  0.98923409014E+01  0.12700000000E+01 0. -1.
         -4   -1    0    0    0  501 -0.00000000000E+00 -0.00000000000E+00 -0.39622015163E+03  0.39622218699E+03  0.12700000000E+01 0. -1.
         25    2    1    2    0    0  0.00000000000E+00  0.00000000000E+00 -0.38640967211E+03  0.40611452789E+03  0.12496629571E+03 0.  0.
    9000005    1    3    3    0    0  0.16653839545E+01 -0.61052794770E+02 -0.15046956912E+03  0.16239553098E+03  0.10000000000E+01 0.  0.
    9000005    1    3    3    0    0 -0.16653839545E+01  0.61052794770E+02 -0.23594010299E+03  0.24371899691E+03  0.10000000000E+01 0.  0.
<mgrwt>
<rscale>  0 0.12496630E+03</rscale>
<asrwt>0</asrwt>
<pdfrwt beam="1">  1        4 0.15157584E-02 0.12496630E+03</pdfrwt>
<pdfrwt beam="2">  1       -4 0.60963388E-01 0.12496630E+03</pdfrwt>
<totfact> 0.64010020E+03</totfact>
</mgrwt>
</event>
<event>
 5    1  0.3294152E-002  0.1250001E+03  0.7818608E-02  0.1235069E+00
         -4   -1    0    0    0  501 -0.00000000000E+00  0.00000000000E+00  0.46365123594E+02  0.46382513794E+02  0.12700000000E+01 0.  1.
          4   -1    0    0  501    0  0.00000000000E+00 -0.00000000000E+00 -0.84211881703E+02  0.84221457598E+02  0.12700000000E+01 0.  1.
         25    2    1    2    0    0  0.00000000000E+00  0.00000000000E+00 -0.37846758109E+02  0.13060397139E+03  0.12500008098E+03 0.  0.
    9000005    1    3    3    0    0 -0.19978884390E+02  0.58568282752E+01  0.42640111853E+02  0.47461957373E+02  0.10000000000E+01 0.  0.
    9000005    1    3    3    0    0  0.19978884390E+02 -0.58568282752E+01 -0.80486869962E+02  0.83142014019E+02  0.10000000000E+01 0.  0.
<mgrwt>
<rscale>  0 0.12500008E+03</rscale>
<asrwt>0</asrwt>
<pdfrwt beam="2">  1        4 0.12957748E-01 0.12500008E+03</pdfrwt>
<pdfrwt beam="1">  1       -4 0.71351702E-02 0.12500008E+03</pdfrwt>
<totfact> 0.10331568E+04</totfact>
</mgrwt>
</event>
<event>
 5    1  0.3294152E-002  0.1249982E+03  0.7818608E-02  0.1235072E+00
         -4   -1    0    0    0  501 -0.00000000000E+00  0.00000000000E+00  0.45892350945E+02  0.45909920227E+02  0.12700000000E+01 0. -1.
          4   -1    0    0  501    0  0.00000000000E+00 -0.00000000000E+00 -0.85076678564E+02  0.85086157132E+02  0.12700000000E+01 0. -1.
         25    2    1    2    0    0  0.00000000000E+00  0.00000000000E+00 -0.39184327619E+02  0.13099607736E+03  0.12499824300E+03 0.  0.
    9000005    1    3    3    0    0 -0.30230077873E+02  0.45896710472E+02  0.11580268671E+02  0.56173554835E+02  0.10000000000E+01 0.  0.
    9000005    1    3    3    0    0  0.30230077873E+02 -0.45896710472E+02 -0.50764596289E+02  0.74822522524E+02  0.10000000000E+01 0.  0.
<mgrwt>
<rscale>  0 0.12499824E+03</rscale>
<asrwt>0</asrwt>
<pdfrwt beam="2">  1        4 0.13090800E-01 0.12499824E+03</pdfrwt>
<pdfrwt beam="1">  1       -4 0.70624423E-02 0.12499824E+03</pdfrwt>
<totfact> 0.10323583E+04</totfact>
</mgrwt>
</event>
<event>
 5    1  0.3294152E-002  0.1249961E+03  0.7818608E-02  0.1235075E+00
         -4   -1    0    0    0  501 -0.00000000000E+00  0.00000000000E+00  0.46644844415E+03  0.46645017306E+03  0.12700000000E+01 0. -1.
          4   -1    0    0  501    0  0.00000000000E+00 -0.00000000000E+00 -0.83240265053E+01  0.84203513739E+01  0.12700000000E+01 0. -1.
         25    2    1    2    0    0  0.00000000000E+00  0.00000000000E+00  0.45812441765E+03  0.47487052444E+03  0.12499613168E+03 0.  0.
    9000005    1    3    3    0    0  0.36622775218E+01 -0.56743233584E+02  0.32753111026E+03  0.33243169979E+03  0.10000000000E+01 0.  0.
    9000005    1    3    3    0    0 -0.36622775218E+01  0.56743233584E+02  0.13059330738E+03  0.14243882465E+03  0.10000000000E+01 0.  0.
<mgrwt>
<rscale>  0 0.12499613E+03</rscale>
<asrwt>0</asrwt>
<pdfrwt beam="2">  1        4 0.12881621E-02 0.12499613E+03</pdfrwt>
<pdfrwt beam="1">  1       -4 0.71768839E-01 0.12499613E+03</pdfrwt>
<totfact> 0.57873144E+03</totfact>
</mgrwt>
</event>
<event>
 5    1  0.3294152E-002  0.1249998E+03  0.7818608E-02  0.1235070E+00
          4   -1    0    0  501    0  0.00000000000E+00  0.00000000000E+00  0.24191426980E+04  0.24191430313E+04  0.12700000000E+01 0.  1.
         -4   -1    0    0    0  501 -0.00000000000E+00 -0.00000000000E+00 -0.13646160718E+01  0.18641558474E+01  0.12700000000E+01 0.  1.
         25    2    1    2    0    0  0.00000000000E+00  0.00000000000E+00  0.24177780819E+04  0.24210071872E+04  0.12499978826E+03 0.  0.
    9000005    1    3    3    0    0 -0.13050737184E+02 -0.56317869664E+02  0.74924358030E+03  0.75147120159E+03  0.10000000000E+01 0.  0.
    9000005    1    3    3    0    0  0.13050737184E+02  0.56317869664E+02  0.16685345016E+04  0.16695359856E+04  0.10000000000E+01 0.  0.
<mgrwt>
<rscale>  0 0.12499979E+03</rscale>
<asrwt>0</asrwt>
<pdfrwt beam="1">  1        4 0.37221442E+00 0.12499979E+03</pdfrwt>
<pdfrwt beam="2">  1       -4 0.24839260E-03 0.12499979E+03</pdfrwt>
<totfact> 0.53200274E+02</totfact>
</mgrwt>
</event>
<event>
 5    1  0.3294152E-002  0.1249927E+03  0.7818608E-02  0.1235081E+00
          4   -1    0    0  501    0  0.00000000000E+00  0.00000000000E+00  0.20987641858E+03  0.20988026105E+03  0.12700000000E+01 0.  1.
         -4   -1    0    0    0  501 -0.00000000000E+00 -0.00000000000E+00 -0.18584281396E+02  0.18627625050E+02  0.12700000000E+01 0.  1.
         25    2    1    2    0    0  0.00000000000E+00  0.00000000000E+00  0.19129213719E+03  0.22850788609E+03  0.12499268882E+03 0.  0.
    9000005    1    3    3    0    0 -0.48366704264E+02 -0.39551991815E+02  0.93733094390E+02  0.11265252381E+03  0.10000000000E+01 0.  0.
    9000005    1    3    3    0    0  0.48366704264E+02  0.39551991815E+02  0.97559042795E+02  0.11585536228E+03  0.10000000000E+01 0.  0.
<mgrwt>
<rscale>  0 0.12499269E+03</rscale>
<asrwt>0</asrwt>
<pdfrwt beam="1">  1        4 0.32292309E-01 0.12499269E+03</pdfrwt>
<pdfrwt beam="2">  1       -4 0.28627500E-02 0.12499269E+03</pdfrwt>
<totfact> 0.85553197E+03</totfact>
</mgrwt>
</event>
<event>
 5    1  0.3294152E-002  0.1250001E+03  0.7818608E-02  0.1235069E+00
          4   -1    0    0  501    0  0.00000000000E+00  0.00000000000E+00  0.67550554723E+03  0.67550674107E+03  0.12700000000E+01 0.  1.
         -4   -1    0    0    0  501 -0.00000000000E+00 -0.00000000000E+00 -0.57117678855E+01  0.58512556240E+01  0.12700000000E+01 0.  1.
         25    2    1    2    0    0  0.00000000000E+00  0.00000000000E+00  0.66979377934E+03  0.68135799670E+03  0.12500005127E+03 0.  0.
    9000005    1    3    3    0    0 -0.53734205382E+02 -0.29448684081E+02  0.26799028014E+03  0.27490794836E+03  0.10000000000E+01 0.  0.
    9000005    1    3    3    0    0  0.53734205382E+02  0.29448684081E+02  0.40180349920E+03  0.40645004834E+03  0.10000000000E+01 0.  0.
<mgrwt>
<rscale>  0 0.12500005E+03</rscale>
<asrwt>0</asrwt>
<pdfrwt beam="1">  1        4 0.10393479E+00 0.12500005E+03</pdfrwt>
<pdfrwt beam="2">  1       -4 0.88955488E-03 0.12500005E+03</pdfrwt>
<totfact> 0.44089161E+03</totfact>
</mgrwt>
</event>
<event>
 5    1  0.3294152E-002  0.1249984E+03  0.7818608E-02  0.1235072E+00
         -4   -1    0    0    0  501 -0.00000000000E+00  0.00000000000E+00  0.93915223004E+03  0.93915308874E+03  0.12700000000E+01 0.  1.
          4   -1    0    0  501    0  0.00000000000E+00 -0.00000000000E+00 -0.40614012276E+01  0.42553354664E+01  0.12700000000E+01 0.  1.
         25    2    1    2    0    0  0.00000000000E+00  0.00000000000E+00  0.93509082881E+03  0.94340842421E+03  0.12499838693E+03 0.  0.
    9000005    1    3    3    0    0  0.16867838263E+02  0.38754633672E+02  0.12014491207E+03  0.12736657919E+03  0.10000000000E+01 0.  0.
    9000005    1    3    3    0    0 -0.16867838263E+02 -0.38754633672E+02  0.81494591675E+03  0.81604184502E+03  0.10000000000E+01 0.  0.
<mgrwt>
<rscale>  0 0.12499839E+03</rscale>
<asrwt>0</asrwt>
<pdfrwt beam="2">  1        4 0.63981440E-03 0.12499839E+03</pdfrwt>
<pdfrwt beam="1">  1       -4 0.14450008E+00 0.12499839E+03</pdfrwt>
<totfact> 0.32552273E+03</totfact>
</mgrwt>
</event>
<event>
 5    1  0.3294152E-002  0.1250003E+03  0.7818608E-02  0.1235069E+00
          4   -1    0    0  501    0  0.00000000000E+00  0.00000000000E+00  0.47583361788E+03  0.47583531269E+03  0.12700000000E+01 0.  1.
         -4   -1    0    0    0  501 -0.00000000000E+00 -0.00000000000E+00 -0.81584789256E+01  0.82567353342E+01  0.12700000000E+01 0.  1.
         25    2    1    2    0    0  0.00000000000E+00  0.00000000000E+00  0.46767513895E+03  0.48409204802E+03  0.12500030146E+03 0.  0.
    9000005    1    3    3    0    0  0.15202254100E+02 -0.58959984829E+02  0.17935991652E+03  0.18941585993E+03  0.10000000000E+01 0.  0.
    9000005    1    3    3    0    0 -0.15202254100E+02  0.58959984829E+02  0.28831522243E+03  0.29467618809E+03  0.10000000000E+01 0.  0.
<mgrwt>
<rscale>  0 0.12500030E+03</rscale>
<asrwt>0</asrwt>
<pdfrwt beam="1">  1        4 0.73212860E-01 0.12500030E+03</pdfrwt>
<pdfrwt beam="2">  1       -4 0.12628392E-02 0.12500030E+03</pdfrwt>
<totfact> 0.57119723E+03</totfact>
</mgrwt>
</event>
<event>
 5    1  0.3294152E-002  0.1250010E+03  0.7818608E-02  0.1235068E+00
         -4   -1    0    0    0  501 -0.00000000000E+00  0.00000000000E+00  0.11069110179E+02  0.11141727880E+02  0.12700000000E+01 0.  1.
          4   -1    0    0  501    0  0.00000000000E+00 -0.00000000000E+00 -0.35167463625E+03  0.35167692941E+03  0.12700000000E+01 0.  1.
         25    2    1    2    0    0  0.00000000000E+00  0.00000000000E+00 -0.34060552607E+03  0.36281865729E+03  0.12500101476E+03 0.  0.
    9000005    1    3    3    0    0 -0.33356653602E+02  0.16490452472E+02 -0.31602898066E+03  0.31821363575E+03  0.10000000000E+01 0.  0.
    9000005    1    3    3    0    0  0.33356653602E+02 -0.16490452472E+02 -0.24576545411E+02  0.44605021540E+02  0.10000000000E+01 0.  0.
<mgrwt>
<rscale>  0 0.12500101E+03</rscale>
<asrwt>0</asrwt>
<pdfrwt beam="2">  1        4 0.54109544E-01 0.12500101E+03</pdfrwt>
<pdfrwt beam="1">  1       -4 0.17087027E-02 0.12500101E+03</pdfrwt>
<totfact> 0.68335463E+03</totfact>
</mgrwt>
</event>
<event>
 5    1  0.3294152E-002  0.1250099E+03  0.7818608E-02  0.1235054E+00
          4   -1    0    0  501    0  0.00000000000E+00  0.00000000000E+00  0.11642569889E+02  0.11711632407E+02  0.12700000000E+01 0.  1.
         -4   -1    0    0    0  501 -0.00000000000E+00 -0.00000000000E+00 -0.33450496834E+03  0.33450737920E+03  0.12700000000E+01 0.  1.
         25    2    1    2    0    0  0.00000000000E+00  0.00000000000E+00 -0.32286239845E+03  0.34621901161E+03  0.12500990229E+03 0.  0.
    9000005    1    3    3    0    0 -0.22531366077E+02  0.24437108496E+02 -0.30800815624E+03  0.30979809399E+03  0.10000000000E+01 0.  0.
    9000005    1    3    3    0    0  0.22531366077E+02 -0.24437108496E+02 -0.14854242210E+02  0.36420917624E+02  0.10000000000E+01 0.  0.
<mgrwt>
<rscale>  0 0.12500990E+03</rscale>
<asrwt>0</asrwt>
<pdfrwt beam="1">  1        4 0.17966628E-02 0.12500990E+03</pdfrwt>
<pdfrwt beam="2">  1       -4 0.51467794E-01 0.12500990E+03</pdfrwt>
<totfact> 0.70127154E+03</totfact>
</mgrwt>
</event>
<event>
 5    1  0.3294152E-002  0.1250013E+03  0.7818608E-02  0.1235067E+00
         -4   -1    0    0    0  501 -0.00000000000E+00  0.00000000000E+00  0.80679054758E+02  0.80689049918E+02  0.12700000000E+01 0.  1.
          4   -1    0    0  501    0  0.00000000000E+00 -0.00000000000E+00 -0.48396816551E+02  0.48413476969E+02  0.12700000000E+01 0.  1.
         25    2    1    2    0    0  0.00000000000E+00  0.00000000000E+00  0.32282238207E+02  0.12910252689E+03  0.12500127817E+03 0.  0.
    9000005    1    3    3    0    0 -0.50576083955E+02  0.11196592698E+02 -0.19963311439E+02  0.55523308258E+02  0.10000000000E+01 0.  0.
    9000005    1    3    3    0    0  0.50576083955E+02 -0.11196592698E+02  0.52245549646E+02  0.73579218630E+02  0.10000000000E+01 0.  0.
<mgrwt>
<rscale>  0 0.12500128E+03</rscale>
<asrwt>0</asrwt>
<pdfrwt beam="2">  1        4 0.74477146E-02 0.12500128E+03</pdfrwt>
<pdfrwt beam="1">  1       -4 0.12414212E-01 0.12500128E+03</pdfrwt>
<totfact> 0.10363445E+04</totfact>
</mgrwt>
</event>
<event>
 5    1  0.3294152E-002  0.1249985E+03  0.7818608E-02  0.1235072E+00
          4   -1    0    0  501    0  0.00000000000E+00  0.00000000000E+00  0.24341473776E+03  0.24341805081E+03  0.12700000000E+01 0. -1.
         -4   -1    0    0    0  501 -0.00000000000E+00 -0.00000000000E+00 -0.16018769441E+02  0.16069034645E+02  0.12700000000E+01 0. -1.
         25    2    1    2    0    0  0.00000000000E+00  0.00000000000E+00  0.22739596832E+03  0.25948708546E+03  0.12499848443E+03 0.  0.
    9000005    1    3    3    0    0  0.59075453946E+02 -0.19916844269E+02  0.10475335439E+03  0.12190510736E+03  0.10000000000E+01 0.  0.
    9000005    1    3    3    0    0 -0.59075453946E+02  0.19916844269E+02  0.12264261393E+03  0.13758197809E+03  0.10000000000E+01 0.  0.
<mgrwt>
<rscale>  0 0.12499848E+03</rscale>
<asrwt>0</asrwt>
<pdfrwt beam="1">  1        4 0.37452539E-01 0.12499848E+03</pdfrwt>
<pdfrwt beam="2">  1       -4 0.24685477E-02 0.12499848E+03</pdfrwt>
<totfact> 0.80980829E+03</totfact>
</mgrwt>
</event>
<event>
 5    1  0.3294152E-002  0.1250019E+03  0.7818608E-02  0.1235066E+00
         -4   -1    0    0    0  501 -0.00000000000E+00  0.00000000000E+00  0.18057033843E+02  0.18101640015E+02  0.12700000000E+01 0. -1.
          4   -1    0    0  501    0  0.00000000000E+00 -0.00000000000E+00 -0.21602174618E+03  0.21602547933E+03  0.12700000000E+01 0. -1.
         25    2    1    2    0    0  0.00000000000E+00  0.00000000000E+00 -0.19796471233E+03  0.23412711935E+03  0.12500192272E+03 0.  0.
    9000005    1    3    3    0    0 -0.23263019694E+01 -0.50692090156E+02 -0.30669096887E+02  0.59301713206E+02  0.10000000000E+01 0.  0.
    9000005    1    3    3    0    0  0.23263019694E+01  0.50692090156E+02 -0.16729561544E+03  0.17482540614E+03  0.10000000000E+01 0.  0.
<mgrwt>
<rscale>  0 0.12500192E+03</rscale>
<asrwt>0</asrwt>
<pdfrwt beam="2">  1        4 0.33237831E-01 0.12500192E+03</pdfrwt>
<pdfrwt beam="1">  1       -4 0.27817238E-02 0.12500192E+03</pdfrwt>
<totfact> 0.84676246E+03</totfact>
</mgrwt>
</event>
<event>
 5    1  0.3294152E-002  0.1249994E+03  0.7818608E-02  0.1235070E+00
         -4   -1    0    0    0  501 -0.00000000000E+00  0.00000000000E+00  0.24549142341E+02  0.24581970826E+02  0.12700000000E+01 0.  1.
          4   -1    0    0  501    0  0.00000000000E+00 -0.00000000000E+00 -0.15897644501E+03  0.15898151769E+03  0.12700000000E+01 0.  1.
         25    2    1    2    0    0  0.00000000000E+00  0.00000000000E+00 -0.13442730267E+03  0.18356348852E+03  0.12499941845E+03 0.  0.
    9000005    1    3    3    0    0 -0.19728415148E+02 -0.57367062368E+02 -0.45184782639E+02  0.75649552485E+02  0.10000000000E+01 0.  0.
    9000005    1    3    3    0    0  0.19728415148E+02  0.57367062368E+02 -0.89242520027E+02  0.10791393603E+03  0.10000000000E+01 0.  0.
<mgrwt>
<rscale>  0 0.12499942E+03</rscale>
<asrwt>0</asrwt>
<pdfrwt beam="2">  1        4 0.24460829E-01 0.12499942E+03</pdfrwt>
<pdfrwt beam="1">  1       -4 0.37797067E-02 0.12499942E+03</pdfrwt>
<totfact> 0.92980680E+03</totfact>
</mgrwt>
</event>
<event>
 5    1  0.3294152E-002  0.1249981E+03  0.7818608E-02  0.1235072E+00
          4   -1    0    0  501    0  0.00000000000E+00  0.00000000000E+00  0.12795176929E+03  0.12795807190E+03  0.12700000000E+01 0.  1.
         -4   -1    0    0    0  501 -0.00000000000E+00 -0.00000000000E+00 -0.30507881207E+02  0.30534303918E+02  0.12700000000E+01 0.  1.
         25    2    1    2    0    0  0.00000000000E+00  0.00000000000E+00  0.97443888085E+02  0.15849237582E+03  0.12499808746E+03 0.  0.
    9000005    1    3    3    0    0  0.72332764028E+01 -0.44174181083E+02  0.10401208281E+03  0.11323953344E+03  0.10000000000E+01 0.  0.
    9000005    1    3    3    0    0 -0.72332764028E+01  0.44174181083E+02 -0.65681947273E+01  0.45252842384E+02  0.10000000000E+01 0.  0.
<mgrwt>
<rscale>  0 0.12499809E+03</rscale>
<asrwt>0</asrwt>
<pdfrwt beam="1">  1        4 0.19687405E-01 0.12499809E+03</pdfrwt>
<pdfrwt beam="2">  1       -4 0.46960375E-02 0.12499809E+03</pdfrwt>
<totfact> 0.97638430E+03</totfact>
</mgrwt>
</event>
<event>
 5    1  0.3294152E-002  0.1250000E+03  0.7818608E-02  0.1235069E+00
         -4   -1    0    0    0  501 -0.00000000000E+00  0.00000000000E+00  0.99213291370E+02  0.99221419484E+02  0.12700000000E+01 0.  1.
          4   -1    0    0  501    0  0.00000000000E+00 -0.00000000000E+00 -0.39352263268E+02  0.39372751038E+02  0.12700000000E+01 0.  1.
         25    2    1    2    0    0  0.00000000000E+00  0.00000000000E+00  0.59861028102E+02  0.13859417052E+03  0.12500000567E+03 0.  0.
    9000005    1    3    3    0    0  0.38631369631E+02  0.48795024496E+02  0.36194059577E+02  0.72002410264E+02  0.10000000000E+01 0.  0.
    9000005    1    3    3    0    0 -0.38631369631E+02 -0.48795024496E+02  0.23666968525E+02  0.66591760258E+02  0.10000000000E+01 0.  0.
<mgrwt>
<rscale>  0 0.12500001E+03</rscale>
<asrwt>0</asrwt>
<pdfrwt beam="2">  1        4 0.60563957E-02 0.12500001E+03</pdfrwt>
<pdfrwt beam="1">  1       -4 0.15265784E-01 0.12500001E+03</pdfrwt>
<totfact> 0.10162804E+04</totfact>
</mgrwt>
</event>
<event>
 5    1  0.3294152E-002  0.1250029E+03  0.7818608E-02  0.1235065E+00
         -4   -1    0    0    0  501 -0.00000000000E+00  0.00000000000E+00  0.76678267778E+02  0.76688784378E+02  0.12700000000E+01 0.  1.
          4   -1    0    0  501    0  0.00000000000E+00 -0.00000000000E+00 -0.50923796088E+02  0.50939630034E+02  0.12700000000E+01 0.  1.
         25    2    1    2    0    0  0.00000000000E+00  0.00000000000E+00  0.25754471690E+02  0.12762841441E+03  0.12500287738E+03 0.  0.
    9000005    1    3    3    0    0  0.22404147714E+02 -0.56738857513E+02 -0.97933392785E+00  0.61018053735E+02  0.10000000000E+01 0.  0.
    9000005    1    3    3    0    0 -0.22404147714E+02  0.56738857513E+02  0.26733805618E+02  0.66610360677E+02  0.10000000000E+01 0.  0.
<mgrwt>
<rscale>  0 0.12500288E+03</rscale>
<asrwt>0</asrwt>
<pdfrwt beam="2">  1        4 0.78364572E-02 0.12500288E+03</pdfrwt>
<pdfrwt beam="1">  1       -4 0.11798683E-01 0.12500288E+03</pdfrwt>
<totfact> 0.10394845E+04</totfact>
</mgrwt>
</event>
<event>
 5    1  0.3294152E-002  0.1250004E+03  0.7818608E-02  0.1235069E+00
          4   -1    0    0  501    0  0.00000000000E+00  0.00000000000E+00  0.72809776005E+02  0.72820851285E+02  0.12700000000E+01 0.  1.
         -4   -1    0    0    0  501 -0.00000000000E+00 -0.00000000000E+00 -0.53627735249E+02  0.53642771069E+02  0.12700000000E+01 0.  1.
         25    2    1    2    0    0  0.00000000000E+00  0.00000000000E+00  0.19182040756E+02  0.12646362235E+03  0.12500038837E+03 0.  0.
    9000005    1    3    3    0    0 -0.42758216973E+02  0.20807510217E+02  0.50612625250E+02  0.69453980698E+02  0.10000000000E+01 0.  0.
    9000005    1    3    3    0    0  0.42758216973E+02 -0.20807510217E+02 -0.31430584494E+02  0.57009641656E+02  0.10000000000E+01 0.  0.
<mgrwt>
<rscale>  0 0.12500039E+03</rscale>
<asrwt>0</asrwt>
<pdfrwt beam="1">  1        4 0.11203512E-01 0.12500039E+03</pdfrwt>
<pdfrwt beam="2">  1       -4 0.82524294E-02 0.12500039E+03</pdfrwt>
<totfact> 0.10420730E+04</totfact>
</mgrwt>
</event>
<event>
 5    1  0.3294152E-002  0.1249846E+03  0.7818608E-02  0.1235093E+00
         -4   -1    0    0    0  501 -0.00000000000E+00  0.00000000000E+00  0.11925606317E+03  0.11926282532E+03  0.12700000000E+01 0.  1.
          4   -1    0    0  501    0  0.00000000000E+00 -0.00000000000E+00 -0.32727049509E+02  0.32751681934E+02  0.12700000000E+01 0.  1.
         25    2    1    2    0    0  0.00000000000E+00  0.00000000000E+00  0.86529013665E+02  0.15201450726E+03  0.12498455989E+03 0.  0.
    9000005    1    3    3    0    0 -0.30162922492E+02  0.31975595864E+01  0.10970715146E+03  0.11382743677E+03  0.10000000000E+01 0.  0.
    9000005    1    3    3    0    0  0.30162922492E+02 -0.31975595864E+01 -0.23178137794E+02  0.38187070485E+02  0.10000000000E+01 0.  0.
<mgrwt>
<rscale>  0 0.12498456E+03</rscale>
<asrwt>0</asrwt>
<pdfrwt beam="2">  1        4 0.50373456E-02 0.12498456E+03</pdfrwt>
<pdfrwt beam="1">  1       -4 0.18349502E-01 0.12498456E+03</pdfrwt>
<totfact> 0.98938010E+03</totfact>
</mgrwt>
</event>
<event>
 5    1  0.3294152E-002  0.1250029E+03  0.7818608E-02  0.1235065E+00
         -4   -1    0    0    0  501 -0.00000000000E+00  0.00000000000E+00  0.18535426378E+02  0.18578884009E+02  0.12700000000E+01 0.  1.
          4   -1    0    0  501    0  0.00000000000E+00 -0.00000000000E+00 -0.21046271064E+03  0.21046654240E+03  0.12700000000E+01 0.  1.
         25    2    1    2    0    0  0.00000000000E+00  0.00000000000E+00 -0.19192728427E+03  0.22904542641E+03  0.12500289963E+03 0.  0.
    9000005    1    3    3    0    0  0.14193401028E+02 -0.57845775149E+02 -0.13062526949E+03  0.14356722246E+03  0.10000000000E+01 0.  0.
    9000005    1    3    3    0    0 -0.14193401028E+02  0.57845775149E+02 -0.61302014771E+02  0.85478203949E+02  0.10000000000E+01 0.  0.
<mgrwt>
<rscale>  0 0.12500290E+03</rscale>
<asrwt>0</asrwt>
<pdfrwt beam="2">  1        4 0.32382515E-01 0.12500290E+03</pdfrwt>
<pdfrwt beam="1">  1       -4 0.28552418E-02 0.12500290E+03</pdfrwt>
<totfact> 0.85450860E+03</totfact>
</mgrwt>
</event>
<event>
 5    1  0.3294152E-002  0.1250245E+03  0.7818608E-02  0.1235031E+00
          4   -1    0    0  501    0  0.00000000000E+00  0.00000000000E+00  0.30006506439E+02  0.30033370251E+02  0.12700000000E+01 0. -1.
         -4   -1    0    0    0  501 -0.00000000000E+00 -0.00000000000E+00 -0.13014297670E+03  0.13014917320E+03  0.12700000000E+01 0. -1.
         25    2    1    2    0    0  0.00000000000E+00  0.00000000000E+00 -0.10013647026E+03  0.16018254345E+03  0.12502453579E+03 0.  0.
    9000005    1    3    3    0    0  0.41253996530E+02  0.35801837265E+02 -0.88995059977E+02  0.10442597609E+03  0.10000000000E+01 0.  0.
    9000005    1    3    3    0    0 -0.41253996530E+02 -0.35801837265E+02 -0.11141410286E+02  0.55756567366E+02  0.10000000000E+01 0.  0.
<mgrwt>
<rscale>  0 0.12502454E+03</rscale>
<asrwt>0</asrwt>
<pdfrwt beam="1">  1        4 0.46189288E-02 0.12502454E+03</pdfrwt>
<pdfrwt beam="2">  1       -4 0.20024539E-01 0.12502454E+03</pdfrwt>
<totfact> 0.97253959E+03</totfact>
</mgrwt>
</event>
<event>
 5    1  0.3294152E-002  0.1250060E+03  0.7818608E-02  0.1235060E+00
         -4   -1    0    0    0  501 -0.00000000000E+00  0.00000000000E+00  0.75260115454E+02  0.75270830195E+02  0.12700000000E+01 0.  1.
          4   -1    0    0  501    0  0.00000000000E+00 -0.00000000000E+00 -0.51886099156E+02  0.51901639527E+02  0.12700000000E+01 0.  1.
         25    2    1    2    0    0  0.00000000000E+00  0.00000000000E+00  0.23374016299E+02  0.12717246972E+03  0.12500596953E+03 0.  0.
    9000005    1    3    3    0    0  0.78781269517E+01 -0.38384080444E+02  0.61215686115E+02  0.72689495406E+02  0.10000000000E+01 0.  0.
    9000005    1    3    3    0    0 -0.78781269517E+01  0.38384080444E+02 -0.37841669817E+02  0.54482974316E+02  0.10000000000E+01 0.  0.
<mgrwt>
<rscale>  0 0.12500597E+03</rscale>
<asrwt>0</asrwt>
<pdfrwt beam="2">  1        4 0.79844965E-02 0.12500597E+03</pdfrwt>
<pdfrwt beam="1">  1       -4 0.11580499E-01 0.12500597E+03</pdfrwt>
<totfact> 0.10403999E+04</totfact>
</mgrwt>
</event>
<event>
 5    1  0.3294152E-002  0.1250005E+03  0.7818608E-02  0.1235069E+00
         -4   -1    0    0    0  501 -0.00000000000E+00  0.00000000000E+00  0.14931655015E+02  0.14985567106E+02  0.12700000000E+01 0.  1.
          4   -1    0    0  501    0  0.00000000000E+00 -0.00000000000E+00 -0.26108371988E+03  0.26108680872E+03  0.12700000000E+01 0.  1.
         25    2    1    2    0    0  0.00000000000E+00  0.00000000000E+00 -0.24615206487E+03  0.27607237582E+03  0.12500047062E+03 0.  0.
    9000005    1    3    3    0    0 -0.58319105122E+02 -0.18934822543E+02 -0.96423251791E+02  0.11427199575E+03  0.10000000000E+01 0.  0.
    9000005    1    3    3    0    0  0.58319105122E+02  0.18934822543E+02 -0.14972881308E+03  0.16180038007E+03  0.10000000000E+01 0.  0.
<mgrwt>
<rscale>  0 0.12500047E+03</rscale>
<asrwt>0</asrwt>
<pdfrwt beam="2">  1        4 0.40171108E-01 0.12500047E+03</pdfrwt>
<pdfrwt beam="1">  1       -4 0.23015626E-02 0.12500047E+03</pdfrwt>
<totfact> 0.78700956E+03</totfact>
</mgrwt>
</event>
<event>
 5    1  0.3294152E-002  0.1249990E+03  0.7818608E-02  0.1235071E+00
          4   -1    0    0  501    0  0.00000000000E+00  0.00000000000E+00  0.19064895120E+03  0.19065318118E+03  0.12700000000E+01 0.  1.
         -4   -1    0    0    0  501 -0.00000000000E+00 -0.00000000000E+00 -0.20464744080E+02  0.20504113008E+02  0.12700000000E+01 0.  1.
         25    2    1    2    0    0  0.00000000000E+00  0.00000000000E+00  0.17018420712E+03  0.21115729419E+03  0.12499895414E+03 0.  0.
    9000005    1    3    3    0    0  0.10740527854E+01  0.54317200865E+02  0.13725952757E+03  0.14762347310E+03  0.10000000000E+01 0.  0.
    9000005    1    3    3    0    0 -0.10740527854E+01 -0.54317200865E+02  0.32924679547E+02  0.63533821092E+02  0.10000000000E+01 0.  0.
<mgrwt>
<rscale>  0 0.12499895E+03</rscale>
<asrwt>0</asrwt>
<pdfrwt beam="1">  1        4 0.29333961E-01 0.12499895E+03</pdfrwt>
<pdfrwt beam="2">  1       -4 0.31517759E-02 0.12499895E+03</pdfrwt>
<totfact> 0.88289291E+03</totfact>
</mgrwt>
</event>
<event>
 5    1  0.3294152E-002  0.1249970E+03  0.7818608E-02  0.1235074E+00
          4   -1    0    0  501    0  0.00000000000E+00  0.00000000000E+00  0.27214228756E+03  0.27214525088E+03  0.12700000000E+01 0.  1.
         -4   -1    0    0    0  501 -0.00000000000E+00 -0.00000000000E+00 -0.14321868661E+02  0.14378067392E+02  0.12700000000E+01 0.  1.
         25    2    1    2    0    0  0.00000000000E+00  0.00000000000E+00  0.25782041890E+03  0.28652331828E+03  0.12499697402E+03 0.  0.
    9000005    1    3    3    0    0 -0.58564110356E+02  0.20826488961E+02  0.11413223074E+03  0.12996408642E+03  0.10000000000E+01 0.  0.
    9000005    1    3    3    0    0  0.58564110356E+02 -0.20826488961E+02  0.14368818816E+03  0.15655923186E+03  0.10000000000E+01 0.  0.
<mgrwt>
<rscale>  0 0.12499697E+03</rscale>
<asrwt>0</asrwt>
<pdfrwt beam="1">  1        4 0.41872595E-01 0.12499697E+03</pdfrwt>
<pdfrwt beam="2">  1       -4 0.22079153E-02 0.12499697E+03</pdfrwt>
<totfact> 0.77326233E+03</totfact>
</mgrwt>
</event>
<event>
 5    1  0.3294152E-002  0.1250022E+03  0.7818608E-02  0.1235066E+00
         -4   -1    0    0    0  501 -0.00000000000E+00  0.00000000000E+00  0.11183446295E+04  0.11183453506E+04  0.12700000000E+01 0.  1.
          4   -1    0    0  501    0  0.00000000000E+00 -0.00000000000E+00 -0.33768244211E+01  0.36077476590E+01  0.12700000000E+01 0.  1.
         25    2    1    2    0    0  0.00000000000E+00  0.00000000000E+00  0.11149678050E+04  0.11219530982E+04  0.12500219339E+03 0.  0.
    9000005    1    3    3    0    0  0.23793121781E+02  0.99223575229E-01  0.10761435796E+04  0.10764070449E+04  0.10000000000E+01 0.  0.
    9000005    1    3    3    0    0 -0.23793121781E+02 -0.99223575229E-01  0.38824225470E+02  0.45546053317E+02  0.10000000000E+01 0.  0.
<mgrwt>
<rscale>  0 0.12500219E+03</rscale>
<asrwt>0</asrwt>
<pdfrwt beam="2">  1        4 0.53732988E-03 0.12500219E+03</pdfrwt>
<pdfrwt beam="1">  1       -4 0.17207096E+00 0.12500219E+03</pdfrwt>
<totfact> 0.26848304E+03</totfact>
</mgrwt>
</event>
<event>
 5    1  0.3294152E-002  0.1250058E+03  0.7818608E-02  0.1235060E+00
         -4   -1    0    0    0  501 -0.00000000000E+00  0.00000000000E+00  0.96493438592E+01  0.97325606555E+01  0.12700000000E+01 0. -1.
          4   -1    0    0  501    0  0.00000000000E+00 -0.00000000000E+00 -0.40303546059E+03  0.40303746152E+03  0.12700000000E+01 0. -1.
         25    2    1    2    0    0  0.00000000000E+00  0.00000000000E+00 -0.39338611673E+03  0.41277002218E+03  0.12500581736E+03 0.  0.
    9000005    1    3    3    0    0  0.36509233860E+02  0.32352783583E+02 -0.32568224892E+03  0.32931679888E+03  0.10000000000E+01 0.  0.
    9000005    1    3    3    0    0 -0.36509233860E+02 -0.32352783583E+02 -0.67703867801E+02  0.83453223292E+02  0.10000000000E+01 0.  0.
<mgrwt>
<rscale>  0 0.12500582E+03</rscale>
<asrwt>0</asrwt>
<pdfrwt beam="2">  1        4 0.62011998E-01 0.12500582E+03</pdfrwt>
<pdfrwt beam="1">  1       -4 0.14910700E-02 0.12500582E+03</pdfrwt>
<totfact> 0.63321335E+03</totfact>
</mgrwt>
</event>
<event>
 4    1  0.3294152E-002  0.1250811E+03  0.7818608E-02  0.1234943E+00
          4   -1    0    0  501    0  0.00000000000E+00  0.00000000000E+00  0.77664415812E+03  0.77664519650E+03  0.12700000000E+01 0.  1.
         -4   -1    0    0    0  501 -0.00000000000E+00 -0.00000000000E+00 -0.49550535020E+01  0.51152180019E+01  0.12700000000E+01 0.  1.
    9000005    1    1    2    0    0  0.29479103674E+02 -0.50980340642E+02  0.25439983398E+03  0.26112887281E+03  0.10000000000E+01 0.  0.
    9000005    1    1    2    0    0 -0.29479103674E+02  0.50980340642E+02  0.51728927063E+03  0.52063154169E+03  0.10000000000E+01 0.  0.
<mgrwt>
<rscale>  0 0.12508106E+03</rscale>
<asrwt>0</asrwt>
<pdfrwt beam="1">  1        4 0.11949612E+00 0.12508106E+03</pdfrwt>
<pdfrwt beam="2">  1       -4 0.77471609E-03 0.12508106E+03</pdfrwt>
<totfact> 0.39022907E+03</totfact>
</mgrwt>
</event>
<event>
 5    1  0.3294152E-002  0.1249981E+03  0.7818608E-02  0.1235072E+00
          4   -1    0    0  501    0  0.00000000000E+00  0.00000000000E+00  0.39726371142E+03  0.39726574143E+03  0.12700000000E+01 0. -1.
         -4   -1    0    0    0  501 -0.00000000000E+00 -0.00000000000E+00 -0.97895185934E+01  0.98715537931E+01  0.12700000000E+01 0. -1.
         25    2    1    2    0    0  0.00000000000E+00  0.00000000000E+00  0.38747419283E+03  0.40713729522E+03  0.12499810819E+03 0.  0.
    9000005    1    3    3    0    0  0.11838220627E+02 -0.60068214342E+02  0.15295142677E+03  0.16475276263E+03  0.10000000000E+01 0.  0.
    9000005    1    3    3    0    0 -0.11838220627E+02  0.60068214342E+02  0.23452276606E+03  0.24238453260E+03  0.10000000000E+01 0.  0.
<mgrwt>
<rscale>  0 0.12499811E+03</rscale>
<asrwt>0</asrwt>
<pdfrwt beam="1">  1        4 0.61123962E-01 0.12499811E+03</pdfrwt>
<pdfrwt beam="2">  1       -4 0.15125463E-02 0.12499811E+03</pdfrwt>
<totfact> 0.63867158E+03</totfact>
</mgrwt>
</event>
<event>
 5    1  0.3294152E-002  0.1249945E+03  0.7818608E-02  0.1235078E+00
          4   -1    0    0  501    0  0.00000000000E+00  0.00000000000E+00  0.22933998927E+02  0.22969135960E+02  0.12700000000E+01 0. -1.
         -4   -1    0    0    0  501 -0.00000000000E+00 -0.00000000000E+00 -0.17014299544E+03  0.17014773521E+03  0.12700000000E+01 0. -1.
         25    2    1    2    0    0  0.00000000000E+00  0.00000000000E+00 -0.14720899651E+03  0.19311687117E+03  0.12499454899E+03 0.  0.
    9000005    1    3    3    0    0  0.49764839798E+02 -0.37762832355E+02 -0.75967155605E+02  0.98359440413E+02  0.10000000000E+01 0.  0.
    9000005    1    3    3    0    0 -0.49764839798E+02  0.37762832355E+02 -0.71241840904E+02  0.94757430754E+02  0.10000000000E+01 0.  0.
<mgrwt>
<rscale>  0 0.12499455E+03</rscale>
<asrwt>0</asrwt>
<pdfrwt beam="1">  1        4 0.35313751E-02 0.12499455E+03</pdfrwt>
<pdfrwt beam="2">  1       -4 0.26178912E-01 0.12499455E+03</pdfrwt>
<totfact> 0.91318947E+03</totfact>
</mgrwt>
</event>
<event>
 5    1  0.3294152E-002  0.1250001E+03  0.7818608E-02  0.1235069E+00
         -4   -1    0    0    0  501 -0.00000000000E+00  0.00000000000E+00  0.25869971377E+02  0.25901125826E+02  0.12700000000E+01 0.  1.
          4   -1    0    0  501    0  0.00000000000E+00 -0.00000000000E+00 -0.15087115609E+03  0.15087650128E+03  0.12700000000E+01 0.  1.
         25    2    1    2    0    0  0.00000000000E+00  0.00000000000E+00 -0.12500118471E+03  0.17677762711E+03  0.12500013307E+03 0.  0.
    9000005    1    3    3    0    0 -0.53948977237E+01  0.10198365663E+02 -0.14935885010E+03  0.14980713496E+03  0.10000000000E+01 0.  0.
    9000005    1    3    3    0    0  0.53948977237E+01 -0.10198365663E+02  0.24357665385E+02  0.26970492147E+02  0.10000000000E+01 0.  0.
<mgrwt>
<rscale>  0 0.12500013E+03</rscale>
<asrwt>0</asrwt>
<pdfrwt beam="2">  1        4 0.23213754E-01 0.12500013E+03</pdfrwt>
<pdfrwt beam="1">  1       -4 0.39828034E-02 0.12500013E+03</pdfrwt>
<totfact> 0.94199997E+03</totfact>
</mgrwt>
</event>
<event>
 5    1  0.3294152E-002  0.1249996E+03  0.7818608E-02  0.1235070E+00
          4   -1    0    0  501    0  0.00000000000E+00  0.00000000000E+00  0.98059875756E+02  0.98068099468E+02  0.12700000000E+01 0.  1.
         -4   -1    0    0    0  501 -0.00000000000E+00 -0.00000000000E+00 -0.39815067117E+02  0.39835316862E+02  0.12700000000E+01 0.  1.
         25    2    1    2    0    0  0.00000000000E+00  0.00000000000E+00  0.58244808640E+02  0.13790341633E+03  0.12499957801E+03 0.  0.
    9000005    1    3    3    0    0  0.51360234293E+02  0.25566825376E+02  0.56452432618E+02  0.80494803403E+02  0.10000000000E+01 0.  0.
    9000005    1    3    3    0    0 -0.51360234293E+02 -0.25566825376E+02  0.17923760215E+01  0.57408612927E+02  0.10000000000E+01 0.  0.
<mgrwt>
<rscale>  0 0.12499958E+03</rscale>
<asrwt>0</asrwt>
<pdfrwt beam="1">  1        4 0.15088325E-01 0.12499958E+03</pdfrwt>
<pdfrwt beam="2">  1       -4 0.61275853E-02 0.12499958E+03</pdfrwt>
<totfact> 0.10177321E+04</totfact>
</mgrwt>
</event>
<event>
 5    1  0.3294152E-002  0.1249986E+03  0.7818608E-02  0.1235072E+00
         -4   -1    0    0    0  501 -0.00000000000E+00  0.00000000000E+00  0.99134776259E+02  0.99142910810E+02  0.12700000000E+01 0.  1.
          4   -1    0    0  501    0  0.00000000000E+00 -0.00000000000E+00 -0.39382531461E+02  0.39403003493E+02  0.12700000000E+01 0.  1.
         25    2    1    2    0    0  0.00000000000E+00  0.00000000000E+00  0.59752244798E+02  0.13854591430E+03  0.12499855844E+03 0.  0.
    9000005    1    3    3    0    0  0.22617765230E+02 -0.13671385383E+02  0.92641073547E+02  0.96342299070E+02  0.10000000000E+01 0.  0.
    9000005    1    3    3    0    0 -0.22617765230E+02  0.13671385383E+02 -0.32888828749E+02  0.42203615233E+02  0.10000000000E+01 0.  0.
<mgrwt>
<rscale>  0 0.12499856E+03</rscale>
<asrwt>0</asrwt>
<pdfrwt beam="2">  1        4 0.60610516E-02 0.12499856E+03</pdfrwt>
<pdfrwt beam="1">  1       -4 0.15253704E-01 0.12499856E+03</pdfrwt>
<totfact> 0.10164142E+04</totfact>
</mgrwt>
</event>
<event>
 5    1  0.3294152E-002  0.1250040E+03  0.7818608E-02  0.1235063E+00
          4   -1    0    0  501    0  0.00000000000E+00  0.00000000000E+00  0.93105292404E+03  0.93105379021E+03  0.12700000000E+01 0.  1.
         -4   -1    0    0    0  501 -0.00000000000E+00 -0.00000000000E+00 -0.40987963082E+01  0.42910408033E+01  0.12700000000E+01 0.  1.
         25    2    1    2    0    0  0.00000000000E+00  0.00000000000E+00  0.92695412773E+03  0.93534483101E+03  0.12500399187E+03 0.  0.
    9000005    1    3    3    0    0 -0.25069529012E+02  0.33596242815E+02  0.81029089758E+03  0.81137508436E+03  0.10000000000E+01 0.  0.
    9000005    1    3    3    0    0  0.25069529012E+02 -0.33596242815E+02  0.11666323015E+03  0.12396974665E+03  0.10000000000E+01 0.  0.
<mgrwt>
<rscale>  0 0.12500399E+03</rscale>
<asrwt>0</asrwt>
<pdfrwt beam="1">  1        4 0.14325375E+00 0.12500399E+03</pdfrwt>
<pdfrwt beam="2">  1       -4 0.64543876E-03 0.12500399E+03</pdfrwt>
<totfact> 0.32839212E+03</totfact>
</mgrwt>
</event>
<event>
 5    1  0.3294152E-002  0.1250005E+03  0.7818608E-02  0.1235068E+00
         -4   -1    0    0    0  501 -0.00000000000E+00  0.00000000000E+00  0.26125498966E+03  0.26125807648E+03  0.12700000000E+01 0.  1.
          4   -1    0    0  501    0  0.00000000000E+00 -0.00000000000E+00 -0.14921843756E+02  0.14975791167E+02  0.12700000000E+01 0.  1.
         25    2    1    2    0    0  0.00000000000E+00  0.00000000000E+00  0.24633314591E+03  0.27623386764E+03  0.12500052344E+03 0.  0.
    9000005    1    3    3    0    0 -0.60601682767E+02 -0.90686415138E+01  0.96058270531E+02  0.11394294866E+03  0.10000000000E+01 0.  0.
    9000005    1    3    3    0    0  0.60601682767E+02  0.90686415138E+01  0.15027487538E+03  0.16229091898E+03  0.10000000000E+01 0.  0.
<mgrwt>
<rscale>  0 0.12500052E+03</rscale>
<asrwt>0</asrwt>
<pdfrwt beam="2">  1        4 0.23000557E-02 0.12500052E+03</pdfrwt>
<pdfrwt beam="1">  1       -4 0.40197459E-01 0.12500052E+03</pdfrwt>
<totfact> 0.78679217E+03</totfact>
</mgrwt>
</event>
<event>
 5    1  0.3294152E-002  0.1249989E+03  0.7818608E-02  0.1235071E+00
          4   -1    0    0  501    0  0.00000000000E+00  0.00000000000E+00  0.46852530708E+02  0.46869740065E+02  0.12700000000E+01 0.  1.
         -4   -1    0    0    0  501 -0.00000000000E+00 -0.00000000000E+00 -0.83334412307E+02  0.83344089020E+02  0.12700000000E+01 0.  1.
         25    2    1    2    0    0  0.00000000000E+00  0.00000000000E+00 -0.36481881599E+02  0.13021382908E+03  0.12499885439E+03 0.  0.
    9000005    1    3    3    0    0  0.55134396283E+02 -0.17524968407E+02  0.63721588553E+01  0.58211086398E+02  0.10000000000E+01 0.  0.
    9000005    1    3    3    0    0 -0.55134396283E+02  0.17524968407E+02 -0.42854040454E+02  0.72002742687E+02  0.10000000000E+01 0.  0.
<mgrwt>
<rscale>  0 0.12499885E+03</rscale>
<asrwt>0</asrwt>
<pdfrwt beam="1">  1        4 0.72101498E-02 0.12499885E+03</pdfrwt>
<pdfrwt beam="2">  1       -4 0.12822747E-01 0.12499885E+03</pdfrwt>
<totfact> 0.10340203E+04</totfact>
</mgrwt>
</event>
<event>
 5    1  0.3294152E-002  0.1250003E+03  0.7818608E-02  0.1235069E+00
          4   -1    0    0  501    0  0.00000000000E+00  0.00000000000E+00  0.52921873481E+03  0.52922025865E+03  0.12700000000E+01 0.  1.
         -4   -1    0    0    0  501 -0.00000000000E+00 -0.00000000000E+00 -0.73250288546E+01  0.74343088260E+01  0.12700000000E+01 0.  1.
         25    2    1    2    0    0  0.00000000000E+00  0.00000000000E+00  0.52189370595E+03  0.53665456748E+03  0.12500033794E+03 0.  0.
    9000005    1    3    3    0    0 -0.33825657900E+02 -0.26689457510E+02  0.66621205360E+02  0.79346627390E+02  0.10000000000E+01 0.  0.
    9000005    1    3    3    0    0  0.33825657900E+02  0.26689457510E+02  0.45527250059E+03  0.45730794009E+03  0.10000000000E+01 0.  0.
<mgrwt>
<rscale>  0 0.12500034E+03</rscale>
<asrwt>0</asrwt>
<pdfrwt beam="1">  1        4 0.81426826E-01 0.12500034E+03</pdfrwt>
<pdfrwt beam="2">  1       -4 0.11354504E-02 0.12500034E+03</pdfrwt>
<totfact> 0.53128096E+03</totfact>
</mgrwt>
</event>
<event>
 5    1  0.3294152E-002  0.1249993E+03  0.7818608E-02  0.1235070E+00
         -4   -1    0    0    0  501 -0.00000000000E+00  0.00000000000E+00  0.70743907357E+03  0.70744021353E+03  0.12700000000E+01 0.  1.
          4   -1    0    0  501    0  0.00000000000E+00 -0.00000000000E+00 -0.54474276312E+01  0.55935112226E+01  0.12700000000E+01 0.  1.
         25    2    1    2    0    0  0.00000000000E+00  0.00000000000E+00  0.70199164594E+03  0.71303372475E+03  0.12499928664E+03 0.  0.
    9000005    1    3    3    0    0 -0.21208758757E+02 -0.11531409056E+02  0.67979433274E+03  0.68022358064E+03  0.10000000000E+01 0.  0.
    9000005    1    3    3    0    0  0.21208758757E+02  0.11531409056E+02  0.22197313204E+02  0.32810144107E+02  0.10000000000E+01 0.  0.
<mgrwt>
<rscale>  0 0.12499929E+03</rscale>
<asrwt>0</asrwt>
<pdfrwt beam="2">  1        4 0.84939123E-03 0.12499929E+03</pdfrwt>
<pdfrwt beam="1">  1       -4 0.10884803E+00 0.12499929E+03</pdfrwt>
<totfact> 0.42408223E+03</totfact>
</mgrwt>
</event>
<event>
 5    1  0.3294152E-002  0.1249977E+03  0.7818608E-02  0.1235073E+00
         -4   -1    0    0    0  501 -0.00000000000E+00  0.00000000000E+00  0.18743553145E+03  0.18743983395E+03  0.12700000000E+01 0.  1.
          4   -1    0    0  501    0  0.00000000000E+00 -0.00000000000E+00 -0.20815845146E+02  0.20854551281E+02  0.12700000000E+01 0.  1.
         25    2    1    2    0    0  0.00000000000E+00  0.00000000000E+00  0.16661968631E+03  0.20829438523E+03  0.12499772419E+03 0.  0.
    9000005    1    3    3    0    0 -0.19469892899E+02  0.19761829437E+02  0.17662000404E+03  0.17878823355E+03  0.10000000000E+01 0.  0.
    9000005    1    3    3    0    0  0.19469892899E+02 -0.19761829437E+02 -0.10000317727E+02  0.29506151678E+02  0.10000000000E+01 0.  0.
<mgrwt>
<rscale>  0 0.12499772E+03</rscale>
<asrwt>0</asrwt>
<pdfrwt beam="2">  1        4 0.32057460E-02 0.12499772E+03</pdfrwt>
<pdfrwt beam="1">  1       -4 0.28839544E-01 0.12499772E+03</pdfrwt>
<totfact> 0.88759706E+03</totfact>
</mgrwt>
</event>
<event>
 5    1  0.3294152E-002  0.1249994E+03  0.7818608E-02  0.1235070E+00
          4   -1    0    0  501    0  0.00000000000E+00  0.00000000000E+00  0.56488342355E+03  0.56488485118E+03  0.12700000000E+01 0.  1.
         -4   -1    0    0    0  501 -0.00000000000E+00 -0.00000000000E+00 -0.68553121525E+01  0.69719584557E+01  0.12700000000E+01 0.  1.
         25    2    1    2    0    0  0.00000000000E+00  0.00000000000E+00  0.55802811139E+03  0.57185680964E+03  0.12499935050E+03 0.  0.
    9000005    1    3    3    0    0  0.58114298127E+01  0.44528638116E+02  0.47783118388E+03  0.47993771744E+03  0.10000000000E+01 0.  0.
    9000005    1    3    3    0    0 -0.58114298127E+01 -0.44528638116E+02  0.80196927509E+02  0.91919092200E+02  0.10000000000E+01 0.  0.
<mgrwt>
<rscale>  0 0.12499935E+03</rscale>
<asrwt>0</asrwt>
<pdfrwt beam="1">  1        4 0.86914244E-01 0.12499935E+03</pdfrwt>
<pdfrwt beam="2">  1       -4 0.10637458E-02 0.12499935E+03</pdfrwt>
<totfact> 0.50694397E+03</totfact>
</mgrwt>
</event>
<event>
 5    1  0.3294152E-002  0.1249985E+03  0.7818608E-02  0.1235072E+00
          4   -1    0    0  501    0  0.00000000000E+00  0.00000000000E+00  0.16777442255E+02  0.16825441112E+02  0.12700000000E+01 0.  1.
         -4   -1    0    0    0  501 -0.00000000000E+00 -0.00000000000E+00 -0.23243974001E+03  0.23244320948E+03  0.12700000000E+01 0.  1.
         25    2    1    2    0    0  0.00000000000E+00  0.00000000000E+00 -0.21566229775E+03  0.24926865059E+03  0.12499853398E+03 0.  0.
    9000005    1    3    3    0    0  0.32701039057E+02  0.41198765145E+02 -0.17511673580E+03  0.18284848198E+03  0.10000000000E+01 0.  0.
    9000005    1    3    3    0    0 -0.32701039057E+02 -0.41198765145E+02 -0.40545561951E+02  0.66420168615E+02  0.10000000000E+01 0.  0.
<mgrwt>
<rscale>  0 0.12499853E+03</rscale>
<asrwt>0</asrwt>
<pdfrwt beam="1">  1        4 0.25851042E-02 0.12499853E+03</pdfrwt>
<pdfrwt beam="2">  1       -4 0.35763917E-01 0.12499853E+03</pdfrwt>
<totfact> 0.82438739E+03</totfact>
</mgrwt>
</event>
<event>
 5    1  0.3294152E-002  0.1250013E+03  0.7818608E-02  0.1235067E+00
         -4   -1    0    0    0  501 -0.00000000000E+00  0.00000000000E+00  0.25679622456E+01  0.28648438168E+01  0.12700000000E+01 0.  1.
          4   -1    0    0  501    0  0.00000000000E+00 -0.00000000000E+00 -0.14377549318E+04  0.14377554927E+04  0.12700000000E+01 0.  1.
         25    2    1    2    0    0  0.00000000000E+00  0.00000000000E+00 -0.14351869696E+04  0.14406203365E+04  0.12500126573E+03 0.  0.
    9000005    1    3    3    0    0  0.87252253575E+01  0.12807783297E+01 -0.45827203471E+01  0.99885572757E+01  0.10000000000E+01 0.  0.
    9000005    1    3    3    0    0 -0.87252253575E+01 -0.12807783297E+01 -0.14306042492E+04  0.14306317792E+04  0.10000000000E+01 0.  0.
<mgrwt>
<rscale>  0 0.12500127E+03</rscale>
<asrwt>0</asrwt>
<pdfrwt beam="2">  1        4 0.22121534E+00 0.12500127E+03</pdfrwt>
<pdfrwt beam="1">  1       -4 0.41795245E-03 0.12500127E+03</pdfrwt>
<totfact> 0.19125224E+03</totfact>
</mgrwt>
</event>
<event>
 5    1  0.3294152E-002  0.1249986E+03  0.7818608E-02  0.1235071E+00
          4   -1    0    0  501    0  0.00000000000E+00  0.00000000000E+00  0.28966758867E+02  0.28994586034E+02  0.12700000000E+01 0.  1.
         -4   -1    0    0    0  501 -0.00000000000E+00 -0.00000000000E+00 -0.13475425408E+03  0.13476023854E+03  0.12700000000E+01 0.  1.
         25    2    1    2    0    0  0.00000000000E+00  0.00000000000E+00 -0.10578749521E+03  0.16375482457E+03  0.12499859371E+03 0.  0.
    9000005    1    3    3    0    0 -0.28452091007E+02  0.42625101692E+02 -0.60469047060E+01  0.51613814366E+02  0.10000000000E+01 0.  0.
    9000005    1    3    3    0    0  0.28452091007E+02 -0.42625101692E+02 -0.99740590503E+02  0.11214101021E+03  0.10000000000E+01 0.  0.
<mgrwt>
<rscale>  0 0.12499859E+03</rscale>
<asrwt>0</asrwt>
<pdfrwt beam="1">  1        4 0.44590254E-02 0.12499859E+03</pdfrwt>
<pdfrwt beam="2">  1       -4 0.20734024E-01 0.12499859E+03</pdfrwt>
<totfact> 0.96626783E+03</totfact>
</mgrwt>
</event>
<event>
 5    1  0.3294152E-002  0.1249995E+03  0.7818608E-02  0.1235070E+00
          4   -1    0    0  501    0  0.00000000000E+00  0.00000000000E+00  0.63112538001E+02  0.63125314676E+02  0.12700000000E+01 0.  1.
         -4   -1    0    0    0  501 -0.00000000000E+00 -0.00000000000E+00 -0.61867341981E+02  0.61880375757E+02  0.12700000000E+01 0.  1.
         25    2    1    2    0    0  0.00000000000E+00  0.00000000000E+00  0.12451960192E+01  0.12500569043E+03  0.12499948851E+03 0.  0.
    9000005    1    3    3    0    0  0.43642488656E+02 -0.44578163004E+02 -0.30297878592E+01  0.62466463382E+02  0.10000000000E+01 0.  0.
    9000005    1    3    3    0    0 -0.43642488656E+02  0.44578163004E+02  0.42749838783E+01  0.62539227051E+02  0.10000000000E+01 0.  0.
<mgrwt>
<rscale>  0 0.12499949E+03</rscale>
<asrwt>0</asrwt>
<pdfrwt beam="1">  1        4 0.97116067E-02 0.12499949E+03</pdfrwt>
<pdfrwt beam="2">  1       -4 0.95200380E-02 0.12499949E+03</pdfrwt>
<totfact> 0.10452860E+04</totfact>
</mgrwt>
</event>
<event>
 5    1  0.3294152E-002  0.1250041E+03  0.7818608E-02  0.1235063E+00
         -4   -1    0    0    0  501 -0.00000000000E+00  0.00000000000E+00  0.38395299263E+02  0.38416297394E+02  0.12700000000E+01 0.  1.
          4   -1    0    0  501    0  0.00000000000E+00 -0.00000000000E+00 -0.10169156118E+03  0.10169949123E+03  0.12700000000E+01 0.  1.
         25    2    1    2    0    0  0.00000000000E+00  0.00000000000E+00 -0.63296261921E+02  0.14011578862E+03  0.12500406973E+03 0.  0.
    9000005    1    3    3    0    0  0.47113934677E+02  0.40491955513E+01  0.14149313675E+02  0.49369240452E+02  0.10000000000E+01 0.  0.
    9000005    1    3    3    0    0 -0.47113934677E+02 -0.40491955513E+01 -0.77445575596E+02  0.90746548170E+02  0.10000000000E+01 0.  0.
<mgrwt>
<rscale>  0 0.12500407E+03</rscale>
<asrwt>0</asrwt>
<pdfrwt beam="2">  1        4 0.15647081E-01 0.12500407E+03</pdfrwt>
<pdfrwt beam="1">  1       -4 0.59091944E-02 0.12500407E+03</pdfrwt>
<totfact> 0.10130258E+04</totfact>
</mgrwt>
</event>
<event>
 5    1  0.3294152E-002  0.1250071E+03  0.7818608E-02  0.1235058E+00
          4   -1    0    0  501    0  0.00000000000E+00  0.00000000000E+00  0.75139569334E+02  0.75150301261E+02  0.12700000000E+01 0. -1.
         -4   -1    0    0    0  501 -0.00000000000E+00 -0.00000000000E+00 -0.51970305448E+02  0.51985820647E+02  0.12700000000E+01 0. -1.
         25    2    1    2    0    0  0.00000000000E+00  0.00000000000E+00  0.23169263886E+02  0.12713612191E+03  0.12500711462E+03 0.  0.
    9000005    1    3    3    0    0 -0.57007365567E+02  0.14976664245E+02  0.32712323171E+02  0.67418367586E+02  0.10000000000E+01 0.  0.
    9000005    1    3    3    0    0  0.57007365567E+02 -0.14976664245E+02 -0.95430592850E+01  0.59717754322E+02  0.10000000000E+01 0.  0.
<mgrwt>
<rscale>  0 0.12500711E+03</rscale>
<asrwt>0</asrwt>
<pdfrwt beam="1">  1        4 0.11561953E-01 0.12500711E+03</pdfrwt>
<pdfrwt beam="2">  1       -4 0.79974506E-02 0.12500711E+03</pdfrwt>
<totfact> 0.10404519E+04</totfact>
</mgrwt>
</event>
<event>
 5    1  0.3294152E-002  0.1249977E+03  0.7818608E-02  0.1235073E+00
         -4   -1    0    0    0  501 -0.00000000000E+00  0.00000000000E+00  0.44678833330E+02  0.44696879620E+02  0.12700000000E+01 0.  1.
          4   -1    0    0  501    0  0.00000000000E+00 -0.00000000000E+00 -0.87386069786E+02  0.87395297886E+02  0.12700000000E+01 0.  1.
         25    2    1    2    0    0  0.00000000000E+00  0.00000000000E+00 -0.42707236455E+02  0.13209217751E+03  0.12499774123E+03 0.  0.
    9000005    1    3    3    0    0  0.49242637733E+02 -0.10174934861E+02  0.17856778815E+02  0.53368822547E+02  0.10000000000E+01 0.  0.
    9000005    1    3    3    0    0 -0.49242637733E+02  0.10174934861E+02 -0.60564015270E+02  0.78723354959E+02  0.10000000000E+01 0.  0.
<mgrwt>
<rscale>  0 0.12499774E+03</rscale>
<asrwt>0</asrwt>
<pdfrwt beam="2">  1        4 0.13446109E-01 0.12499774E+03</pdfrwt>
<pdfrwt beam="1">  1       -4 0.68757647E-02 0.12499774E+03</pdfrwt>
<totfact> 0.10300256E+04</totfact>
</mgrwt>
</event>
<event>
 5    1  0.3294152E-002  0.1250008E+03  0.7818608E-02  0.1235068E+00
          4   -1    0    0  501    0  0.00000000000E+00  0.00000000000E+00  0.27343202747E+02  0.27372680477E+02  0.12700000000E+01 0. -1.
         -4   -1    0    0    0  501 -0.00000000000E+00 -0.00000000000E+00 -0.14275259251E+03  0.14275824168E+03  0.12700000000E+01 0. -1.
         25    2    1    2    0    0  0.00000000000E+00  0.00000000000E+00 -0.11540938976E+03  0.17013092216E+03  0.12500081371E+03 0.  0.
    9000005    1    3    3    0    0  0.56534525458E+02 -0.24254506668E+02 -0.42741489486E+02  0.74915075826E+02  0.10000000000E+01 0.  0.
    9000005    1    3    3    0    0 -0.56534525458E+02  0.24254506668E+02 -0.72667900276E+02  0.95215846333E+02  0.10000000000E+01 0.  0.
<mgrwt>
<rscale>  0 0.12500081E+03</rscale>
<asrwt>0</asrwt>
<pdfrwt beam="1">  1        4 0.42093487E-02 0.12500081E+03</pdfrwt>
<pdfrwt beam="2">  1       -4 0.21964639E-01 0.12500081E+03</pdfrwt>
<totfact> 0.95422497E+03</totfact>
</mgrwt>
</event>
<event>
 5    1  0.3294152E-002  0.1250026E+03  0.7818608E-02  0.1235065E+00
          4   -1    0    0  501    0  0.00000000000E+00  0.00000000000E+00  0.58931910106E+02  0.58945592955E+02  0.12700000000E+01 0. -1.
         -4   -1    0    0    0  501 -0.00000000000E+00 -0.00000000000E+00 -0.66259460492E+02  0.66271630466E+02  0.12700000000E+01 0. -1.
         25    2    1    2    0    0  0.00000000000E+00  0.00000000000E+00 -0.73275503853E+01  0.12521722342E+03  0.12500264016E+03 0.  0.
    9000005    1    3    3    0    0  0.12479644688E+02  0.49214222859E+02 -0.40163032339E+02  0.64744501155E+02  0.10000000000E+01 0.  0.
    9000005    1    3    3    0    0 -0.12479644688E+02 -0.49214222859E+02  0.32835481954E+02  0.60472722266E+02  0.10000000000E+01 0.  0.
<mgrwt>
<rscale>  0 0.12500264E+03</rscale>
<asrwt>0</asrwt>
<pdfrwt beam="1">  1        4 0.90684364E-02 0.12500264E+03</pdfrwt>
<pdfrwt beam="2">  1       -4 0.10195752E-01 0.12500264E+03</pdfrwt>
<totfact> 0.10447523E+04</totfact>
</mgrwt>
</event>
<event>
 5    1  0.3294152E-002  0.1250002E+03  0.7818608E-02  0.1235069E+00
          4   -1    0    0  501    0  0.00000000000E+00  0.00000000000E+00  0.29031303889E+02  0.29059069247E+02  0.12700000000E+01 0. -1.
         -4   -1    0    0    0  501 -0.00000000000E+00 -0.00000000000E+00 -0.13445845380E+03  0.13446445143E+03  0.12700000000E+01 0. -1.
         25    2    1    2    0    0  0.00000000000E+00  0.00000000000E+00 -0.10542714991E+03  0.16352352068E+03  0.12500023150E+03 0.  0.
    9000005    1    3    3    0    0  0.20971604075E+02  0.95669873722E+01  0.23273090044E+02  0.32771514232E+02  0.10000000000E+01 0.  0.
    9000005    1    3    3    0    0 -0.20971604075E+02 -0.95669873722E+01 -0.12870023996E+03  0.13075200645E+03  0.10000000000E+01 0.  0.
<mgrwt>
<rscale>  0 0.12500023E+03</rscale>
<asrwt>0</asrwt>
<pdfrwt beam="1">  1        4 0.44689517E-02 0.12500023E+03</pdfrwt>
<pdfrwt beam="2">  1       -4 0.20688513E-01 0.12500023E+03</pdfrwt>
<totfact> 0.96667244E+03</totfact>
</mgrwt>
</event>
<event>
 5    1  0.3294152E-002  0.1249985E+03  0.7818608E-02  0.1235072E+00
          4   -1    0    0  501    0  0.00000000000E+00  0.00000000000E+00  0.34871411665E+02  0.34894530396E+02  0.12700000000E+01 0.  1.
         -4   -1    0    0    0  501 -0.00000000000E+00 -0.00000000000E+00 -0.11195223006E+03  0.11195943335E+03  0.12700000000E+01 0.  1.
         25    2    1    2    0    0  0.00000000000E+00  0.00000000000E+00 -0.77080818394E+02  0.14685396374E+03  0.12499853640E+03 0.  0.
    9000005    1    3    3    0    0 -0.16494326164E+02 -0.52600997346E+02 -0.73118225123E+02  0.91576211772E+02  0.10000000000E+01 0.  0.
    9000005    1    3    3    0    0  0.16494326164E+02  0.52600997346E+02 -0.39625932708E+01  0.55277751970E+02  0.10000000000E+01 0.  0.
<mgrwt>
<rscale>  0 0.12499854E+03</rscale>
<asrwt>0</asrwt>
<pdfrwt beam="1">  1        4 0.53671651E-02 0.12499854E+03</pdfrwt>
<pdfrwt beam="2">  1       -4 0.17225752E-01 0.12499854E+03</pdfrwt>
<totfact> 0.99937844E+03</totfact>
</mgrwt>
</event>
<event>
 5    1  0.3294152E-002  0.1249986E+03  0.7818608E-02  0.1235072E+00
          4   -1    0    0  501    0  0.00000000000E+00  0.00000000000E+00  0.16239497743E+03  0.16239994333E+03  0.12700000000E+01 0.  1.
         -4   -1    0    0    0  501 -0.00000000000E+00 -0.00000000000E+00 -0.24031349758E+02  0.24064884608E+02  0.12700000000E+01 0.  1.
         25    2    1    2    0    0  0.00000000000E+00  0.00000000000E+00  0.13836362767E+03  0.18646482794E+03  0.12499855438E+03 0.  0.
    9000005    1    3    3    0    0 -0.26181448268E+02  0.50097893865E+02  0.29436291228E+02  0.63739802670E+02  0.10000000000E+01 0.  0.
    9000005    1    3    3    0    0  0.26181448268E+02 -0.50097893865E+02  0.10892733644E+03  0.12272502527E+03  0.10000000000E+01 0.  0.
<mgrwt>
<rscale>  0 0.12499855E+03</rscale>
<asrwt>0</asrwt>
<pdfrwt beam="1">  1        4 0.24986805E-01 0.12499855E+03</pdfrwt>
<pdfrwt beam="2">  1       -4 0.37000922E-02 0.12499855E+03</pdfrwt>
<totfact> 0.92469081E+03</totfact>
</mgrwt>
</event>
<event>
 5    1  0.3294152E-002  0.1249899E+03  0.7818608E-02  0.1235085E+00
          4   -1    0    0  501    0  0.00000000000E+00  0.00000000000E+00  0.15062987503E+02  0.15116431210E+02  0.12700000000E+01 0. -1.
         -4   -1    0    0    0  501 -0.00000000000E+00 -0.00000000000E+00 -0.25877174535E+03  0.25877486178E+03  0.12700000000E+01 0. -1.
         25    2    1    2    0    0  0.00000000000E+00  0.00000000000E+00 -0.24370875785E+03  0.27389129299E+03  0.12498992650E+03 0.  0.
    9000005    1    3    3    0    0 -0.20786569448E+02  0.57989272911E+02 -0.14481433938E+03  0.15737544323E+03  0.10000000000E+01 0.  0.
    9000005    1    3    3    0    0  0.20786569448E+02 -0.57989272911E+02 -0.98894418471E+02  0.11651584977E+03  0.10000000000E+01 0.  0.
<mgrwt>
<rscale>  0 0.12498993E+03</rscale>
<asrwt>0</asrwt>
<pdfrwt beam="1">  1        4 0.23217337E-02 0.12498993E+03</pdfrwt>
<pdfrwt beam="2">  1       -4 0.39815385E-01 0.12498993E+03</pdfrwt>
<totfact> 0.79012810E+03</totfact>
</mgrwt>
</event>
<event>
 5    1  0.3294152E-002  0.1249991E+03  0.7818608E-02  0.1235071E+00
          4   -1    0    0  501    0  0.00000000000E+00  0.00000000000E+00  0.89408755251E+02  0.89417774606E+02  0.12700000000E+01 0.  1.
         -4   -1    0    0    0  501 -0.00000000000E+00 -0.00000000000E+00 -0.43668714382E+02  0.43687177934E+02  0.12700000000E+01 0.  1.
         25    2    1    2    0    0  0.00000000000E+00  0.00000000000E+00  0.45740040868E+02  0.13310495254E+03  0.12499910820E+03 0.  0.
    9000005    1    3    3    0    0 -0.27068599733E+02 -0.51022752355E+02 -0.25342062184E+01  0.57822595502E+02  0.10000000000E+01 0.  0.
    9000005    1    3    3    0    0  0.27068599733E+02  0.51022752355E+02  0.48274247087E+02  0.75282357038E+02  0.10000000000E+01 0.  0.
<mgrwt>
<rscale>  0 0.12499911E+03</rscale>
<asrwt>0</asrwt>
<pdfrwt beam="1">  1        4 0.13757307E-01 0.12499911E+03</pdfrwt>
<pdfrwt beam="2">  1       -4 0.67203779E-02 0.12499911E+03</pdfrwt>
<totfact> 0.10278377E+04</totfact>
</mgrwt>
</event>
<event>
 5    1  0.3294152E-002  0.1249915E+03  0.7818608E-02  0.1235082E+00
          4   -1    0    0  501    0  0.00000000000E+00  0.00000000000E+00  0.29800995559E+02  0.29828044460E+02  0.12700000000E+01 0.  1.
         -4   -1    0    0    0  501 -0.00000000000E+00 -0.00000000000E+00 -0.13097052560E+03  0.13097668294E+03  0.12700000000E+01 0.  1.
         25    2    1    2    0    0  0.00000000000E+00  0.00000000000E+00 -0.10116953004E+03  0.16080472740E+03  0.12499154590E+03 0.  0.
    9000005    1    3    3    0    0  0.38718371286E+02  0.38501280709E+02 -0.11493442982E+02  0.55808244219E+02  0.10000000000E+01 0.  0.
    9000005    1    3    3    0    0 -0.38718371286E+02 -0.38501280709E+02 -0.89676087056E+02  0.10499648318E+03  0.10000000000E+01 0.  0.
<mgrwt>
<rscale>  0 0.12499155E+03</rscale>
<asrwt>0</asrwt>
<pdfrwt beam="1">  1        4 0.45873230E-02 0.12499155E+03</pdfrwt>
<pdfrwt beam="2">  1       -4 0.20151866E-01 0.12499155E+03</pdfrwt>
<totfact> 0.97206333E+03</totfact>
</mgrwt>
</event>
<event>
 5    1  0.3294152E-002  0.1249929E+03  0.7818608E-02  0.1235080E+00
         -4   -1    0    0    0  501 -0.00000000000E+00  0.00000000000E+00  0.77021521190E+02  0.77031990929E+02  0.12700000000E+01 0. -1.
          4   -1    0    0  501    0  0.00000000000E+00 -0.00000000000E+00 -0.50688751025E+02  0.50704658371E+02  0.12700000000E+01 0. -1.
         25    2    1    2    0    0  0.00000000000E+00  0.00000000000E+00  0.26332770165E+02  0.12773664930E+03  0.12499294696E+03 0.  0.
    9000005    1    3    3    0    0  0.45176591414E+02 -0.42574277112E+02  0.20487128749E+02  0.65377487928E+02  0.10000000000E+01 0.  0.
    9000005    1    3    3    0    0 -0.45176591414E+02  0.42574277112E+02  0.58456414165E+01  0.62359161372E+02  0.10000000000E+01 0.  0.
<mgrwt>
<rscale>  0 0.12499295E+03</rscale>
<asrwt>0</asrwt>
<pdfrwt beam="2">  1        4 0.78002984E-02 0.12499295E+03</pdfrwt>
<pdfrwt beam="1">  1       -4 0.11851494E-01 0.12499295E+03</pdfrwt>
<totfact> 0.10394834E+04</totfact>
</mgrwt>
</event>
<event>
 5    1  0.3294152E-002  0.1249966E+03  0.7818608E-02  0.1235075E+00
          4   -1    0    0  501    0  0.00000000000E+00  0.00000000000E+00  0.63881630869E+01  0.65131810681E+01  0.12700000000E+01 0. -1.
         -4   -1    0    0    0  501 -0.00000000000E+00 -0.00000000000E+00 -0.60539870058E+03  0.60540003268E+03  0.12700000000E+01 0. -1.
         25    2    1    2    0    0  0.00000000000E+00  0.00000000000E+00 -0.59901053750E+03  0.61191321375E+03  0.12499662846E+03 0.  0.
    9000005    1    3    3    0    0  0.44247570558E+02  0.23785217315E+02 -0.48145856946E+03  0.48407327769E+03  0.10000000000E+01 0.  0.
    9000005    1    3    3    0    0 -0.44247570558E+02 -0.23785217315E+02 -0.11755196804E+03  0.12783993606E+03  0.10000000000E+01 0.  0.
<mgrwt>
<rscale>  0 0.12499663E+03</rscale>
<asrwt>0</asrwt>
<pdfrwt beam="1">  1        4 0.99251404E-03 0.12499663E+03</pdfrwt>
<pdfrwt beam="2">  1       -4 0.93147936E-01 0.12499663E+03</pdfrwt>
<totfact> 0.48127721E+03</totfact>
</mgrwt>
</event>
<event>
 5    1  0.3294152E-002  0.1250082E+03  0.7818608E-02  0.1235057E+00
         -4   -1    0    0    0  501 -0.00000000000E+00  0.00000000000E+00  0.85320407577E+02  0.85329859071E+02  0.12700000000E+01 0.  1.
          4   -1    0    0  501    0  0.00000000000E+00 -0.00000000000E+00 -0.45768485232E+02  0.45786102044E+02  0.12700000000E+01 0.  1.
         25    2    1    2    0    0  0.00000000000E+00  0.00000000000E+00  0.39551922346E+02  0.13111596112E+03  0.12500816253E+03 0.  0.
    9000005    1    3    3    0    0  0.18050420294E+02 -0.35394525717E+01 -0.42870132376E+02  0.46660407705E+02  0.10000000000E+01 0.  0.
    9000005    1    3    3    0    0 -0.18050420294E+02  0.35394525717E+01  0.82422054722E+02  0.84455553410E+02  0.10000000000E+01 0.  0.
<mgrwt>
<rscale>  0 0.12500816E+03</rscale>
<asrwt>0</asrwt>
<pdfrwt beam="2">  1        4 0.70433876E-02 0.12500816E+03</pdfrwt>
<pdfrwt beam="1">  1       -4 0.13128299E-01 0.12500816E+03</pdfrwt>
<totfact> 0.10318704E+04</totfact>
</mgrwt>
</event>
<event>
 5    1  0.3294152E-002  0.1249986E+03  0.7818608E-02  0.1235071E+00
         -4   -1    0    0    0  501 -0.00000000000E+00  0.00000000000E+00  0.12524670495E+02  0.12588894749E+02  0.12700000000E+01 0.  1.
          4   -1    0    0  501    0  0.00000000000E+00 -0.00000000000E+00 -0.31101456344E+03  0.31101715640E+03  0.12700000000E+01 0.  1.
         25    2    1    2    0    0  0.00000000000E+00  0.00000000000E+00 -0.29848989295E+03  0.32360605115E+03  0.12499864058E+03 0.  0.
    9000005    1    3    3    0    0 -0.46156687480E+02  0.33595962547E+02 -0.83442826661E+02  0.10110803044E+03  0.10000000000E+01 0.  0.
    9000005    1    3    3    0    0  0.46156687480E+02 -0.33595962547E+02 -0.21504706629E+03  0.22249802070E+03  0.10000000000E+01 0.  0.
<mgrwt>
<rscale>  0 0.12499864E+03</rscale>
<asrwt>0</asrwt>
<pdfrwt beam="2">  1        4 0.47853528E-01 0.12499864E+03</pdfrwt>
<pdfrwt beam="1">  1       -4 0.19320124E-02 0.12499864E+03</pdfrwt>
<totfact> 0.72731470E+03</totfact>
</mgrwt>
</event>
<event>
 5    1  0.3294152E-002  0.1249998E+03  0.7818608E-02  0.1235070E+00
          4   -1    0    0  501    0  0.00000000000E+00  0.00000000000E+00  0.75919936542E+02  0.75930558173E+02  0.12700000000E+01 0. -1.
         -4   -1    0    0    0  501 -0.00000000000E+00 -0.00000000000E+00 -0.51429973406E+02  0.51445651561E+02  0.12700000000E+01 0. -1.
         25    2    1    2    0    0  0.00000000000E+00  0.00000000000E+00  0.24489963136E+02  0.12737620973E+03  0.12499976205E+03 0.  0.
    9000005    1    3    3    0    0  0.28821739683E+02  0.49657789385E+02 -0.12894809574E+02  0.58854607627E+02  0.10000000000E+01 0.  0.
    9000005    1    3    3    0    0 -0.28821739683E+02 -0.49657789385E+02  0.37384772709E+02  0.68521602108E+02  0.10000000000E+01 0.  0.
<mgrwt>
<rscale>  0 0.12499976E+03</rscale>
<asrwt>0</asrwt>
<pdfrwt beam="1">  1        4 0.11682013E-01 0.12499976E+03</pdfrwt>
<pdfrwt beam="2">  1       -4 0.79143267E-02 0.12499976E+03</pdfrwt>
<totfact> 0.10401038E+04</totfact>
</mgrwt>
</event>
<event>
 4    1  0.3294152E-002  0.1251212E+03  0.7818608E-02  0.1234880E+00
          4   -1    0    0  501    0  0.00000000000E+00  0.00000000000E+00  0.11805400284E+02  0.11873515733E+02  0.12700000000E+01 0. -1.
         -4   -1    0    0    0  501 -0.00000000000E+00 -0.00000000000E+00 -0.33050556858E+03  0.33050800862E+03  0.12700000000E+01 0. -1.
    9000005    1    1    2    0    0 -0.18539841469E+02 -0.23124108767E+01 -0.32270543999E+03  0.32324738818E+03  0.10000000000E+01 0.  0.
    9000005    1    1    2    0    0  0.18539841469E+02  0.23124108767E+01  0.40052716941E+01  0.19134136174E+02  0.10000000000E+01 0.  0.
<mgrwt>
<rscale>  0 0.12512119E+03</rscale>
<asrwt>0</asrwt>
<pdfrwt beam="1">  1        4 0.18216430E-02 0.12512119E+03</pdfrwt>
<pdfrwt beam="2">  1       -4 0.50852431E-01 0.12512119E+03</pdfrwt>
<totfact> 0.70381893E+03</totfact>
</mgrwt>
</event>
<event>
 5    1  0.3294152E-002  0.1250002E+03  0.7818608E-02  0.1235069E+00
         -4   -1    0    0    0  501 -0.00000000000E+00  0.00000000000E+00  0.13315911335E+03  0.13316516950E+03  0.12700000000E+01 0.  1.
          4   -1    0    0  501    0  0.00000000000E+00 -0.00000000000E+00 -0.29314813352E+02  0.29342310438E+02  0.12700000000E+01 0.  1.
         25    2    1    2    0    0  0.00000000000E+00  0.00000000000E+00  0.10384430000E+03  0.16250747994E+03  0.12500016958E+03 0.  0.
    9000005    1    3    3    0    0  0.51254455048E+02  0.34948575801E+02  0.42120842763E+02  0.74990582794E+02  0.10000000000E+01 0.  0.
    9000005    1    3    3    0    0 -0.51254455048E+02 -0.34948575801E+02  0.61723457235E+02  0.87516897145E+02  0.10000000000E+01 0.  0.
<mgrwt>
<rscale>  0 0.12500017E+03</rscale>
<asrwt>0</asrwt>
<pdfrwt beam="2">  1        4 0.45125523E-02 0.12500017E+03</pdfrwt>
<pdfrwt beam="1">  1       -4 0.20488599E-01 0.12500017E+03</pdfrwt>
<totfact> 0.96861160E+03</totfact>
</mgrwt>
</event>
<event>
 5    1  0.3294152E-002  0.1249967E+03  0.7818608E-02  0.1235075E+00
          4   -1    0    0  501    0  0.00000000000E+00  0.00000000000E+00  0.44959638070E+02  0.44977571693E+02  0.12700000000E+01 0.  1.
         -4   -1    0    0    0  501 -0.00000000000E+00 -0.00000000000E+00 -0.86838940245E+02  0.86848226481E+02  0.12700000000E+01 0.  1.
         25    2    1    2    0    0  0.00000000000E+00  0.00000000000E+00 -0.41879302175E+02  0.13182579817E+03  0.12499666041E+03 0.  0.
    9000005    1    3    3    0    0 -0.10052564525E+02  0.58719187417E+02 -0.40839692961E+02  0.72234877626E+02  0.10000000000E+01 0.  0.
    9000005    1    3    3    0    0  0.10052564525E+02 -0.58719187417E+02 -0.10396092136E+01  0.59590920548E+02  0.10000000000E+01 0.  0.
<mgrwt>
<rscale>  0 0.12499666E+03</rscale>
<asrwt>0</asrwt>
<pdfrwt beam="1">  1        4 0.69189612E-02 0.12499666E+03</pdfrwt>
<pdfrwt beam="2">  1       -4 0.13361931E-01 0.12499666E+03</pdfrwt>
<totfact> 0.10306194E+04</totfact>
</mgrwt>
</event>
<event>
 5    1  0.3294152E-002  0.1250022E+03  0.7818608E-02  0.1235066E+00
         -4   -1    0    0    0  501 -0.00000000000E+00  0.00000000000E+00  0.63011707464E+02  0.63024504580E+02  0.12700000000E+01 0. -1.
          4   -1    0    0  501    0  0.00000000000E+00 -0.00000000000E+00 -0.61969070374E+02  0.61982082758E+02  0.12700000000E+01 0. -1.
         25    2    1    2    0    0  0.00000000000E+00  0.00000000000E+00  0.10426370906E+01  0.12500658734E+03  0.12500223912E+03 0.  0.
    9000005    1    3    3    0    0  0.48748562121E+02 -0.35462838683E+02  0.16994739219E+02  0.62640692823E+02  0.10000000000E+01 0.  0.
    9000005    1    3    3    0    0 -0.48748562121E+02  0.35462838683E+02 -0.15952102128E+02  0.62365894514E+02  0.10000000000E+01 0.  0.
<mgrwt>
<rscale>  0 0.12500224E+03</rscale>
<asrwt>0</asrwt>
<pdfrwt beam="2">  1        4 0.95356885E-02 0.12500224E+03</pdfrwt>
<pdfrwt beam="1">  1       -4 0.96960941E-02 0.12500224E+03</pdfrwt>
<totfact> 0.10452190E+04</totfact>
</mgrwt>
</event>
<event>
 5    1  0.3294152E-002  0.1249969E+03  0.7818608E-02  0.1235074E+00
          4   -1    0    0  501    0  0.00000000000E+00  0.00000000000E+00  0.77655750815E+01  0.78687391841E+01  0.12700000000E+01 0. -1.
         -4   -1    0    0    0  501 -0.00000000000E+00 -0.00000000000E+00 -0.49957375288E+03  0.49957536716E+03  0.12700000000E+01 0. -1.
         25    2    1    2    0    0  0.00000000000E+00  0.00000000000E+00 -0.49180817780E+03  0.50744410634E+03  0.12499694919E+03 0.  0.
    9000005    1    3    3    0    0 -0.26000427172E+02  0.33559051080E-01 -0.15215962324E+02  0.30142144064E+02  0.10000000000E+01 0.  0.
    9000005    1    3    3    0    0  0.26000427172E+02 -0.33559051080E-01 -0.47659221548E+03  0.47730196228E+03  0.10000000000E+01 0.  0.
<mgrwt>
<rscale>  0 0.12499695E+03</rscale>
<asrwt>0</asrwt>
<pdfrwt beam="1">  1        4 0.12027641E-02 0.12499695E+03</pdfrwt>
<pdfrwt beam="2">  1       -4 0.76865535E-01 0.12499695E+03</pdfrwt>
<totfact> 0.55295105E+03</totfact>
</mgrwt>
</event>
<event>
 5    1  0.3294152E-002  0.1250126E+03  0.7818608E-02  0.1235050E+00
         -4   -1    0    0    0  501 -0.00000000000E+00  0.00000000000E+00  0.91516353144E+01  0.92393359571E+01  0.12700000000E+01 0. -1.
          4   -1    0    0  501    0  0.00000000000E+00 -0.00000000000E+00 -0.42479808757E+03  0.42479998600E+03  0.12700000000E+01 0. -1.
         25    2    1    2    0    0  0.00000000000E+00  0.00000000000E+00 -0.41564645226E+03  0.43403932196E+03  0.12501263828E+03 0.  0.
    9000005    1    3    3    0    0  0.47313018058E+02  0.22435473920E+02 -0.89360167792E+02  0.10357659849E+03  0.10000000000E+01 0.  0.
    9000005    1    3    3    0    0 -0.47313018058E+02 -0.22435473920E+02 -0.32628628447E+03  0.33046272346E+03  0.10000000000E+01 0.  0.
<mgrwt>
<rscale>  0 0.12501264E+03</rscale>
<asrwt>0</asrwt>
<pdfrwt beam="2">  1        4 0.65360429E-01 0.12501264E+03</pdfrwt>
<pdfrwt beam="1">  1       -4 0.14148365E-02 0.12501264E+03</pdfrwt>
<totfact> 0.61354462E+03</totfact>
</mgrwt>
</event>
<event>
 5    1  0.3294152E-002  0.1249995E+03  0.7818608E-02  0.1235070E+00
          4   -1    0    0  501    0  0.00000000000E+00  0.00000000000E+00  0.63883897287E+01  0.65134033596E+01  0.12700000000E+01 0. -1.
         -4   -1    0    0    0  501 -0.00000000000E+00 -0.00000000000E+00 -0.60540593398E+03  0.60540726606E+03  0.12700000000E+01 0. -1.
         25    2    1    2    0    0  0.00000000000E+00  0.00000000000E+00 -0.59901754425E+03  0.61192066942E+03  0.12499954937E+03 0.  0.
    9000005    1    3    3    0    0  0.24760056520E+02  0.48250245035E+02 -0.45150826945E+03  0.45475472941E+03  0.10000000000E+01 0.  0.
    9000005    1    3    3    0    0 -0.24760056520E+02 -0.48250245035E+02 -0.14750927480E+03  0.15716594001E+03  0.10000000000E+01 0.  0.
<mgrwt>
<rscale>  0 0.12499955E+03</rscale>
<asrwt>0</asrwt>
<pdfrwt beam="1">  1        4 0.99254857E-03 0.12499955E+03</pdfrwt>
<pdfrwt beam="2">  1       -4 0.93149048E-01 0.12499955E+03</pdfrwt>
<totfact> 0.48124179E+03</totfact>
</mgrwt>
</event>
<event>
 5    1  0.3294152E-002  0.1250039E+03  0.7818608E-02  0.1235063E+00
          4   -1    0    0  501    0  0.00000000000E+00  0.00000000000E+00  0.36481381681E+02  0.36503480784E+02  0.12700000000E+01 0.  1.
         -4   -1    0    0    0  501 -0.00000000000E+00 -0.00000000000E+00 -0.10702351005E+03  0.10703104504E+03  0.12700000000E+01 0.  1.
         25    2    1    2    0    0  0.00000000000E+00  0.00000000000E+00 -0.70542128365E+02  0.14353452583E+03  0.12500387286E+03 0.  0.
    9000005    1    3    3    0    0 -0.66483502002E+01  0.47893679965E+02 -0.80731633758E+02  0.94109520402E+02  0.10000000000E+01 0.  0.
    9000005    1    3    3    0    0  0.66483502002E+01 -0.47893679965E+02  0.10189505393E+02  0.49425005424E+02  0.10000000000E+01 0.  0.
<mgrwt>
<rscale>  0 0.12500387E+03</rscale>
<asrwt>0</asrwt>
<pdfrwt beam="1">  1        4 0.56147998E-02 0.12500387E+03</pdfrwt>
<pdfrwt beam="2">  1       -4 0.16467435E-01 0.12500387E+03</pdfrwt>
<totfact> 0.10059971E+04</totfact>
</mgrwt>
</event>
<event>
 5    1  0.3294152E-002  0.1249998E+03  0.7818608E-02  0.1235070E+00
         -4   -1    0    0    0  501 -0.00000000000E+00  0.00000000000E+00  0.33970947534E+03  0.33971184927E+03  0.12700000000E+01 0. -1.
          4   -1    0    0  501    0  0.00000000000E+00 -0.00000000000E+00 -0.11461276857E+02  0.11531425202E+02  0.12700000000E+01 0. -1.
         25    2    1    2    0    0  0.00000000000E+00  0.00000000000E+00  0.32824819848E+03  0.35124327447E+03  0.12499983223E+03 0.  0.
    9000005    1    3    3    0    0 -0.29939838794E+02 -0.19141518284E+02  0.30856886177E+03  0.31060993886E+03  0.10000000000E+01 0.  0.
    9000005    1    3    3    0    0  0.29939838794E+02  0.19141518284E+02  0.19679336715E+02  0.40633335609E+02  0.10000000000E+01 0.  0.
<mgrwt>
<rscale>  0 0.12499983E+03</rscale>
<asrwt>0</asrwt>
<pdfrwt beam="2">  1        4 0.17688523E-02 0.12499983E+03</pdfrwt>
<pdfrwt beam="1">  1       -4 0.52268566E-01 0.12499983E+03</pdfrwt>
<totfact> 0.69588259E+03</totfact>
</mgrwt>
</event>
<event>
 5    1  0.3294152E-002  0.1250019E+03  0.7818608E-02  0.1235066E+00
         -4   -1    0    0    0  501 -0.00000000000E+00  0.00000000000E+00  0.21858899593E+02  0.21895761951E+02  0.12700000000E+01 0. -1.
          4   -1    0    0  501    0  0.00000000000E+00 -0.00000000000E+00 -0.17851864586E+03  0.17852316326E+03  0.12700000000E+01 0. -1.
         25    2    1    2    0    0  0.00000000000E+00  0.00000000000E+00 -0.15665974627E+03  0.20041892521E+03  0.12500187791E+03 0.  0.
    9000005    1    3    3    0    0 -0.33033255262E+02 -0.18549429670E+02 -0.15801524189E+03  0.16249644293E+03  0.10000000000E+01 0.  0.
    9000005    1    3    3    0    0  0.33033255262E+02  0.18549429670E+02  0.13554956201E+01  0.37922482285E+02  0.10000000000E+01 0.  0.
<mgrwt>
<rscale>  0 0.12500188E+03</rscale>
<asrwt>0</asrwt>
<pdfrwt beam="2">  1        4 0.27467589E-01 0.12500188E+03</pdfrwt>
<pdfrwt beam="1">  1       -4 0.33660908E-02 0.12500188E+03</pdfrwt>
<totfact> 0.90061115E+03</totfact>
</mgrwt>
</event>
<event>
 5    1  0.3294152E-002  0.1249948E+03  0.7818608E-02  0.1235077E+00
          4   -1    0    0  501    0  0.00000000000E+00  0.00000000000E+00  0.45409815986E+03  0.45409993579E+03  0.12700000000E+01 0. -1.
         -4   -1    0    0    0  501 -0.00000000000E+00 -0.00000000000E+00 -0.85528125628E+01  0.86465890810E+01  0.12700000000E+01 0. -1.
         25    2    1    2    0    0  0.00000000000E+00  0.00000000000E+00  0.44554534730E+03  0.46274652487E+03  0.12499475903E+03 0.  0.
    9000005    1    3    3    0    0 -0.41112421706E+02  0.45225345044E+02  0.27095147682E+03  0.27776116691E+03  0.10000000000E+01 0.  0.
    9000005    1    3    3    0    0  0.41112421706E+02 -0.45225345044E+02  0.17459387048E+03  0.18498535796E+03  0.10000000000E+01 0.  0.
<mgrwt>
<rscale>  0 0.12499476E+03</rscale>
<asrwt>0</asrwt>
<pdfrwt beam="1">  1        4 0.69868617E-01 0.12499476E+03</pdfrwt>
<pdfrwt beam="2">  1       -4 0.13231673E-02 0.12499476E+03</pdfrwt>
<totfact> 0.58882039E+03</totfact>
</mgrwt>
</event>
<event>
 5    1  0.3294152E-002  0.1249986E+03  0.7818608E-02  0.1235071E+00
          4   -1    0    0  501    0  0.00000000000E+00  0.00000000000E+00  0.73131434446E+01  0.74225984023E+01  0.12700000000E+01 0.  1.
         -4   -1    0    0    0  501 -0.00000000000E+00 -0.00000000000E+00 -0.53005157092E+03  0.53005309237E+03  0.12700000000E+01 0.  1.
         25    2    1    2    0    0  0.00000000000E+00  0.00000000000E+00 -0.52273842747E+03  0.53747569077E+03  0.12499861845E+03 0.  0.
    9000005    1    3    3    0    0 -0.43760234503E+02  0.35714325117E+02 -0.37632033963E+03  0.38053707988E+03  0.10000000000E+01 0.  0.
    9000005    1    3    3    0    0  0.43760234503E+02 -0.35714325117E+02 -0.14641808784E+03  0.15693861089E+03  0.10000000000E+01 0.  0.
<mgrwt>
<rscale>  0 0.12499862E+03</rscale>
<asrwt>0</asrwt>
<pdfrwt beam="1">  1        4 0.11336361E-02 0.12499862E+03</pdfrwt>
<pdfrwt beam="2">  1       -4 0.81554902E-01 0.12499862E+03</pdfrwt>
<totfact> 0.53071227E+03</totfact>
</mgrwt>
</event>
<event>
 5    1  0.3294152E-002  0.1249985E+03  0.7818608E-02  0.1235072E+00
         -4   -1    0    0    0  501 -0.00000000000E+00  0.00000000000E+00  0.52834447173E+01  0.54339385423E+01  0.12700000000E+01 0. -1.
          4   -1    0    0  501    0  0.00000000000E+00 -0.00000000000E+00 -0.72878725726E+03  0.72878836383E+03  0.12700000000E+01 0. -1.
         25    2    1    2    0    0  0.00000000000E+00  0.00000000000E+00 -0.72350381255E+03  0.73422230237E+03  0.12499849010E+03 0.  0.
    9000005    1    3    3    0    0  0.78892623682E+01  0.36742601191E+02 -0.68476987644E+02  0.78117584702E+02  0.10000000000E+01 0.  0.
    9000005    1    3    3    0    0 -0.78892623682E+01 -0.36742601191E+02 -0.65502682490E+03  0.65610471767E+03  0.10000000000E+01 0.  0.
<mgrwt>
<rscale>  0 0.12499849E+03</rscale>
<asrwt>0</asrwt>
<pdfrwt beam="2">  1        4 0.11213270E+00 0.12499849E+03</pdfrwt>
<pdfrwt beam="1">  1       -4 0.82449979E-03 0.12499849E+03</pdfrwt>
<totfact> 0.41341782E+03</totfact>
</mgrwt>
</event>
<event>
 5    1  0.3294152E-002  0.1250030E+03  0.7818608E-02  0.1235065E+00
          4   -1    0    0  501    0  0.00000000000E+00  0.00000000000E+00  0.40745550035E+02  0.40765337575E+02  0.12700000000E+01 0.  1.
         -4   -1    0    0    0  501 -0.00000000000E+00 -0.00000000000E+00 -0.95826678264E+02  0.95835093609E+02  0.12700000000E+01 0.  1.
         25    2    1    2    0    0  0.00000000000E+00  0.00000000000E+00 -0.55081128229E+02  0.13660043118E+03  0.12500298842E+03 0.  0.
    9000005    1    3    3    0    0 -0.11108787828E+02 -0.25953334339E+02 -0.88466756853E+02  0.92867366703E+02  0.10000000000E+01 0.  0.
    9000005    1    3    3    0    0  0.11108787828E+02  0.25953334339E+02  0.33385628624E+02  0.43733064481E+02  0.10000000000E+01 0.  0.
<mgrwt>
<rscale>  0 0.12500299E+03</rscale>
<asrwt>0</asrwt>
<pdfrwt beam="1">  1        4 0.62707156E-02 0.12500299E+03</pdfrwt>
<pdfrwt beam="2">  1       -4 0.14744735E-01 0.12500299E+03</pdfrwt>
<totfact> 0.10203759E+04</totfact>
</mgrwt>
</event>
<event>
 5    1  0.3294152E-002  0.1250011E+03  0.7818608E-02  0.1235067E+00
          4   -1    0    0  501    0  0.00000000000E+00  0.00000000000E+00  0.47868439936E+02  0.47885284190E+02  0.12700000000E+01 0. -1.
         -4   -1    0    0    0  501 -0.00000000000E+00 -0.00000000000E+00 -0.81569226535E+02  0.81579112630E+02  0.12700000000E+01 0. -1.
         25    2    1    2    0    0  0.00000000000E+00  0.00000000000E+00 -0.33700786599E+02  0.12946439682E+03  0.12500114810E+03 0.  0.
    9000005    1    3    3    0    0 -0.22954148831E+02 -0.50661497476E+02  0.12659794236E+02  0.57050422130E+02  0.10000000000E+01 0.  0.
    9000005    1    3    3    0    0  0.22954148831E+02  0.50661497476E+02 -0.46360580835E+02  0.72413974690E+02  0.10000000000E+01 0.  0.
<mgrwt>
<rscale>  0 0.12500115E+03</rscale>
<asrwt>0</asrwt>
<pdfrwt beam="1">  1        4 0.73664316E-02 0.12500115E+03</pdfrwt>
<pdfrwt beam="2">  1       -4 0.12551168E-01 0.12500115E+03</pdfrwt>
<totfact> 0.10355710E+04</totfact>
</mgrwt>
</event>
<event>
 5    1  0.3294152E-002  0.1249914E+03  0.7818608E-02  0.1235083E+00
          4   -1    0    0  501    0  0.00000000000E+00  0.00000000000E+00  0.27952516287E+02  0.27981352126E+02  0.12700000000E+01 0.  1.
         -4   -1    0    0    0  501 -0.00000000000E+00 -0.00000000000E+00 -0.13962286791E+03  0.13962864371E+03  0.12700000000E+01 0.  1.
         25    2    1    2    0    0  0.00000000000E+00  0.00000000000E+00 -0.11167035163E+03  0.16760999584E+03  0.12499137279E+03 0.  0.
    9000005    1    3    3    0    0 -0.24223171038E+02  0.51830561985E+02 -0.89534475445E+02  0.10625719488E+03  0.10000000000E+01 0.  0.
    9000005    1    3    3    0    0  0.24223171038E+02 -0.51830561985E+02 -0.22135876181E+02  0.61352800956E+02  0.10000000000E+01 0.  0.
<mgrwt>
<rscale>  0 0.12499137E+03</rscale>
<asrwt>0</asrwt>
<pdfrwt beam="1">  1        4 0.43030496E-02 0.12499137E+03</pdfrwt>
<pdfrwt beam="2">  1       -4 0.21483103E-01 0.12499137E+03</pdfrwt>
<totfact> 0.95913954E+03</totfact>
</mgrwt>
</event>
<event>
 5    1  0.3294152E-002  0.1249921E+03  0.7818608E-02  0.1235082E+00
          4   -1    0    0  501    0  0.00000000000E+00  0.00000000000E+00  0.20549405540E+02  0.20588612582E+02  0.12700000000E+01 0. -1.
         -4   -1    0    0    0  501 -0.00000000000E+00 -0.00000000000E+00 -0.18984426844E+03  0.18984851635E+03  0.12700000000E+01 0. -1.
         25    2    1    2    0    0  0.00000000000E+00  0.00000000000E+00 -0.16929486290E+03  0.21043712893E+03  0.12499213826E+03 0.  0.
    9000005    1    3    3    0    0 -0.18653487741E+02 -0.48731155789E+02 -0.26762809904E+02  0.58650883569E+02  0.10000000000E+01 0.  0.
    9000005    1    3    3    0    0  0.18653487741E+02  0.48731155789E+02 -0.14253205299E+03  0.15178624536E+03  0.10000000000E+01 0.  0.
<mgrwt>
<rscale>  0 0.12499214E+03</rscale>
<asrwt>0</asrwt>
<pdfrwt beam="1">  1        4 0.31647898E-02 0.12499214E+03</pdfrwt>
<pdfrwt beam="2">  1       -4 0.29210152E-01 0.12499214E+03</pdfrwt>
<totfact> 0.88420082E+03</totfact>
</mgrwt>
</event>
<event>
 5    1  0.3294152E-002  0.1250041E+03  0.7818608E-02  0.1235063E+00
         -4   -1    0    0    0  501 -0.00000000000E+00  0.00000000000E+00  0.14088710430E+03  0.14089282827E+03  0.12700000000E+01 0.  1.
          4   -1    0    0  501    0  0.00000000000E+00 -0.00000000000E+00 -0.27707070106E+02  0.27736161123E+02  0.12700000000E+01 0.  1.
         25    2    1    2    0    0  0.00000000000E+00  0.00000000000E+00  0.11318003419E+03  0.16862898939E+03  0.12500406363E+03 0.  0.
    9000005    1    3    3    0    0  0.35924774502E+02 -0.51122366910E+02  0.54983554517E+02  0.83236272675E+02  0.10000000000E+01 0.  0.
    9000005    1    3    3    0    0 -0.35924774502E+02  0.51122366910E+02  0.58196479672E+02  0.85392716714E+02  0.10000000000E+01 0.  0.
<mgrwt>
<rscale>  0 0.12500406E+03</rscale>
<asrwt>0</asrwt>
<pdfrwt beam="2">  1        4 0.42653042E-02 0.12500406E+03</pdfrwt>
<pdfrwt beam="1">  1       -4 0.21677617E-01 0.12500406E+03</pdfrwt>
<totfact> 0.95695766E+03</totfact>
</mgrwt>
</event>
<event>
 5    1  0.3294152E-002  0.1250041E+03  0.7818608E-02  0.1235063E+00
          4   -1    0    0  501    0  0.00000000000E+00  0.00000000000E+00  0.14752879577E+02  0.14807442582E+02  0.12700000000E+01 0.  1.
         -4   -1    0    0    0  501 -0.00000000000E+00 -0.00000000000E+00 -0.26425142721E+03  0.26425447903E+03  0.12700000000E+01 0.  1.
         25    2    1    2    0    0  0.00000000000E+00  0.00000000000E+00 -0.24949854764E+03  0.27906192161E+03  0.12500412320E+03 0.  0.
    9000005    1    3    3    0    0  0.36378024018E+02  0.50234962432E+02 -0.14183796607E+03  0.15480930431E+03  0.10000000000E+01 0.  0.
    9000005    1    3    3    0    0 -0.36378024018E+02 -0.50234962432E+02 -0.10766058157E+03  0.12425261730E+03  0.10000000000E+01 0.  0.
<mgrwt>
<rscale>  0 0.12500412E+03</rscale>
<asrwt>0</asrwt>
<pdfrwt beam="1">  1        4 0.22741059E-02 0.12500412E+03</pdfrwt>
<pdfrwt beam="2">  1       -4 0.40658494E-01 0.12500412E+03</pdfrwt>
<totfact> 0.78295477E+03</totfact>
</mgrwt>
</event>
<event>
 5    1  0.3294152E-002  0.1250068E+03  0.7818608E-02  0.1235059E+00
         -4   -1    0    0    0  501 -0.00000000000E+00  0.00000000000E+00  0.89848260699E+02  0.89857235940E+02  0.12700000000E+01 0.  1.
          4   -1    0    0  501    0  0.00000000000E+00 -0.00000000000E+00 -0.43460402422E+02  0.43478954434E+02  0.12700000000E+01 0.  1.
         25    2    1    2    0    0  0.00000000000E+00  0.00000000000E+00  0.46387858278E+02  0.13333619037E+03  0.12500682488E+03 0.  0.
    9000005    1    3    3    0    0 -0.45711810066E+01 -0.58530994642E+02  0.34451754890E+00  0.58718751025E+02  0.10000000000E+01 0.  0.
    9000005    1    3    3    0    0  0.45711810066E+01  0.58530994642E+02  0.46043340729E+02  0.74617439349E+02  0.10000000000E+01 0.  0.
<mgrwt>
<rscale>  0 0.12500682E+03</rscale>
<asrwt>0</asrwt>
<pdfrwt beam="2">  1        4 0.66883333E-02 0.12500682E+03</pdfrwt>
<pdfrwt beam="1">  1       -4 0.13824927E-01 0.12500682E+03</pdfrwt>
<totfact> 0.10271679E+04</totfact>
</mgrwt>
</event>
<event>
 5    1  0.3294152E-002  0.1249995E+03  0.7818608E-02  0.1235070E+00
         -4   -1    0    0    0  501 -0.00000000000E+00  0.00000000000E+00  0.54483870058E+02  0.54498669676E+02  0.12700000000E+01 0. -1.
          4   -1    0    0  501    0  0.00000000000E+00 -0.00000000000E+00 -0.71664847272E+02  0.71676099465E+02  0.12700000000E+01 0. -1.
         25    2    1    2    0    0  0.00000000000E+00  0.00000000000E+00 -0.17180977214E+02  0.12617476914E+03  0.12499954556E+03 0.  0.
    9000005    1    3    3    0    0 -0.46427065301E+02 -0.59221149101E+01 -0.50388473256E+02  0.68778936271E+02  0.10000000000E+01 0.  0.
    9000005    1    3    3    0    0  0.46427065301E+02  0.59221149101E+01  0.33207496042E+02  0.57395832870E+02  0.10000000000E+01 0.  0.
<mgrwt>
<rscale>  0 0.12499955E+03</rscale>
<asrwt>0</asrwt>
<pdfrwt beam="2">  1        4 0.11027365E-01 0.12499955E+03</pdfrwt>
<pdfrwt beam="1">  1       -4 0.83841378E-02 0.12499955E+03</pdfrwt>
<totfact> 0.10427238E+04</totfact>
</mgrwt>
</event>
<event>
 5    1  0.3294152E-002  0.1249996E+03  0.7818608E-02  0.1235070E+00
          4   -1    0    0  501    0  0.00000000000E+00  0.00000000000E+00  0.65483122739E+02  0.65495436968E+02  0.12700000000E+01 0.  1.
         -4   -1    0    0    0  501 -0.00000000000E+00 -0.00000000000E+00 -0.59627742544E+02  0.59641265756E+02  0.12700000000E+01 0.  1.
         25    2    1    2    0    0  0.00000000000E+00  0.00000000000E+00  0.58553801947E+01  0.12513670272E+03  0.12499963557E+03 0.  0.
    9000005    1    3    3    0    0  0.23816371067E+02  0.57731304639E+02  0.66597465796E+00  0.62462521470E+02  0.10000000000E+01 0.  0.
    9000005    1    3    3    0    0 -0.23816371067E+02 -0.57731304639E+02  0.51894055367E+01  0.62674181254E+02  0.10000000000E+01 0.  0.
<mgrwt>
<rscale>  0 0.12499964E+03</rscale>
<asrwt>0</asrwt>
<pdfrwt beam="1">  1        4 0.10076314E-01 0.12499964E+03</pdfrwt>
<pdfrwt beam="2">  1       -4 0.91754863E-02 0.12499964E+03</pdfrwt>
<totfact> 0.10449980E+04</totfact>
</mgrwt>
</event>
<event>
 5    1  0.3294152E-002  0.1249979E+03  0.7818608E-02  0.1235073E+00
         -4   -1    0    0    0  501 -0.00000000000E+00  0.00000000000E+00  0.62168591284E+02  0.62181561916E+02  0.12700000000E+01 0. -1.
          4   -1    0    0  501    0  0.00000000000E+00 -0.00000000000E+00 -0.62805102036E+02  0.62817941241E+02  0.12700000000E+01 0. -1.
         25    2    1    2    0    0  0.00000000000E+00  0.00000000000E+00 -0.63651075218E+00  0.12499950316E+03  0.12499788256E+03 0.  0.
    9000005    1    3    3    0    0  0.31509416780E+02 -0.33344825592E+02  0.42113379120E+02  0.62283685187E+02  0.10000000000E+01 0.  0.
    9000005    1    3    3    0    0 -0.31509416780E+02  0.33344825592E+02 -0.42749889872E+02  0.62715817970E+02  0.10000000000E+01 0.  0.
<mgrwt>
<rscale>  0 0.12499788E+03</rscale>
<asrwt>0</asrwt>
<pdfrwt beam="2">  1        4 0.96643088E-02 0.12499788E+03</pdfrwt>
<pdfrwt beam="1">  1       -4 0.95663840E-02 0.12499788E+03</pdfrwt>
<totfact> 0.10453374E+04</totfact>
</mgrwt>
</event>
<event>
 5    1  0.3294152E-002  0.1250011E+03  0.7818608E-02  0.1235068E+00
         -4   -1    0    0    0  501 -0.00000000000E+00  0.00000000000E+00  0.11280360276E+02  0.11351626665E+02  0.12700000000E+01 0. -1.
          4   -1    0    0  501    0  0.00000000000E+00 -0.00000000000E+00 -0.34513083172E+03  0.34513316836E+03  0.12700000000E+01 0. -1.
         25    2    1    2    0    0  0.00000000000E+00  0.00000000000E+00 -0.33385047144E+03  0.35648479503E+03  0.12500108720E+03 0.  0.
    9000005    1    3    3    0    0  0.31945570794E+02  0.23729722617E+02 -0.30433897307E+03  0.30693131114E+03  0.10000000000E+01 0.  0.
    9000005    1    3    3    0    0 -0.31945570794E+02 -0.23729722617E+02 -0.29511498368E+02  0.49553483881E+02  0.10000000000E+01 0.  0.
<mgrwt>
<rscale>  0 0.12500109E+03</rscale>
<asrwt>0</asrwt>
<pdfrwt beam="2">  1        4 0.53102705E-01 0.12500109E+03</pdfrwt>
<pdfrwt beam="1">  1       -4 0.17411021E-02 0.12500109E+03</pdfrwt>
<totfact> 0.69015336E+03</totfact>
</mgrwt>
</event>
<event>
 5    1  0.3294152E-002  0.1250292E+03  0.7818608E-02  0.1235024E+00
         -4   -1    0    0    0  501 -0.00000000000E+00  0.00000000000E+00  0.16885663462E+02  0.16933355561E+02  0.12700000000E+01 0. -1.
          4   -1    0    0  501    0  0.00000000000E+00 -0.00000000000E+00 -0.23106770102E+03  0.23107119109E+03  0.12700000000E+01 0. -1.
         25    2    1    2    0    0  0.00000000000E+00  0.00000000000E+00 -0.21418203755E+03  0.24800454665E+03  0.12502923638E+03 0.  0.
    9000005    1    3    3    0    0 -0.44332532006E+02 -0.41907190399E+02 -0.80075702599E+02  0.10067126774E+03  0.10000000000E+01 0.  0.
    9000005    1    3    3    0    0  0.44332532006E+02  0.41907190399E+02 -0.13410633495E+03  0.14733327892E+03  0.10000000000E+01 0.  0.
<mgrwt>
<rscale>  0 0.12502924E+03</rscale>
<asrwt>0</asrwt>
<pdfrwt beam="2">  1        4 0.35552812E-01 0.12502924E+03</pdfrwt>
<pdfrwt beam="1">  1       -4 0.26017316E-02 0.12502924E+03</pdfrwt>
<totfact> 0.82565698E+03</totfact>
</mgrwt>
</event>
<event>
 5    1  0.3294152E-002  0.1250013E+03  0.7818608E-02  0.1235067E+00
         -4   -1    0    0    0  501 -0.00000000000E+00  0.00000000000E+00  0.53107029833E+02  0.53122213034E+02  0.12700000000E+01 0. -1.
          4   -1    0    0  501    0  0.00000000000E+00 -0.00000000000E+00 -0.73524682420E+02  0.73535650027E+02  0.12700000000E+01 0. -1.
         25    2    1    2    0    0  0.00000000000E+00  0.00000000000E+00 -0.20417652587E+02  0.12665786306E+03  0.12500133495E+03 0.  0.
    9000005    1    3    3    0    0 -0.22218052381E+02  0.32965200121E+01  0.48880578887E+02  0.53803530443E+02  0.10000000000E+01 0.  0.
    9000005    1    3    3    0    0  0.22218052381E+02 -0.32965200121E+01 -0.69298231474E+02  0.72854332618E+02  0.10000000000E+01 0.  0.
<mgrwt>
<rscale>  0 0.12500133E+03</rscale>
<asrwt>0</asrwt>
<pdfrwt beam="2">  1        4 0.11313501E-01 0.12500133E+03</pdfrwt>
<pdfrwt beam="1">  1       -4 0.81723239E-02 0.12500133E+03</pdfrwt>
<totfact> 0.10416274E+04</totfact>
</mgrwt>
</event>
<event>
 5    1  0.3294152E-002  0.1250006E+03  0.7818608E-02  0.1235068E+00
          4   -1    0    0  501    0  0.00000000000E+00  0.00000000000E+00  0.40578997726E+02  0.40598866443E+02  0.12700000000E+01 0. -1.
         -4   -1    0    0    0  501 -0.00000000000E+00 -0.00000000000E+00 -0.96216099878E+02  0.96224481167E+02  0.12700000000E+01 0. -1.
         25    2    1    2    0    0  0.00000000000E+00  0.00000000000E+00 -0.55637102153E+02  0.13682334761E+03  0.12500056526E+03 0.  0.
    9000005    1    3    3    0    0 -0.61104816621E+02 -0.11602550996E+02 -0.21172399744E+02  0.65709118962E+02  0.10000000000E+01 0.  0.
    9000005    1    3    3    0    0  0.61104816621E+02  0.11602550996E+02 -0.34464702409E+02  0.71114228647E+02  0.10000000000E+01 0.  0.
<mgrwt>
<rscale>  0 0.12500057E+03</rscale>
<asrwt>0</asrwt>
<pdfrwt beam="1">  1        4 0.62450958E-02 0.12500057E+03</pdfrwt>
<pdfrwt beam="2">  1       -4 0.14804650E-01 0.12500057E+03</pdfrwt>
<totfact> 0.10199651E+04</totfact>
</mgrwt>
</event>
<event>
 5    1  0.3294152E-002  0.1250071E+03  0.7818608E-02  0.1235058E+00
          4   -1    0    0  501    0  0.00000000000E+00  0.00000000000E+00  0.16294161086E+02  0.16343579335E+02  0.12700000000E+01 0.  1.
         -4   -1    0    0    0  501 -0.00000000000E+00 -0.00000000000E+00 -0.23934602235E+03  0.23934939172E+03  0.12700000000E+01 0.  1.
         25    2    1    2    0    0  0.00000000000E+00  0.00000000000E+00 -0.22305186127E+03  0.25569297105E+03  0.12500705033E+03 0.  0.
    9000005    1    3    3    0    0 -0.31216045797E+02 -0.48557660552E+02 -0.16050541012E+03  0.17057337011E+03  0.10000000000E+01 0.  0.
    9000005    1    3    3    0    0  0.31216045797E+02  0.48557660552E+02 -0.62546451148E+02  0.85119600943E+02  0.10000000000E+01 0.  0.
<mgrwt>
<rscale>  0 0.12500705E+03</rscale>
<asrwt>0</asrwt>
<pdfrwt beam="1">  1        4 0.25108548E-02 0.12500705E+03</pdfrwt>
<pdfrwt beam="2">  1       -4 0.36826523E-01 0.12500705E+03</pdfrwt>
<totfact> 0.81501522E+03</totfact>
</mgrwt>
</event>
<event>
 5    1  0.3294152E-002  0.1250045E+03  0.7818608E-02  0.1235062E+00
          4   -1    0    0  501    0  0.00000000000E+00  0.00000000000E+00  0.61928583185E+03  0.61928713408E+03  0.12700000000E+01 0.  1.
         -4   -1    0    0    0  501 -0.00000000000E+00 -0.00000000000E+00 -0.62428762279E+01  0.63707459216E+01  0.12700000000E+01 0.  1.
         25    2    1    2    0    0  0.00000000000E+00  0.00000000000E+00  0.61304295562E+03  0.62565788000E+03  0.12500446937E+03 0.  0.
    9000005    1    3    3    0    0  0.42532641444E+02  0.34163690575E+02  0.15394060510E+03  0.16332450287E+03  0.10000000000E+01 0.  0.
    9000005    1    3    3    0    0 -0.42532641444E+02 -0.34163690575E+02  0.45910235053E+03  0.46233337712E+03  0.10000000000E+01 0.  0.
<mgrwt>
<rscale>  0 0.12500447E+03</rscale>
<asrwt>0</asrwt>
<pdfrwt beam="1">  1        4 0.95284710E-01 0.12500447E+03</pdfrwt>
<pdfrwt beam="2">  1       -4 0.97037849E-03 0.12500447E+03</pdfrwt>
<totfact> 0.47282412E+03</totfact>
</mgrwt>
</event>
<event>
 5    1  0.3294152E-002  0.1249990E+03  0.7818608E-02  0.1235071E+00
          4   -1    0    0  501    0  0.00000000000E+00  0.00000000000E+00  0.11940561655E+02  0.12007910419E+02  0.12700000000E+01 0.  1.
         -4   -1    0    0    0  501 -0.00000000000E+00 -0.00000000000E+00 -0.32614748791E+03  0.32614996056E+03  0.12700000000E+01 0.  1.
         25    2    1    2    0    0  0.00000000000E+00  0.00000000000E+00 -0.31420692626E+03  0.33815787098E+03  0.12499901278E+03 0.  0.
    9000005    1    3    3    0    0 -0.61281129841E+02 -0.11130185003E+02 -0.14332763943E+03  0.15627882172E+03  0.10000000000E+01 0.  0.
    9000005    1    3    3    0    0  0.61281129841E+02  0.11130185003E+02 -0.17087928682E+03  0.18187904926E+03  0.10000000000E+01 0.  0.
<mgrwt>
<rscale>  0 0.12499901E+03</rscale>
<asrwt>0</asrwt>
<pdfrwt beam="1">  1        4 0.18423806E-02 0.12499901E+03</pdfrwt>
<pdfrwt beam="2">  1       -4 0.50181901E-01 0.12499901E+03</pdfrwt>
<totfact> 0.71048844E+03</totfact>
</mgrwt>
</event>
<event>
 5    1  0.3294152E-002  0.1249949E+03  0.7818608E-02  0.1235077E+00
          4   -1    0    0  501    0  0.00000000000E+00  0.00000000000E+00  0.79156621775E+02  0.79166809149E+02  0.12700000000E+01 0. -1.
         -4   -1    0    0    0  501 -0.00000000000E+00 -0.00000000000E+00 -0.49322838082E+02  0.49339185811E+02  0.12700000000E+01 0. -1.
         25    2    1    2    0    0  0.00000000000E+00  0.00000000000E+00  0.29833783693E+02  0.12850599496E+03  0.12499494426E+03 0.  0.
    9000005    1    3    3    0    0 -0.54297563916E+02 -0.78822042292E+01 -0.15832773643E+02  0.57114195363E+02  0.10000000000E+01 0.  0.
    9000005    1    3    3    0    0  0.54297563916E+02  0.78822042292E+01  0.45666557336E+02  0.71391799597E+02  0.10000000000E+01 0.  0.
<mgrwt>
<rscale>  0 0.12499494E+03</rscale>
<asrwt>0</asrwt>
<pdfrwt beam="1">  1        4 0.12179983E-01 0.12499494E+03</pdfrwt>
<pdfrwt beam="2">  1       -4 0.75901702E-02 0.12499494E+03</pdfrwt>
<totfact> 0.10377759E+04</totfact>
</mgrwt>
</event>
<event>
 5    1  0.3294152E-002  0.1249997E+03  0.7818608E-02  0.1235070E+00
          4   -1    0    0  501    0  0.00000000000E+00  0.00000000000E+00  0.14793150886E+03  0.14793696027E+03  0.12700000000E+01 0. -1.
         -4   -1    0    0    0  501 -0.00000000000E+00 -0.00000000000E+00 -0.26384449736E+02  0.26414997404E+02  0.12700000000E+01 0. -1.
         25    2    1    2    0    0  0.00000000000E+00  0.00000000000E+00  0.12154705913E+03  0.17435195768E+03  0.12499967025E+03 0.  0.
    9000005    1    3    3    0    0 -0.56835137900E+02 -0.14298664152E+01  0.96956981454E+02  0.11240077255E+03  0.10000000000E+01 0.  0.
    9000005    1    3    3    0    0  0.56835137900E+02  0.14298664152E+01  0.24590077672E+02  0.61951185121E+02  0.10000000000E+01 0.  0.
<mgrwt>
<rscale>  0 0.12499967E+03</rscale>
<asrwt>0</asrwt>
<pdfrwt beam="1">  1        4 0.22761462E-01 0.12499967E+03</pdfrwt>
<pdfrwt beam="2">  1       -4 0.40619154E-02 0.12499967E+03</pdfrwt>
<totfact> 0.94644363E+03</totfact>
</mgrwt>
</event>
<event>
 5    1  0.3294152E-002  0.1250028E+03  0.7818608E-02  0.1235065E+00
          4   -1    0    0  501    0  0.00000000000E+00  0.00000000000E+00  0.91704096105E+02  0.91712889729E+02  0.12700000000E+01 0. -1.
         -4   -1    0    0    0  501 -0.00000000000E+00 -0.00000000000E+00 -0.42577878760E+02  0.42596815136E+02  0.12700000000E+01 0. -1.
         25    2    1    2    0    0  0.00000000000E+00  0.00000000000E+00  0.49126217345E+02  0.13430970486E+03  0.12500284633E+03 0.  0.
    9000005    1    3    3    0    0  0.13284043281E+02  0.30718710107E+02  0.81268619985E+02  0.87895924540E+02  0.10000000000E+01 0.  0.
    9000005    1    3    3    0    0 -0.13284043281E+02 -0.30718710107E+02 -0.32142402640E+02  0.46413780324E+02  0.10000000000E+01 0.  0.
<mgrwt>
<rscale>  0 0.12500285E+03</rscale>
<asrwt>0</asrwt>
<pdfrwt beam="1">  1        4 0.14110455E-01 0.12500285E+03</pdfrwt>
<pdfrwt beam="2">  1       -4 0.65525760E-02 0.12500285E+03</pdfrwt>
<totfact> 0.10251983E+04</totfact>
</mgrwt>
</event>
<event>
 5    1  0.3294152E-002  0.1249998E+03  0.7818608E-02  0.1235070E+00
          4   -1    0    0  501    0  0.00000000000E+00  0.00000000000E+00  0.29008270745E+02  0.29036058128E+02  0.12700000000E+01 0. -1.
         -4   -1    0    0    0  501 -0.00000000000E+00 -0.00000000000E+00 -0.13456409968E+03  0.13457009260E+03  0.12700000000E+01 0. -1.
         25    2    1    2    0    0  0.00000000000E+00  0.00000000000E+00 -0.10555582893E+03  0.16360615073E+03  0.12499975814E+03 0.  0.
    9000005    1    3    3    0    0 -0.21434262215E+02  0.54947873834E+02 -0.25746451776E+02  0.64362848093E+02  0.10000000000E+01 0.  0.
    9000005    1    3    3    0    0  0.21434262215E+02 -0.54947873834E+02 -0.79809377159E+02  0.99243302636E+02  0.10000000000E+01 0.  0.
<mgrwt>
<rscale>  0 0.12499976E+03</rscale>
<asrwt>0</asrwt>
<pdfrwt beam="1">  1        4 0.44654094E-02 0.12499976E+03</pdfrwt>
<pdfrwt beam="2">  1       -4 0.20704767E-01 0.12499976E+03</pdfrwt>
<totfact> 0.96652543E+03</totfact>
</mgrwt>
</event>
<event>
 5    1  0.3294152E-002  0.1250453E+03  0.7818608E-02  0.1234999E+00
          4   -1    0    0  501    0  0.00000000000E+00  0.00000000000E+00  0.16028448832E+02  0.16078683776E+02  0.12700000000E+01 0.  1.
         -4   -1    0    0    0  501 -0.00000000000E+00 -0.00000000000E+00 -0.24345030298E+03  0.24345361555E+03  0.12700000000E+01 0.  1.
         25    2    1    2    0    0  0.00000000000E+00  0.00000000000E+00 -0.22742185415E+03  0.25953229932E+03  0.12504525039E+03 0.  0.
    9000005    1    3    3    0    0  0.10279433137E+02 -0.59612454030E+02 -0.80975289186E+02  0.10108070478E+03  0.10000000000E+01 0.  0.
    9000005    1    3    3    0    0 -0.10279433137E+02  0.59612454030E+02 -0.14644656497E+03  0.15845159454E+03  0.10000000000E+01 0.  0.
<mgrwt>
<rscale>  0 0.12504525E+03</rscale>
<asrwt>0</asrwt>
<pdfrwt beam="1">  1        4 0.24700344E-02 0.12504525E+03</pdfrwt>
<pdfrwt beam="2">  1       -4 0.37458009E-01 0.12504525E+03</pdfrwt>
<totfact> 0.80890233E+03</totfact>
</mgrwt>
</event>
<event>
 5    1  0.3294152E-002  0.1249464E+03  0.7818608E-02  0.1235153E+00
         -4   -1    0    0    0  501 -0.00000000000E+00  0.00000000000E+00  0.61197845032E+01  0.62501729869E+01  0.12700000000E+01 0.  1.
          4   -1    0    0  501    0  0.00000000000E+00 -0.00000000000E+00 -0.63089802682E+03  0.63089930508E+03  0.12700000000E+01 0.  1.
         25    2    1    2    0    0  0.00000000000E+00  0.00000000000E+00 -0.62477824232E+03  0.63714947806E+03  0.12494640981E+03 0.  0.
    9000005    1    3    3    0    0  0.10698066381E+02  0.40658195742E+02 -0.76801874896E+02  0.87561781005E+02  0.10000000000E+01 0.  0.
    9000005    1    3    3    0    0 -0.10698066381E+02 -0.40658195742E+02 -0.54797636742E+03  0.54958769706E+03  0.10000000000E+01 0.  0.
<mgrwt>
<rscale>  0 0.12494641E+03</rscale>
<asrwt>0</asrwt>
<pdfrwt beam="2">  1        4 0.97071312E-01 0.12494641E+03</pdfrwt>
<pdfrwt beam="1">  1       -4 0.95163402E-03 0.12494641E+03</pdfrwt>
<totfact> 0.46658320E+03</totfact>
</mgrwt>
</event>
<event>
 5    1  0.3294152E-002  0.1249979E+03  0.7818608E-02  0.1235073E+00
         -4   -1    0    0    0  501 -0.00000000000E+00  0.00000000000E+00  0.29457304147E+03  0.29457577915E+03  0.12700000000E+01 0.  1.
          4   -1    0    0  501    0  0.00000000000E+00 -0.00000000000E+00 -0.13227052059E+02  0.13287881929E+02  0.12700000000E+01 0.  1.
         25    2    1    2    0    0  0.00000000000E+00  0.00000000000E+00  0.28134598941E+03  0.30786366108E+03  0.12499787220E+03 0.  0.
    9000005    1    3    3    0    0 -0.12338428299E+02 -0.60658703429E+02  0.11957168278E+03  0.13464806882E+03  0.10000000000E+01 0.  0.
    9000005    1    3    3    0    0  0.12338428299E+02  0.60658703429E+02  0.16177430664E+03  0.17321559226E+03  0.10000000000E+01 0.  0.
<mgrwt>
<rscale>  0 0.12499787E+03</rscale>
<asrwt>0</asrwt>
<pdfrwt beam="2">  1        4 0.20398211E-02 0.12499787E+03</pdfrwt>
<pdfrwt beam="1">  1       -4 0.45323816E-01 0.12499787E+03</pdfrwt>
<totfact> 0.74626430E+03</totfact>
</mgrwt>
</event>
<event>
 5    1  0.3294152E-002  0.1250003E+03  0.7818608E-02  0.1235069E+00
          4   -1    0    0  501    0  0.00000000000E+00  0.00000000000E+00  0.92464515686E+02  0.92473236999E+02  0.12700000000E+01 0. -1.
         -4   -1    0    0    0  501 -0.00000000000E+00 -0.00000000000E+00 -0.42225898538E+02  0.42244992689E+02  0.12700000000E+01 0. -1.
         25    2    1    2    0    0  0.00000000000E+00  0.00000000000E+00  0.50238617148E+02  0.13471822969E+03  0.12500033103E+03 0.  0.
    9000005    1    3    3    0    0  0.33391658089E+01 -0.61487490177E+02  0.36596599021E+02  0.71639182969E+02  0.10000000000E+01 0.  0.
    9000005    1    3    3    0    0 -0.33391658089E+01  0.61487490177E+02  0.13642018127E+02  0.63079046720E+02  0.10000000000E+01 0.  0.
<mgrwt>
<rscale>  0 0.12500033E+03</rscale>
<asrwt>0</asrwt>
<pdfrwt beam="1">  1        4 0.14227450E-01 0.12500033E+03</pdfrwt>
<pdfrwt beam="2">  1       -4 0.64984318E-02 0.12500033E+03</pdfrwt>
<totfact> 0.10243937E+04</totfact>
</mgrwt>
</event>
<event>
 5    1  0.3294152E-002  0.1250005E+03  0.7818608E-02  0.1235069E+00
          4   -1    0    0  501    0  0.00000000000E+00  0.00000000000E+00  0.39704531874E+03  0.39704734986E+03  0.12700000000E+01 0. -1.
         -4   -1    0    0    0  501 -0.00000000000E+00 -0.00000000000E+00 -0.97953191132E+01  0.98773061373E+01  0.12700000000E+01 0. -1.
         25    2    1    2    0    0  0.00000000000E+00  0.00000000000E+00  0.38724999962E+03  0.40692465600E+03  0.12500045380E+03 0.  0.
    9000005    1    3    3    0    0  0.42253687393E+02  0.33507034440E+02  0.29642422188E+03  0.30129124576E+03  0.10000000000E+01 0.  0.
    9000005    1    3    3    0    0 -0.42253687393E+02 -0.33507034440E+02  0.90825777739E+02  0.10563341023E+03  0.10000000000E+01 0.  0.
<mgrwt>
<rscale>  0 0.12500045E+03</rscale>
<asrwt>0</asrwt>
<pdfrwt beam="1">  1        4 0.61090364E-01 0.12500045E+03</pdfrwt>
<pdfrwt beam="2">  1       -4 0.15134350E-02 0.12500045E+03</pdfrwt>
<totfact> 0.63884187E+03</totfact>
</mgrwt>
</event>
<event>
 5    1  0.3294152E-002  0.1250022E+03  0.7818608E-02  0.1235066E+00
          4   -1    0    0  501    0  0.00000000000E+00  0.00000000000E+00  0.91596704767E+02  0.91605508700E+02  0.12700000000E+01 0. -1.
         -4   -1    0    0    0  501 -0.00000000000E+00 -0.00000000000E+00 -0.42627373651E+02  0.42646288049E+02  0.12700000000E+01 0. -1.
         25    2    1    2    0    0  0.00000000000E+00  0.00000000000E+00  0.48969331116E+02  0.13425179675E+03  0.12500219814E+03 0.  0.
    9000005    1    3    3    0    0  0.17792120192E+02  0.44474493675E+02 -0.18620531772E+02  0.51402960343E+02  0.10000000000E+01 0.  0.
    9000005    1    3    3    0    0 -0.17792120192E+02 -0.44474493675E+02  0.67589862888E+02  0.82848836406E+02  0.10000000000E+01 0.  0.
<mgrwt>
<rscale>  0 0.12500220E+03</rscale>
<asrwt>0</asrwt>
<pdfrwt beam="1">  1        4 0.14093933E-01 0.12500220E+03</pdfrwt>
<pdfrwt beam="2">  1       -4 0.65601896E-02 0.12500220E+03</pdfrwt>
<totfact> 0.10253357E+04</totfact>
</mgrwt>
</event>
<event>
 5    1  0.3294152E-002  0.1249947E+03  0.7818608E-02  0.1235078E+00
         -4   -1    0    0    0  501 -0.00000000000E+00  0.00000000000E+00  0.19189975927E+02  0.19231954557E+02  0.12700000000E+01 0. -1.
          4   -1    0    0  501    0  0.00000000000E+00 -0.00000000000E+00 -0.20327325243E+03  0.20327721971E+03  0.12700000000E+01 0. -1.
         25    2    1    2    0    0  0.00000000000E+00  0.00000000000E+00 -0.18408327651E+03  0.22250917427E+03  0.12499471967E+03 0.  0.
    9000005    1    3    3    0    0  0.40295705614E+02 -0.29718553057E+02 -0.15860071804E+03  0.16631934359E+03  0.10000000000E+01 0.  0.
    9000005    1    3    3    0    0 -0.40295705614E+02  0.29718553057E+02 -0.25482558462E+02  0.56189830686E+02  0.10000000000E+01 0.  0.
<mgrwt>
<rscale>  0 0.12499472E+03</rscale>
<asrwt>0</asrwt>
<pdfrwt beam="2">  1        4 0.31276341E-01 0.12499472E+03</pdfrwt>
<pdfrwt beam="1">  1       -4 0.29558384E-02 0.12499472E+03</pdfrwt>
<totfact> 0.86483055E+03</totfact>
</mgrwt>
</event>
<event>
 4    1  0.3294152E-002  0.1249039E+03  0.7818608E-02  0.1235219E+00
         -4   -1    0    0    0  501 -0.00000000000E+00  0.00000000000E+00  0.68644456863E+01  0.69809393766E+01  0.12700000000E+01 0.  1.
          4   -1    0    0  501    0  0.00000000000E+00 -0.00000000000E+00 -0.56328323087E+03  0.56328466256E+03  0.12700000000E+01 0.  1.
    9000005    1    1    2    0    0 -0.12420782684E+02 -0.40221839870E+02 -0.67636356457E+02  0.79672761719E+02  0.10000000000E+01 0.  0.
    9000005    1    1    2    0    0  0.12420782684E+02  0.40221839870E+02 -0.48878242873E+03  0.49059284022E+03  0.10000000000E+01 0.  0.
<mgrwt>
<rscale>  0 0.12490393E+03</rscale>
<asrwt>0</asrwt>
<pdfrwt beam="2">  1        4 0.86667993E-01 0.12490393E+03</pdfrwt>
<pdfrwt beam="1">  1       -4 0.10651402E-02 0.12490393E+03</pdfrwt>
<totfact> 0.50907238E+03</totfact>
</mgrwt>
</event>
<event>
 5    1  0.3294152E-002  0.1250061E+03  0.7818608E-02  0.1235060E+00
         -4   -1    0    0    0  501 -0.00000000000E+00  0.00000000000E+00  0.59343936813E+02  0.59357524683E+02  0.12700000000E+01 0. -1.
          4   -1    0    0  501    0  0.00000000000E+00 -0.00000000000E+00 -0.65803090649E+02  0.65815345012E+02  0.12700000000E+01 0. -1.
         25    2    1    2    0    0  0.00000000000E+00  0.00000000000E+00 -0.64591538364E+01  0.12517286969E+03  0.12500610641E+03 0.  0.
    9000005    1    3    3    0    0  0.38504798647E+02  0.18039409682E+02  0.42630995688E+02  0.60219943656E+02  0.10000000000E+01 0.  0.
    9000005    1    3    3    0    0 -0.38504798647E+02 -0.18039409682E+02 -0.49090149525E+02  0.64952926038E+02  0.10000000000E+01 0.  0.
<mgrwt>
<rscale>  0 0.12500611E+03</rscale>
<asrwt>0</asrwt>
<pdfrwt beam="2">  1        4 0.10125540E-01 0.12500611E+03</pdfrwt>
<pdfrwt beam="1">  1       -4 0.91318243E-02 0.12500611E+03</pdfrwt>
<totfact> 0.10447667E+04</totfact>
</mgrwt>
</event>
<event>
 5    1  0.3294152E-002  0.1249974E+03  0.7818608E-02  0.1235073E+00
          4   -1    0    0  501    0  0.00000000000E+00  0.00000000000E+00  0.20533942910E+03  0.20534335647E+03  0.12700000000E+01 0.  1.
         -4   -1    0    0    0  501 -0.00000000000E+00 -0.00000000000E+00 -0.18997276768E+02  0.19039680265E+02  0.12700000000E+01 0.  1.
         25    2    1    2    0    0  0.00000000000E+00  0.00000000000E+00  0.18634215234E+03  0.22438303673E+03  0.12499739772E+03 0.  0.
    9000005    1    3    3    0    0 -0.75585240254E+01  0.14720361658E+01 -0.18151125368E+02  0.19742378987E+02  0.10000000000E+01 0.  0.
    9000005    1    3    3    0    0  0.75585240254E+01 -0.14720361658E+01  0.20449327770E+03  0.20464065774E+03  0.10000000000E+01 0.  0.
<mgrwt>
<rscale>  0 0.12499740E+03</rscale>
<asrwt>0</asrwt>
<pdfrwt beam="1">  1        4 0.31594247E-01 0.12499740E+03</pdfrwt>
<pdfrwt beam="2">  1       -4 0.29262218E-02 0.12499740E+03</pdfrwt>
<totfact> 0.86184514E+03</totfact>
</mgrwt>
</event>
<event>
 5    1  0.3294152E-002  0.1249987E+03  0.7818608E-02  0.1235071E+00
         -4   -1    0    0    0  501 -0.00000000000E+00  0.00000000000E+00  0.41927529601E+03  0.41927721944E+03  0.12700000000E+01 0.  1.
          4   -1    0    0  501    0  0.00000000000E+00 -0.00000000000E+00 -0.92712474511E+01  0.93578271676E+01  0.12700000000E+01 0.  1.
         25    2    1    2    0    0  0.00000000000E+00  0.00000000000E+00  0.41000404856E+03  0.42863504661E+03  0.12499873339E+03 0.  0.
    9000005    1    3    3    0    0 -0.58890988807E+02 -0.15803460717E+02  0.25192867272E+03  0.25920446384E+03  0.10000000000E+01 0.  0.
    9000005    1    3    3    0    0  0.58890988807E+02  0.15803460717E+02  0.15807537583E+03  0.16943058277E+03  0.10000000000E+01 0.  0.
<mgrwt>
<rscale>  0 0.12499873E+03</rscale>
<asrwt>0</asrwt>
<pdfrwt beam="2">  1        4 0.14331538E-02 0.12499873E+03</pdfrwt>
<pdfrwt beam="1">  1       -4 0.64510694E-01 0.12499873E+03</pdfrwt>
<totfact> 0.61861640E+03</totfact>
</mgrwt>
</event>
<event>
 5    1  0.3294152E-002  0.1250003E+03  0.7818608E-02  0.1235069E+00
          4   -1    0    0  501    0  0.00000000000E+00  0.00000000000E+00  0.11214957164E+03  0.11215676226E+03  0.12700000000E+01 0.  1.
         -4   -1    0    0    0  501 -0.00000000000E+00 -0.00000000000E+00 -0.34810979900E+02  0.34834138738E+02  0.12700000000E+01 0.  1.
         25    2    1    2    0    0  0.00000000000E+00  0.00000000000E+00  0.77338591743E+02  0.14699090099E+03  0.12500026881E+03 0.  0.
    9000005    1    3    3    0    0  0.29690285589E+02  0.26348150711E+02  0.95425525528E+02  0.10335748171E+03  0.10000000000E+01 0.  0.
    9000005    1    3    3    0    0 -0.29690285589E+02 -0.26348150711E+02 -0.18086933785E+02  0.43633419279E+02  0.10000000000E+01 0.  0.
<mgrwt>
<rscale>  0 0.12500027E+03</rscale>
<asrwt>0</asrwt>
<pdfrwt beam="1">  1        4 0.17256115E-01 0.12500027E+03</pdfrwt>
<pdfrwt beam="2">  1       -4 0.53578700E-02 0.12500027E+03</pdfrwt>
<totfact> 0.99906330E+03</totfact>
</mgrwt>
</event>
<event>
 5    1  0.3294152E-002  0.1250050E+03  0.7818608E-02  0.1235061E+00
          4   -1    0    0  501    0  0.00000000000E+00  0.00000000000E+00  0.48976539453E+01  0.50596357743E+01  0.12700000000E+01 0.  1.
         -4   -1    0    0    0  501 -0.00000000000E+00 -0.00000000000E+00 -0.78450152424E+03  0.78450255222E+03  0.12700000000E+01 0.  1.
         25    2    1    2    0    0  0.00000000000E+00  0.00000000000E+00 -0.77960387030E+03  0.78956218799E+03  0.12500501641E+03 0.  0.
    9000005    1    3    3    0    0  0.61358929567E+02 -0.93873582844E+01 -0.34402646327E+03  0.34958296320E+03  0.10000000000E+01 0.  0.
    9000005    1    3    3    0    0 -0.61358929567E+02  0.93873582844E+01 -0.43557740703E+03  0.43997922479E+03  0.10000000000E+01 0.  0.
<mgrwt>
<rscale>  0 0.12500502E+03</rscale>
<asrwt>0</asrwt>
<pdfrwt beam="1">  1        4 0.76602506E-03 0.12500502E+03</pdfrwt>
<pdfrwt beam="2">  1       -4 0.12070498E+00 0.12500502E+03</pdfrwt>
<totfact> 0.38730750E+03</totfact>
</mgrwt>
</event>
<event>
 5    1  0.3294152E-002  0.1249991E+03  0.7818608E-02  0.1235071E+00
         -4   -1    0    0    0  501 -0.00000000000E+00  0.00000000000E+00  0.34627483806E+02  0.34650765284E+02  0.12700000000E+01 0.  1.
          4   -1    0    0  501    0  0.00000000000E+00 -0.00000000000E+00 -0.11274132585E+03  0.11274847872E+03  0.12700000000E+01 0.  1.
         25    2    1    2    0    0  0.00000000000E+00  0.00000000000E+00 -0.78113842041E+02  0.14739924400E+03  0.12499905925E+03 0.  0.
    9000005    1    3    3    0    0 -0.94870252332E+01  0.60746909823E+02 -0.25873006106E+02  0.66712840936E+02  0.10000000000E+01 0.  0.
    9000005    1    3    3    0    0  0.94870252332E+01 -0.60746909823E+02 -0.52240835935E+02  0.80686403068E+02  0.10000000000E+01 0.  0.
<mgrwt>
<rscale>  0 0.12499906E+03</rscale>
<asrwt>0</asrwt>
<pdfrwt beam="2">  1        4 0.17347160E-01 0.12499906E+03</pdfrwt>
<pdfrwt beam="1">  1       -4 0.53296464E-02 0.12499906E+03</pdfrwt>
<totfact> 0.99826783E+03</totfact>
</mgrwt>
</event>
<event>
 5    1  0.3294152E-002  0.1250060E+03  0.7818608E-02  0.1235060E+00
          4   -1    0    0  501    0  0.00000000000E+00  0.00000000000E+00  0.56241108787E+02  0.56255446115E+02  0.12700000000E+01 0.  1.
         -4   -1    0    0    0  501 -0.00000000000E+00 -0.00000000000E+00 -0.69433072933E+02  0.69444686744E+02  0.12700000000E+01 0.  1.
         25    2    1    2    0    0  0.00000000000E+00  0.00000000000E+00 -0.13191964146E+02  0.12570013286E+03  0.12500598179E+03 0.  0.
    9000005    1    3    3    0    0 -0.33401030471E+02 -0.37452750424E+02  0.30857139860E+02  0.58919440181E+02  0.10000000000E+01 0.  0.
    9000005    1    3    3    0    0  0.33401030471E+02  0.37452750424E+02 -0.44049104005E+02  0.66780692678E+02  0.10000000000E+01 0.  0.
<mgrwt>
<rscale>  0 0.12500598E+03</rscale>
<asrwt>0</asrwt>
<pdfrwt beam="1">  1        4 0.86544746E-02 0.12500598E+03</pdfrwt>
<pdfrwt beam="2">  1       -4 0.10684007E-01 0.12500598E+03</pdfrwt>
<totfact> 0.10436133E+04</totfact>
</mgrwt>
</event>
<event>
 5    1  0.3294152E-002  0.1250224E+03  0.7818608E-02  0.1235034E+00
         -4   -1    0    0    0  501 -0.00000000000E+00  0.00000000000E+00  0.52871967107E+01  0.54375866943E+01  0.12700000000E+01 0.  1.
          4   -1    0    0  501    0  0.00000000000E+00 -0.00000000000E+00 -0.72856291336E+03  0.72856402026E+03  0.12700000000E+01 0.  1.
         25    2    1    2    0    0  0.00000000000E+00  0.00000000000E+00 -0.72327571664E+03  0.73400160695E+03  0.12502238489E+03 0.  0.
    9000005    1    3    3    0    0  0.52083643673E+02 -0.18718131417E+02 -0.19111954424E+03  0.19897425606E+03  0.10000000000E+01 0.  0.
    9000005    1    3    3    0    0 -0.52083643673E+02  0.18718131417E+02 -0.53215617240E+03  0.53502735090E+03  0.10000000000E+01 0.  0.
<mgrwt>
<rscale>  0 0.12502238E+03</rscale>
<asrwt>0</asrwt>
<pdfrwt beam="2">  1        4 0.11209818E+00 0.12502238E+03</pdfrwt>
<pdfrwt beam="1">  1       -4 0.82506906E-03 0.12502238E+03</pdfrwt>
<totfact> 0.41331069E+03</totfact>
</mgrwt>
</event>
<event>
 5    1  0.3294152E-002  0.1249981E+03  0.7818608E-02  0.1235072E+00
         -4   -1    0    0    0  501 -0.00000000000E+00  0.00000000000E+00  0.43649451198E+02  0.43667922894E+02  0.12700000000E+01 0.  1.
          4   -1    0    0  501    0  0.00000000000E+00 -0.00000000000E+00 -0.89446733385E+02  0.89455748911E+02  0.12700000000E+01 0.  1.
         25    2    1    2    0    0  0.00000000000E+00  0.00000000000E+00 -0.45797282188E+02  0.13312367181E+03  0.12499808374E+03 0.  0.
    9000005    1    3    3    0    0 -0.44541928035E+02 -0.43735101994E+02 -0.25983066632E+02  0.67622941752E+02  0.10000000000E+01 0.  0.
    9000005    1    3    3    0    0  0.44541928035E+02  0.43735101994E+02 -0.19814215555E+02  0.65500730054E+02  0.10000000000E+01 0.  0.
<mgrwt>
<rscale>  0 0.12499808E+03</rscale>
<asrwt>0</asrwt>
<pdfrwt beam="2">  1        4 0.13763150E-01 0.12499808E+03</pdfrwt>
<pdfrwt beam="1">  1       -4 0.67174146E-02 0.12499808E+03</pdfrwt>
<totfact> 0.10278217E+04</totfact>
</mgrwt>
</event>
<event>
 5    1  0.3294152E-002  0.1249880E+03  0.7818608E-02  0.1235088E+00
         -4   -1    0    0    0  501 -0.00000000000E+00  0.00000000000E+00  0.78086081277E+02  0.78096408299E+02  0.12700000000E+01 0. -1.
          4   -1    0    0  501    0  0.00000000000E+00 -0.00000000000E+00 -0.49993640841E+02  0.50009769291E+02  0.12700000000E+01 0. -1.
         25    2    1    2    0    0  0.00000000000E+00  0.00000000000E+00  0.28092440436E+02  0.12810617759E+03  0.12498802954E+03 0.  0.
    9000005    1    3    3    0    0  0.47084560650E+02  0.37802264028E+02  0.30526372127E+02  0.67667026035E+02  0.10000000000E+01 0.  0.
    9000005    1    3    3    0    0 -0.47084560650E+02 -0.37802264028E+02 -0.24339316906E+01  0.60439151555E+02  0.10000000000E+01 0.  0.
<mgrwt>
<rscale>  0 0.12498803E+03</rscale>
<asrwt>0</asrwt>
<pdfrwt beam="2">  1        4 0.76933644E-02 0.12498803E+03</pdfrwt>
<pdfrwt beam="1">  1       -4 0.12015278E-01 0.12498803E+03</pdfrwt>
<totfact> 0.10388002E+04</totfact>
</mgrwt>
</event>
<event>
 5    1  0.3294152E-002  0.1250011E+03  0.7818608E-02  0.1235068E+00
          4   -1    0    0  501    0  0.00000000000E+00  0.00000000000E+00  0.85850926197E+01  0.86785203398E+01  0.12700000000E+01 0.  1.
         -4   -1    0    0    0  501 -0.00000000000E+00 -0.00000000000E+00 -0.45245514505E+03  0.45245692743E+03  0.12700000000E+01 0.  1.
         25    2    1    2    0    0  0.00000000000E+00  0.00000000000E+00 -0.44387005243E+03  0.46113544777E+03  0.12500111099E+03 0.  0.
    9000005    1    3    3    0    0  0.24704195414E+02  0.55193190109E+02 -0.16375389615E+03  0.17456495642E+03  0.10000000000E+01 0.  0.
    9000005    1    3    3    0    0 -0.24704195414E+02 -0.55193190109E+02 -0.28011615628E+03  0.28657049135E+03  0.10000000000E+01 0.  0.
<mgrwt>
<rscale>  0 0.12500111E+03</rscale>
<asrwt>0</asrwt>
<pdfrwt beam="1">  1        4 0.13281077E-02 0.12500111E+03</pdfrwt>
<pdfrwt beam="2">  1       -4 0.69615789E-01 0.12500111E+03</pdfrwt>
<totfact> 0.59009691E+03</totfact>
</mgrwt>
</event>
<event>
 5    1  0.3294152E-002  0.1249988E+03  0.7818608E-02  0.1235071E+00
          4   -1    0    0  501    0  0.00000000000E+00  0.00000000000E+00  0.77771879263E+02  0.77782248001E+02  0.12700000000E+01 0.  1.
         -4   -1    0    0    0  501 -0.00000000000E+00 -0.00000000000E+00 -0.50204327993E+02  0.50220388780E+02  0.12700000000E+01 0.  1.
         25    2    1    2    0    0  0.00000000000E+00  0.00000000000E+00  0.27567551270E+02  0.12800263678E+03  0.12499882055E+03 0.  0.
    9000005    1    3    3    0    0 -0.14508706874E+02  0.57086754428E+02  0.35160676534E+02  0.68605198641E+02  0.10000000000E+01 0.  0.
    9000005    1    3    3    0    0  0.14508706874E+02 -0.57086754428E+02 -0.75931252638E+01  0.59397438140E+02  0.10000000000E+01 0.  0.
<mgrwt>
<rscale>  0 0.12499882E+03</rscale>
<asrwt>0</asrwt>
<pdfrwt beam="1">  1        4 0.11966938E-01 0.12499882E+03</pdfrwt>
<pdfrwt beam="2">  1       -4 0.77257758E-02 0.12499882E+03</pdfrwt>
<totfact> 0.10387707E+04</totfact>
</mgrwt>
</event>
<event>
 5    1  0.3294152E-002  0.1250000E+03  0.7818608E-02  0.1235069E+00
         -4   -1    0    0    0  501 -0.00000000000E+00  0.00000000000E+00  0.17040970835E+02  0.17088229487E+02  0.12700000000E+01 0.  1.
          4   -1    0    0  501    0  0.00000000000E+00 -0.00000000000E+00 -0.22886070626E+03  0.22886422999E+03  0.12700000000E+01 0.  1.
         25    2    1    2    0    0  0.00000000000E+00  0.00000000000E+00 -0.21181973543E+03  0.24595245948E+03  0.12500004803E+03 0.  0.
    9000005    1    3    3    0    0 -0.50043120931E+02  0.32092415311E+02 -0.14380969823E+03  0.15561640781E+03  0.10000000000E+01 0.  0.
    9000005    1    3    3    0    0  0.50043120931E+02 -0.32092415311E+02 -0.68010037194E+02  0.90336051674E+02  0.10000000000E+01 0.  0.
<mgrwt>
<rscale>  0 0.12500005E+03</rscale>
<asrwt>0</asrwt>
<pdfrwt beam="2">  1        4 0.35213244E-01 0.12500005E+03</pdfrwt>
<pdfrwt beam="1">  1       -4 0.26255943E-02 0.12500005E+03</pdfrwt>
<totfact> 0.82918677E+03</totfact>
</mgrwt>
</event>
<event>
 5    1  0.3294152E-002  0.1249953E+03  0.7818608E-02  0.1235077E+00
         -4   -1    0    0    0  501 -0.00000000000E+00  0.00000000000E+00  0.16138074267E+03  0.16138573978E+03  0.12700000000E+01 0.  1.
          4   -1    0    0  501    0  0.00000000000E+00 -0.00000000000E+00 -0.24181328118E+02  0.24214655264E+02  0.12700000000E+01 0.  1.
         25    2    1    2    0    0  0.00000000000E+00  0.00000000000E+00  0.13719941455E+03  0.18560039505E+03  0.12499530906E+03 0.  0.
    9000005    1    3    3    0    0  0.61018022144E+02 -0.71451356976E+01  0.51623877877E+02  0.80251334927E+02  0.10000000000E+01 0.  0.
    9000005    1    3    3    0    0 -0.61018022144E+02  0.71451356976E+01  0.85575536675E+02  0.10534906012E+03  0.10000000000E+01 0.  0.
<mgrwt>
<rscale>  0 0.12499531E+03</rscale>
<asrwt>0</asrwt>
<pdfrwt beam="2">  1        4 0.37231525E-02 0.12499531E+03</pdfrwt>
<pdfrwt beam="1">  1       -4 0.24830754E-01 0.12499531E+03</pdfrwt>
<totfact> 0.92628254E+03</totfact>
</mgrwt>
</event>
<event>
 5    1  0.3294152E-002  0.1250029E+03  0.7818608E-02  0.1235065E+00
          4   -1    0    0  501    0  0.00000000000E+00  0.00000000000E+00  0.11737486546E+03  0.11738173598E+03  0.12700000000E+01 0.  1.
         -4   -1    0    0    0  501 -0.00000000000E+00 -0.00000000000E+00 -0.33261677638E+02  0.33285914427E+02  0.12700000000E+01 0.  1.
         25    2    1    2    0    0  0.00000000000E+00  0.00000000000E+00  0.84113187819E+02  0.15066765040E+03  0.12500285002E+03 0.  0.
    9000005    1    3    3    0    0 -0.53645080091E+02  0.27720879590E+02  0.22651928461E+02  0.64500787951E+02  0.10000000000E+01 0.  0.
    9000005    1    3    3    0    0  0.53645080091E+02 -0.27720879590E+02  0.61461259358E+02  0.86166862454E+02  0.10000000000E+01 0.  0.
<mgrwt>
<rscale>  0 0.12500285E+03</rscale>
<asrwt>0</asrwt>
<pdfrwt beam="1">  1        4 0.18060065E-01 0.12500285E+03</pdfrwt>
<pdfrwt beam="2">  1       -4 0.51195740E-02 0.12500285E+03</pdfrwt>
<totfact> 0.99164418E+03</totfact>
</mgrwt>
</event>
<event>
 5    1  0.3294152E-002  0.1249997E+03  0.7818608E-02  0.1235070E+00
         -4   -1    0    0    0  501 -0.00000000000E+00  0.00000000000E+00  0.35234037443E+03  0.35234266326E+03  0.12700000000E+01 0.  1.
          4   -1    0    0  501    0  0.00000000000E+00 -0.00000000000E+00 -0.11047816461E+02  0.11120573211E+02  0.12700000000E+01 0.  1.
         25    2    1    2    0    0  0.00000000000E+00  0.00000000000E+00  0.34129255797E+03  0.36346323648E+03  0.12499965657E+03 0.  0.
    9000005    1    3    3    0    0  0.36584549195E+02  0.40977139199E+02  0.25727826340E+03  0.26307918959E+03  0.10000000000E+01 0.  0.
    9000005    1    3    3    0    0 -0.36584549195E+02 -0.40977139199E+02  0.84014294575E+02  0.10038404689E+03  0.10000000000E+01 0.  0.
<mgrwt>
<rscale>  0 0.12499966E+03</rscale>
<asrwt>0</asrwt>
<pdfrwt beam="2">  1        4 0.17054367E-02 0.12499966E+03</pdfrwt>
<pdfrwt beam="1">  1       -4 0.54211988E-01 0.12499966E+03</pdfrwt>
<totfact> 0.68268909E+03</totfact>
</mgrwt>
</event>
<event>
 5    1  0.3294152E-002  0.1250022E+03  0.7818608E-02  0.1235066E+00
          4   -1    0    0  501    0  0.00000000000E+00  0.00000000000E+00  0.26894991942E+03  0.26895291792E+03  0.12700000000E+01 0.  1.
         -4   -1    0    0    0  501 -0.00000000000E+00 -0.00000000000E+00 -0.14493746769E+02  0.14549281611E+02  0.12700000000E+01 0.  1.
         25    2    1    2    0    0  0.00000000000E+00  0.00000000000E+00  0.25445617265E+03  0.28350219953E+03  0.12500221333E+03 0.  0.
    9000005    1    3    3    0    0  0.12830553336E+02  0.58593244690E+02  0.87451297879E+02  0.10604961538E+03  0.10000000000E+01 0.  0.
    9000005    1    3    3    0    0 -0.12830553336E+02 -0.58593244690E+02  0.16700487477E+03  0.17745258415E+03  0.10000000000E+01 0.  0.
<mgrwt>
<rscale>  0 0.12500221E+03</rscale>
<asrwt>0</asrwt>
<pdfrwt beam="1">  1        4 0.41381415E-01 0.12500221E+03</pdfrwt>
<pdfrwt beam="2">  1       -4 0.22343097E-02 0.12500221E+03</pdfrwt>
<totfact> 0.77712194E+03</totfact>
</mgrwt>
</event>
<event>
 5    1  0.3294152E-002  0.1250003E+03  0.7818608E-02  0.1235069E+00
         -4   -1    0    0    0  501 -0.00000000000E+00  0.00000000000E+00  0.23331371556E+03  0.23331717204E+03  0.12700000000E+01 0.  1.
          4   -1    0    0  501    0  0.00000000000E+00 -0.00000000000E+00 -0.16714897530E+02  0.16763075477E+02  0.12700000000E+01 0.  1.
         25    2    1    2    0    0  0.00000000000E+00  0.00000000000E+00  0.21659881803E+03  0.25008024752E+03  0.12500032890E+03 0.  0.
    9000005    1    3    3    0    0  0.57892786732E+02 -0.12900804633E+02  0.68928777434E+02  0.90940540324E+02  0.10000000000E+01 0.  0.
    9000005    1    3    3    0    0 -0.57892786732E+02  0.12900804633E+02  0.14767004060E+03  0.15913970719E+03  0.10000000000E+01 0.  0.
<mgrwt>
<rscale>  0 0.12500033E+03</rscale>
<asrwt>0</asrwt>
<pdfrwt beam="2">  1        4 0.25754945E-02 0.12500033E+03</pdfrwt>
<pdfrwt beam="1">  1       -4 0.35898391E-01 0.12500033E+03</pdfrwt>
<totfact> 0.82318025E+03</totfact>
</mgrwt>
</event>
<event>
 5    1  0.3294152E-002  0.1249851E+03  0.7818608E-02  0.1235093E+00
         -4   -1    0    0    0  501 -0.00000000000E+00  0.00000000000E+00  0.10538371761E+02  0.10614621019E+02  0.12700000000E+01 0. -1.
          4   -1    0    0  501    0  0.00000000000E+00 -0.00000000000E+00 -0.36916750712E+03  0.36916969163E+03  0.12700000000E+01 0. -1.
         25    2    1    2    0    0  0.00000000000E+00  0.00000000000E+00 -0.35862913536E+03  0.37978431265E+03  0.12498506871E+03 0.  0.
    9000005    1    3    3    0    0 -0.92884288989E+01  0.36530982125E+02 -0.27884006728E+02  0.46896752527E+02  0.10000000000E+01 0.  0.
    9000005    1    3    3    0    0  0.92884288989E+01 -0.36530982125E+02 -0.33074512863E+03  0.33288756012E+03  0.10000000000E+01 0.  0.
<mgrwt>
<rscale>  0 0.12498507E+03</rscale>
<asrwt>0</asrwt>
<pdfrwt beam="2">  1        4 0.56801025E-01 0.12498507E+03</pdfrwt>
<pdfrwt beam="1">  1       -4 0.16273216E-02 0.12498507E+03</pdfrwt>
<totfact> 0.66589560E+03</totfact>
</mgrwt>
</event>
<event>
 5    1  0.3294152E-002  0.1249989E+03  0.7818608E-02  0.1235071E+00
         -4   -1    0    0    0  501 -0.00000000000E+00  0.00000000000E+00  0.10183934137E+03  0.10184725991E+03  0.12700000000E+01 0.  1.
          4   -1    0    0  501    0  0.00000000000E+00 -0.00000000000E+00 -0.38336386346E+02  0.38357416729E+02  0.12700000000E+01 0.  1.
         25    2    1    2    0    0  0.00000000000E+00  0.00000000000E+00  0.63502955026E+02  0.14020467664E+03  0.12499890421E+03 0.  0.
    9000005    1    3    3    0    0  0.66611405343E-01 -0.33129660956E+02 -0.27681038417E+02  0.43183547330E+02  0.10000000000E+01 0.  0.
    9000005    1    3    3    0    0 -0.66611405343E-01  0.33129660956E+02  0.91183993443E+02  0.97021129309E+02  0.10000000000E+01 0.  0.
<mgrwt>
<rscale>  0 0.12499890E+03</rscale>
<asrwt>0</asrwt>
<pdfrwt beam="2">  1        4 0.59001324E-02 0.12499890E+03</pdfrwt>
<pdfrwt beam="1">  1       -4 0.15669818E-01 0.12499890E+03</pdfrwt>
<totfact> 0.10129596E+04</totfact>
</mgrwt>
</event>
<event>
 5    1  0.3294152E-002  0.1249984E+03  0.7818608E-02  0.1235072E+00
          4   -1    0    0  501    0  0.00000000000E+00  0.00000000000E+00  0.84905485833E+02  0.84914983510E+02  0.12700000000E+01 0.  1.
         -4   -1    0    0    0  501 -0.00000000000E+00 -0.00000000000E+00 -0.45985003105E+02  0.46002537002E+02  0.12700000000E+01 0.  1.
         25    2    1    2    0    0  0.00000000000E+00  0.00000000000E+00  0.38920482728E+02  0.13091752051E+03  0.12499837279E+03 0.  0.
    9000005    1    3    3    0    0  0.60710608894E+02 -0.14127262681E+02  0.24119578947E+02  0.66843935191E+02  0.10000000000E+01 0.  0.
    9000005    1    3    3    0    0 -0.60710608894E+02  0.14127262681E+02  0.14800903780E+02  0.64073585321E+02  0.10000000000E+01 0.  0.
<mgrwt>
<rscale>  0 0.12499837E+03</rscale>
<asrwt>0</asrwt>
<pdfrwt beam="1">  1        4 0.13064462E-01 0.12499837E+03</pdfrwt>
<pdfrwt beam="2">  1       -4 0.70766952E-02 0.12499837E+03</pdfrwt>
<totfact> 0.10325237E+04</totfact>
</mgrwt>
</event>
<event>
 5    1  0.3294152E-002  0.1250033E+03  0.7818608E-02  0.1235064E+00
         -4   -1    0    0    0  501 -0.00000000000E+00  0.00000000000E+00  0.17084832929E+03  0.17085304949E+03  0.12700000000E+01 0.  1.
          4   -1    0    0  501    0  0.00000000000E+00 -0.00000000000E+00 -0.22842378427E+02  0.22877656178E+02  0.12700000000E+01 0.  1.
         25    2    1    2    0    0  0.00000000000E+00  0.00000000000E+00  0.14800595086E+03  0.19373070567E+03  0.12500329927E+03 0.  0.
    9000005    1    3    3    0    0 -0.43820842697E+02 -0.29753451391E+02  0.12540236312E+03  0.13613334199E+03  0.10000000000E+01 0.  0.
    9000005    1    3    3    0    0  0.43820842697E+02  0.29753451391E+02  0.22603587740E+02  0.57597363682E+02  0.10000000000E+01 0.  0.
<mgrwt>
<rscale>  0 0.12500330E+03</rscale>
<asrwt>0</asrwt>
<pdfrwt beam="2">  1        4 0.35172889E-02 0.12500330E+03</pdfrwt>
<pdfrwt beam="1">  1       -4 0.26287435E-01 0.12500330E+03</pdfrwt>
<totfact> 0.91195469E+03</totfact>
</mgrwt>
</event>
<event>
 5    1  0.3294152E-002  0.1250004E+03  0.7818608E-02  0.1235069E+00
         -4   -1    0    0    0  501 -0.00000000000E+00  0.00000000000E+00  0.11974718076E+02  0.12041875809E+02  0.12700000000E+01 0. -1.
          4   -1    0    0  501    0  0.00000000000E+00 -0.00000000000E+00 -0.32522945123E+03  0.32523193086E+03  0.12700000000E+01 0. -1.
         25    2    1    2    0    0  0.00000000000E+00  0.00000000000E+00 -0.31325473316E+03  0.33727380667E+03  0.12500037127E+03 0.  0.
    9000005    1    3    3    0    0  0.27389862865E+02 -0.55720063587E+02 -0.13748298150E+03  0.15085589241E+03  0.10000000000E+01 0.  0.
    9000005    1    3    3    0    0 -0.27389862865E+02  0.55720063587E+02 -0.17577175166E+03  0.18641791425E+03  0.10000000000E+01 0.  0.
<mgrwt>
<rscale>  0 0.12500037E+03</rscale>
<asrwt>0</asrwt>
<pdfrwt beam="2">  1        4 0.50040650E-01 0.12500037E+03</pdfrwt>
<pdfrwt beam="1">  1       -4 0.18476213E-02 0.12500037E+03</pdfrwt>
<totfact> 0.71147081E+03</totfact>
</mgrwt>
</event>
<event>
 5    1  0.3294152E-002  0.1250009E+03  0.7818608E-02  0.1235068E+00
          4   -1    0    0  501    0  0.00000000000E+00  0.00000000000E+00  0.27533417569E+03  0.27533710466E+03  0.12700000000E+01 0. -1.
         -4   -1    0    0    0  501 -0.00000000000E+00 -0.00000000000E+00 -0.14156085607E+02  0.14212939868E+02  0.12700000000E+01 0. -1.
         25    2    1    2    0    0  0.00000000000E+00  0.00000000000E+00  0.26117809008E+03  0.28955004453E+03  0.12500093418E+03 0.  0.
    9000005    1    3    3    0    0  0.20135044681E+02  0.52637243565E+02  0.19314034982E+03  0.20119715248E+03  0.10000000000E+01 0.  0.
    9000005    1    3    3    0    0 -0.20135044681E+02 -0.52637243565E+02  0.68037740258E+02  0.88352892051E+02  0.10000000000E+01 0.  0.
<mgrwt>
<rscale>  0 0.12500093E+03</rscale>
<asrwt>0</asrwt>
<pdfrwt beam="1">  1        4 0.42363704E-01 0.12500093E+03</pdfrwt>
<pdfrwt beam="2">  1       -4 0.21824580E-02 0.12500093E+03</pdfrwt>
<totfact> 0.76927043E+03</totfact>
</mgrwt>
</event>
<event>
 5    1  0.3294152E-002  0.1250042E+03  0.7818608E-02  0.1235063E+00
          4   -1    0    0  501    0  0.00000000000E+00  0.00000000000E+00  0.13359813145E+04  0.13359819181E+04  0.12700000000E+01 0.  1.
         -4   -1    0    0    0  501 -0.00000000000E+00 -0.00000000000E+00 -0.27855446496E+01  0.30613982091E+01  0.12700000000E+01 0.  1.
         25    2    1    2    0    0  0.00000000000E+00  0.00000000000E+00  0.13331957698E+04  0.13390433163E+04  0.12500416916E+03 0.  0.
    9000005    1    3    3    0    0  0.45659611052E+02  0.20063609426E+02  0.10699952539E+04  0.10711574076E+04  0.10000000000E+01 0.  0.
    9000005    1    3    3    0    0 -0.45659611052E+02 -0.20063609426E+02  0.26320051593E+03  0.26788590872E+03  0.10000000000E+01 0.  0.
<mgrwt>
<rscale>  0 0.12500417E+03</rscale>
<asrwt>0</asrwt>
<pdfrwt beam="1">  1        4 0.20555637E+00 0.12500417E+03</pdfrwt>
<pdfrwt beam="2">  1       -4 0.44981232E-03 0.12500417E+03</pdfrwt>
<totfact> 0.21323476E+03</totfact>
</mgrwt>
</event>
<event>
 5    1  0.3294152E-002  0.1250111E+03  0.7818608E-02  0.1235052E+00
         -4   -1    0    0    0  501 -0.00000000000E+00  0.00000000000E+00  0.51839644032E+02  0.51855198325E+02  0.12700000000E+01 0. -1.
          4   -1    0    0  501    0  0.00000000000E+00 -0.00000000000E+00 -0.75333763622E+02  0.75344467889E+02  0.12700000000E+01 0. -1.
         25    2    1    2    0    0  0.00000000000E+00  0.00000000000E+00 -0.23494119590E+02  0.12719966621E+03  0.12501112522E+03 0.  0.
    9000005    1    3    3    0    0  0.49283478367E+02  0.21591595456E+02 -0.44098129069E+02  0.69575162390E+02  0.10000000000E+01 0.  0.
    9000005    1    3    3    0    0 -0.49283478367E+02 -0.21591595456E+02  0.20604009479E+02  0.57624503823E+02  0.10000000000E+01 0.  0.
<mgrwt>
<rscale>  0 0.12501113E+03</rscale>
<asrwt>0</asrwt>
<pdfrwt beam="2">  1        4 0.11591830E-01 0.12501113E+03</pdfrwt>
<pdfrwt beam="1">  1       -4 0.79773497E-02 0.12501113E+03</pdfrwt>
<totfact> 0.10402198E+04</totfact>
</mgrwt>
</event>
<event>
 5    1  0.3294152E-002  0.1250008E+03  0.7818608E-02  0.1235068E+00
         -4   -1    0    0    0  501 -0.00000000000E+00  0.00000000000E+00  0.19021820388E+02  0.19064169294E+02  0.12700000000E+01 0.  1.
          4   -1    0    0  501    0  0.00000000000E+00 -0.00000000000E+00 -0.20508636014E+03  0.20509029235E+03  0.12700000000E+01 0.  1.
         25    2    1    2    0    0  0.00000000000E+00  0.00000000000E+00 -0.18606453975E+03  0.22415446164E+03  0.12500083888E+03 0.  0.
    9000005    1    3    3    0    0  0.26392554558E+02  0.43732551757E+02 -0.15759328791E+03  0.16566758105E+03  0.10000000000E+01 0.  0.
    9000005    1    3    3    0    0 -0.26392554558E+02 -0.43732551757E+02 -0.28471251846E+02  0.58486880588E+02  0.10000000000E+01 0.  0.
<mgrwt>
<rscale>  0 0.12500084E+03</rscale>
<asrwt>0</asrwt>
<pdfrwt beam="2">  1        4 0.31555306E-01 0.12500084E+03</pdfrwt>
<pdfrwt beam="1">  1       -4 0.29299941E-02 0.12500084E+03</pdfrwt>
<totfact> 0.86213585E+03</totfact>
</mgrwt>
</event>
<event>
 5    1  0.3294152E-002  0.1250009E+03  0.7818608E-02  0.1235068E+00
          4   -1    0    0  501    0  0.00000000000E+00  0.00000000000E+00  0.13487075118E+01  0.18525420245E+01  0.12700000000E+01 0.  1.
         -4   -1    0    0    0  501 -0.00000000000E+00 -0.00000000000E+00 -0.24399831227E+04  0.24399834533E+04  0.12700000000E+01 0.  1.
         25    2    1    2    0    0  0.00000000000E+00  0.00000000000E+00 -0.24386344152E+04  0.24418359953E+04  0.12500086682E+03 0.  0.
    9000005    1    3    3    0    0  0.57364985842E+02  0.35397341029E+01 -0.16986239788E+04  0.16995963322E+04  0.10000000000E+01 0.  0.
    9000005    1    3    3    0    0 -0.57364985842E+02 -0.35397341029E+01 -0.74001043646E+03  0.74223966304E+03  0.10000000000E+01 0.  0.
<mgrwt>
<rscale>  0 0.12500087E+03</rscale>
<asrwt>0</asrwt>
<pdfrwt beam="1">  1        4 0.24627734E-03 0.12500087E+03</pdfrwt>
<pdfrwt beam="2">  1       -4 0.37541783E+00 0.12500087E+03</pdfrwt>
<totfact> 0.51426490E+02</totfact>
</mgrwt>
</event>
<event>
 5    1  0.3294152E-002  0.1250017E+03  0.7818608E-02  0.1235067E+00
         -4   -1    0    0    0  501 -0.00000000000E+00  0.00000000000E+00  0.16970961882E+03  0.16971437069E+03  0.12700000000E+01 0.  1.
          4   -1    0    0  501    0  0.00000000000E+00 -0.00000000000E+00 -0.22995304793E+02  0.23030348294E+02  0.12700000000E+01 0.  1.
         25    2    1    2    0    0  0.00000000000E+00  0.00000000000E+00  0.14671431403E+03  0.19274471899E+03  0.12500174702E+03 0.  0.
    9000005    1    3    3    0    0  0.60331134313E+02  0.75297363590E+01  0.95638881662E+02  0.11333286541E+03  0.10000000000E+01 0.  0.
    9000005    1    3    3    0    0 -0.60331134313E+02 -0.75297363590E+01  0.51075432366E+02  0.79411853576E+02  0.10000000000E+01 0.  0.
<mgrwt>
<rscale>  0 0.12500175E+03</rscale>
<asrwt>0</asrwt>
<pdfrwt beam="2">  1        4 0.35408004E-02 0.12500175E+03</pdfrwt>
<pdfrwt beam="1">  1       -4 0.26112233E-01 0.12500175E+03</pdfrwt>
<totfact> 0.91368349E+03</totfact>
</mgrwt>
</event>
<event>
 5    1  0.3294152E-002  0.1250020E+03  0.7818608E-02  0.1235066E+00
         -4   -1    0    0    0  501 -0.00000000000E+00  0.00000000000E+00  0.70906242100E+01  0.72034610909E+01  0.12700000000E+01 0. -1.
          4   -1    0    0  501    0  0.00000000000E+00 -0.00000000000E+00 -0.54645829317E+03  0.54645976894E+03  0.12700000000E+01 0. -1.
         25    2    1    2    0    0  0.00000000000E+00  0.00000000000E+00 -0.53936766896E+03  0.55366323003E+03  0.12500195988E+03 0.  0.
    9000005    1    3    3    0    0 -0.46624054142E+02 -0.68764059920E+01 -0.45145988547E+03  0.45391421609E+03  0.10000000000E+01 0.  0.
    9000005    1    3    3    0    0  0.46624054142E+02  0.68764059920E+01 -0.87907783491E+02  0.99749013942E+02  0.10000000000E+01 0.  0.
<mgrwt>
<rscale>  0 0.12500196E+03</rscale>
<asrwt>0</asrwt>
<pdfrwt beam="2">  1        4 0.84079268E-01 0.12500196E+03</pdfrwt>
<pdfrwt beam="1">  1       -4 0.10996590E-02 0.12500196E+03</pdfrwt>
<totfact> 0.51927330E+03</totfact>
</mgrwt>
</event>
<event>
 5    1  0.3294152E-002  0.1250010E+03  0.7818608E-02  0.1235068E+00
          4   -1    0    0  501    0  0.00000000000E+00  0.00000000000E+00  0.16940851822E+03  0.16941327854E+03  0.12700000000E+01 0. -1.
         -4   -1    0    0    0  501 -0.00000000000E+00 -0.00000000000E+00 -0.23035952789E+02  0.23070934547E+02  0.12700000000E+01 0. -1.
         25    2    1    2    0    0  0.00000000000E+00  0.00000000000E+00  0.14637256543E+03  0.19248421309E+03  0.12500097750E+03 0.  0.
    9000005    1    3    3    0    0  0.45209691066E+02 -0.23721336675E+02  0.17693695194E+02  0.54043360643E+02  0.10000000000E+01 0.  0.
    9000005    1    3    3    0    0 -0.45209691066E+02  0.23721336675E+02  0.12867887024E+03  0.13844085244E+03  0.10000000000E+01 0.  0.
<mgrwt>
<rscale>  0 0.12500098E+03</rscale>
<asrwt>0</asrwt>
<pdfrwt beam="1">  1        4 0.26065906E-01 0.12500098E+03</pdfrwt>
<pdfrwt beam="2">  1       -4 0.35470498E-02 0.12500098E+03</pdfrwt>
<totfact> 0.91414856E+03</totfact>
</mgrwt>
</event>
<event>
 5    1  0.3294152E-002  0.1249984E+03  0.7818608E-02  0.1235072E+00
          4   -1    0    0  501    0  0.00000000000E+00  0.00000000000E+00  0.11005318418E+03  0.11006051175E+03  0.12700000000E+01 0.  1.
         -4   -1    0    0    0  501 -0.00000000000E+00 -0.00000000000E+00 -0.35473436686E+02  0.35496163319E+02  0.12700000000E+01 0.  1.
         25    2    1    2    0    0  0.00000000000E+00  0.00000000000E+00  0.74579747489E+02  0.14555667507E+03  0.12499842768E+03 0.  0.
    9000005    1    3    3    0    0  0.59790087468E+02  0.11637441805E+01  0.58409577172E+02  0.83599566778E+02  0.10000000000E+01 0.  0.
    9000005    1    3    3    0    0 -0.59790087468E+02 -0.11637441805E+01  0.16170170317E+02  0.61957108293E+02  0.10000000000E+01 0.  0.
<mgrwt>
<rscale>  0 0.12499843E+03</rscale>
<asrwt>0</asrwt>
<pdfrwt beam="1">  1        4 0.16933571E-01 0.12499843E+03</pdfrwt>
<pdfrwt beam="2">  1       -4 0.54597636E-02 0.12499843E+03</pdfrwt>
<totfact> 0.10020045E+04</totfact>
</mgrwt>
</event>
<event>
 5    1  0.3294152E-002  0.1249984E+03  0.7818608E-02  0.1235072E+00
         -4   -1    0    0    0  501 -0.00000000000E+00  0.00000000000E+00  0.43881382737E+02  0.43899756844E+02  0.12700000000E+01 0. -1.
          4   -1    0    0  501    0  0.00000000000E+00 -0.00000000000E+00 -0.88974590834E+02  0.88983654196E+02  0.12700000000E+01 0. -1.
         25    2    1    2    0    0  0.00000000000E+00  0.00000000000E+00 -0.45093208096E+02  0.13288341104E+03  0.12499841404E+03 0.  0.
    9000005    1    3    3    0    0 -0.47162887963E+02  0.22519512899E+02 -0.58966771139E+02  0.78800676144E+02  0.10000000000E+01 0.  0.
    9000005    1    3    3    0    0  0.47162887963E+02 -0.22519512899E+02  0.13873563043E+02  0.54082734895E+02  0.10000000000E+01 0.  0.
<mgrwt>
<rscale>  0 0.12499841E+03</rscale>
<asrwt>0</asrwt>
<pdfrwt beam="2">  1        4 0.13690509E-01 0.12499841E+03</pdfrwt>
<pdfrwt beam="1">  1       -4 0.67530925E-02 0.12499841E+03</pdfrwt>
<totfact> 0.10283246E+04</totfact>
</mgrwt>
</event>
<event>
 5    1  0.3294152E-002  0.1250004E+03  0.7818608E-02  0.1235069E+00
         -4   -1    0    0    0  501 -0.00000000000E+00  0.00000000000E+00  0.13321357622E+03  0.13321962989E+03  0.12700000000E+01 0. -1.
          4   -1    0    0  501    0  0.00000000000E+00 -0.00000000000E+00 -0.29302914279E+02  0.29330422520E+02  0.12700000000E+01 0. -1.
         25    2    1    2    0    0  0.00000000000E+00  0.00000000000E+00  0.10391066194E+03  0.16255005241E+03  0.12500037550E+03 0.  0.
    9000005    1    3    3    0    0  0.23248424898E+02  0.14119663997E+02 -0.21207654528E+02  0.34505344256E+02  0.10000000000E+01 0.  0.
    9000005    1    3    3    0    0 -0.23248424898E+02 -0.14119663997E+02  0.12511831646E+03  0.12804470815E+03  0.10000000000E+01 0.  0.
<mgrwt>
<rscale>  0 0.12500038E+03</rscale>
<asrwt>0</asrwt>
<pdfrwt beam="2">  1        4 0.45107225E-02 0.12500038E+03</pdfrwt>
<pdfrwt beam="1">  1       -4 0.20496977E-01 0.12500038E+03</pdfrwt>
<totfact> 0.96852579E+03</totfact>
</mgrwt>
</event>
<event>
 5    1  0.3294152E-002  0.1250004E+03  0.7818608E-02  0.1235069E+00
         -4   -1    0    0    0  501 -0.00000000000E+00  0.00000000000E+00  0.12274738593E+03  0.12275395575E+03  0.12700000000E+01 0. -1.
          4   -1    0    0  501    0  0.00000000000E+00 -0.00000000000E+00 -0.31803617931E+02  0.31828965009E+02  0.12700000000E+01 0. -1.
         25    2    1    2    0    0  0.00000000000E+00  0.00000000000E+00  0.90943768001E+02  0.15458292076E+03  0.12500044181E+03 0.  0.
    9000005    1    3    3    0    0 -0.32285238123E+02 -0.48254829506E+02  0.16883589908E+02  0.60472479522E+02  0.10000000000E+01 0.  0.
    9000005    1    3    3    0    0  0.32285238123E+02  0.48254829506E+02  0.74060178093E+02  0.94110441241E+02  0.10000000000E+01 0.  0.
<mgrwt>
<rscale>  0 0.12500044E+03</rscale>
<asrwt>0</asrwt>
<pdfrwt beam="2">  1        4 0.48953194E-02 0.12500044E+03</pdfrwt>
<pdfrwt beam="1">  1       -4 0.18886668E-01 0.12500044E+03</pdfrwt>
<totfact> 0.98396461E+03</totfact>
</mgrwt>
</event>
<event>
 5    1  0.3294152E-002  0.1249999E+03  0.7818608E-02  0.1235069E+00
          4   -1    0    0  501    0  0.00000000000E+00  0.00000000000E+00  0.26846330162E+03  0.26846630555E+03  0.12700000000E+01 0.  1.
         -4   -1    0    0    0  501 -0.00000000000E+00 -0.00000000000E+00 -0.14519570012E+02  0.14575006461E+02  0.12700000000E+01 0.  1.
         25    2    1    2    0    0  0.00000000000E+00  0.00000000000E+00  0.25394373161E+03  0.28304131201E+03  0.12499986193E+03 0.  0.
    9000005    1    3    3    0    0 -0.29766203714E+01  0.47140615113E+02  0.34323740274E+02  0.58397063355E+02  0.10000000000E+01 0.  0.
    9000005    1    3    3    0    0  0.29766203714E+01 -0.47140615113E+02  0.21961999133E+03  0.22464424866E+03  0.10000000000E+01 0.  0.
<mgrwt>
<rscale>  0 0.12499986E+03</rscale>
<asrwt>0</asrwt>
<pdfrwt beam="1">  1        4 0.41306543E-01 0.12499986E+03</pdfrwt>
<pdfrwt beam="2">  1       -4 0.22382753E-02 0.12499986E+03</pdfrwt>
<totfact> 0.77776806E+03</totfact>
</mgrwt>
</event>
<event>
 5    1  0.3294152E-002  0.1250046E+03  0.7818608E-02  0.1235062E+00
          4   -1    0    0  501    0  0.00000000000E+00  0.00000000000E+00  0.32404352482E+01  0.34804196009E+01  0.12700000000E+01 0.  1.
         -4   -1    0    0    0  501 -0.00000000000E+00 -0.00000000000E+00 -0.11622717058E+04  0.11622723997E+04  0.12700000000E+01 0.  1.
         25    2    1    2    0    0  0.00000000000E+00  0.00000000000E+00 -0.11590312706E+04  0.11657528193E+04  0.12500459788E+03 0.  0.
    9000005    1    3    3    0    0 -0.14621087064E+02 -0.22919151693E+02 -0.11042849445E+04  0.11046199810E+04  0.10000000000E+01 0.  0.
    9000005    1    3    3    0    0  0.14621087064E+02  0.22919151693E+02 -0.54746326048E+02  0.61132838287E+02  0.10000000000E+01 0.  0.
<mgrwt>
<rscale>  0 0.12500460E+03</rscale>
<asrwt>0</asrwt>
<pdfrwt beam="1">  1        4 0.51704314E-03 0.12500460E+03</pdfrwt>
<pdfrwt beam="2">  1       -4 0.17882922E+00 0.12500460E+03</pdfrwt>
<totfact> 0.25624658E+03</totfact>
</mgrwt>
</event>
<event>
 5    1  0.3294152E-002  0.1249964E+03  0.7818608E-02  0.1235075E+00
         -4   -1    0    0    0  501 -0.00000000000E+00  0.00000000000E+00  0.26048236577E+02  0.26079178070E+02  0.12700000000E+01 0.  1.
          4   -1    0    0  501    0  0.00000000000E+00 -0.00000000000E+00 -0.14983086937E+03  0.14983625168E+03  0.12700000000E+01 0.  1.
         25    2    1    2    0    0  0.00000000000E+00  0.00000000000E+00 -0.12378263280E+03  0.17591542975E+03  0.12499639292E+03 0.  0.
    9000005    1    3    3    0    0  0.55929773899E+02  0.27317304309E+02 -0.69682806813E+02  0.93440185618E+02  0.10000000000E+01 0.  0.
    9000005    1    3    3    0    0 -0.55929773899E+02 -0.27317304309E+02 -0.54099825983E+02  0.82475244131E+02  0.10000000000E+01 0.  0.
<mgrwt>
<rscale>  0 0.12499639E+03</rscale>
<asrwt>0</asrwt>
<pdfrwt beam="2">  1        4 0.23053697E-01 0.12499639E+03</pdfrwt>
<pdfrwt beam="1">  1       -4 0.40102153E-02 0.12499639E+03</pdfrwt>
<totfact> 0.94365084E+03</totfact>
</mgrwt>
</event>
<event>
 5    1  0.3294152E-002  0.1250008E+03  0.7818608E-02  0.1235068E+00
         -4   -1    0    0    0  501 -0.00000000000E+00  0.00000000000E+00  0.83425620319E+02  0.83435286453E+02  0.12700000000E+01 0.  1.
          4   -1    0    0  501    0  0.00000000000E+00 -0.00000000000E+00 -0.46802771763E+02  0.46819999410E+02  0.12700000000E+01 0.  1.
         25    2    1    2    0    0  0.00000000000E+00  0.00000000000E+00  0.36622848556E+02  0.13025528586E+03  0.12500082583E+03 0.  0.
    9000005    1    3    3    0    0 -0.43590281542E+01 -0.44501876440E+02  0.63802965127E+02  0.77918139686E+02  0.10000000000E+01 0.  0.
    9000005    1    3    3    0    0  0.43590281542E+01  0.44501876440E+02 -0.27180116571E+02  0.52337146177E+02  0.10000000000E+01 0.  0.
<mgrwt>
<rscale>  0 0.12500083E+03</rscale>
<asrwt>0</asrwt>
<pdfrwt beam="2">  1        4 0.72024953E-02 0.12500083E+03</pdfrwt>
<pdfrwt beam="1">  1       -4 0.12836779E-01 0.12500083E+03</pdfrwt>
<totfact> 0.10338857E+04</totfact>
</mgrwt>
</event>
<event>
 5    1  0.3294152E-002  0.1249745E+03  0.7818608E-02  0.1235109E+00
         -4   -1    0    0    0  501 -0.00000000000E+00  0.00000000000E+00  0.54335805092E+02  0.54350645028E+02  0.12700000000E+01 0.  1.
          4   -1    0    0  501    0  0.00000000000E+00 -0.00000000000E+00 -0.71831267323E+02  0.71842493451E+02  0.12700000000E+01 0.  1.
         25    2    1    2    0    0  0.00000000000E+00  0.00000000000E+00 -0.17495462231E+02  0.12619313848E+03  0.12497446539E+03 0.  0.
    9000005    1    3    3    0    0  0.56801856002E+02  0.21064351609E+02 -0.24177330067E+02  0.65235734403E+02  0.10000000000E+01 0.  0.
    9000005    1    3    3    0    0 -0.56801856002E+02 -0.21064351609E+02  0.66818678356E+01  0.60957404076E+02  0.10000000000E+01 0.  0.
<mgrwt>
<rscale>  0 0.12497447E+03</rscale>
<asrwt>0</asrwt>
<pdfrwt beam="2">  1        4 0.11052969E-01 0.12497447E+03</pdfrwt>
<pdfrwt beam="1">  1       -4 0.83613597E-02 0.12497447E+03</pdfrwt>
<totfact> 0.10432740E+04</totfact>
</mgrwt>
</event>
<event>
 5    1  0.3294152E-002  0.1250037E+03  0.7818608E-02  0.1235064E+00
          4   -1    0    0  501    0  0.00000000000E+00  0.00000000000E+00  0.20863888911E+02  0.20902506082E+02  0.12700000000E+01 0. -1.
         -4   -1    0    0    0  501 -0.00000000000E+00 -0.00000000000E+00 -0.18702251736E+03  0.18702682936E+03  0.12700000000E+01 0. -1.
         25    2    1    2    0    0  0.00000000000E+00  0.00000000000E+00 -0.16615862845E+03  0.20792933544E+03  0.12500367486E+03 0.  0.
    9000005    1    3    3    0    0  0.13323630717E+02 -0.43684990370E+02 -0.12124997805E+02  0.47264289806E+02  0.10000000000E+01 0.  0.
    9000005    1    3    3    0    0 -0.13323630717E+02  0.43684990370E+02 -0.15403363064E+03  0.16066504563E+03  0.10000000000E+01 0.  0.
<mgrwt>
<rscale>  0 0.12500367E+03</rscale>
<asrwt>0</asrwt>
<pdfrwt beam="1">  1        4 0.32131314E-02 0.12500367E+03</pdfrwt>
<pdfrwt beam="2">  1       -4 0.28775996E-01 0.12500367E+03</pdfrwt>
<totfact> 0.88807871E+03</totfact>
</mgrwt>
</event>
<event>
 5    1  0.3294152E-002  0.1249976E+03  0.7818608E-02  0.1235073E+00
          4   -1    0    0  501    0  0.00000000000E+00  0.00000000000E+00  0.61120276802E+01  0.62425781825E+01  0.12700000000E+01 0. -1.
         -4   -1    0    0    0  501 -0.00000000000E+00 -0.00000000000E+00 -0.63219987337E+03  0.63220114900E+03  0.12700000000E+01 0. -1.
         25    2    1    2    0    0  0.00000000000E+00  0.00000000000E+00 -0.62608784569E+03  0.63844372718E+03  0.12499760898E+03 0.  0.
    9000005    1    3    3    0    0  0.28925843669E+02  0.48448508296E+02 -0.17588307477E+03  0.18471550660E+03  0.10000000000E+01 0.  0.
    9000005    1    3    3    0    0 -0.28925843669E+02 -0.48448508296E+02 -0.45020477092E+03  0.45372822058E+03  0.10000000000E+01 0.  0.
<mgrwt>
<rscale>  0 0.12499761E+03</rscale>
<asrwt>0</asrwt>
<pdfrwt beam="1">  1        4 0.95045292E-03 0.12499761E+03</pdfrwt>
<pdfrwt beam="2">  1       -4 0.97271608E-01 0.12499761E+03</pdfrwt>
<totfact> 0.46529921E+03</totfact>
</mgrwt>
</event>
<event>
 5    1  0.3294152E-002  0.1249982E+03  0.7818608E-02  0.1235072E+00
          4   -1    0    0  501    0  0.00000000000E+00  0.00000000000E+00  0.19820624159E+02  0.19861269900E+02  0.12700000000E+01 0.  1.
         -4   -1    0    0    0  501 -0.00000000000E+00 -0.00000000000E+00 -0.19682974415E+03  0.19683384130E+03  0.12700000000E+01 0.  1.
         25    2    1    2    0    0  0.00000000000E+00  0.00000000000E+00 -0.17700911999E+03  0.21669511120E+03  0.12499817063E+03 0.  0.
    9000005    1    3    3    0    0  0.17696871516E+02  0.37777634565E+02 -0.78451536845E+01  0.42460279923E+02  0.10000000000E+01 0.  0.
    9000005    1    3    3    0    0 -0.17696871516E+02 -0.37777634565E+02 -0.16916396631E+03  0.17423483128E+03  0.10000000000E+01 0.  0.
<mgrwt>
<rscale>  0 0.12499817E+03</rscale>
<asrwt>0</asrwt>
<pdfrwt beam="1">  1        4 0.30527687E-02 0.12499817E+03</pdfrwt>
<pdfrwt beam="2">  1       -4 0.30284939E-01 0.12499817E+03</pdfrwt>
<totfact> 0.87397594E+03</totfact>
</mgrwt>
</event>
<event>
 5    1  0.3294152E-002  0.1250014E+03  0.7818608E-02  0.1235067E+00
         -4   -1    0    0    0  501 -0.00000000000E+00  0.00000000000E+00  0.16626818614E+04  0.16626823464E+04  0.12700000000E+01 0. -1.
          4   -1    0    0  501    0  0.00000000000E+00 -0.00000000000E+00 -0.21772697073E+01  0.25205958380E+01  0.12700000000E+01 0. -1.
         25    2    1    2    0    0  0.00000000000E+00  0.00000000000E+00  0.16605045917E+04  0.16652029422E+04  0.12500135961E+03 0.  0.
    9000005    1    3    3    0    0 -0.12564805888E+02  0.25668759936E+01  0.15475140017E+02  0.20123199495E+02  0.10000000000E+01 0.  0.
    9000005    1    3    3    0    0  0.12564805888E+02 -0.25668759936E+01  0.16450294516E+04  0.16450797427E+04  0.10000000000E+01 0.  0.
<mgrwt>
<rscale>  0 0.12500136E+03</rscale>
<asrwt>0</asrwt>
<pdfrwt beam="2">  1        4 0.36141243E-03 0.12500136E+03</pdfrwt>
<pdfrwt beam="1">  1       -4 0.25582306E+00 0.12500136E+03</pdfrwt>
<totfact> 0.14896429E+03</totfact>
</mgrwt>
</event>
<event>
 5    1  0.3294152E-002  0.1250011E+03  0.7818608E-02  0.1235068E+00
          4   -1    0    0  501    0  0.00000000000E+00  0.00000000000E+00  0.93544927829E+03  0.93545014039E+03  0.12700000000E+01 0. -1.
         -4   -1    0    0    0  501 -0.00000000000E+00 -0.00000000000E+00 -0.40784299197E+01  0.42715911099E+01  0.12700000000E+01 0. -1.
         25    2    1    2    0    0  0.00000000000E+00  0.00000000000E+00  0.93137084837E+03  0.93972173150E+03  0.12500110182E+03 0.  0.
    9000005    1    3    3    0    0  0.46023484761E+02  0.41387766976E+02  0.53044708667E+03  0.53404702056E+03  0.10000000000E+01 0.  0.
    9000005    1    3    3    0    0 -0.46023484761E+02 -0.41387766976E+02  0.40092376169E+03  0.40567471094E+03  0.10000000000E+01 0.  0.
<mgrwt>
<rscale>  0 0.12500110E+03</rscale>
<asrwt>0</asrwt>
<pdfrwt beam="1">  1        4 0.14393040E+00 0.12500110E+03</pdfrwt>
<pdfrwt beam="2">  1       -4 0.64237474E-03 0.12500110E+03</pdfrwt>
<totfact> 0.32682893E+03</totfact>
</mgrwt>
</event>
<event>
 5    1  0.3294152E-002  0.1249976E+03  0.7818608E-02  0.1235073E+00
          4   -1    0    0  501    0  0.00000000000E+00  0.00000000000E+00  0.32713433174E+03  0.32713679693E+03  0.12700000000E+01 0.  1.
         -4   -1    0    0    0  501 -0.00000000000E+00 -0.00000000000E+00 -0.11904071683E+02  0.11971625731E+02  0.12700000000E+01 0.  1.
         25    2    1    2    0    0  0.00000000000E+00  0.00000000000E+00  0.31523026006E+03  0.33910842266E+03  0.12499762182E+03 0.  0.
    9000005    1    3    3    0    0  0.23441595028E+02 -0.51157311345E+02  0.83889466938E+02  0.10101990668E+03  0.10000000000E+01 0.  0.
    9000005    1    3    3    0    0 -0.23441595028E+02  0.51157311345E+02  0.23134079312E+03  0.23808851599E+03  0.10000000000E+01 0.  0.
<mgrwt>
<rscale>  0 0.12499762E+03</rscale>
<asrwt>0</asrwt>
<pdfrwt beam="1">  1        4 0.50333741E-01 0.12499762E+03</pdfrwt>
<pdfrwt beam="2">  1       -4 0.18367819E-02 0.12499762E+03</pdfrwt>
<totfact> 0.70943356E+03</totfact>
</mgrwt>
</event>
<event>
 5    1  0.3294152E-002  0.1250015E+03  0.7818608E-02  0.1235067E+00
         -4   -1    0    0    0  501 -0.00000000000E+00  0.00000000000E+00  0.42955028483E+02  0.42973798669E+02  0.12700000000E+01 0.  1.
          4   -1    0    0  501    0  0.00000000000E+00 -0.00000000000E+00 -0.90897271364E+02  0.90906143034E+02  0.12700000000E+01 0.  1.
         25    2    1    2    0    0  0.00000000000E+00  0.00000000000E+00 -0.47942242880E+02  0.13387994170E+03  0.12500152054E+03 0.  0.
    9000005    1    3    3    0    0 -0.22729647574E+01  0.62398225712E+02 -0.26730983164E+02  0.67928273949E+02  0.10000000000E+01 0.  0.
    9000005    1    3    3    0    0  0.22729647574E+01 -0.62398225712E+02 -0.21211259716E+02  0.65951667754E+02  0.10000000000E+01 0.  0.
<mgrwt>
<rscale>  0 0.12500152E+03</rscale>
<asrwt>0</asrwt>
<pdfrwt beam="2">  1        4 0.13986322E-01 0.12500152E+03</pdfrwt>
<pdfrwt beam="1">  1       -4 0.66105922E-02 0.12500152E+03</pdfrwt>
<totfact> 0.10261381E+04</totfact>
</mgrwt>
</event>
<event>
 5    1  0.3294152E-002  0.1249998E+03  0.7818608E-02  0.1235070E+00
          4   -1    0    0  501    0  0.00000000000E+00  0.00000000000E+00  0.99929458066E+01  0.10073324471E+02  0.12700000000E+01 0.  1.
         -4   -1    0    0    0  501 -0.00000000000E+00 -0.00000000000E+00 -0.38925250523E+03  0.38925457701E+03  0.12700000000E+01 0.  1.
         25    2    1    2    0    0  0.00000000000E+00  0.00000000000E+00 -0.37925955942E+03  0.39932790148E+03  0.12499983797E+03 0.  0.
    9000005    1    3    3    0    0  0.21887036371E+02 -0.52837512835E+02 -0.10916608033E+03  0.12324397842E+03  0.10000000000E+01 0.  0.
    9000005    1    3    3    0    0 -0.21887036371E+02  0.52837512835E+02 -0.27009347909E+03  0.27608392306E+03  0.10000000000E+01 0.  0.
<mgrwt>
<rscale>  0 0.12499984E+03</rscale>
<asrwt>0</asrwt>
<pdfrwt beam="1">  1        4 0.15437189E-02 0.12499984E+03</pdfrwt>
<pdfrwt beam="2">  1       -4 0.59891332E-01 0.12499984E+03</pdfrwt>
<totfact> 0.64618446E+03</totfact>
</mgrwt>
</event>
<event>
 5    1  0.3294152E-002  0.1249962E+03  0.7818608E-02  0.1235075E+00
          4   -1    0    0  501    0  0.00000000000E+00  0.00000000000E+00  0.38444236854E+03  0.38444446625E+03  0.12700000000E+01 0.  1.
         -4   -1    0    0    0  501 -0.00000000000E+00 -0.00000000000E+00 -0.10118386487E+02  0.10197776478E+02  0.12700000000E+01 0.  1.
         25    2    1    2    0    0  0.00000000000E+00  0.00000000000E+00  0.37432398206E+03  0.39464224273E+03  0.12499622476E+03 0.  0.
    9000005    1    3    3    0    0  0.52278251349E+02 -0.33366597983E+02  0.21134496078E+03  0.22025902449E+03  0.10000000000E+01 0.  0.
    9000005    1    3    3    0    0 -0.52278251349E+02  0.33366597983E+02  0.16297902128E+03  0.17438321824E+03  0.10000000000E+01 0.  0.
<mgrwt>
<rscale>  0 0.12499622E+03</rscale>
<asrwt>0</asrwt>
<pdfrwt beam="1">  1        4 0.59151239E-01 0.12499622E+03</pdfrwt>
<pdfrwt beam="2">  1       -4 0.15629434E-02 0.12499622E+03</pdfrwt>
<totfact> 0.65082664E+03</totfact>
</mgrwt>
</event>
<event>
 5    1  0.3294152E-002  0.1250081E+03  0.7818608E-02  0.1235057E+00
         -4   -1    0    0    0  501 -0.00000000000E+00  0.00000000000E+00  0.90679402434E+01  0.91564425548E+01  0.12700000000E+01 0. -1.
          4   -1    0    0  501    0  0.00000000000E+00 -0.00000000000E+00 -0.42864977710E+03  0.42865165846E+03  0.12700000000E+01 0. -1.
         25    2    1    2    0    0  0.00000000000E+00  0.00000000000E+00 -0.41958183685E+03  0.43780810102E+03  0.12500806175E+03 0.  0.
    9000005    1    3    3    0    0 -0.37794450302E+02  0.48817990702E+02 -0.24377115335E+03  0.25146966396E+03  0.10000000000E+01 0.  0.
    9000005    1    3    3    0    0  0.37794450302E+02 -0.48817990702E+02 -0.17581068351E+03  0.18633843706E+03  0.10000000000E+01 0.  0.
<mgrwt>
<rscale>  0 0.12500806E+03</rscale>
<asrwt>0</asrwt>
<pdfrwt beam="2">  1        4 0.65953056E-01 0.12500806E+03</pdfrwt>
<pdfrwt beam="1">  1       -4 0.14020207E-02 0.12500806E+03</pdfrwt>
<totfact> 0.61023719E+03</totfact>
</mgrwt>
</event>
<event>
 5    1  0.3294152E-002  0.1249991E+03  0.7818608E-02  0.1235071E+00
         -4   -1    0    0    0  501 -0.00000000000E+00  0.00000000000E+00  0.23362566277E+04  0.23362569728E+04  0.12700000000E+01 0. -1.
          4   -1    0    0  501    0  0.00000000000E+00 -0.00000000000E+00 -0.14304278700E+01  0.19128575199E+01  0.12700000000E+01 0. -1.
         25    2    1    2    0    0  0.00000000000E+00  0.00000000000E+00  0.23348261998E+04  0.23381698304E+04  0.12499908968E+03 0.  0.
    9000005    1    3    3    0    0 -0.76955686754E+00 -0.59715149539E+02  0.15116662766E+04  0.15128458029E+04  0.10000000000E+01 0.  0.
    9000005    1    3    3    0    0  0.76955686754E+00  0.59715149539E+02  0.82315992315E+03  0.82532402750E+03  0.10000000000E+01 0.  0.
<mgrwt>
<rscale>  0 0.12499909E+03</rscale>
<asrwt>0</asrwt>
<pdfrwt beam="2">  1        4 0.25720133E-03 0.12499909E+03</pdfrwt>
<pdfrwt beam="1">  1       -4 0.35946266E+00 0.12499909E+03</pdfrwt>
<totfact> 0.60683085E+02</totfact>
</mgrwt>
</event>
<event>
 5    1  0.3294152E-002  0.1249995E+03  0.7818608E-02  0.1235070E+00
         -4   -1    0    0    0  501 -0.00000000000E+00  0.00000000000E+00  0.60908215212E+02  0.60921454188E+02  0.12700000000E+01 0.  1.
          4   -1    0    0  501    0  0.00000000000E+00 -0.00000000000E+00 -0.64106418948E+02  0.64118997578E+02  0.12700000000E+01 0.  1.
         25    2    1    2    0    0  0.00000000000E+00  0.00000000000E+00 -0.31982037360E+01  0.12504045177E+03  0.12499954428E+03 0.  0.
    9000005    1    3    3    0    0  0.42081312679E+02  0.45993245929E+02 -0.59601122612E+01  0.62631768984E+02  0.10000000000E+01 0.  0.
    9000005    1    3    3    0    0 -0.42081312679E+02 -0.45993245929E+02  0.27619085252E+01  0.62408682782E+02  0.10000000000E+01 0.  0.
<mgrwt>
<rscale>  0 0.12499954E+03</rscale>
<asrwt>0</asrwt>
<pdfrwt beam="2">  1        4 0.98645120E-02 0.12499954E+03</pdfrwt>
<pdfrwt beam="1">  1       -4 0.93724806E-02 0.12499954E+03</pdfrwt>
<totfact> 0.10452092E+04</totfact>
</mgrwt>
</event>
<event>
 5    1  0.3294152E-002  0.1250017E+03  0.7818608E-02  0.1235067E+00
         -4   -1    0    0    0  501 -0.00000000000E+00  0.00000000000E+00  0.20993541065E+03  0.20993925204E+03  0.12700000000E+01 0.  1.
          4   -1    0    0  501    0  0.00000000000E+00 -0.00000000000E+00 -0.18581742800E+02  0.18625092362E+02  0.12700000000E+01 0.  1.
         25    2    1    2    0    0  0.00000000000E+00  0.00000000000E+00  0.19135366785E+03  0.22856434440E+03  0.12500173331E+03 0.  0.
    9000005    1    3    3    0    0 -0.39886603205E+02  0.91590986335E+01  0.18203358590E+03  0.18657989334E+03  0.10000000000E+01 0.  0.
    9000005    1    3    3    0    0  0.39886603205E+02 -0.91590986335E+01  0.93200819493E+01  0.41984451057E+02  0.10000000000E+01 0.  0.
<mgrwt>
<rscale>  0 0.12500173E+03</rscale>
<asrwt>0</asrwt>
<pdfrwt beam="2">  1        4 0.28623598E-02 0.12500173E+03</pdfrwt>
<pdfrwt beam="1">  1       -4 0.32301385E-01 0.12500173E+03</pdfrwt>
<totfact> 0.85527223E+03</totfact>
</mgrwt>
</event>
<event>
 5    1  0.3294152E-002  0.1250015E+03  0.7818608E-02  0.1235067E+00
         -4   -1    0    0    0  501 -0.00000000000E+00  0.00000000000E+00  0.75275824242E+01  0.76339633974E+01  0.12700000000E+01 0.  1.
          4   -1    0    0  501    0  0.00000000000E+00 -0.00000000000E+00 -0.51518901601E+03  0.51519058136E+03  0.12700000000E+01 0.  1.
         25    2    1    2    0    0  0.00000000000E+00  0.00000000000E+00 -0.50766143359E+03  0.52282454475E+03  0.12500149377E+03 0.  0.
    9000005    1    3    3    0    0  0.61008723529E+02 -0.10359970837E+02 -0.21738011451E+03  0.22601882118E+03  0.10000000000E+01 0.  0.
    9000005    1    3    3    0    0 -0.61008723529E+02  0.10359970837E+02 -0.29028131907E+03  0.29680572357E+03  0.10000000000E+01 0.  0.
<mgrwt>
<rscale>  0 0.12500149E+03</rscale>
<asrwt>0</asrwt>
<pdfrwt beam="2">  1        4 0.79268125E-01 0.12500149E+03</pdfrwt>
<pdfrwt beam="1">  1       -4 0.11663936E-02 0.12500149E+03</pdfrwt>
<totfact> 0.54134188E+03</totfact>
</mgrwt>
</event>
<event>
 5    1  0.3294152E-002  0.1249987E+03  0.7818608E-02  0.1235071E+00
         -4   -1    0    0    0  501 -0.00000000000E+00  0.00000000000E+00  0.14507193075E+02  0.14562676640E+02  0.12700000000E+01 0. -1.
          4   -1    0    0  501    0  0.00000000000E+00 -0.00000000000E+00 -0.26868638644E+03  0.26868938788E+03  0.12700000000E+01 0. -1.
         25    2    1    2    0    0  0.00000000000E+00  0.00000000000E+00 -0.25417919337E+03  0.28325206452E+03  0.12499867885E+03 0.  0.
    9000005    1    3    3    0    0  0.43170498274E+02  0.40403331499E+02 -0.81259169920E+02  0.10049962096E+03  0.10000000000E+01 0.  0.
    9000005    1    3    3    0    0 -0.43170498274E+02 -0.40403331499E+02 -0.17292002345E+03  0.18275244356E+03  0.10000000000E+01 0.  0.
<mgrwt>
<rscale>  0 0.12499868E+03</rscale>
<asrwt>0</asrwt>
<pdfrwt beam="2">  1        4 0.41340862E-01 0.12499868E+03</pdfrwt>
<pdfrwt beam="1">  1       -4 0.22363749E-02 0.12499868E+03</pdfrwt>
<totfact> 0.77751156E+03</totfact>
</mgrwt>
</event>
<event>
 5    1  0.3294152E-002  0.1249929E+03  0.7818608E-02  0.1235080E+00
          4   -1    0    0  501    0  0.00000000000E+00  0.00000000000E+00  0.18686930404E+03  0.18687361958E+03  0.12700000000E+01 0. -1.
         -4   -1    0    0    0  501 -0.00000000000E+00 -0.00000000000E+00 -0.20877420604E+02  0.20916012792E+02  0.12700000000E+01 0. -1.
         25    2    1    2    0    0  0.00000000000E+00  0.00000000000E+00  0.16599188344E+03  0.20778963237E+03  0.12499290361E+03 0.  0.
    9000005    1    3    3    0    0 -0.44159489071E+02  0.40579274779E+02  0.11217438680E+03  0.12720389566E+03  0.10000000000E+01 0.  0.
    9000005    1    3    3    0    0  0.44159489071E+02 -0.40579274779E+02  0.53817496641E+02  0.80585736712E+02  0.10000000000E+01 0.  0.
<mgrwt>
<rscale>  0 0.12499290E+03</rscale>
<asrwt>0</asrwt>
<pdfrwt beam="1">  1        4 0.28752423E-01 0.12499290E+03</pdfrwt>
<pdfrwt beam="2">  1       -4 0.32152116E-02 0.12499290E+03</pdfrwt>
<totfact> 0.88852239E+03</totfact>
</mgrwt>
</event>
<event>
 5    1  0.3294152E-002  0.1249966E+03  0.7818608E-02  0.1235075E+00
         -4   -1    0    0    0  501 -0.00000000000E+00  0.00000000000E+00  0.14147709835E+03  0.14148279845E+03  0.12700000000E+01 0.  1.
          4   -1    0    0  501    0  0.00000000000E+00 -0.00000000000E+00 -0.27588123979E+02  0.27617340290E+02  0.12700000000E+01 0.  1.
         25    2    1    2    0    0  0.00000000000E+00  0.00000000000E+00  0.11388897437E+03  0.16910013874E+03  0.12499663371E+03 0.  0.
    9000005    1    3    3    0    0 -0.54985677408E+02  0.27891020128E+02  0.43167719029E+02  0.75271413498E+02  0.10000000000E+01 0.  0.
    9000005    1    3    3    0    0  0.54985677408E+02 -0.27891020128E+02  0.70721255343E+02  0.93828725245E+02  0.10000000000E+01 0.  0.
<mgrwt>
<rscale>  0 0.12499663E+03</rscale>
<asrwt>0</asrwt>
<pdfrwt beam="2">  1        4 0.42470127E-02 0.12499663E+03</pdfrwt>
<pdfrwt beam="1">  1       -4 0.21768393E-01 0.12499663E+03</pdfrwt>
<totfact> 0.95623704E+03</totfact>
</mgrwt>
</event>
<event>
 5    1  0.3294152E-002  0.1250033E+03  0.7818608E-02  0.1235064E+00
         -4   -1    0    0    0  501 -0.00000000000E+00  0.00000000000E+00  0.10653941899E+03  0.10654698822E+03  0.12700000000E+01 0. -1.
          4   -1    0    0  501    0  0.00000000000E+00 -0.00000000000E+00 -0.36646909040E+02  0.36668908386E+02  0.12700000000E+01 0. -1.
         25    2    1    2    0    0  0.00000000000E+00  0.00000000000E+00  0.69892509952E+02  0.14321589661E+03  0.12500332033E+03 0.  0.
    9000005    1    3    3    0    0 -0.45984513308E+02  0.42237817892E+02  0.31947942541E+02  0.70144705838E+02  0.10000000000E+01 0.  0.
    9000005    1    3    3    0    0  0.45984513308E+02 -0.42237817892E+02  0.37944567411E+02  0.73071190770E+02  0.10000000000E+01 0.  0.
<mgrwt>
<rscale>  0 0.12500332E+03</rscale>
<asrwt>0</asrwt>
<pdfrwt beam="2">  1        4 0.56402604E-02 0.12500332E+03</pdfrwt>
<pdfrwt beam="1">  1       -4 0.16392955E-01 0.12500332E+03</pdfrwt>
<totfact> 0.10066611E+04</totfact>
</mgrwt>
</event>
<event>
 5    1  0.3294152E-002  0.1250027E+03  0.7818608E-02  0.1235065E+00
         -4   -1    0    0    0  501 -0.00000000000E+00  0.00000000000E+00  0.41967877274E+02  0.41987088765E+02  0.12700000000E+01 0.  1.
          4   -1    0    0  501    0  0.00000000000E+00 -0.00000000000E+00 -0.93036317005E+02  0.93044984721E+02  0.12700000000E+01 0.  1.
         25    2    1    2    0    0  0.00000000000E+00  0.00000000000E+00 -0.51068439730E+02  0.13503207349E+03  0.12500270130E+03 0.  0.
    9000005    1    3    3    0    0 -0.57072341154E+02  0.18645066097E+02 -0.68075667029E+01  0.60433712272E+02  0.10000000000E+01 0.  0.
    9000005    1    3    3    0    0  0.57072341154E+02 -0.18645066097E+02 -0.44260873027E+02  0.74598361214E+02  0.10000000000E+01 0.  0.
<mgrwt>
<rscale>  0 0.12500270E+03</rscale>
<asrwt>0</asrwt>
<pdfrwt beam="2">  1        4 0.14315424E-01 0.12500270E+03</pdfrwt>
<pdfrwt beam="1">  1       -4 0.64587411E-02 0.12500270E+03</pdfrwt>
<totfact> 0.10236771E+04</totfact>
</mgrwt>
</event>
<event>
 5    1  0.3294152E-002  0.1249998E+03  0.7818608E-02  0.1235070E+00
         -4   -1    0    0    0  501 -0.00000000000E+00  0.00000000000E+00  0.21470255303E+02  0.21507783772E+02  0.12700000000E+01 0.  1.
          4   -1    0    0  501    0  0.00000000000E+00 -0.00000000000E+00 -0.18173861517E+03  0.18174305253E+03  0.12700000000E+01 0.  1.
         25    2    1    2    0    0  0.00000000000E+00  0.00000000000E+00 -0.16026835987E+03  0.20325083630E+03  0.12499982113E+03 0.  0.
    9000005    1    3    3    0    0  0.16244880322E+02  0.57693667079E+02 -0.10889126364E+03  0.12430109676E+03  0.10000000000E+01 0.  0.
    9000005    1    3    3    0    0 -0.16244880322E+02 -0.57693667079E+02 -0.51377096222E+02  0.78949739543E+02  0.10000000000E+01 0.  0.
<mgrwt>
<rscale>  0 0.12499982E+03</rscale>
<asrwt>0</asrwt>
<pdfrwt beam="2">  1        4 0.27963014E-01 0.12499982E+03</pdfrwt>
<pdfrwt beam="1">  1       -4 0.33063445E-02 0.12499982E+03</pdfrwt>
<totfact> 0.89590467E+03</totfact>
</mgrwt>
</event>
<event>
 5    1  0.3294152E-002  0.1249981E+03  0.7818608E-02  0.1235072E+00
          4   -1    0    0  501    0  0.00000000000E+00  0.00000000000E+00  0.41047326571E+02  0.41066968705E+02  0.12700000000E+01 0. -1.
         -4   -1    0    0    0  501 -0.00000000000E+00 -0.00000000000E+00 -0.95115007622E+02  0.95123485927E+02  0.12700000000E+01 0. -1.
         25    2    1    2    0    0  0.00000000000E+00  0.00000000000E+00 -0.54067681051E+02  0.13619045463E+03  0.12499810318E+03 0.  0.
    9000005    1    3    3    0    0  0.31505438944E+02 -0.46419844779E+02  0.29579524894E+01  0.56188469950E+02  0.10000000000E+01 0.  0.
    9000005    1    3    3    0    0 -0.31505438944E+02  0.46419844779E+02 -0.57025633541E+02  0.80001984682E+02  0.10000000000E+01 0.  0.
<mgrwt>
<rscale>  0 0.12499810E+03</rscale>
<asrwt>0</asrwt>
<pdfrwt beam="1">  1        4 0.63171364E-02 0.12499810E+03</pdfrwt>
<pdfrwt beam="2">  1       -4 0.14635241E-01 0.12499810E+03</pdfrwt>
<totfact> 0.10213477E+04</totfact>
</mgrwt>
</event>
<event>
 5    1  0.3294152E-002  0.1250020E+03  0.7818608E-02  0.1235066E+00
          4   -1    0    0  501    0  0.00000000000E+00  0.00000000000E+00  0.10550522576E+03  0.10551286918E+03  0.12700000000E+01 0.  1.
         -4   -1    0    0    0  501 -0.00000000000E+00 -0.00000000000E+00 -0.37005567254E+02  0.37027353508E+02  0.12700000000E+01 0.  1.
         25    2    1    2    0    0  0.00000000000E+00  0.00000000000E+00  0.68499658506E+02  0.14254022269E+03  0.12500204746E+03 0.  0.
    9000005    1    3    3    0    0  0.95317775572E+01  0.61671727751E+02  0.38052561444E+02  0.73097566442E+02  0.10000000000E+01 0.  0.
    9000005    1    3    3    0    0 -0.95317775572E+01 -0.61671727751E+02  0.30447097062E+02  0.69442656248E+02  0.10000000000E+01 0.  0.
<mgrwt>
<rscale>  0 0.12500205E+03</rscale>
<asrwt>0</asrwt>
<pdfrwt beam="1">  1        4 0.16233837E-01 0.12500205E+03</pdfrwt>
<pdfrwt beam="2">  1       -4 0.56954281E-02 0.12500205E+03</pdfrwt>
<totfact> 0.10080742E+04</totfact>
</mgrwt>
</event>
<event>
 5    1  0.3294152E-002  0.1250002E+03  0.7818608E-02  0.1235069E+00
         -4   -1    0    0    0  501 -0.00000000000E+00  0.00000000000E+00  0.14445743806E+02  0.14501462482E+02  0.12700000000E+01 0.  1.
          4   -1    0    0  501    0  0.00000000000E+00 -0.00000000000E+00 -0.26983158266E+03  0.26983457136E+03  0.12700000000E+01 0.  1.
         25    2    1    2    0    0  0.00000000000E+00  0.00000000000E+00 -0.25538583885E+03  0.28433603384E+03  0.12500021381E+03 0.  0.
    9000005    1    3    3    0    0  0.27586997247E+02 -0.14454022150E+01 -0.25519971795E+03  0.25669247680E+03  0.10000000000E+01 0.  0.
    9000005    1    3    3    0    0 -0.27586997247E+02  0.14454022150E+01 -0.18612090155E+00  0.27643557037E+02  0.10000000000E+01 0.  0.
<mgrwt>
<rscale>  0 0.12500021E+03</rscale>
<asrwt>0</asrwt>
<pdfrwt beam="2">  1        4 0.41517063E-01 0.12500021E+03</pdfrwt>
<pdfrwt beam="1">  1       -4 0.22269383E-02 0.12500021E+03</pdfrwt>
<totfact> 0.77606302E+03</totfact>
</mgrwt>
</event>
<event>
 5    1  0.3294152E-002  0.1250009E+03  0.7818608E-02  0.1235068E+00
         -4   -1    0    0    0  501 -0.00000000000E+00  0.00000000000E+00  0.11241712125E+02  0.11313221977E+02  0.12700000000E+01 0.  1.
          4   -1    0    0  501    0  0.00000000000E+00 -0.00000000000E+00 -0.34630876474E+03  0.34631109344E+03  0.12700000000E+01 0.  1.
         25    2    1    2    0    0  0.00000000000E+00  0.00000000000E+00 -0.33506705262E+03  0.35762431542E+03  0.12500088490E+03 0.  0.
    9000005    1    3    3    0    0 -0.79650405229E+01 -0.70085139932E+01  0.86603160573E+01  0.13731795700E+02  0.10000000000E+01 0.  0.
    9000005    1    3    3    0    0  0.79650405229E+01  0.70085139932E+01 -0.34372736868E+03  0.34389251972E+03  0.10000000000E+01 0.  0.
<mgrwt>
<rscale>  0 0.12500088E+03</rscale>
<asrwt>0</asrwt>
<pdfrwt beam="2">  1        4 0.53283943E-01 0.12500088E+03</pdfrwt>
<pdfrwt beam="1">  1       -4 0.17351743E-02 0.12500088E+03</pdfrwt>
<totfact> 0.68892508E+03</totfact>
</mgrwt>
</event>
<event>
 5    1  0.3294152E-002  0.1249995E+03  0.7818608E-02  0.1235070E+00
          4   -1    0    0  501    0  0.00000000000E+00  0.00000000000E+00  0.12724474686E+03  0.12725108449E+03  0.12700000000E+01 0.  1.
         -4   -1    0    0    0  501 -0.00000000000E+00 -0.00000000000E+00 -0.30678226045E+02  0.30704502166E+02  0.12700000000E+01 0.  1.
         25    2    1    2    0    0  0.00000000000E+00  0.00000000000E+00  0.96566520818E+02  0.15795558666E+03  0.12499949765E+03 0.  0.
    9000005    1    3    3    0    0  0.42106439960E+02 -0.85159921323E+01  0.10563325312E+03  0.11403884677E+03  0.10000000000E+01 0.  0.
    9000005    1    3    3    0    0 -0.42106439960E+02  0.85159921323E+01 -0.90667322981E+01  0.43916739891E+02  0.10000000000E+01 0.  0.
<mgrwt>
<rscale>  0 0.12499950E+03</rscale>
<asrwt>0</asrwt>
<pdfrwt beam="1">  1        4 0.19578624E-01 0.12499950E+03</pdfrwt>
<pdfrwt beam="2">  1       -4 0.47222358E-02 0.12499950E+03</pdfrwt>
<totfact> 0.97739489E+03</totfact>
</mgrwt>
</event>
<event>
 5    1  0.3294152E-002  0.1250008E+03  0.7818608E-02  0.1235068E+00
          4   -1    0    0  501    0  0.00000000000E+00  0.00000000000E+00  0.10389188912E+03  0.10389965123E+03  0.12700000000E+01 0.  1.
         -4   -1    0    0    0  501 -0.00000000000E+00 -0.00000000000E+00 -0.37579765846E+02  0.37601219409E+02  0.12700000000E+01 0.  1.
         25    2    1    2    0    0  0.00000000000E+00  0.00000000000E+00  0.66312123277E+02  0.14150087064E+03  0.12500079479E+03 0.  0.
    9000005    1    3    3    0    0 -0.58487319731E+02  0.14077190489E+02  0.52312154008E+02  0.79727632088E+02  0.10000000000E+01 0.  0.
    9000005    1    3    3    0    0  0.58487319731E+02 -0.14077190489E+02  0.13999969269E+02  0.61773238550E+02  0.10000000000E+01 0.  0.
<mgrwt>
<rscale>  0 0.12500079E+03</rscale>
<asrwt>0</asrwt>
<pdfrwt beam="1">  1        4 0.15985615E-01 0.12500079E+03</pdfrwt>
<pdfrwt beam="2">  1       -4 0.57837499E-02 0.12500079E+03</pdfrwt>
<totfact> 0.10102393E+04</totfact>
</mgrwt>
</event>
<event>
 5    1  0.3294152E-002  0.1250038E+03  0.7818608E-02  0.1235063E+00
          4   -1    0    0  501    0  0.00000000000E+00  0.00000000000E+00  0.16663598341E+03  0.16664082293E+03  0.12700000000E+01 0. -1.
         -4   -1    0    0    0  501 -0.00000000000E+00 -0.00000000000E+00 -0.23420862830E+02  0.23455270532E+02  0.12700000000E+01 0. -1.
         25    2    1    2    0    0  0.00000000000E+00  0.00000000000E+00  0.14321512058E+03  0.19009609347E+03  0.12500381589E+03 0.  0.
    9000005    1    3    3    0    0 -0.41338342319E+02 -0.42285675220E+02  0.10234540352E+03  0.11820540806E+03  0.10000000000E+01 0.  0.
    9000005    1    3    3    0    0  0.41338342319E+02  0.42285675220E+02  0.40869717067E+02  0.71890685403E+02  0.10000000000E+01 0.  0.
<mgrwt>
<rscale>  0 0.12500382E+03</rscale>
<asrwt>0</asrwt>
<pdfrwt beam="1">  1        4 0.25639323E-01 0.12500382E+03</pdfrwt>
<pdfrwt beam="2">  1       -4 0.36062288E-02 0.12500382E+03</pdfrwt>
<totfact> 0.91822749E+03</totfact>
</mgrwt>
</event>
<event>
 5    1  0.3294152E-002  0.1250011E+03  0.7818608E-02  0.1235068E+00
         -4   -1    0    0    0  501 -0.00000000000E+00  0.00000000000E+00  0.11495381583E+03  0.11496083105E+03  0.12700000000E+01 0.  1.
          4   -1    0    0  501    0  0.00000000000E+00 -0.00000000000E+00 -0.33961728517E+02  0.33985466068E+02  0.12700000000E+01 0.  1.
         25    2    1    2    0    0  0.00000000000E+00  0.00000000000E+00  0.80992087316E+02  0.14894629711E+03  0.12500112486E+03 0.  0.
    9000005    1    3    3    0    0  0.19543114519E+02  0.48690763279E+01  0.11098643151E+03  0.11280349821E+03  0.10000000000E+01 0.  0.
    9000005    1    3    3    0    0 -0.19543114519E+02 -0.48690763279E+01 -0.29994344190E+02  0.36142798906E+02  0.10000000000E+01 0.  0.
<mgrwt>
<rscale>  0 0.12500112E+03</rscale>
<asrwt>0</asrwt>
<pdfrwt beam="2">  1        4 0.52272470E-02 0.12500112E+03</pdfrwt>
<pdfrwt beam="1">  1       -4 0.17687568E-01 0.12500112E+03</pdfrwt>
<totfact> 0.99511634E+03</totfact>
</mgrwt>
</event>
<event>
 5    1  0.3294152E-002  0.1249994E+03  0.7818608E-02  0.1235070E+00
         -4   -1    0    0    0  501 -0.00000000000E+00  0.00000000000E+00  0.53374144050E+02  0.53389251288E+02  0.12700000000E+01 0. -1.
          4   -1    0    0  501    0  0.00000000000E+00 -0.00000000000E+00 -0.73154490998E+02  0.73165514098E+02  0.12700000000E+01 0. -1.
         25    2    1    2    0    0  0.00000000000E+00  0.00000000000E+00 -0.19780346948E+02  0.12655476539E+03  0.12499938606E+03 0.  0.
    9000005    1    3    3    0    0 -0.22405726937E+02  0.19050101292E+00  0.49172313027E+02  0.54045992068E+02  0.10000000000E+01 0.  0.
    9000005    1    3    3    0    0  0.22405726937E+02 -0.19050101292E+00 -0.68952659976E+02  0.72508773317E+02  0.10000000000E+01 0.  0.
<mgrwt>
<rscale>  0 0.12499939E+03</rscale>
<asrwt>0</asrwt>
<pdfrwt beam="2">  1        4 0.11256547E-01 0.12499939E+03</pdfrwt>
<pdfrwt beam="1">  1       -4 0.82134169E-02 0.12499939E+03</pdfrwt>
<totfact> 0.10418978E+04</totfact>
</mgrwt>
</event>
<event>
 5    1  0.3294152E-002  0.1249982E+03  0.7818608E-02  0.1235072E+00
         -4   -1    0    0    0  501 -0.00000000000E+00  0.00000000000E+00  0.52073551465E+01  0.53599857856E+01  0.12700000000E+01 0. -1.
          4   -1    0    0  501    0  0.00000000000E+00 -0.00000000000E+00 -0.73913187994E+03  0.73913297102E+03  0.12700000000E+01 0. -1.
         25    2    1    2    0    0  0.00000000000E+00  0.00000000000E+00 -0.73392452480E+03  0.74449295681E+03  0.12499821853E+03 0.  0.
    9000005    1    3    3    0    0  0.46170416692E+02 -0.41448047209E+02 -0.32259458141E+03  0.32850861777E+03  0.10000000000E+01 0.  0.
    9000005    1    3    3    0    0 -0.46170416692E+02  0.41448047209E+02 -0.41132994339E+03  0.41598433904E+03  0.10000000000E+01 0.  0.
<mgrwt>
<rscale>  0 0.12499822E+03</rscale>
<asrwt>0</asrwt>
<pdfrwt beam="2">  1        4 0.11372434E+00 0.12499822E+03</pdfrwt>
<pdfrwt beam="1">  1       -4 0.81295689E-03 0.12499822E+03</pdfrwt>
<totfact> 0.40840548E+03</totfact>
</mgrwt>
</event>
<event>
 5    1  0.3294152E-002  0.1250014E+03  0.7818608E-02  0.1235067E+00
         -4   -1    0    0    0  501 -0.00000000000E+00  0.00000000000E+00  0.23402377516E+03  0.23402722116E+03  0.12700000000E+01 0. -1.
          4   -1    0    0  501    0  0.00000000000E+00 -0.00000000000E+00 -0.16664331798E+02  0.16712655512E+02  0.12700000000E+01 0. -1.
         25    2    1    2    0    0  0.00000000000E+00  0.00000000000E+00  0.21735944337E+03  0.25073987667E+03  0.12500143252E+03 0.  0.
    9000005    1    3    3    0    0  0.10362533961E+02 -0.22103906358E+02 -0.67137905332E+01  0.25338503699E+02  0.10000000000E+01 0.  0.
    9000005    1    3    3    0    0 -0.10362533961E+02  0.22103906358E+02  0.22407323390E+03  0.22540137297E+03  0.10000000000E+01 0.  0.
<mgrwt>
<rscale>  0 0.12500143E+03</rscale>
<asrwt>0</asrwt>
<pdfrwt beam="2">  1        4 0.25677258E-02 0.12500143E+03</pdfrwt>
<pdfrwt beam="1">  1       -4 0.36007637E-01 0.12500143E+03</pdfrwt>
<totfact> 0.82220788E+03</totfact>
</mgrwt>
</event>
<event>
 5    1  0.3294152E-002  0.1249992E+03  0.7818608E-02  0.1235070E+00
          4   -1    0    0  501    0  0.00000000000E+00  0.00000000000E+00  0.66346633464E+01  0.67551208517E+01  0.12700000000E+01 0. -1.
         -4   -1    0    0    0  501 -0.00000000000E+00 -0.00000000000E+00 -0.58333898295E+03  0.58334036542E+03  0.12700000000E+01 0. -1.
         25    2    1    2    0    0  0.00000000000E+00  0.00000000000E+00 -0.57670431960E+03  0.59009548627E+03  0.12499924268E+03 0.  0.
    9000005    1    3    3    0    0  0.25460449119E+02 -0.20689448421E+02 -0.37264797655E+02  0.49658361728E+02  0.10000000000E+01 0.  0.
    9000005    1    3    3    0    0 -0.25460449119E+02  0.20689448421E+02 -0.53943952195E+03  0.54043712454E+03  0.10000000000E+01 0.  0.
<mgrwt>
<rscale>  0 0.12499924E+03</rscale>
<asrwt>0</asrwt>
<pdfrwt beam="1">  1        4 0.10300902E-02 0.12499924E+03</pdfrwt>
<pdfrwt beam="2">  1       -4 0.89753791E-01 0.12499924E+03</pdfrwt>
<totfact> 0.49499679E+03</totfact>
</mgrwt>
</event>
<event>
 5    1  0.3294152E-002  0.1249982E+03  0.7818608E-02  0.1235072E+00
          4   -1    0    0  501    0  0.00000000000E+00  0.00000000000E+00  0.12642750567E+03  0.12643388426E+03  0.12700000000E+01 0.  1.
         -4   -1    0    0    0  501 -0.00000000000E+00 -0.00000000000E+00 -0.30876066687E+02  0.30902174585E+02  0.12700000000E+01 0.  1.
         25    2    1    2    0    0  0.00000000000E+00  0.00000000000E+00  0.95551438981E+02  0.15733605885E+03  0.12499823168E+03 0.  0.
    9000005    1    3    3    0    0  0.23689239870E+02  0.19758372290E+02  0.11618227877E+03  0.12021187654E+03  0.10000000000E+01 0.  0.
    9000005    1    3    3    0    0 -0.23689239870E+02 -0.19758372290E+02 -0.20630839792E+02  0.37124182303E+02  0.10000000000E+01 0.  0.
<mgrwt>
<rscale>  0 0.12499823E+03</rscale>
<asrwt>0</asrwt>
<pdfrwt beam="1">  1        4 0.19452885E-01 0.12499823E+03</pdfrwt>
<pdfrwt beam="2">  1       -4 0.47526630E-02 0.12499823E+03</pdfrwt>
<totfact> 0.97862734E+03</totfact>
</mgrwt>
</event>
<event>
 5    1  0.3294152E-002  0.1250005E+03  0.7818608E-02  0.1235069E+00
         -4   -1    0    0    0  501 -0.00000000000E+00  0.00000000000E+00  0.52191742341E+01  0.53714690435E+01  0.12700000000E+01 0.  1.
          4   -1    0    0  501    0  0.00000000000E+00 -0.00000000000E+00 -0.73753225907E+03  0.73753335251E+03  0.12700000000E+01 0.  1.
         25    2    1    2    0    0  0.00000000000E+00  0.00000000000E+00 -0.73231308484E+03  0.74290482156E+03  0.12500047868E+03 0.  0.
    9000005    1    3    3    0    0 -0.53791104176E+02  0.14124656255E+02 -0.19677060489E+03  0.20448144109E+03  0.10000000000E+01 0.  0.
    9000005    1    3    3    0    0  0.53791104176E+02 -0.14124656255E+02 -0.53554247995E+03  0.53842338046E+03  0.10000000000E+01 0.  0.
<mgrwt>
<rscale>  0 0.12500048E+03</rscale>
<asrwt>0</asrwt>
<pdfrwt beam="2">  1        4 0.11347822E+00 0.12500048E+03</pdfrwt>
<pdfrwt beam="1">  1       -4 0.81474956E-03 0.12500048E+03</pdfrwt>
<totfact> 0.40915415E+03</totfact>
</mgrwt>
</event>
<event>
 5    1  0.3294152E-002  0.1249975E+03  0.7818608E-02  0.1235073E+00
         -4   -1    0    0    0  501 -0.00000000000E+00  0.00000000000E+00  0.61470287535E+01  0.62768513202E+01  0.12700000000E+01 0. -1.
          4   -1    0    0  501    0  0.00000000000E+00 -0.00000000000E+00 -0.62867333390E+03  0.62867461668E+03  0.12700000000E+01 0. -1.
         25    2    1    2    0    0  0.00000000000E+00  0.00000000000E+00 -0.62252630515E+03  0.63495146800E+03  0.12499746444E+03 0.  0.
    9000005    1    3    3    0    0 -0.40285831389E+02 -0.46264001743E+02 -0.37174919611E+03  0.37677814544E+03  0.10000000000E+01 0.  0.
    9000005    1    3    3    0    0  0.40285831389E+02  0.46264001743E+02 -0.25077710903E+03  0.25817332256E+03  0.10000000000E+01 0.  0.
<mgrwt>
<rscale>  0 0.12499746E+03</rscale>
<asrwt>0</asrwt>
<pdfrwt beam="2">  1        4 0.96729009E-01 0.12499746E+03</pdfrwt>
<pdfrwt beam="1">  1       -4 0.95578225E-03 0.12499746E+03</pdfrwt>
<totfact> 0.46735786E+03</totfact>
</mgrwt>
</event>
<event>
 5    1  0.3294152E-002  0.1249988E+03  0.7818608E-02  0.1235071E+00
          4   -1    0    0  501    0  0.00000000000E+00  0.00000000000E+00  0.47674674562E+02  0.47691587252E+02  0.12700000000E+01 0.  1.
         -4   -1    0    0    0  501 -0.00000000000E+00 -0.00000000000E+00 -0.81897557222E+02  0.81907403688E+02  0.12700000000E+01 0.  1.
         25    2    1    2    0    0  0.00000000000E+00  0.00000000000E+00 -0.34222882660E+02  0.12959899094E+03  0.12499877101E+03 0.  0.
    9000005    1    3    3    0    0 -0.30392471675E+02  0.45860462097E+02 -0.47838045577E+02  0.72913393303E+02  0.10000000000E+01 0.  0.
    9000005    1    3    3    0    0  0.30392471675E+02 -0.45860462097E+02  0.13615162917E+02  0.56685597638E+02  0.10000000000E+01 0.  0.
<mgrwt>
<rscale>  0 0.12499877E+03</rscale>
<asrwt>0</asrwt>
<pdfrwt beam="1">  1        4 0.73366237E-02 0.12499877E+03</pdfrwt>
<pdfrwt beam="2">  1       -4 0.12601683E-01 0.12499877E+03</pdfrwt>
<totfact> 0.10353381E+04</totfact>
</mgrwt>
</event>
<event>
 5    1  0.3294152E-002  0.1249888E+03  0.7818608E-02  0.1235087E+00
          4   -1    0    0  501    0  0.00000000000E+00  0.00000000000E+00  0.95771248798E+01  0.96609637699E+01  0.12700000000E+01 0.  1.
         -4   -1    0    0    0  501 -0.00000000000E+00 -0.00000000000E+00 -0.40593752954E+03  0.40593951617E+03  0.12700000000E+01 0.  1.
         25    2    1    2    0    0  0.00000000000E+00  0.00000000000E+00 -0.39636040466E+03  0.41560047994E+03  0.12498875367E+03 0.  0.
    9000005    1    3    3    0    0  0.52653074379E+02  0.11451490161E+02 -0.30338513017E+03  0.30813474337E+03  0.10000000000E+01 0.  0.
    9000005    1    3    3    0    0 -0.52653074379E+02 -0.11451490161E+02 -0.92975274494E+02  0.10746573657E+03  0.10000000000E+01 0.  0.
<mgrwt>
<rscale>  0 0.12498875E+03</rscale>
<asrwt>0</asrwt>
<pdfrwt beam="1">  1        4 0.14800061E-02 0.12498875E+03</pdfrwt>
<pdfrwt beam="2">  1       -4 0.62458516E-01 0.12498875E+03</pdfrwt>
<totfact> 0.63078924E+03</totfact>
</mgrwt>
</event>
<event>
 5    1  0.3294152E-002  0.1249979E+03  0.7818608E-02  0.1235072E+00
          4   -1    0    0  501    0  0.00000000000E+00  0.00000000000E+00  0.82372805430E+02  0.82382595094E+02  0.12700000000E+01 0. -1.
         -4   -1    0    0    0  501 -0.00000000000E+00 -0.00000000000E+00 -0.47398925679E+02  0.47415936725E+02  0.12700000000E+01 0. -1.
         25    2    1    2    0    0  0.00000000000E+00  0.00000000000E+00  0.34973879751E+02  0.12979853182E+03  0.12499794637E+03 0.  0.
    9000005    1    3    3    0    0  0.30808878937E+01  0.29911648148E+02  0.74371490855E+02  0.80226661511E+02  0.10000000000E+01 0.  0.
    9000005    1    3    3    0    0 -0.30808878937E+01 -0.29911648148E+02 -0.39397611104E+02  0.49571870309E+02  0.10000000000E+01 0.  0.
<mgrwt>
<rscale>  0 0.12499795E+03</rscale>
<asrwt>0</asrwt>
<pdfrwt beam="1">  1        4 0.12674801E-01 0.12499795E+03</pdfrwt>
<pdfrwt beam="2">  1       -4 0.72942040E-02 0.12499795E+03</pdfrwt>
<totfact> 0.10349299E+04</totfact>
</mgrwt>
</event>
<event>
 5    1  0.3294152E-002  0.1249939E+03  0.7818608E-02  0.1235079E+00
         -4   -1    0    0    0  501 -0.00000000000E+00  0.00000000000E+00  0.91518978997E+01  0.92395960500E+01  0.12700000000E+01 0. -1.
          4   -1    0    0  501    0  0.00000000000E+00 -0.00000000000E+00 -0.42465844769E+03  0.42466034674E+03  0.12700000000E+01 0. -1.
         25    2    1    2    0    0  0.00000000000E+00  0.00000000000E+00 -0.41550654979E+03  0.43389994279E+03  0.12499386959E+03 0.  0.
    9000005    1    3    3    0    0  0.32097982591E+02  0.41628542206E+02 -0.32504504246E+03  0.32926963972E+03  0.10000000000E+01 0.  0.
    9000005    1    3    3    0    0 -0.32097982591E+02 -0.41628542206E+02 -0.90461507331E+02  0.10463030307E+03  0.10000000000E+01 0.  0.
<mgrwt>
<rscale>  0 0.12499387E+03</rscale>
<asrwt>0</asrwt>
<pdfrwt beam="2">  1        4 0.65338946E-01 0.12499387E+03</pdfrwt>
<pdfrwt beam="1">  1       -4 0.14148767E-02 0.12499387E+03</pdfrwt>
<totfact> 0.61392373E+03</totfact>
</mgrwt>
</event>
<event>
 5    1  0.3294152E-002  0.1250002E+03  0.7818608E-02  0.1235069E+00
          4   -1    0    0  501    0  0.00000000000E+00  0.00000000000E+00  0.44460066791E+01  0.46238377340E+01  0.12700000000E+01 0.  1.
         -4   -1    0    0    0  501 -0.00000000000E+00 -0.00000000000E+00 -0.86119468897E+03  0.86119562540E+03  0.12700000000E+01 0.  1.
         25    2    1    2    0    0  0.00000000000E+00  0.00000000000E+00 -0.85674868229E+03  0.86581946313E+03  0.12500015255E+03 0.  0.
    9000005    1    3    3    0    0  0.62390575663E+01  0.17009615471E+02 -0.14110834890E+02  0.22986268055E+02  0.10000000000E+01 0.  0.
    9000005    1    3    3    0    0 -0.62390575663E+01 -0.17009615471E+02 -0.84263784740E+03  0.84283319508E+03  0.10000000000E+01 0.  0.
<mgrwt>
<rscale>  0 0.12500015E+03</rscale>
<asrwt>0</asrwt>
<pdfrwt beam="1">  1        4 0.69775306E-03 0.12500015E+03</pdfrwt>
<pdfrwt beam="2">  1       -4 0.13250511E+00 0.12500015E+03</pdfrwt>
<totfact> 0.35488495E+03</totfact>
</mgrwt>
</event>
<event>
 5    1  0.3294152E-002  0.1249973E+03  0.7818608E-02  0.1235073E+00
          4   -1    0    0  501    0  0.00000000000E+00  0.00000000000E+00  0.14554771451E+03  0.14555325520E+03  0.12700000000E+01 0. -1.
         -4   -1    0    0    0  501 -0.00000000000E+00 -0.00000000000E+00 -0.26816049398E+02  0.26846105962E+02  0.12700000000E+01 0. -1.
         25    2    1    2    0    0  0.00000000000E+00  0.00000000000E+00  0.11873166511E+03  0.17239936116E+03  0.12499732569E+03 0.  0.
    9000005    1    3    3    0    0 -0.57359821382E+02  0.23981870680E+02  0.50664289886E+02  0.80206916783E+02  0.10000000000E+01 0.  0.
    9000005    1    3    3    0    0  0.57359821382E+02 -0.23981870680E+02  0.68067375226E+02  0.92192444378E+02  0.10000000000E+01 0.  0.
<mgrwt>
<rscale>  0 0.12499733E+03</rscale>
<asrwt>0</asrwt>
<pdfrwt beam="1">  1        4 0.22394694E-01 0.12499733E+03</pdfrwt>
<pdfrwt beam="2">  1       -4 0.41282843E-02 0.12499733E+03</pdfrwt>
<totfact> 0.95009012E+03</totfact>
</mgrwt>
</event>
<event>
 5    1  0.3294152E-002  0.1249961E+03  0.7818608E-02  0.1235075E+00
          4   -1    0    0  501    0  0.00000000000E+00  0.00000000000E+00  0.25189610777E+02  0.25221605641E+02  0.12700000000E+01 0.  1.
         -4   -1    0    0    0  501 -0.00000000000E+00 -0.00000000000E+00 -0.15493121602E+03  0.15493642114E+03  0.12700000000E+01 0.  1.
         25    2    1    2    0    0  0.00000000000E+00  0.00000000000E+00 -0.12974160524E+03  0.18015802678E+03  0.12499612188E+03 0.  0.
    9000005    1    3    3    0    0  0.40998450946E+01  0.58459789809E+02 -0.96139297040E+02  0.11259715889E+03  0.10000000000E+01 0.  0.
    9000005    1    3    3    0    0 -0.40998450946E+01 -0.58459789809E+02 -0.33602308199E+02  0.67560867894E+02  0.10000000000E+01 0.  0.
<mgrwt>
<rscale>  0 0.12499612E+03</rscale>
<asrwt>0</asrwt>
<pdfrwt beam="1">  1        4 0.38781864E-02 0.12499612E+03</pdfrwt>
<pdfrwt beam="2">  1       -4 0.23838433E-01 0.12499612E+03</pdfrwt>
<totfact> 0.93596704E+03</totfact>
</mgrwt>
</event>
<event>
 5    1  0.3294152E-002  0.1249995E+03  0.7818608E-02  0.1235070E+00
         -4   -1    0    0    0  501 -0.00000000000E+00  0.00000000000E+00  0.12535891618E+03  0.12536534914E+03  0.12700000000E+01 0. -1.
          4   -1    0    0  501    0  0.00000000000E+00 -0.00000000000E+00 -0.31140100913E+02  0.31165987629E+02  0.12700000000E+01 0. -1.
         25    2    1    2    0    0  0.00000000000E+00  0.00000000000E+00  0.94218815262E+02  0.15653133677E+03  0.12499949696E+03 0.  0.
    9000005    1    3    3    0    0 -0.34290292457E+02  0.52243135989E+02  0.47387017596E+02  0.78432766440E+02  0.10000000000E+01 0.  0.
    9000005    1    3    3    0    0  0.34290292457E+02 -0.52243135989E+02  0.46831797666E+02  0.78098570328E+02  0.10000000000E+01 0.  0.
<mgrwt>
<rscale>  0 0.12499950E+03</rscale>
<asrwt>0</asrwt>
<pdfrwt beam="2">  1        4 0.47932710E-02 0.12499950E+03</pdfrwt>
<pdfrwt beam="1">  1       -4 0.19288473E-01 0.12499950E+03</pdfrwt>
<totfact> 0.98016823E+03</totfact>
</mgrwt>
</event>
<event>
 5    1  0.3294152E-002  0.1250001E+03  0.7818608E-02  0.1235069E+00
         -4   -1    0    0    0  501 -0.00000000000E+00  0.00000000000E+00  0.25286047277E+03  0.25286366206E+03  0.12700000000E+01 0.  1.
          4   -1    0    0  501    0  0.00000000000E+00 -0.00000000000E+00 -0.15418869550E+02  0.15471083938E+02  0.12700000000E+01 0.  1.
         25    2    1    2    0    0  0.00000000000E+00  0.00000000000E+00  0.23744160322E+03  0.26833474600E+03  0.12500008388E+03 0.  0.
    9000005    1    3    3    0    0  0.24192633759E+02  0.57157034193E+02  0.10308610442E+03  0.12033268472E+03  0.10000000000E+01 0.  0.
    9000005    1    3    3    0    0 -0.24192633759E+02 -0.57157034193E+02  0.13435549880E+03  0.14800206128E+03  0.10000000000E+01 0.  0.
<mgrwt>
<rscale>  0 0.12500008E+03</rscale>
<asrwt>0</asrwt>
<pdfrwt beam="2">  1        4 0.23763958E-02 0.12500008E+03</pdfrwt>
<pdfrwt beam="1">  1       -4 0.38905870E-01 0.12500008E+03</pdfrwt>
<totfact> 0.79750294E+03</totfact>
</mgrwt>
</event>
<event>
 5    1  0.3294152E-002  0.1250011E+03  0.7818608E-02  0.1235068E+00
         -4   -1    0    0    0  501 -0.00000000000E+00  0.00000000000E+00  0.15345949279E+02  0.15398410933E+02  0.12700000000E+01 0.  1.
          4   -1    0    0  501    0  0.00000000000E+00 -0.00000000000E+00 -0.25406194320E+03  0.25406511741E+03  0.12700000000E+01 0.  1.
         25    2    1    2    0    0  0.00000000000E+00  0.00000000000E+00 -0.23871599392E+03  0.26946352834E+03  0.12500106940E+03 0.  0.
    9000005    1    3    3    0    0 -0.18951577907E+02  0.27269448599E+02 -0.23347793598E+03  0.23582987878E+03  0.10000000000E+01 0.  0.
    9000005    1    3    3    0    0  0.18951577907E+02 -0.27269448599E+02 -0.52380579382E+01  0.33633649564E+02  0.10000000000E+01 0.  0.
<mgrwt>
<rscale>  0 0.12500107E+03</rscale>
<asrwt>0</asrwt>
<pdfrwt beam="2">  1        4 0.39090729E-01 0.12500107E+03</pdfrwt>
<pdfrwt beam="1">  1       -4 0.23651951E-02 0.12500107E+03</pdfrwt>
<totfact> 0.79594171E+03</totfact>
</mgrwt>
</event>
<event>
 5    1  0.3294152E-002  0.1250342E+03  0.7818608E-02  0.1235016E+00
          4   -1    0    0  501    0  0.00000000000E+00  0.00000000000E+00  0.43904368608E+02  0.43922733098E+02  0.12700000000E+01 0. -1.
         -4   -1    0    0    0  501 -0.00000000000E+00 -0.00000000000E+00 -0.88978941543E+02  0.88988004462E+02  0.12700000000E+01 0. -1.
         25    2    1    2    0    0  0.00000000000E+00  0.00000000000E+00 -0.45074572935E+02  0.13291073756E+03  0.12503418346E+03 0.  0.
    9000005    1    3    3    0    0  0.74653361393E+00  0.60396326195E+02 -0.39648314317E+02  0.72258303042E+02  0.10000000000E+01 0.  0.
    9000005    1    3    3    0    0 -0.74653361393E+00 -0.60396326195E+02 -0.54262586180E+01  0.60652434518E+02  0.10000000000E+01 0.  0.
<mgrwt>
<rscale>  0 0.12503418E+03</rscale>
<asrwt>0</asrwt>
<pdfrwt beam="1">  1        4 0.67566281E-02 0.12503418E+03</pdfrwt>
<pdfrwt beam="2">  1       -4 0.13691178E-01 0.12503418E+03</pdfrwt>
<totfact> 0.10274373E+04</totfact>
</mgrwt>
</event>
<event>
 5    1  0.3294152E-002  0.1250013E+03  0.7818608E-02  0.1235067E+00
         -4   -1    0    0    0  501 -0.00000000000E+00  0.00000000000E+00  0.47429396455E+02  0.47446396577E+02  0.12700000000E+01 0. -1.
          4   -1    0    0  501    0  0.00000000000E+00 -0.00000000000E+00 -0.82324380350E+02  0.82334175772E+02  0.12700000000E+01 0. -1.
         25    2    1    2    0    0  0.00000000000E+00  0.00000000000E+00 -0.34894983895E+02  0.12978057235E+03  0.12500134823E+03 0.  0.
    9000005    1    3    3    0    0  0.51606337832E+02 -0.18145006346E+02  0.13921573014E+02  0.56455872634E+02  0.10000000000E+01 0.  0.
    9000005    1    3    3    0    0 -0.51606337832E+02  0.18145006346E+02 -0.48816556909E+02  0.73324699714E+02  0.10000000000E+01 0.  0.
<mgrwt>
<rscale>  0 0.12500135E+03</rscale>
<asrwt>0</asrwt>
<pdfrwt beam="2">  1        4 0.12667350E-01 0.12500135E+03</pdfrwt>
<pdfrwt beam="1">  1       -4 0.72988914E-02 0.12500135E+03</pdfrwt>
<totfact> 0.10348889E+04</totfact>
</mgrwt>
</event>
<event>
 5    1  0.3294152E-002  0.1250006E+03  0.7818608E-02  0.1235068E+00
         -4   -1    0    0    0  501 -0.00000000000E+00  0.00000000000E+00  0.61260191207E+02  0.61273354133E+02  0.12700000000E+01 0. -1.
          4   -1    0    0  501    0  0.00000000000E+00 -0.00000000000E+00 -0.63739198253E+02  0.63751849338E+02  0.12700000000E+01 0. -1.
         25    2    1    2    0    0  0.00000000000E+00  0.00000000000E+00 -0.24790070467E+01  0.12502520347E+03  0.12500062411E+03 0.  0.
    9000005    1    3    3    0    0 -0.40670911262E+02 -0.42568930725E+00  0.46214369864E+02  0.61571683558E+02  0.10000000000E+01 0.  0.
    9000005    1    3    3    0    0  0.40670911262E+02  0.42568930725E+00 -0.48693376911E+02  0.63453519912E+02  0.10000000000E+01 0.  0.
<mgrwt>
<rscale>  0 0.12500062E+03</rscale>
<asrwt>0</asrwt>
<pdfrwt beam="2">  1        4 0.98080161E-02 0.12500062E+03</pdfrwt>
<pdfrwt beam="1">  1       -4 0.94266306E-02 0.12500062E+03</pdfrwt>
<totfact> 0.10452168E+04</totfact>
</mgrwt>
</event>
<event>
 5    1  0.3294152E-002  0.1250025E+03  0.7818608E-02  0.1235065E+00
         -4   -1    0    0    0  501 -0.00000000000E+00  0.00000000000E+00  0.30299485237E+02  0.30326089521E+02  0.12700000000E+01 0. -1.
          4   -1    0    0  501    0  0.00000000000E+00 -0.00000000000E+00 -0.12884014024E+03  0.12884639939E+03  0.12700000000E+01 0. -1.
         25    2    1    2    0    0  0.00000000000E+00  0.00000000000E+00 -0.98540655002E+02  0.15917248892E+03  0.12500248213E+03 0.  0.
    9000005    1    3    3    0    0 -0.22521346121E+02 -0.32035020055E+01 -0.12338713296E+03  0.12547054649E+03  0.10000000000E+01 0.  0.
    9000005    1    3    3    0    0  0.22521346121E+02  0.32035020055E+01  0.24846477959E+02  0.33701942425E+02  0.10000000000E+01 0.  0.
<mgrwt>
<rscale>  0 0.12500248E+03</rscale>
<asrwt>0</asrwt>
<pdfrwt beam="2">  1        4 0.19824088E-01 0.12500248E+03</pdfrwt>
<pdfrwt beam="1">  1       -4 0.46639873E-02 0.12500248E+03</pdfrwt>
<totfact> 0.97497120E+03</totfact>
</mgrwt>
</event>
<event>
 5    1  0.3294152E-002  0.1249991E+03  0.7818608E-02  0.1235071E+00
         -4   -1    0    0    0  501 -0.00000000000E+00  0.00000000000E+00  0.44946208632E+03  0.44946388057E+03  0.12700000000E+01 0. -1.
          4   -1    0    0  501    0  0.00000000000E+00 -0.00000000000E+00 -0.86426021048E+01  0.87354147665E+01  0.12700000000E+01 0. -1.
         25    2    1    2    0    0  0.00000000000E+00  0.00000000000E+00  0.44081948421E+03  0.45819929534E+03  0.12499910634E+03 0.  0.
    9000005    1    3    3    0    0 -0.39030346862E+00 -0.29200167643E+02  0.17889861100E+02  0.34261483584E+02  0.10000000000E+01 0.  0.
    9000005    1    3    3    0    0  0.39030346862E+00  0.29200167643E+02  0.42292962311E+03  0.42393781175E+03  0.10000000000E+01 0.  0.
<mgrwt>
<rscale>  0 0.12499911E+03</rscale>
<asrwt>0</asrwt>
<pdfrwt beam="2">  1        4 0.13369086E-02 0.12499911E+03</pdfrwt>
<pdfrwt beam="1">  1       -4 0.69155287E-01 0.12499911E+03</pdfrwt>
<totfact> 0.59261181E+03</totfact>
</mgrwt>
</event>
<event>
 5    1  0.3294152E-002  0.1250007E+03  0.7818608E-02  0.1235068E+00
         -4   -1    0    0    0  501 -0.00000000000E+00  0.00000000000E+00  0.21381721129E+02  0.21419404718E+02  0.12700000000E+01 0.  1.
          4   -1    0    0  501    0  0.00000000000E+00 -0.00000000000E+00 -0.18249250495E+03  0.18249692398E+03  0.12700000000E+01 0.  1.
         25    2    1    2    0    0  0.00000000000E+00  0.00000000000E+00 -0.16111078382E+03  0.20391632870E+03  0.12500073779E+03 0.  0.
    9000005    1    3    3    0    0 -0.51756232464E+02  0.26817185159E+02 -0.11730276114E+03  0.13099162870E+03  0.10000000000E+01 0.  0.
    9000005    1    3    3    0    0  0.51756232464E+02 -0.26817185159E+02 -0.43808022680E+02  0.72924699998E+02  0.10000000000E+01 0.  0.
<mgrwt>
<rscale>  0 0.12500074E+03</rscale>
<asrwt>0</asrwt>
<pdfrwt beam="2">  1        4 0.28079008E-01 0.12500074E+03</pdfrwt>
<pdfrwt beam="1">  1       -4 0.32927343E-02 0.12500074E+03</pdfrwt>
<totfact> 0.89477687E+03</totfact>
</mgrwt>
</event>
<event>
 5    1  0.3294152E-002  0.1250005E+03  0.7818608E-02  0.1235068E+00
         -4   -1    0    0    0  501 -0.00000000000E+00  0.00000000000E+00  0.36665352929E+02  0.36687341215E+02  0.12700000000E+01 0. -1.
          4   -1    0    0  501    0  0.00000000000E+00 -0.00000000000E+00 -0.10648111192E+03  0.10648868529E+03  0.12700000000E+01 0. -1.
         25    2    1    2    0    0  0.00000000000E+00  0.00000000000E+00 -0.69815758988E+02  0.14317602651E+03  0.12500053745E+03 0.  0.
    9000005    1    3    3    0    0  0.34419293030E+02  0.51212614213E+02 -0.23576835793E+02  0.66062748756E+02  0.10000000000E+01 0.  0.
    9000005    1    3    3    0    0 -0.34419293030E+02 -0.51212614213E+02 -0.46238923195E+02  0.77113277751E+02  0.10000000000E+01 0.  0.
<mgrwt>
<rscale>  0 0.12500054E+03</rscale>
<asrwt>0</asrwt>
<pdfrwt beam="2">  1        4 0.16383983E-01 0.12500054E+03</pdfrwt>
<pdfrwt beam="1">  1       -4 0.56430975E-02 0.12500054E+03</pdfrwt>
<totfact> 0.10068058E+04</totfact>
</mgrwt>
</event>
<event>
 5    1  0.3294152E-002  0.1250024E+03  0.7818608E-02  0.1235066E+00
          4   -1    0    0  501    0  0.00000000000E+00  0.00000000000E+00  0.10307255947E+02  0.10385202220E+02  0.12700000000E+01 0. -1.
         -4   -1    0    0    0  501 -0.00000000000E+00 -0.00000000000E+00 -0.37748838164E+03  0.37749051799E+03  0.12700000000E+01 0. -1.
         25    2    1    2    0    0  0.00000000000E+00  0.00000000000E+00 -0.36718112569E+03  0.38787572021E+03  0.12500238103E+03 0.  0.
    9000005    1    3    3    0    0  0.43504288531E+02 -0.41883352791E+02 -0.23348537141E+03  0.24117059735E+03  0.10000000000E+01 0.  0.
    9000005    1    3    3    0    0 -0.43504288531E+02  0.41883352791E+02 -0.13369575428E+03  0.14670512286E+03  0.10000000000E+01 0.  0.
<mgrwt>
<rscale>  0 0.12500238E+03</rscale>
<asrwt>0</asrwt>
<pdfrwt beam="1">  1        4 0.15918922E-02 0.12500238E+03</pdfrwt>
<pdfrwt beam="2">  1       -4 0.58081285E-01 0.12500238E+03</pdfrwt>
<totfact> 0.65745861E+03</totfact>
</mgrwt>
</event>
<event>
 5    1  0.3294152E-002  0.1249986E+03  0.7818608E-02  0.1235071E+00
         -4   -1    0    0    0  501 -0.00000000000E+00  0.00000000000E+00  0.99031090648E+01  0.99842109928E+01  0.12700000000E+01 0.  1.
          4   -1    0    0  501    0  0.00000000000E+00 -0.00000000000E+00 -0.39274737014E+03  0.39274942349E+03  0.12700000000E+01 0.  1.
         25    2    1    2    0    0  0.00000000000E+00  0.00000000000E+00 -0.38284426107E+03  0.40273363448E+03  0.12499860841E+03 0.  0.
    9000005    1    3    3    0    0 -0.51602959092E+01  0.49419510264E+02 -0.31352537291E+03  0.31743987794E+03  0.10000000000E+01 0.  0.
    9000005    1    3    3    0    0  0.51602959092E+01 -0.49419510264E+02 -0.69318888163E+02  0.85293756540E+02  0.10000000000E+01 0.  0.
<mgrwt>
<rscale>  0 0.12499861E+03</rscale>
<asrwt>0</asrwt>
<pdfrwt beam="2">  1        4 0.60429057E-01 0.12499861E+03</pdfrwt>
<pdfrwt beam="1">  1       -4 0.15299521E-02 0.12499861E+03</pdfrwt>
<totfact> 0.64289765E+03</totfact>
</mgrwt>
</event>
<event>
 5    1  0.3294152E-002  0.1249910E+03  0.7818608E-02  0.1235083E+00
         -4   -1    0    0    0  501 -0.00000000000E+00  0.00000000000E+00  0.31030389502E+03  0.31030649391E+03  0.12700000000E+01 0.  1.
          4   -1    0    0  501    0  0.00000000000E+00 -0.00000000000E+00 -0.12551960469E+02  0.12616045799E+02  0.12700000000E+01 0.  1.
         25    2    1    2    0    0  0.00000000000E+00  0.00000000000E+00  0.29775193455E+03  0.32292253971E+03  0.12499100818E+03 0.  0.
    9000005    1    3    3    0    0 -0.53048969092E+02 -0.29765196247E+02  0.11192753838E+03  0.12739283291E+03  0.10000000000E+01 0.  0.
    9000005    1    3    3    0    0  0.53048969092E+02  0.29765196247E+02  0.18582439618E+03  0.19552970680E+03  0.10000000000E+01 0.  0.
<mgrwt>
<rscale>  0 0.12499101E+03</rscale>
<asrwt>0</asrwt>
<pdfrwt beam="2">  1        4 0.19362006E-02 0.12499101E+03</pdfrwt>
<pdfrwt beam="1">  1       -4 0.47744186E-01 0.12499101E+03</pdfrwt>
<totfact> 0.72824385E+03</totfact>
</mgrwt>
</event>
<event>
 5    1  0.3294152E-002  0.1250016E+03  0.7818608E-02  0.1235067E+00
         -4   -1    0    0    0  501 -0.00000000000E+00  0.00000000000E+00  0.42264632570E+01  0.44131498573E+01  0.12700000000E+01 0. -1.
          4   -1    0    0  501    0  0.00000000000E+00 -0.00000000000E+00 -0.90410118697E+03  0.90410207896E+03  0.12700000000E+01 0. -1.
         25    2    1    2    0    0  0.00000000000E+00  0.00000000000E+00 -0.89987472371E+03  0.90851522882E+03  0.12500161045E+03 0.  0.
    9000005    1    3    3    0    0 -0.15997293611E+02  0.15837735598E+02 -0.26229184386E+02  0.34579146683E+02  0.10000000000E+01 0.  0.
    9000005    1    3    3    0    0  0.15997293611E+02 -0.15837735598E+02 -0.87364553932E+03  0.87393608213E+03  0.10000000000E+01 0.  0.
<mgrwt>
<rscale>  0 0.12500161E+03</rscale>
<asrwt>0</asrwt>
<pdfrwt beam="2">  1        4 0.13910677E+00 0.12500161E+03</pdfrwt>
<pdfrwt beam="1">  1       -4 0.66465496E-03 0.12500161E+03</pdfrwt>
<totfact> 0.33834800E+03</totfact>
</mgrwt>
</event>
<event>
 5    1  0.3294152E-002  0.1250038E+03  0.7818608E-02  0.1235063E+00
          4   -1    0    0  501    0  0.00000000000E+00  0.00000000000E+00  0.24860864819E+02  0.24893282217E+02  0.12700000000E+01 0. -1.
         -4   -1    0    0    0  501 -0.00000000000E+00 -0.00000000000E+00 -0.15699667902E+03  0.15700181566E+03  0.12700000000E+01 0. -1.
         25    2    1    2    0    0  0.00000000000E+00  0.00000000000E+00 -0.13213581420E+03  0.18189509788E+03  0.12500381290E+03 0.  0.
    9000005    1    3    3    0    0  0.60337693539E+01 -0.34666864066E+02  0.90827689110E+01  0.36355116942E+02  0.10000000000E+01 0.  0.
    9000005    1    3    3    0    0 -0.60337693539E+01  0.34666864066E+02 -0.14121858311E+03  0.14553998094E+03  0.10000000000E+01 0.  0.
<mgrwt>
<rscale>  0 0.12500381E+03</rscale>
<asrwt>0</asrwt>
<pdfrwt beam="1">  1        4 0.38276373E-02 0.12500381E+03</pdfrwt>
<pdfrwt beam="2">  1       -4 0.24156223E-01 0.12500381E+03</pdfrwt>
<totfact> 0.93269015E+03</totfact>
</mgrwt>
</event>
<event>
 5    1  0.3294152E-002  0.1249905E+03  0.7818608E-02  0.1235084E+00
         -4   -1    0    0    0  501 -0.00000000000E+00  0.00000000000E+00  0.24556919420E+03  0.24557247818E+03  0.12700000000E+01 0.  1.
          4   -1    0    0  501    0  0.00000000000E+00 -0.00000000000E+00 -0.15875748337E+02  0.15926464933E+02  0.12700000000E+01 0.  1.
         25    2    1    2    0    0  0.00000000000E+00  0.00000000000E+00  0.22969344586E+03  0.26149894311E+03  0.12499047235E+03 0.  0.
    9000005    1    3    3    0    0 -0.54156800543E+00  0.27710252525E+02 -0.23231321865E+01  0.27830708472E+02  0.10000000000E+01 0.  0.
    9000005    1    3    3    0    0  0.54156800543E+00 -0.27710252525E+02  0.23201657805E+03  0.23366823464E+03  0.10000000000E+01 0.  0.
<mgrwt>
<rscale>  0 0.12499047E+03</rscale>
<asrwt>0</asrwt>
<pdfrwt beam="2">  1        4 0.24465768E-02 0.12499047E+03</pdfrwt>
<pdfrwt beam="1">  1       -4 0.37784029E-01 0.12499047E+03</pdfrwt>
<totfact> 0.80713279E+03</totfact>
</mgrwt>
</event>
<event>
 5    1  0.3294152E-002  0.1249955E+03  0.7818608E-02  0.1235076E+00
         -4   -1    0    0    0  501 -0.00000000000E+00  0.00000000000E+00  0.82905390025E+01  0.83872484732E+01  0.12700000000E+01 0.  1.
          4   -1    0    0  501    0  0.00000000000E+00 -0.00000000000E+00 -0.46830622358E+03  0.46830794564E+03  0.12700000000E+01 0.  1.
         25    2    1    2    0    0  0.00000000000E+00  0.00000000000E+00 -0.46001568458E+03  0.47669519411E+03  0.12499551203E+03 0.  0.
    9000005    1    3    3    0    0 -0.85555551248E+01 -0.48571712467E+02 -0.37635455146E+03  0.37957365186E+03  0.10000000000E+01 0.  0.
    9000005    1    3    3    0    0  0.85555551248E+01  0.48571712467E+02 -0.83661133116E+02  0.97121542254E+02  0.10000000000E+01 0.  0.
<mgrwt>
<rscale>  0 0.12499551E+03</rscale>
<asrwt>0</asrwt>
<pdfrwt beam="2">  1        4 0.72054663E-01 0.12499551E+03</pdfrwt>
<pdfrwt beam="1">  1       -4 0.12830396E-02 0.12499551E+03</pdfrwt>
<totfact> 0.57724693E+03</totfact>
</mgrwt>
</event>
<event>
 5    1  0.3294152E-002  0.1249959E+03  0.7818608E-02  0.1235076E+00
         -4   -1    0    0    0  501 -0.00000000000E+00  0.00000000000E+00  0.15332875338E+02  0.15385381573E+02  0.12700000000E+01 0.  1.
          4   -1    0    0  501    0  0.00000000000E+00 -0.00000000000E+00 -0.25425690110E+03  0.25426007287E+03  0.12700000000E+01 0.  1.
         25    2    1    2    0    0  0.00000000000E+00  0.00000000000E+00 -0.23892402576E+03  0.26964545444E+03  0.12499592400E+03 0.  0.
    9000005    1    3    3    0    0  0.40314006872E+02  0.33862762030E+02 -0.19207751597E+03  0.19916495159E+03  0.10000000000E+01 0.  0.
    9000005    1    3    3    0    0 -0.40314006872E+02 -0.33862762030E+02 -0.46846509793E+02  0.70480502851E+02  0.10000000000E+01 0.  0.
<mgrwt>
<rscale>  0 0.12499592E+03</rscale>
<asrwt>0</asrwt>
<pdfrwt beam="2">  1        4 0.39120726E-01 0.12499592E+03</pdfrwt>
<pdfrwt beam="1">  1       -4 0.23631870E-02 0.12499592E+03</pdfrwt>
<totfact> 0.79578445E+03</totfact>
</mgrwt>
</event>
<event>
 5    1  0.3294152E-002  0.1250013E+03  0.7818608E-02  0.1235067E+00
          4   -1    0    0  501    0  0.00000000000E+00  0.00000000000E+00  0.71379746594E+03  0.71379859574E+03  0.12700000000E+01 0. -1.
         -4   -1    0    0    0  501 -0.00000000000E+00 -0.00000000000E+00 -0.53977787423E+01  0.55451704528E+01  0.12700000000E+01 0. -1.
         25    2    1    2    0    0  0.00000000000E+00  0.00000000000E+00  0.70839968719E+03  0.71934376619E+03  0.12500134855E+03 0.  0.
    9000005    1    3    3    0    0  0.22279835951E+02  0.48306949491E+02  0.54291341440E+03  0.54551437010E+03  0.10000000000E+01 0.  0.
    9000005    1    3    3    0    0 -0.22279835951E+02 -0.48306949491E+02  0.16548627280E+03  0.17382939609E+03  0.10000000000E+01 0.  0.
<mgrwt>
<rscale>  0 0.12500135E+03</rscale>
<asrwt>0</asrwt>
<pdfrwt beam="1">  1        4 0.10982645E+00 0.12500135E+03</pdfrwt>
<pdfrwt beam="2">  1       -4 0.84185198E-03 0.12500135E+03</pdfrwt>
<totfact> 0.42083778E+03</totfact>
</mgrwt>
</event>
<event>
 5    1  0.3294152E-002  0.1250004E+03  0.7818608E-02  0.1235069E+00
          4   -1    0    0  501    0  0.00000000000E+00  0.00000000000E+00  0.58813720020E+03  0.58813857140E+03  0.12700000000E+01 0. -1.
         -4   -1    0    0    0  501 -0.00000000000E+00 -0.00000000000E+00 -0.65796774795E+01  0.67011234680E+01  0.12700000000E+01 0. -1.
         25    2    1    2    0    0  0.00000000000E+00  0.00000000000E+00  0.58155752272E+03  0.59483969486E+03  0.12500044139E+03 0.  0.
    9000005    1    3    3    0    0 -0.41641931533E+02 -0.46596422664E+02  0.29088730191E+03  0.29752596438E+03  0.10000000000E+01 0.  0.
    9000005    1    3    3    0    0  0.41641931533E+02  0.46596422664E+02  0.29067022081E+03  0.29731373048E+03  0.10000000000E+01 0.  0.
<mgrwt>
<rscale>  0 0.12500044E+03</rscale>
<asrwt>0</asrwt>
<pdfrwt beam="1">  1        4 0.90492094E-01 0.12500044E+03</pdfrwt>
<pdfrwt beam="2">  1       -4 0.10217055E-02 0.12500044E+03</pdfrwt>
<totfact> 0.49194496E+03</totfact>
</mgrwt>
</event>
<event>
 5    1  0.3294152E-002  0.1250008E+03  0.7818608E-02  0.1235068E+00
          4   -1    0    0  501    0  0.00000000000E+00  0.00000000000E+00  0.16490003226E+02  0.16538836308E+02  0.12700000000E+01 0. -1.
         -4   -1    0    0    0  501 -0.00000000000E+00 -0.00000000000E+00 -0.23648808717E+03  0.23649149725E+03  0.12700000000E+01 0. -1.
         25    2    1    2    0    0  0.00000000000E+00  0.00000000000E+00 -0.21999808394E+03  0.25303033356E+03  0.12500077105E+03 0.  0.
    9000005    1    3    3    0    0  0.12218526401E+02 -0.52890163552E+02 -0.17267296133E+03  0.18100721909E+03  0.10000000000E+01 0.  0.
    9000005    1    3    3    0    0 -0.12218526401E+02  0.52890163552E+02 -0.47325122616E+02  0.72023114474E+02  0.10000000000E+01 0.  0.
<mgrwt>
<rscale>  0 0.12500077E+03</rscale>
<asrwt>0</asrwt>
<pdfrwt beam="1">  1        4 0.25409425E-02 0.12500077E+03</pdfrwt>
<pdfrwt beam="2">  1       -4 0.36386799E-01 0.12500077E+03</pdfrwt>
<totfact> 0.81892809E+03</totfact>
</mgrwt>
</event>
<event>
 5    1  0.3294152E-002  0.1250007E+03  0.7818608E-02  0.1235068E+00
          4   -1    0    0  501    0  0.00000000000E+00  0.00000000000E+00  0.12216843303E+03  0.12217503399E+03  0.12700000000E+01 0.  1.
         -4   -1    0    0    0  501 -0.00000000000E+00 -0.00000000000E+00 -0.31954598248E+02  0.31979825660E+02  0.12700000000E+01 0.  1.
         25    2    1    2    0    0  0.00000000000E+00  0.00000000000E+00  0.90213834783E+02  0.15415485964E+03  0.12500073906E+03 0.  0.
    9000005    1    3    3    0    0 -0.18209747990E+02  0.33823017750E+02  0.10589541219E+03  0.11265180769E+03  0.10000000000E+01 0.  0.
    9000005    1    3    3    0    0  0.18209747990E+02 -0.33823017750E+02 -0.15681577411E+02  0.41503051957E+02  0.10000000000E+01 0.  0.
<mgrwt>
<rscale>  0 0.12500074E+03</rscale>
<asrwt>0</asrwt>
<pdfrwt beam="1">  1        4 0.18797592E-01 0.12500074E+03</pdfrwt>
<pdfrwt beam="2">  1       -4 0.49185403E-02 0.12500074E+03</pdfrwt>
<totfact> 0.98480029E+03</totfact>
</mgrwt>
</event>
<event>
 5    1  0.3294152E-002  0.1250004E+03  0.7818608E-02  0.1235069E+00
         -4   -1    0    0    0  501 -0.00000000000E+00  0.00000000000E+00  0.12579433217E+03  0.12580074287E+03  0.12700000000E+01 0.  1.
          4   -1    0    0  501    0  0.00000000000E+00 -0.00000000000E+00 -0.31032659598E+02  0.31058635864E+02  0.12700000000E+01 0.  1.
         25    2    1    2    0    0  0.00000000000E+00  0.00000000000E+00  0.94761672569E+02  0.15685937873E+03  0.12500036043E+03 0.  0.
    9000005    1    3    3    0    0 -0.35915532236E+02  0.71809174206E+00 -0.16787543293E+02  0.39664375974E+02  0.10000000000E+01 0.  0.
    9000005    1    3    3    0    0  0.35915532236E+02 -0.71809174206E+00  0.11154921586E+03  0.11719500276E+03  0.10000000000E+01 0.  0.
<mgrwt>
<rscale>  0 0.12500036E+03</rscale>
<asrwt>0</asrwt>
<pdfrwt beam="2">  1        4 0.47767467E-02 0.12500036E+03</pdfrwt>
<pdfrwt beam="1">  1       -4 0.19355465E-01 0.12500036E+03</pdfrwt>
<totfact> 0.97950918E+03</totfact>
</mgrwt>
</event>
<event>
 5    1  0.3294152E-002  0.1250003E+03  0.7818608E-02  0.1235069E+00
          4   -1    0    0  501    0  0.00000000000E+00  0.00000000000E+00  0.28367192558E+02  0.28395607295E+02  0.12700000000E+01 0. -1.
         -4   -1    0    0    0  501 -0.00000000000E+00 -0.00000000000E+00 -0.13760354689E+03  0.13760940744E+03  0.12700000000E+01 0. -1.
         25    2    1    2    0    0  0.00000000000E+00  0.00000000000E+00 -0.10923635433E+03  0.16600501473E+03  0.12500033524E+03 0.  0.
    9000005    1    3    3    0    0 -0.34673436738E+02  0.11012239867E+02 -0.12209699805E+03  0.12740562615E+03  0.10000000000E+01 0.  0.
    9000005    1    3    3    0    0  0.34673436738E+02 -0.11012239867E+02  0.12860643721E+02  0.38599388584E+02  0.10000000000E+01 0.  0.
<mgrwt>
<rscale>  0 0.12500034E+03</rscale>
<asrwt>0</asrwt>
<pdfrwt beam="1">  1        4 0.43668201E-02 0.12500034E+03</pdfrwt>
<pdfrwt beam="2">  1       -4 0.21172413E-01 0.12500034E+03</pdfrwt>
<totfact> 0.96196672E+03</totfact>
</mgrwt>
</event>
<event>
 5    1  0.3294152E-002  0.1249997E+03  0.7818608E-02  0.1235070E+00
          4   -1    0    0  501    0  0.00000000000E+00  0.00000000000E+00  0.18422879564E+03  0.18423317302E+03  0.12700000000E+01 0.  1.
         -4   -1    0    0    0  501 -0.00000000000E+00 -0.00000000000E+00 -0.21179508446E+02  0.21217551178E+02  0.12700000000E+01 0.  1.
         25    2    1    2    0    0  0.00000000000E+00  0.00000000000E+00  0.16304928719E+03  0.20545072420E+03  0.12499972008E+03 0.  0.
    9000005    1    3    3    0    0 -0.56430395409E+02  0.11415965681E+02  0.12146532465E+03  0.13442298498E+03  0.10000000000E+01 0.  0.
    9000005    1    3    3    0    0  0.56430395409E+02 -0.11415965681E+02  0.41583962545E+02  0.71027739225E+02  0.10000000000E+01 0.  0.
<mgrwt>
<rscale>  0 0.12499972E+03</rscale>
<asrwt>0</asrwt>
<pdfrwt beam="1">  1        4 0.28346153E-01 0.12499972E+03</pdfrwt>
<pdfrwt beam="2">  1       -4 0.32616492E-02 0.12499972E+03</pdfrwt>
<totfact> 0.89224828E+03</totfact>
</mgrwt>
</event>
<event>
 5    1  0.3294152E-002  0.1250003E+03  0.7818608E-02  0.1235069E+00
          4   -1    0    0  501    0  0.00000000000E+00  0.00000000000E+00  0.40504702404E+02  0.40524607547E+02  0.12700000000E+01 0.  1.
         -4   -1    0    0    0  501 -0.00000000000E+00 -0.00000000000E+00 -0.96392095943E+02  0.96400461930E+02  0.12700000000E+01 0.  1.
         25    2    1    2    0    0  0.00000000000E+00  0.00000000000E+00 -0.55887393539E+02  0.13692506948E+03  0.12500029558E+03 0.  0.
    9000005    1    3    3    0    0 -0.69394224392E+00  0.62488287555E+02 -0.27975374387E+02  0.68475464288E+02  0.10000000000E+01 0.  0.
    9000005    1    3    3    0    0  0.69394224392E+00 -0.62488287555E+02 -0.27912019152E+02  0.68449605189E+02  0.10000000000E+01 0.  0.
<mgrwt>
<rscale>  0 0.12500030E+03</rscale>
<asrwt>0</asrwt>
<pdfrwt beam="1">  1        4 0.62336674E-02 0.12500030E+03</pdfrwt>
<pdfrwt beam="2">  1       -4 0.14831728E-01 0.12500030E+03</pdfrwt>
<totfact> 0.10197585E+04</totfact>
</mgrwt>
</event>
<event>
 5    1  0.3294152E-002  0.1249978E+03  0.7818608E-02  0.1235073E+00
          4   -1    0    0  501    0  0.00000000000E+00  0.00000000000E+00  0.13410093788E+03  0.13410695150E+03  0.12700000000E+01 0. -1.
         -4   -1    0    0    0  501 -0.00000000000E+00 -0.00000000000E+00 -0.29107647884E+02  0.29135340488E+02  0.12700000000E+01 0. -1.
         25    2    1    2    0    0  0.00000000000E+00  0.00000000000E+00  0.10499329000E+03  0.16324229199E+03  0.12499781978E+03 0.  0.
    9000005    1    3    3    0    0  0.26065876080E+02  0.21477002487E+02  0.12116117191E+03  0.12578442316E+03  0.10000000000E+01 0.  0.
    9000005    1    3    3    0    0 -0.26065876080E+02 -0.21477002487E+02 -0.16167881910E+02  0.37457868828E+02  0.10000000000E+01 0.  0.
<mgrwt>
<rscale>  0 0.12499782E+03</rscale>
<asrwt>0</asrwt>
<pdfrwt beam="1">  1        4 0.20633506E-01 0.12499782E+03</pdfrwt>
<pdfrwt beam="2">  1       -4 0.44806925E-02 0.12499782E+03</pdfrwt>
<totfact> 0.96726052E+03</totfact>
</mgrwt>
</event>
<event>
 5    1  0.3294152E-002  0.1249972E+03  0.7818608E-02  0.1235074E+00
         -4   -1    0    0    0  501 -0.00000000000E+00  0.00000000000E+00  0.70513884121E+02  0.70525319949E+02  0.12700000000E+01 0. -1.
          4   -1    0    0  501    0  0.00000000000E+00 -0.00000000000E+00 -0.55371213386E+02  0.55385775898E+02  0.12700000000E+01 0. -1.
         25    2    1    2    0    0  0.00000000000E+00  0.00000000000E+00  0.15142670736E+02  0.12591109585E+03  0.12499721429E+03 0.  0.
    9000005    1    3    3    0    0 -0.52270528896E+02  0.35601997815E+01 -0.26739297613E+02  0.58829187062E+02  0.10000000000E+01 0.  0.
    9000005    1    3    3    0    0  0.52270528896E+02 -0.35601997815E+01  0.41881968348E+02  0.67081908785E+02  0.10000000000E+01 0.  0.
<mgrwt>
<rscale>  0 0.12499721E+03</rscale>
<asrwt>0</asrwt>
<pdfrwt beam="2">  1        4 0.85206481E-02 0.12499721E+03</pdfrwt>
<pdfrwt beam="1">  1       -4 0.10850290E-01 0.12499721E+03</pdfrwt>
<totfact> 0.10433562E+04</totfact>
</mgrwt>
</event>
<event>
 5    1  0.3294152E-002  0.1250047E+03  0.7818608E-02  0.1235062E+00
          4   -1    0    0  501    0  0.00000000000E+00  0.00000000000E+00  0.68316388576E+02  0.68328192191E+02  0.12700000000E+01 0. -1.
         -4   -1    0    0    0  501 -0.00000000000E+00 -0.00000000000E+00 -0.57159341502E+02  0.57173448566E+02  0.12700000000E+01 0. -1.
         25    2    1    2    0    0  0.00000000000E+00  0.00000000000E+00  0.11157047075E+02  0.12550164076E+03  0.12500472844E+03 0.  0.
    9000005    1    3    3    0    0 -0.57163095431E+02 -0.99600381683E+01 -0.17724163422E+02  0.60679220567E+02  0.10000000000E+01 0.  0.
    9000005    1    3    3    0    0  0.57163095431E+02  0.99600381683E+01  0.28881210497E+02  0.64822420190E+02  0.10000000000E+01 0.  0.
<mgrwt>
<rscale>  0 0.12500473E+03</rscale>
<asrwt>0</asrwt>
<pdfrwt beam="1">  1        4 0.10512207E-01 0.12500473E+03</pdfrwt>
<pdfrwt beam="2">  1       -4 0.87957380E-02 0.12500473E+03</pdfrwt>
<totfact> 0.10440804E+04</totfact>
</mgrwt>
</event>
<event>
 5    1  0.3294152E-002  0.1250007E+03  0.7818608E-02  0.1235068E+00
         -4   -1    0    0    0  501 -0.00000000000E+00  0.00000000000E+00  0.37733625290E+03  0.37733839012E+03  0.12700000000E+01 0.  1.
          4   -1    0    0  501    0  0.00000000000E+00 -0.00000000000E+00 -0.10311160330E+02  0.10389077310E+02  0.12700000000E+01 0.  1.
         25    2    1    2    0    0  0.00000000000E+00  0.00000000000E+00  0.36702509258E+03  0.38772746743E+03  0.12500068167E+03 0.  0.
    9000005    1    3    3    0    0  0.14773500328E+02  0.31304983381E+01  0.37160655171E+03  0.37191462140E+03  0.10000000000E+01 0.  0.
    9000005    1    3    3    0    0 -0.14773500328E+02 -0.31304983381E+01 -0.45814591379E+01  0.15812846031E+02  0.10000000000E+01 0.  0.
<mgrwt>
<rscale>  0 0.12500068E+03</rscale>
<asrwt>0</asrwt>
<pdfrwt beam="2">  1        4 0.15924903E-02 0.12500068E+03</pdfrwt>
<pdfrwt beam="1">  1       -4 0.58057893E-01 0.12500068E+03</pdfrwt>
<totfact> 0.65763168E+03</totfact>
</mgrwt>
</event>
<event>
 5    1  0.3294152E-002  0.1250026E+03  0.7818608E-02  0.1235065E+00
         -4   -1    0    0    0  501 -0.00000000000E+00  0.00000000000E+00  0.74266715887E+02  0.74277573928E+02  0.12700000000E+01 0. -1.
          4   -1    0    0  501    0  0.00000000000E+00 -0.00000000000E+00 -0.52577436885E+02  0.52592772977E+02  0.12700000000E+01 0. -1.
         25    2    1    2    0    0  0.00000000000E+00  0.00000000000E+00  0.21689279002E+02  0.12687034690E+03  0.12500264037E+03 0.  0.
    9000005    1    3    3    0    0  0.90424504038E+01 -0.59162109179E+02  0.29099311104E+02  0.66555923692E+02  0.10000000000E+01 0.  0.
    9000005    1    3    3    0    0 -0.90424504038E+01  0.59162109179E+02 -0.74100321022E+01  0.60314423213E+02  0.10000000000E+01 0.  0.
<mgrwt>
<rscale>  0 0.12500264E+03</rscale>
<asrwt>0</asrwt>
<pdfrwt beam="2">  1        4 0.80908514E-02 0.12500264E+03</pdfrwt>
<pdfrwt beam="1">  1       -4 0.11427663E-01 0.12500264E+03</pdfrwt>
<totfact> 0.10411343E+04</totfact>
</mgrwt>
</event>
<event>
 5    1  0.3294152E-002  0.1250002E+03  0.7818608E-02  0.1235069E+00
          4   -1    0    0  501    0  0.00000000000E+00  0.00000000000E+00  0.50945573991E+02  0.50961401171E+02  0.12700000000E+01 0.  1.
         -4   -1    0    0    0  501 -0.00000000000E+00 -0.00000000000E+00 -0.76642153374E+02  0.76652674929E+02  0.12700000000E+01 0.  1.
         25    2    1    2    0    0  0.00000000000E+00  0.00000000000E+00 -0.25696579382E+02  0.12761407610E+03  0.12500015291E+03 0.  0.
    9000005    1    3    3    0    0  0.51979968679E+02  0.31607586152E+02  0.17440628418E+01  0.60868698043E+02  0.10000000000E+01 0.  0.
    9000005    1    3    3    0    0 -0.51979968679E+02 -0.31607586152E+02 -0.27440642224E+02  0.66745378057E+02  0.10000000000E+01 0.  0.
<mgrwt>
<rscale>  0 0.12500015E+03</rscale>
<asrwt>0</asrwt>
<pdfrwt beam="1">  1        4 0.78398075E-02 0.12500015E+03</pdfrwt>
<pdfrwt beam="2">  1       -4 0.11793127E-01 0.12500015E+03</pdfrwt>
<totfact> 0.10395795E+04</totfact>
</mgrwt>
</event>
<event>
 5    1  0.3294152E-002  0.1249992E+03  0.7818608E-02  0.1235071E+00
         -4   -1    0    0    0  501 -0.00000000000E+00  0.00000000000E+00  0.16372906135E+03  0.16373398680E+03  0.12700000000E+01 0. -1.
          4   -1    0    0  501    0  0.00000000000E+00 -0.00000000000E+00 -0.23835504521E+02  0.23869314522E+02  0.12700000000E+01 0. -1.
         25    2    1    2    0    0  0.00000000000E+00  0.00000000000E+00  0.13989355683E+03  0.18760330132E+03  0.12499916568E+03 0.  0.
    9000005    1    3    3    0    0  0.45669236486E+02  0.77804569587E+01  0.13289220861E+03  0.14073931142E+03  0.10000000000E+01 0.  0.
    9000005    1    3    3    0    0 -0.45669236486E+02 -0.77804569587E+01  0.70013482262E+01  0.46863989893E+02  0.10000000000E+01 0.  0.
<mgrwt>
<rscale>  0 0.12499917E+03</rscale>
<asrwt>0</asrwt>
<pdfrwt beam="2">  1        4 0.36699803E-02 0.12499917E+03</pdfrwt>
<pdfrwt beam="1">  1       -4 0.25192066E-01 0.12499917E+03</pdfrwt>
<totfact> 0.92267737E+03</totfact>
</mgrwt>
</event>
<event>
 5    1  0.3294152E-002  0.1249989E+03  0.7818608E-02  0.1235071E+00
          4   -1    0    0  501    0  0.00000000000E+00  0.00000000000E+00  0.18244410873E+03  0.18244852893E+03  0.12700000000E+01 0.  1.
         -4   -1    0    0    0  501 -0.00000000000E+00 -0.00000000000E+00 -0.21386782394E+02  0.21424457080E+02  0.12700000000E+01 0.  1.
         25    2    1    2    0    0  0.00000000000E+00  0.00000000000E+00  0.16105732633E+03  0.20387298601E+03  0.12499892823E+03 0.  0.
    9000005    1    3    3    0    0 -0.28203510696E+02  0.50766492414E+02  0.11816579876E+03  0.13166939950E+03  0.10000000000E+01 0.  0.
    9000005    1    3    3    0    0  0.28203510696E+02 -0.50766492414E+02  0.42891527568E+02  0.72203586508E+02  0.10000000000E+01 0.  0.
<mgrwt>
<rscale>  0 0.12499893E+03</rscale>
<asrwt>0</asrwt>
<pdfrwt beam="1">  1        4 0.28071564E-01 0.12499893E+03</pdfrwt>
<pdfrwt beam="2">  1       -4 0.32935121E-02 0.12499893E+03</pdfrwt>
<totfact> 0.89488525E+03</totfact>
</mgrwt>
</event>
<event>
 5    1  0.3294152E-002  0.1250025E+03  0.7818608E-02  0.1235065E+00
         -4   -1    0    0    0  501 -0.00000000000E+00  0.00000000000E+00  0.10305908315E+03  0.10306690798E+03  0.12700000000E+01 0.  1.
          4   -1    0    0  501    0  0.00000000000E+00 -0.00000000000E+00 -0.37884649989E+02  0.37905930997E+02  0.12700000000E+01 0.  1.
         25    2    1    2    0    0  0.00000000000E+00  0.00000000000E+00  0.65174433164E+02  0.14097283898E+03  0.12500253834E+03 0.  0.
    9000005    1    3    3    0    0 -0.55403395464E+02 -0.88352324999E+01  0.63632604501E+02  0.84839294656E+02  0.10000000000E+01 0.  0.
    9000005    1    3    3    0    0  0.55403395464E+02  0.88352324999E+01  0.15418286629E+01  0.56133544320E+02  0.10000000000E+01 0.  0.
<mgrwt>
<rscale>  0 0.12500254E+03</rscale>
<asrwt>0</asrwt>
<pdfrwt beam="2">  1        4 0.58306466E-02 0.12500254E+03</pdfrwt>
<pdfrwt beam="1">  1       -4 0.15857482E-01 0.12500254E+03</pdfrwt>
<totfact> 0.10112885E+04</totfact>
</mgrwt>
</event>
<event>
 5    1  0.3294152E-002  0.1249933E+03  0.7818608E-02  0.1235080E+00
         -4   -1    0    0    0  501 -0.00000000000E+00  0.00000000000E+00  0.12532309586E+03  0.12532953066E+03  0.12700000000E+01 0.  1.
          4   -1    0    0  501    0  0.00000000000E+00 -0.00000000000E+00 -0.31145915053E+02  0.31171796941E+02  0.12700000000E+01 0.  1.
         25    2    1    2    0    0  0.00000000000E+00  0.00000000000E+00  0.94177180803E+02  0.15650132760E+03  0.12499329644E+03 0.  0.
    9000005    1    3    3    0    0  0.21706713751E+02  0.49747006180E+02  0.85860265532E+02  0.10158214037E+03  0.10000000000E+01 0.  0.
    9000005    1    3    3    0    0 -0.21706713751E+02 -0.49747006180E+02  0.83169152713E+01  0.54919187225E+02  0.10000000000E+01 0.  0.
<mgrwt>
<rscale>  0 0.12499330E+03</rscale>
<asrwt>0</asrwt>
<pdfrwt beam="2">  1        4 0.47941650E-02 0.12499330E+03</pdfrwt>
<pdfrwt beam="1">  1       -4 0.19282963E-01 0.12499330E+03</pdfrwt>
<totfact> 0.98036350E+03</totfact>
</mgrwt>
</event>
<event>
 4    1  0.3294152E-002  0.1248015E+03  0.7818608E-02  0.1235380E+00
         -4   -1    0    0    0  501 -0.00000000000E+00  0.00000000000E+00  0.21476441420E+03  0.21476816921E+03  0.12700000000E+01 0. -1.
          4   -1    0    0  501    0  0.00000000000E+00 -0.00000000000E+00 -0.18104651413E+02  0.18149140552E+02  0.12700000000E+01 0. -1.
    9000005    1    1    2    0    0 -0.33839014579E+02  0.45882528191E+02  0.51021143684E+02  0.76514328094E+02  0.10000000000E+01 0.  0.
    9000005    1    1    2    0    0  0.33839014579E+02 -0.45882528191E+02  0.14563861910E+03  0.15640298167E+03  0.10000000000E+01 0.  0.
<mgrwt>
<rscale>  0 0.12480149E+03</rscale>
<asrwt>0</asrwt>
<pdfrwt beam="2">  1        4 0.27890420E-02 0.12480149E+03</pdfrwt>
<pdfrwt beam="1">  1       -4 0.33044391E-01 0.12480149E+03</pdfrwt>
<totfact> 0.85240527E+03</totfact>
</mgrwt>
</event>
<event>
 4    1  0.3294152E-002  0.1243780E+03  0.7818608E-02  0.1236045E+00
          4   -1    0    0  501    0  0.00000000000E+00  0.00000000000E+00  0.28202766077E+03  0.28203052023E+03  0.12700000000E+01 0.  1.
         -4   -1    0    0    0  501 -0.00000000000E+00 -0.00000000000E+00 -0.13680757762E+02  0.13739579068E+02  0.12700000000E+01 0.  1.
    9000005    1    1    2    0    0 -0.18641829484E+02 -0.50652537659E+02  0.60752528646E+02  0.81271563998E+02  0.10000000000E+01 0.  0.
    9000005    1    1    2    0    0  0.18641829484E+02  0.50652537659E+02  0.20759437436E+03  0.21449853530E+03  0.10000000000E+01 0.  0.
<mgrwt>
<rscale>  0 0.12437802E+03</rscale>
<asrwt>0</asrwt>
<pdfrwt beam="1">  1        4 0.43393616E-01 0.12437802E+03</pdfrwt>
<pdfrwt beam="2">  1       -4 0.21094766E-02 0.12437802E+03</pdfrwt>
<totfact> 0.77193638E+03</totfact>
</mgrwt>
</event>
<event>
 5    1  0.3294152E-002  0.1250026E+03  0.7818608E-02  0.1235065E+00
         -4   -1    0    0    0  501 -0.00000000000E+00  0.00000000000E+00  0.57362996483E+01  0.58752049883E+01  0.12700000000E+01 0. -1.
          4   -1    0    0  501    0  0.00000000000E+00 -0.00000000000E+00 -0.67271237549E+03  0.67271357430E+03  0.12700000000E+01 0. -1.
         25    2    1    2    0    0  0.00000000000E+00  0.00000000000E+00 -0.66697607584E+03  0.67858877928E+03  0.12500258246E+03 0.  0.
    9000005    1    3    3    0    0  0.43320684638E+02 -0.15156147612E+02 -0.56374129935E+03  0.56560732238E+03  0.10000000000E+01 0.  0.
    9000005    1    3    3    0    0 -0.43320684638E+02  0.15156147612E+02 -0.10323477649E+03  0.11298145691E+03  0.10000000000E+01 0.  0.
<mgrwt>
<rscale>  0 0.12500258E+03</rscale>
<asrwt>0</asrwt>
<pdfrwt beam="2">  1        4 0.10350493E+00 0.12500258E+03</pdfrwt>
<pdfrwt beam="1">  1       -4 0.89328541E-03 0.12500258E+03</pdfrwt>
<totfact> 0.44238846E+03</totfact>
</mgrwt>
</event>
<event>
 5    1  0.3294152E-002  0.1250043E+03  0.7818608E-02  0.1235063E+00
          4   -1    0    0  501    0  0.00000000000E+00  0.00000000000E+00  0.22849774207E+03  0.22850127140E+03  0.12700000000E+01 0.  1.
         -4   -1    0    0    0  501 -0.00000000000E+00 -0.00000000000E+00 -0.17069277994E+02  0.17116458489E+02  0.12700000000E+01 0.  1.
         25    2    1    2    0    0  0.00000000000E+00  0.00000000000E+00  0.21142846408E+03  0.24561772989E+03  0.12500429518E+03 0.  0.
    9000005    1    3    3    0    0 -0.25603977868E+01  0.25411311814E+02  0.21778491831E+03  0.21927964121E+03  0.10000000000E+01 0.  0.
    9000005    1    3    3    0    0  0.25603977868E+01 -0.25411311814E+02 -0.63564542334E+01  0.26338088681E+02  0.10000000000E+01 0.  0.
<mgrwt>
<rscale>  0 0.12500430E+03</rscale>
<asrwt>0</asrwt>
<pdfrwt beam="1">  1        4 0.35157396E-01 0.12500430E+03</pdfrwt>
<pdfrwt beam="2">  1       -4 0.26299438E-02 0.12500430E+03</pdfrwt>
<totfact> 0.82959818E+03</totfact>
</mgrwt>
</event>
<event>
 5    1  0.3294152E-002  0.1249989E+03  0.7818608E-02  0.1235071E+00
         -4   -1    0    0    0  501 -0.00000000000E+00  0.00000000000E+00  0.13497090711E+04  0.13497096686E+04  0.12700000000E+01 0. -1.
          4   -1    0    0  501    0  0.00000000000E+00 -0.00000000000E+00 -0.27541354703E+01  0.30328472083E+01  0.12700000000E+01 0. -1.
         25    2    1    2    0    0  0.00000000000E+00  0.00000000000E+00  0.13469549357E+04  0.13527425158E+04  0.12499886182E+03 0.  0.
    9000005    1    3    3    0    0  0.46511141787E+02  0.29078484376E+02  0.34947815489E+03  0.35375814522E+03  0.10000000000E+01 0.  0.
    9000005    1    3    3    0    0 -0.46511141787E+02 -0.29078484376E+02  0.99747678077E+03  0.99898437062E+03  0.10000000000E+01 0.  0.
<mgrwt>
<rscale>  0 0.12499886E+03</rscale>
<asrwt>0</asrwt>
<pdfrwt beam="2">  1        4 0.44519679E-03 0.12499886E+03</pdfrwt>
<pdfrwt beam="1">  1       -4 0.20766982E+00 0.12499886E+03</pdfrwt>
<totfact> 0.21017230E+03</totfact>
</mgrwt>
</event>
<event>
 5    1  0.3294152E-002  0.1249995E+03  0.7818608E-02  0.1235070E+00
         -4   -1    0    0    0  501 -0.00000000000E+00  0.00000000000E+00  0.15069779290E+02  0.15123198995E+02  0.12700000000E+01 0.  1.
          4   -1    0    0  501    0  0.00000000000E+00 -0.00000000000E+00 -0.25869520404E+03  0.25869832139E+03  0.12700000000E+01 0.  1.
         25    2    1    2    0    0  0.00000000000E+00  0.00000000000E+00 -0.24362542475E+03  0.27382152039E+03  0.12499950978E+03 0.  0.
    9000005    1    3    3    0    0 -0.61505419329E+02  0.76950165385E+01 -0.13921225065E+03  0.15239153722E+03  0.10000000000E+01 0.  0.
    9000005    1    3    3    0    0  0.61505419329E+02 -0.76950165385E+01 -0.10441317410E+03  0.12142998317E+03  0.10000000000E+01 0.  0.
<mgrwt>
<rscale>  0 0.12499951E+03</rscale>
<asrwt>0</asrwt>
<pdfrwt beam="2">  1        4 0.39803608E-01 0.12499951E+03</pdfrwt>
<pdfrwt beam="1">  1       -4 0.23227768E-02 0.12499951E+03</pdfrwt>
<totfact> 0.79005387E+03</totfact>
</mgrwt>
</event>
<event>
 4    1  0.3294152E-002  0.1250674E+03  0.7818608E-02  0.1234964E+00
         -4   -1    0    0    0  501 -0.00000000000E+00  0.00000000000E+00  0.49835091925E+01  0.51427875585E+01  0.12700000000E+01 0. -1.
          4   -1    0    0  501    0  0.00000000000E+00 -0.00000000000E+00 -0.77217861122E+03  0.77217965560E+03  0.12700000000E+01 0. -1.
    9000005    1    1    2    0    0  0.56350047940E+02 -0.19310620342E+02 -0.26546961654E+03  0.27207231624E+03  0.10000000000E+01 0.  0.
    9000005    1    1    2    0    0 -0.56350047940E+02  0.19310620342E+02 -0.50172548549E+03  0.50525012692E+03  0.10000000000E+01 0.  0.
<mgrwt>
<rscale>  0 0.12506741E+03</rscale>
<asrwt>0</asrwt>
<pdfrwt beam="2">  1        4 0.11880895E+00 0.12506741E+03</pdfrwt>
<pdfrwt beam="1">  1       -4 0.77902685E-03 0.12506741E+03</pdfrwt>
<totfact> 0.39239566E+03</totfact>
</mgrwt>
</event>
<event>
 5    1  0.3294152E-002  0.1249965E+03  0.7818608E-02  0.1235075E+00
          4   -1    0    0  501    0  0.00000000000E+00  0.00000000000E+00  0.13308744966E+03  0.13309350907E+03  0.12700000000E+01 0. -1.
         -4   -1    0    0    0  501 -0.00000000000E+00 -0.00000000000E+00 -0.29328905963E+02  0.29356389849E+02  0.12700000000E+01 0. -1.
         25    2    1    2    0    0  0.00000000000E+00  0.00000000000E+00  0.10375854370E+03  0.16244989892E+03  0.12499653703E+03 0.  0.
    9000005    1    3    3    0    0  0.15592064632E+02 -0.57490178156E+02  0.76428293755E+02  0.96904680745E+02  0.10000000000E+01 0.  0.
    9000005    1    3    3    0    0 -0.15592064632E+02  0.57490178156E+02  0.27330249943E+02  0.65545218177E+02  0.10000000000E+01 0.  0.
<mgrwt>
<rscale>  0 0.12499654E+03</rscale>
<asrwt>0</asrwt>
<pdfrwt beam="1">  1        4 0.20477573E-01 0.12499654E+03</pdfrwt>
<pdfrwt beam="2">  1       -4 0.45147195E-02 0.12499654E+03</pdfrwt>
<totfact> 0.96880071E+03</totfact>
</mgrwt>
</event>
<event>
 5    1  0.3294152E-002  0.1250089E+03  0.7818608E-02  0.1235055E+00
          4   -1    0    0  501    0  0.00000000000E+00  0.00000000000E+00  0.30597547530E+02  0.30623892876E+02  0.12700000000E+01 0.  1.
         -4   -1    0    0    0  501 -0.00000000000E+00 -0.00000000000E+00 -0.12759910470E+03  0.12760542472E+03  0.12700000000E+01 0.  1.
         25    2    1    2    0    0  0.00000000000E+00  0.00000000000E+00 -0.97001557166E+02  0.15822931760E+03  0.12500885911E+03 0.  0.
    9000005    1    3    3    0    0  0.62283665211E+02 -0.94587870414E+00 -0.54911757463E+02  0.83044871884E+02  0.10000000000E+01 0.  0.
    9000005    1    3    3    0    0 -0.62283665211E+02  0.94587870414E+00 -0.42089799703E+02  0.75184445716E+02  0.10000000000E+01 0.  0.
<mgrwt>
<rscale>  0 0.12500886E+03</rscale>
<asrwt>0</asrwt>
<pdfrwt beam="1">  1        4 0.47098278E-02 0.12500886E+03</pdfrwt>
<pdfrwt beam="2">  1       -4 0.19633144E-01 0.12500886E+03</pdfrwt>
<totfact> 0.97665795E+03</totfact>
</mgrwt>
</event>
<event>
 5    1  0.3294152E-002  0.1249912E+03  0.7818608E-02  0.1235083E+00
         -4   -1    0    0    0  501 -0.00000000000E+00  0.00000000000E+00  0.19953676802E+02  0.19994052063E+02  0.12700000000E+01 0.  1.
          4   -1    0    0  501    0  0.00000000000E+00 -0.00000000000E+00 -0.19549810032E+03  0.19550222538E+03  0.12700000000E+01 0.  1.
         25    2    1    2    0    0  0.00000000000E+00  0.00000000000E+00 -0.17554442352E+03  0.21549627744E+03  0.12499120354E+03 0.  0.
    9000005    1    3    3    0    0 -0.26631710829E+02 -0.10180535136E+02 -0.18363866180E+03  0.18584146315E+03  0.10000000000E+01 0.  0.
    9000005    1    3    3    0    0  0.26631710829E+02  0.10180535136E+02  0.80942382843E+01  0.29654814293E+02  0.10000000000E+01 0.  0.
<mgrwt>
<rscale>  0 0.12499120E+03</rscale>
<asrwt>0</asrwt>
<pdfrwt beam="2">  1        4 0.30080053E-01 0.12499120E+03</pdfrwt>
<pdfrwt beam="1">  1       -4 0.30732197E-02 0.12499120E+03</pdfrwt>
<totfact> 0.87603279E+03</totfact>
</mgrwt>
</event>
<event>
 5    1  0.3294152E-002  0.1249999E+03  0.7818608E-02  0.1235069E+00
          4   -1    0    0  501    0  0.00000000000E+00  0.00000000000E+00  0.41386491197E+02  0.41405972439E+02  0.12700000000E+01 0.  1.
         -4   -1    0    0    0  501 -0.00000000000E+00 -0.00000000000E+00 -0.94338600856E+02  0.94347148931E+02  0.12700000000E+01 0.  1.
         25    2    1    2    0    0  0.00000000000E+00  0.00000000000E+00 -0.52952109659E+02  0.13575312137E+03  0.12499993618E+03 0.  0.
    9000005    1    3    3    0    0  0.39068400333E+02 -0.40539722873E+02 -0.55927917279E+02  0.79364607769E+02  0.10000000000E+01 0.  0.
    9000005    1    3    3    0    0 -0.39068400333E+02  0.40539722873E+02  0.29758076205E+01  0.56388513601E+02  0.10000000000E+01 0.  0.
<mgrwt>
<rscale>  0 0.12499994E+03</rscale>
<asrwt>0</asrwt>
<pdfrwt beam="1">  1        4 0.63693086E-02 0.12499994E+03</pdfrwt>
<pdfrwt beam="2">  1       -4 0.14515787E-01 0.12499994E+03</pdfrwt>
<totfact> 0.10222236E+04</totfact>
</mgrwt>
</event>
<event>
 5    1  0.3294152E-002  0.1250013E+03  0.7818608E-02  0.1235067E+00
         -4   -1    0    0    0  501 -0.00000000000E+00  0.00000000000E+00  0.47349263611E+03  0.47349433930E+03  0.12700000000E+01 0.  1.
          4   -1    0    0  501    0  0.00000000000E+00 -0.00000000000E+00 -0.81994339288E+01  0.82972053580E+01  0.12700000000E+01 0.  1.
         25    2    1    2    0    0  0.00000000000E+00  0.00000000000E+00  0.46529320218E+03  0.48179154466E+03  0.12500131403E+03 0.  0.
    9000005    1    3    3    0    0 -0.34010000209E+02  0.51795124129E+02  0.20135385046E+03  0.21067460239E+03  0.10000000000E+01 0.  0.
    9000005    1    3    3    0    0  0.34010000209E+02 -0.51795124129E+02  0.26393935173E+03  0.27111694228E+03  0.10000000000E+01 0.  0.
<mgrwt>
<rscale>  0 0.12500131E+03</rscale>
<asrwt>0</asrwt>
<pdfrwt beam="2">  1        4 0.12691031E-02 0.12500131E+03</pdfrwt>
<pdfrwt beam="1">  1       -4 0.72852683E-01 0.12500131E+03</pdfrwt>
<totfact> 0.57303659E+03</totfact>
</mgrwt>
</event>
<event>
 5    1  0.3294152E-002  0.1250075E+03  0.7818608E-02  0.1235058E+00
          4   -1    0    0  501    0  0.00000000000E+00  0.00000000000E+00  0.86624477190E+03  0.86624570287E+03  0.12700000000E+01 0. -1.
         -4   -1    0    0    0  501 -0.00000000000E+00 -0.00000000000E+00 -0.44195861445E+01  0.45984390492E+01  0.12700000000E+01 0. -1.
         25    2    1    2    0    0  0.00000000000E+00  0.00000000000E+00  0.86182518576E+03  0.87084414192E+03  0.12500747464E+03 0.  0.
    9000005    1    3    3    0    0  0.55551383384E+02 -0.58243421945E+01  0.62619853068E+03  0.62868551676E+03  0.10000000000E+01 0.  0.
    9000005    1    3    3    0    0 -0.55551383384E+02  0.58243421945E+01  0.23562665508E+03  0.24215862516E+03  0.10000000000E+01 0.  0.
<mgrwt>
<rscale>  0 0.12500747E+03</rscale>
<asrwt>0</asrwt>
<pdfrwt beam="1">  1        4 0.13328240E+00 0.12500747E+03</pdfrwt>
<pdfrwt beam="2">  1       -4 0.69376510E-03 0.12500747E+03</pdfrwt>
<totfact> 0.35283420E+03</totfact>
</mgrwt>
</event>
<event>
 5    1  0.3294152E-002  0.1249978E+03  0.7818608E-02  0.1235073E+00
         -4   -1    0    0    0  501 -0.00000000000E+00  0.00000000000E+00  0.66701640527E+02  0.66713729839E+02  0.12700000000E+01 0.  1.
          4   -1    0    0  501    0  0.00000000000E+00 -0.00000000000E+00 -0.58536705410E+02  0.58550480616E+02  0.12700000000E+01 0.  1.
         25    2    1    2    0    0  0.00000000000E+00  0.00000000000E+00  0.81649351170E+01  0.12526421045E+03  0.12499782500E+03 0.  0.
    9000005    1    3    3    0    0  0.50109725340E+02 -0.18860183746E+02  0.36375712746E+02  0.64737034087E+02  0.10000000000E+01 0.  0.
    9000005    1    3    3    0    0 -0.50109725340E+02  0.18860183746E+02 -0.28210777629E+02  0.60527176368E+02  0.10000000000E+01 0.  0.
<mgrwt>
<rscale>  0 0.12499783E+03</rscale>
<asrwt>0</asrwt>
<pdfrwt beam="2">  1        4 0.90076366E-02 0.12499783E+03</pdfrwt>
<pdfrwt beam="1">  1       -4 0.10263780E-01 0.12499783E+03</pdfrwt>
<totfact> 0.10447640E+04</totfact>
</mgrwt>
</event>
<event>
 5    1  0.3294152E-002  0.1249863E+03  0.7818608E-02  0.1235091E+00
          4   -1    0    0  501    0  0.00000000000E+00  0.00000000000E+00  0.26185498812E+03  0.26185806786E+03  0.12700000000E+01 0.  1.
         -4   -1    0    0    0  501 -0.00000000000E+00 -0.00000000000E+00 -0.14884124804E+02  0.14938208433E+02  0.12700000000E+01 0.  1.
         25    2    1    2    0    0  0.00000000000E+00  0.00000000000E+00  0.24697086332E+03  0.27679627630E+03  0.12498628422E+03 0.  0.
    9000005    1    3    3    0    0 -0.38127983557E+02  0.38945705001E+02  0.19116285708E+03  0.19878317080E+03  0.10000000000E+01 0.  0.
    9000005    1    3    3    0    0  0.38127983557E+02 -0.38945705001E+02  0.55808006242E+02  0.78013105494E+02  0.10000000000E+01 0.  0.
<mgrwt>
<rscale>  0 0.12498628E+03</rscale>
<asrwt>0</asrwt>
<pdfrwt beam="1">  1        4 0.40289776E-01 0.12498628E+03</pdfrwt>
<pdfrwt beam="2">  1       -4 0.22942627E-02 0.12498628E+03</pdfrwt>
<totfact> 0.78628799E+03</totfact>
</mgrwt>
</event>
<event>
 5    1  0.3294152E-002  0.1250039E+03  0.7818608E-02  0.1235063E+00
         -4   -1    0    0    0  501 -0.00000000000E+00  0.00000000000E+00  0.18768200649E+03  0.18768630333E+03  0.12700000000E+01 0.  1.
          4   -1    0    0  501    0  0.00000000000E+00 -0.00000000000E+00 -0.20790503319E+02  0.20829256546E+02  0.12700000000E+01 0.  1.
         25    2    1    2    0    0  0.00000000000E+00  0.00000000000E+00  0.16689150317E+03  0.20851555988E+03  0.12500385947E+03 0.  0.
    9000005    1    3    3    0    0  0.59561563610E+01 -0.90481738332E+01 -0.19220663939E+02  0.22085723229E+02  0.10000000000E+01 0.  0.
    9000005    1    3    3    0    0 -0.59561563610E+01  0.90481738332E+01  0.18611216711E+03  0.18642983665E+03  0.10000000000E+01 0.  0.
<mgrwt>
<rscale>  0 0.12500386E+03</rscale>
<asrwt>0</asrwt>
<pdfrwt beam="2">  1        4 0.32018507E-02 0.12500386E+03</pdfrwt>
<pdfrwt beam="1">  1       -4 0.28877465E-01 0.12500386E+03</pdfrwt>
<totfact> 0.88711230E+03</totfact>
</mgrwt>
</event>
<event>
 5    1  0.3294152E-002  0.1250021E+03  0.7818608E-02  0.1235066E+00
         -4   -1    0    0    0  501 -0.00000000000E+00  0.00000000000E+00  0.10116715551E+04  0.10116723522E+04  0.12700000000E+01 0. -1.
          4   -1    0    0  501    0  0.00000000000E+00 -0.00000000000E+00 -0.37560649296E+01  0.39649620119E+01  0.12700000000E+01 0. -1.
         25    2    1    2    0    0  0.00000000000E+00  0.00000000000E+00  0.10079154901E+04  0.10156373142E+04  0.12500207513E+03 0.  0.
    9000005    1    3    3    0    0  0.17856203565E+02 -0.27369543631E+02  0.93675555828E+03  0.93732593685E+03  0.10000000000E+01 0.  0.
    9000005    1    3    3    0    0 -0.17856203565E+02  0.27369543631E+02  0.71159931862E+02  0.78311377379E+02  0.10000000000E+01 0.  0.
<mgrwt>
<rscale>  0 0.12500208E+03</rscale>
<asrwt>0</asrwt>
<pdfrwt beam="2">  1        4 0.59398659E-03 0.12500208E+03</pdfrwt>
<pdfrwt beam="1">  1       -4 0.15565788E+00 0.12500208E+03</pdfrwt>
<totfact> 0.30091040E+03</totfact>
</mgrwt>
</event>
<event>
 5    1  0.3294152E-002  0.1250053E+03  0.7818608E-02  0.1235061E+00
          4   -1    0    0  501    0  0.00000000000E+00  0.00000000000E+00  0.15960128362E+04  0.15960133415E+04  0.12700000000E+01 0. -1.
         -4   -1    0    0    0  501 -0.00000000000E+00 -0.00000000000E+00 -0.22824366327E+01  0.26119756856E+01  0.12700000000E+01 0. -1.
         25    2    1    2    0    0  0.00000000000E+00  0.00000000000E+00  0.15937303996E+04  0.15986253172E+04  0.12500527273E+03 0.  0.
    9000005    1    3    3    0    0 -0.46446825788E+01 -0.73511684825E+01  0.54290940314E+01  0.10299893995E+02  0.10000000000E+01 0.  0.
    9000005    1    3    3    0    0  0.46446825788E+01  0.73511684825E+01  0.15883013056E+04  0.15883254232E+04  0.10000000000E+01 0.  0.
<mgrwt>
<rscale>  0 0.12500527E+03</rscale>
<asrwt>0</asrwt>
<pdfrwt beam="1">  1        4 0.24556596E+00 0.12500527E+03</pdfrwt>
<pdfrwt beam="2">  1       -4 0.37653192E-03 0.12500527E+03</pdfrwt>
<totfact> 0.16069096E+03</totfact>
</mgrwt>
</event>
<event>
 5    1  0.3294152E-002  0.1249946E+03  0.7818608E-02  0.1235078E+00
          4   -1    0    0  501    0  0.00000000000E+00  0.00000000000E+00  0.20059920425E+02  0.20100082275E+02  0.12700000000E+01 0.  1.
         -4   -1    0    0    0  501 -0.00000000000E+00 -0.00000000000E+00 -0.19447521033E+03  0.19447935708E+03  0.12700000000E+01 0.  1.
         25    2    1    2    0    0  0.00000000000E+00  0.00000000000E+00 -0.17441528990E+03  0.21457943936E+03  0.12499456966E+03 0.  0.
    9000005    1    3    3    0    0 -0.26956492772E+02  0.37574673099E+02 -0.15056746973E+02  0.48643747702E+02  0.10000000000E+01 0.  0.
    9000005    1    3    3    0    0  0.26956492772E+02 -0.37574673099E+02 -0.15935854293E+03  0.16593569166E+03  0.10000000000E+01 0.  0.
<mgrwt>
<rscale>  0 0.12499457E+03</rscale>
<asrwt>0</asrwt>
<pdfrwt beam="1">  1        4 0.30895501E-02 0.12499457E+03</pdfrwt>
<pdfrwt beam="2">  1       -4 0.29922670E-01 0.12499457E+03</pdfrwt>
<totfact> 0.87744065E+03</totfact>
</mgrwt>
</event>
<event>
 5    1  0.3294152E-002  0.1250011E+03  0.7818608E-02  0.1235068E+00
          4   -1    0    0  501    0  0.00000000000E+00  0.00000000000E+00  0.55494146525E+02  0.55508676786E+02  0.12700000000E+01 0.  1.
         -4   -1    0    0    0  501 -0.00000000000E+00 -0.00000000000E+00 -0.70362109140E+02  0.70373569631E+02  0.12700000000E+01 0.  1.
         25    2    1    2    0    0  0.00000000000E+00  0.00000000000E+00 -0.14867962615E+02  0.12588224642E+03  0.12500113460E+03 0.  0.
    9000005    1    3    3    0    0  0.48855260537E+02  0.37876966196E+02  0.17858717822E+01  0.61852165592E+02  0.10000000000E+01 0.  0.
    9000005    1    3    3    0    0 -0.48855260537E+02 -0.37876966196E+02 -0.16653834397E+02  0.64030080825E+02  0.10000000000E+01 0.  0.
<mgrwt>
<rscale>  0 0.12500113E+03</rscale>
<asrwt>0</asrwt>
<pdfrwt beam="1">  1        4 0.85395602E-02 0.12500113E+03</pdfrwt>
<pdfrwt beam="2">  1       -4 0.10826939E-01 0.12500113E+03</pdfrwt>
<totfact> 0.10433272E+04</totfact>
</mgrwt>
</event>
<event>
 5    1  0.3294152E-002  0.1249988E+03  0.7818608E-02  0.1235071E+00
         -4   -1    0    0    0  501 -0.00000000000E+00  0.00000000000E+00  0.33667576159E+03  0.33667815691E+03  0.12700000000E+01 0. -1.
          4   -1    0    0  501    0  0.00000000000E+00 -0.00000000000E+00 -0.11564996451E+02  0.11634519453E+02  0.12700000000E+01 0. -1.
         25    2    1    2    0    0  0.00000000000E+00  0.00000000000E+00  0.32511076514E+03  0.34831267637E+03  0.12499884363E+03 0.  0.
    9000005    1    3    3    0    0 -0.80166677280E+01 -0.93531505555E+01 -0.81618677931E+01  0.14810957857E+02  0.10000000000E+01 0.  0.
    9000005    1    3    3    0    0  0.80166677280E+01  0.93531505555E+01  0.33327263293E+03  0.33350171851E+03  0.10000000000E+01 0.  0.
<mgrwt>
<rscale>  0 0.12499884E+03</rscale>
<asrwt>0</asrwt>
<pdfrwt beam="2">  1        4 0.17847624E-02 0.12499884E+03</pdfrwt>
<pdfrwt beam="1">  1       -4 0.51801805E-01 0.12499884E+03</pdfrwt>
<totfact> 0.69912368E+03</totfact>
</mgrwt>
</event>
<event>
 5    1  0.3294152E-002  0.1250002E+03  0.7818608E-02  0.1235069E+00
          4   -1    0    0  501    0  0.00000000000E+00  0.00000000000E+00  0.55382861458E+01  0.56820342688E+01  0.12700000000E+01 0.  1.
         -4   -1    0    0    0  501 -0.00000000000E+00 -0.00000000000E+00 -0.69613874348E+03  0.69613990194E+03  0.12700000000E+01 0.  1.
         25    2    1    2    0    0  0.00000000000E+00  0.00000000000E+00 -0.69060045734E+03  0.70182193621E+03  0.12500015390E+03 0.  0.
    9000005    1    3    3    0    0 -0.90378529284E+01 -0.51088470366E+02 -0.14971126819E+03  0.15844929288E+03  0.10000000000E+01 0.  0.
    9000005    1    3    3    0    0  0.90378529284E+01  0.51088470366E+02 -0.54088918915E+03  0.54337264333E+03  0.10000000000E+01 0.  0.
<mgrwt>
<rscale>  0 0.12500015E+03</rscale>
<asrwt>0</asrwt>
<pdfrwt beam="1">  1        4 0.86319123E-03 0.12500015E+03</pdfrwt>
<pdfrwt beam="2">  1       -4 0.10710935E+00 0.12500015E+03</pdfrwt>
<totfact> 0.42990566E+03</totfact>
</mgrwt>
</event>
<event>
 4    1  0.3294152E-002  0.1253682E+03  0.7818608E-02  0.1234495E+00
         -4   -1    0    0    0  501 -0.00000000000E+00  0.00000000000E+00  0.53475112811E+03  0.53475263619E+03  0.12700000000E+01 0.  1.
          4   -1    0    0  501    0  0.00000000000E+00 -0.00000000000E+00 -0.72914969012E+01  0.74012719893E+01  0.12700000000E+01 0.  1.
    9000005    1    1    2    0    0 -0.29337961113E+02 -0.13837672411E+01  0.24289299008E+02  0.38126117300E+02  0.10000000000E+01 0.  0.
    9000005    1    1    2    0    0  0.29337961113E+02  0.13837672411E+01  0.50317033220E+03  0.50402779088E+03  0.10000000000E+01 0.  0.
<mgrwt>
<rscale>  0 0.12536825E+03</rscale>
<asrwt>0</asrwt>
<pdfrwt beam="2">  1        4 0.11303289E-02 0.12536825E+03</pdfrwt>
<pdfrwt beam="1">  1       -4 0.82277970E-01 0.12536825E+03</pdfrwt>
<totfact> 0.52311724E+03</totfact>
</mgrwt>
</event>
<event>
 5    1  0.3294152E-002  0.1250454E+03  0.7818608E-02  0.1234998E+00
          4   -1    0    0  501    0  0.00000000000E+00  0.00000000000E+00  0.17228779432E+03  0.17229247509E+03  0.12700000000E+01 0.  1.
         -4   -1    0    0    0  501 -0.00000000000E+00 -0.00000000000E+00 -0.22666544295E+02  0.22702095284E+02  0.12700000000E+01 0.  1.
         25    2    1    2    0    0  0.00000000000E+00  0.00000000000E+00  0.14962125003E+03  0.19499457037E+03  0.12504544780E+03 0.  0.
    9000005    1    3    3    0    0  0.29003070866E+02 -0.55379709814E+02  0.74771637676E+02  0.97467369819E+02  0.10000000000E+01 0.  0.
    9000005    1    3    3    0    0 -0.29003070866E+02  0.55379709814E+02  0.74849612353E+02  0.97527200555E+02  0.10000000000E+01 0.  0.
<mgrwt>
<rscale>  0 0.12504545E+03</rscale>
<asrwt>0</asrwt>
<pdfrwt beam="1">  1        4 0.26508910E-01 0.12504545E+03</pdfrwt>
<pdfrwt beam="2">  1       -4 0.34902553E-02 0.12504545E+03</pdfrwt>
<totfact> 0.90892945E+03</totfact>
</mgrwt>
</event>
<event>
 5    1  0.3294152E-002  0.1249989E+03  0.7818608E-02  0.1235071E+00
          4   -1    0    0  501    0  0.00000000000E+00  0.00000000000E+00  0.12166337804E+02  0.12232443564E+02  0.12700000000E+01 0. -1.
         -4   -1    0    0    0  501 -0.00000000000E+00 -0.00000000000E+00 -0.32012749021E+03  0.32013000936E+03  0.12700000000E+01 0. -1.
         25    2    1    2    0    0  0.00000000000E+00  0.00000000000E+00 -0.30796115241E+03  0.33236245292E+03  0.12499891487E+03 0.  0.
    9000005    1    3    3    0    0  0.21026998773E+02  0.25005495618E+02 -0.12337772343E+02  0.34937517297E+02  0.10000000000E+01 0.  0.
    9000005    1    3    3    0    0 -0.21026998773E+02 -0.25005495618E+02 -0.29562338007E+03  0.29742493562E+03  0.10000000000E+01 0.  0.
<mgrwt>
<rscale>  0 0.12499891E+03</rscale>
<asrwt>0</asrwt>
<pdfrwt beam="1">  1        4 0.18770234E-02 0.12499891E+03</pdfrwt>
<pdfrwt beam="2">  1       -4 0.49255656E-01 0.12499891E+03</pdfrwt>
<totfact> 0.71711232E+03</totfact>
</mgrwt>
</event>
<event>
 5    1  0.3294152E-002  0.1250162E+03  0.7818608E-02  0.1235044E+00
         -4   -1    0    0    0  501 -0.00000000000E+00  0.00000000000E+00  0.24219213124E+03  0.24219546101E+03  0.12700000000E+01 0.  1.
          4   -1    0    0  501    0  0.00000000000E+00 -0.00000000000E+00 -0.16104468228E+02  0.16154466779E+02  0.12700000000E+01 0.  1.
         25    2    1    2    0    0  0.00000000000E+00  0.00000000000E+00  0.22608766301E+03  0.25834992779E+03  0.12501621424E+03 0.  0.
    9000005    1    3    3    0    0 -0.34107209217E+02 -0.36080556788E+02  0.19149463052E+03  0.19782897112E+03  0.10000000000E+01 0.  0.
    9000005    1    3    3    0    0  0.34107209217E+02  0.36080556788E+02  0.34593032493E+02  0.60520956666E+02  0.10000000000E+01 0.  0.
<mgrwt>
<rscale>  0 0.12501621E+03</rscale>
<asrwt>0</asrwt>
<pdfrwt beam="2">  1        4 0.24817128E-02 0.12501621E+03</pdfrwt>
<pdfrwt beam="1">  1       -4 0.37264429E-01 0.12501621E+03</pdfrwt>
<totfact> 0.81108903E+03</totfact>
</mgrwt>
</event>
<event>
 5    1  0.3294152E-002  0.1250027E+03  0.7818608E-02  0.1235065E+00
          4   -1    0    0  501    0  0.00000000000E+00  0.00000000000E+00  0.15563864131E+03  0.15564382278E+03  0.12700000000E+01 0.  1.
         -4   -1    0    0    0  501 -0.00000000000E+00 -0.00000000000E+00 -0.25077621603E+02  0.25109759164E+02  0.12700000000E+01 0.  1.
         25    2    1    2    0    0  0.00000000000E+00  0.00000000000E+00  0.13056101971E+03  0.18075358194E+03  0.12500271004E+03 0.  0.
    9000005    1    3    3    0    0 -0.41099766053E+00 -0.93619573393E+01 -0.24062984538E+02  0.25842646714E+02  0.10000000000E+01 0.  0.
    9000005    1    3    3    0    0  0.41099766053E+00  0.93619573393E+01  0.15462400425E+03  0.15491093523E+03  0.10000000000E+01 0.  0.
<mgrwt>
<rscale>  0 0.12500271E+03</rscale>
<asrwt>0</asrwt>
<pdfrwt beam="1">  1        4 0.23947277E-01 0.12500271E+03</pdfrwt>
<pdfrwt beam="2">  1       -4 0.38609663E-02 0.12500271E+03</pdfrwt>
<totfact> 0.93475852E+03</totfact>
</mgrwt>
</event>
<event>
 5    1  0.3294152E-002  0.1250023E+03  0.7818608E-02  0.1235066E+00
         -4   -1    0    0    0  501 -0.00000000000E+00  0.00000000000E+00  0.15641350282E+03  0.15641865862E+03  0.12700000000E+01 0. -1.
          4   -1    0    0  501    0  0.00000000000E+00 -0.00000000000E+00 -0.24953061877E+02  0.24985359654E+02  0.12700000000E+01 0. -1.
         25    2    1    2    0    0  0.00000000000E+00  0.00000000000E+00  0.13146044094E+03  0.18140401827E+03  0.12500228123E+03 0.  0.
    9000005    1    3    3    0    0 -0.13684492084E+02 -0.60078460028E+02  0.50599642678E+02  0.79737133897E+02  0.10000000000E+01 0.  0.
    9000005    1    3    3    0    0  0.13684492084E+02  0.60078460028E+02  0.80860798265E+02  0.10166688438E+03  0.10000000000E+01 0.  0.
<mgrwt>
<rscale>  0 0.12500228E+03</rscale>
<asrwt>0</asrwt>
<pdfrwt beam="2">  1        4 0.38418137E-02 0.12500228E+03</pdfrwt>
<pdfrwt beam="1">  1       -4 0.24066497E-01 0.12500228E+03</pdfrwt>
<totfact> 0.93360109E+03</totfact>
</mgrwt>
</event>
<event>
 5    1  0.3294152E-002  0.1249974E+03  0.7818608E-02  0.1235073E+00
         -4   -1    0    0    0  501 -0.00000000000E+00  0.00000000000E+00  0.31936267016E+03  0.31936519534E+03  0.12700000000E+01 0.  1.
          4   -1    0    0  501    0  0.00000000000E+00 -0.00000000000E+00 -0.12195334759E+02  0.12261284186E+02  0.12700000000E+01 0.  1.
         25    2    1    2    0    0  0.00000000000E+00  0.00000000000E+00  0.30716733541E+03  0.33162647953E+03  0.12499739990E+03 0.  0.
    9000005    1    3    3    0    0 -0.56913066181E+02  0.16263193415E+02  0.10042300095E+03  0.11657344330E+03  0.10000000000E+01 0.  0.
    9000005    1    3    3    0    0  0.56913066181E+02 -0.16263193415E+02  0.20674433445E+03  0.21505303623E+03  0.10000000000E+01 0.  0.
<mgrwt>
<rscale>  0 0.12499740E+03</rscale>
<asrwt>0</asrwt>
<pdfrwt beam="2">  1        4 0.18814724E-02 0.12499740E+03</pdfrwt>
<pdfrwt beam="1">  1       -4 0.49137991E-01 0.12499740E+03</pdfrwt>
<totfact> 0.71798448E+03</totfact>
</mgrwt>
</event>
<event>
 5    1  0.3294152E-002  0.1249989E+03  0.7818608E-02  0.1235071E+00
         -4   -1    0    0    0  501 -0.00000000000E+00  0.00000000000E+00  0.27485167787E+02  0.27514493423E+02  0.12700000000E+01 0.  1.
          4   -1    0    0  501    0  0.00000000000E+00 -0.00000000000E+00 -0.14201161222E+03  0.14201729087E+03  0.12700000000E+01 0.  1.
         25    2    1    2    0    0  0.00000000000E+00  0.00000000000E+00 -0.11452644443E+03  0.16953178429E+03  0.12499887764E+03 0.  0.
    9000005    1    3    3    0    0  0.16440421665E+02  0.17398358417E+02  0.21027421877E+02  0.31876995011E+02  0.10000000000E+01 0.  0.
    9000005    1    3    3    0    0 -0.16440421665E+02 -0.17398358417E+02 -0.13555386631E+03  0.13765478928E+03  0.10000000000E+01 0.  0.
<mgrwt>
<rscale>  0 0.12499888E+03</rscale>
<asrwt>0</asrwt>
<pdfrwt beam="2">  1        4 0.21850633E-01 0.12499888E+03</pdfrwt>
<pdfrwt beam="1">  1       -4 0.42311801E-02 0.12499888E+03</pdfrwt>
<totfact> 0.95538369E+03</totfact>
</mgrwt>
</event>
<event>
 4    1  0.3294152E-002  0.1249328E+03  0.7818608E-02  0.1235174E+00
         -4   -1    0    0    0  501 -0.00000000000E+00  0.00000000000E+00  0.68418497357E+02  0.68430283359E+02  0.12700000000E+01 0. -1.
          4   -1    0    0  501    0  0.00000000000E+00 -0.00000000000E+00 -0.57008346959E+02  0.57022491379E+02  0.12700000000E+01 0. -1.
    9000005    1    1    2    0    0  0.60521188768E+02 -0.90399197122E+01  0.18267833540E+02  0.63868992324E+02  0.10000000000E+01 0.  0.
    9000005    1    1    2    0    0 -0.60521188768E+02  0.90399197122E+01 -0.68576831423E+01  0.61583782414E+02  0.10000000000E+01 0.  0.
<mgrwt>
<rscale>  0 0.12493281E+03</rscale>
<asrwt>0</asrwt>
<pdfrwt beam="2">  1        4 0.87725096E-02 0.12493281E+03</pdfrwt>
<pdfrwt beam="1">  1       -4 0.10527917E-01 0.12493281E+03</pdfrwt>
<totfact> 0.10458840E+04</totfact>
</mgrwt>
</event>
<event>
 5    1  0.3294152E-002  0.1250017E+03  0.7818608E-02  0.1235067E+00
          4   -1    0    0  501    0  0.00000000000E+00  0.00000000000E+00  0.20466390976E+02  0.20505756742E+02  0.12700000000E+01 0.  1.
         -4   -1    0    0    0  501 -0.00000000000E+00 -0.00000000000E+00 -0.19064206746E+03  0.19064629760E+03  0.12700000000E+01 0.  1.
         25    2    1    2    0    0  0.00000000000E+00  0.00000000000E+00 -0.17017567649E+03  0.21115205434E+03  0.12500171672E+03 0.  0.
    9000005    1    3    3    0    0 -0.24706108039E+02 -0.49501336513E+02 -0.35996988000E+02  0.66011796189E+02  0.10000000000E+01 0.  0.
    9000005    1    3    3    0    0  0.24706108039E+02  0.49501336513E+02 -0.13417868849E+03  0.14514025815E+03  0.10000000000E+01 0.  0.
<mgrwt>
<rscale>  0 0.12500172E+03</rscale>
<asrwt>0</asrwt>
<pdfrwt beam="1">  1        4 0.31520292E-02 0.12500172E+03</pdfrwt>
<pdfrwt beam="2">  1       -4 0.29332901E-01 0.12500172E+03</pdfrwt>
<totfact> 0.88284693E+03</totfact>
</mgrwt>
</event>
<event>
 5    1  0.3294152E-002  0.1250006E+03  0.7818608E-02  0.1235068E+00
         -4   -1    0    0    0  501 -0.00000000000E+00  0.00000000000E+00  0.18787700537E+02  0.18830575973E+02  0.12700000000E+01 0.  1.
          4   -1    0    0  501    0  0.00000000000E+00 -0.00000000000E+00 -0.20763556222E+03  0.20763944615E+03  0.12700000000E+01 0.  1.
         25    2    1    2    0    0  0.00000000000E+00  0.00000000000E+00 -0.18884786168E+03  0.22647002212E+03  0.12500062424E+03 0.  0.
    9000005    1    3    3    0    0  0.55392484099E+02  0.19020729058E+02 -0.13391734561E+03  0.14616761229E+03  0.10000000000E+01 0.  0.
    9000005    1    3    3    0    0 -0.55392484099E+02 -0.19020729058E+02 -0.54930516069E+02  0.80302409828E+02  0.10000000000E+01 0.  0.
<mgrwt>
<rscale>  0 0.12500062E+03</rscale>
<asrwt>0</asrwt>
<pdfrwt beam="2">  1        4 0.31947528E-01 0.12500062E+03</pdfrwt>
<pdfrwt beam="1">  1       -4 0.28940125E-02 0.12500062E+03</pdfrwt>
<totfact> 0.85853397E+03</totfact>
</mgrwt>
</event>
<event>
 5    1  0.3294152E-002  0.1249996E+03  0.7818608E-02  0.1235070E+00
          4   -1    0    0  501    0  0.00000000000E+00  0.00000000000E+00  0.35399541135E+02  0.35422315178E+02  0.12700000000E+01 0.  1.
         -4   -1    0    0    0  501 -0.00000000000E+00 -0.00000000000E+00 -0.11028478876E+03  0.11029210095E+03  0.12700000000E+01 0.  1.
         25    2    1    2    0    0  0.00000000000E+00  0.00000000000E+00 -0.74885247629E+02  0.14571441613E+03  0.12499956302E+03 0.  0.
    9000005    1    3    3    0    0  0.39243404343E+02  0.19623617417E+02 -0.89315061809E+02  0.99515382785E+02  0.10000000000E+01 0.  0.
    9000005    1    3    3    0    0 -0.39243404343E+02 -0.19623617417E+02  0.14429814180E+02  0.46199033347E+02  0.10000000000E+01 0.  0.
<mgrwt>
<rscale>  0 0.12499956E+03</rscale>
<asrwt>0</asrwt>
<pdfrwt beam="1">  1        4 0.54483976E-02 0.12499956E+03</pdfrwt>
<pdfrwt beam="2">  1       -4 0.16969205E-01 0.12499956E+03</pdfrwt>
<totfact> 0.10016592E+04</totfact>
</mgrwt>
</event>
<event>
 5    1  0.3294152E-002  0.1249981E+03  0.7818608E-02  0.1235072E+00
          4   -1    0    0  501    0  0.00000000000E+00  0.00000000000E+00  0.64400987420E+03  0.64401112643E+03  0.12700000000E+01 0. -1.
         -4   -1    0    0    0  501 -0.00000000000E+00 -0.00000000000E+00 -0.59975714532E+01  0.61305597898E+01  0.12700000000E+01 0. -1.
         25    2    1    2    0    0  0.00000000000E+00  0.00000000000E+00  0.63801230275E+03  0.65014168622E+03  0.12499805481E+03 0.  0.
    9000005    1    3    3    0    0  0.33110225545E+02  0.38619593335E+02  0.13022510900E+03  0.13981179864E+03  0.10000000000E+01 0.  0.
    9000005    1    3    3    0    0 -0.33110225545E+02 -0.38619593335E+02  0.50778719375E+03  0.51032988758E+03  0.10000000000E+01 0.  0.
<mgrwt>
<rscale>  0 0.12499805E+03</rscale>
<asrwt>0</asrwt>
<pdfrwt beam="1">  1        4 0.99088821E-01 0.12499805E+03</pdfrwt>
<pdfrwt beam="2">  1       -4 0.93302900E-03 0.12499805E+03</pdfrwt>
<totfact> 0.45849889E+03</totfact>
</mgrwt>
</event>
<event>
 5    1  0.3294152E-002  0.1250030E+03  0.7818608E-02  0.1235065E+00
          4   -1    0    0  501    0  0.00000000000E+00  0.00000000000E+00  0.31578615755E+02  0.31604143289E+02  0.12700000000E+01 0. -1.
         -4   -1    0    0    0  501 -0.00000000000E+00 -0.00000000000E+00 -0.12362635685E+03  0.12363287996E+03  0.12700000000E+01 0. -1.
         25    2    1    2    0    0  0.00000000000E+00  0.00000000000E+00 -0.92047741090E+02  0.15523702325E+03  0.12500298695E+03 0.  0.
    9000005    1    3    3    0    0  0.55434820266E+02  0.11042073446E+02 -0.79125845169E+02  0.97246316422E+02  0.10000000000E+01 0.  0.
    9000005    1    3    3    0    0 -0.55434820266E+02 -0.11042073446E+02 -0.12921895921E+02  0.57990706826E+02  0.10000000000E+01 0.  0.
<mgrwt>
<rscale>  0 0.12500299E+03</rscale>
<asrwt>0</asrwt>
<pdfrwt beam="1">  1        4 0.48607141E-02 0.12500299E+03</pdfrwt>
<pdfrwt beam="2">  1       -4 0.19021905E-01 0.12500299E+03</pdfrwt>
<totfact> 0.98262388E+03</totfact>
</mgrwt>
</event>
<event>
 5    1  0.3294152E-002  0.1250099E+03  0.7818608E-02  0.1235054E+00
          4   -1    0    0  501    0  0.00000000000E+00  0.00000000000E+00  0.74072439275E+02  0.74083325791E+02  0.12700000000E+01 0. -1.
         -4   -1    0    0    0  501 -0.00000000000E+00 -0.00000000000E+00 -0.52721522919E+02  0.52736817110E+02  0.12700000000E+01 0. -1.
         25    2    1    2    0    0  0.00000000000E+00  0.00000000000E+00  0.21350916357E+02  0.12682014290E+03  0.12500994767E+03 0.  0.
    9000005    1    3    3    0    0  0.18847863026E+01 -0.12025041143E+02 -0.51512420299E+02  0.52940376641E+02  0.10000000000E+01 0.  0.
    9000005    1    3    3    0    0 -0.18847863026E+01  0.12025041143E+02  0.72863336656E+02  0.73879766259E+02  0.10000000000E+01 0.  0.
<mgrwt>
<rscale>  0 0.12500995E+03</rscale>
<asrwt>0</asrwt>
<pdfrwt beam="1">  1        4 0.11397774E-01 0.12500995E+03</pdfrwt>
<pdfrwt beam="2">  1       -4 0.81130174E-02 0.12500995E+03</pdfrwt>
<totfact> 0.10410718E+04</totfact>
</mgrwt>
</event>
<event>
 5    1  0.3294152E-002  0.1249862E+03  0.7818608E-02  0.1235091E+00
          4   -1    0    0  501    0  0.00000000000E+00  0.00000000000E+00  0.89425560203E+02  0.89434577864E+02  0.12700000000E+01 0. -1.
         -4   -1    0    0    0  501 -0.00000000000E+00 -0.00000000000E+00 -0.43651456267E+02  0.43669927115E+02  0.12700000000E+01 0. -1.
         25    2    1    2    0    0  0.00000000000E+00  0.00000000000E+00  0.45774103936E+02  0.13310450498E+03  0.12498616185E+03 0.  0.
    9000005    1    3    3    0    0 -0.52128042565E+02 -0.21101460897E+02 -0.61176618473E+01  0.56577648061E+02  0.10000000000E+01 0.  0.
    9000005    1    3    3    0    0  0.52128042565E+02  0.21101460897E+02  0.51891765783E+02  0.76526856918E+02  0.10000000000E+01 0.  0.
<mgrwt>
<rscale>  0 0.12498616E+03</rscale>
<asrwt>0</asrwt>
<pdfrwt beam="1">  1        4 0.13759893E-01 0.12498616E+03</pdfrwt>
<pdfrwt beam="2">  1       -4 0.67177232E-02 0.12498616E+03</pdfrwt>
<totfact> 0.10281388E+04</totfact>
</mgrwt>
</event>
<event>
 5    1  0.3294152E-002  0.1250002E+03  0.7818608E-02  0.1235069E+00
         -4   -1    0    0    0  501 -0.00000000000E+00  0.00000000000E+00  0.55326595644E+02  0.55341169896E+02  0.12700000000E+01 0.  1.
          4   -1    0    0  501    0  0.00000000000E+00 -0.00000000000E+00 -0.70574084802E+02  0.70585510876E+02  0.12700000000E+01 0.  1.
         25    2    1    2    0    0  0.00000000000E+00  0.00000000000E+00 -0.15247489158E+02  0.12592668077E+03  0.12500017202E+03 0.  0.
    9000005    1    3    3    0    0  0.25741806732E+02  0.30767157304E+02  0.40648033085E+02  0.57118483664E+02  0.10000000000E+01 0.  0.
    9000005    1    3    3    0    0 -0.25741806732E+02 -0.30767157304E+02 -0.55895522243E+02  0.68808197108E+02  0.10000000000E+01 0.  0.
<mgrwt>
<rscale>  0 0.12500017E+03</rscale>
<asrwt>0</asrwt>
<pdfrwt beam="2">  1        4 0.10859552E-01 0.12500017E+03</pdfrwt>
<pdfrwt beam="1">  1       -4 0.85137840E-02 0.12500017E+03</pdfrwt>
<totfact> 0.10432524E+04</totfact>
</mgrwt>
</event>
<event>
 5    1  0.3294152E-002  0.1249886E+03  0.7818608E-02  0.1235087E+00
          4   -1    0    0  501    0  0.00000000000E+00  0.00000000000E+00  0.26118267928E+03  0.26118576695E+03  0.12700000000E+01 0.  1.
         -4   -1    0    0    0  501 -0.00000000000E+00 -0.00000000000E+00 -0.14923124140E+02  0.14977066939E+02  0.12700000000E+01 0.  1.
         25    2    1    2    0    0  0.00000000000E+00  0.00000000000E+00  0.24625955514E+03  0.27616283389E+03  0.12498856877E+03 0.  0.
    9000005    1    3    3    0    0 -0.50447330774E+02 -0.56412073354E+01  0.42618287850E+02  0.66287818351E+02  0.10000000000E+01 0.  0.
    9000005    1    3    3    0    0  0.50447330774E+02  0.56412073354E+01  0.20364126729E+03  0.20987501553E+03  0.10000000000E+01 0.  0.
<mgrwt>
<rscale>  0 0.12498857E+03</rscale>
<asrwt>0</asrwt>
<pdfrwt beam="1">  1        4 0.40186337E-01 0.12498857E+03</pdfrwt>
<pdfrwt beam="2">  1       -4 0.23002522E-02 0.12498857E+03</pdfrwt>
<totfact> 0.78709654E+03</totfact>
</mgrwt>
</event>
<event>
 5    1  0.3294152E-002  0.1249973E+03  0.7818608E-02  0.1235074E+00
          4   -1    0    0  501    0  0.00000000000E+00  0.00000000000E+00  0.46920716289E+02  0.46937900647E+02  0.12700000000E+01 0.  1.
         -4   -1    0    0    0  501 -0.00000000000E+00 -0.00000000000E+00 -0.83211261252E+02  0.83220952284E+02  0.12700000000E+01 0.  1.
         25    2    1    2    0    0  0.00000000000E+00  0.00000000000E+00 -0.36290544962E+02  0.13015885293E+03  0.12499729334E+03 0.  0.
    9000005    1    3    3    0    0 -0.39996179339E+02 -0.99156095070E+01 -0.67064645041E+02  0.78718995726E+02  0.10000000000E+01 0.  0.
    9000005    1    3    3    0    0  0.39996179339E+02  0.99156095070E+01  0.30774100079E+02  0.51439857205E+02  0.10000000000E+01 0.  0.
<mgrwt>
<rscale>  0 0.12499729E+03</rscale>
<asrwt>0</asrwt>
<pdfrwt beam="1">  1        4 0.72206391E-02 0.12499729E+03</pdfrwt>
<pdfrwt beam="2">  1       -4 0.12803800E-01 0.12499729E+03</pdfrwt>
<totfact> 0.10341742E+04</totfact>
</mgrwt>
</event>
<event>
 5    1  0.3294152E-002  0.1249957E+03  0.7818608E-02  0.1235076E+00
          4   -1    0    0  501    0  0.00000000000E+00  0.00000000000E+00  0.14114630021E+02  0.14171650597E+02  0.12700000000E+01 0. -1.
         -4   -1    0    0    0  501 -0.00000000000E+00 -0.00000000000E+00 -0.27611648542E+03  0.27611940610E+03  0.12700000000E+01 0. -1.
         25    2    1    2    0    0  0.00000000000E+00  0.00000000000E+00 -0.26200185540E+03  0.29029105669E+03  0.12499570137E+03 0.  0.
    9000005    1    3    3    0    0  0.73239588130E+01 -0.48426096583E+02 -0.22113473264E+03  0.22649568910E+03  0.10000000000E+01 0.  0.
    9000005    1    3    3    0    0 -0.73239588130E+01  0.48426096583E+02 -0.40867122763E+02  0.63795367589E+02  0.10000000000E+01 0.  0.
<mgrwt>
<rscale>  0 0.12499570E+03</rscale>
<asrwt>0</asrwt>
<pdfrwt beam="1">  1        4 0.21760926E-02 0.12499570E+03</pdfrwt>
<pdfrwt beam="2">  1       -4 0.42484066E-01 0.12499570E+03</pdfrwt>
<totfact> 0.76840416E+03</totfact>
</mgrwt>
</event>
<event>
 4    1  0.3294152E-002  0.1250731E+03  0.7818608E-02  0.1234955E+00
         -4   -1    0    0    0  501 -0.00000000000E+00  0.00000000000E+00  0.53328601085E+02  0.53343721221E+02  0.12700000000E+01 0. -1.
          4   -1    0    0  501    0  0.00000000000E+00 -0.00000000000E+00 -0.73303405186E+02  0.73314405896E+02  0.12700000000E+01 0. -1.
    9000005    1    1    2    0    0  0.11382852422E+02  0.50671895868E+02 -0.45251267766E+02  0.68890402775E+02  0.10000000000E+01 0.  0.
    9000005    1    1    2    0    0 -0.11382852422E+02 -0.50671895868E+02  0.25276463665E+02  0.57767724341E+02  0.10000000000E+01 0.  0.
<mgrwt>
<rscale>  0 0.12507313E+03</rscale>
<asrwt>0</asrwt>
<pdfrwt beam="2">  1        4 0.11279456E-01 0.12507313E+03</pdfrwt>
<pdfrwt beam="1">  1       -4 0.82064095E-02 0.12507313E+03</pdfrwt>
<totfact> 0.10399406E+04</totfact>
</mgrwt>
</event>
<event>
 5    1  0.3294152E-002  0.1250011E+03  0.7818608E-02  0.1235068E+00
         -4   -1    0    0    0  501 -0.00000000000E+00  0.00000000000E+00  0.89835657123E+01  0.90728910997E+01  0.12700000000E+01 0.  1.
          4   -1    0    0  501    0  0.00000000000E+00 -0.00000000000E+00 -0.43258781196E+03  0.43258967620E+03  0.12700000000E+01 0.  1.
         25    2    1    2    0    0  0.00000000000E+00  0.00000000000E+00 -0.42360424624E+03  0.44166256730E+03  0.12500106366E+03 0.  0.
    9000005    1    3    3    0    0  0.12995708418E+01 -0.42373676673E+02 -0.37402884689E+03  0.37642501998E+03  0.10000000000E+01 0.  0.
    9000005    1    3    3    0    0 -0.12995708418E+01  0.42373676673E+02 -0.49575399353E+02  0.65237547319E+02  0.10000000000E+01 0.  0.
<mgrwt>
<rscale>  0 0.12500106E+03</rscale>
<asrwt>0</asrwt>
<pdfrwt beam="2">  1        4 0.66558969E-01 0.12500106E+03</pdfrwt>
<pdfrwt beam="1">  1       -4 0.13891020E-02 0.12500106E+03</pdfrwt>
<totfact> 0.60691477E+03</totfact>
</mgrwt>
</event>
<event>
 5    1  0.3294152E-002  0.1250031E+03  0.7818608E-02  0.1235065E+00
         -4   -1    0    0    0  501 -0.00000000000E+00  0.00000000000E+00  0.15223942373E+03  0.15224472089E+03  0.12700000000E+01 0. -1.
          4   -1    0    0  501    0  0.00000000000E+00 -0.00000000000E+00 -0.25638390940E+02  0.25669826450E+02  0.12700000000E+01 0. -1.
         25    2    1    2    0    0  0.00000000000E+00  0.00000000000E+00  0.12660103279E+03  0.17791454734E+03  0.12500305856E+03 0.  0.
    9000005    1    3    3    0    0  0.43045386057E+02  0.28362619259E+02  0.13018218425E+02  0.53177226733E+02  0.10000000000E+01 0.  0.
    9000005    1    3    3    0    0 -0.43045386057E+02 -0.28362619259E+02  0.11358281437E+03  0.12473732060E+03  0.10000000000E+01 0.  0.
<mgrwt>
<rscale>  0 0.12500306E+03</rscale>
<asrwt>0</asrwt>
<pdfrwt beam="2">  1        4 0.39471934E-02 0.12500306E+03</pdfrwt>
<pdfrwt beam="1">  1       -4 0.23424275E-01 0.12500306E+03</pdfrwt>
<totfact> 0.93987297E+03</totfact>
</mgrwt>
</event>
<event>
 5    1  0.3294152E-002  0.1250035E+03  0.7818608E-02  0.1235064E+00
          4   -1    0    0  501    0  0.00000000000E+00  0.00000000000E+00  0.92209798969E+03  0.92209886428E+03  0.12700000000E+01 0. -1.
         -4   -1    0    0    0  501 -0.00000000000E+00 -0.00000000000E+00 -0.41404258901E+01  0.43308228492E+01  0.12700000000E+01 0. -1.
         25    2    1    2    0    0  0.00000000000E+00  0.00000000000E+00  0.91795756380E+03  0.92642968712E+03  0.12500350491E+03 0.  0.
    9000005    1    3    3    0    0  0.41913371679E+02 -0.42383787586E+02  0.31986210698E+03  0.32537037919E+03  0.10000000000E+01 0.  0.
    9000005    1    3    3    0    0 -0.41913371679E+02  0.42383787586E+02  0.59809545682E+03  0.60105930793E+03  0.10000000000E+01 0.  0.
<mgrwt>
<rscale>  0 0.12500350E+03</rscale>
<asrwt>0</asrwt>
<pdfrwt beam="1">  1        4 0.14187586E+00 0.12500350E+03</pdfrwt>
<pdfrwt beam="2">  1       -4 0.65170219E-03 0.12500350E+03</pdfrwt>
<totfact> 0.33165346E+03</totfact>
</mgrwt>
</event>
<event>
 5    1  0.3294152E-002  0.1249972E+03  0.7818608E-02  0.1235074E+00
         -4   -1    0    0    0  501 -0.00000000000E+00  0.00000000000E+00  0.85231172898E+03  0.85231267517E+03  0.12700000000E+01 0.  1.
          4   -1    0    0  501    0  0.00000000000E+00 -0.00000000000E+00 -0.44939677021E+01  0.46699727738E+01  0.12700000000E+01 0.  1.
         25    2    1    2    0    0  0.00000000000E+00  0.00000000000E+00  0.84781776128E+03  0.85698264795E+03  0.12499721013E+03 0.  0.
    9000005    1    3    3    0    0  0.61163519710E+01  0.46191892603E+02  0.70940033684E+03  0.71092962986E+03  0.10000000000E+01 0.  0.
    9000005    1    3    3    0    0 -0.61163519710E+01 -0.46191892603E+02  0.13841742444E+03  0.14605301809E+03  0.10000000000E+01 0.  0.
<mgrwt>
<rscale>  0 0.12499721E+03</rscale>
<asrwt>0</asrwt>
<pdfrwt beam="2">  1        4 0.70499109E-03 0.12499721E+03</pdfrwt>
<pdfrwt beam="1">  1       -4 0.13113853E+00 0.12499721E+03</pdfrwt>
<totfact> 0.35845452E+03</totfact>
</mgrwt>
</event>
<event>
 5    1  0.3294152E-002  0.1249996E+03  0.7818608E-02  0.1235070E+00
          4   -1    0    0  501    0  0.00000000000E+00  0.00000000000E+00  0.81008545513E+02  0.81018500024E+02  0.12700000000E+01 0. -1.
         -4   -1    0    0    0  501 -0.00000000000E+00 -0.00000000000E+00 -0.48198605757E+02  0.48215334665E+02  0.12700000000E+01 0. -1.
         25    2    1    2    0    0  0.00000000000E+00  0.00000000000E+00  0.32809939756E+02  0.12923383469E+03  0.12499956753E+03 0.  0.
    9000005    1    3    3    0    0 -0.60054541257E+02 -0.26661047650E+00  0.34270483434E+02  0.69152621364E+02  0.10000000000E+01 0.  0.
    9000005    1    3    3    0    0  0.60054541257E+02  0.26661047650E+00 -0.14605436775E+01  0.60081213325E+02  0.10000000000E+01 0.  0.
<mgrwt>
<rscale>  0 0.12499957E+03</rscale>
<asrwt>0</asrwt>
<pdfrwt beam="1">  1        4 0.12464905E-01 0.12499957E+03</pdfrwt>
<pdfrwt beam="2">  1       -4 0.74172228E-02 0.12499957E+03</pdfrwt>
<totfact> 0.10361026E+04</totfact>
</mgrwt>
</event>
<event>
 5    1  0.3294152E-002  0.1249994E+03  0.7818608E-02  0.1235070E+00
         -4   -1    0    0    0  501 -0.00000000000E+00  0.00000000000E+00  0.70532392767E+02  0.70543825594E+02  0.12700000000E+01 0.  1.
          4   -1    0    0  501    0  0.00000000000E+00 -0.00000000000E+00 -0.55358627133E+02  0.55373192955E+02  0.12700000000E+01 0.  1.
         25    2    1    2    0    0  0.00000000000E+00  0.00000000000E+00  0.15173765634E+02  0.12591701855E+03  0.12499940959E+03 0.  0.
    9000005    1    3    3    0    0 -0.25928928758E+02  0.52775157655E+02 -0.13727043656E+02  0.60390051660E+02  0.10000000000E+01 0.  0.
    9000005    1    3    3    0    0  0.25928928758E+02 -0.52775157655E+02  0.28900809289E+02  0.65526966888E+02  0.10000000000E+01 0.  0.
<mgrwt>
<rscale>  0 0.12499941E+03</rscale>
<asrwt>0</asrwt>
<pdfrwt beam="2">  1        4 0.85187118E-02 0.12499941E+03</pdfrwt>
<pdfrwt beam="1">  1       -4 0.10853137E-01 0.12499941E+03</pdfrwt>
<totfact> 0.10432915E+04</totfact>
</mgrwt>
</event>
<event>
 5    1  0.3294152E-002  0.1250032E+03  0.7818608E-02  0.1235064E+00
         -4   -1    0    0    0  501 -0.00000000000E+00  0.00000000000E+00  0.26712941051E+03  0.26713242944E+03  0.12700000000E+01 0.  1.
          4   -1    0    0  501    0  0.00000000000E+00 -0.00000000000E+00 -0.14593130681E+02  0.14648288742E+02  0.12700000000E+01 0.  1.
         25    2    1    2    0    0  0.00000000000E+00  0.00000000000E+00  0.25253627983E+03  0.28178071819E+03  0.12500320200E+03 0.  0.
    9000005    1    3    3    0    0  0.22770441178E+02 -0.56394193725E+02  0.93863291589E+02  0.11184862800E+03  0.10000000000E+01 0.  0.
    9000005    1    3    3    0    0 -0.22770441178E+02  0.56394193725E+02  0.15867298824E+03  0.16993209019E+03  0.10000000000E+01 0.  0.
<mgrwt>
<rscale>  0 0.12500320E+03</rscale>
<asrwt>0</asrwt>
<pdfrwt beam="2">  1        4 0.22495723E-02 0.12500320E+03</pdfrwt>
<pdfrwt beam="1">  1       -4 0.41101305E-01 0.12500320E+03</pdfrwt>
<totfact> 0.77937040E+03</totfact>
</mgrwt>
</event>
<event>
 5    1  0.3294152E-002  0.1249757E+03  0.7818608E-02  0.1235107E+00
         -4   -1    0    0    0  501 -0.00000000000E+00  0.00000000000E+00  0.11746284179E+04  0.11746291045E+04  0.12700000000E+01 0.  1.
          4   -1    0    0  501    0  0.00000000000E+00 -0.00000000000E+00 -0.32022151382E+01  0.34448631020E+01  0.12700000000E+01 0.  1.
         25    2    1    2    0    0  0.00000000000E+00  0.00000000000E+00  0.11714262028E+04  0.11780739676E+04  0.12497569573E+03 0.  0.
    9000005    1    3    3    0    0 -0.22376242854E+02  0.29252577341E+02  0.10614741534E+04  0.10621133592E+04  0.10000000000E+01 0.  0.
    9000005    1    3    3    0    0  0.22376242854E+02 -0.29252577341E+02  0.10995204943E+03  0.11596060839E+03  0.10000000000E+01 0.  0.
<mgrwt>
<rscale>  0 0.12497570E+03</rscale>
<asrwt>0</asrwt>
<pdfrwt beam="2">  1        4 0.51136628E-03 0.12497570E+03</pdfrwt>
<pdfrwt beam="1">  1       -4 0.18073087E+00 0.12497570E+03</pdfrwt>
<totfact> 0.25307382E+03</totfact>
</mgrwt>
</event>
<event>
 5    1  0.3294152E-002  0.1249928E+03  0.7818608E-02  0.1235081E+00
          4   -1    0    0  501    0  0.00000000000E+00  0.00000000000E+00  0.64183673415E+02  0.64196236907E+02  0.12700000000E+01 0.  1.
         -4   -1    0    0    0  501 -0.00000000000E+00 -0.00000000000E+00 -0.60828290372E+02  0.60841546739E+02  0.12700000000E+01 0.  1.
         25    2    1    2    0    0  0.00000000000E+00  0.00000000000E+00  0.33553830432E+01  0.12503778365E+03  0.12499275477E+03 0.  0.
    9000005    1    3    3    0    0 -0.35956530942E+02  0.36673412186E+02  0.37285260098E+02  0.63474419251E+02  0.10000000000E+01 0.  0.
    9000005    1    3    3    0    0  0.35956530942E+02 -0.36673412186E+02 -0.33929877055E+02  0.61563364395E+02  0.10000000000E+01 0.  0.
<mgrwt>
<rscale>  0 0.12499275E+03</rscale>
<asrwt>0</asrwt>
<pdfrwt beam="1">  1        4 0.98763974E-02 0.12499275E+03</pdfrwt>
<pdfrwt beam="2">  1       -4 0.93601847E-02 0.12499275E+03</pdfrwt>
<totfact> 0.10453754E+04</totfact>
</mgrwt>
</event>
<event>
 5    1  0.3294152E-002  0.1249997E+03  0.7818608E-02  0.1235070E+00
          4   -1    0    0  501    0  0.00000000000E+00  0.00000000000E+00  0.31659139163E+03  0.31659393891E+03  0.12700000000E+01 0.  1.
         -4   -1    0    0    0  501 -0.00000000000E+00 -0.00000000000E+00 -0.12303124703E+02  0.12368499402E+02  0.12700000000E+01 0.  1.
         25    2    1    2    0    0  0.00000000000E+00  0.00000000000E+00  0.30428826693E+03  0.32896243831E+03  0.12499974572E+03 0.  0.
    9000005    1    3    3    0    0 -0.37972935958E+02  0.33685906183E+02  0.56220387791E+02  0.75752334248E+02  0.10000000000E+01 0.  0.
    9000005    1    3    3    0    0  0.37972935958E+02 -0.33685906183E+02  0.24806787914E+03  0.25321010406E+03  0.10000000000E+01 0.  0.
<mgrwt>
<rscale>  0 0.12499975E+03</rscale>
<asrwt>0</asrwt>
<pdfrwt beam="1">  1        4 0.48711590E-01 0.12499975E+03</pdfrwt>
<pdfrwt beam="2">  1       -4 0.18980133E-02 0.12499975E+03</pdfrwt>
<totfact> 0.72103097E+03</totfact>
</mgrwt>
</event>
<event>
 5    1  0.3294152E-002  0.1249969E+03  0.7818608E-02  0.1235074E+00
          4   -1    0    0  501    0  0.00000000000E+00  0.00000000000E+00  0.46006112618E+02  0.46023638472E+02  0.12700000000E+01 0. -1.
         -4   -1    0    0    0  501 -0.00000000000E+00 -0.00000000000E+00 -0.84864559162E+02  0.84874061419E+02  0.12700000000E+01 0. -1.
         25    2    1    2    0    0  0.00000000000E+00  0.00000000000E+00 -0.38858446544E+02  0.13089769989E+03  0.12499691584E+03 0.  0.
    9000005    1    3    3    0    0 -0.50091848846E+02  0.37356733419E+02 -0.20038397149E+02  0.65629690026E+02  0.10000000000E+01 0.  0.
    9000005    1    3    3    0    0  0.50091848846E+02 -0.37356733419E+02 -0.18820049395E+02  0.65268009865E+02  0.10000000000E+01 0.  0.
<mgrwt>
<rscale>  0 0.12499692E+03</rscale>
<asrwt>0</asrwt>
<pdfrwt beam="1">  1        4 0.70799425E-02 0.12499692E+03</pdfrwt>
<pdfrwt beam="2">  1       -4 0.13058165E-01 0.12499692E+03</pdfrwt>
<totfact> 0.10326001E+04</totfact>
</mgrwt>
</event>
<event>
 5    1  0.3294152E-002  0.1249889E+03  0.7818608E-02  0.1235087E+00
         -4   -1    0    0    0  501 -0.00000000000E+00  0.00000000000E+00  0.17099744479E+03  0.17100216088E+03  0.12700000000E+01 0. -1.
          4   -1    0    0  501    0  0.00000000000E+00 -0.00000000000E+00 -0.22817172089E+02  0.22852488752E+02  0.12700000000E+01 0. -1.
         25    2    1    2    0    0  0.00000000000E+00  0.00000000000E+00  0.14818027270E+03  0.19385464963E+03  0.12498892737E+03 0.  0.
    9000005    1    3    3    0    0 -0.40453787566E+02  0.25313628606E+02  0.11524712283E+02  0.49103031625E+02  0.10000000000E+01 0.  0.
    9000005    1    3    3    0    0  0.40453787566E+02 -0.25313628606E+02  0.13665556042E+03  0.14475161800E+03  0.10000000000E+01 0.  0.
<mgrwt>
<rscale>  0 0.12498893E+03</rscale>
<asrwt>0</asrwt>
<pdfrwt beam="2">  1        4 0.35134136E-02 0.12498893E+03</pdfrwt>
<pdfrwt beam="1">  1       -4 0.26310378E-01 0.12498893E+03</pdfrwt>
<totfact> 0.91203521E+03</totfact>
</mgrwt>
</event>
<event>
 5    1  0.3294152E-002  0.1250013E+03  0.7818608E-02  0.1235067E+00
          4   -1    0    0  501    0  0.00000000000E+00  0.00000000000E+00  0.13882231451E+02  0.13940202655E+02  0.12700000000E+01 0. -1.
         -4   -1    0    0    0  501 -0.00000000000E+00 -0.00000000000E+00 -0.28074479822E+03  0.28074767074E+03  0.12700000000E+01 0. -1.
         25    2    1    2    0    0  0.00000000000E+00  0.00000000000E+00 -0.26686256676E+03  0.29468787339E+03  0.12500125273E+03 0.  0.
    9000005    1    3    3    0    0 -0.50358362347E+01 -0.22280681580E+02 -0.27056162217E+03  0.27152602051E+03  0.10000000000E+01 0.  0.
    9000005    1    3    3    0    0  0.50358362347E+01  0.22280681580E+02  0.36990554094E+01  0.23161852887E+02  0.10000000000E+01 0.  0.
<mgrwt>
<rscale>  0 0.12500125E+03</rscale>
<asrwt>0</asrwt>
<pdfrwt beam="1">  1        4 0.21404084E-02 0.12500125E+03</pdfrwt>
<pdfrwt beam="2">  1       -4 0.43196183E-01 0.12500125E+03</pdfrwt>
<totfact> 0.76267930E+03</totfact>
</mgrwt>
</event>
<event>
 5    1  0.3294152E-002  0.1250001E+03  0.7818608E-02  0.1235069E+00
         -4   -1    0    0    0  501 -0.00000000000E+00  0.00000000000E+00  0.75845138030E+03  0.75845244358E+03  0.12700000000E+01 0.  1.
          4   -1    0    0  501    0  0.00000000000E+00 -0.00000000000E+00 -0.50709286494E+01  0.52275441047E+01  0.12700000000E+01 0.  1.
         25    2    1    2    0    0  0.00000000000E+00  0.00000000000E+00  0.75338045165E+03  0.76367998769E+03  0.12500007467E+03 0.  0.
    9000005    1    3    3    0    0  0.58020067696E+02  0.14224930494E+02  0.48877428428E+03  0.49241240630E+03  0.10000000000E+01 0.  0.
    9000005    1    3    3    0    0 -0.58020067696E+02 -0.14224930494E+02  0.26460616737E+03  0.27126758139E+03  0.10000000000E+01 0.  0.
<mgrwt>
<rscale>  0 0.12500007E+03</rscale>
<asrwt>0</asrwt>
<pdfrwt beam="2">  1        4 0.79227222E-03 0.12500007E+03</pdfrwt>
<pdfrwt beam="1">  1       -4 0.11669693E+00 0.12500007E+03</pdfrwt>
<totfact> 0.39928159E+03</totfact>
</mgrwt>
</event>
<event>
 5    1  0.3294152E-002  0.1249846E+03  0.7818608E-02  0.1235093E+00
         -4   -1    0    0    0  501 -0.00000000000E+00  0.00000000000E+00  0.76006297816E+02  0.76016907381E+02  0.12700000000E+01 0.  1.
          4   -1    0    0  501    0  0.00000000000E+00 -0.00000000000E+00 -0.51359045614E+02  0.51374745414E+02  0.12700000000E+01 0.  1.
         25    2    1    2    0    0  0.00000000000E+00  0.00000000000E+00  0.24647252202E+02  0.12739165279E+03  0.12498458369E+03 0.  0.
    9000005    1    3    3    0    0 -0.53838412233E+02 -0.19968148039E+02  0.37435174572E+02  0.68554313235E+02  0.10000000000E+01 0.  0.
    9000005    1    3    3    0    0  0.53838412233E+02  0.19968148039E+02 -0.12787922370E+02  0.58837339560E+02  0.10000000000E+01 0.  0.
<mgrwt>
<rscale>  0 0.12498458E+03</rscale>
<asrwt>0</asrwt>
<pdfrwt beam="2">  1        4 0.79034155E-02 0.12498458E+03</pdfrwt>
<pdfrwt beam="1">  1       -4 0.11695300E-01 0.12498458E+03</pdfrwt>
<totfact> 0.10404268E+04</totfact>
</mgrwt>
</event>
<event>
 5    1  0.3294152E-002  0.1250022E+03  0.7818608E-02  0.1235066E+00
          4   -1    0    0  501    0  0.00000000000E+00  0.00000000000E+00  0.51056261719E+03  0.51056419672E+03  0.12700000000E+01 0. -1.
         -4   -1    0    0    0  501 -0.00000000000E+00 -0.00000000000E+00 -0.75968394740E+01  0.77022639525E+01  0.12700000000E+01 0. -1.
         25    2    1    2    0    0  0.00000000000E+00  0.00000000000E+00  0.50296577772E+03  0.51826646067E+03  0.12500220280E+03 0.  0.
    9000005    1    3    3    0    0  0.53545245093E+02  0.99011646289E+01  0.12434946916E+03  0.13575314660E+03  0.10000000000E+01 0.  0.
    9000005    1    3    3    0    0 -0.53545245093E+02 -0.99011646289E+01  0.37861630856E+03  0.38251331407E+03  0.10000000000E+01 0.  0.
<mgrwt>
<rscale>  0 0.12500220E+03</rscale>
<asrwt>0</asrwt>
<pdfrwt beam="1">  1        4 0.78556327E-01 0.12500220E+03</pdfrwt>
<pdfrwt beam="2">  1       -4 0.11769756E-02 0.12500220E+03</pdfrwt>
<totfact> 0.54471814E+03</totfact>
</mgrwt>
</event>
<event>
 5    1  0.3294152E-002  0.1250010E+03  0.7818608E-02  0.1235068E+00
         -4   -1    0    0    0  501 -0.00000000000E+00  0.00000000000E+00  0.29576646743E+02  0.29603900631E+02  0.12700000000E+01 0. -1.
          4   -1    0    0  501    0  0.00000000000E+00 -0.00000000000E+00 -0.13198305232E+03  0.13198916244E+03  0.12700000000E+01 0. -1.
         25    2    1    2    0    0  0.00000000000E+00  0.00000000000E+00 -0.10240640558E+03  0.16159306307E+03  0.12500098451E+03 0.  0.
    9000005    1    3    3    0    0  0.24660923643E+02 -0.20190831138E+01  0.22980755686E+02  0.33783916047E+02  0.10000000000E+01 0.  0.
    9000005    1    3    3    0    0 -0.24660923643E+02  0.20190831138E+01 -0.12538716127E+03  0.12780914702E+03  0.10000000000E+01 0.  0.
<mgrwt>
<rscale>  0 0.12500098E+03</rscale>
<asrwt>0</asrwt>
<pdfrwt beam="2">  1        4 0.20307651E-01 0.12500098E+03</pdfrwt>
<pdfrwt beam="1">  1       -4 0.45528199E-02 0.12500098E+03</pdfrwt>
<totfact> 0.97034385E+03</totfact>
</mgrwt>
</event>
<event>
 5    1  0.3294152E-002  0.1250029E+03  0.7818608E-02  0.1235065E+00
         -4   -1    0    0    0  501 -0.00000000000E+00  0.00000000000E+00  0.29534828718E+02  0.29562121158E+02  0.12700000000E+01 0.  1.
          4   -1    0    0  501    0  0.00000000000E+00 -0.00000000000E+00 -0.13217384611E+03  0.13217994740E+03  0.12700000000E+01 0.  1.
         25    2    1    2    0    0  0.00000000000E+00  0.00000000000E+00 -0.10263901739E+03  0.16174206856E+03  0.12500291537E+03 0.  0.
    9000005    1    3    3    0    0 -0.26266191244E+02  0.35740983961E+02 -0.10828227964E+03  0.11701872850E+03  0.10000000000E+01 0.  0.
    9000005    1    3    3    0    0  0.26266191244E+02 -0.35740983961E+02  0.56432622470E+01  0.44723340056E+02  0.10000000000E+01 0.  0.
<mgrwt>
<rscale>  0 0.12500292E+03</rscale>
<asrwt>0</asrwt>
<pdfrwt beam="2">  1        4 0.20337006E-01 0.12500292E+03</pdfrwt>
<pdfrwt beam="1">  1       -4 0.45463886E-02 0.12500292E+03</pdfrwt>
<totfact> 0.97001620E+03</totfact>
</mgrwt>
</event>
<event>
 5    1  0.3294152E-002  0.1249997E+03  0.7818608E-02  0.1235070E+00
          4   -1    0    0  501    0  0.00000000000E+00  0.00000000000E+00  0.29394464252E+03  0.29394738605E+03  0.12700000000E+01 0.  1.
         -4   -1    0    0    0  501 -0.00000000000E+00 -0.00000000000E+00 -0.13255837611E+02  0.13316535990E+02  0.12700000000E+01 0.  1.
         25    2    1    2    0    0  0.00000000000E+00  0.00000000000E+00  0.28068880491E+03  0.30726392204E+03  0.12499965034E+03 0.  0.
    9000005    1    3    3    0    0  0.31177878795E+02 -0.18206232676E+02  0.14963476486E+02  0.39095174421E+02  0.10000000000E+01 0.  0.
    9000005    1    3    3    0    0 -0.31177878795E+02  0.18206232676E+02  0.26572532842E+03  0.26816874762E+03  0.10000000000E+01 0.  0.
<mgrwt>
<rscale>  0 0.12499965E+03</rscale>
<asrwt>0</asrwt>
<pdfrwt beam="1">  1        4 0.45227133E-01 0.12499965E+03</pdfrwt>
<pdfrwt beam="2">  1       -4 0.20442398E-02 0.12499965E+03</pdfrwt>
<totfact> 0.74697185E+03</totfact>
</mgrwt>
</event>
<event>
 5    1  0.3294152E-002  0.1249999E+03  0.7818608E-02  0.1235069E+00
         -4   -1    0    0    0  501 -0.00000000000E+00  0.00000000000E+00  0.75597147618E+02  0.75607814596E+02  0.12700000000E+01 0.  1.
          4   -1    0    0  501    0  0.00000000000E+00 -0.00000000000E+00 -0.51649722984E+02  0.51665334455E+02  0.12700000000E+01 0.  1.
         25    2    1    2    0    0  0.00000000000E+00  0.00000000000E+00  0.23947424634E+02  0.12727314905E+03  0.12499990129E+03 0.  0.
    9000005    1    3    3    0    0 -0.15024783260E+02  0.42839187798E+02  0.55700073660E+02  0.71864026668E+02  0.10000000000E+01 0.  0.
    9000005    1    3    3    0    0  0.15024783260E+02 -0.42839187798E+02 -0.31752649026E+02  0.55409122384E+02  0.10000000000E+01 0.  0.
<mgrwt>
<rscale>  0 0.12499990E+03</rscale>
<asrwt>0</asrwt>
<pdfrwt beam="2">  1        4 0.79481327E-02 0.12499990E+03</pdfrwt>
<pdfrwt beam="1">  1       -4 0.11632352E-01 0.12499990E+03</pdfrwt>
<totfact> 0.10403240E+04</totfact>
</mgrwt>
</event>
<event>
 4    1  0.3294152E-002  0.1249163E+03  0.7818608E-02  0.1235200E+00
         -4   -1    0    0    0  501 -0.00000000000E+00  0.00000000000E+00  0.64941215082E+02  0.64953632048E+02  0.12700000000E+01 0. -1.
          4   -1    0    0  501    0  0.00000000000E+00 -0.00000000000E+00 -0.60045134667E+02  0.60058563896E+02  0.12700000000E+01 0. -1.
    9000005    1    1    2    0    0  0.64985368588E+01  0.54917619330E+02 -0.26588777147E+02  0.61368876186E+02  0.10000000000E+01 0.  0.
    9000005    1    1    2    0    0 -0.64985368588E+01 -0.54917619330E+02  0.31484857562E+02  0.63643319758E+02  0.10000000000E+01 0.  0.
<mgrwt>
<rscale>  0 0.12491628E+03</rscale>
<asrwt>0</asrwt>
<pdfrwt beam="2">  1        4 0.92397012E-02 0.12491628E+03</pdfrwt>
<pdfrwt beam="1">  1       -4 0.99929444E-02 0.12491628E+03</pdfrwt>
<totfact> 0.10472399E+04</totfact>
</mgrwt>
</event>
<event>
 5    1  0.3294152E-002  0.1249997E+03  0.7818608E-02  0.1235070E+00
         -4   -1    0    0    0  501 -0.00000000000E+00  0.00000000000E+00  0.22421663153E+03  0.22422022824E+03  0.12700000000E+01 0. -1.
          4   -1    0    0  501    0  0.00000000000E+00 -0.00000000000E+00 -0.17394803318E+02  0.17441103247E+02  0.12700000000E+01 0. -1.
         25    2    1    2    0    0  0.00000000000E+00  0.00000000000E+00  0.20682182821E+03  0.24166133149E+03  0.12499972206E+03 0.  0.
    9000005    1    3    3    0    0 -0.43720452496E+02 -0.40140817323E+02  0.14122002724E+03  0.15318896590E+03  0.10000000000E+01 0.  0.
    9000005    1    3    3    0    0  0.43720452496E+02  0.40140817323E+02  0.65601800973E+02  0.88472365588E+02  0.10000000000E+01 0.  0.
<mgrwt>
<rscale>  0 0.12499972E+03</rscale>
<asrwt>0</asrwt>
<pdfrwt beam="2">  1        4 0.26799619E-02 0.12499972E+03</pdfrwt>
<pdfrwt beam="1">  1       -4 0.34498703E-01 0.12499972E+03</pdfrwt>
<totfact> 0.83551081E+03</totfact>
</mgrwt>
</event>
<event>
 5    1  0.3294152E-002  0.1250047E+03  0.7818608E-02  0.1235062E+00
         -4   -1    0    0    0  501 -0.00000000000E+00  0.00000000000E+00  0.16335295189E+03  0.16335788867E+03  0.12700000000E+01 0.  1.
          4   -1    0    0  501    0  0.00000000000E+00 -0.00000000000E+00 -0.23892561423E+02  0.23926290798E+02  0.12700000000E+01 0.  1.
         25    2    1    2    0    0  0.00000000000E+00  0.00000000000E+00  0.13946039046E+03  0.18728417947E+03  0.12500465339E+03 0.  0.
    9000005    1    3    3    0    0 -0.74327951927E+01 -0.24589196485E+02 -0.15624381483E+02  0.30083156830E+02  0.10000000000E+01 0.  0.
    9000005    1    3    3    0    0  0.74327951927E+01  0.24589196485E+02  0.15508477195E+03  0.15720102264E+03  0.10000000000E+01 0.  0.
<mgrwt>
<rscale>  0 0.12500465E+03</rscale>
<asrwt>0</asrwt>
<pdfrwt beam="2">  1        4 0.36787530E-02 0.12500465E+03</pdfrwt>
<pdfrwt beam="1">  1       -4 0.25134198E-01 0.12500465E+03</pdfrwt>
<totfact> 0.92312392E+03</totfact>
</mgrwt>
</event>
<event>
 5    1  0.3294152E-002  0.1250009E+03  0.7818608E-02  0.1235068E+00
         -4   -1    0    0    0  501 -0.00000000000E+00  0.00000000000E+00  0.47789624590E+03  0.47789793340E+03  0.12700000000E+01 0.  1.
          4   -1    0    0  501    0  0.00000000000E+00 -0.00000000000E+00 -0.81229199112E+01  0.82216012968E+01  0.12700000000E+01 0.  1.
         25    2    1    2    0    0  0.00000000000E+00  0.00000000000E+00  0.46977332599E+03  0.48611953470E+03  0.12500089680E+03 0.  0.
    9000005    1    3    3    0    0  0.58800351871E+02  0.86755236831E+01  0.30995002865E+03  0.31559905949E+03  0.10000000000E+01 0.  0.
    9000005    1    3    3    0    0 -0.58800351871E+02 -0.86755236831E+01  0.15982329735E+03  0.17052047521E+03  0.10000000000E+01 0.  0.
<mgrwt>
<rscale>  0 0.12500090E+03</rscale>
<asrwt>0</asrwt>
<pdfrwt beam="2">  1        4 0.12574005E-02 0.12500090E+03</pdfrwt>
<pdfrwt beam="1">  1       -4 0.73530228E-01 0.12500090E+03</pdfrwt>
<totfact> 0.56956506E+03</totfact>
</mgrwt>
</event>
<event>
 5    1  0.3294152E-002  0.1250087E+03  0.7818608E-02  0.1235056E+00
          4   -1    0    0  501    0  0.00000000000E+00  0.00000000000E+00  0.57785665785E+03  0.57785805344E+03  0.12700000000E+01 0. -1.
         -4   -1    0    0    0  501 -0.00000000000E+00 -0.00000000000E+00 -0.66997746733E+01  0.68190820990E+01  0.12700000000E+01 0. -1.
         25    2    1    2    0    0  0.00000000000E+00  0.00000000000E+00  0.57115688318E+03  0.58467713554E+03  0.12500867017E+03 0.  0.
    9000005    1    3    3    0    0  0.89762890633E+01 -0.13040143873E+02  0.28106557316E+01  0.16109590411E+02  0.10000000000E+01 0.  0.
    9000005    1    3    3    0    0 -0.89762890633E+01  0.13040143873E+02  0.56834622745E+03  0.56856754513E+03  0.10000000000E+01 0.  0.
<mgrwt>
<rscale>  0 0.12500867E+03</rscale>
<asrwt>0</asrwt>
<pdfrwt beam="1">  1        4 0.88910263E-01 0.12500867E+03</pdfrwt>
<pdfrwt beam="2">  1       -4 0.10400200E-02 0.12500867E+03</pdfrwt>
<totfact> 0.49839882E+03</totfact>
</mgrwt>
</event>
<event>
 5    1  0.3294152E-002  0.1249907E+03  0.7818608E-02  0.1235084E+00
          4   -1    0    0  501    0  0.00000000000E+00  0.00000000000E+00  0.11189001589E+02  0.11260846174E+02  0.12700000000E+01 0.  1.
         -4   -1    0    0    0  501 -0.00000000000E+00 -0.00000000000E+00 -0.34787335474E+03  0.34787567296E+03  0.12700000000E+01 0.  1.
         25    2    1    2    0    0  0.00000000000E+00  0.00000000000E+00 -0.33668435315E+03  0.35913651914E+03  0.12499074254E+03 0.  0.
    9000005    1    3    3    0    0 -0.52088644548E+02  0.25467170413E+02 -0.10139554194E+03  0.11680693295E+03  0.10000000000E+01 0.  0.
    9000005    1    3    3    0    0  0.52088644548E+02 -0.25467170413E+02 -0.23528881122E+03  0.24232958619E+03  0.10000000000E+01 0.  0.
<mgrwt>
<rscale>  0 0.12499074E+03</rscale>
<asrwt>0</asrwt>
<pdfrwt beam="1">  1        4 0.17270900E-02 0.12499074E+03</pdfrwt>
<pdfrwt beam="2">  1       -4 0.53524674E-01 0.12499074E+03</pdfrwt>
<totfact> 0.68745066E+03</totfact>
</mgrwt>
</event>
<event>
 5    1  0.3294152E-002  0.1249996E+03  0.7818608E-02  0.1235070E+00
          4   -1    0    0  501    0  0.00000000000E+00  0.00000000000E+00  0.86404927106E+01  0.87333277897E+01  0.12700000000E+01 0.  1.
         -4   -1    0    0    0  501 -0.00000000000E+00 -0.00000000000E+00 -0.44957395357E+03  0.44957574737E+03  0.12700000000E+01 0.  1.
         25    2    1    2    0    0  0.00000000000E+00  0.00000000000E+00 -0.44093346086E+03  0.45830907516E+03  0.12499956589E+03 0.  0.
    9000005    1    3    3    0    0  0.46971020302E+02 -0.39246701513E+02 -0.17428610819E+03  0.18472473532E+03  0.10000000000E+01 0.  0.
    9000005    1    3    3    0    0 -0.46971020302E+02  0.39246701513E+02 -0.26664735266E+03  0.27358433985E+03  0.10000000000E+01 0.  0.
<mgrwt>
<rscale>  0 0.12499957E+03</rscale>
<asrwt>0</asrwt>
<pdfrwt beam="1">  1        4 0.13365861E-02 0.12499957E+03</pdfrwt>
<pdfrwt beam="2">  1       -4 0.69172485E-01 0.12499957E+03</pdfrwt>
<totfact> 0.59251254E+03</totfact>
</mgrwt>
</event>
<event>
 5    1  0.3294152E-002  0.1249982E+03  0.7818608E-02  0.1235072E+00
          4   -1    0    0  501    0  0.00000000000E+00  0.00000000000E+00  0.11105059406E+01  0.16870457742E+01  0.12700000000E+01 0.  1.
         -4   -1    0    0    0  501 -0.00000000000E+00 -0.00000000000E+00 -0.27919611266E+04  0.27919614154E+04  0.12700000000E+01 0.  1.
         25    2    1    2    0    0  0.00000000000E+00  0.00000000000E+00 -0.27908506206E+04  0.27936484612E+04  0.12499815218E+03 0.  0.
    9000005    1    3    3    0    0 -0.12223929810E+02 -0.61239354510E+02 -0.13432426007E+04  0.13446937820E+04  0.10000000000E+01 0.  0.
    9000005    1    3    3    0    0  0.12223929810E+02  0.61239354510E+02 -0.14476080199E+04  0.14489546792E+04  0.10000000000E+01 0.  0.
<mgrwt>
<rscale>  0 0.12499815E+03</rscale>
<asrwt>0</asrwt>
<pdfrwt beam="1">  1        4 0.21522074E-03 0.12499815E+03</pdfrwt>
<pdfrwt beam="2">  1       -4 0.42957239E+00 0.12499815E+03</pdfrwt>
<totfact> 0.27514427E+02</totfact>
</mgrwt>
</event>
<event>
 5    1  0.3294152E-002  0.1250012E+03  0.7818608E-02  0.1235067E+00
         -4   -1    0    0    0  501 -0.00000000000E+00  0.00000000000E+00  0.41556287122E+02  0.41575688802E+02  0.12700000000E+01 0.  1.
          4   -1    0    0  501    0  0.00000000000E+00 -0.00000000000E+00 -0.93955114862E+02  0.93963697824E+02  0.12700000000E+01 0.  1.
         25    2    1    2    0    0  0.00000000000E+00  0.00000000000E+00 -0.52398827740E+02  0.13553938663E+03  0.12500115271E+03 0.  0.
    9000005    1    3    3    0    0 -0.47820718945E+01 -0.45375719727E+01  0.41183533162E+02  0.41719793560E+02  0.10000000000E+01 0.  0.
    9000005    1    3    3    0    0  0.47820718945E+01  0.45375719727E+01 -0.93582360902E+02  0.93819593065E+02  0.10000000000E+01 0.  0.
<mgrwt>
<rscale>  0 0.12500115E+03</rscale>
<asrwt>0</asrwt>
<pdfrwt beam="2">  1        4 0.14456786E-01 0.12500115E+03</pdfrwt>
<pdfrwt beam="1">  1       -4 0.63954276E-02 0.12500115E+03</pdfrwt>
<totfact> 0.10226449E+04</totfact>
</mgrwt>
</event>
<event>
 5    1  0.3294152E-002  0.1250110E+03  0.7818608E-02  0.1235052E+00
          4   -1    0    0  501    0  0.00000000000E+00  0.00000000000E+00  0.87403925771E+01  0.88321776704E+01  0.12700000000E+01 0. -1.
         -4   -1    0    0    0  501 -0.00000000000E+00 -0.00000000000E+00 -0.44457024350E+03  0.44457205749E+03  0.12700000000E+01 0. -1.
         25    2    1    2    0    0  0.00000000000E+00  0.00000000000E+00 -0.43582985092E+03  0.45340423517E+03  0.12501096556E+03 0.  0.
    9000005    1    3    3    0    0  0.23909536994E+02 -0.31364384088E+02 -0.39375656809E+03  0.39572796902E+03  0.10000000000E+01 0.  0.
    9000005    1    3    3    0    0 -0.23909536994E+02  0.31364384088E+02 -0.42073282832E+02  0.57676266147E+02  0.10000000000E+01 0.  0.
<mgrwt>
<rscale>  0 0.12501097E+03</rscale>
<asrwt>0</asrwt>
<pdfrwt beam="1">  1        4 0.13518761E-02 0.12501097E+03</pdfrwt>
<pdfrwt beam="2">  1       -4 0.68402604E-01 0.12501097E+03</pdfrwt>
<totfact> 0.59655616E+03</totfact>
</mgrwt>
</event>
<event>
 5    1  0.3294152E-002  0.1249998E+03  0.7818608E-02  0.1235070E+00
          4   -1    0    0  501    0  0.00000000000E+00  0.00000000000E+00  0.20511023068E+04  0.20511026999E+04  0.12700000000E+01 0.  1.
         -4   -1    0    0    0  501 -0.00000000000E+00 -0.00000000000E+00 -0.16922949050E+01  0.21158360158E+01  0.12700000000E+01 0.  1.
         25    2    1    2    0    0  0.00000000000E+00  0.00000000000E+00  0.20494100118E+04  0.20532185359E+04  0.12499983878E+03 0.  0.
    9000005    1    3    3    0    0 -0.37889992142E+02  0.45809315809E+02  0.13411281762E+04  0.13424455036E+04  0.10000000000E+01 0.  0.
    9000005    1    3    3    0    0  0.37889992142E+02 -0.45809315809E+02  0.70828183560E+03  0.71077303238E+03  0.10000000000E+01 0.  0.
<mgrwt>
<rscale>  0 0.12499984E+03</rscale>
<asrwt>0</asrwt>
<pdfrwt beam="1">  1        4 0.31558701E+00 0.12499984E+03</pdfrwt>
<pdfrwt beam="2">  1       -4 0.29296321E-03 0.12499984E+03</pdfrwt>
<totfact> 0.91825286E+02</totfact>
</mgrwt>
</event>
<event>
 5    1  0.3294152E-002  0.1249825E+03  0.7818608E-02  0.1235097E+00
          4   -1    0    0  501    0  0.00000000000E+00  0.00000000000E+00  0.45313373385E+03  0.45313551356E+03  0.12700000000E+01 0. -1.
         -4   -1    0    0    0  501 -0.00000000000E+00 -0.00000000000E+00 -0.85695202400E+01  0.86631159027E+01  0.12700000000E+01 0. -1.
         25    2    1    2    0    0  0.00000000000E+00  0.00000000000E+00  0.44456421361E+03  0.46179862946E+03  0.12498253540E+03 0.  0.
    9000005    1    3    3    0    0  0.27292293758E+02  0.15210132008E+02  0.22349108504E+02  0.38427855329E+02  0.10000000000E+01 0.  0.
    9000005    1    3    3    0    0 -0.27292293758E+02 -0.15210132008E+02  0.42221510510E+03  0.42337077413E+03  0.10000000000E+01 0.  0.
<mgrwt>
<rscale>  0 0.12498254E+03</rscale>
<asrwt>0</asrwt>
<pdfrwt beam="1">  1        4 0.69720218E-01 0.12498254E+03</pdfrwt>
<pdfrwt beam="2">  1       -4 0.13257243E-02 0.12498254E+03</pdfrwt>
<totfact> 0.58977810E+03</totfact>
</mgrwt>
</event>
<event>
 5    1  0.3294152E-002  0.1250007E+03  0.7818608E-02  0.1235068E+00
         -4   -1    0    0    0  501 -0.00000000000E+00  0.00000000000E+00  0.97692454556E+03  0.97692537106E+03  0.12700000000E+01 0. -1.
          4   -1    0    0  501    0  0.00000000000E+00 -0.00000000000E+00 -0.38968708629E+01  0.40985976287E+01  0.12700000000E+01 0. -1.
         25    2    1    2    0    0  0.00000000000E+00  0.00000000000E+00  0.97302767470E+03  0.98102396869E+03  0.12500068565E+03 0.  0.
    9000005    1    3    3    0    0  0.47625096585E+01  0.36012273465E+01  0.97471931310E+03  0.97473811337E+03  0.10000000000E+01 0.  0.
    9000005    1    3    3    0    0 -0.47625096585E+01 -0.36012273465E+01 -0.16916383943E+01  0.62858553202E+01  0.10000000000E+01 0.  0.
<mgrwt>
<rscale>  0 0.12500069E+03</rscale>
<asrwt>0</asrwt>
<pdfrwt beam="2">  1        4 0.61509855E-03 0.12500069E+03</pdfrwt>
<pdfrwt beam="1">  1       -4 0.15031191E+00 0.12500069E+03</pdfrwt>
<totfact> 0.31238943E+03</totfact>
</mgrwt>
</event>
<event>
 5    1  0.3294152E-002  0.1250012E+03  0.7818608E-02  0.1235067E+00
          4   -1    0    0  501    0  0.00000000000E+00  0.00000000000E+00  0.56316696310E+02  0.56331014400E+02  0.12700000000E+01 0.  1.
         -4   -1    0    0    0  501 -0.00000000000E+00 -0.00000000000E+00 -0.69334636869E+02  0.69346267166E+02  0.12700000000E+01 0.  1.
         25    2    1    2    0    0  0.00000000000E+00  0.00000000000E+00 -0.13017940559E+02  0.12567728157E+03  0.12500124929E+03 0.  0.
    9000005    1    3    3    0    0 -0.48316100433E+02  0.60086931289E+00 -0.46353101759E+02  0.66965787143E+02  0.10000000000E+01 0.  0.
    9000005    1    3    3    0    0  0.48316100433E+02 -0.60086931289E+00  0.33335161201E+02  0.58711494422E+02  0.10000000000E+01 0.  0.
<mgrwt>
<rscale>  0 0.12500125E+03</rscale>
<asrwt>0</asrwt>
<pdfrwt beam="1">  1        4 0.86661032E-02 0.12500125E+03</pdfrwt>
<pdfrwt beam="2">  1       -4 0.10668863E-01 0.12500125E+03</pdfrwt>
<totfact> 0.10437750E+04</totfact>
</mgrwt>
</event>
<event>
 5    1  0.3294152E-002  0.1249947E+03  0.7818608E-02  0.1235078E+00
         -4   -1    0    0    0  501 -0.00000000000E+00  0.00000000000E+00  0.60022766976E+02  0.60036201208E+02  0.12700000000E+01 0. -1.
          4   -1    0    0  501    0  0.00000000000E+00 -0.00000000000E+00 -0.65047031118E+02  0.65059427890E+02  0.12700000000E+01 0. -1.
         25    2    1    2    0    0  0.00000000000E+00  0.00000000000E+00 -0.50242641424E+01  0.12509562910E+03  0.12499469264E+03 0.  0.
    9000005    1    3    3    0    0 -0.49946619282E+02  0.15567145626E+02  0.31690272897E+02  0.61174130127E+02  0.10000000000E+01 0.  0.
    9000005    1    3    3    0    0  0.49946619282E+02 -0.15567145626E+02 -0.36714537039E+02  0.63921498970E+02  0.10000000000E+01 0.  0.
<mgrwt>
<rscale>  0 0.12499469E+03</rscale>
<asrwt>0</asrwt>
<pdfrwt beam="2">  1        4 0.10009223E-01 0.12499469E+03</pdfrwt>
<pdfrwt beam="1">  1       -4 0.92362588E-02 0.12499469E+03</pdfrwt>
<totfact> 0.10452040E+04</totfact>
</mgrwt>
</event>
<event>
 5    1  0.3294152E-002  0.1250007E+03  0.7818608E-02  0.1235068E+00
          4   -1    0    0  501    0  0.00000000000E+00  0.00000000000E+00  0.45637347946E+01  0.47371484329E+01  0.12700000000E+01 0. -1.
         -4   -1    0    0    0  501 -0.00000000000E+00 -0.00000000000E+00 -0.83980982283E+03  0.83981078311E+03  0.12700000000E+01 0. -1.
         25    2    1    2    0    0  0.00000000000E+00  0.00000000000E+00 -0.83524608803E+03  0.84454793154E+03  0.12500072435E+03 0.  0.
    9000005    1    3    3    0    0 -0.45913009351E+02 -0.41252695755E+02 -0.48365086404E+03  0.48757455597E+03  0.10000000000E+01 0.  0.
    9000005    1    3    3    0    0  0.45913009351E+02  0.41252695755E+02 -0.35159522399E+03  0.35697337557E+03  0.10000000000E+01 0.  0.
<mgrwt>
<rscale>  0 0.12500072E+03</rscale>
<asrwt>0</asrwt>
<pdfrwt beam="1">  1        4 0.71552709E-03 0.12500072E+03</pdfrwt>
<pdfrwt beam="2">  1       -4 0.12921480E+00 0.12500072E+03</pdfrwt>
<totfact> 0.36350928E+03</totfact>
</mgrwt>
</event>
<event>
 4    1  0.3294152E-002  0.1249376E+03  0.7818608E-02  0.1235167E+00
          4   -1    0    0  501    0  0.00000000000E+00  0.00000000000E+00  0.10141267579E+03  0.10142062764E+03  0.12700000000E+01 0.  1.
         -4   -1    0    0    0  501 -0.00000000000E+00 -0.00000000000E+00 -0.38459972909E+02  0.38480935749E+02  0.12700000000E+01 0.  1.
    9000005    1    1    2    0    0 -0.33901226104E+02  0.20693502625E+02 -0.22503567405E+02  0.45660975989E+02  0.10000000000E+01 0.  0.
    9000005    1    1    2    0    0  0.33901226104E+02 -0.20693502625E+02  0.85456270286E+02  0.94240587400E+02  0.10000000000E+01 0.  0.
<mgrwt>
<rscale>  0 0.12493760E+03</rscale>
<asrwt>0</asrwt>
<pdfrwt beam="1">  1        4 0.15604174E-01 0.12493760E+03</pdfrwt>
<pdfrwt beam="2">  1       -4 0.59191431E-02 0.12493760E+03</pdfrwt>
<totfact> 0.10149888E+04</totfact>
</mgrwt>
</event>
<event>
 5    1  0.3294152E-002  0.1250026E+03  0.7818608E-02  0.1235065E+00
         -4   -1    0    0    0  501 -0.00000000000E+00  0.00000000000E+00  0.17129028876E+02  0.17176045244E+02  0.12700000000E+01 0. -1.
          4   -1    0    0  501    0  0.00000000000E+00 -0.00000000000E+00 -0.22769656165E+03  0.22770010340E+03  0.12700000000E+01 0. -1.
         25    2    1    2    0    0  0.00000000000E+00  0.00000000000E+00 -0.21056753278E+03  0.24487614864E+03  0.12500256923E+03 0.  0.
    9000005    1    3    3    0    0  0.33035869070E+02  0.52523353985E+02 -0.90710930886E+02  0.10990698040E+03  0.10000000000E+01 0.  0.
    9000005    1    3    3    0    0 -0.33035869070E+02 -0.52523353985E+02 -0.11985660189E+03  0.13496916824E+03  0.10000000000E+01 0.  0.
<mgrwt>
<rscale>  0 0.12500257E+03</rscale>
<asrwt>0</asrwt>
<pdfrwt beam="2">  1        4 0.35034127E-01 0.12500257E+03</pdfrwt>
<pdfrwt beam="1">  1       -4 0.26391245E-02 0.12500257E+03</pdfrwt>
<totfact> 0.83071714E+03</totfact>
</mgrwt>
</event>
<event>
 5    1  0.3294152E-002  0.1250177E+03  0.7818608E-02  0.1235042E+00
         -4   -1    0    0    0  501 -0.00000000000E+00  0.00000000000E+00  0.79793968232E+02  0.79804074246E+02  0.12700000000E+01 0.  1.
          4   -1    0    0  501    0  0.00000000000E+00 -0.00000000000E+00 -0.48946622442E+02  0.48963095781E+02  0.12700000000E+01 0.  1.
         25    2    1    2    0    0  0.00000000000E+00  0.00000000000E+00  0.30847345790E+02  0.12876717003E+03  0.12501770008E+03 0.  0.
    9000005    1    3    3    0    0 -0.56457847814E+01  0.84938838686E+01  0.78936121522E+02  0.79598569271E+02  0.10000000000E+01 0.  0.
    9000005    1    3    3    0    0  0.56457847814E+01 -0.84938838686E+01 -0.48088775732E+02  0.49168600756E+02  0.10000000000E+01 0.  0.
<mgrwt>
<rscale>  0 0.12501770E+03</rscale>
<asrwt>0</asrwt>
<pdfrwt beam="2">  1        4 0.75322942E-02 0.12501770E+03</pdfrwt>
<pdfrwt beam="1">  1       -4 0.12278040E-01 0.12501770E+03</pdfrwt>
<totfact> 0.10366810E+04</totfact>
</mgrwt>
</event>
<event>
 5    1  0.3294152E-002  0.1250019E+03  0.7818608E-02  0.1235066E+00
          4   -1    0    0  501    0  0.00000000000E+00  0.00000000000E+00  0.64850672810E+02  0.64863107109E+02  0.12700000000E+01 0.  1.
         -4   -1    0    0    0  501 -0.00000000000E+00 -0.00000000000E+00 -0.60211430513E+02  0.60224822660E+02  0.12700000000E+01 0.  1.
         25    2    1    2    0    0  0.00000000000E+00  0.00000000000E+00  0.46392422967E+01  0.12508792977E+03  0.12500187041E+03 0.  0.
    9000005    1    3    3    0    0  0.30076682362E+02  0.64699280012E+01  0.56752843627E+02  0.64562776040E+02  0.10000000000E+01 0.  0.
    9000005    1    3    3    0    0 -0.30076682362E+02 -0.64699280012E+01 -0.52113601331E+02  0.60525153729E+02  0.10000000000E+01 0.  0.
<mgrwt>
<rscale>  0 0.12500187E+03</rscale>
<asrwt>0</asrwt>
<pdfrwt beam="1">  1        4 0.99790132E-02 0.12500187E+03</pdfrwt>
<pdfrwt beam="2">  1       -4 0.92652837E-02 0.12500187E+03</pdfrwt>
<totfact> 0.10450511E+04</totfact>
</mgrwt>
</event>
<event>
 5    1  0.3294152E-002  0.1249990E+03  0.7818608E-02  0.1235071E+00
          4   -1    0    0  501    0  0.00000000000E+00  0.00000000000E+00  0.29122033279E+03  0.29122310199E+03  0.12700000000E+01 0.  1.
         -4   -1    0    0    0  501 -0.00000000000E+00 -0.00000000000E+00 -0.13380262198E+02  0.13440398673E+02  0.12700000000E+01 0.  1.
         25    2    1    2    0    0  0.00000000000E+00  0.00000000000E+00  0.27784007059E+03  0.30466350066E+03  0.12499897522E+03 0.  0.
    9000005    1    3    3    0    0  0.53703350044E+02  0.27955269604E+02  0.10118951732E+03  0.11792313310E+03  0.10000000000E+01 0.  0.
    9000005    1    3    3    0    0 -0.53703350044E+02 -0.27955269604E+02  0.17665055327E+03  0.18674036756E+03  0.10000000000E+01 0.  0.
<mgrwt>
<rscale>  0 0.12499898E+03</rscale>
<asrwt>0</asrwt>
<pdfrwt beam="1">  1        4 0.44807965E-01 0.12499898E+03</pdfrwt>
<pdfrwt beam="2">  1       -4 0.20633409E-02 0.12499898E+03</pdfrwt>
<totfact> 0.75019263E+03</totfact>
</mgrwt>
</event>
<event>
 5    1  0.3294152E-002  0.1250032E+03  0.7818608E-02  0.1235064E+00
         -4   -1    0    0    0  501 -0.00000000000E+00  0.00000000000E+00  0.34953413007E+03  0.34953643727E+03  0.12700000000E+01 0. -1.
          4   -1    0    0  501    0  0.00000000000E+00 -0.00000000000E+00 -0.11137732192E+02  0.11209905369E+02  0.12700000000E+01 0. -1.
         25    2    1    2    0    0  0.00000000000E+00  0.00000000000E+00  0.33839639787E+03  0.36074634264E+03  0.12500320650E+03 0.  0.
    9000005    1    3    3    0    0 -0.58678174843E+02 -0.21308751884E+02  0.17749197644E+03  0.18815311002E+03  0.10000000000E+01 0.  0.
    9000005    1    3    3    0    0  0.58678174843E+02  0.21308751884E+02  0.16090442144E+03  0.17259323262E+03  0.10000000000E+01 0.  0.
<mgrwt>
<rscale>  0 0.12500321E+03</rscale>
<asrwt>0</asrwt>
<pdfrwt beam="2">  1        4 0.17192266E-02 0.12500321E+03</pdfrwt>
<pdfrwt beam="1">  1       -4 0.53780209E-01 0.12500321E+03</pdfrwt>
<totfact> 0.68553422E+03</totfact>
</mgrwt>
</event>
<event>
 5    1  0.3294152E-002  0.1250002E+03  0.7818608E-02  0.1235069E+00
          4   -1    0    0  501    0  0.00000000000E+00  0.00000000000E+00  0.30796041691E+02  0.30822217374E+02  0.12700000000E+01 0. -1.
         -4   -1    0    0    0  501 -0.00000000000E+00 -0.00000000000E+00 -0.12675971727E+03  0.12676607915E+03  0.12700000000E+01 0. -1.
         25    2    1    2    0    0  0.00000000000E+00  0.00000000000E+00 -0.95963675583E+02  0.15758829652E+03  0.12500017668E+03 0.  0.
    9000005    1    3    3    0    0  0.56245202828E+02  0.14462282669E+02 -0.77076009512E+02  0.96511096272E+02  0.10000000000E+01 0.  0.
    9000005    1    3    3    0    0 -0.56245202828E+02 -0.14462282669E+02 -0.18887666070E+02  0.61077200253E+02  0.10000000000E+01 0.  0.
<mgrwt>
<rscale>  0 0.12500018E+03</rscale>
<asrwt>0</asrwt>
<pdfrwt beam="1">  1        4 0.47403555E-02 0.12500018E+03</pdfrwt>
<pdfrwt beam="2">  1       -4 0.19503998E-01 0.12500018E+03</pdfrwt>
<totfact> 0.97809379E+03</totfact>
</mgrwt>
</event>
<event>
 5    1  0.3294152E-002  0.1249993E+03  0.7818608E-02  0.1235070E+00
         -4   -1    0    0    0  501 -0.00000000000E+00  0.00000000000E+00  0.15987234421E+03  0.15987738847E+03  0.12700000000E+01 0. -1.
          4   -1    0    0  501    0  0.00000000000E+00 -0.00000000000E+00 -0.24411363392E+02  0.24444376912E+02  0.12700000000E+01 0. -1.
         25    2    1    2    0    0  0.00000000000E+00  0.00000000000E+00  0.13546098082E+03  0.18432176538E+03  0.12499934347E+03 0.  0.
    9000005    1    3    3    0    0 -0.88958644974E+01  0.14688563604E+02  0.15633210934E+03  0.15727561387E+03  0.10000000000E+01 0.  0.
    9000005    1    3    3    0    0  0.88958644974E+01 -0.14688563604E+02 -0.20871128523E+02  0.27046151514E+02  0.10000000000E+01 0.  0.
<mgrwt>
<rscale>  0 0.12499934E+03</rscale>
<asrwt>0</asrwt>
<pdfrwt beam="2">  1        4 0.37585217E-02 0.12499934E+03</pdfrwt>
<pdfrwt beam="1">  1       -4 0.24598674E-01 0.12499934E+03</pdfrwt>
<totfact> 0.92846170E+03</totfact>
</mgrwt>
</event>
<event>
 5    1  0.3294152E-002  0.1250012E+03  0.7818608E-02  0.1235067E+00
          4   -1    0    0  501    0  0.00000000000E+00  0.00000000000E+00  0.30234942908E+02  0.30261603934E+02  0.12700000000E+01 0.  1.
         -4   -1    0    0    0  501 -0.00000000000E+00 -0.00000000000E+00 -0.12911234097E+03  0.12911858693E+03  0.12700000000E+01 0.  1.
         25    2    1    2    0    0  0.00000000000E+00  0.00000000000E+00 -0.98877398064E+02  0.15938019087E+03  0.12500122156E+03 0.  0.
    9000005    1    3    3    0    0  0.54111915435E+02 -0.19553720325E+02 -0.18340560330E+02  0.60397214537E+02  0.10000000000E+01 0.  0.
    9000005    1    3    3    0    0 -0.54111915435E+02  0.19553720325E+02 -0.80536837734E+02  0.98982976328E+02  0.10000000000E+01 0.  0.
<mgrwt>
<rscale>  0 0.12500122E+03</rscale>
<asrwt>0</asrwt>
<pdfrwt beam="1">  1        4 0.46540610E-02 0.12500122E+03</pdfrwt>
<pdfrwt beam="2">  1       -4 0.19865968E-01 0.12500122E+03</pdfrwt>
<totfact> 0.97459736E+03</totfact>
</mgrwt>
</event>
<event>
 5    1  0.3294152E-002  0.1249995E+03  0.7818608E-02  0.1235070E+00
         -4   -1    0    0    0  501 -0.00000000000E+00  0.00000000000E+00  0.16450625820E+02  0.16499575445E+02  0.12700000000E+01 0.  1.
          4   -1    0    0  501    0  0.00000000000E+00 -0.00000000000E+00 -0.23704775493E+03  0.23705115696E+03  0.12700000000E+01 0.  1.
         25    2    1    2    0    0  0.00000000000E+00  0.00000000000E+00 -0.22059712911E+03  0.25355073240E+03  0.12499952213E+03 0.  0.
    9000005    1    3    3    0    0  0.38405987459E+02 -0.25501051241E+02 -0.19587494411E+03  0.20122951378E+03  0.10000000000E+01 0.  0.
    9000005    1    3    3    0    0 -0.38405987459E+02  0.25501051241E+02 -0.24722184996E+02  0.52321218622E+02  0.10000000000E+01 0.  0.
<mgrwt>
<rscale>  0 0.12499952E+03</rscale>
<asrwt>0</asrwt>
<pdfrwt beam="2">  1        4 0.36472910E-01 0.12499952E+03</pdfrwt>
<pdfrwt beam="1">  1       -4 0.25348927E-02 0.12499952E+03</pdfrwt>
<totfact> 0.81820602E+03</totfact>
</mgrwt>
</event>
<event>
 5    1  0.3294152E-002  0.1249819E+03  0.7818608E-02  0.1235098E+00
         -4   -1    0    0    0  501 -0.00000000000E+00  0.00000000000E+00  0.57806441167E+03  0.57806580676E+03  0.12700000000E+01 0. -1.
          4   -1    0    0  501    0  0.00000000000E+00 -0.00000000000E+00 -0.66944083362E+01  0.68138097252E+01  0.12700000000E+01 0. -1.
         25    2    1    2    0    0  0.00000000000E+00  0.00000000000E+00  0.57137000334E+03  0.58487961648E+03  0.12498193895E+03 0.  0.
    9000005    1    3    3    0    0  0.14210031044E+02  0.11224628755E+02  0.56553826147E+03  0.56582898694E+03  0.10000000000E+01 0.  0.
    9000005    1    3    3    0    0 -0.14210031044E+02 -0.11224628755E+02  0.58317418700E+01  0.19050629548E+02  0.10000000000E+01 0.  0.
<mgrwt>
<rscale>  0 0.12498194E+03</rscale>
<asrwt>0</asrwt>
<pdfrwt beam="2">  1        4 0.10392008E-02 0.12498194E+03</pdfrwt>
<pdfrwt beam="1">  1       -4 0.88942293E-01 0.12498194E+03</pdfrwt>
<totfact> 0.49855920E+03</totfact>
</mgrwt>
</event>
<event>
 5    1  0.3294152E-002  0.1250009E+03  0.7818608E-02  0.1235068E+00
         -4   -1    0    0    0  501 -0.00000000000E+00  0.00000000000E+00  0.15456970818E+03  0.15457492548E+03  0.12700000000E+01 0. -1.
          4   -1    0    0  501    0  0.00000000000E+00 -0.00000000000E+00 -0.25250513294E+02  0.25282431086E+02  0.12700000000E+01 0. -1.
         25    2    1    2    0    0  0.00000000000E+00  0.00000000000E+00  0.12931919488E+03  0.17985735656E+03  0.12500085817E+03 0.  0.
    9000005    1    3    3    0    0  0.91276980179E+01  0.48620451049E+02  0.11960103340E+03  0.12943210699E+03  0.10000000000E+01 0.  0.
    9000005    1    3    3    0    0 -0.91276980179E+01 -0.48620451049E+02  0.97181614864E+01  0.50425249568E+02  0.10000000000E+01 0.  0.
<mgrwt>
<rscale>  0 0.12500086E+03</rscale>
<asrwt>0</asrwt>
<pdfrwt beam="2">  1        4 0.38875510E-02 0.12500086E+03</pdfrwt>
<pdfrwt beam="1">  1       -4 0.23782811E-01 0.12500086E+03</pdfrwt>
<totfact> 0.93640884E+03</totfact>
</mgrwt>
</event>
<event>
 5    1  0.3294152E-002  0.1249995E+03  0.7818608E-02  0.1235070E+00
          4   -1    0    0  501    0  0.00000000000E+00  0.00000000000E+00  0.22764285610E+02  0.22799684193E+02  0.12700000000E+01 0. -1.
         -4   -1    0    0    0  501 -0.00000000000E+00 -0.00000000000E+00 -0.17142315576E+03  0.17142786013E+03  0.12700000000E+01 0. -1.
         25    2    1    2    0    0  0.00000000000E+00  0.00000000000E+00 -0.14865887015E+03  0.19422754433E+03  0.12499951720E+03 0.  0.
    9000005    1    3    3    0    0  0.34806473725E+02 -0.35632239984E+02 -0.15692864522E+02  0.52234214231E+02  0.10000000000E+01 0.  0.
    9000005    1    3    3    0    0 -0.34806473725E+02  0.35632239984E+02 -0.13296600563E+03  0.14199333009E+03  0.10000000000E+01 0.  0.
<mgrwt>
<rscale>  0 0.12499952E+03</rscale>
<asrwt>0</asrwt>
<pdfrwt beam="1">  1        4 0.35052827E-02 0.12499952E+03</pdfrwt>
<pdfrwt beam="2">  1       -4 0.26375877E-01 0.12499952E+03</pdfrwt>
<totfact> 0.91117880E+03</totfact>
</mgrwt>
</event>
<event>
 5    1  0.3294152E-002  0.1250006E+03  0.7818608E-02  0.1235068E+00
          4   -1    0    0  501    0  0.00000000000E+00  0.00000000000E+00  0.36235741908E+03  0.36235964464E+03  0.12700000000E+01 0.  1.
         -4   -1    0    0    0  501 -0.00000000000E+00 -0.00000000000E+00 -0.10740539698E+02  0.10815363748E+02  0.12700000000E+01 0.  1.
         25    2    1    2    0    0  0.00000000000E+00  0.00000000000E+00  0.35161687938E+03  0.37317500839E+03  0.12500062807E+03 0.  0.
    9000005    1    3    3    0    0 -0.71884258622E+01  0.11001138626E+02  0.35820033786E+03  0.35844271587E+03  0.10000000000E+01 0.  0.
    9000005    1    3    3    0    0  0.71884258622E+01 -0.11001138626E+02 -0.65834584734E+01  0.14732292521E+02  0.10000000000E+01 0.  0.
<mgrwt>
<rscale>  0 0.12500063E+03</rscale>
<asrwt>0</asrwt>
<pdfrwt beam="1">  1        4 0.55753223E-01 0.12500063E+03</pdfrwt>
<pdfrwt beam="2">  1       -4 0.16583176E-02 0.12500063E+03</pdfrwt>
<totfact> 0.67247139E+03</totfact>
</mgrwt>
</event>
<event>
 5    1  0.3294152E-002  0.1250084E+03  0.7818608E-02  0.1235056E+00
          4   -1    0    0  501    0  0.00000000000E+00  0.00000000000E+00  0.72260751284E+03  0.72260862886E+03  0.12700000000E+01 0.  1.
         -4   -1    0    0    0  501 -0.00000000000E+00 -0.00000000000E+00 -0.53307749015E+01  0.54799690739E+01  0.12700000000E+01 0.  1.
         25    2    1    2    0    0  0.00000000000E+00  0.00000000000E+00  0.71727673793E+03  0.72808859794E+03  0.12500835038E+03 0.  0.
    9000005    1    3    3    0    0 -0.47297934786E+01  0.44736307539E+02  0.10596331244E+03  0.11512137830E+03  0.10000000000E+01 0.  0.
    9000005    1    3    3    0    0  0.47297934786E+01 -0.44736307539E+02  0.61131342549E+03  0.61296721963E+03  0.10000000000E+01 0.  0.
<mgrwt>
<rscale>  0 0.12500835E+03</rscale>
<asrwt>0</asrwt>
<pdfrwt beam="1">  1        4 0.11118191E+00 0.12500835E+03</pdfrwt>
<pdfrwt beam="2">  1       -4 0.83168183E-03 0.12500835E+03</pdfrwt>
<totfact> 0.41637126E+03</totfact>
</mgrwt>
</event>
<event>
 5    1  0.3294152E-002  0.1249988E+03  0.7818608E-02  0.1235071E+00
         -4   -1    0    0    0  501 -0.00000000000E+00  0.00000000000E+00  0.31185271564E+01  0.33672112534E+01  0.12700000000E+01 0.  1.
          4   -1    0    0  501    0  0.00000000000E+00 -0.00000000000E+00 -0.12042936793E+04  0.12042943489E+04  0.12700000000E+01 0.  1.
         25    2    1    2    0    0  0.00000000000E+00  0.00000000000E+00 -0.12011751521E+04  0.12076615602E+04  0.12499879141E+03 0.  0.
    9000005    1    3    3    0    0  0.25245046605E+01  0.61846846492E+02 -0.51760705863E+03  0.52129595499E+03  0.10000000000E+01 0.  0.
    9000005    1    3    3    0    0 -0.25245046605E+01 -0.61846846492E+02 -0.68356809350E+03  0.68636560519E+03  0.10000000000E+01 0.  0.
<mgrwt>
<rscale>  0 0.12499879E+03</rscale>
<asrwt>0</asrwt>
<pdfrwt beam="2">  1        4 0.18529477E+00 0.12499879E+03</pdfrwt>
<pdfrwt beam="1">  1       -4 0.49895543E-03 0.12499879E+03</pdfrwt>
<totfact> 0.24513791E+03</totfact>
</mgrwt>
</event>
<event>
 5    1  0.3294152E-002  0.1250033E+03  0.7818608E-02  0.1235064E+00
          4   -1    0    0  501    0  0.00000000000E+00  0.00000000000E+00  0.88893842957E+02  0.88902914551E+02  0.12700000000E+01 0. -1.
         -4   -1    0    0    0  501 -0.00000000000E+00 -0.00000000000E+00 -0.43924683485E+02  0.43943039486E+02  0.12700000000E+01 0. -1.
         25    2    1    2    0    0  0.00000000000E+00  0.00000000000E+00  0.44969159472E+02  0.13284595404E+03  0.12500328876E+03 0.  0.
    9000005    1    3    3    0    0 -0.25800158052E+02 -0.48293799136E+02 -0.95304658267E+01  0.55585690329E+02  0.10000000000E+01 0.  0.
    9000005    1    3    3    0    0  0.25800158052E+02  0.48293799136E+02  0.54499625299E+02  0.77260263708E+02  0.10000000000E+01 0.  0.
<mgrwt>
<rscale>  0 0.12500329E+03</rscale>
<asrwt>0</asrwt>
<pdfrwt beam="1">  1        4 0.13678086E-01 0.12500329E+03</pdfrwt>
<pdfrwt beam="2">  1       -4 0.67597535E-02 0.12500329E+03</pdfrwt>
<totfact> 0.10282912E+04</totfact>
</mgrwt>
</event>
<event>
 5    1  0.3294152E-002  0.1249998E+03  0.7818608E-02  0.1235070E+00
          4   -1    0    0  501    0  0.00000000000E+00  0.00000000000E+00  0.26294728111E+01  0.29201074063E+01  0.12700000000E+01 0.  1.
         -4   -1    0    0    0  501 -0.00000000000E+00 -0.00000000000E+00 -0.14074690792E+04  0.14074696522E+04  0.12700000000E+01 0.  1.
         25    2    1    2    0    0  0.00000000000E+00  0.00000000000E+00 -0.14048396064E+04  0.14103897596E+04  0.12499981706E+03 0.  0.
    9000005    1    3    3    0    0  0.50128793581E+02 -0.33318647498E+02 -0.89196650705E+03  0.89399568115E+03  0.10000000000E+01 0.  0.
    9000005    1    3    3    0    0 -0.50128793581E+02  0.33318647498E+02 -0.51287309937E+03  0.51639407847E+03  0.10000000000E+01 0.  0.
<mgrwt>
<rscale>  0 0.12499982E+03</rscale>
<asrwt>0</asrwt>
<pdfrwt beam="1">  1        4 0.42693598E-03 0.12499982E+03</pdfrwt>
<pdfrwt beam="2">  1       -4 0.21655554E+00 0.12499982E+03</pdfrwt>
<totfact> 0.19759216E+03</totfact>
</mgrwt>
</event>
<event>
 5    1  0.3294152E-002  0.1249622E+03  0.7818608E-02  0.1235128E+00
          4   -1    0    0  501    0  0.00000000000E+00  0.00000000000E+00  0.26021321707E+02  0.26052295165E+02  0.12700000000E+01 0.  1.
         -4   -1    0    0    0  501 -0.00000000000E+00 -0.00000000000E+00 -0.14990359652E+03  0.14990897621E+03  0.12700000000E+01 0.  1.
         25    2    1    2    0    0  0.00000000000E+00  0.00000000000E+00 -0.12388227481E+03  0.17596127138E+03  0.12496219833E+03 0.  0.
    9000005    1    3    3    0    0  0.59632865442E+02 -0.14062726485E+02 -0.79132200286E+02  0.10008368518E+03  0.10000000000E+01 0.  0.
    9000005    1    3    3    0    0 -0.59632865442E+02  0.14062726485E+02 -0.44750074523E+02  0.75877586196E+02  0.10000000000E+01 0.  0.
<mgrwt>
<rscale>  0 0.12496220E+03</rscale>
<asrwt>0</asrwt>
<pdfrwt beam="1">  1        4 0.40060767E-02 0.12496220E+03</pdfrwt>
<pdfrwt beam="2">  1       -4 0.23064888E-01 0.12496220E+03</pdfrwt>
<totfact> 0.94429127E+03</totfact>
</mgrwt>
</event>
<event>
 5    1  0.3294152E-002  0.1250017E+03  0.7818608E-02  0.1235067E+00
         -4   -1    0    0    0  501 -0.00000000000E+00  0.00000000000E+00  0.54253466579E+01  0.55720091851E+01  0.12700000000E+01 0. -1.
          4   -1    0    0  501    0  0.00000000000E+00 -0.00000000000E+00 -0.71026983269E+03  0.71027096811E+03  0.12700000000E+01 0. -1.
         25    2    1    2    0    0  0.00000000000E+00  0.00000000000E+00 -0.70484448604E+03  0.71584297729E+03  0.12500167456E+03 0.  0.
    9000005    1    3    3    0    0  0.24624272386E+02 -0.29261555622E+02 -0.63545874437E+03  0.63660930658E+03  0.10000000000E+01 0.  0.
    9000005    1    3    3    0    0 -0.24624272386E+02  0.29261555622E+02 -0.69385741669E+02  0.79233670715E+02  0.10000000000E+01 0.  0.
<mgrwt>
<rscale>  0 0.12500167E+03</rscale>
<asrwt>0</asrwt>
<pdfrwt beam="2">  1        4 0.10928358E+00 0.12500167E+03</pdfrwt>
<pdfrwt beam="1">  1       -4 0.84603835E-03 0.12500167E+03</pdfrwt>
<totfact> 0.42261931E+03</totfact>
</mgrwt>
</event>
<event>
 5    1  0.3294152E-002  0.1250018E+03  0.7818608E-02  0.1235066E+00
          4   -1    0    0  501    0  0.00000000000E+00  0.00000000000E+00  0.13441017866E+02  0.13500883722E+02  0.12700000000E+01 0.  1.
         -4   -1    0    0    0  501 -0.00000000000E+00 -0.00000000000E+00 -0.28992310838E+03  0.28992588997E+03  0.12700000000E+01 0.  1.
         25    2    1    2    0    0  0.00000000000E+00  0.00000000000E+00 -0.27648209051E+03  0.30342677369E+03  0.12500184245E+03 0.  0.
    9000005    1    3    3    0    0 -0.32320474369E+02 -0.36857040038E+02 -0.44156700678E+02  0.65983851650E+02  0.10000000000E+01 0.  0.
    9000005    1    3    3    0    0  0.32320474369E+02  0.36857040038E+02 -0.23232538984E+03  0.23744292204E+03  0.10000000000E+01 0.  0.
<mgrwt>
<rscale>  0 0.12500184E+03</rscale>
<asrwt>0</asrwt>
<pdfrwt beam="1">  1        4 0.20726682E-02 0.12500184E+03</pdfrwt>
<pdfrwt beam="2">  1       -4 0.44608369E-01 0.12500184E+03</pdfrwt>
<totfact> 0.75167920E+03</totfact>
</mgrwt>
</event>
<event>
 5    1  0.3294152E-002  0.1249915E+03  0.7818608E-02  0.1235082E+00
          4   -1    0    0  501    0  0.00000000000E+00  0.00000000000E+00  0.28796321847E+01  0.31472498342E+01  0.12700000000E+01 0.  1.
         -4   -1    0    0    0  501 -0.00000000000E+00 -0.00000000000E+00 -0.12958323396E+04  0.12958329620E+04  0.12700000000E+01 0.  1.
         25    2    1    2    0    0  0.00000000000E+00  0.00000000000E+00 -0.12929527075E+04  0.12989802118E+04  0.12499154760E+03 0.  0.
    9000005    1    3    3    0    0  0.30296970717E+02  0.36587967398E+02 -0.22456772634E+03  0.22953921126E+03  0.10000000000E+01 0.  0.
    9000005    1    3    3    0    0 -0.30296970717E+02 -0.36587967398E+02 -0.10683849811E+04  0.10694410006E+04  0.10000000000E+01 0.  0.
<mgrwt>
<rscale>  0 0.12499155E+03</rscale>
<asrwt>0</asrwt>
<pdfrwt beam="1">  1        4 0.46365522E-03 0.12499155E+03</pdfrwt>
<pdfrwt beam="2">  1       -4 0.19937901E+00 0.12499155E+03</pdfrwt>
<totfact> 0.22256769E+03</totfact>
</mgrwt>
</event>
<event>
 5    1  0.3294152E-002  0.1250010E+03  0.7818608E-02  0.1235068E+00
          4   -1    0    0  501    0  0.00000000000E+00  0.00000000000E+00  0.12366695250E+03  0.12367347348E+03  0.12700000000E+01 0. -1.
         -4   -1    0    0    0  501 -0.00000000000E+00 -0.00000000000E+00 -0.31567221325E+02  0.31592758066E+02  0.12700000000E+01 0. -1.
         25    2    1    2    0    0  0.00000000000E+00  0.00000000000E+00  0.92099731178E+02  0.15526623154E+03  0.12500096869E+03 0.  0.
    9000005    1    3    3    0    0 -0.31875998697E+02  0.53709400571E+02  0.43405712584E+02  0.76064675688E+02  0.10000000000E+01 0.  0.
    9000005    1    3    3    0    0  0.31875998697E+02 -0.53709400571E+02  0.48694018594E+02  0.79201555853E+02  0.10000000000E+01 0.  0.
<mgrwt>
<rscale>  0 0.12500097E+03</rscale>
<asrwt>0</asrwt>
<pdfrwt beam="1">  1        4 0.19028151E-01 0.12500097E+03</pdfrwt>
<pdfrwt beam="2">  1       -4 0.48589615E-02 0.12500097E+03</pdfrwt>
<totfact> 0.98261119E+03</totfact>
</mgrwt>
</event>
<event>
 5    1  0.3294152E-002  0.1249975E+03  0.7818608E-02  0.1235073E+00
          4   -1    0    0  501    0  0.00000000000E+00  0.00000000000E+00  0.30326348194E+03  0.30326614117E+03  0.12700000000E+01 0.  1.
         -4   -1    0    0    0  501 -0.00000000000E+00 -0.00000000000E+00 -0.12846173404E+02  0.12908798206E+02  0.12700000000E+01 0.  1.
         25    2    1    2    0    0  0.00000000000E+00  0.00000000000E+00  0.29041730854E+03  0.31617493937E+03  0.12499751674E+03 0.  0.
    9000005    1    3    3    0    0 -0.48818149247E+02 -0.37928556572E+02  0.16829571396E+03  0.17929370998E+03  0.10000000000E+01 0.  0.
    9000005    1    3    3    0    0  0.48818149247E+02  0.37928556572E+02  0.12212159458E+03  0.13688122940E+03  0.10000000000E+01 0.  0.
<mgrwt>
<rscale>  0 0.12499752E+03</rscale>
<asrwt>0</asrwt>
<pdfrwt beam="1">  1        4 0.46660947E-01 0.12499752E+03</pdfrwt>
<pdfrwt beam="2">  1       -4 0.19813560E-02 0.12499752E+03</pdfrwt>
<totfact> 0.73617434E+03</totfact>
</mgrwt>
</event>
<event>
 5    1  0.3294152E-002  0.1250034E+03  0.7818608E-02  0.1235064E+00
          4   -1    0    0  501    0  0.00000000000E+00  0.00000000000E+00  0.13324985102E+03  0.13325590305E+03  0.12700000000E+01 0.  1.
         -4   -1    0    0    0  501 -0.00000000000E+00 -0.00000000000E+00 -0.29296360197E+02  0.29323874587E+02  0.12700000000E+01 0.  1.
         25    2    1    2    0    0  0.00000000000E+00  0.00000000000E+00  0.10395349082E+03  0.16257977763E+03  0.12500342332E+03 0.  0.
    9000005    1    3    3    0    0  0.93049938676E+01  0.49012264406E+02  0.30236290003E+01  0.49989271903E+02  0.10000000000E+01 0.  0.
    9000005    1    3    3    0    0 -0.93049938676E+01 -0.49012264406E+02  0.10092986182E+03  0.11259050573E+03  0.10000000000E+01 0.  0.
<mgrwt>
<rscale>  0 0.12500342E+03</rscale>
<asrwt>0</asrwt>
<pdfrwt beam="1">  1        4 0.20502559E-01 0.12500342E+03</pdfrwt>
<pdfrwt beam="2">  1       -4 0.45097144E-02 0.12500342E+03</pdfrwt>
<totfact> 0.96840268E+03</totfact>
</mgrwt>
</event>
<event>
 5    1  0.3294152E-002  0.1250026E+03  0.7818608E-02  0.1235065E+00
         -4   -1    0    0    0  501 -0.00000000000E+00  0.00000000000E+00  0.21128832848E+03  0.21129214527E+03  0.12700000000E+01 0. -1.
          4   -1    0    0  501    0  0.00000000000E+00 -0.00000000000E+00 -0.18462752740E+02  0.18506381028E+02  0.12700000000E+01 0. -1.
         25    2    1    2    0    0  0.00000000000E+00  0.00000000000E+00  0.19282557574E+03  0.22979852630E+03  0.12500264009E+03 0.  0.
    9000005    1    3    3    0    0 -0.55356349976E+02  0.23428168683E+02  0.64987742357E+02  0.88530284238E+02  0.10000000000E+01 0.  0.
    9000005    1    3    3    0    0  0.55356349976E+02 -0.23428168683E+02  0.12783783339E+03  0.14126824206E+03  0.10000000000E+01 0.  0.
<mgrwt>
<rscale>  0 0.12500264E+03</rscale>
<asrwt>0</asrwt>
<pdfrwt beam="2">  1        4 0.28440731E-02 0.12500264E+03</pdfrwt>
<pdfrwt beam="1">  1       -4 0.32509546E-01 0.12500264E+03</pdfrwt>
<totfact> 0.85335515E+03</totfact>
</mgrwt>
</event>
<event>
 5    1  0.3294152E-002  0.1250002E+03  0.7818608E-02  0.1235069E+00
         -4   -1    0    0    0  501 -0.00000000000E+00  0.00000000000E+00  0.57280715609E+02  0.57294792789E+02  0.12700000000E+01 0.  1.
          4   -1    0    0  501    0  0.00000000000E+00 -0.00000000000E+00 -0.68166750056E+02  0.68178579577E+02  0.12700000000E+01 0.  1.
         25    2    1    2    0    0  0.00000000000E+00  0.00000000000E+00 -0.10886034447E+02  0.12547337237E+03  0.12500024571E+03 0.  0.
    9000005    1    3    3    0    0  0.43112796859E+02  0.41117264829E+02 -0.24380336840E+02  0.64379682699E+02  0.10000000000E+01 0.  0.
    9000005    1    3    3    0    0 -0.43112796859E+02 -0.41117264829E+02  0.13494302393E+02  0.61093689667E+02  0.10000000000E+01 0.  0.
<mgrwt>
<rscale>  0 0.12500025E+03</rscale>
<asrwt>0</asrwt>
<pdfrwt beam="2">  1        4 0.10489185E-01 0.12500025E+03</pdfrwt>
<pdfrwt beam="1">  1       -4 0.88144107E-02 0.12500025E+03</pdfrwt>
<totfact> 0.10442485E+04</totfact>
</mgrwt>
</event>
<event>
 5    1  0.3294152E-002  0.1249924E+03  0.7818608E-02  0.1235081E+00
         -4   -1    0    0    0  501 -0.00000000000E+00  0.00000000000E+00  0.95275032463E+03  0.95275117108E+03  0.12700000000E+01 0.  1.
          4   -1    0    0  501    0  0.00000000000E+00 -0.00000000000E+00 -0.40002468939E+01  0.41970078881E+01  0.12700000000E+01 0.  1.
         25    2    1    2    0    0  0.00000000000E+00  0.00000000000E+00  0.94875007774E+03  0.95694817897E+03  0.12499242863E+03 0.  0.
    9000005    1    3    3    0    0 -0.49643399807E+02  0.18284569671E+02  0.21976286234E+03  0.22604315582E+03  0.10000000000E+01 0.  0.
    9000005    1    3    3    0    0  0.49643399807E+02 -0.18284569671E+02  0.72898721540E+03  0.73090502314E+03  0.10000000000E+01 0.  0.
<mgrwt>
<rscale>  0 0.12499243E+03</rscale>
<asrwt>0</asrwt>
<pdfrwt beam="2">  1        4 0.63062438E-03 0.12499243E+03</pdfrwt>
<pdfrwt beam="1">  1       -4 0.14659189E+00 0.12499243E+03</pdfrwt>
<totfact> 0.32075920E+03</totfact>
</mgrwt>
</event>
<event>
 5    1  0.3294152E-002  0.1250005E+03  0.7818608E-02  0.1235068E+00
          4   -1    0    0  501    0  0.00000000000E+00  0.00000000000E+00  0.25596754880E+01  0.28574181710E+01  0.12700000000E+01 0. -1.
         -4   -1    0    0    0  501 -0.00000000000E+00 -0.00000000000E+00 -0.14419077926E+04  0.14419083519E+04  0.12700000000E+01 0. -1.
         25    2    1    2    0    0  0.00000000000E+00  0.00000000000E+00 -0.14393481172E+04  0.14447657701E+04  0.12500051247E+03 0.  0.
    9000005    1    3    3    0    0  0.15573802893E+02  0.53008321152E+02 -0.38213529692E+03  0.38610984266E+03  0.10000000000E+01 0.  0.
    9000005    1    3    3    0    0 -0.15573802893E+02 -0.53008321152E+02 -0.10572128202E+04  0.10586559275E+04  0.10000000000E+01 0.  0.
<mgrwt>
<rscale>  0 0.12500051E+03</rscale>
<asrwt>0</asrwt>
<pdfrwt beam="1">  1        4 0.41674369E-03 0.12500051E+03</pdfrwt>
<pdfrwt beam="2">  1       -4 0.22185430E+00 0.12500051E+03</pdfrwt>
<totfact> 0.19040063E+03</totfact>
</mgrwt>
</event>
<event>
 5    1  0.3294152E-002  0.1250021E+03  0.7818608E-02  0.1235066E+00
         -4   -1    0    0    0  501 -0.00000000000E+00  0.00000000000E+00  0.50585716438E+01  0.52155581749E+01  0.12700000000E+01 0. -1.
          4   -1    0    0  501    0  0.00000000000E+00 -0.00000000000E+00 -0.76027334168E+03  0.76027440241E+03  0.12700000000E+01 0. -1.
         25    2    1    2    0    0  0.00000000000E+00  0.00000000000E+00 -0.75521477003E+03  0.76548996059E+03  0.12500212352E+03 0.  0.
    9000005    1    3    3    0    0  0.12117617218E+02  0.54937445115E+02 -0.54424080855E+03  0.54714167929E+03  0.10000000000E+01 0.  0.
    9000005    1    3    3    0    0 -0.12117617218E+02 -0.54937445115E+02 -0.21097396148E+03  0.21834828130E+03  0.10000000000E+01 0.  0.
<mgrwt>
<rscale>  0 0.12500212E+03</rscale>
<asrwt>0</asrwt>
<pdfrwt beam="2">  1        4 0.11697720E+00 0.12500212E+03</pdfrwt>
<pdfrwt beam="1">  1       -4 0.79039988E-03 0.12500212E+03</pdfrwt>
<totfact> 0.39842161E+03</totfact>
</mgrwt>
</event>
<event>
 5    1  0.3294152E-002  0.1249962E+03  0.7818608E-02  0.1235075E+00
         -4   -1    0    0    0  501 -0.00000000000E+00  0.00000000000E+00  0.54244647663E+02  0.54259512531E+02  0.12700000000E+01 0. -1.
          4   -1    0    0  501    0  0.00000000000E+00 -0.00000000000E+00 -0.71977039260E+02  0.71988242656E+02  0.12700000000E+01 0. -1.
         25    2    1    2    0    0  0.00000000000E+00  0.00000000000E+00 -0.17732391597E+02  0.12624775519E+03  0.12499623185E+03 0.  0.
    9000005    1    3    3    0    0  0.30672471559E+02  0.43037295050E+02  0.24814430309E+02  0.58393195052E+02  0.10000000000E+01 0.  0.
    9000005    1    3    3    0    0 -0.30672471559E+02 -0.43037295050E+02 -0.42546821907E+02  0.67854560135E+02  0.10000000000E+01 0.  0.
<mgrwt>
<rscale>  0 0.12499623E+03</rscale>
<asrwt>0</asrwt>
<pdfrwt beam="2">  1        4 0.11075396E-01 0.12499623E+03</pdfrwt>
<pdfrwt beam="1">  1       -4 0.83473357E-02 0.12499623E+03</pdfrwt>
<totfact> 0.10426422E+04</totfact>
</mgrwt>
</event>
<event>
 5    1  0.3294152E-002  0.1249977E+03  0.7818608E-02  0.1235073E+00
         -4   -1    0    0    0  501 -0.00000000000E+00  0.00000000000E+00  0.19995734484E+02  0.20036024994E+02  0.12700000000E+01 0.  1.
          4   -1    0    0  501    0  0.00000000000E+00 -0.00000000000E+00 -0.19510806322E+03  0.19511219653E+03  0.12700000000E+01 0.  1.
         25    2    1    2    0    0  0.00000000000E+00  0.00000000000E+00 -0.17511232874E+03  0.21514822152E+03  0.12499771817E+03 0.  0.
    9000005    1    3    3    0    0 -0.45228761622E+02 -0.31753812727E+02 -0.37340205538E+02  0.66702597028E+02  0.10000000000E+01 0.  0.
    9000005    1    3    3    0    0  0.45228761622E+02  0.31753812727E+02 -0.13777212320E+03  0.14844562450E+03  0.10000000000E+01 0.  0.
<mgrwt>
<rscale>  0 0.12499772E+03</rscale>
<asrwt>0</asrwt>
<pdfrwt beam="2">  1        4 0.30020041E-01 0.12499772E+03</pdfrwt>
<pdfrwt beam="1">  1       -4 0.30796842E-02 0.12499772E+03</pdfrwt>
<totfact> 0.87646420E+03</totfact>
</mgrwt>
</event>
<event>
 5    1  0.3294152E-002  0.1250021E+03  0.7818608E-02  0.1235066E+00
          4   -1    0    0  501    0  0.00000000000E+00  0.00000000000E+00  0.20168373014E+03  0.20168772869E+03  0.12700000000E+01 0. -1.
         -4   -1    0    0    0  501 -0.00000000000E+00 -0.00000000000E+00 -0.19343819111E+02  0.19385464601E+02  0.12700000000E+01 0. -1.
         25    2    1    2    0    0  0.00000000000E+00  0.00000000000E+00  0.18233991103E+03  0.22107319329E+03  0.12500205453E+03 0.  0.
    9000005    1    3    3    0    0  0.58588530445E+02  0.17260042142E+02  0.11455596073E+03  0.12982524059E+03  0.10000000000E+01 0.  0.
    9000005    1    3    3    0    0 -0.58588530445E+02 -0.17260042142E+02  0.67783950297E+02  0.91247952702E+02  0.10000000000E+01 0.  0.
<mgrwt>
<rscale>  0 0.12500205E+03</rscale>
<asrwt>0</asrwt>
<pdfrwt beam="1">  1        4 0.31031778E-01 0.12500205E+03</pdfrwt>
<pdfrwt beam="2">  1       -4 0.29794832E-02 0.12500205E+03</pdfrwt>
<totfact> 0.86694835E+03</totfact>
</mgrwt>
</event>
<event>
 5    1  0.3294152E-002  0.1249878E+03  0.7818608E-02  0.1235088E+00
          4   -1    0    0  501    0  0.00000000000E+00  0.00000000000E+00  0.45413208989E+01  0.47155588754E+01  0.12700000000E+01 0. -1.
         -4   -1    0    0    0  501 -0.00000000000E+00 -0.00000000000E+00 -0.84362776460E+03  0.84362872053E+03  0.12700000000E+01 0. -1.
         25    2    1    2    0    0  0.00000000000E+00  0.00000000000E+00 -0.83908644370E+03  0.84834427941E+03  0.12498782500E+03 0.  0.
    9000005    1    3    3    0    0 -0.56080609933E+01 -0.52956821453E+02 -0.64142151523E+03  0.64362911330E+03  0.10000000000E+01 0.  0.
    9000005    1    3    3    0    0  0.56080609933E+01  0.52956821453E+02 -0.19766492847E+03  0.20471516610E+03  0.10000000000E+01 0.  0.
<mgrwt>
<rscale>  0 0.12498782E+03</rscale>
<asrwt>0</asrwt>
<pdfrwt beam="1">  1        4 0.71214188E-03 0.12498782E+03</pdfrwt>
<pdfrwt beam="2">  1       -4 0.12980224E+00 0.12498782E+03</pdfrwt>
<totfact> 0.36204828E+03</totfact>
</mgrwt>
</event>
<event>
 5    1  0.3294152E-002  0.1249996E+03  0.7818608E-02  0.1235070E+00
          4   -1    0    0  501    0  0.00000000000E+00  0.00000000000E+00  0.44434299333E+02  0.44452444896E+02  0.12700000000E+01 0. -1.
         -4   -1    0    0    0  501 -0.00000000000E+00 -0.00000000000E+00 -0.87869380957E+02  0.87878558305E+02  0.12700000000E+01 0. -1.
         25    2    1    2    0    0  0.00000000000E+00  0.00000000000E+00 -0.43435081624E+02  0.13233100320E+03  0.12499955237E+03 0.  0.
    9000005    1    3    3    0    0 -0.39922677661E+01 -0.33640683368E+02 -0.77310252256E+02  0.84412729392E+02  0.10000000000E+01 0.  0.
    9000005    1    3    3    0    0  0.39922677661E+01  0.33640683368E+02  0.33875170632E+02  0.47918273809E+02  0.10000000000E+01 0.  0.
<mgrwt>
<rscale>  0 0.12499955E+03</rscale>
<asrwt>0</asrwt>
<pdfrwt beam="1">  1        4 0.68381478E-02 0.12499955E+03</pdfrwt>
<pdfrwt beam="2">  1       -4 0.13520468E-01 0.12499955E+03</pdfrwt>
<totfact> 0.10294742E+04</totfact>
</mgrwt>
</event>
<event>
 5    1  0.3294152E-002  0.1249989E+03  0.7818608E-02  0.1235071E+00
          4   -1    0    0  501    0  0.00000000000E+00  0.00000000000E+00  0.58889675140E+02  0.58903367799E+02  0.12700000000E+01 0.  1.
         -4   -1    0    0    0  501 -0.00000000000E+00 -0.00000000000E+00 -0.66303046256E+02  0.66315208232E+02  0.12700000000E+01 0.  1.
         25    2    1    2    0    0  0.00000000000E+00  0.00000000000E+00 -0.74133711167E+01  0.12521857603E+03  0.12499893484E+03 0.  0.
    9000005    1    3    3    0    0  0.61063507837E+02 -0.93860654161E+01  0.57084042339E+01  0.62051882262E+02  0.10000000000E+01 0.  0.
    9000005    1    3    3    0    0 -0.61063507837E+02  0.93860654161E+01 -0.13121775351E+02  0.63166693769E+02  0.10000000000E+01 0.  0.
<mgrwt>
<rscale>  0 0.12499893E+03</rscale>
<asrwt>0</asrwt>
<pdfrwt beam="1">  1        4 0.90619389E-02 0.12499893E+03</pdfrwt>
<pdfrwt beam="2">  1       -4 0.10202457E-01 0.12499893E+03</pdfrwt>
<totfact> 0.10448369E+04</totfact>
</mgrwt>
</event>
<event>
 5    1  0.3294152E-002  0.1249816E+03  0.7818608E-02  0.1235098E+00
          4   -1    0    0  501    0  0.00000000000E+00  0.00000000000E+00  0.69533862118E+02  0.69545459097E+02  0.12700000000E+01 0. -1.
         -4   -1    0    0    0  501 -0.00000000000E+00 -0.00000000000E+00 -0.56137675036E+02  0.56152038774E+02  0.12700000000E+01 0. -1.
         25    2    1    2    0    0  0.00000000000E+00  0.00000000000E+00  0.13396187082E+02  0.12569749787E+03  0.12498161122E+03 0.  0.
    9000005    1    3    3    0    0 -0.37927322695E+02  0.42313192403E+02  0.32831788862E+02  0.65633942576E+02  0.10000000000E+01 0.  0.
    9000005    1    3    3    0    0  0.37927322695E+02 -0.42313192403E+02 -0.19435601780E+02  0.60063555296E+02  0.10000000000E+01 0.  0.
<mgrwt>
<rscale>  0 0.12498161E+03</rscale>
<asrwt>0</asrwt>
<pdfrwt beam="1">  1        4 0.10699514E-01 0.12498161E+03</pdfrwt>
<pdfrwt beam="2">  1       -4 0.86385624E-02 0.12498161E+03</pdfrwt>
<totfact> 0.10441931E+04</totfact>
</mgrwt>
</event>
<event>
 5    1  0.3294152E-002  0.1250435E+03  0.7818608E-02  0.1235001E+00
          4   -1    0    0  501    0  0.00000000000E+00  0.00000000000E+00  0.58891552914E+02  0.58905245136E+02  0.12700000000E+01 0. -1.
         -4   -1    0    0    0  501 -0.00000000000E+00 -0.00000000000E+00 -0.66348262354E+02  0.66360416043E+02  0.12700000000E+01 0. -1.
         25    2    1    2    0    0  0.00000000000E+00  0.00000000000E+00 -0.74567094403E+01  0.12526566118E+03  0.12504352584E+03 0.  0.
    9000005    1    3    3    0    0  0.98310567091E+01 -0.57994822151E+02  0.17473404967E+02  0.61370749983E+02  0.10000000000E+01 0.  0.
    9000005    1    3    3    0    0 -0.98310567091E+01  0.57994822151E+02 -0.24930114407E+02  0.63894911196E+02  0.10000000000E+01 0.  0.
<mgrwt>
<rscale>  0 0.12504353E+03</rscale>
<asrwt>0</asrwt>
<pdfrwt beam="1">  1        4 0.90622271E-02 0.12504353E+03</pdfrwt>
<pdfrwt beam="2">  1       -4 0.10209413E-01 0.12504353E+03</pdfrwt>
<totfact> 0.10436825E+04</totfact>
</mgrwt>
</event>
<event>
 5    1  0.3294152E-002  0.1249976E+03  0.7818608E-02  0.1235073E+00
          4   -1    0    0  501    0  0.00000000000E+00  0.00000000000E+00  0.13632739462E+02  0.13691767061E+02  0.12700000000E+01 0. -1.
         -4   -1    0    0    0  501 -0.00000000000E+00 -0.00000000000E+00 -0.28584393102E+03  0.28584675230E+03  0.12700000000E+01 0. -1.
         25    2    1    2    0    0  0.00000000000E+00  0.00000000000E+00 -0.27221119155E+03  0.29953851936E+03  0.12499756706E+03 0.  0.
    9000005    1    3    3    0    0  0.48955499301E+02 -0.32065128716E+02 -0.18862265844E+03  0.19749511556E+03  0.10000000000E+01 0.  0.
    9000005    1    3    3    0    0 -0.48955499301E+02  0.32065128716E+02 -0.83588533115E+02  0.10204340380E+03  0.10000000000E+01 0.  0.
<mgrwt>
<rscale>  0 0.12499757E+03</rscale>
<asrwt>0</asrwt>
<pdfrwt beam="1">  1        4 0.21021024E-02 0.12499757E+03</pdfrwt>
<pdfrwt beam="2">  1       -4 0.43980742E-01 0.12499757E+03</pdfrwt>
<totfact> 0.75660851E+03</totfact>
</mgrwt>
</event>
<event>
 5    1  0.3294152E-002  0.1250021E+03  0.7818608E-02  0.1235066E+00
         -4   -1    0    0    0  501 -0.00000000000E+00  0.00000000000E+00  0.12247185525E+02  0.12312857235E+02  0.12700000000E+01 0.  1.
          4   -1    0    0  501    0  0.00000000000E+00 -0.00000000000E+00 -0.31804168169E+03  0.31804421735E+03  0.12700000000E+01 0.  1.
         25    2    1    2    0    0  0.00000000000E+00  0.00000000000E+00 -0.30579449617E+03  0.33035707459E+03  0.12500209137E+03 0.  0.
    9000005    1    3    3    0    0 -0.25361461163E+02  0.52264289449E+02 -0.21377499472E+03  0.22152992582E+03  0.10000000000E+01 0.  0.
    9000005    1    3    3    0    0  0.25361461163E+02 -0.52264289449E+02 -0.92019501442E+02  0.10882714877E+03  0.10000000000E+01 0.  0.
<mgrwt>
<rscale>  0 0.12500209E+03</rscale>
<asrwt>0</asrwt>
<pdfrwt beam="2">  1        4 0.48934730E-01 0.12500209E+03</pdfrwt>
<pdfrwt beam="1">  1       -4 0.18894294E-02 0.12500209E+03</pdfrwt>
<totfact> 0.71937658E+03</totfact>
</mgrwt>
</event>
<event>
 5    1  0.3294152E-002  0.1249969E+03  0.7818608E-02  0.1235074E+00
          4   -1    0    0  501    0  0.00000000000E+00  0.00000000000E+00  0.17359970351E+03  0.17360434890E+03  0.12700000000E+01 0.  1.
         -4   -1    0    0    0  501 -0.00000000000E+00 -0.00000000000E+00 -0.22477473389E+02  0.22513322943E+02  0.12700000000E+01 0.  1.
         25    2    1    2    0    0  0.00000000000E+00  0.00000000000E+00  0.15112223012E+03  0.19611767185E+03  0.12499685106E+03 0.  0.
    9000005    1    3    3    0    0 -0.13912343819E+02  0.57739188262E+02  0.45069311538E+02  0.74562792424E+02  0.10000000000E+01 0.  0.
    9000005    1    3    3    0    0  0.13912343819E+02 -0.57739188262E+02  0.10605291858E+03  0.12155487942E+03  0.10000000000E+01 0.  0.
<mgrwt>
<rscale>  0 0.12499685E+03</rscale>
<asrwt>0</asrwt>
<pdfrwt beam="1">  1        4 0.26710762E-01 0.12499685E+03</pdfrwt>
<pdfrwt beam="2">  1       -4 0.34611878E-02 0.12499685E+03</pdfrwt>
<totfact> 0.90800021E+03</totfact>
</mgrwt>
</event>
<event>
 5    1  0.3294152E-002  0.1249972E+03  0.7818608E-02  0.1235074E+00
          4   -1    0    0  501    0  0.00000000000E+00  0.00000000000E+00  0.25618990621E+03  0.25619305405E+03  0.12700000000E+01 0.  1.
         -4   -1    0    0    0  501 -0.00000000000E+00 -0.00000000000E+00 -0.15217110987E+02  0.15270015285E+02  0.12700000000E+01 0.  1.
         25    2    1    2    0    0  0.00000000000E+00  0.00000000000E+00  0.24097279522E+03  0.27146306933E+03  0.12499723987E+03 0.  0.
    9000005    1    3    3    0    0  0.11142433370E+02 -0.30634507835E+02  0.47001992236E+01  0.32950246804E+02  0.10000000000E+01 0.  0.
    9000005    1    3    3    0    0 -0.11142433370E+02  0.30634507835E+02  0.23627259600E+03  0.23851282253E+03  0.10000000000E+01 0.  0.
<mgrwt>
<rscale>  0 0.12499724E+03</rscale>
<asrwt>0</asrwt>
<pdfrwt beam="1">  1        4 0.39418141E-01 0.12499724E+03</pdfrwt>
<pdfrwt beam="2">  1       -4 0.23454058E-02 0.12499724E+03</pdfrwt>
<totfact> 0.79328688E+03</totfact>
</mgrwt>
</event>
<event>
 5    1  0.3294152E-002  0.1250070E+03  0.7818608E-02  0.1235058E+00
          4   -1    0    0  501    0  0.00000000000E+00  0.00000000000E+00  0.16760680755E+03  0.16761161904E+03  0.12700000000E+01 0.  1.
         -4   -1    0    0    0  501 -0.00000000000E+00 -0.00000000000E+00 -0.23286178003E+02  0.23320784420E+02  0.12700000000E+01 0.  1.
         25    2    1    2    0    0  0.00000000000E+00  0.00000000000E+00  0.14432062955E+03  0.19093240346E+03  0.12500695412E+03 0.  0.
    9000005    1    3    3    0    0 -0.49754367147E+02  0.37602189507E+02  0.66000821616E+02  0.90810407773E+02  0.10000000000E+01 0.  0.
    9000005    1    3    3    0    0  0.49754367147E+02 -0.37602189507E+02  0.78319807930E+02  0.10012199569E+03  0.10000000000E+01 0.  0.
<mgrwt>
<rscale>  0 0.12500695E+03</rscale>
<asrwt>0</asrwt>
<pdfrwt beam="1">  1        4 0.25788695E-01 0.12500695E+03</pdfrwt>
<pdfrwt beam="2">  1       -4 0.35855211E-02 0.12500695E+03</pdfrwt>
<totfact> 0.91671053E+03</totfact>
</mgrwt>
</event>
<event>
 5    1  0.3294152E-002  0.1250012E+03  0.7818608E-02  0.1235067E+00
          4   -1    0    0  501    0  0.00000000000E+00  0.00000000000E+00  0.59264582247E+02  0.59278188307E+02  0.12700000000E+01 0. -1.
         -4   -1    0    0    0  501 -0.00000000000E+00 -0.00000000000E+00 -0.65886056929E+02  0.65898295863E+02  0.12700000000E+01 0. -1.
         25    2    1    2    0    0  0.00000000000E+00  0.00000000000E+00 -0.66214746813E+01  0.12517648417E+03  0.12500123304E+03 0.  0.
    9000005    1    3    3    0    0  0.45254903057E+02  0.33150355822E+02  0.24266475894E+02  0.61129487108E+02  0.10000000000E+01 0.  0.
    9000005    1    3    3    0    0 -0.45254903057E+02 -0.33150355822E+02 -0.30887950575E+02  0.64046997061E+02  0.10000000000E+01 0.  0.
<mgrwt>
<rscale>  0 0.12500123E+03</rscale>
<asrwt>0</asrwt>
<pdfrwt beam="1">  1        4 0.91196161E-02 0.12500123E+03</pdfrwt>
<pdfrwt beam="2">  1       -4 0.10138305E-01 0.12500123E+03</pdfrwt>
<totfact> 0.10448739E+04</totfact>
</mgrwt>
</event>
<event>
 5    1  0.3294152E-002  0.1250075E+03  0.7818608E-02  0.1235058E+00
          4   -1    0    0  501    0  0.00000000000E+00  0.00000000000E+00  0.50036763850E+03  0.50036925021E+03  0.12700000000E+01 0.  1.
         -4   -1    0    0    0  501 -0.00000000000E+00 -0.00000000000E+00 -0.77544115615E+01  0.78577222313E+01  0.12700000000E+01 0.  1.
         25    2    1    2    0    0  0.00000000000E+00  0.00000000000E+00  0.49261322693E+03  0.50822697244E+03  0.12500745643E+03 0.  0.
    9000005    1    3    3    0    0  0.10263324287E+02 -0.59557407103E+02  0.31101126565E+03  0.31683028253E+03  0.10000000000E+01 0.  0.
    9000005    1    3    3    0    0 -0.10263324287E+02  0.59557407103E+02  0.18160196128E+03  0.19139668991E+03  0.10000000000E+01 0.  0.
<mgrwt>
<rscale>  0 0.12500746E+03</rscale>
<asrwt>0</asrwt>
<pdfrwt beam="1">  1        4 0.76987725E-01 0.12500746E+03</pdfrwt>
<pdfrwt beam="2">  1       -4 0.12010571E-02 0.12500746E+03</pdfrwt>
<totfact> 0.55222596E+03</totfact>
</mgrwt>
</event>
<event>
 5    1  0.3294152E-002  0.1250149E+03  0.7818608E-02  0.1235046E+00
          4   -1    0    0  501    0  0.00000000000E+00  0.00000000000E+00  0.12484401837E+02  0.12548832186E+02  0.12700000000E+01 0.  1.
         -4   -1    0    0    0  501 -0.00000000000E+00 -0.00000000000E+00 -0.31209375586E+03  0.31209633985E+03  0.12700000000E+01 0.  1.
         25    2    1    2    0    0  0.00000000000E+00  0.00000000000E+00 -0.29960935403E+03  0.32464517204E+03  0.12501488994E+03 0.  0.
    9000005    1    3    3    0    0  0.27496093238E+02 -0.33112856592E+02 -0.32121592402E+02  0.53714924495E+02  0.10000000000E+01 0.  0.
    9000005    1    3    3    0    0 -0.27496093238E+02  0.33112856592E+02 -0.26748776162E+03  0.27093024754E+03  0.10000000000E+01 0.  0.
<mgrwt>
<rscale>  0 0.12501489E+03</rscale>
<asrwt>0</asrwt>
<pdfrwt beam="1">  1        4 0.19258324E-02 0.12501489E+03</pdfrwt>
<pdfrwt beam="2">  1       -4 0.48019573E-01 0.12501489E+03</pdfrwt>
<totfact> 0.72583078E+03</totfact>
</mgrwt>
</event>
<event>
 5    1  0.3294152E-002  0.1250045E+03  0.7818608E-02  0.1235062E+00
         -4   -1    0    0    0  501 -0.00000000000E+00  0.00000000000E+00  0.54242511819E+03  0.54242660494E+03  0.12700000000E+01 0. -1.
          4   -1    0    0  501    0  0.00000000000E+00 -0.00000000000E+00 -0.71444713240E+01  0.72564709397E+01  0.12700000000E+01 0. -1.
         25    2    1    2    0    0  0.00000000000E+00  0.00000000000E+00  0.53528064687E+03  0.54968307588E+03  0.12500445191E+03 0.  0.
    9000005    1    3    3    0    0 -0.53946179388E+02  0.20772968840E+02  0.16322654887E+03  0.17316354339E+03  0.10000000000E+01 0.  0.
    9000005    1    3    3    0    0  0.53946179388E+02 -0.20772968840E+02  0.37205409800E+03  0.37651953249E+03  0.10000000000E+01 0.  0.
<mgrwt>
<rscale>  0 0.12500445E+03</rscale>
<asrwt>0</asrwt>
<pdfrwt beam="2">  1        4 0.11078791E-02 0.12500445E+03</pdfrwt>
<pdfrwt beam="1">  1       -4 0.83458756E-01 0.12500445E+03</pdfrwt>
<totfact> 0.52200919E+03</totfact>
</mgrwt>
</event>
<event>
 5    1  0.3294152E-002  0.1250020E+03  0.7818608E-02  0.1235066E+00
          4   -1    0    0  501    0  0.00000000000E+00  0.00000000000E+00  0.49587627345E+01  0.51188111761E+01  0.12700000000E+01 0. -1.
         -4   -1    0    0    0  501 -0.00000000000E+00 -0.00000000000E+00 -0.77510035247E+03  0.77510139291E+03  0.12700000000E+01 0. -1.
         25    2    1    2    0    0  0.00000000000E+00  0.00000000000E+00 -0.77014158974E+03  0.78022020409E+03  0.12500199451E+03 0.  0.
    9000005    1    3    3    0    0 -0.61015356372E+02  0.56488715306E+01 -0.46166572773E+03  0.46571560810E+03  0.10000000000E+01 0.  0.
    9000005    1    3    3    0    0  0.61015356372E+02 -0.56488715306E+01 -0.30847586200E+03  0.31450459599E+03  0.10000000000E+01 0.  0.
<mgrwt>
<rscale>  0 0.12500199E+03</rscale>
<asrwt>0</asrwt>
<pdfrwt beam="1">  1        4 0.77527864E-03 0.12500199E+03</pdfrwt>
<pdfrwt beam="2">  1       -4 0.11925850E+00 0.12500199E+03</pdfrwt>
<totfact> 0.39161463E+03</totfact>
</mgrwt>
</event>
<event>
 5    1  0.3294152E-002  0.1249659E+03  0.7818608E-02  0.1235123E+00
         -4   -1    0    0    0  501 -0.00000000000E+00  0.00000000000E+00  0.28448311303E+02  0.28476645097E+02  0.12700000000E+01 0. -1.
          4   -1    0    0  501    0  0.00000000000E+00 -0.00000000000E+00 -0.13713585934E+03  0.13714173987E+03  0.12700000000E+01 0. -1.
         25    2    1    2    0    0  0.00000000000E+00  0.00000000000E+00 -0.10868754803E+03  0.16561838497E+03  0.12496586071E+03 0.  0.
    9000005    1    3    3    0    0  0.19247553639E+02 -0.52952519850E+02 -0.18568311315E+02  0.59331440777E+02  0.10000000000E+01 0.  0.
    9000005    1    3    3    0    0 -0.19247553639E+02  0.52952519850E+02 -0.90119236717E+02  0.10628694419E+03  0.10000000000E+01 0.  0.
<mgrwt>
<rscale>  0 0.12496586E+03</rscale>
<asrwt>0</asrwt>
<pdfrwt beam="2">  1        4 0.21100456E-01 0.12496586E+03</pdfrwt>
<pdfrwt beam="1">  1       -4 0.43792952E-02 0.12496586E+03</pdfrwt>
<totfact> 0.96344273E+03</totfact>
</mgrwt>
</event>
<event>
 5    1  0.3294152E-002  0.1249954E+03  0.7818608E-02  0.1235076E+00
         -4   -1    0    0    0  501 -0.00000000000E+00  0.00000000000E+00  0.94465580641E+03  0.94465666010E+03  0.12700000000E+01 0.  1.
          4   -1    0    0  501    0  0.00000000000E+00 -0.00000000000E+00 -0.40364061872E+01  0.42314861347E+01  0.12700000000E+01 0.  1.
         25    2    1    2    0    0  0.00000000000E+00  0.00000000000E+00  0.94061940022E+03  0.94888814624E+03  0.12499543192E+03 0.  0.
    9000005    1    3    3    0    0  0.86927482251E+01 -0.31128885187E+02  0.64302492581E+02  0.71974870037E+02  0.10000000000E+01 0.  0.
    9000005    1    3    3    0    0 -0.86927482251E+01  0.31128885187E+02  0.87631690764E+03  0.87691327620E+03  0.10000000000E+01 0.  0.
<mgrwt>
<rscale>  0 0.12499543E+03</rscale>
<asrwt>0</asrwt>
<pdfrwt beam="2">  1        4 0.63605699E-03 0.12499543E+03</pdfrwt>
<pdfrwt beam="1">  1       -4 0.14534683E+00 0.12499543E+03</pdfrwt>
<totfact> 0.32358681E+03</totfact>
</mgrwt>
</event>
<event>
 5    1  0.3294152E-002  0.1249983E+03  0.7818608E-02  0.1235072E+00
          4   -1    0    0  501    0  0.00000000000E+00  0.00000000000E+00  0.42642618537E+02  0.42661526176E+02  0.12700000000E+01 0.  1.
         -4   -1    0    0    0  501 -0.00000000000E+00 -0.00000000000E+00 -0.91558259808E+02  0.91567067437E+02  0.12700000000E+01 0.  1.
         25    2    1    2    0    0  0.00000000000E+00  0.00000000000E+00 -0.48915641270E+02  0.13422859361E+03  0.12499830152E+03 0.  0.
    9000005    1    3    3    0    0  0.14937362549E+02  0.52966222266E+02  0.73358924790E+01  0.55528018328E+02  0.10000000000E+01 0.  0.
    9000005    1    3    3    0    0 -0.14937362549E+02 -0.52966222266E+02 -0.56251533749E+02  0.78700575285E+02  0.10000000000E+01 0.  0.
<mgrwt>
<rscale>  0 0.12499830E+03</rscale>
<asrwt>0</asrwt>
<pdfrwt beam="1">  1        4 0.65625348E-02 0.12499830E+03</pdfrwt>
<pdfrwt beam="2">  1       -4 0.14088018E-01 0.12499830E+03</pdfrwt>
<totfact> 0.10254749E+04</totfact>
</mgrwt>
</event>
<event>
 5    1  0.3294152E-002  0.1250046E+03  0.7818608E-02  0.1235062E+00
         -4   -1    0    0    0  501 -0.00000000000E+00  0.00000000000E+00  0.11891160415E+03  0.11891838589E+03  0.12700000000E+01 0. -1.
          4   -1    0    0  501    0  0.00000000000E+00 -0.00000000000E+00 -0.32832475005E+02  0.32857028395E+02  0.12700000000E+01 0. -1.
         25    2    1    2    0    0  0.00000000000E+00  0.00000000000E+00  0.86079129150E+02  0.15177541428E+03  0.12500463954E+03 0.  0.
    9000005    1    3    3    0    0 -0.61437734169E+02 -0.11385206380E+02  0.44435515224E+02  0.76679417821E+02  0.10000000000E+01 0.  0.
    9000005    1    3    3    0    0  0.61437734169E+02  0.11385206380E+02  0.41643613926E+02  0.75095996464E+02  0.10000000000E+01 0.  0.
<mgrwt>
<rscale>  0 0.12500464E+03</rscale>
<asrwt>0</asrwt>
<pdfrwt beam="2">  1        4 0.50535603E-02 0.12500464E+03</pdfrwt>
<pdfrwt beam="1">  1       -4 0.18296504E-01 0.12500464E+03</pdfrwt>
<totfact> 0.98940637E+03</totfact>
</mgrwt>
</event>
<event>
 5    1  0.3294152E-002  0.1250089E+03  0.7818608E-02  0.1235055E+00
          4   -1    0    0  501    0  0.00000000000E+00  0.00000000000E+00  0.41863654164E+03  0.41863846801E+03  0.12700000000E+01 0. -1.
         -4   -1    0    0    0  501 -0.00000000000E+00 -0.00000000000E+00 -0.92870556427E+01  0.93734893455E+01  0.12700000000E+01 0. -1.
         25    2    1    2    0    0  0.00000000000E+00  0.00000000000E+00  0.40934948600E+03  0.42801195736E+03  0.12500893549E+03 0.  0.
    9000005    1    3    3    0    0  0.16150979390E+02  0.53210389674E+02  0.10701340741E+03  0.12060293972E+03  0.10000000000E+01 0.  0.
    9000005    1    3    3    0    0 -0.16150979390E+02 -0.53210389674E+02  0.30233607859E+03  0.30740901764E+03  0.10000000000E+01 0.  0.
<mgrwt>
<rscale>  0 0.12500894E+03</rscale>
<asrwt>0</asrwt>
<pdfrwt beam="1">  1        4 0.64412415E-01 0.12500894E+03</pdfrwt>
<pdfrwt beam="2">  1       -4 0.14355748E-02 0.12500894E+03</pdfrwt>
<totfact> 0.61904412E+03</totfact>
</mgrwt>
</event>
<event>
 5    1  0.3294152E-002  0.1250009E+03  0.7818608E-02  0.1235068E+00
         -4   -1    0    0    0  501 -0.00000000000E+00  0.00000000000E+00  0.87212924986E+02  0.87222171405E+02  0.12700000000E+01 0. -1.
          4   -1    0    0  501    0  0.00000000000E+00 -0.00000000000E+00 -0.44769846290E+02  0.44787855907E+02  0.12700000000E+01 0. -1.
         25    2    1    2    0    0  0.00000000000E+00  0.00000000000E+00  0.42443078696E+02  0.13201002731E+03  0.12500092952E+03 0.  0.
    9000005    1    3    3    0    0 -0.18632047224E+02 -0.45987270465E+02  0.61342920593E+02  0.78904601485E+02  0.10000000000E+01 0.  0.
    9000005    1    3    3    0    0  0.18632047224E+02  0.45987270465E+02 -0.18899841897E+02  0.53105425827E+02  0.10000000000E+01 0.  0.
<mgrwt>
<rscale>  0 0.12500093E+03</rscale>
<asrwt>0</asrwt>
<pdfrwt beam="2">  1        4 0.68897654E-02 0.12500093E+03</pdfrwt>
<pdfrwt beam="1">  1       -4 0.13419470E-01 0.12500093E+03</pdfrwt>
<totfact> 0.10301268E+04</totfact>
</mgrwt>
</event>
<event>
 5    1  0.3294152E-002  0.1249971E+03  0.7818608E-02  0.1235074E+00
         -4   -1    0    0    0  501 -0.00000000000E+00  0.00000000000E+00  0.48536637719E+01  0.50170660759E+01  0.12700000000E+01 0.  1.
          4   -1    0    0  501    0  0.00000000000E+00 -0.00000000000E+00 -0.79128091393E+03  0.79128193310E+03  0.12700000000E+01 0.  1.
         25    2    1    2    0    0  0.00000000000E+00  0.00000000000E+00 -0.78642725016E+03  0.79629899918E+03  0.12499710515E+03 0.  0.
    9000005    1    3    3    0    0  0.34639099572E+02  0.16526783636E+02 -0.70738311506E+03  0.70842421843E+03  0.10000000000E+01 0.  0.
    9000005    1    3    3    0    0 -0.34639099572E+02 -0.16526783636E+02 -0.79044135105E+02  0.87874780746E+02  0.10000000000E+01 0.  0.
<mgrwt>
<rscale>  0 0.12499711E+03</rscale>
<asrwt>0</asrwt>
<pdfrwt beam="2">  1        4 0.12174807E+00 0.12499711E+03</pdfrwt>
<pdfrwt beam="1">  1       -4 0.75936594E-03 0.12499711E+03</pdfrwt>
<totfact> 0.38432942E+03</totfact>
</mgrwt>
</event>
<event>
 5    1  0.3294152E-002  0.1249943E+03  0.7818608E-02  0.1235078E+00
          4   -1    0    0  501    0  0.00000000000E+00  0.00000000000E+00  0.24090162188E+02  0.24123615281E+02  0.12700000000E+01 0. -1.
         -4   -1    0    0    0  501 -0.00000000000E+00 -0.00000000000E+00 -0.16198797584E+03  0.16199295422E+03  0.12700000000E+01 0. -1.
         25    2    1    2    0    0  0.00000000000E+00  0.00000000000E+00 -0.13789781365E+03  0.18611656950E+03  0.12499428160E+03 0.  0.
    9000005    1    3    3    0    0  0.42258833966E+01  0.32142030797E+02  0.10596686307E+02  0.34121224992E+02  0.10000000000E+01 0.  0.
    9000005    1    3    3    0    0 -0.42258833966E+01 -0.32142030797E+02 -0.14849449996E+03  0.15199534451E+03  0.10000000000E+01 0.  0.
<mgrwt>
<rscale>  0 0.12499428E+03</rscale>
<asrwt>0</asrwt>
<pdfrwt beam="1">  1        4 0.37091352E-02 0.12499428E+03</pdfrwt>
<pdfrwt beam="2">  1       -4 0.24924183E-01 0.12499428E+03</pdfrwt>
<totfact> 0.92539301E+03</totfact>
</mgrwt>
</event>
<event>
 5    1  0.3294152E-002  0.1250015E+03  0.7818608E-02  0.1235067E+00
         -4   -1    0    0    0  501 -0.00000000000E+00  0.00000000000E+00  0.33453822176E+01  0.35783351131E+01  0.12700000000E+01 0.  1.
          4   -1    0    0  501    0  0.00000000000E+00 -0.00000000000E+00 -0.11281607998E+04  0.11281615146E+04  0.12700000000E+01 0.  1.
         25    2    1    2    0    0  0.00000000000E+00  0.00000000000E+00 -0.11248154176E+04  0.11317398497E+04  0.12500145551E+03 0.  0.
    9000005    1    3    3    0    0  0.15375713618E+02  0.21799467210E+02 -0.50750157454E+02  0.57342896871E+02  0.10000000000E+01 0.  0.
    9000005    1    3    3    0    0 -0.15375713618E+02 -0.21799467210E+02 -0.10740652601E+04  0.10743969529E+04  0.10000000000E+01 0.  0.
<mgrwt>
<rscale>  0 0.12500146E+03</rscale>
<asrwt>0</asrwt>
<pdfrwt beam="2">  1        4 0.17358088E+00 0.12500146E+03</pdfrwt>
<pdfrwt beam="1">  1       -4 0.53264953E-03 0.12500146E+03</pdfrwt>
<totfact> 0.26571573E+03</totfact>
</mgrwt>
</event>
<event>
 5    1  0.3294152E-002  0.1250016E+03  0.7818608E-02  0.1235067E+00
          4   -1    0    0  501    0  0.00000000000E+00  0.00000000000E+00  0.10576828924E+04  0.10576836549E+04  0.12700000000E+01 0. -1.
         -4   -1    0    0    0  501 -0.00000000000E+00 -0.00000000000E+00 -0.35833478816E+01  0.38017472353E+01  0.12700000000E+01 0. -1.
         25    2    1    2    0    0  0.00000000000E+00  0.00000000000E+00  0.10540995445E+04  0.10614854021E+04  0.12500163649E+03 0.  0.
    9000005    1    3    3    0    0  0.69734314546E+01 -0.12877984882E+02  0.11152357965E+02  0.18434921455E+02  0.10000000000E+01 0.  0.
    9000005    1    3    3    0    0 -0.69734314546E+01  0.12877984882E+02  0.10429471866E+04  0.10430504807E+04  0.10000000000E+01 0.  0.
<mgrwt>
<rscale>  0 0.12500164E+03</rscale>
<asrwt>0</asrwt>
<pdfrwt beam="1">  1        4 0.16273741E+00 0.12500164E+03</pdfrwt>
<pdfrwt beam="2">  1       -4 0.56814251E-03 0.12500164E+03</pdfrwt>
<totfact> 0.28637799E+03</totfact>
</mgrwt>
</event>
<event>
 5    1  0.3294152E-002  0.1249994E+03  0.7818608E-02  0.1235070E+00
          4   -1    0    0  501    0  0.00000000000E+00  0.00000000000E+00  0.71983606753E+01  0.73095346235E+01  0.12700000000E+01 0. -1.
         -4   -1    0    0    0  501 -0.00000000000E+00 -0.00000000000E+00 -0.53838253179E+03  0.53838402970E+03  0.12700000000E+01 0. -1.
         25    2    1    2    0    0  0.00000000000E+00  0.00000000000E+00 -0.53118417111E+03  0.54569356432E+03  0.12499937001E+03 0.  0.
    9000005    1    3    3    0    0 -0.20635480375E+02  0.54755077661E+02 -0.36136329511E+03  0.36607154032E+03  0.10000000000E+01 0.  0.
    9000005    1    3    3    0    0  0.20635480375E+02 -0.54755077661E+02 -0.16982087600E+03  0.17962202400E+03  0.10000000000E+01 0.  0.
<mgrwt>
<rscale>  0 0.12499937E+03</rscale>
<asrwt>0</asrwt>
<pdfrwt beam="1">  1        4 0.11161076E-02 0.12499937E+03</pdfrwt>
<pdfrwt beam="2">  1       -4 0.82836718E-01 0.12499937E+03</pdfrwt>
<totfact> 0.52486326E+03</totfact>
</mgrwt>
</event>
<event>
 5    1  0.3294152E-002  0.1250040E+03  0.7818608E-02  0.1235063E+00
          4   -1    0    0  501    0  0.00000000000E+00  0.00000000000E+00  0.37371499615E+03  0.37371715407E+03  0.12700000000E+01 0.  1.
         -4   -1    0    0    0  501 -0.00000000000E+00 -0.00000000000E+00 -0.10412381359E+02  0.10489546490E+02  0.12700000000E+01 0.  1.
         25    2    1    2    0    0  0.00000000000E+00  0.00000000000E+00  0.36330261479E+03  0.38420670056E+03  0.12500399531E+03 0.  0.
    9000005    1    3    3    0    0 -0.59011883770E+02  0.64290646178E+01  0.12159774683E+03  0.13531721004E+03  0.10000000000E+01 0.  0.
    9000005    1    3    3    0    0  0.59011883770E+02 -0.64290646178E+01  0.24170486796E+03  0.24888949053E+03  0.10000000000E+01 0.  0.
<mgrwt>
<rscale>  0 0.12500400E+03</rscale>
<asrwt>0</asrwt>
<pdfrwt beam="1">  1        4 0.57500729E-01 0.12500400E+03</pdfrwt>
<pdfrwt beam="2">  1       -4 0.16080063E-02 0.12500400E+03</pdfrwt>
<totfact> 0.66112522E+03</totfact>
</mgrwt>
</event>
<event>
 5    1  0.3294152E-002  0.1250036E+03  0.7818608E-02  0.1235064E+00
          4   -1    0    0  501    0  0.00000000000E+00  0.00000000000E+00  0.21894011289E+02  0.21930814630E+02  0.12700000000E+01 0.  1.
         -4   -1    0    0    0  501 -0.00000000000E+00 -0.00000000000E+00 -0.17823787391E+03  0.17824239842E+03  0.12700000000E+01 0.  1.
         25    2    1    2    0    0  0.00000000000E+00  0.00000000000E+00 -0.15634386262E+03  0.20017321305E+03  0.12500364733E+03 0.  0.
    9000005    1    3    3    0    0  0.60677710487E+02  0.11446118979E+02 -0.62755787514E+02  0.88045937193E+02  0.10000000000E+01 0.  0.
    9000005    1    3    3    0    0 -0.60677710487E+02 -0.11446118979E+02 -0.93588075104E+02  0.11212727586E+03  0.10000000000E+01 0.  0.
<mgrwt>
<rscale>  0 0.12500365E+03</rscale>
<asrwt>0</asrwt>
<pdfrwt beam="1">  1        4 0.33714886E-02 0.12500365E+03</pdfrwt>
<pdfrwt beam="2">  1       -4 0.27424390E-01 0.12500365E+03</pdfrwt>
<totfact> 0.90098947E+03</totfact>
</mgrwt>
</event>
<event>
 5    1  0.3294152E-002  0.1249894E+03  0.7818608E-02  0.1235086E+00
          4   -1    0    0  501    0  0.00000000000E+00  0.00000000000E+00  0.13508574653E+03  0.13509171631E+03  0.12700000000E+01 0. -1.
         -4   -1    0    0    0  501 -0.00000000000E+00 -0.00000000000E+00 -0.28891342066E+02  0.28919241802E+02  0.12700000000E+01 0. -1.
         25    2    1    2    0    0  0.00000000000E+00  0.00000000000E+00  0.10619440446E+03  0.16401095811E+03  0.12498937091E+03 0.  0.
    9000005    1    3    3    0    0  0.27838843021E+02 -0.44031690203E+02  0.98378435421E+02  0.11132433462E+03  0.10000000000E+01 0.  0.
    9000005    1    3    3    0    0 -0.27838843021E+02  0.44031690203E+02  0.78159690442E+01  0.52686623492E+02  0.10000000000E+01 0.  0.
<mgrwt>
<rscale>  0 0.12498937E+03</rscale>
<asrwt>0</asrwt>
<pdfrwt beam="1">  1        4 0.20785028E-01 0.12498937E+03</pdfrwt>
<pdfrwt beam="2">  1       -4 0.44474271E-02 0.12498937E+03</pdfrwt>
<totfact> 0.96598095E+03</totfact>
</mgrwt>
</event>
<event>
 5    1  0.3294152E-002  0.1249990E+03  0.7818608E-02  0.1235071E+00
          4   -1    0    0  501    0  0.00000000000E+00  0.00000000000E+00  0.17444119271E+02  0.17490288653E+02  0.12700000000E+01 0. -1.
         -4   -1    0    0    0  501 -0.00000000000E+00 -0.00000000000E+00 -0.22358189190E+03  0.22358549883E+03  0.12700000000E+01 0. -1.
         25    2    1    2    0    0  0.00000000000E+00  0.00000000000E+00 -0.20613777263E+03  0.24107578748E+03  0.12499901601E+03 0.  0.
    9000005    1    3    3    0    0 -0.41477081990E+02  0.46742025486E+02 -0.10277497432E+03  0.12028657707E+03  0.10000000000E+01 0.  0.
    9000005    1    3    3    0    0  0.41477081990E+02 -0.46742025486E+02 -0.10336279831E+03  0.12078921041E+03  0.10000000000E+01 0.  0.
<mgrwt>
<rscale>  0 0.12499902E+03</rscale>
<asrwt>0</asrwt>
<pdfrwt beam="1">  1        4 0.26875398E-02 0.12499902E+03</pdfrwt>
<pdfrwt beam="2">  1       -4 0.34401041E-01 0.12499902E+03</pdfrwt>
<totfact> 0.83639244E+03</totfact>
</mgrwt>
</event>
<event>
 5    1  0.3294152E-002  0.1249993E+03  0.7818608E-02  0.1235070E+00
         -4   -1    0    0    0  501 -0.00000000000E+00  0.00000000000E+00  0.22489058101E+02  0.22524889218E+02  0.12700000000E+01 0. -1.
          4   -1    0    0  501    0  0.00000000000E+00 -0.00000000000E+00 -0.17351724854E+03  0.17352189614E+03  0.12700000000E+01 0. -1.
         25    2    1    2    0    0  0.00000000000E+00  0.00000000000E+00 -0.15102819044E+03  0.19604678536E+03  0.12499931097E+03 0.  0.
    9000005    1    3    3    0    0 -0.64901936952E+01 -0.52017466176E+02 -0.22159848687E+02  0.56920982910E+02  0.10000000000E+01 0.  0.
    9000005    1    3    3    0    0  0.64901936952E+01  0.52017466176E+02 -0.12886834175E+03  0.13912580245E+03  0.10000000000E+01 0.  0.
<mgrwt>
<rscale>  0 0.12499931E+03</rscale>
<asrwt>0</asrwt>
<pdfrwt beam="2">  1        4 0.26698074E-01 0.12499931E+03</pdfrwt>
<pdfrwt beam="1">  1       -4 0.34629689E-02 0.12499931E+03</pdfrwt>
<totfact> 0.90807110E+03</totfact>
</mgrwt>
</event>
<event>
 5    1  0.3294152E-002  0.1250025E+03  0.7818608E-02  0.1235065E+00
         -4   -1    0    0    0  501 -0.00000000000E+00  0.00000000000E+00  0.18838821484E+03  0.18839249558E+03  0.12700000000E+01 0.  1.
          4   -1    0    0  501    0  0.00000000000E+00 -0.00000000000E+00 -0.20711961648E+02  0.20750861556E+02  0.12700000000E+01 0.  1.
         25    2    1    2    0    0  0.00000000000E+00  0.00000000000E+00  0.16767625320E+03  0.20914335714E+03  0.12500247177E+03 0.  0.
    9000005    1    3    3    0    0 -0.54701050342E+02  0.25014946573E+02  0.11220478389E+03  0.12731404474E+03  0.10000000000E+01 0.  0.
    9000005    1    3    3    0    0  0.54701050342E+02 -0.25014946573E+02  0.55471469307E+02  0.81829312399E+02  0.10000000000E+01 0.  0.
<mgrwt>
<rscale>  0 0.12500247E+03</rscale>
<asrwt>0</asrwt>
<pdfrwt beam="2">  1        4 0.31897772E-02 0.12500247E+03</pdfrwt>
<pdfrwt beam="1">  1       -4 0.28986124E-01 0.12500247E+03</pdfrwt>
<totfact> 0.88611075E+03</totfact>
</mgrwt>
</event>
<event>
 5    1  0.3294152E-002  0.1250065E+03  0.7818608E-02  0.1235059E+00
         -4   -1    0    0    0  501 -0.00000000000E+00  0.00000000000E+00  0.45111296118E+03  0.45111474886E+03  0.12700000000E+01 0.  1.
          4   -1    0    0  501    0  0.00000000000E+00 -0.00000000000E+00 -0.86116615365E+01  0.87048041000E+01  0.12700000000E+01 0.  1.
         25    2    1    2    0    0  0.00000000000E+00  0.00000000000E+00  0.44250129964E+03  0.45981955296E+03  0.12500648425E+03 0.  0.
    9000005    1    3    3    0    0  0.71976660281E+01  0.39007028044E+02  0.43608033894E+02  0.58957741249E+02  0.10000000000E+01 0.  0.
    9000005    1    3    3    0    0 -0.71976660281E+01 -0.39007028044E+02  0.39889326575E+03  0.40086181172E+03  0.10000000000E+01 0.  0.
<mgrwt>
<rscale>  0 0.12500648E+03</rscale>
<asrwt>0</asrwt>
<pdfrwt beam="2">  1        4 0.13321733E-02 0.12500648E+03</pdfrwt>
<pdfrwt beam="1">  1       -4 0.69409299E-01 0.12500648E+03</pdfrwt>
<totfact> 0.59114025E+03</totfact>
</mgrwt>
</event>
<event>
 5    1  0.3294152E-002  0.1250019E+03  0.7818608E-02  0.1235066E+00
          4   -1    0    0  501    0  0.00000000000E+00  0.00000000000E+00  0.91005278952E+02  0.91014140095E+02  0.12700000000E+01 0. -1.
         -4   -1    0    0    0  501 -0.00000000000E+00 -0.00000000000E+00 -0.42904285952E+02  0.42923078327E+02  0.12700000000E+01 0. -1.
         25    2    1    2    0    0  0.00000000000E+00  0.00000000000E+00  0.48100993000E+02  0.13393721842E+03  0.12500189179E+03 0.  0.
    9000005    1    3    3    0    0 -0.43030397279E+02 -0.45217718827E+02  0.20816281048E+02  0.65807102524E+02  0.10000000000E+01 0.  0.
    9000005    1    3    3    0    0  0.43030397279E+02  0.45217718827E+02  0.27284711952E+02  0.68130115897E+02  0.10000000000E+01 0.  0.
<mgrwt>
<rscale>  0 0.12500189E+03</rscale>
<asrwt>0</asrwt>
<pdfrwt beam="1">  1        4 0.14002939E-01 0.12500189E+03</pdfrwt>
<pdfrwt beam="2">  1       -4 0.66027867E-02 0.12500189E+03</pdfrwt>
<totfact> 0.10260083E+04</totfact>
</mgrwt>
</event>
<event>
 5    1  0.3294152E-002  0.1250019E+03  0.7818608E-02  0.1235066E+00
         -4   -1    0    0    0  501 -0.00000000000E+00  0.00000000000E+00  0.42512591767E+02  0.42531557210E+02  0.12700000000E+01 0. -1.
          4   -1    0    0  501    0  0.00000000000E+00 -0.00000000000E+00 -0.91843517988E+02  0.91852298264E+02  0.12700000000E+01 0. -1.
         25    2    1    2    0    0  0.00000000000E+00  0.00000000000E+00 -0.49330926221E+02  0.13438385547E+03  0.12500192131E+03 0.  0.
    9000005    1    3    3    0    0  0.44787698609E+02 -0.10803143702E+02  0.20725823323E+02  0.50529255021E+02  0.10000000000E+01 0.  0.
    9000005    1    3    3    0    0 -0.44787698609E+02  0.10803143702E+02 -0.70056749544E+02  0.83854600454E+02  0.10000000000E+01 0.  0.
<mgrwt>
<rscale>  0 0.12500192E+03</rscale>
<asrwt>0</asrwt>
<pdfrwt beam="2">  1        4 0.14131906E-01 0.12500192E+03</pdfrwt>
<pdfrwt beam="1">  1       -4 0.65425331E-02 0.12500192E+03</pdfrwt>
<totfact> 0.10250630E+04</totfact>
</mgrwt>
</event>
<event>
 5    1  0.3294152E-002  0.1249981E+03  0.7818608E-02  0.1235072E+00
         -4   -1    0    0    0  501 -0.00000000000E+00  0.00000000000E+00  0.69279079676E+02  0.69290719298E+02  0.12700000000E+01 0.  1.
          4   -1    0    0  501    0  0.00000000000E+00 -0.00000000000E+00 -0.56358987684E+02  0.56373295032E+02  0.12700000000E+01 0.  1.
         25    2    1    2    0    0  0.00000000000E+00  0.00000000000E+00  0.12920091993E+02  0.12566401433E+03  0.12499806287E+03 0.  0.
    9000005    1    3    3    0    0 -0.22824498777E+01 -0.46222268804E+02  0.48676881631E+02  0.67172513100E+02  0.10000000000E+01 0.  0.
    9000005    1    3    3    0    0  0.22824498777E+01  0.46222268804E+02 -0.35756789639E+02  0.58491501230E+02  0.10000000000E+01 0.  0.
<mgrwt>
<rscale>  0 0.12499806E+03</rscale>
<asrwt>0</asrwt>
<pdfrwt beam="2">  1        4 0.86726095E-02 0.12499806E+03</pdfrwt>
<pdfrwt beam="1">  1       -4 0.10660316E-01 0.12499806E+03</pdfrwt>
<totfact> 0.10438793E+04</totfact>
</mgrwt>
</event>
<event>
 5    1  0.3294152E-002  0.1250010E+03  0.7818608E-02  0.1235068E+00
         -4   -1    0    0    0  501 -0.00000000000E+00  0.00000000000E+00  0.13147305425E+03  0.13147918806E+03  0.12700000000E+01 0. -1.
          4   -1    0    0  501    0  0.00000000000E+00 -0.00000000000E+00 -0.29691473876E+02  0.29718622460E+02  0.12700000000E+01 0. -1.
         25    2    1    2    0    0  0.00000000000E+00  0.00000000000E+00  0.10178158037E+03  0.16119781052E+03  0.12500097605E+03 0.  0.
    9000005    1    3    3    0    0  0.73356193770E+01  0.55510773551E+02  0.86676220489E+02  0.10319411073E+03  0.10000000000E+01 0.  0.
    9000005    1    3    3    0    0 -0.73356193770E+01 -0.55510773551E+02  0.15105359883E+02  0.58003699788E+02  0.10000000000E+01 0.  0.
<mgrwt>
<rscale>  0 0.12500098E+03</rscale>
<asrwt>0</asrwt>
<pdfrwt beam="2">  1        4 0.45704792E-02 0.12500098E+03</pdfrwt>
<pdfrwt beam="1">  1       -4 0.20229184E-01 0.12500098E+03</pdfrwt>
<totfact> 0.97110222E+03</totfact>
</mgrwt>
</event>
<event>
 5    1  0.3294152E-002  0.1249955E+03  0.7818608E-02  0.1235076E+00
         -4   -1    0    0    0  501 -0.00000000000E+00  0.00000000000E+00  0.15225877684E+02  0.15278751625E+02  0.12700000000E+01 0.  1.
          4   -1    0    0  501    0  0.00000000000E+00 -0.00000000000E+00 -0.25603572698E+03  0.25603887671E+03  0.12700000000E+01 0.  1.
         25    2    1    2    0    0  0.00000000000E+00  0.00000000000E+00 -0.24080984929E+03  0.27131762834E+03  0.12499548764E+03 0.  0.
    9000005    1    3    3    0    0  0.21574924976E+02  0.50785914374E+02 -0.18407039733E+03  0.19216554753E+03  0.10000000000E+01 0.  0.
    9000005    1    3    3    0    0 -0.21574924976E+02 -0.50785914374E+02 -0.56739451967E+02  0.79152080807E+02  0.10000000000E+01 0.  0.
<mgrwt>
<rscale>  0 0.12499549E+03</rscale>
<asrwt>0</asrwt>
<pdfrwt beam="2">  1        4 0.39394418E-01 0.12499549E+03</pdfrwt>
<pdfrwt beam="1">  1       -4 0.23467524E-02 0.12499549E+03</pdfrwt>
<totfact> 0.79351533E+03</totfact>
</mgrwt>
</event>
<event>
 5    1  0.3294152E-002  0.1249998E+03  0.7818608E-02  0.1235070E+00
         -4   -1    0    0    0  501 -0.00000000000E+00  0.00000000000E+00  0.99691202960E+03  0.99691283855E+03  0.12700000000E+01 0.  1.
          4   -1    0    0  501    0  0.00000000000E+00 -0.00000000000E+00 -0.38145958055E+01  0.40204528550E+01  0.12700000000E+01 0.  1.
         25    2    1    2    0    0  0.00000000000E+00  0.00000000000E+00  0.99309743379E+03  0.10009332914E+04  0.12499976332E+03 0.  0.
    9000005    1    3    3    0    0  0.12715878648E+01  0.62094112754E+02  0.44110627001E+03  0.44545823285E+03  0.10000000000E+01 0.  0.
    9000005    1    3    3    0    0 -0.12715878648E+01 -0.62094112754E+02  0.55199116378E+03  0.55547505855E+03  0.10000000000E+01 0.  0.
<mgrwt>
<rscale>  0 0.12499976E+03</rscale>
<asrwt>0</asrwt>
<pdfrwt beam="2">  1        4 0.60275787E-03 0.12499976E+03</pdfrwt>
<pdfrwt beam="1">  1       -4 0.15338708E+00 0.12499976E+03</pdfrwt>
<totfact> 0.30573822E+03</totfact>
</mgrwt>
</event>
<event>
 5    1  0.3294152E-002  0.1249956E+03  0.7818608E-02  0.1235076E+00
         -4   -1    0    0    0  501 -0.00000000000E+00  0.00000000000E+00  0.61127244154E+03  0.61127376083E+03  0.12700000000E+01 0. -1.
          4   -1    0    0  501    0  0.00000000000E+00 -0.00000000000E+00 -0.63254682757E+01  0.64517012413E+01  0.12700000000E+01 0. -1.
         25    2    1    2    0    0  0.00000000000E+00  0.00000000000E+00  0.60494697326E+03  0.61772546207E+03  0.12499562407E+03 0.  0.
    9000005    1    3    3    0    0 -0.38923693655E+02  0.47741216952E+02  0.25047722485E+03  0.25794208244E+03  0.10000000000E+01 0.  0.
    9000005    1    3    3    0    0  0.38923693655E+02 -0.47741216952E+02  0.35446974841E+03  0.35978337964E+03  0.10000000000E+01 0.  0.
<mgrwt>
<rscale>  0 0.12499562E+03</rscale>
<asrwt>0</asrwt>
<pdfrwt beam="2">  1        4 0.98296072E-03 0.12499562E+03</pdfrwt>
<pdfrwt beam="1">  1       -4 0.94051722E-01 0.12499562E+03</pdfrwt>
<totfact> 0.47772091E+03</totfact>
</mgrwt>
</event>
<event>
 5    1  0.3294152E-002  0.1249948E+03  0.7818608E-02  0.1235077E+00
         -4   -1    0    0    0  501 -0.00000000000E+00  0.00000000000E+00  0.53564742427E+02  0.53579795925E+02  0.12700000000E+01 0.  1.
          4   -1    0    0  501    0  0.00000000000E+00 -0.00000000000E+00 -0.72888884992E+02  0.72899948254E+02  0.12700000000E+01 0.  1.
         25    2    1    2    0    0  0.00000000000E+00  0.00000000000E+00 -0.19324142565E+02  0.12647974418E+03  0.12499481270E+03 0.  0.
    9000005    1    3    3    0    0 -0.36401156975E+02  0.22299005060E+02 -0.55840129641E+02  0.70295162949E+02  0.10000000000E+01 0.  0.
    9000005    1    3    3    0    0  0.36401156975E+02 -0.22299005060E+02  0.36515987076E+02  0.56184581229E+02  0.10000000000E+01 0.  0.
<mgrwt>
<rscale>  0 0.12499481E+03</rscale>
<asrwt>0</asrwt>
<pdfrwt beam="2">  1        4 0.11215684E-01 0.12499481E+03</pdfrwt>
<pdfrwt beam="1">  1       -4 0.82427386E-02 0.12499481E+03</pdfrwt>
<totfact> 0.10421690E+04</totfact>
</mgrwt>
</event>
<event>
 5    1  0.3294152E-002  0.1249999E+03  0.7818608E-02  0.1235069E+00
          4   -1    0    0  501    0  0.00000000000E+00  0.00000000000E+00  0.83426393167E+02  0.83436059212E+02  0.12700000000E+01 0. -1.
         -4   -1    0    0    0  501 -0.00000000000E+00 -0.00000000000E+00 -0.46801646225E+02  0.46818874286E+02  0.12700000000E+01 0. -1.
         25    2    1    2    0    0  0.00000000000E+00  0.00000000000E+00  0.36624746942E+02  0.13025493350E+03  0.12499990245E+03 0.  0.
    9000005    1    3    3    0    0 -0.28773298856E+02 -0.31495904498E+02 -0.29273045753E+02  0.51747521050E+02  0.10000000000E+01 0.  0.
    9000005    1    3    3    0    0  0.28773298856E+02  0.31495904498E+02  0.65897792694E+02  0.78507412447E+02  0.10000000000E+01 0.  0.
<mgrwt>
<rscale>  0 0.12499990E+03</rscale>
<asrwt>0</asrwt>
<pdfrwt beam="1">  1        4 0.12836898E-01 0.12499990E+03</pdfrwt>
<pdfrwt beam="2">  1       -4 0.72023221E-02 0.12499990E+03</pdfrwt>
<totfact> 0.10339080E+04</totfact>
</mgrwt>
</event>
<event>
 5    1  0.3294152E-002  0.1250114E+03  0.7818608E-02  0.1235051E+00
          4   -1    0    0  501    0  0.00000000000E+00  0.00000000000E+00  0.11135326130E+02  0.11207514801E+02  0.12700000000E+01 0. -1.
         -4   -1    0    0    0  501 -0.00000000000E+00 -0.00000000000E+00 -0.34965518417E+03  0.34965749058E+03  0.12700000000E+01 0. -1.
         25    2    1    2    0    0  0.00000000000E+00  0.00000000000E+00 -0.33851985804E+03  0.36086500538E+03  0.12501143075E+03 0.  0.
    9000005    1    3    3    0    0 -0.21884647534E+02  0.56802071079E+01 -0.10701101078E+01  0.22657177364E+02  0.10000000000E+01 0.  0.
    9000005    1    3    3    0    0  0.21884647534E+02 -0.56802071079E+01 -0.33744974794E+03  0.33820782802E+03  0.10000000000E+01 0.  0.
<mgrwt>
<rscale>  0 0.12501143E+03</rscale>
<asrwt>0</asrwt>
<pdfrwt beam="1">  1        4 0.17188578E-02 0.12501143E+03</pdfrwt>
<pdfrwt beam="2">  1       -4 0.53798827E-01 0.12501143E+03</pdfrwt>
<totfact> 0.68528259E+03</totfact>
</mgrwt>
</event>
<event>
 5    1  0.3294152E-002  0.1249984E+03  0.7818608E-02  0.1235072E+00
          4   -1    0    0  501    0  0.00000000000E+00  0.00000000000E+00  0.23789619555E+03  0.23789958545E+03  0.12700000000E+01 0.  1.
         -4   -1    0    0    0  501 -0.00000000000E+00 -0.00000000000E+00 -0.16391486539E+02  0.16440612244E+02  0.12700000000E+01 0.  1.
         25    2    1    2    0    0  0.00000000000E+00  0.00000000000E+00  0.22150470901E+03  0.25434019770E+03  0.12499840019E+03 0.  0.
    9000005    1    3    3    0    0  0.67623359409E+01  0.25422599250E+02 -0.45859333766E+01  0.26722060642E+02  0.10000000000E+01 0.  0.
    9000005    1    3    3    0    0 -0.67623359409E+01 -0.25422599250E+02  0.22609064239E+03  0.22761813706E+03  0.10000000000E+01 0.  0.
<mgrwt>
<rscale>  0 0.12499840E+03</rscale>
<asrwt>0</asrwt>
<pdfrwt beam="1">  1        4 0.36603452E-01 0.12499840E+03</pdfrwt>
<pdfrwt beam="2">  1       -4 0.25258070E-02 0.12499840E+03</pdfrwt>
<totfact> 0.81709866E+03</totfact>
</mgrwt>
</event>
<event>
 5    1  0.3294152E-002  0.1249995E+03  0.7818608E-02  0.1235070E+00
          4   -1    0    0  501    0  0.00000000000E+00  0.00000000000E+00  0.89153727386E+01  0.90053745657E+01  0.12700000000E+01 0.  1.
         -4   -1    0    0    0  501 -0.00000000000E+00 -0.00000000000E+00 -0.43585276744E+03  0.43585461772E+03  0.12700000000E+01 0.  1.
         25    2    1    2    0    0  0.00000000000E+00  0.00000000000E+00 -0.42693739470E+03  0.44485999228E+03  0.12499949496E+03 0.  0.
    9000005    1    3    3    0    0  0.10468264185E+02 -0.41177794117E+02 -0.37655862233E+03  0.37894932555E+03  0.10000000000E+01 0.  0.
    9000005    1    3    3    0    0 -0.10468264185E+02  0.41177794117E+02 -0.50378772366E+02  0.65910666727E+02  0.10000000000E+01 0.  0.
<mgrwt>
<rscale>  0 0.12499949E+03</rscale>
<asrwt>0</asrwt>
<pdfrwt beam="1">  1        4 0.13786617E-02 0.12499949E+03</pdfrwt>
<pdfrwt beam="2">  1       -4 0.67061321E-01 0.12499949E+03</pdfrwt>
<totfact> 0.60412354E+03</totfact>
</mgrwt>
</event>
<event>
 5    1  0.3294152E-002  0.1250008E+03  0.7818608E-02  0.1235068E+00
         -4   -1    0    0    0  501 -0.00000000000E+00  0.00000000000E+00  0.62885411820E+01  0.64155007753E+01  0.12700000000E+01 0. -1.
          4   -1    0    0  501    0  0.00000000000E+00 -0.00000000000E+00 -0.61484185553E+03  0.61484316717E+03  0.12700000000E+01 0. -1.
         25    2    1    2    0    0  0.00000000000E+00  0.00000000000E+00 -0.60855331435E+03  0.62125866794E+03  0.12500078435E+03 0.  0.
    9000005    1    3    3    0    0 -0.39897448277E+02 -0.19665400740E+02 -0.86117192768E+02  0.96931446165E+02  0.10000000000E+01 0.  0.
    9000005    1    3    3    0    0  0.39897448277E+02  0.19665400740E+02 -0.52243612158E+03  0.52432722178E+03  0.10000000000E+01 0.  0.
<mgrwt>
<rscale>  0 0.12500078E+03</rscale>
<asrwt>0</asrwt>
<pdfrwt beam="2">  1        4 0.94600875E-01 0.12500078E+03</pdfrwt>
<pdfrwt beam="1">  1       -4 0.97733537E-03 0.12500078E+03</pdfrwt>
<totfact> 0.47551822E+03</totfact>
</mgrwt>
</event>
<event>
 5    1  0.3294152E-002  0.1249976E+03  0.7818608E-02  0.1235073E+00
         -4   -1    0    0    0  501 -0.00000000000E+00  0.00000000000E+00  0.14836570243E+03  0.14837113789E+03  0.12700000000E+01 0. -1.
          4   -1    0    0  501    0  0.00000000000E+00 -0.00000000000E+00 -0.26306266272E+02  0.26336904624E+02  0.12700000000E+01 0. -1.
         25    2    1    2    0    0  0.00000000000E+00  0.00000000000E+00  0.12205943616E+03  0.17470804251E+03  0.12499757663E+03 0.  0.
    9000005    1    3    3    0    0 -0.58678870993E+02 -0.17141102846E+02  0.42909726248E+02  0.74694523992E+02  0.10000000000E+01 0.  0.
    9000005    1    3    3    0    0  0.58678870993E+02  0.17141102846E+02  0.79149709914E+02  0.10001351852E+03  0.10000000000E+01 0.  0.
<mgrwt>
<rscale>  0 0.12499758E+03</rscale>
<asrwt>0</asrwt>
<pdfrwt beam="2">  1        4 0.40498927E-02 0.12499758E+03</pdfrwt>
<pdfrwt beam="1">  1       -4 0.22828268E-01 0.12499758E+03</pdfrwt>
<totfact> 0.94583480E+03</totfact>
</mgrwt>
</event>
<event>
 5    1  0.3294152E-002  0.1250008E+03  0.7818608E-02  0.1235068E+00
         -4   -1    0    0    0  501 -0.00000000000E+00  0.00000000000E+00  0.29031491053E+02  0.29059256232E+02  0.12700000000E+01 0. -1.
          4   -1    0    0  501    0  0.00000000000E+00 -0.00000000000E+00 -0.13445878811E+03  0.13446478573E+03  0.12700000000E+01 0. -1.
         25    2    1    2    0    0  0.00000000000E+00  0.00000000000E+00 -0.10542729706E+03  0.16352404196E+03  0.12500078933E+03 0.  0.
    9000005    1    3    3    0    0  0.28313796559E+02  0.31634098882E+01  0.20047981258E+02  0.34851108881E+02  0.10000000000E+01 0.  0.
    9000005    1    3    3    0    0 -0.28313796559E+02 -0.31634098882E+01 -0.12547527832E+03  0.12867293308E+03  0.10000000000E+01 0.  0.
<mgrwt>
<rscale>  0 0.12500079E+03</rscale>
<asrwt>0</asrwt>
<pdfrwt beam="2">  1        4 0.20688564E-01 0.12500079E+03</pdfrwt>
<pdfrwt beam="1">  1       -4 0.44689804E-02 0.12500079E+03</pdfrwt>
<totfact> 0.96665933E+03</totfact>
</mgrwt>
</event>
<event>
 5    1  0.3294152E-002  0.1250020E+03  0.7818608E-02  0.1235066E+00
          4   -1    0    0  501    0  0.00000000000E+00  0.00000000000E+00  0.17651293434E+03  0.17651750307E+03  0.12700000000E+01 0. -1.
         -4   -1    0    0    0  501 -0.00000000000E+00 -0.00000000000E+00 -0.22107749960E+02  0.22144198073E+02  0.12700000000E+01 0. -1.
         25    2    1    2    0    0  0.00000000000E+00  0.00000000000E+00  0.15440518438E+03  0.19866170114E+03  0.12500204213E+03 0.  0.
    9000005    1    3    3    0    0 -0.32797211700E+01 -0.54545990704E+02  0.12539059092E+03  0.13678385125E+03  0.10000000000E+01 0.  0.
    9000005    1    3    3    0    0  0.32797211700E+01  0.54545990704E+02  0.29014593459E+02  0.61877849885E+02  0.10000000000E+01 0.  0.
<mgrwt>
<rscale>  0 0.12500204E+03</rscale>
<asrwt>0</asrwt>
<pdfrwt beam="1">  1        4 0.27158990E-01 0.12500204E+03</pdfrwt>
<pdfrwt beam="2">  1       -4 0.34043476E-02 0.12500204E+03</pdfrwt>
<totfact> 0.90357537E+03</totfact>
</mgrwt>
</event>
<event>
 5    1  0.3294152E-002  0.1250009E+03  0.7818608E-02  0.1235068E+00
         -4   -1    0    0    0  501 -0.00000000000E+00  0.00000000000E+00  0.69524436923E+03  0.69524552919E+03  0.12700000000E+01 0.  1.
          4   -1    0    0  501    0  0.00000000000E+00 -0.00000000000E+00 -0.55456659339E+01  0.56892275970E+01  0.12700000000E+01 0.  1.
         25    2    1    2    0    0  0.00000000000E+00  0.00000000000E+00  0.68969870330E+03  0.70093475678E+03  0.12500092772E+03 0.  0.
    9000005    1    3    3    0    0 -0.43433378464E+02 -0.10535308639E+02  0.58977668647E+03  0.59146850380E+03  0.10000000000E+01 0.  0.
    9000005    1    3    3    0    0  0.43433378464E+02  0.10535308639E+02  0.99922016835E+02  0.10946625298E+03  0.10000000000E+01 0.  0.
<mgrwt>
<rscale>  0 0.12500093E+03</rscale>
<asrwt>0</asrwt>
<pdfrwt beam="2">  1        4 0.86431191E-03 0.12500093E+03</pdfrwt>
<pdfrwt beam="1">  1       -4 0.10697179E+00 0.12500093E+03</pdfrwt>
<totfact> 0.43036522E+03</totfact>
</mgrwt>
</event>
<event>
 5    1  0.3294152E-002  0.1249976E+03  0.7818608E-02  0.1235073E+00
         -4   -1    0    0    0  501 -0.00000000000E+00  0.00000000000E+00  0.18471735220E+01  0.22416400292E+01  0.12700000000E+01 0. -1.
          4   -1    0    0  501    0  0.00000000000E+00 -0.00000000000E+00 -0.19102329687E+04  0.19102333908E+04  0.12700000000E+01 0. -1.
         25    2    1    2    0    0  0.00000000000E+00  0.00000000000E+00 -0.19083857951E+04  0.19124750309E+04  0.12499760233E+03 0.  0.
    9000005    1    3    3    0    0 -0.51049848756E+02  0.91946758673E+01 -0.42099593089E+03  0.42418062538E+03  0.10000000000E+01 0.  0.
    9000005    1    3    3    0    0  0.51049848756E+02 -0.91946758673E+01 -0.14873898642E+04  0.14882944055E+04  0.10000000000E+01 0.  0.
<mgrwt>
<rscale>  0 0.12499760E+03</rscale>
<asrwt>0</asrwt>
<pdfrwt beam="2">  1        4 0.29391094E+00 0.12499760E+03</pdfrwt>
<pdfrwt beam="1">  1       -4 0.31455812E-03 0.12499760E+03</pdfrwt>
<totfact> 0.11047915E+03</totfact>
</mgrwt>
</event>
<event>
 5    1  0.3294152E-002  0.1250137E+03  0.7818608E-02  0.1235048E+00
         -4   -1    0    0    0  501 -0.00000000000E+00  0.00000000000E+00  0.80055370954E+02  0.80065443973E+02  0.12700000000E+01 0.  1.
          4   -1    0    0  501    0  0.00000000000E+00 -0.00000000000E+00 -0.48783623901E+02  0.48800152264E+02  0.12700000000E+01 0.  1.
         25    2    1    2    0    0  0.00000000000E+00  0.00000000000E+00  0.31271747053E+02  0.12886559624E+03  0.12501367817E+03 0.  0.
    9000005    1    3    3    0    0  0.27202684281E+02 -0.40108390705E+02 -0.25044463684E+02  0.54560921897E+02  0.10000000000E+01 0.  0.
    9000005    1    3    3    0    0 -0.27202684281E+02  0.40108390705E+02  0.56316210736E+02  0.74304674340E+02  0.10000000000E+01 0.  0.
<mgrwt>
<rscale>  0 0.12501368E+03</rscale>
<asrwt>0</asrwt>
<pdfrwt beam="2">  1        4 0.75072192E-02 0.12501368E+03</pdfrwt>
<pdfrwt beam="1">  1       -4 0.12318257E-01 0.12501368E+03</pdfrwt>
<totfact> 0.10365635E+04</totfact>
</mgrwt>
</event>
<event>
 5    1  0.3294152E-002  0.1249995E+03  0.7818608E-02  0.1235070E+00
         -4   -1    0    0    0  501 -0.00000000000E+00  0.00000000000E+00  0.10898848648E+04  0.10898856048E+04  0.12700000000E+01 0. -1.
          4   -1    0    0  501    0  0.00000000000E+00 -0.00000000000E+00 -0.34707946967E+01  0.36958511640E+01  0.12700000000E+01 0. -1.
         25    2    1    2    0    0  0.00000000000E+00  0.00000000000E+00  0.10864140701E+04  0.10935814559E+04  0.12499947592E+03 0.  0.
    9000005    1    3    3    0    0 -0.13188773004E+02 -0.53782351991E+02  0.28983738940E+03  0.29508167922E+03  0.10000000000E+01 0.  0.
    9000005    1    3    3    0    0  0.13188773004E+02  0.53782351991E+02  0.79657668072E+03  0.79849977670E+03  0.10000000000E+01 0.  0.
<mgrwt>
<rscale>  0 0.12499948E+03</rscale>
<asrwt>0</asrwt>
<pdfrwt beam="2">  1        4 0.55133665E-03 0.12499948E+03</pdfrwt>
<pdfrwt beam="1">  1       -4 0.16769218E+00 0.12499948E+03</pdfrwt>
<totfact> 0.27672275E+03</totfact>
</mgrwt>
</event>
<event>
 5    1  0.3294152E-002  0.1250049E+03  0.7818608E-02  0.1235062E+00
         -4   -1    0    0    0  501 -0.00000000000E+00  0.00000000000E+00  0.28352548443E+02  0.28380977841E+02  0.12700000000E+01 0. -1.
          4   -1    0    0  501    0  0.00000000000E+00 -0.00000000000E+00 -0.13768465043E+03  0.13769050753E+03  0.12700000000E+01 0. -1.
         25    2    1    2    0    0  0.00000000000E+00  0.00000000000E+00 -0.10933210199E+03  0.16607148537E+03  0.12500491882E+03 0.  0.
    9000005    1    3    3    0    0 -0.31832993471E+02 -0.19363261302E+02 -0.12132123152E+03  0.12691775517E+03  0.10000000000E+01 0.  0.
    9000005    1    3    3    0    0  0.31832993471E+02  0.19363261302E+02  0.11989129529E+02  0.39153730199E+02  0.10000000000E+01 0.  0.
<mgrwt>
<rscale>  0 0.12500492E+03</rscale>
<asrwt>0</asrwt>
<pdfrwt beam="2">  1        4 0.21184891E-01 0.12500492E+03</pdfrwt>
<pdfrwt beam="1">  1       -4 0.43645680E-02 0.12500492E+03</pdfrwt>
<totfact> 0.96174228E+03</totfact>
</mgrwt>
</event>
<event>
 5    1  0.3294152E-002  0.1249990E+03  0.7818608E-02  0.1235071E+00
          4   -1    0    0  501    0  0.00000000000E+00  0.00000000000E+00  0.30644493845E+02  0.30670798865E+02  0.12700000000E+01 0.  1.
         -4   -1    0    0    0  501 -0.00000000000E+00 -0.00000000000E+00 -0.12738372064E+03  0.12739005135E+03  0.12700000000E+01 0.  1.
         25    2    1    2    0    0  0.00000000000E+00  0.00000000000E+00 -0.96739226792E+02  0.15806085022E+03  0.12499901748E+03 0.  0.
    9000005    1    3    3    0    0  0.20735799536E+02  0.51376140231E+02 -0.11814776978E+02  0.56657480728E+02  0.10000000000E+01 0.  0.
    9000005    1    3    3    0    0 -0.20735799536E+02 -0.51376140231E+02 -0.84924449813E+02  0.10140336949E+03  0.10000000000E+01 0.  0.
<mgrwt>
<rscale>  0 0.12499902E+03</rscale>
<asrwt>0</asrwt>
<pdfrwt beam="1">  1        4 0.47170480E-02 0.12499902E+03</pdfrwt>
<pdfrwt beam="2">  1       -4 0.19600006E-01 0.12499902E+03</pdfrwt>
<totfact> 0.97720104E+03</totfact>
</mgrwt>
</event>
<event>
 5    1  0.3294152E-002  0.1249994E+03  0.7818608E-02  0.1235070E+00
          4   -1    0    0  501    0  0.00000000000E+00  0.00000000000E+00  0.57688857898E+01  0.59070249073E+01  0.12700000000E+01 0. -1.
         -4   -1    0    0    0  501 -0.00000000000E+00 -0.00000000000E+00 -0.66896771230E+03  0.66896891781E+03  0.12700000000E+01 0. -1.
         25    2    1    2    0    0  0.00000000000E+00  0.00000000000E+00 -0.66319882651E+03  0.67487594272E+03  0.12499941831E+03 0.  0.
    9000005    1    3    3    0    0  0.33468342049E+02  0.11192296210E+02 -0.61004591822E+03  0.61106662464E+03  0.10000000000E+01 0.  0.
    9000005    1    3    3    0    0 -0.33468342049E+02 -0.11192296210E+02 -0.53152908288E+02  0.63809318077E+02  0.10000000000E+01 0.  0.
<mgrwt>
<rscale>  0 0.12499942E+03</rscale>
<asrwt>0</asrwt>
<pdfrwt beam="1">  1        4 0.89824024E-03 0.12499942E+03</pdfrwt>
<pdfrwt beam="2">  1       -4 0.10292877E+00 0.12499942E+03</pdfrwt>
<totfact> 0.44447144E+03</totfact>
</mgrwt>
</event>
<event>
 5    1  0.3294152E-002  0.1249980E+03  0.7818608E-02  0.1235072E+00
          4   -1    0    0  501    0  0.00000000000E+00  0.00000000000E+00  0.24164390513E+02  0.24197740987E+02  0.12700000000E+01 0. -1.
         -4   -1    0    0    0  501 -0.00000000000E+00 -0.00000000000E+00 -0.16150078875E+03  0.16150578214E+03  0.12700000000E+01 0. -1.
         25    2    1    2    0    0  0.00000000000E+00  0.00000000000E+00 -0.13733639823E+03  0.18570352313E+03  0.12499804888E+03 0.  0.
    9000005    1    3    3    0    0 -0.11347154937E+02 -0.50864321499E+02 -0.17436034814E+02  0.54963191653E+02  0.10000000000E+01 0.  0.
    9000005    1    3    3    0    0  0.11347154937E+02  0.50864321499E+02 -0.11990036342E+03  0.13074033148E+03  0.10000000000E+01 0.  0.
<mgrwt>
<rscale>  0 0.12499805E+03</rscale>
<asrwt>0</asrwt>
<pdfrwt beam="1">  1        4 0.37205482E-02 0.12499805E+03</pdfrwt>
<pdfrwt beam="2">  1       -4 0.24849224E-01 0.12499805E+03</pdfrwt>
<totfact> 0.92604358E+03</totfact>
</mgrwt>
</event>
<event>
 5    1  0.3294152E-002  0.1249878E+03  0.7818608E-02  0.1235088E+00
         -4   -1    0    0    0  501 -0.00000000000E+00  0.00000000000E+00  0.24940891291E+02  0.24973204808E+02  0.12700000000E+01 0.  1.
          4   -1    0    0  501    0  0.00000000000E+00 -0.00000000000E+00 -0.15645343801E+03  0.15645859249E+03  0.12700000000E+01 0.  1.
         25    2    1    2    0    0  0.00000000000E+00  0.00000000000E+00 -0.13151254672E+03  0.18143179730E+03  0.12498778791E+03 0.  0.
    9000005    1    3    3    0    0 -0.17117695525E+02 -0.57084540583E+02 -0.38489959824E+02  0.70951654532E+02  0.10000000000E+01 0.  0.
    9000005    1    3    3    0    0  0.17117695525E+02  0.57084540583E+02 -0.93022586894E+02  0.11048014277E+03  0.10000000000E+01 0.  0.
<mgrwt>
<rscale>  0 0.12498779E+03</rscale>
<asrwt>0</asrwt>
<pdfrwt beam="2">  1        4 0.24072641E-01 0.12498779E+03</pdfrwt>
<pdfrwt beam="1">  1       -4 0.38399424E-02 0.12498779E+03</pdfrwt>
<totfact> 0.93385473E+03</totfact>
</mgrwt>
</event>
<event>
 5    1  0.3294152E-002  0.1249988E+03  0.7818608E-02  0.1235071E+00
          4   -1    0    0  501    0  0.00000000000E+00  0.00000000000E+00  0.23650430046E+03  0.23650771031E+03  0.12700000000E+01 0.  1.
         -4   -1    0    0    0  501 -0.00000000000E+00 -0.00000000000E+00 -0.16488351751E+02  0.16537189709E+02  0.12700000000E+01 0.  1.
         25    2    1    2    0    0  0.00000000000E+00  0.00000000000E+00  0.22001594871E+03  0.25304490002E+03  0.12499881495E+03 0.  0.
    9000005    1    3    3    0    0 -0.77361088655E+01  0.13224051394E+02 -0.12637500163E+02  0.19885404850E+02  0.10000000000E+01 0.  0.
    9000005    1    3    3    0    0  0.77361088655E+01 -0.13224051394E+02  0.23265344887E+03  0.23315949517E+03  0.10000000000E+01 0.  0.
<mgrwt>
<rscale>  0 0.12499881E+03</rscale>
<asrwt>0</asrwt>
<pdfrwt beam="1">  1        4 0.36389294E-01 0.12499881E+03</pdfrwt>
<pdfrwt beam="2">  1       -4 0.25406887E-02 0.12499881E+03</pdfrwt>
<totfact> 0.81894290E+03</totfact>
</mgrwt>
</event>
<event>
 4    1  0.3294152E-002  0.1251390E+03  0.7818608E-02  0.1234852E+00
          4   -1    0    0  501    0  0.00000000000E+00  0.00000000000E+00  0.20888398642E+03  0.20888784714E+03  0.12700000000E+01 0. -1.
         -4   -1    0    0    0  501 -0.00000000000E+00 -0.00000000000E+00 -0.18716627278E+02  0.18759665153E+02  0.12700000000E+01 0. -1.
    9000005    1    1    2    0    0  0.55304987963E+02  0.29242012518E+02  0.95906036643E+02  0.11451071939E+03  0.10000000000E+01 0.  0.
    9000005    1    1    2    0    0 -0.55304987963E+02 -0.29242012518E+02  0.94261322495E+02  0.11313679290E+03  0.10000000000E+01 0.  0.
<mgrwt>
<rscale>  0 0.12513898E+03</rscale>
<asrwt>0</asrwt>
<pdfrwt beam="1">  1        4 0.32139606E-01 0.12513898E+03</pdfrwt>
<pdfrwt beam="2">  1       -4 0.28830887E-02 0.12513898E+03</pdfrwt>
<totfact> 0.85406959E+03</totfact>
</mgrwt>
</event>
<event>
 5    1  0.3294152E-002  0.1250067E+03  0.7818608E-02  0.1235059E+00
         -4   -1    0    0    0  501 -0.00000000000E+00  0.00000000000E+00  0.12198336288E+02  0.12264269574E+02  0.12700000000E+01 0. -1.
          4   -1    0    0  501    0  0.00000000000E+00 -0.00000000000E+00 -0.31933210130E+03  0.31933462671E+03  0.12700000000E+01 0. -1.
         25    2    1    2    0    0  0.00000000000E+00  0.00000000000E+00 -0.30713376501E+03  0.33159889629E+03  0.12500671346E+03 0.  0.
    9000005    1    3    3    0    0  0.45400659306E+02 -0.42458297999E+02 -0.17070526544E+03  0.18167337335E+03  0.10000000000E+01 0.  0.
    9000005    1    3    3    0    0 -0.45400659306E+02  0.42458297999E+02 -0.13642849957E+03  0.14992552294E+03  0.10000000000E+01 0.  0.
<mgrwt>
<rscale>  0 0.12500671E+03</rscale>
<asrwt>0</asrwt>
<pdfrwt beam="2">  1        4 0.49133275E-01 0.12500671E+03</pdfrwt>
<pdfrwt beam="1">  1       -4 0.18819334E-02 0.12500671E+03</pdfrwt>
<totfact> 0.71786827E+03</totfact>
</mgrwt>
</event>
<event>
 5    1  0.3294152E-002  0.1249994E+03  0.7818608E-02  0.1235070E+00
          4   -1    0    0  501    0  0.00000000000E+00  0.00000000000E+00  0.31853727438E+02  0.31879034673E+02  0.12700000000E+01 0.  1.
         -4   -1    0    0    0  501 -0.00000000000E+00 -0.00000000000E+00 -0.12255230040E+03  0.12255888068E+03  0.12700000000E+01 0.  1.
         25    2    1    2    0    0  0.00000000000E+00  0.00000000000E+00 -0.90698572961E+02  0.15443791535E+03  0.12499935424E+03 0.  0.
    9000005    1    3    3    0    0 -0.60193968597E+02 -0.14277188541E+02 -0.56265045992E+02  0.83629584290E+02  0.10000000000E+01 0.  0.
    9000005    1    3    3    0    0  0.60193968597E+02  0.14277188541E+02 -0.34433526969E+02  0.70808331061E+02  0.10000000000E+01 0.  0.
<mgrwt>
<rscale>  0 0.12499935E+03</rscale>
<asrwt>0</asrwt>
<pdfrwt beam="1">  1        4 0.49030264E-02 0.12499935E+03</pdfrwt>
<pdfrwt beam="2">  1       -4 0.18856653E-01 0.12499935E+03</pdfrwt>
<totfact> 0.98427386E+03</totfact>
</mgrwt>
</event>
<event>
 5    1  0.3294152E-002  0.1249985E+03  0.7818608E-02  0.1235072E+00
         -4   -1    0    0    0  501 -0.00000000000E+00  0.00000000000E+00  0.20729512672E+01  0.24310547004E+01  0.12700000000E+01 0.  1.
          4   -1    0    0  501    0  0.00000000000E+00 -0.00000000000E+00 -0.17341662385E+04  0.17341667036E+04  0.12700000000E+01 0.  1.
         25    2    1    2    0    0  0.00000000000E+00  0.00000000000E+00 -0.17320932873E+04  0.17365977583E+04  0.12499847293E+03 0.  0.
    9000005    1    3    3    0    0 -0.30035649176E+01  0.19985760036E+02 -0.16875774885E+04  0.16876987977E+04  0.10000000000E+01 0.  0.
    9000005    1    3    3    0    0  0.30035649176E+01 -0.19985760036E+02 -0.44515798728E+02  0.48898960549E+02  0.10000000000E+01 0.  0.
<mgrwt>
<rscale>  0 0.12499847E+03</rscale>
<asrwt>0</asrwt>
<pdfrwt beam="2">  1        4 0.26682132E+00 0.12499847E+03</pdfrwt>
<pdfrwt beam="1">  1       -4 0.34649916E-03 0.12499847E+03</pdfrwt>
<totfact> 0.13706602E+03</totfact>
</mgrwt>
</event>
<event>
 5    1  0.3294152E-002  0.1249979E+03  0.7818608E-02  0.1235073E+00
          4   -1    0    0  501    0  0.00000000000E+00  0.00000000000E+00  0.50146951002E+03  0.50147111819E+03  0.12700000000E+01 0.  1.
         -4   -1    0    0    0  501 -0.00000000000E+00 -0.00000000000E+00 -0.77359463159E+01  0.78395003286E+01  0.12700000000E+01 0.  1.
         25    2    1    2    0    0  0.00000000000E+00  0.00000000000E+00  0.49373356370E+03  0.50931061852E+03  0.12499789682E+03 0.  0.
    9000005    1    3    3    0    0  0.50489788759E+02  0.17783851604E+02  0.37824408626E+03  0.38201449310E+03  0.10000000000E+01 0.  0.
    9000005    1    3    3    0    0 -0.50489788759E+02 -0.17783851604E+02  0.11548947744E+03  0.12729612542E+03  0.10000000000E+01 0.  0.
<mgrwt>
<rscale>  0 0.12499790E+03</rscale>
<asrwt>0</asrwt>
<pdfrwt beam="1">  1        4 0.77157257E-01 0.12499790E+03</pdfrwt>
<pdfrwt beam="2">  1       -4 0.11982348E-02 0.12499790E+03</pdfrwt>
<totfact> 0.55151687E+03</totfact>
</mgrwt>
</event>
<event>
 5    1  0.3294152E-002  0.1249985E+03  0.7818608E-02  0.1235072E+00
          4   -1    0    0  501    0  0.00000000000E+00  0.00000000000E+00  0.78489407520E+02  0.78499681482E+02  0.12700000000E+01 0.  1.
         -4   -1    0    0    0  501 -0.00000000000E+00 -0.00000000000E+00 -0.49745046577E+02  0.49761255600E+02  0.12700000000E+01 0.  1.
         25    2    1    2    0    0  0.00000000000E+00  0.00000000000E+00  0.28744360943E+02  0.12826093708E+03  0.12499851877E+03 0.  0.
    9000005    1    3    3    0    0 -0.38944205357E+02  0.22957565040E+02 -0.29898478632E+02  0.54209039357E+02  0.10000000000E+01 0.  0.
    9000005    1    3    3    0    0  0.38944205357E+02 -0.22957565040E+02  0.58642839575E+02  0.74051897726E+02  0.10000000000E+01 0.  0.
<mgrwt>
<rscale>  0 0.12499852E+03</rscale>
<asrwt>0</asrwt>
<pdfrwt beam="1">  1        4 0.12077331E-01 0.12499852E+03</pdfrwt>
<pdfrwt beam="2">  1       -4 0.76551213E-02 0.12499852E+03</pdfrwt>
<totfact> 0.10382203E+04</totfact>
</mgrwt>
</event>
<event>
 5    1  0.3294152E-002  0.1250001E+03  0.7818608E-02  0.1235069E+00
         -4   -1    0    0    0  501 -0.00000000000E+00  0.00000000000E+00  0.10724200179E+03  0.10724952144E+03  0.12700000000E+01 0.  1.
          4   -1    0    0  501    0  0.00000000000E+00 -0.00000000000E+00 -0.36404828899E+02  0.36426974444E+02  0.12700000000E+01 0.  1.
         25    2    1    2    0    0  0.00000000000E+00  0.00000000000E+00  0.70837172892E+02  0.14367649588E+03  0.12500012162E+03 0.  0.
    9000005    1    3    3    0    0  0.33102969421E+01  0.56324024634E+02  0.66301264295E+02  0.87064409858E+02  0.10000000000E+01 0.  0.
    9000005    1    3    3    0    0 -0.33102969421E+01 -0.56324024634E+02  0.45359085972E+01  0.56612086021E+02  0.10000000000E+01 0.  0.
<mgrwt>
<rscale>  0 0.12500012E+03</rscale>
<asrwt>0</asrwt>
<pdfrwt beam="2">  1        4 0.56030249E-02 0.12500012E+03</pdfrwt>
<pdfrwt beam="1">  1       -4 0.16501051E-01 0.12500012E+03</pdfrwt>
<totfact> 0.10057921E+04</totfact>
</mgrwt>
</event>
<event>
 5    1  0.3294152E-002  0.1250020E+03  0.7818608E-02  0.1235066E+00
         -4   -1    0    0    0  501 -0.00000000000E+00  0.00000000000E+00  0.17262359160E+02  0.17309013368E+02  0.12700000000E+01 0. -1.
          4   -1    0    0  501    0  0.00000000000E+00 -0.00000000000E+00 -0.22594053693E+03  0.22594410621E+03  0.12700000000E+01 0. -1.
         25    2    1    2    0    0  0.00000000000E+00  0.00000000000E+00 -0.20867817777E+03  0.24325311958E+03  0.12500199320E+03 0.  0.
    9000005    1    3    3    0    0  0.66492025773E+01  0.61998390076E+02 -0.11244767669E+03  0.12858262814E+03  0.10000000000E+01 0.  0.
    9000005    1    3    3    0    0 -0.66492025773E+01 -0.61998390076E+02 -0.96230501085E+02  0.11467049144E+03  0.10000000000E+01 0.  0.
<mgrwt>
<rscale>  0 0.12500199E+03</rscale>
<asrwt>0</asrwt>
<pdfrwt beam="2">  1        4 0.34763944E-01 0.12500199E+03</pdfrwt>
<pdfrwt beam="1">  1       -4 0.26596111E-02 0.12500199E+03</pdfrwt>
<totfact> 0.83311546E+03</totfact>
</mgrwt>
</event>
<event>
 5    1  0.3294152E-002  0.1249763E+03  0.7818608E-02  0.1235106E+00
         -4   -1    0    0    0  501 -0.00000000000E+00  0.00000000000E+00  0.22464603957E+03  0.22464962941E+03  0.12700000000E+01 0.  1.
          4   -1    0    0  501    0  0.00000000000E+00 -0.00000000000E+00 -0.17354943446E+02  0.17401349430E+02  0.12700000000E+01 0.  1.
         25    2    1    2    0    0  0.00000000000E+00  0.00000000000E+00  0.20729109612E+03  0.24205097884E+03  0.12497630906E+03 0.  0.
    9000005    1    3    3    0    0 -0.42425883524E+02  0.36883195912E+02  0.15645397103E+03  0.16625032567E+03  0.10000000000E+01 0.  0.
    9000005    1    3    3    0    0  0.42425883524E+02 -0.36883195912E+02  0.50837125089E+02  0.75800653168E+02  0.10000000000E+01 0.  0.
<mgrwt>
<rscale>  0 0.12497631E+03</rscale>
<asrwt>0</asrwt>
<pdfrwt beam="2">  1        4 0.26738370E-02 0.12497631E+03</pdfrwt>
<pdfrwt beam="1">  1       -4 0.34564777E-01 0.12497631E+03</pdfrwt>
<totfact> 0.83536958E+03</totfact>
</mgrwt>
</event>
<event>
 5    1  0.3294152E-002  0.1249973E+03  0.7818608E-02  0.1235073E+00
          4   -1    0    0  501    0  0.00000000000E+00  0.00000000000E+00  0.50368495362E+02  0.50384503819E+02  0.12700000000E+01 0.  1.
         -4   -1    0    0    0  501 -0.00000000000E+00 -0.00000000000E+00 -0.77516565259E+02  0.77526968144E+02  0.12700000000E+01 0.  1.
         25    2    1    2    0    0  0.00000000000E+00  0.00000000000E+00 -0.27148069897E+02  0.12791147196E+03  0.12499730781E+03 0.  0.
    9000005    1    3    3    0    0  0.16164389035E+02  0.55043862572E+02  0.11782010102E+02  0.58574141408E+02  0.10000000000E+01 0.  0.
    9000005    1    3    3    0    0 -0.16164389035E+02 -0.55043862572E+02 -0.38930079999E+02  0.69337330554E+02  0.10000000000E+01 0.  0.
<mgrwt>
<rscale>  0 0.12499731E+03</rscale>
<asrwt>0</asrwt>
<pdfrwt beam="1">  1        4 0.77510310E-02 0.12499731E+03</pdfrwt>
<pdfrwt beam="2">  1       -4 0.11927657E-01 0.12499731E+03</pdfrwt>
<totfact> 0.10390031E+04</totfact>
</mgrwt>
</event>
<event>
 5    1  0.3294152E-002  0.1250001E+03  0.7818608E-02  0.1235069E+00
         -4   -1    0    0    0  501 -0.00000000000E+00  0.00000000000E+00  0.62606639739E+02  0.62619519636E+02  0.12700000000E+01 0. -1.
          4   -1    0    0  501    0  0.00000000000E+00 -0.00000000000E+00 -0.62367856954E+02  0.62380786152E+02  0.12700000000E+01 0. -1.
         25    2    1    2    0    0  0.00000000000E+00  0.00000000000E+00  0.23878278509E+00  0.12500030579E+03  0.12500007772E+03 0.  0.
    9000005    1    3    3    0    0 -0.35580323071E+02 -0.30655895223E+02 -0.41105816398E+02  0.62421402127E+02  0.10000000000E+01 0.  0.
    9000005    1    3    3    0    0  0.35580323071E+02  0.30655895223E+02  0.41344599183E+02  0.62578903661E+02  0.10000000000E+01 0.  0.
<mgrwt>
<rscale>  0 0.12500008E+03</rscale>
<asrwt>0</asrwt>
<pdfrwt beam="2">  1        4 0.95970403E-02 0.12500008E+03</pdfrwt>
<pdfrwt beam="1">  1       -4 0.96337760E-02 0.12500008E+03</pdfrwt>
<totfact> 0.10452837E+04</totfact>
</mgrwt>
</event>
<event>
 5    1  0.3294152E-002  0.1250011E+03  0.7818608E-02  0.1235068E+00
         -4   -1    0    0    0  501 -0.00000000000E+00  0.00000000000E+00  0.10048011860E+02  0.10127953512E+02  0.12700000000E+01 0.  1.
          4   -1    0    0  501    0  0.00000000000E+00 -0.00000000000E+00 -0.38714397536E+03  0.38714605843E+03  0.12700000000E+01 0.  1.
         25    2    1    2    0    0  0.00000000000E+00  0.00000000000E+00 -0.37709596350E+03  0.39727401194E+03  0.12500109950E+03 0.  0.
    9000005    1    3    3    0    0  0.21243912339E+02  0.24890127964E+02 -0.19342557615E+02  0.38025738871E+02  0.10000000000E+01 0.  0.
    9000005    1    3    3    0    0 -0.21243912339E+02 -0.24890127964E+02 -0.35775340588E+03  0.35924827307E+03  0.10000000000E+01 0.  0.
<mgrwt>
<rscale>  0 0.12500110E+03</rscale>
<asrwt>0</asrwt>
<pdfrwt beam="2">  1        4 0.59566910E-01 0.12500110E+03</pdfrwt>
<pdfrwt beam="1">  1       -4 0.15521579E-02 0.12500110E+03</pdfrwt>
<totfact> 0.64817213E+03</totfact>
</mgrwt>
</event>
<event>
 5    1  0.3294152E-002  0.1250025E+03  0.7818608E-02  0.1235065E+00
         -4   -1    0    0    0  501 -0.00000000000E+00  0.00000000000E+00  0.44625952488E+03  0.44626133201E+03  0.12700000000E+01 0. -1.
          4   -1    0    0  501    0  0.00000000000E+00 -0.00000000000E+00 -0.87057658391E+01  0.87979121867E+01  0.12700000000E+01 0. -1.
         25    2    1    2    0    0  0.00000000000E+00  0.00000000000E+00  0.43755375904E+03  0.45505924420E+03  0.12500249468E+03 0.  0.
    9000005    1    3    3    0    0 -0.32461002436E+02 -0.36868635406E+02  0.78142708621E+02  0.92305448737E+02  0.10000000000E+01 0.  0.
    9000005    1    3    3    0    0  0.32461002436E+02  0.36868635406E+02  0.35941105042E+03  0.36275379546E+03  0.10000000000E+01 0.  0.
<mgrwt>
<rscale>  0 0.12500249E+03</rscale>
<asrwt>0</asrwt>
<pdfrwt beam="2">  1        4 0.13465758E-02 0.12500249E+03</pdfrwt>
<pdfrwt beam="1">  1       -4 0.68662535E-01 0.12500249E+03</pdfrwt>
<totfact> 0.59524735E+03</totfact>
</mgrwt>
</event>
<event>
 5    1  0.3294152E-002  0.1250018E+03  0.7818608E-02  0.1235067E+00
          4   -1    0    0  501    0  0.00000000000E+00  0.00000000000E+00  0.68261949651E+02  0.68273762678E+02  0.12700000000E+01 0.  1.
         -4   -1    0    0    0  501 -0.00000000000E+00 -0.00000000000E+00 -0.57202218593E+02  0.57216315086E+02  0.12700000000E+01 0.  1.
         25    2    1    2    0    0  0.00000000000E+00  0.00000000000E+00  0.11059731058E+02  0.12549007776E+03  0.12500176785E+03 0.  0.
    9000005    1    3    3    0    0  0.42624162824E+02 -0.29904961863E+02  0.40222560551E+02  0.65802586407E+02  0.10000000000E+01 0.  0.
    9000005    1    3    3    0    0 -0.42624162824E+02  0.29904961863E+02 -0.29162829493E+02  0.59687491357E+02  0.10000000000E+01 0.  0.
<mgrwt>
<rscale>  0 0.12500177E+03</rscale>
<asrwt>0</asrwt>
<pdfrwt beam="1">  1        4 0.10503831E-01 0.12500177E+03</pdfrwt>
<pdfrwt beam="2">  1       -4 0.88023343E-02 0.12500177E+03</pdfrwt>
<totfact> 0.10441757E+04</totfact>
</mgrwt>
</event>
<event>
 5    1  0.3294152E-002  0.1250045E+03  0.7818608E-02  0.1235062E+00
          4   -1    0    0  501    0  0.00000000000E+00  0.00000000000E+00  0.12897391542E+03  0.12898016808E+03  0.12700000000E+01 0.  1.
         -4   -1    0    0    0  501 -0.00000000000E+00 -0.00000000000E+00 -0.30269007648E+02  0.30295638696E+02  0.12700000000E+01 0.  1.
         25    2    1    2    0    0  0.00000000000E+00  0.00000000000E+00  0.98704907773E+02  0.15927580678E+03  0.12500449515E+03 0.  0.
    9000005    1    3    3    0    0 -0.35920230294E+02  0.33059766236E+02 -0.36136665444E+00  0.48829721214E+02  0.10000000000E+01 0.  0.
    9000005    1    3    3    0    0  0.35920230294E+02 -0.33059766236E+02  0.99066274428E+02  0.11044608557E+03  0.10000000000E+01 0.  0.
<mgrwt>
<rscale>  0 0.12500450E+03</rscale>
<asrwt>0</asrwt>
<pdfrwt beam="1">  1        4 0.19844670E-01 0.12500450E+03</pdfrwt>
<pdfrwt beam="2">  1       -4 0.46592999E-02 0.12500450E+03</pdfrwt>
<totfact> 0.97472736E+03</totfact>
</mgrwt>
</event>
<event>
 5    1  0.3294152E-002  0.1249990E+03  0.7818608E-02  0.1235071E+00
         -4   -1    0    0    0  501 -0.00000000000E+00  0.00000000000E+00  0.15391105346E+03  0.15391629308E+03  0.12700000000E+01 0. -1.
          4   -1    0    0  501    0  0.00000000000E+00 -0.00000000000E+00 -0.25357944619E+02  0.25389727358E+02  0.12700000000E+01 0. -1.
         25    2    1    2    0    0  0.00000000000E+00  0.00000000000E+00  0.12855310884E+03  0.17930602044E+03  0.12499898869E+03 0.  0.
    9000005    1    3    3    0    0  0.42898680966E+02 -0.41188134958E+02  0.36742865956E+02  0.69912784872E+02  0.10000000000E+01 0.  0.
    9000005    1    3    3    0    0 -0.42898680966E+02  0.41188134958E+02  0.91810242883E+02  0.10939323557E+03  0.10000000000E+01 0.  0.
<mgrwt>
<rscale>  0 0.12499899E+03</rscale>
<asrwt>0</asrwt>
<pdfrwt beam="2">  1        4 0.39040701E-02 0.12499899E+03</pdfrwt>
<pdfrwt beam="1">  1       -4 0.23681472E-01 0.12499899E+03</pdfrwt>
<totfact> 0.93744197E+03</totfact>
</mgrwt>
</event>
<event>
 5    1  0.3294152E-002  0.1250132E+03  0.7818608E-02  0.1235049E+00
          4   -1    0    0  501    0  0.00000000000E+00  0.00000000000E+00  0.19887975261E+03  0.19888380754E+03  0.12700000000E+01 0. -1.
         -4   -1    0    0    0  501 -0.00000000000E+00 -0.00000000000E+00 -0.19620641578E+02  0.19661700738E+02  0.12700000000E+01 0. -1.
         25    2    1    2    0    0  0.00000000000E+00  0.00000000000E+00  0.17925911104E+03  0.21854550827E+03  0.12501324049E+03 0.  0.
    9000005    1    3    3    0    0 -0.31592162355E+02 -0.30727237025E+02  0.12158405686E+02  0.45728050978E+02  0.10000000000E+01 0.  0.
    9000005    1    3    3    0    0  0.31592162355E+02  0.30727237025E+02  0.16710070535E+03  0.17281745730E+03  0.10000000000E+01 0.  0.
<mgrwt>
<rscale>  0 0.12501324E+03</rscale>
<asrwt>0</asrwt>
<pdfrwt beam="1">  1        4 0.30600356E-01 0.12501324E+03</pdfrwt>
<pdfrwt beam="2">  1       -4 0.30220305E-02 0.12501324E+03</pdfrwt>
<totfact> 0.87073269E+03</totfact>
</mgrwt>
</event>
<event>
 5    1  0.3294152E-002  0.1250028E+03  0.7818608E-02  0.1235065E+00
         -4   -1    0    0    0  501 -0.00000000000E+00  0.00000000000E+00  0.64974249013E+03  0.64974373131E+03  0.12700000000E+01 0.  1.
          4   -1    0    0  501    0  0.00000000000E+00 -0.00000000000E+00 -0.59439398008E+01  0.60781017066E+01  0.12700000000E+01 0.  1.
         25    2    1    2    0    0  0.00000000000E+00  0.00000000000E+00  0.64379855033E+03  0.65582183302E+03  0.12500281300E+03 0.  0.
    9000005    1    3    3    0    0  0.54800675304E+02  0.29313433715E+02  0.28748219807E+03  0.29412481299E+03  0.10000000000E+01 0.  0.
    9000005    1    3    3    0    0 -0.54800675304E+02 -0.29313433715E+02  0.35631635226E+03  0.36169702003E+03  0.10000000000E+01 0.  0.
<mgrwt>
<rscale>  0 0.12500281E+03</rscale>
<asrwt>0</asrwt>
<pdfrwt beam="2">  1        4 0.92486756E-03 0.12500281E+03</pdfrwt>
<pdfrwt beam="1">  1       -4 0.99970836E-01 0.12500281E+03</pdfrwt>
<totfact> 0.45520409E+03</totfact>
</mgrwt>
</event>
<event>
 5    1  0.3294152E-002  0.1250001E+03  0.7818608E-02  0.1235069E+00
          4   -1    0    0  501    0  0.00000000000E+00  0.00000000000E+00  0.24950437352E+01  0.27996684162E+01  0.12700000000E+01 0.  1.
         -4   -1    0    0    0  501 -0.00000000000E+00 -0.00000000000E+00 -0.14752260387E+04  0.14752265854E+04  0.12700000000E+01 0.  1.
         25    2    1    2    0    0  0.00000000000E+00  0.00000000000E+00 -0.14727309950E+04  0.14780262538E+04  0.12500009331E+03 0.  0.
    9000005    1    3    3    0    0 -0.20443907539E+02 -0.52209679362E+02 -0.41008355713E+03  0.41390014231E+03  0.10000000000E+01 0.  0.
    9000005    1    3    3    0    0  0.20443907539E+02  0.52209679362E+02 -0.10626474378E+04  0.10641261115E+04  0.10000000000E+01 0.  0.
<mgrwt>
<rscale>  0 0.12500009E+03</rscale>
<asrwt>0</asrwt>
<pdfrwt beam="1">  1        4 0.40732878E-03 0.12500009E+03</pdfrwt>
<pdfrwt beam="2">  1       -4 0.22698067E+00 0.12500009E+03</pdfrwt>
<totfact> 0.18365961E+03</totfact>
</mgrwt>
</event>
<event>
 5    1  0.3294152E-002  0.1249985E+03  0.7818608E-02  0.1235072E+00
          4   -1    0    0  501    0  0.00000000000E+00  0.00000000000E+00  0.12081888605E+02  0.12148453904E+02  0.12700000000E+01 0.  1.
         -4   -1    0    0    0  501 -0.00000000000E+00 -0.00000000000E+00 -0.32235063955E+03  0.32235314132E+03  0.12700000000E+01 0.  1.
         25    2    1    2    0    0  0.00000000000E+00  0.00000000000E+00 -0.31026875095E+03  0.33450159522E+03  0.12499847757E+03 0.  0.
    9000005    1    3    3    0    0  0.58411644111E+02 -0.17450228979E+02 -0.11837168785E+03  0.13315136929E+03  0.10000000000E+01 0.  0.
    9000005    1    3    3    0    0 -0.58411644111E+02  0.17450228979E+02 -0.19189706310E+03  0.20135022594E+03  0.10000000000E+01 0.  0.
<mgrwt>
<rscale>  0 0.12499848E+03</rscale>
<asrwt>0</asrwt>
<pdfrwt beam="1">  1        4 0.18640652E-02 0.12499848E+03</pdfrwt>
<pdfrwt beam="2">  1       -4 0.49597712E-01 0.12499848E+03</pdfrwt>
<totfact> 0.71466325E+03</totfact>
</mgrwt>
</event>
<event>
 5    1  0.3294152E-002  0.1250019E+03  0.7818608E-02  0.1235066E+00
         -4   -1    0    0    0  501 -0.00000000000E+00  0.00000000000E+00  0.45427964780E+02  0.45445713594E+02  0.12700000000E+01 0.  1.
          4   -1    0    0  501    0  0.00000000000E+00 -0.00000000000E+00 -0.85951196777E+02  0.85960578915E+02  0.12700000000E+01 0.  1.
         25    2    1    2    0    0  0.00000000000E+00  0.00000000000E+00 -0.40523231997E+02  0.13140629251E+03  0.12500192550E+03 0.  0.
    9000005    1    3    3    0    0 -0.12577719363E+02 -0.60190100945E+02 -0.85403284507E+01  0.62088521372E+02  0.10000000000E+01 0.  0.
    9000005    1    3    3    0    0  0.12577719363E+02  0.60190100945E+02 -0.31982903546E+02  0.69317771137E+02  0.10000000000E+01 0.  0.
<mgrwt>
<rscale>  0 0.12500193E+03</rscale>
<asrwt>0</asrwt>
<pdfrwt beam="2">  1        4 0.13225348E-01 0.12500193E+03</pdfrwt>
<pdfrwt beam="1">  1       -4 0.69910046E-02 0.12500193E+03</pdfrwt>
<totfact> 0.10313939E+04</totfact>
</mgrwt>
</event>
<event>
 5    1  0.3294152E-002  0.1250052E+03  0.7818608E-02  0.1235061E+00
          4   -1    0    0  501    0  0.00000000000E+00  0.00000000000E+00  0.47038281994E+02  0.47055423417E+02  0.12700000000E+01 0.  1.
         -4   -1    0    0    0  501 -0.00000000000E+00 -0.00000000000E+00 -0.83013806894E+02  0.83023520975E+02  0.12700000000E+01 0.  1.
         25    2    1    2    0    0  0.00000000000E+00  0.00000000000E+00 -0.35975524900E+02  0.13007894439E+03  0.12500517342E+03 0.  0.
    9000005    1    3    3    0    0 -0.36835897236E+02 -0.50191439169E+02 -0.12335014674E+02  0.63476109506E+02  0.10000000000E+01 0.  0.
    9000005    1    3    3    0    0  0.36835897236E+02  0.50191439169E+02 -0.23640510226E+02  0.66602834886E+02  0.10000000000E+01 0.  0.
<mgrwt>
<rscale>  0 0.12500517E+03</rscale>
<asrwt>0</asrwt>
<pdfrwt beam="1">  1        4 0.72387246E-02 0.12500517E+03</pdfrwt>
<pdfrwt beam="2">  1       -4 0.12773421E-01 0.12500517E+03</pdfrwt>
<totfact> 0.10341611E+04</totfact>
</mgrwt>
</event>
<event>
 5    1  0.3294152E-002  0.1250004E+03  0.7818608E-02  0.1235069E+00
          4   -1    0    0  501    0  0.00000000000E+00  0.00000000000E+00  0.49719274047E+01  0.51315652697E+01  0.12700000000E+01 0. -1.
         -4   -1    0    0    0  501 -0.00000000000E+00 -0.00000000000E+00 -0.77309210985E+03  0.77309315300E+03  0.12700000000E+01 0. -1.
         25    2    1    2    0    0  0.00000000000E+00  0.00000000000E+00 -0.76812018245E+03  0.77822471827E+03  0.12500038977E+03 0.  0.
    9000005    1    3    3    0    0  0.97420993609E+01  0.49894728437E+02 -0.61032940201E+03  0.61244376998E+03  0.10000000000E+01 0.  0.
    9000005    1    3    3    0    0 -0.97420993609E+01 -0.49894728437E+02 -0.15779078043E+03  0.16578094829E+03  0.10000000000E+01 0.  0.
<mgrwt>
<rscale>  0 0.12500039E+03</rscale>
<asrwt>0</asrwt>
<pdfrwt beam="1">  1        4 0.77727260E-03 0.12500039E+03</pdfrwt>
<pdfrwt beam="2">  1       -4 0.11894951E+00 0.12500039E+03</pdfrwt>
<totfact> 0.39255195E+03</totfact>
</mgrwt>
</event>
<event>
 5    1  0.3294152E-002  0.1250003E+03  0.7818608E-02  0.1235069E+00
         -4   -1    0    0    0  501 -0.00000000000E+00  0.00000000000E+00  0.37156975548E+03  0.37157192586E+03  0.12700000000E+01 0.  1.
          4   -1    0    0  501    0  0.00000000000E+00 -0.00000000000E+00 -0.10472313892E+02  0.10549040632E+02  0.12700000000E+01 0.  1.
         25    2    1    2    0    0  0.00000000000E+00  0.00000000000E+00  0.36109744159E+03  0.38212096649E+03  0.12500028284E+03 0.  0.
    9000005    1    3    3    0    0 -0.20809462131E-01 -0.31262944974E+02  0.34596096698E+03  0.34737208126E+03  0.10000000000E+01 0.  0.
    9000005    1    3    3    0    0  0.20809462131E-01  0.31262944974E+02  0.15136474604E+02  0.34748885233E+02  0.10000000000E+01 0.  0.
<mgrwt>
<rscale>  0 0.12500028E+03</rscale>
<asrwt>0</asrwt>
<pdfrwt beam="2">  1        4 0.16171938E-02 0.12500028E+03</pdfrwt>
<pdfrwt beam="1">  1       -4 0.57170661E-01 0.12500028E+03</pdfrwt>
<totfact> 0.66329211E+03</totfact>
</mgrwt>
</event>
<event>
 5    1  0.3294152E-002  0.1249991E+03  0.7818608E-02  0.1235071E+00
         -4   -1    0    0    0  501 -0.00000000000E+00  0.00000000000E+00  0.21285288890E+03  0.21285667764E+03  0.12700000000E+01 0. -1.
          4   -1    0    0  501    0  0.00000000000E+00 -0.00000000000E+00 -0.18325691408E+02  0.18369645222E+02  0.12700000000E+01 0. -1.
         25    2    1    2    0    0  0.00000000000E+00  0.00000000000E+00  0.19452719750E+03  0.23122632286E+03  0.12499912727E+03 0.  0.
    9000005    1    3    3    0    0 -0.20571601702E+02  0.50593211545E+02  0.15344257707E+03  0.16287568361E+03  0.10000000000E+01 0.  0.
    9000005    1    3    3    0    0  0.20571601702E+02 -0.50593211545E+02  0.41084620421E+02  0.68350639252E+02  0.10000000000E+01 0.  0.
<mgrwt>
<rscale>  0 0.12499913E+03</rscale>
<asrwt>0</asrwt>
<pdfrwt beam="2">  1        4 0.28230099E-02 0.12499913E+03</pdfrwt>
<pdfrwt beam="1">  1       -4 0.32750268E-01 0.12499913E+03</pdfrwt>
<totfact> 0.85123308E+03</totfact>
</mgrwt>
</event>
<event>
 5    1  0.3294152E-002  0.1250003E+03  0.7818608E-02  0.1235069E+00
          4   -1    0    0  501    0  0.00000000000E+00  0.00000000000E+00  0.47776757659E+02  0.47793634225E+02  0.12700000000E+01 0. -1.
         -4   -1    0    0    0  501 -0.00000000000E+00 -0.00000000000E+00 -0.81724649223E+02  0.81734516519E+02  0.12700000000E+01 0. -1.
         25    2    1    2    0    0  0.00000000000E+00  0.00000000000E+00 -0.33947891564E+02  0.12952815074E+03  0.12500032997E+03 0.  0.
    9000005    1    3    3    0    0 -0.17778381070E+02 -0.44359702800E+02 -0.58699326453E+02  0.75699834822E+02  0.10000000000E+01 0.  0.
    9000005    1    3    3    0    0  0.17778381070E+02  0.44359702800E+02  0.24751434889E+02  0.53828315923E+02  0.10000000000E+01 0.  0.
<mgrwt>
<rscale>  0 0.12500033E+03</rscale>
<asrwt>0</asrwt>
<pdfrwt beam="1">  1        4 0.73523277E-02 0.12500033E+03</pdfrwt>
<pdfrwt beam="2">  1       -4 0.12575080E-01 0.12500033E+03</pdfrwt>
<totfact> 0.10354534E+04</totfact>
</mgrwt>
</event>
<event>
 5    1  0.3294152E-002  0.1250020E+03  0.7818608E-02  0.1235066E+00
          4   -1    0    0  501    0  0.00000000000E+00  0.00000000000E+00  0.59984592402E+02  0.59998035182E+02  0.12700000000E+01 0. -1.
         -4   -1    0    0    0  501 -0.00000000000E+00 -0.00000000000E+00 -0.65096027212E+02  0.65108414654E+02  0.12700000000E+01 0. -1.
         25    2    1    2    0    0  0.00000000000E+00  0.00000000000E+00 -0.51114348098E+01  0.12510644984E+03  0.12500198808E+03 0.  0.
    9000005    1    3    3    0    0  0.60695580325E+02  0.14880096318E+02 -0.24963482900E+01  0.62550799293E+02  0.10000000000E+01 0.  0.
    9000005    1    3    3    0    0 -0.60695580325E+02 -0.14880096318E+02 -0.26150865199E+01  0.62555650543E+02  0.10000000000E+01 0.  0.
<mgrwt>
<rscale>  0 0.12500199E+03</rscale>
<asrwt>0</asrwt>
<pdfrwt beam="1">  1        4 0.92303858E-02 0.12500199E+03</pdfrwt>
<pdfrwt beam="2">  1       -4 0.10016760E-01 0.12500199E+03</pdfrwt>
<totfact> 0.10450081E+04</totfact>
</mgrwt>
</event>
<event>
 5    1  0.3294152E-002  0.1250024E+03  0.7818608E-02  0.1235066E+00
          4   -1    0    0  501    0  0.00000000000E+00  0.00000000000E+00  0.45744993403E+02  0.45762619259E+02  0.12700000000E+01 0. -1.
         -4   -1    0    0    0  501 -0.00000000000E+00 -0.00000000000E+00 -0.85356361948E+02  0.85365809461E+02  0.12700000000E+01 0. -1.
         25    2    1    2    0    0  0.00000000000E+00  0.00000000000E+00 -0.39611368545E+02  0.13112842872E+03  0.12500241718E+03 0.  0.
    9000005    1    3    3    0    0  0.40052658837E+02 -0.40979144330E+02 -0.45965645275E+02  0.73466633892E+02  0.10000000000E+01 0.  0.
    9000005    1    3    3    0    0 -0.40052658837E+02  0.40979144330E+02  0.63542767303E+01  0.57661794827E+02  0.10000000000E+01 0.  0.
<mgrwt>
<rscale>  0 0.12500242E+03</rscale>
<asrwt>0</asrwt>
<pdfrwt beam="1">  1        4 0.70397739E-02 0.12500242E+03</pdfrwt>
<pdfrwt beam="2">  1       -4 0.13133830E-01 0.12500242E+03</pdfrwt>
<totfact> 0.10319774E+04</totfact>
</mgrwt>
</event>
<event>
 5    1  0.3294152E-002  0.1250032E+03  0.7818608E-02  0.1235064E+00
         -4   -1    0    0    0  501 -0.00000000000E+00  0.00000000000E+00  0.11965566771E+03  0.11966240727E+03  0.12700000000E+01 0.  1.
          4   -1    0    0  501    0  0.00000000000E+00 -0.00000000000E+00 -0.32627422395E+02  0.32652129978E+02  0.12700000000E+01 0.  1.
         25    2    1    2    0    0  0.00000000000E+00  0.00000000000E+00  0.87028245313E+02  0.15231453725E+03  0.12500321106E+03 0.  0.
    9000005    1    3    3    0    0  0.76680136138E+01  0.31006536625E+02  0.10896442865E+03  0.11355373378E+03  0.10000000000E+01 0.  0.
    9000005    1    3    3    0    0 -0.76680136138E+01 -0.31006536625E+02 -0.21936183333E+02  0.38760803468E+02  0.10000000000E+01 0.  0.
<mgrwt>
<rscale>  0 0.12500321E+03</rscale>
<asrwt>0</asrwt>
<pdfrwt beam="2">  1        4 0.50220225E-02 0.12500321E+03</pdfrwt>
<pdfrwt beam="1">  1       -4 0.18410983E-01 0.12500321E+03</pdfrwt>
<totfact> 0.98837174E+03</totfact>
</mgrwt>
</event>
<event>
 5    1  0.3294152E-002  0.1250082E+03  0.7818608E-02  0.1235056E+00
         -4   -1    0    0    0  501 -0.00000000000E+00  0.00000000000E+00  0.69387540337E+03  0.69387656561E+03  0.12700000000E+01 0. -1.
          4   -1    0    0  501    0  0.00000000000E+00 -0.00000000000E+00 -0.55575537362E+01  0.57008160408E+01  0.12700000000E+01 0. -1.
         25    2    1    2    0    0  0.00000000000E+00  0.00000000000E+00  0.68831784964E+03  0.69957738165E+03  0.12500820290E+03 0.  0.
    9000005    1    3    3    0    0  0.49782818243E+02 -0.36207447724E+02  0.28376750163E+03  0.29036925327E+03  0.10000000000E+01 0.  0.
    9000005    1    3    3    0    0 -0.49782818243E+02  0.36207447724E+02  0.40455034801E+03  0.40920812838E+03  0.10000000000E+01 0.  0.
<mgrwt>
<rscale>  0 0.12500820E+03</rscale>
<asrwt>0</asrwt>
<pdfrwt beam="2">  1        4 0.86611808E-03 0.12500820E+03</pdfrwt>
<pdfrwt beam="1">  1       -4 0.10676114E+00 0.12500820E+03</pdfrwt>
<totfact> 0.43101281E+03</totfact>
</mgrwt>
</event>
<event>
 5    1  0.3294152E-002  0.1250034E+03  0.7818608E-02  0.1235064E+00
          4   -1    0    0  501    0  0.00000000000E+00  0.00000000000E+00  0.69448579167E+02  0.69460190385E+02  0.12700000000E+01 0.  1.
         -4   -1    0    0    0  501 -0.00000000000E+00 -0.00000000000E+00 -0.56226242965E+02  0.56240584083E+02  0.12700000000E+01 0.  1.
         25    2    1    2    0    0  0.00000000000E+00  0.00000000000E+00  0.13222336202E+02  0.12570077447E+03  0.12500341806E+03 0.  0.
    9000005    1    3    3    0    0  0.49113424359E+02 -0.33224096599E+02 -0.13234548121E+02  0.60762836595E+02  0.10000000000E+01 0.  0.
    9000005    1    3    3    0    0 -0.49113424359E+02  0.33224096599E+02  0.26456884323E+02  0.64937937873E+02  0.10000000000E+01 0.  0.
<mgrwt>
<rscale>  0 0.12500342E+03</rscale>
<asrwt>0</asrwt>
<pdfrwt beam="1">  1        4 0.10686393E-01 0.12500342E+03</pdfrwt>
<pdfrwt beam="2">  1       -4 0.86521876E-02 0.12500342E+03</pdfrwt>
<totfact> 0.10436722E+04</totfact>
</mgrwt>
</event>
<event>
 5    1  0.3294152E-002  0.1250221E+03  0.7818608E-02  0.1235035E+00
          4   -1    0    0  501    0  0.00000000000E+00  0.00000000000E+00  0.42728509321E+02  0.42747378970E+02  0.12700000000E+01 0. -1.
         -4   -1    0    0    0  501 -0.00000000000E+00 -0.00000000000E+00 -0.91409118373E+02  0.91417940371E+02  0.12700000000E+01 0. -1.
         25    2    1    2    0    0  0.00000000000E+00  0.00000000000E+00 -0.48680609052E+02  0.13416531934E+03  0.12502212291E+03 0.  0.
    9000005    1    3    3    0    0 -0.71245162137E+00 -0.15889918833E+02  0.40525531591E+02  0.43546708470E+02  0.10000000000E+01 0.  0.
    9000005    1    3    3    0    0  0.71245162137E+00  0.15889918833E+02 -0.89206140643E+02  0.90618610871E+02  0.10000000000E+01 0.  0.
<mgrwt>
<rscale>  0 0.12502212E+03</rscale>
<asrwt>0</asrwt>
<pdfrwt beam="1">  1        4 0.65757470E-02 0.12502212E+03</pdfrwt>
<pdfrwt beam="2">  1       -4 0.14065071E-01 0.12502212E+03</pdfrwt>
<totfact> 0.10250578E+04</totfact>
</mgrwt>
</event>
<event>
 5    1  0.3294152E-002  0.1249961E+03  0.7818608E-02  0.1235075E+00
         -4   -1    0    0    0  501 -0.00000000000E+00  0.00000000000E+00  0.11087993594E+02  0.11160488427E+02  0.12700000000E+01 0. -1.
          4   -1    0    0  501    0  0.00000000000E+00 -0.00000000000E+00 -0.35105174020E+03  0.35105403743E+03  0.12700000000E+01 0. -1.
         25    2    1    2    0    0  0.00000000000E+00  0.00000000000E+00 -0.33996374661E+03  0.36221452586E+03  0.12499605488E+03 0.  0.
    9000005    1    3    3    0    0  0.21756358690E+02 -0.10249388409E+01 -0.25310042771E+00  0.21804900892E+02  0.10000000000E+01 0.  0.
    9000005    1    3    3    0    0 -0.21756358690E+02  0.10249388409E+01 -0.33971064618E+03  0.34040962497E+03  0.10000000000E+01 0.  0.
<mgrwt>
<rscale>  0 0.12499605E+03</rscale>
<asrwt>0</asrwt>
<pdfrwt beam="2">  1        4 0.54013705E-01 0.12499605E+03</pdfrwt>
<pdfrwt beam="1">  1       -4 0.17115987E-02 0.12499605E+03</pdfrwt>
<totfact> 0.68407358E+03</totfact>
</mgrwt>
</event>
<event>
 5    1  0.3294152E-002  0.1249737E+03  0.7818608E-02  0.1235110E+00
         -4   -1    0    0    0  501 -0.00000000000E+00  0.00000000000E+00  0.56583825433E+03  0.56583967956E+03  0.12700000000E+01 0.  1.
          4   -1    0    0  501    0  0.00000000000E+00 -0.00000000000E+00 -0.68406856110E+01  0.69575771378E+01  0.12700000000E+01 0.  1.
         25    2    1    2    0    0  0.00000000000E+00  0.00000000000E+00  0.55899756872E+03  0.57279725669E+03  0.12497365901E+03 0.  0.
    9000005    1    3    3    0    0  0.65363268328E+00  0.52360406349E+02  0.43570708367E+03  0.43884359645E+03  0.10000000000E+01 0.  0.
    9000005    1    3    3    0    0 -0.65363268328E+00 -0.52360406349E+02  0.12329048505E+03  0.13395366024E+03  0.10000000000E+01 0.  0.
<mgrwt>
<rscale>  0 0.12497366E+03</rscale>
<asrwt>0</asrwt>
<pdfrwt beam="2">  1        4 0.10615143E-02 0.12497366E+03</pdfrwt>
<pdfrwt beam="1">  1       -4 0.87061152E-01 0.12497366E+03</pdfrwt>
<totfact> 0.50660284E+03</totfact>
</mgrwt>
</event>
<event>
 5    1  0.3294152E-002  0.1249994E+03  0.7818608E-02  0.1235070E+00
         -4   -1    0    0    0  501 -0.00000000000E+00  0.00000000000E+00  0.85277152040E+02  0.85286608328E+02  0.12700000000E+01 0. -1.
          4   -1    0    0  501    0  0.00000000000E+00 -0.00000000000E+00 -0.45785309701E+02  0.45802920043E+02  0.12700000000E+01 0. -1.
         25    2    1    2    0    0  0.00000000000E+00  0.00000000000E+00  0.39491842339E+02  0.13108952837E+03  0.12499943535E+03 0.  0.
    9000005    1    3    3    0    0 -0.19983621065E+02  0.57238606739E+02  0.38547185612E+01  0.60757403396E+02  0.10000000000E+01 0.  0.
    9000005    1    3    3    0    0  0.19983621065E+02 -0.57238606739E+02  0.35637123778E+02  0.70332124975E+02  0.10000000000E+01 0.  0.
<mgrwt>
<rscale>  0 0.12499944E+03</rscale>
<asrwt>0</asrwt>
<pdfrwt beam="2">  1        4 0.70459759E-02 0.12499944E+03</pdfrwt>
<pdfrwt beam="1">  1       -4 0.13121644E-01 0.12499944E+03</pdfrwt>
<totfact> 0.10321302E+04</totfact>
</mgrwt>
</event>
<event>
 5    1  0.3294152E-002  0.1249990E+03  0.7818608E-02  0.1235071E+00
          4   -1    0    0  501    0  0.00000000000E+00  0.00000000000E+00  0.44922077784E+02  0.44940026396E+02  0.12700000000E+01 0. -1.
         -4   -1    0    0    0  501 -0.00000000000E+00 -0.00000000000E+00 -0.86914803813E+02  0.86924081944E+02  0.12700000000E+01 0. -1.
         25    2    1    2    0    0  0.00000000000E+00  0.00000000000E+00 -0.41992726028E+02  0.13186410834E+03  0.12499901611E+03 0.  0.
    9000005    1    3    3    0    0  0.53986110166E+02  0.27272161570E+02 -0.37572985564E+02  0.71210955138E+02  0.10000000000E+01 0.  0.
    9000005    1    3    3    0    0 -0.53986110166E+02 -0.27272161570E+02 -0.44197404647E+01  0.60653153202E+02  0.10000000000E+01 0.  0.
<mgrwt>
<rscale>  0 0.12499902E+03</rscale>
<asrwt>0</asrwt>
<pdfrwt beam="1">  1        4 0.69131832E-02 0.12499902E+03</pdfrwt>
<pdfrwt beam="2">  1       -4 0.13373603E-01 0.12499902E+03</pdfrwt>
<totfact> 0.10304828E+04</totfact>
</mgrwt>
</event>
<event>
 5    1  0.3294152E-002  0.1250099E+03  0.7818608E-02  0.1235054E+00
          4   -1    0    0  501    0  0.00000000000E+00  0.00000000000E+00  0.79255475508E+02  0.79265650177E+02  0.12700000000E+01 0. -1.
         -4   -1    0    0    0  501 -0.00000000000E+00 -0.00000000000E+00 -0.49273107319E+02  0.49289471542E+02  0.12700000000E+01 0. -1.
         25    2    1    2    0    0  0.00000000000E+00  0.00000000000E+00  0.29982368189E+02  0.12855512172E+03  0.12500990728E+03 0.  0.
    9000005    1    3    3    0    0 -0.32355373031E+02 -0.34133505345E+02 -0.27333059359E+02  0.54406456281E+02  0.10000000000E+01 0.  0.
    9000005    1    3    3    0    0  0.32355373031E+02  0.34133505345E+02  0.57315427548E+02  0.74148665438E+02  0.10000000000E+01 0.  0.
<mgrwt>
<rscale>  0 0.12500991E+03</rscale>
<asrwt>0</asrwt>
<pdfrwt beam="1">  1        4 0.12195192E-01 0.12500991E+03</pdfrwt>
<pdfrwt beam="2">  1       -4 0.75825195E-02 0.12500991E+03</pdfrwt>
<totfact> 0.10373196E+04</totfact>
</mgrwt>
</event>
<event>
 5    1  0.3294152E-002  0.1249907E+03  0.7818608E-02  0.1235084E+00
          4   -1    0    0  501    0  0.00000000000E+00  0.00000000000E+00  0.13080784456E+03  0.13081400957E+03  0.12700000000E+01 0. -1.
         -4   -1    0    0    0  501 -0.00000000000E+00 -0.00000000000E+00 -0.29837707987E+02  0.29864723637E+02  0.12700000000E+01 0. -1.
         25    2    1    2    0    0  0.00000000000E+00  0.00000000000E+00  0.10097013658E+03  0.16067873321E+03  0.12499074696E+03 0.  0.
    9000005    1    3    3    0    0 -0.26856816439E+02 -0.13188806041E+01  0.12299647078E+03  0.12590536073E+03  0.10000000000E+01 0.  0.
    9000005    1    3    3    0    0  0.26856816439E+02  0.13188806041E+01 -0.22026334202E+02  0.34773372481E+02  0.10000000000E+01 0.  0.
<mgrwt>
<rscale>  0 0.12499075E+03</rscale>
<asrwt>0</asrwt>
<pdfrwt beam="1">  1        4 0.20126837E-01 0.12499075E+03</pdfrwt>
<pdfrwt beam="2">  1       -4 0.45929688E-02 0.12499075E+03</pdfrwt>
<totfact> 0.97232309E+03</totfact>
</mgrwt>
</event>
<event>
 5    1  0.3294152E-002  0.1249994E+03  0.7818608E-02  0.1235070E+00
         -4   -1    0    0    0  501 -0.00000000000E+00  0.00000000000E+00  0.54087670410E+01  0.55558672503E+01  0.12700000000E+01 0. -1.
          4   -1    0    0  501    0  0.00000000000E+00 -0.00000000000E+00 -0.71236331905E+03  0.71236445113E+03  0.12700000000E+01 0. -1.
         25    2    1    2    0    0  0.00000000000E+00  0.00000000000E+00 -0.70695455201E+03  0.71792031838E+03  0.12499937972E+03 0.  0.
    9000005    1    3    3    0    0  0.53245929820E+02  0.27875325454E+02 -0.25515813402E+03  0.26214277821E+03  0.10000000000E+01 0.  0.
    9000005    1    3    3    0    0 -0.53245929820E+02 -0.27875325454E+02 -0.45179641799E+03  0.45577754017E+03  0.10000000000E+01 0.  0.
<mgrwt>
<rscale>  0 0.12499938E+03</rscale>
<asrwt>0</asrwt>
<pdfrwt beam="2">  1        4 0.10960569E+00 0.12499938E+03</pdfrwt>
<pdfrwt beam="1">  1       -4 0.84352105E-03 0.12499938E+03</pdfrwt>
<totfact> 0.42158025E+03</totfact>
</mgrwt>
</event>
<event>
 5    1  0.3294152E-002  0.1250079E+03  0.7818608E-02  0.1235057E+00
          4   -1    0    0  501    0  0.00000000000E+00  0.00000000000E+00  0.47913418696E+01  0.49567990590E+01  0.12700000000E+01 0. -1.
         -4   -1    0    0    0  501 -0.00000000000E+00 -0.00000000000E+00 -0.80136980031E+03  0.80137080665E+03  0.12700000000E+01 0. -1.
         25    2    1    2    0    0  0.00000000000E+00  0.00000000000E+00 -0.79657845844E+03  0.80632760571E+03  0.12500786885E+03 0.  0.
    9000005    1    3    3    0    0  0.18529357606E+02 -0.58453078047E+02 -0.32044649548E+03  0.32626225018E+03  0.10000000000E+01 0.  0.
    9000005    1    3    3    0    0 -0.18529357606E+02  0.58453078047E+02 -0.47613196296E+03  0.48006535553E+03  0.10000000000E+01 0.  0.
<mgrwt>
<rscale>  0 0.12500787E+03</rscale>
<asrwt>0</asrwt>
<pdfrwt beam="1">  1        4 0.74993504E-03 0.12500787E+03</pdfrwt>
<pdfrwt beam="2">  1       -4 0.12330036E+00 0.12500787E+03</pdfrwt>
<totfact> 0.37977301E+03</totfact>
</mgrwt>
</event>
<event>
 5    1  0.3294152E-002  0.1250051E+03  0.7818608E-02  0.1235061E+00
         -4   -1    0    0    0  501 -0.00000000000E+00  0.00000000000E+00  0.41581985200E+02  0.41601374896E+02  0.12700000000E+01 0. -1.
          4   -1    0    0  501    0  0.00000000000E+00 -0.00000000000E+00 -0.93902940500E+02  0.93911528231E+02  0.12700000000E+01 0. -1.
         25    2    1    2    0    0  0.00000000000E+00  0.00000000000E+00 -0.52320955300E+02  0.13551290313E+03  0.12500505810E+03 0.  0.
    9000005    1    3    3    0    0 -0.62817815596E+01  0.50332976441E+02 -0.65735279328E+02  0.83036114103E+02  0.10000000000E+01 0.  0.
    9000005    1    3    3    0    0  0.62817815596E+01 -0.50332976441E+02  0.13414324028E+02  0.52476789023E+02  0.10000000000E+01 0.  0.
<mgrwt>
<rscale>  0 0.12500506E+03</rscale>
<asrwt>0</asrwt>
<pdfrwt beam="2">  1        4 0.14448758E-01 0.12500506E+03</pdfrwt>
<pdfrwt beam="1">  1       -4 0.63993806E-02 0.12500506E+03</pdfrwt>
<totfact> 0.10226105E+04</totfact>
</mgrwt>
</event>
<event>
 5    1  0.3294152E-002  0.1250007E+03  0.7818608E-02  0.1235068E+00
          4   -1    0    0  501    0  0.00000000000E+00  0.00000000000E+00  0.81759193146E+01  0.82739686148E+01  0.12700000000E+01 0.  1.
         -4   -1    0    0    0  501 -0.00000000000E+00 -0.00000000000E+00 -0.47483344027E+03  0.47483513865E+03  0.12700000000E+01 0.  1.
         25    2    1    2    0    0  0.00000000000E+00  0.00000000000E+00 -0.46665752095E+03  0.48310910726E+03  0.12500067064E+03 0.  0.
    9000005    1    3    3    0    0 -0.48996694600E+02 -0.38555577469E+02 -0.24976382739E+03  0.25742994796E+03  0.10000000000E+01 0.  0.
    9000005    1    3    3    0    0  0.48996694600E+02  0.38555577469E+02 -0.21689369357E+03  0.22567915931E+03  0.10000000000E+01 0.  0.
<mgrwt>
<rscale>  0 0.12500067E+03</rscale>
<asrwt>0</asrwt>
<pdfrwt beam="1">  1        4 0.12655070E-02 0.12500067E+03</pdfrwt>
<pdfrwt beam="2">  1       -4 0.73058950E-01 0.12500067E+03</pdfrwt>
<totfact> 0.57198293E+03</totfact>
</mgrwt>
</event>
<event>
 5    1  0.3294152E-002  0.1250007E+03  0.7818608E-02  0.1235068E+00
         -4   -1    0    0    0  501 -0.00000000000E+00  0.00000000000E+00  0.23893708607E+02  0.23927436365E+02  0.12700000000E+01 0.  1.
          4   -1    0    0  501    0  0.00000000000E+00 -0.00000000000E+00 -0.16333467997E+03  0.16333961731E+03  0.12700000000E+01 0.  1.
         25    2    1    2    0    0  0.00000000000E+00  0.00000000000E+00 -0.13944097136E+03  0.18726705367E+03  0.12500065958E+03 0.  0.
    9000005    1    3    3    0    0  0.15657488760E+02 -0.58574498889E+02 -0.92399318843E+02  0.11052041891E+03  0.10000000000E+01 0.  0.
    9000005    1    3    3    0    0 -0.15657488760E+02  0.58574498889E+02 -0.47041652522E+02  0.76746634756E+02  0.10000000000E+01 0.  0.
<mgrwt>
<rscale>  0 0.12500066E+03</rscale>
<asrwt>0</asrwt>
<pdfrwt beam="2">  1        4 0.25131386E-01 0.12500066E+03</pdfrwt>
<pdfrwt beam="1">  1       -4 0.36789295E-02 0.12500066E+03</pdfrwt>
<totfact> 0.92323660E+03</totfact>
</mgrwt>
</event>
<event>
 5    1  0.3294152E-002  0.1250023E+03  0.7818608E-02  0.1235066E+00
         -4   -1    0    0    0  501 -0.00000000000E+00  0.00000000000E+00  0.35437101718E+02  0.35459851638E+02  0.12700000000E+01 0.  1.
          4   -1    0    0  501    0  0.00000000000E+00 -0.00000000000E+00 -0.11017282623E+03  0.11018014585E+03  0.12700000000E+01 0.  1.
         25    2    1    2    0    0  0.00000000000E+00  0.00000000000E+00 -0.74735724508E+02  0.14563999748E+03  0.12500232138E+03 0.  0.
    9000005    1    3    3    0    0  0.25944818590E+02 -0.33919545890E+02 -0.90526562715E+02  0.10009859021E+03  0.10000000000E+01 0.  0.
    9000005    1    3    3    0    0 -0.25944818590E+02  0.33919545890E+02  0.15790838208E+02  0.45541407272E+02  0.10000000000E+01 0.  0.
<mgrwt>
<rscale>  0 0.12500232E+03</rscale>
<asrwt>0</asrwt>
<pdfrwt beam="2">  1        4 0.16951978E-01 0.12500232E+03</pdfrwt>
<pdfrwt beam="1">  1       -4 0.54541749E-02 0.12500232E+03</pdfrwt>
<totfact> 0.10017478E+04</totfact>
</mgrwt>
</event>
<event>
 5    1  0.3294152E-002  0.1249988E+03  0.7818608E-02  0.1235071E+00
          4   -1    0    0  501    0  0.00000000000E+00  0.00000000000E+00  0.29449156189E+03  0.29449430032E+03  0.12700000000E+01 0. -1.
         -4   -1    0    0    0  501 -0.00000000000E+00 -0.00000000000E+00 -0.13230922017E+02  0.13291734176E+02  0.12700000000E+01 0. -1.
         25    2    1    2    0    0  0.00000000000E+00  0.00000000000E+00  0.28126063987E+03  0.30778603450E+03  0.12499878196E+03 0.  0.
    9000005    1    3    3    0    0 -0.17051906213E+02 -0.17727451133E+02  0.28208247359E+03  0.28315464315E+03  0.10000000000E+01 0.  0.
    9000005    1    3    3    0    0  0.17051906213E+02  0.17727451133E+02 -0.82183372155E+00  0.24631391350E+02  0.10000000000E+01 0.  0.
<mgrwt>
<rscale>  0 0.12499878E+03</rscale>
<asrwt>0</asrwt>
<pdfrwt beam="1">  1        4 0.45311283E-01 0.12499878E+03</pdfrwt>
<pdfrwt beam="2">  1       -4 0.20404150E-02 0.12499878E+03</pdfrwt>
<totfact> 0.74634454E+03</totfact>
</mgrwt>
</event>
<event>
 5    1  0.3294152E-002  0.1249994E+03  0.7818608E-02  0.1235070E+00
          4   -1    0    0  501    0  0.00000000000E+00  0.00000000000E+00  0.44777364607E+01  0.46543553593E+01  0.12700000000E+01 0.  1.
         -4   -1    0    0    0  501 -0.00000000000E+00 -0.00000000000E+00 -0.85531393117E+03  0.85531487404E+03  0.12700000000E+01 0.  1.
         25    2    1    2    0    0  0.00000000000E+00  0.00000000000E+00 -0.85083619471E+03  0.85996922940E+03  0.12499938114E+03 0.  0.
    9000005    1    3    3    0    0 -0.59645345712E+02  0.68936678205E+01 -0.54460362713E+03  0.54790437177E+03  0.10000000000E+01 0.  0.
    9000005    1    3    3    0    0  0.59645345712E+02 -0.68936678205E+01 -0.30623256758E+03  0.31206485763E+03  0.10000000000E+01 0.  0.
<mgrwt>
<rscale>  0 0.12499938E+03</rscale>
<asrwt>0</asrwt>
<pdfrwt beam="1">  1        4 0.70254181E-03 0.12499938E+03</pdfrwt>
<pdfrwt beam="2">  1       -4 0.13160029E+00 0.12499938E+03</pdfrwt>
<totfact> 0.35723326E+03</totfact>
</mgrwt>
</event>
<event>
 5    1  0.3294152E-002  0.1250033E+03  0.7818608E-02  0.1235064E+00
          4   -1    0    0  501    0  0.00000000000E+00  0.00000000000E+00  0.71125863431E+02  0.71137200879E+02  0.12700000000E+01 0.  1.
         -4   -1    0    0    0  501 -0.00000000000E+00 -0.00000000000E+00 -0.54900129568E+02  0.54914817004E+02  0.12700000000E+01 0.  1.
         25    2    1    2    0    0  0.00000000000E+00  0.00000000000E+00  0.16225733863E+02  0.12605201788E+03  0.12500334705E+03 0.  0.
    9000005    1    3    3    0    0  0.43222311966E+02 -0.12578780789E+02 -0.35598972995E+02  0.57399310589E+02  0.10000000000E+01 0.  0.
    9000005    1    3    3    0    0 -0.43222311966E+02  0.12578780789E+02  0.51824706858E+02  0.68652707294E+02  0.10000000000E+01 0.  0.
<mgrwt>
<rscale>  0 0.12500335E+03</rscale>
<asrwt>0</asrwt>
<pdfrwt beam="1">  1        4 0.10944442E-01 0.12500335E+03</pdfrwt>
<pdfrwt beam="2">  1       -4 0.84481757E-02 0.12500335E+03</pdfrwt>
<totfact> 0.10429029E+04</totfact>
</mgrwt>
</event>
<event>
 5    1  0.3294152E-002  0.1250002E+03  0.7818608E-02  0.1235069E+00
          4   -1    0    0  501    0  0.00000000000E+00  0.00000000000E+00  0.26002312199E+02  0.26033308275E+02  0.12700000000E+01 0. -1.
         -4   -1    0    0    0  501 -0.00000000000E+00 -0.00000000000E+00 -0.15010437623E+03  0.15010974873E+03  0.12700000000E+01 0. -1.
         25    2    1    2    0    0  0.00000000000E+00  0.00000000000E+00 -0.12410206403E+03  0.17614305700E+03  0.12500021694E+03 0.  0.
    9000005    1    3    3    0    0  0.86630762156E+00 -0.53897884254E+02 -0.17500496619E+02  0.56683329100E+02  0.10000000000E+01 0.  0.
    9000005    1    3    3    0    0 -0.86630762156E+00  0.53897884254E+02 -0.10660156741E+03  0.11945972790E+03  0.10000000000E+01 0.  0.
<mgrwt>
<rscale>  0 0.12500022E+03</rscale>
<asrwt>0</asrwt>
<pdfrwt beam="1">  1        4 0.40031534E-02 0.12500022E+03</pdfrwt>
<pdfrwt beam="2">  1       -4 0.23095778E-01 0.12500022E+03</pdfrwt>
<totfact> 0.94315450E+03</totfact>
</mgrwt>
</event>
<event>
 5    1  0.3294152E-002  0.1250417E+03  0.7818608E-02  0.1235004E+00
         -4   -1    0    0    0  501 -0.00000000000E+00  0.00000000000E+00  0.31187280784E+01  0.33673973373E+01  0.12700000000E+01 0.  1.
          4   -1    0    0  501    0  0.00000000000E+00 -0.00000000000E+00 -0.12050494200E+04  0.12050500892E+04  0.12700000000E+01 0.  1.
         25    2    1    2    0    0  0.00000000000E+00  0.00000000000E+00 -0.12019306919E+04  0.12084174865E+04  0.12504172762E+03 0.  0.
    9000005    1    3    3    0    0 -0.28888929954E+02 -0.35623349205E+02 -0.19046624191E+03  0.19591320167E+03  0.10000000000E+01 0.  0.
    9000005    1    3    3    0    0  0.28888929954E+02  0.35623349205E+02 -0.10114644500E+04  0.10125042849E+04  0.10000000000E+01 0.  0.
<mgrwt>
<rscale>  0 0.12504173E+03</rscale>
<asrwt>0</asrwt>
<pdfrwt beam="2">  1        4 0.18541104E+00 0.12504173E+03</pdfrwt>
<pdfrwt beam="1">  1       -4 0.49898516E-03 0.12504173E+03</pdfrwt>
<totfact> 0.24471256E+03</totfact>
</mgrwt>
</event>
<event>
 5    1  0.3294152E-002  0.1250222E+03  0.7818608E-02  0.1235035E+00
          4   -1    0    0  501    0  0.00000000000E+00  0.00000000000E+00  0.69958694686E+02  0.69970221253E+02  0.12700000000E+01 0. -1.
         -4   -1    0    0    0  501 -0.00000000000E+00 -0.00000000000E+00 -0.55833023720E+02  0.55847465813E+02  0.12700000000E+01 0. -1.
         25    2    1    2    0    0  0.00000000000E+00  0.00000000000E+00  0.14125670967E+02  0.12581768707E+03  0.12502222122E+03 0.  0.
    9000005    1    3    3    0    0  0.31689001777E+02 -0.18910981603E+02  0.57830022177E+02  0.68608523696E+02  0.10000000000E+01 0.  0.
    9000005    1    3    3    0    0 -0.31689001777E+02  0.18910981603E+02 -0.43704351210E+02  0.57209163370E+02  0.10000000000E+01 0.  0.
<mgrwt>
<rscale>  0 0.12502222E+03</rscale>
<asrwt>0</asrwt>
<pdfrwt beam="1">  1        4 0.10764874E-01 0.12502222E+03</pdfrwt>
<pdfrwt beam="2">  1       -4 0.85916935E-02 0.12502222E+03</pdfrwt>
<totfact> 0.10429727E+04</totfact>
</mgrwt>
</event>
<event>
 5    1  0.3294152E-002  0.1249978E+03  0.7818608E-02  0.1235073E+00
          4   -1    0    0  501    0  0.00000000000E+00  0.00000000000E+00  0.74247176798E+03  0.74247285415E+03  0.12700000000E+01 0. -1.
         -4   -1    0    0    0  501 -0.00000000000E+00 -0.00000000000E+00 -0.51832108689E+01  0.53365321054E+01  0.12700000000E+01 0. -1.
         25    2    1    2    0    0  0.00000000000E+00  0.00000000000E+00  0.73728855711E+03  0.74780938626E+03  0.12499784687E+03 0.  0.
    9000005    1    3    3    0    0 -0.14985817056E+02  0.32678768735E+02  0.62850908501E+02  0.72413488649E+02  0.10000000000E+01 0.  0.
    9000005    1    3    3    0    0  0.14985817056E+02 -0.32678768735E+02  0.67443764861E+03  0.67539589761E+03  0.10000000000E+01 0.  0.
<mgrwt>
<rscale>  0 0.12499785E+03</rscale>
<asrwt>0</asrwt>
<pdfrwt beam="1">  1        4 0.11423829E+00 0.12499785E+03</pdfrwt>
<pdfrwt beam="2">  1       -4 0.80929461E-03 0.12499785E+03</pdfrwt>
<totfact> 0.40681048E+03</totfact>
</mgrwt>
</event>
<event>
 5    1  0.3294152E-002  0.1250010E+03  0.7818608E-02  0.1235068E+00
          4   -1    0    0  501    0  0.00000000000E+00  0.00000000000E+00  0.15943119381E+03  0.15943625203E+03  0.12700000000E+01 0. -1.
         -4   -1    0    0    0  501 -0.00000000000E+00 -0.00000000000E+00 -0.24479652133E+02  0.24512573683E+02  0.12700000000E+01 0. -1.
         25    2    1    2    0    0  0.00000000000E+00  0.00000000000E+00  0.13495154168E+03  0.18394882571E+03  0.12500100751E+03 0.  0.
    9000005    1    3    3    0    0 -0.37763551426E+02  0.49791357541E+02  0.67797732448E+02  0.92210615588E+02  0.10000000000E+01 0.  0.
    9000005    1    3    3    0    0  0.37763551426E+02 -0.49791357541E+02  0.67153809230E+02  0.91738210121E+02  0.10000000000E+01 0.  0.
<mgrwt>
<rscale>  0 0.12500101E+03</rscale>
<asrwt>0</asrwt>
<pdfrwt beam="1">  1        4 0.24530797E-01 0.12500101E+03</pdfrwt>
<pdfrwt beam="2">  1       -4 0.37690220E-02 0.12500101E+03</pdfrwt>
<totfact> 0.92908895E+03</totfact>
</mgrwt>
</event>
<event>
 5    1  0.3294152E-002  0.1249989E+03  0.7818608E-02  0.1235071E+00
         -4   -1    0    0    0  501 -0.00000000000E+00  0.00000000000E+00  0.33093814705E+02  0.33118174342E+02  0.12700000000E+01 0. -1.
          4   -1    0    0  501    0  0.00000000000E+00 -0.00000000000E+00 -0.11796230861E+03  0.11796914491E+03  0.12700000000E+01 0. -1.
         25    2    1    2    0    0  0.00000000000E+00  0.00000000000E+00 -0.84868493901E+02  0.15108731926E+03  0.12499886713E+03 0.  0.
    9000005    1    3    3    0    0  0.47335238570E+02 -0.60464200071E+01  0.63352748621E+01  0.48148932625E+02  0.10000000000E+01 0.  0.
    9000005    1    3    3    0    0 -0.47335238570E+02  0.60464200071E+01 -0.91203768763E+02  0.10293838663E+03  0.10000000000E+01 0.  0.
<mgrwt>
<rscale>  0 0.12499887E+03</rscale>
<asrwt>0</asrwt>
<pdfrwt beam="2">  1        4 0.18150447E-01 0.12499887E+03</pdfrwt>
<pdfrwt beam="1">  1       -4 0.50937558E-02 0.12499887E+03</pdfrwt>
<totfact> 0.99089924E+03</totfact>
</mgrwt>
</event>
<event>
 5    1  0.3294152E-002  0.1250048E+03  0.7818608E-02  0.1235062E+00
         -4   -1    0    0    0  501 -0.00000000000E+00  0.00000000000E+00  0.76167903955E+02  0.76178491012E+02  0.12700000000E+01 0.  1.
          4   -1    0    0  501    0  0.00000000000E+00 -0.00000000000E+00 -0.51266685721E+02  0.51282413797E+02  0.12700000000E+01 0.  1.
         25    2    1    2    0    0  0.00000000000E+00  0.00000000000E+00  0.24901218234E+02  0.12746090481E+03  0.12500484625E+03 0.  0.
    9000005    1    3    3    0    0 -0.62381898193E+02  0.67377992595E+00  0.16210565368E+02  0.64465010906E+02  0.10000000000E+01 0.  0.
    9000005    1    3    3    0    0  0.62381898193E+02 -0.67377992595E+00  0.86906528655E+01  0.62995893904E+02  0.10000000000E+01 0.  0.
<mgrwt>
<rscale>  0 0.12500485E+03</rscale>
<asrwt>0</asrwt>
<pdfrwt beam="2">  1        4 0.78892067E-02 0.12500485E+03</pdfrwt>
<pdfrwt beam="1">  1       -4 0.11720163E-01 0.12500485E+03</pdfrwt>
<totfact> 0.10398010E+04</totfact>
</mgrwt>
</event>
<event>
 5    1  0.3294152E-002  0.1249961E+03  0.7818608E-02  0.1235075E+00
         -4   -1    0    0    0  501 -0.00000000000E+00  0.00000000000E+00  0.29182505242E+02  0.29210126878E+02  0.12700000000E+01 0.  1.
          4   -1    0    0  501    0  0.00000000000E+00 -0.00000000000E+00 -0.13375348747E+03  0.13375951671E+03  0.12700000000E+01 0.  1.
         25    2    1    2    0    0  0.00000000000E+00  0.00000000000E+00 -0.10457098223E+03  0.16296964359E+03  0.12499605757E+03 0.  0.
    9000005    1    3    3    0    0  0.52228366947E+02  0.28408526361E+02 -0.27201113179E+02  0.65389198207E+02  0.10000000000E+01 0.  0.
    9000005    1    3    3    0    0 -0.52228366947E+02 -0.28408526361E+02 -0.77369869050E+02  0.97580445381E+02  0.10000000000E+01 0.  0.
<mgrwt>
<rscale>  0 0.12499606E+03</rscale>
<asrwt>0</asrwt>
<pdfrwt beam="2">  1        4 0.20580048E-01 0.12499606E+03</pdfrwt>
<pdfrwt beam="1">  1       -4 0.44922048E-02 0.12499606E+03</pdfrwt>
<totfact> 0.96781871E+03</totfact>
</mgrwt>
</event>
<event>
 5    1  0.3294152E-002  0.1250022E+03  0.7818608E-02  0.1235066E+00
         -4   -1    0    0    0  501 -0.00000000000E+00  0.00000000000E+00  0.13432688984E+01  0.18485863067E+01  0.12700000000E+01 0.  1.
          4   -1    0    0  501    0  0.00000000000E+00 -0.00000000000E+00 -0.24472173581E+04  0.24472176876E+04  0.12700000000E+01 0.  1.
         25    2    1    2    0    0  0.00000000000E+00  0.00000000000E+00 -0.24458740892E+04  0.24490662739E+04  0.12500221575E+03 0.  0.
    9000005    1    3    3    0    0  0.52111081107E+02  0.32563494460E+02 -0.14458428296E+04  0.14471483801E+04  0.10000000000E+01 0.  0.
    9000005    1    3    3    0    0 -0.52111081107E+02 -0.32563494460E+02 -0.10000312595E+04  0.10019178938E+04  0.10000000000E+01 0.  0.
<mgrwt>
<rscale>  0 0.12500222E+03</rscale>
<asrwt>0</asrwt>
<pdfrwt beam="2">  1        4 0.37653087E+00 0.12500222E+03</pdfrwt>
<pdfrwt beam="1">  1       -4 0.24555463E-03 0.12500222E+03</pdfrwt>
<totfact> 0.50818893E+02</totfact>
</mgrwt>
</event>
<event>
 5    1  0.3294152E-002  0.1249938E+03  0.7818608E-02  0.1235079E+00
          4   -1    0    0  501    0  0.00000000000E+00  0.00000000000E+00  0.55388471271E+03  0.55388616870E+03  0.12700000000E+01 0. -1.
         -4   -1    0    0    0  501 -0.00000000000E+00 -0.00000000000E+00 -0.69931045546E+01  0.71074898038E+01  0.12700000000E+01 0. -1.
         25    2    1    2    0    0  0.00000000000E+00  0.00000000000E+00  0.54689160816E+03  0.56099365850E+03  0.12499381508E+03 0.  0.
    9000005    1    3    3    0    0  0.51501080408E+02 -0.30844956686E+02  0.19556719574E+03  0.20457590446E+03  0.10000000000E+01 0.  0.
    9000005    1    3    3    0    0 -0.51501080408E+02  0.30844956686E+02  0.35132441242E+03  0.35641775404E+03  0.10000000000E+01 0.  0.
<mgrwt>
<rscale>  0 0.12499382E+03</rscale>
<asrwt>0</asrwt>
<pdfrwt beam="1">  1        4 0.85221949E-01 0.12499382E+03</pdfrwt>
<pdfrwt beam="2">  1       -4 0.10847730E-02 0.12499382E+03</pdfrwt>
<totfact> 0.51433137E+03</totfact>
</mgrwt>
</event>
<event>
 5    1  0.3294152E-002  0.1249991E+03  0.7818608E-02  0.1235071E+00
          4   -1    0    0  501    0  0.00000000000E+00  0.00000000000E+00  0.59809602791E+02  0.59823084892E+02  0.12700000000E+01 0. -1.
         -4   -1    0    0    0  501 -0.00000000000E+00 -0.00000000000E+00 -0.65283443874E+02  0.65295795761E+02  0.12700000000E+01 0. -1.
         25    2    1    2    0    0  0.00000000000E+00  0.00000000000E+00 -0.54738410834E+01  0.12511888065E+03  0.12499908544E+03 0.  0.
    9000005    1    3    3    0    0  0.45602556603E+02 -0.62693906831E+01 -0.45042001913E+02  0.64410250462E+02  0.10000000000E+01 0.  0.
    9000005    1    3    3    0    0 -0.45602556603E+02  0.62693906831E+01  0.39568160829E+02  0.60708630191E+02  0.10000000000E+01 0.  0.
<mgrwt>
<rscale>  0 0.12499909E+03</rscale>
<asrwt>0</asrwt>
<pdfrwt beam="1">  1        4 0.92034645E-02 0.12499909E+03</pdfrwt>
<pdfrwt beam="2">  1       -4 0.10045594E-01 0.12499909E+03</pdfrwt>
<totfact> 0.10450497E+04</totfact>
</mgrwt>
</event>
<event>
 5    1  0.3294152E-002  0.1250038E+03  0.7818608E-02  0.1235063E+00
         -4   -1    0    0    0  501 -0.00000000000E+00  0.00000000000E+00  0.66831874025E+03  0.66831994694E+03  0.12700000000E+01 0. -1.
          4   -1    0    0  501    0  0.00000000000E+00 -0.00000000000E+00 -0.57750402196E+01  0.59130355603E+01  0.12700000000E+01 0. -1.
         25    2    1    2    0    0  0.00000000000E+00  0.00000000000E+00  0.66254370003E+03  0.67423298250E+03  0.12500384087E+03 0.  0.
    9000005    1    3    3    0    0  0.26377314850E+02  0.55452954999E+02  0.39387061448E+03  0.39862997116E+03  0.10000000000E+01 0.  0.
    9000005    1    3    3    0    0 -0.26377314850E+02 -0.55452954999E+02  0.26867308556E+03  0.27560301134E+03  0.10000000000E+01 0.  0.
<mgrwt>
<rscale>  0 0.12500384E+03</rscale>
<asrwt>0</asrwt>
<pdfrwt beam="2">  1        4 0.89917604E-03 0.12500384E+03</pdfrwt>
<pdfrwt beam="1">  1       -4 0.10282892E+00 0.12500384E+03</pdfrwt>
<totfact> 0.44478528E+03</totfact>
</mgrwt>
</event>
<event>
 5    1  0.3294152E-002  0.1250017E+03  0.7818608E-02  0.1235067E+00
          4   -1    0    0  501    0  0.00000000000E+00  0.00000000000E+00  0.21043787022E+03  0.21044170243E+03  0.12700000000E+01 0. -1.
         -4   -1    0    0    0  501 -0.00000000000E+00 -0.00000000000E+00 -0.18537254420E+02  0.18580707775E+02  0.12700000000E+01 0. -1.
         25    2    1    2    0    0  0.00000000000E+00  0.00000000000E+00  0.19190061580E+03  0.22902241021E+03  0.12500167212E+03 0.  0.
    9000005    1    3    3    0    0 -0.47875926477E+02  0.75496150900E+00  0.16952632696E+03  0.17616143118E+03  0.10000000000E+01 0.  0.
    9000005    1    3    3    0    0  0.47875926477E+02 -0.75496150900E+00  0.22374288845E+02  0.52860979032E+02  0.10000000000E+01 0.  0.
<mgrwt>
<rscale>  0 0.12500167E+03</rscale>
<asrwt>0</asrwt>
<pdfrwt beam="1">  1        4 0.32378696E-01 0.12500167E+03</pdfrwt>
<pdfrwt beam="2">  1       -4 0.28555225E-02 0.12500167E+03</pdfrwt>
<totfact> 0.85456742E+03</totfact>
</mgrwt>
</event>
<event>
 4    1  0.3294152E-002  0.1249045E+03  0.7818608E-02  0.1235219E+00
         -4   -1    0    0    0  501 -0.00000000000E+00  0.00000000000E+00  0.12345031742E+02  0.12410185684E+02  0.12700000000E+01 0.  1.
          4   -1    0    0  501    0  0.00000000000E+00 -0.00000000000E+00 -0.31504163004E+03  0.31504418985E+03  0.12700000000E+01 0.  1.
    9000005    1    1    2    0    0  0.27531284567E+02  0.34465656878E+02 -0.26721849188E+03  0.27083680609E+03  0.10000000000E+01 0.  0.
    9000005    1    1    2    0    0 -0.27531284567E+02 -0.34465656878E+02 -0.35478106418E+02  0.56617569437E+02  0.10000000000E+01 0.  0.
<mgrwt>
<rscale>  0 0.12490451E+03</rscale>
<asrwt>0</asrwt>
<pdfrwt beam="2">  1        4 0.48473146E-01 0.12490451E+03</pdfrwt>
<pdfrwt beam="1">  1       -4 0.19044446E-02 0.12490451E+03</pdfrwt>
<totfact> 0.72431351E+03</totfact>
</mgrwt>
</event>
<event>
 5    1  0.3294152E-002  0.1250010E+03  0.7818608E-02  0.1235068E+00
         -4   -1    0    0    0  501 -0.00000000000E+00  0.00000000000E+00  0.10613258958E+02  0.10688974025E+02  0.12700000000E+01 0. -1.
          4   -1    0    0  501    0  0.00000000000E+00 -0.00000000000E+00 -0.36667467302E+03  0.36667687238E+03  0.12700000000E+01 0. -1.
         25    2    1    2    0    0  0.00000000000E+00  0.00000000000E+00 -0.35606141406E+03  0.37736584640E+03  0.12500100577E+03 0.  0.
    9000005    1    3    3    0    0 -0.45971550954E+02 -0.17702148147E+02 -0.61947593631E+02  0.79153356863E+02  0.10000000000E+01 0.  0.
    9000005    1    3    3    0    0  0.45971550954E+02  0.17702148147E+02 -0.29411382043E+03  0.29821248954E+03  0.10000000000E+01 0.  0.
<mgrwt>
<rscale>  0 0.12500101E+03</rscale>
<asrwt>0</asrwt>
<pdfrwt beam="2">  1        4 0.56417472E-01 0.12500101E+03</pdfrwt>
<pdfrwt beam="1">  1       -4 0.16388028E-02 0.12500101E+03</pdfrwt>
<totfact> 0.66813827E+03</totfact>
</mgrwt>
</event>
<event>
 4    1  0.3294152E-002  0.1249381E+03  0.7818608E-02  0.1235166E+00
          4   -1    0    0  501    0  0.00000000000E+00  0.00000000000E+00  0.22468979632E+02  0.22504842716E+02  0.12700000000E+01 0. -1.
         -4   -1    0    0    0  501 -0.00000000000E+00 -0.00000000000E+00 -0.17350183967E+03  0.17350648768E+03  0.12700000000E+01 0. -1.
    9000005    1    1    2    0    0 -0.11055533829E+02 -0.54703091295E+02 -0.11952104731E+03  0.13191259900E+03  0.10000000000E+01 0.  0.
    9000005    1    1    2    0    0  0.11055533829E+02  0.54703091295E+02 -0.31511812726E+02  0.64098731398E+02  0.10000000000E+01 0.  0.
<mgrwt>
<rscale>  0 0.12493805E+03</rscale>
<asrwt>0</asrwt>
<pdfrwt beam="1">  1        4 0.34598825E-02 0.12493805E+03</pdfrwt>
<pdfrwt beam="2">  1       -4 0.26695706E-01 0.12493805E+03</pdfrwt>
<totfact> 0.90937811E+03</totfact>
</mgrwt>
</event>
<event>
 5    1  0.3294152E-002  0.1250191E+03  0.7818608E-02  0.1235039E+00
          4   -1    0    0  501    0  0.00000000000E+00  0.00000000000E+00  0.34511239688E+03  0.34511473364E+03  0.12700000000E+01 0.  1.
         -4   -1    0    0    0  501 -0.00000000000E+00 -0.00000000000E+00 -0.11284240823E+02  0.11355482858E+02  0.12700000000E+01 0.  1.
         25    2    1    2    0    0  0.00000000000E+00  0.00000000000E+00  0.33382815605E+03  0.35647021650E+03  0.12501910845E+03 0.  0.
    9000005    1    3    3    0    0 -0.45523469342E+01  0.57310584572E+02  0.23682783235E+03  0.24370812285E+03  0.10000000000E+01 0.  0.
    9000005    1    3    3    0    0  0.45523469342E+01 -0.57310584572E+02  0.97000323707E+02  0.11276209366E+03  0.10000000000E+01 0.  0.
<mgrwt>
<rscale>  0 0.12501911E+03</rscale>
<asrwt>0</asrwt>
<pdfrwt beam="1">  1        4 0.53099880E-01 0.12501911E+03</pdfrwt>
<pdfrwt beam="2">  1       -4 0.17416968E-02 0.12501911E+03</pdfrwt>
<totfact> 0.68989396E+03</totfact>
</mgrwt>
</event>
<event>
 5    1  0.3294152E-002  0.1250028E+03  0.7818608E-02  0.1235065E+00
          4   -1    0    0  501    0  0.00000000000E+00  0.00000000000E+00  0.41033979762E+03  0.41034176294E+03  0.12700000000E+01 0. -1.
         -4   -1    0    0    0  501 -0.00000000000E+00 -0.00000000000E+00 -0.94756240568E+01  0.95603530932E+01  0.12700000000E+01 0. -1.
         25    2    1    2    0    0  0.00000000000E+00  0.00000000000E+00  0.40086417356E+03  0.41990211603E+03  0.12500280557E+03 0.  0.
    9000005    1    3    3    0    0 -0.17215815321E+02 -0.55946827237E+02  0.12691417770E+03  0.13976637749E+03  0.10000000000E+01 0.  0.
    9000005    1    3    3    0    0  0.17215815321E+02  0.55946827237E+02  0.27394999586E+03  0.28013573854E+03  0.10000000000E+01 0.  0.
<mgrwt>
<rscale>  0 0.12500281E+03</rscale>
<asrwt>0</asrwt>
<pdfrwt beam="1">  1        4 0.63135874E-01 0.12500281E+03</pdfrwt>
<pdfrwt beam="2">  1       -4 0.14644570E-02 0.12500281E+03</pdfrwt>
<totfact> 0.62658209E+03</totfact>
</mgrwt>
</event>
<event>
 5    1  0.3294152E-002  0.1250002E+03  0.7818608E-02  0.1235069E+00
          4   -1    0    0  501    0  0.00000000000E+00  0.00000000000E+00  0.12063871338E+02  0.12130535505E+02  0.12700000000E+01 0.  1.
         -4   -1    0    0    0  501 -0.00000000000E+00 -0.00000000000E+00 -0.32283843482E+03  0.32284093281E+03  0.12700000000E+01 0.  1.
         25    2    1    2    0    0  0.00000000000E+00  0.00000000000E+00 -0.31077456349E+03  0.33497146832E+03  0.12500022111E+03 0.  0.
    9000005    1    3    3    0    0 -0.77399815907E+00 -0.89899908421E+01  0.10322125909E+02  0.13746464701E+02  0.10000000000E+01 0.  0.
    9000005    1    3    3    0    0  0.77399815907E+00  0.89899908421E+01 -0.32109668939E+03  0.32122500362E+03  0.10000000000E+01 0.  0.
<mgrwt>
<rscale>  0 0.12500022E+03</rscale>
<asrwt>0</asrwt>
<pdfrwt beam="1">  1        4 0.18613006E-02 0.12500022E+03</pdfrwt>
<pdfrwt beam="2">  1       -4 0.49672765E-01 0.12500022E+03</pdfrwt>
<totfact> 0.71409803E+03</totfact>
</mgrwt>
</event>
<event>
 5    1  0.3294152E-002  0.1250009E+03  0.7818608E-02  0.1235068E+00
         -4   -1    0    0    0  501 -0.00000000000E+00  0.00000000000E+00  0.58498404590E+01  0.59861117093E+01  0.12700000000E+01 0.  1.
          4   -1    0    0  501    0  0.00000000000E+00 -0.00000000000E+00 -0.65993770418E+03  0.65993892619E+03  0.12700000000E+01 0.  1.
         25    2    1    2    0    0  0.00000000000E+00  0.00000000000E+00 -0.65408786372E+03  0.66592503790E+03  0.12500089052E+03 0.  0.
    9000005    1    3    3    0    0 -0.45550688148E+02 -0.31396888903E+02 -0.17221316249E+03  0.18088394942E+03  0.10000000000E+01 0.  0.
    9000005    1    3    3    0    0  0.45550688148E+02  0.31396888903E+02 -0.48187470123E+03  0.48504108848E+03  0.10000000000E+01 0.  0.
<mgrwt>
<rscale>  0 0.12500089E+03</rscale>
<asrwt>0</asrwt>
<pdfrwt beam="2">  1        4 0.10153940E+00 0.12500089E+03</pdfrwt>
<pdfrwt beam="1">  1       -4 0.91055238E-03 0.12500089E+03</pdfrwt>
<totfact> 0.44946622E+03</totfact>
</mgrwt>
</event>
<event>
 5    1  0.3294152E-002  0.1250057E+03  0.7818608E-02  0.1235060E+00
         -4   -1    0    0    0  501 -0.00000000000E+00  0.00000000000E+00  0.26256114522E+02  0.26286811327E+02  0.12700000000E+01 0.  1.
          4   -1    0    0  501    0  0.00000000000E+00 -0.00000000000E+00 -0.14866798809E+03  0.14867341250E+03  0.12700000000E+01 0.  1.
         25    2    1    2    0    0  0.00000000000E+00  0.00000000000E+00 -0.12241187357E+03  0.17496022383E+03  0.12500565239E+03 0.  0.
    9000005    1    3    3    0    0  0.20326486450E+02 -0.56736750729E+02 -0.38064424747E+02  0.71289026968E+02  0.10000000000E+01 0.  0.
    9000005    1    3    3    0    0 -0.20326486450E+02  0.56736750729E+02 -0.84347448826E+02  0.10367119686E+03  0.10000000000E+01 0.  0.
<mgrwt>
<rscale>  0 0.12500565E+03</rscale>
<asrwt>0</asrwt>
<pdfrwt beam="2">  1        4 0.22874776E-01 0.12500565E+03</pdfrwt>
<pdfrwt beam="1">  1       -4 0.40421809E-02 0.12500565E+03</pdfrwt>
<totfact> 0.94520140E+03</totfact>
</mgrwt>
</event>
<event>
 5    1  0.3294152E-002  0.1250211E+03  0.7818608E-02  0.1235036E+00
         -4   -1    0    0    0  501 -0.00000000000E+00  0.00000000000E+00  0.20614983353E+02  0.20654065910E+02  0.12700000000E+01 0. -1.
          4   -1    0    0  501    0  0.00000000000E+00 -0.00000000000E+00 -0.18932932142E+03  0.18933358088E+03  0.12700000000E+01 0. -1.
         25    2    1    2    0    0  0.00000000000E+00  0.00000000000E+00 -0.16871433807E+03  0.20998764679E+03  0.12502113396E+03 0.  0.
    9000005    1    3    3    0    0 -0.42835837190E+02 -0.42642969036E+02 -0.11108574390E+03  0.12646886674E+03  0.10000000000E+01 0.  0.
    9000005    1    3    3    0    0  0.42835837190E+02  0.42642969036E+02 -0.57628594166E+02  0.83518780053E+02  0.10000000000E+01 0.  0.
<mgrwt>
<rscale>  0 0.12502113E+03</rscale>
<asrwt>0</asrwt>
<pdfrwt beam="2">  1        4 0.29130921E-01 0.12502113E+03</pdfrwt>
<pdfrwt beam="1">  1       -4 0.31748700E-02 0.12502113E+03</pdfrwt>
<totfact> 0.88436107E+03</totfact>
</mgrwt>
</event>
<event>
 5    1  0.3294152E-002  0.1249981E+03  0.7818608E-02  0.1235072E+00
         -4   -1    0    0    0  501 -0.00000000000E+00  0.00000000000E+00  0.68253053655E+02  0.68264868221E+02  0.12700000000E+01 0.  1.
          4   -1    0    0  501    0  0.00000000000E+00 -0.00000000000E+00 -0.57206323913E+02  0.57220419394E+02  0.12700000000E+01 0.  1.
         25    2    1    2    0    0  0.00000000000E+00  0.00000000000E+00  0.11046729742E+02  0.12548528762E+03  0.12499810867E+03 0.  0.
    9000005    1    3    3    0    0 -0.45902309070E+02  0.17021266317E+02 -0.33465954991E+02  0.59310333235E+02  0.10000000000E+01 0.  0.
    9000005    1    3    3    0    0  0.45902309070E+02 -0.17021266317E+02  0.44512684733E+02  0.66174954380E+02  0.10000000000E+01 0.  0.
<mgrwt>
<rscale>  0 0.12499811E+03</rscale>
<asrwt>0</asrwt>
<pdfrwt beam="2">  1        4 0.88029660E-02 0.12499811E+03</pdfrwt>
<pdfrwt beam="1">  1       -4 0.10502463E-01 0.12499811E+03</pdfrwt>
<totfact> 0.10442725E+04</totfact>
</mgrwt>
</event>
<event>
 5    1  0.3294152E-002  0.1250000E+03  0.7818608E-02  0.1235069E+00
         -4   -1    0    0    0  501 -0.00000000000E+00  0.00000000000E+00  0.24416799257E+03  0.24417129540E+03  0.12700000000E+01 0.  1.
          4   -1    0    0  501    0  0.00000000000E+00 -0.00000000000E+00 -0.15969580895E+02  0.16020000436E+02  0.12700000000E+01 0.  1.
         25    2    1    2    0    0  0.00000000000E+00  0.00000000000E+00  0.22819841168E+03  0.26019129584E+03  0.12499998135E+03 0.  0.
    9000005    1    3    3    0    0 -0.42597188235E+02  0.10527766360E+00  0.20927586861E+03  0.21356947514E+03  0.10000000000E+01 0.  0.
    9000005    1    3    3    0    0  0.42597188235E+02 -0.10527766360E+00  0.18922543068E+02  0.46621820696E+02  0.10000000000E+01 0.  0.
<mgrwt>
<rscale>  0 0.12499998E+03</rscale>
<asrwt>0</asrwt>
<pdfrwt beam="2">  1        4 0.24609911E-02 0.12499998E+03</pdfrwt>
<pdfrwt beam="1">  1       -4 0.37568439E-01 0.12499998E+03</pdfrwt>
<totfact> 0.80879255E+03</totfact>
</mgrwt>
</event>
<event>
 5    1  0.3294152E-002  0.1250275E+03  0.7818608E-02  0.1235026E+00
          4   -1    0    0  501    0  0.00000000000E+00  0.00000000000E+00  0.66726543712E+02  0.66738628513E+02  0.12700000000E+01 0. -1.
         -4   -1    0    0    0  501 -0.00000000000E+00 -0.00000000000E+00 -0.58542689936E+02  0.58556463733E+02  0.12700000000E+01 0. -1.
         25    2    1    2    0    0  0.00000000000E+00  0.00000000000E+00  0.81838537763E+01  0.12529509225E+03  0.12502753568E+03 0.  0.
    9000005    1    3    3    0    0  0.55850969047E+02 -0.24580716789E+02  0.17664498369E+02  0.63534060817E+02  0.10000000000E+01 0.  0.
    9000005    1    3    3    0    0 -0.55850969047E+02  0.24580716789E+02 -0.94806445930E+01  0.61761031429E+02  0.10000000000E+01 0.  0.
<mgrwt>
<rscale>  0 0.12502754E+03</rscale>
<asrwt>0</asrwt>
<pdfrwt beam="1">  1        4 0.10267611E-01 0.12502754E+03</pdfrwt>
<pdfrwt beam="2">  1       -4 0.90085569E-02 0.12502754E+03</pdfrwt>
<totfact> 0.10439959E+04</totfact>
</mgrwt>
</event>
<event>
 5    1  0.3294152E-002  0.1250022E+03  0.7818608E-02  0.1235066E+00
         -4   -1    0    0    0  501 -0.00000000000E+00  0.00000000000E+00  0.52958097379E+02  0.52973323268E+02  0.12700000000E+01 0.  1.
          4   -1    0    0  501    0  0.00000000000E+00 -0.00000000000E+00 -0.73732468854E+02  0.73743405558E+02  0.12700000000E+01 0.  1.
         25    2    1    2    0    0  0.00000000000E+00  0.00000000000E+00 -0.20774371474E+02  0.12671672883E+03  0.12500221940E+03 0.  0.
    9000005    1    3    3    0    0  0.26514584548E+02 -0.14833552680E+02 -0.65746941794E+02  0.72434231094E+02  0.10000000000E+01 0.  0.
    9000005    1    3    3    0    0 -0.26514584548E+02  0.14833552680E+02  0.44972570320E+02  0.54282497732E+02  0.10000000000E+01 0.  0.
<mgrwt>
<rscale>  0 0.12500222E+03</rscale>
<asrwt>0</asrwt>
<pdfrwt beam="2">  1        4 0.11345469E-01 0.12500222E+03</pdfrwt>
<pdfrwt beam="1">  1       -4 0.81494121E-02 0.12500222E+03</pdfrwt>
<totfact> 0.10414784E+04</totfact>
</mgrwt>
</event>
<event>
 5    1  0.3294152E-002  0.1250000E+03  0.7818608E-02  0.1235069E+00
         -4   -1    0    0    0  501 -0.00000000000E+00  0.00000000000E+00  0.68489753527E+01  0.69657277712E+01  0.12700000000E+01 0.  1.
          4   -1    0    0  501    0  0.00000000000E+00 -0.00000000000E+00 -0.56540307885E+03  0.56540450518E+03  0.12700000000E+01 0.  1.
         25    2    1    2    0    0  0.00000000000E+00  0.00000000000E+00 -0.55855410350E+03  0.57237023295E+03  0.12499998812E+03 0.  0.
    9000005    1    3    3    0    0 -0.35371120406E+02 -0.51497054482E+02 -0.28604784689E+03  0.29279247512E+03  0.10000000000E+01 0.  0.
    9000005    1    3    3    0    0  0.35371120406E+02  0.51497054482E+02 -0.27250625661E+03  0.27957775783E+03  0.10000000000E+01 0.  0.
<mgrwt>
<rscale>  0 0.12499999E+03</rscale>
<asrwt>0</asrwt>
<pdfrwt beam="2">  1        4 0.86994144E-01 0.12499999E+03</pdfrwt>
<pdfrwt beam="1">  1       -4 0.10627796E-02 0.12499999E+03</pdfrwt>
<totfact> 0.50659484E+03</totfact>
</mgrwt>
</event>
<event>
 5    1  0.3294152E-002  0.1249899E+03  0.7818608E-02  0.1235085E+00
          4   -1    0    0  501    0  0.00000000000E+00  0.00000000000E+00  0.36517229879E+03  0.36517450719E+03  0.12700000000E+01 0. -1.
         -4   -1    0    0    0  501 -0.00000000000E+00 -0.00000000000E+00 -0.10655331520E+02  0.10730749731E+02  0.12700000000E+01 0. -1.
         25    2    1    2    0    0  0.00000000000E+00  0.00000000000E+00  0.35451696727E+03  0.37590525692E+03  0.12498992800E+03 0.  0.
    9000005    1    3    3    0    0  0.17546253701E+02  0.58471156990E+02  0.13714791946E+03  0.15012427862E+03  0.10000000000E+01 0.  0.
    9000005    1    3    3    0    0 -0.17546253701E+02 -0.58471156990E+02  0.21736904781E+03  0.22578097830E+03  0.10000000000E+01 0.  0.
<mgrwt>
<rscale>  0 0.12498993E+03</rscale>
<asrwt>0</asrwt>
<pdfrwt beam="1">  1        4 0.56186328E-01 0.12498993E+03</pdfrwt>
<pdfrwt beam="2">  1       -4 0.16452530E-02 0.12498993E+03</pdfrwt>
<totfact> 0.66980534E+03</totfact>
</mgrwt>
</event>
<event>
 5    1  0.3294152E-002  0.1249995E+03  0.7818608E-02  0.1235070E+00
         -4   -1    0    0    0  501 -0.00000000000E+00  0.00000000000E+00  0.45963602107E+01  0.47685875463E+01  0.12700000000E+01 0.  1.
          4   -1    0    0  501    0  0.00000000000E+00 -0.00000000000E+00 -0.83404810832E+03  0.83404907523E+03  0.12700000000E+01 0.  1.
         25    2    1    2    0    0  0.00000000000E+00  0.00000000000E+00 -0.82945174811E+03  0.83881766278E+03  0.12499947578E+03 0.  0.
    9000005    1    3    3    0    0  0.46729805632E+02 -0.36590033777E+02 -0.54600490890E+03  0.54922205514E+03  0.10000000000E+01 0.  0.
    9000005    1    3    3    0    0 -0.46729805632E+02  0.36590033777E+02 -0.28344683921E+03  0.28959560764E+03  0.10000000000E+01 0.  0.
<mgrwt>
<rscale>  0 0.12499948E+03</rscale>
<asrwt>0</asrwt>
<pdfrwt beam="2">  1        4 0.12832830E+00 0.12499948E+03</pdfrwt>
<pdfrwt beam="1">  1       -4 0.72045564E-03 0.12499948E+03</pdfrwt>
<totfact> 0.36589786E+03</totfact>
</mgrwt>
</event>
<event>
 5    1  0.3294152E-002  0.1250001E+03  0.7818608E-02  0.1235069E+00
          4   -1    0    0  501    0  0.00000000000E+00  0.00000000000E+00  0.23100287415E+03  0.23100636520E+03  0.12700000000E+01 0.  1.
         -4   -1    0    0    0  501 -0.00000000000E+00 -0.00000000000E+00 -0.16882532277E+02  0.16930233197E+02  0.12700000000E+01 0.  1.
         25    2    1    2    0    0  0.00000000000E+00  0.00000000000E+00  0.21412034187E+03  0.24793659840E+03  0.12500014409E+03 0.  0.
    9000005    1    3    3    0    0  0.27922931426E+01 -0.40942547612E+02  0.20054066836E+03  0.20469892225E+03  0.10000000000E+01 0.  0.
    9000005    1    3    3    0    0 -0.27922931426E+01  0.40942547612E+02  0.13579673513E+02  0.43237676148E+02  0.10000000000E+01 0.  0.
<mgrwt>
<rscale>  0 0.12500014E+03</rscale>
<asrwt>0</asrwt>
<pdfrwt beam="1">  1        4 0.35542836E-01 0.12500014E+03</pdfrwt>
<pdfrwt beam="2">  1       -4 0.26012509E-02 0.12500014E+03</pdfrwt>
<totfact> 0.82629109E+03</totfact>
</mgrwt>
</event>
<event>
 5    1  0.3294152E-002  0.1249986E+03  0.7818608E-02  0.1235071E+00
         -4   -1    0    0    0  501 -0.00000000000E+00  0.00000000000E+00  0.45503047205E+01  0.47242113680E+01  0.12700000000E+01 0.  1.
          4   -1    0    0  501    0  0.00000000000E+00 -0.00000000000E+00 -0.84216883865E+03  0.84216979624E+03  0.12700000000E+01 0.  1.
         25    2    1    2    0    0  0.00000000000E+00  0.00000000000E+00 -0.83761853393E+03  0.84689400761E+03  0.12499860693E+03 0.  0.
    9000005    1    3    3    0    0  0.66366473545E+00  0.60982973974E+02 -0.51116120275E+03  0.51478746951E+03  0.10000000000E+01 0.  0.
    9000005    1    3    3    0    0 -0.66366473545E+00 -0.60982973974E+02 -0.32645733118E+03  0.33210653810E+03  0.10000000000E+01 0.  0.
<mgrwt>
<rscale>  0 0.12499861E+03</rscale>
<asrwt>0</asrwt>
<pdfrwt beam="2">  1        4 0.12957777E+00 0.12499861E+03</pdfrwt>
<pdfrwt beam="1">  1       -4 0.71349864E-03 0.12499861E+03</pdfrwt>
<totfact> 0.36255895E+03</totfact>
</mgrwt>
</event>
<event>
 5    1  0.3294152E-002  0.1249987E+03  0.7818608E-02  0.1235071E+00
          4   -1    0    0  501    0  0.00000000000E+00  0.00000000000E+00  0.32232612524E+02  0.32257622512E+02  0.12700000000E+01 0.  1.
         -4   -1    0    0    0  501 -0.00000000000E+00 -0.00000000000E+00 -0.12111148101E+03  0.12111813957E+03  0.12700000000E+01 0.  1.
         25    2    1    2    0    0  0.00000000000E+00  0.00000000000E+00 -0.88878868490E+02  0.15337576208E+03  0.12499868452E+03 0.  0.
    9000005    1    3    3    0    0  0.14429979981E+02 -0.47580133115E+02  0.20105594165E+01  0.49770832208E+02  0.10000000000E+01 0.  0.
    9000005    1    3    3    0    0 -0.14429979981E+02  0.47580133115E+02 -0.90889427907E+02  0.10360492988E+03  0.10000000000E+01 0.  0.
<mgrwt>
<rscale>  0 0.12499868E+03</rscale>
<asrwt>0</asrwt>
<pdfrwt beam="1">  1        4 0.49612996E-02 0.12499868E+03</pdfrwt>
<pdfrwt beam="2">  1       -4 0.18634971E-01 0.12499868E+03</pdfrwt>
<totfact> 0.98637916E+03</totfact>
</mgrwt>
</event>
<event>
 5    1  0.3294152E-002  0.1250002E+03  0.7818608E-02  0.1235069E+00
          4   -1    0    0  501    0  0.00000000000E+00  0.00000000000E+00  0.18188099175E+02  0.18232384693E+02  0.12700000000E+01 0. -1.
         -4   -1    0    0    0  501 -0.00000000000E+00 -0.00000000000E+00 -0.21446282789E+03  0.21446658819E+03  0.12700000000E+01 0. -1.
         25    2    1    2    0    0  0.00000000000E+00  0.00000000000E+00 -0.19627472872E+03  0.23269897288E+03  0.12500017138E+03 0.  0.
    9000005    1    3    3    0    0  0.58931739790E+02  0.11585381258E+02 -0.13027821313E+03  0.14345934556E+03  0.10000000000E+01 0.  0.
    9000005    1    3    3    0    0 -0.58931739790E+02 -0.11585381258E+02 -0.65996515593E+02  0.89239627319E+02  0.10000000000E+01 0.  0.
<mgrwt>
<rscale>  0 0.12500017E+03</rscale>
<asrwt>0</asrwt>
<pdfrwt beam="1">  1        4 0.28018651E-02 0.12500017E+03</pdfrwt>
<pdfrwt beam="2">  1       -4 0.32997975E-01 0.12500017E+03</pdfrwt>
<totfact> 0.84896559E+03</totfact>
</mgrwt>
</event>
<event>
 5    1  0.3294152E-002  0.1249986E+03  0.7818608E-02  0.1235072E+00
          4   -1    0    0  501    0  0.00000000000E+00  0.00000000000E+00  0.72130512427E+02  0.72141691988E+02  0.12700000000E+01 0.  1.
         -4   -1    0    0    0  501 -0.00000000000E+00 -0.00000000000E+00 -0.54131233639E+02  0.54146129643E+02  0.12700000000E+01 0.  1.
         25    2    1    2    0    0  0.00000000000E+00  0.00000000000E+00  0.17999278787E+02  0.12628782163E+03  0.12499855941E+03 0.  0.
    9000005    1    3    3    0    0 -0.49414397954E+02  0.38143736178E+02  0.60657889915E+01  0.62725761301E+02  0.10000000000E+01 0.  0.
    9000005    1    3    3    0    0  0.49414397954E+02 -0.38143736178E+02  0.11933489796E+02  0.63562060330E+02  0.10000000000E+01 0.  0.
<mgrwt>
<rscale>  0 0.12499856E+03</rscale>
<asrwt>0</asrwt>
<pdfrwt beam="1">  1        4 0.11099008E-01 0.12499856E+03</pdfrwt>
<pdfrwt beam="2">  1       -4 0.83298879E-02 0.12499856E+03</pdfrwt>
<totfact> 0.10424998E+04</totfact>
</mgrwt>
</event>
<event>
 5    1  0.3294152E-002  0.1249919E+03  0.7818608E-02  0.1235082E+00
         -4   -1    0    0    0  501 -0.00000000000E+00  0.00000000000E+00  0.40342974900E+02  0.40362959799E+02  0.12700000000E+01 0. -1.
          4   -1    0    0  501    0  0.00000000000E+00 -0.00000000000E+00 -0.96765389908E+02  0.96773723624E+02  0.12700000000E+01 0. -1.
         25    2    1    2    0    0  0.00000000000E+00  0.00000000000E+00 -0.56422415008E+02  0.13713668342E+03  0.12499192384E+03 0.  0.
    9000005    1    3    3    0    0 -0.59976062368E+02  0.57831145413E+01 -0.10044180515E+02  0.61093846116E+02  0.10000000000E+01 0.  0.
    9000005    1    3    3    0    0  0.59976062368E+02 -0.57831145413E+01 -0.46378234493E+02  0.76042837307E+02  0.10000000000E+01 0.  0.
<mgrwt>
<rscale>  0 0.12499192E+03</rscale>
<asrwt>0</asrwt>
<pdfrwt beam="2">  1        4 0.14889161E-01 0.12499192E+03</pdfrwt>
<pdfrwt beam="1">  1       -4 0.62087899E-02 0.12499192E+03</pdfrwt>
<totfact> 0.10195085E+04</totfact>
</mgrwt>
</event>
<event>
 5    1  0.3294152E-002  0.1249951E+03  0.7818608E-02  0.1235077E+00
          4   -1    0    0  501    0  0.00000000000E+00  0.00000000000E+00  0.73247168335E+01  0.74340013917E+01  0.12700000000E+01 0. -1.
         -4   -1    0    0    0  501 -0.00000000000E+00 -0.00000000000E+00 -0.52919659501E+03  0.52919811892E+03  0.12700000000E+01 0. -1.
         25    2    1    2    0    0  0.00000000000E+00  0.00000000000E+00 -0.52187187818E+03  0.53663212032E+03  0.12499510119E+03 0.  0.
    9000005    1    3    3    0    0  0.47011909465E+02  0.17877805477E+02 -0.10172683107E+03  0.11348605077E+03  0.10000000000E+01 0.  0.
    9000005    1    3    3    0    0 -0.47011909465E+02 -0.17877805477E+02 -0.42014504711E+03  0.42314606954E+03  0.10000000000E+01 0.  0.
<mgrwt>
<rscale>  0 0.12499510E+03</rscale>
<asrwt>0</asrwt>
<pdfrwt beam="1">  1        4 0.11354037E-02 0.12499510E+03</pdfrwt>
<pdfrwt beam="2">  1       -4 0.81423355E-01 0.12499510E+03</pdfrwt>
<totfact> 0.53135849E+03</totfact>
</mgrwt>
</event>
<event>
 5    1  0.3294152E-002  0.1249983E+03  0.7818608E-02  0.1235072E+00
         -4   -1    0    0    0  501 -0.00000000000E+00  0.00000000000E+00  0.28025600370E+02  0.28054361089E+02  0.12700000000E+01 0. -1.
          4   -1    0    0  501    0  0.00000000000E+00 -0.00000000000E+00 -0.13927458776E+03  0.13928037800E+03  0.12700000000E+01 0. -1.
         25    2    1    2    0    0  0.00000000000E+00  0.00000000000E+00 -0.11124898739E+03  0.16733473908E+03  0.12499831083E+03 0.  0.
    9000005    1    3    3    0    0 -0.40853946323E+02 -0.33926544838E+02 -0.11526923754E+02  0.54350026182E+02  0.10000000000E+01 0.  0.
    9000005    1    3    3    0    0  0.40853946323E+02  0.33926544838E+02 -0.99722063631E+02  0.11298471290E+03  0.10000000000E+01 0.  0.
<mgrwt>
<rscale>  0 0.12499831E+03</rscale>
<asrwt>0</asrwt>
<pdfrwt beam="2">  1        4 0.21429517E-01 0.12499831E+03</pdfrwt>
<pdfrwt beam="1">  1       -4 0.43142887E-02 0.12499831E+03</pdfrwt>
<totfact> 0.95950688E+03</totfact>
</mgrwt>
</event>
<event>
 5    1  0.3294152E-002  0.1250019E+03  0.7818608E-02  0.1235066E+00
          4   -1    0    0  501    0  0.00000000000E+00  0.00000000000E+00  0.29859866025E+02  0.29886861645E+02  0.12700000000E+01 0. -1.
         -4   -1    0    0    0  501 -0.00000000000E+00 -0.00000000000E+00 -0.13073423524E+03  0.13074040372E+03  0.12700000000E+01 0. -1.
         25    2    1    2    0    0  0.00000000000E+00  0.00000000000E+00 -0.10087436921E+03  0.16062726536E+03  0.12500192004E+03 0.  0.
    9000005    1    3    3    0    0 -0.47383021249E+02 -0.14627918996E+02 -0.99305037717E+02  0.11100278029E+03  0.10000000000E+01 0.  0.
    9000005    1    3    3    0    0  0.47383021249E+02  0.14627918996E+02 -0.15693314978E+01  0.49624485067E+02  0.10000000000E+01 0.  0.
<mgrwt>
<rscale>  0 0.12500192E+03</rscale>
<asrwt>0</asrwt>
<pdfrwt beam="1">  1        4 0.45963767E-02 0.12500192E+03</pdfrwt>
<pdfrwt beam="2">  1       -4 0.20115510E-01 0.12500192E+03</pdfrwt>
<totfact> 0.97217794E+03</totfact>
</mgrwt>
</event>
<event>
 5    1  0.3294152E-002  0.1249915E+03  0.7818608E-02  0.1235083E+00
         -4   -1    0    0    0  501 -0.00000000000E+00  0.00000000000E+00  0.40433632779E+03  0.40433832228E+03  0.12700000000E+01 0.  1.
          4   -1    0    0  501    0  0.00000000000E+00 -0.00000000000E+00 -0.96158146478E+01  0.96993191174E+01  0.12700000000E+01 0.  1.
         25    2    1    2    0    0  0.00000000000E+00  0.00000000000E+00  0.39472051314E+03  0.41403764140E+03  0.12499153973E+03 0.  0.
    9000005    1    3    3    0    0 -0.21942601718E+02  0.58165727830E+02  0.21830830302E+03  0.22698952582E+03  0.10000000000E+01 0.  0.
    9000005    1    3    3    0    0  0.21942601718E+02 -0.58165727830E+02  0.17641221012E+03  0.18704811558E+03  0.10000000000E+01 0.  0.
<mgrwt>
<rscale>  0 0.12499154E+03</rscale>
<asrwt>0</asrwt>
<pdfrwt beam="2">  1        4 0.14859335E-02 0.12499154E+03</pdfrwt>
<pdfrwt beam="1">  1       -4 0.62212142E-01 0.12499154E+03</pdfrwt>
<totfact> 0.63221839E+03</totfact>
</mgrwt>
</event>
<event>
 5    1  0.3294152E-002  0.1250406E+03  0.7818608E-02  0.1235006E+00
          4   -1    0    0  501    0  0.00000000000E+00  0.00000000000E+00  0.88273570820E+03  0.88273662178E+03  0.12700000000E+01 0.  1.
         -4   -1    0    0    0  501 -0.00000000000E+00 -0.00000000000E+00 -0.43360452354E+01  0.45182063126E+01  0.12700000000E+01 0.  1.
         25    2    1    2    0    0  0.00000000000E+00  0.00000000000E+00  0.87839966296E+03  0.88725482809E+03  0.12504064170E+03 0.  0.
    9000005    1    3    3    0    0 -0.44118024065E+02 -0.43573012252E+02  0.49542340809E+03  0.49928985642E+03  0.10000000000E+01 0.  0.
    9000005    1    3    3    0    0  0.44118024065E+02  0.43573012252E+02  0.38297625488E+03  0.38796497167E+03  0.10000000000E+01 0.  0.
<mgrwt>
<rscale>  0 0.12504064E+03</rscale>
<asrwt>0</asrwt>
<pdfrwt beam="1">  1        4 0.13581952E+00 0.12504064E+03</pdfrwt>
<pdfrwt beam="2">  1       -4 0.68116683E-03 0.12504064E+03</pdfrwt>
<totfact> 0.34618652E+03</totfact>
</mgrwt>
</event>
<event>
 5    1  0.3294152E-002  0.1250000E+03  0.7818608E-02  0.1235069E+00
         -4   -1    0    0    0  501 -0.00000000000E+00  0.00000000000E+00  0.74077038385E+02  0.74087924225E+02  0.12700000000E+01 0.  1.
          4   -1    0    0  501    0  0.00000000000E+00 -0.00000000000E+00 -0.52709816116E+02  0.52725113703E+02  0.12700000000E+01 0.  1.
         25    2    1    2    0    0  0.00000000000E+00  0.00000000000E+00  0.21367222269E+02  0.12681303793E+03  0.12499995360E+03 0.  0.
    9000005    1    3    3    0    0  0.54155104874E+02 -0.10209898407E+02  0.40576739804E+02  0.68443328546E+02  0.10000000000E+01 0.  0.
    9000005    1    3    3    0    0 -0.54155104874E+02  0.10209898407E+02 -0.19209517535E+02  0.58369709381E+02  0.10000000000E+01 0.  0.
<mgrwt>
<rscale>  0 0.12499995E+03</rscale>
<asrwt>0</asrwt>
<pdfrwt beam="2">  1        4 0.81112166E-02 0.12499995E+03</pdfrwt>
<pdfrwt beam="1">  1       -4 0.11398482E-01 0.12499995E+03</pdfrwt>
<totfact> 0.10413221E+04</totfact>
</mgrwt>
</event>
<event>
 5    1  0.3294152E-002  0.1250026E+03  0.7818608E-02  0.1235065E+00
          4   -1    0    0  501    0  0.00000000000E+00  0.00000000000E+00  0.22656987712E+03  0.22657343648E+03  0.12700000000E+01 0. -1.
         -4   -1    0    0    0  501 -0.00000000000E+00 -0.00000000000E+00 -0.17214439652E+02  0.17261223379E+02  0.12700000000E+01 0. -1.
         25    2    1    2    0    0  0.00000000000E+00  0.00000000000E+00  0.20935543747E+03  0.24383465986E+03  0.12500256858E+03 0.  0.
    9000005    1    3    3    0    0  0.36069345468E+02 -0.96020597991E+01  0.69079119651E+01  0.37972575401E+02  0.10000000000E+01 0.  0.
    9000005    1    3    3    0    0 -0.36069345468E+02  0.96020597991E+01  0.20244752550E+03  0.20586208446E+03  0.10000000000E+01 0.  0.
<mgrwt>
<rscale>  0 0.12500257E+03</rscale>
<asrwt>0</asrwt>
<pdfrwt beam="1">  1        4 0.34860776E-01 0.12500257E+03</pdfrwt>
<pdfrwt beam="2">  1       -4 0.26522479E-02 0.12500257E+03</pdfrwt>
<totfact> 0.83224793E+03</totfact>
</mgrwt>
</event>
<event>
 5    1  0.3294152E-002  0.1249989E+03  0.7818608E-02  0.1235071E+00
          4   -1    0    0  501    0  0.00000000000E+00  0.00000000000E+00  0.61749149861E+02  0.61762208579E+02  0.12700000000E+01 0.  1.
         -4   -1    0    0    0  501 -0.00000000000E+00 -0.00000000000E+00 -0.63232774793E+02  0.63245527178E+02  0.12700000000E+01 0.  1.
         25    2    1    2    0    0  0.00000000000E+00  0.00000000000E+00 -0.14836249321E+01  0.12500773576E+03  0.12499893142E+03 0.  0.
    9000005    1    3    3    0    0  0.85495553931E+01 -0.53576297018E+02 -0.31754780560E+02  0.62871938001E+02  0.10000000000E+01 0.  0.
    9000005    1    3    3    0    0 -0.85495553931E+01  0.53576297018E+02  0.30271155628E+02  0.62135797755E+02  0.10000000000E+01 0.  0.
<mgrwt>
<rscale>  0 0.12499893E+03</rscale>
<asrwt>0</asrwt>
<pdfrwt beam="1">  1        4 0.95018546E-02 0.12499893E+03</pdfrwt>
<pdfrwt beam="2">  1       -4 0.97301047E-02 0.12499893E+03</pdfrwt>
<totfact> 0.10452947E+04</totfact>
</mgrwt>
</event>
<event>
 5    1  0.3294152E-002  0.1250008E+03  0.7818608E-02  0.1235068E+00
         -4   -1    0    0    0  501 -0.00000000000E+00  0.00000000000E+00  0.13966901639E+02  0.14024522858E+02  0.12700000000E+01 0.  1.
          4   -1    0    0  501    0  0.00000000000E+00 -0.00000000000E+00 -0.27904767789E+03  0.27905056788E+03  0.12700000000E+01 0.  1.
         25    2    1    2    0    0  0.00000000000E+00  0.00000000000E+00 -0.26508077625E+03  0.29307509074E+03  0.12500076350E+03 0.  0.
    9000005    1    3    3    0    0  0.23301675994E+02  0.17698424678E+02 -0.26200520081E+03  0.26363597553E+03  0.10000000000E+01 0.  0.
    9000005    1    3    3    0    0 -0.23301675994E+02 -0.17698424678E+02 -0.30755754380E+01  0.29439115212E+02  0.10000000000E+01 0.  0.
<mgrwt>
<rscale>  0 0.12500076E+03</rscale>
<asrwt>0</asrwt>
<pdfrwt beam="2">  1        4 0.42935063E-01 0.12500076E+03</pdfrwt>
<pdfrwt beam="1">  1       -4 0.21534090E-02 0.12500076E+03</pdfrwt>
<totfact> 0.76474484E+03</totfact>
</mgrwt>
</event>
<event>
 5    1  0.3294152E-002  0.1249942E+03  0.7818608E-02  0.1235078E+00
          4   -1    0    0  501    0  0.00000000000E+00  0.00000000000E+00  0.54492532774E+02  0.54507330040E+02  0.12700000000E+01 0.  1.
         -4   -1    0    0    0  501 -0.00000000000E+00 -0.00000000000E+00 -0.71647325905E+02  0.71658580849E+02  0.12700000000E+01 0.  1.
         25    2    1    2    0    0  0.00000000000E+00  0.00000000000E+00 -0.17154793131E+02  0.12616591089E+03  0.12499420044E+03 0.  0.
    9000005    1    3    3    0    0 -0.50078844662E+02  0.29111951256E+02 -0.32238364923E+02  0.66300139981E+02  0.10000000000E+01 0.  0.
    9000005    1    3    3    0    0  0.50078844662E+02 -0.29111951256E+02  0.15083571791E+02  0.59865770909E+02  0.10000000000E+01 0.  0.
<mgrwt>
<rscale>  0 0.12499420E+03</rscale>
<asrwt>0</asrwt>
<pdfrwt beam="1">  1        4 0.83854706E-02 0.12499420E+03</pdfrwt>
<pdfrwt beam="2">  1       -4 0.11024670E-01 0.12499420E+03</pdfrwt>
<totfact> 0.10428689E+04</totfact>
</mgrwt>
</event>
<event>
 5    1  0.3294152E-002  0.1249994E+03  0.7818608E-02  0.1235070E+00
         -4   -1    0    0    0  501 -0.00000000000E+00  0.00000000000E+00  0.32028930719E+02  0.32054099629E+02  0.12700000000E+01 0. -1.
          4   -1    0    0  501    0  0.00000000000E+00 -0.00000000000E+00 -0.12188243861E+03  0.12188905505E+03  0.12700000000E+01 0. -1.
         25    2    1    2    0    0  0.00000000000E+00  0.00000000000E+00 -0.89853507889E+02  0.15394315468E+03  0.12499936797E+03 0.  0.
    9000005    1    3    3    0    0  0.50659475118E+02  0.21557873350E+01  0.57434045692E-01  0.50715216030E+02  0.10000000000E+01 0.  0.
    9000005    1    3    3    0    0 -0.50659475118E+02 -0.21557873350E+01 -0.89910941935E+02  0.10322793865E+03  0.10000000000E+01 0.  0.
<mgrwt>
<rscale>  0 0.12499937E+03</rscale>
<asrwt>0</asrwt>
<pdfrwt beam="2">  1        4 0.18753589E-01 0.12499937E+03</pdfrwt>
<pdfrwt beam="1">  1       -4 0.49299729E-02 0.12499937E+03</pdfrwt>
<totfact> 0.98524772E+03</totfact>
</mgrwt>
</event>
<event>
 5    1  0.3294152E-002  0.1250020E+03  0.7818608E-02  0.1235066E+00
          4   -1    0    0  501    0  0.00000000000E+00  0.00000000000E+00  0.58695567374E+02  0.58709305305E+02  0.12700000000E+01 0. -1.
         -4   -1    0    0    0  501 -0.00000000000E+00 -0.00000000000E+00 -0.66525541891E+02  0.66537663198E+02  0.12700000000E+01 0. -1.
         25    2    1    2    0    0  0.00000000000E+00  0.00000000000E+00 -0.78299745162E+01  0.12524696850E+03  0.12500197846E+03 0.  0.
    9000005    1    3    3    0    0  0.60794342193E+02 -0.13033585528E+01 -0.18355828437E+02  0.63526271918E+02  0.10000000000E+01 0.  0.
    9000005    1    3    3    0    0 -0.60794342193E+02  0.13033585528E+01  0.10525853920E+02  0.61720696585E+02  0.10000000000E+01 0.  0.
<mgrwt>
<rscale>  0 0.12500198E+03</rscale>
<asrwt>0</asrwt>
<pdfrwt beam="1">  1        4 0.90320764E-02 0.12500198E+03</pdfrwt>
<pdfrwt beam="2">  1       -4 0.10236688E-01 0.12500198E+03</pdfrwt>
<totfact> 0.10447034E+04</totfact>
</mgrwt>
</event>
<event>
 5    1  0.3294152E-002  0.1250014E+03  0.7818608E-02  0.1235067E+00
          4   -1    0    0  501    0  0.00000000000E+00  0.00000000000E+00  0.94477546437E+01  0.95327313928E+01  0.12700000000E+01 0. -1.
         -4   -1    0    0    0  501 -0.00000000000E+00 -0.00000000000E+00 -0.41153030169E+03  0.41153226132E+03  0.12700000000E+01 0. -1.
         25    2    1    2    0    0  0.00000000000E+00  0.00000000000E+00 -0.40208254705E+03  0.42106499272E+03  0.12500141380E+03 0.  0.
    9000005    1    3    3    0    0 -0.43041365979E+01 -0.43255383670E+02 -0.49804895684E+02  0.66114154629E+02  0.10000000000E+01 0.  0.
    9000005    1    3    3    0    0  0.43041365979E+01  0.43255383670E+02 -0.35227765137E+03  0.35495083809E+03  0.10000000000E+01 0.  0.
<mgrwt>
<rscale>  0 0.12500141E+03</rscale>
<asrwt>0</asrwt>
<pdfrwt beam="1">  1        4 0.14601885E-02 0.12500141E+03</pdfrwt>
<pdfrwt beam="2">  1       -4 0.63319028E-01 0.12500141E+03</pdfrwt>
<totfact> 0.62552386E+03</totfact>
</mgrwt>
</event>
<event>
 5    1  0.3294152E-002  0.1250120E+03  0.7818608E-02  0.1235051E+00
         -4   -1    0    0    0  501 -0.00000000000E+00  0.00000000000E+00  0.27949154162E+03  0.27949442702E+03  0.12700000000E+01 0. -1.
          4   -1    0    0  501    0  0.00000000000E+00 -0.00000000000E+00 -0.13947146284E+02  0.14004848784E+02  0.12700000000E+01 0. -1.
         25    2    1    2    0    0  0.00000000000E+00  0.00000000000E+00  0.26554439533E+03  0.29349927580E+03  0.12501199545E+03 0.  0.
    9000005    1    3    3    0    0  0.61432602209E+02  0.10892966917E+02  0.14135951633E+03  0.15451904154E+03  0.10000000000E+01 0.  0.
    9000005    1    3    3    0    0 -0.61432602209E+02 -0.10892966917E+02  0.12418487900E+03  0.13898023426E+03  0.10000000000E+01 0.  0.
<mgrwt>
<rscale>  0 0.12501200E+03</rscale>
<asrwt>0</asrwt>
<pdfrwt beam="2">  1        4 0.21503752E-02 0.12501200E+03</pdfrwt>
<pdfrwt beam="1">  1       -4 0.43003364E-01 0.12501200E+03</pdfrwt>
<totfact> 0.76401220E+03</totfact>
</mgrwt>
</event>
<event>
 5    1  0.3294152E-002  0.1250042E+03  0.7818608E-02  0.1235063E+00
          4   -1    0    0  501    0  0.00000000000E+00  0.00000000000E+00  0.47376067399E+02  0.47393086650E+02  0.12700000000E+01 0. -1.
         -4   -1    0    0    0  501 -0.00000000000E+00 -0.00000000000E+00 -0.82420847523E+02  0.82430631481E+02  0.12700000000E+01 0. -1.
         25    2    1    2    0    0  0.00000000000E+00  0.00000000000E+00 -0.35044780124E+02  0.12982371813E+03  0.12500424463E+03 0.  0.
    9000005    1    3    3    0    0  0.46508217425E+02 -0.21786045090E+02  0.19457576711E+02  0.54929439649E+02  0.10000000000E+01 0.  0.
    9000005    1    3    3    0    0 -0.46508217425E+02  0.21786045090E+02 -0.54502356835E+02  0.74894278482E+02  0.10000000000E+01 0.  0.
<mgrwt>
<rscale>  0 0.12500424E+03</rscale>
<asrwt>0</asrwt>
<pdfrwt beam="1">  1        4 0.72906876E-02 0.12500424E+03</pdfrwt>
<pdfrwt beam="2">  1       -4 0.12682192E-01 0.12500424E+03</pdfrwt>
<totfact> 0.10347289E+04</totfact>
</mgrwt>
</event>
<event>
 5    1  0.3294152E-002  0.1250023E+03  0.7818608E-02  0.1235066E+00
         -4   -1    0    0    0  501 -0.00000000000E+00  0.00000000000E+00  0.50680703533E+02  0.50696613404E+02  0.12700000000E+01 0. -1.
          4   -1    0    0  501    0  0.00000000000E+00 -0.00000000000E+00 -0.77045284306E+02  0.77055750816E+02  0.12700000000E+01 0. -1.
         25    2    1    2    0    0  0.00000000000E+00  0.00000000000E+00 -0.26364580773E+02  0.12775236422E+03  0.12500230176E+03 0.  0.
    9000005    1    3    3    0    0 -0.55163396116E+02 -0.21066261809E+02 -0.34092277539E+02  0.68191429414E+02  0.10000000000E+01 0.  0.
    9000005    1    3    3    0    0  0.55163396116E+02  0.21066261809E+02  0.77276967665E+01  0.59560934806E+02  0.10000000000E+01 0.  0.
<mgrwt>
<rscale>  0 0.12500230E+03</rscale>
<asrwt>0</asrwt>
<pdfrwt beam="2">  1        4 0.11855150E-01 0.12500230E+03</pdfrwt>
<pdfrwt beam="1">  1       -4 0.77990603E-02 0.12500230E+03</pdfrwt>
<totfact> 0.10392299E+04</totfact>
</mgrwt>
</event>
<event>
 5    1  0.3294152E-002  0.1250060E+03  0.7818608E-02  0.1235060E+00
         -4   -1    0    0    0  501 -0.00000000000E+00  0.00000000000E+00  0.17765125806E+03  0.17765579752E+03  0.12700000000E+01 0.  1.
          4   -1    0    0  501    0  0.00000000000E+00 -0.00000000000E+00 -0.21967241154E+02  0.22003922012E+02  0.12700000000E+01 0.  1.
         25    2    1    2    0    0  0.00000000000E+00  0.00000000000E+00  0.15568401691E+03  0.19965971953E+03  0.12500596178E+03 0.  0.
    9000005    1    3    3    0    0  0.37088436161E+02  0.19902739016E+02  0.40597400192E+01  0.42298375929E+02  0.10000000000E+01 0.  0.
    9000005    1    3    3    0    0 -0.37088436161E+02 -0.19902739016E+02  0.15162427689E+03  0.15736134360E+03  0.10000000000E+01 0.  0.
<mgrwt>
<rscale>  0 0.12500596E+03</rscale>
<asrwt>0</asrwt>
<pdfrwt beam="2">  1        4 0.33827462E-02 0.12500596E+03</pdfrwt>
<pdfrwt beam="1">  1       -4 0.27334135E-01 0.12500596E+03</pdfrwt>
<totfact> 0.90180895E+03</totfact>
</mgrwt>
</event>
<event>
 5    1  0.3294152E-002  0.1249963E+03  0.7818608E-02  0.1235075E+00
         -4   -1    0    0    0  501 -0.00000000000E+00  0.00000000000E+00  0.20947430238E+02  0.20985893681E+02  0.12700000000E+01 0. -1.
          4   -1    0    0  501    0  0.00000000000E+00 -0.00000000000E+00 -0.18625593845E+03  0.18626026820E+03  0.12700000000E+01 0. -1.
         25    2    1    2    0    0  0.00000000000E+00  0.00000000000E+00 -0.16530850821E+03  0.20724616188E+03  0.12499627484E+03 0.  0.
    9000005    1    3    3    0    0  0.39979629006E+02 -0.48025602486E+02 -0.83373061374E+02  0.10419643272E+03  0.10000000000E+01 0.  0.
    9000005    1    3    3    0    0 -0.39979629006E+02  0.48025602486E+02 -0.81935446841E+02  0.10304972915E+03  0.10000000000E+01 0.  0.
<mgrwt>
<rscale>  0 0.12499627E+03</rscale>
<asrwt>0</asrwt>
<pdfrwt beam="2">  1        4 0.28658050E-01 0.12499627E+03</pdfrwt>
<pdfrwt beam="1">  1       -4 0.32259735E-02 0.12499627E+03</pdfrwt>
<totfact> 0.88935012E+03</totfact>
</mgrwt>
</event>
<event>
 5    1  0.3294152E-002  0.1250014E+03  0.7818608E-02  0.1235067E+00
          4   -1    0    0  501    0  0.00000000000E+00  0.00000000000E+00  0.22502562189E+02  0.22538371837E+02  0.12700000000E+01 0.  1.
         -4   -1    0    0    0  501 -0.00000000000E+00 -0.00000000000E+00 -0.17341911628E+03  0.17342376651E+03  0.12700000000E+01 0.  1.
         25    2    1    2    0    0  0.00000000000E+00  0.00000000000E+00 -0.15091655409E+03  0.19596213835E+03  0.12500141346E+03 0.  0.
    9000005    1    3    3    0    0  0.17689502406E+02  0.19270178639E+02  0.13514676121E+02  0.29460223197E+02  0.10000000000E+01 0.  0.
    9000005    1    3    3    0    0 -0.17689502406E+02 -0.19270178639E+02 -0.16443123021E+03  0.16650191515E+03  0.10000000000E+01 0.  0.
<mgrwt>
<rscale>  0 0.12500141E+03</rscale>
<asrwt>0</asrwt>
<pdfrwt beam="1">  1        4 0.34650451E-02 0.12500141E+03</pdfrwt>
<pdfrwt beam="2">  1       -4 0.26682975E-01 0.12500141E+03</pdfrwt>
<totfact> 0.90817273E+03</totfact>
</mgrwt>
</event>
<event>
 5    1  0.3294152E-002  0.1249982E+03  0.7818608E-02  0.1235072E+00
         -4   -1    0    0    0  501 -0.00000000000E+00  0.00000000000E+00  0.52324854450E+01  0.53844037675E+01  0.12700000000E+01 0.  1.
          4   -1    0    0  501    0  0.00000000000E+00 -0.00000000000E+00 -0.73568161914E+03  0.73568271534E+03  0.12700000000E+01 0.  1.
         25    2    1    2    0    0  0.00000000000E+00  0.00000000000E+00 -0.73044913370E+03  0.74106711910E+03  0.12499815237E+03 0.  0.
    9000005    1    3    3    0    0 -0.35093042158E+02 -0.12341587512E+02 -0.67533329136E+02  0.77107632141E+02  0.10000000000E+01 0.  0.
    9000005    1    3    3    0    0  0.35093042158E+02  0.12341587512E+02 -0.66291580456E+03  0.66395948696E+03  0.10000000000E+01 0.  0.
<mgrwt>
<rscale>  0 0.12499815E+03</rscale>
<asrwt>0</asrwt>
<pdfrwt beam="2">  1        4 0.11319348E+00 0.12499815E+03</pdfrwt>
<pdfrwt beam="1">  1       -4 0.81676869E-03 0.12499815E+03</pdfrwt>
<totfact> 0.41006765E+03</totfact>
</mgrwt>
</event>
<event>
 5    1  0.3294152E-002  0.1250040E+03  0.7818608E-02  0.1235063E+00
          4   -1    0    0  501    0  0.00000000000E+00  0.00000000000E+00  0.32616691866E+03  0.32616939116E+03  0.12700000000E+01 0. -1.
         -4   -1    0    0    0  501 -0.00000000000E+00 -0.00000000000E+00 -0.11940800522E+02  0.12008147947E+02  0.12700000000E+01 0. -1.
         25    2    1    2    0    0  0.00000000000E+00  0.00000000000E+00  0.31422611814E+03  0.33817753910E+03  0.12500397848E+03 0.  0.
    9000005    1    3    3    0    0  0.26702017297E+02 -0.46989567755E+02  0.24199683562E+03  0.24796065344E+03  0.10000000000E+01 0.  0.
    9000005    1    3    3    0    0 -0.26702017297E+02  0.46989567755E+02  0.72229282519E+02  0.90216885663E+02  0.10000000000E+01 0.  0.
<mgrwt>
<rscale>  0 0.12500398E+03</rscale>
<asrwt>0</asrwt>
<pdfrwt beam="1">  1        4 0.50184893E-01 0.12500398E+03</pdfrwt>
<pdfrwt beam="2">  1       -4 0.18424171E-02 0.12500398E+03</pdfrwt>
<totfact> 0.71038799E+03</totfact>
</mgrwt>
</event>
<event>
 5    1  0.3294152E-002  0.1249910E+03  0.7818608E-02  0.1235083E+00
         -4   -1    0    0    0  501 -0.00000000000E+00  0.00000000000E+00  0.31964860475E+01  0.34395382033E+01  0.12700000000E+01 0. -1.
          4   -1    0    0  501    0  0.00000000000E+00 -0.00000000000E+00 -0.11768727057E+04  0.11768733910E+04  0.12700000000E+01 0. -1.
         25    2    1    2    0    0  0.00000000000E+00  0.00000000000E+00 -0.11736762197E+04  0.11803129292E+04  0.12499096825E+03 0.  0.
    9000005    1    3    3    0    0 -0.20580150926E+02  0.32398032187E+02 -0.10524848864E+04  0.10531849843E+04  0.10000000000E+01 0.  0.
    9000005    1    3    3    0    0  0.20580150926E+02 -0.32398032187E+02 -0.12119133333E+03  0.12712794490E+03  0.10000000000E+01 0.  0.
<mgrwt>
<rscale>  0 0.12499097E+03</rscale>
<asrwt>0</asrwt>
<pdfrwt beam="2">  1        4 0.18107575E+00 0.12499097E+03</pdfrwt>
<pdfrwt beam="1">  1       -4 0.51051706E-03 0.12499097E+03</pdfrwt>
<totfact> 0.25238980E+03</totfact>
</mgrwt>
</event>
<event>
 5    1  0.3294152E-002  0.1249984E+03  0.7818608E-02  0.1235072E+00
          4   -1    0    0  501    0  0.00000000000E+00  0.00000000000E+00  0.10604396319E+04  0.10604403924E+04  0.12700000000E+01 0.  1.
         -4   -1    0    0    0  501 -0.00000000000E+00 -0.00000000000E+00 -0.35732685703E+01  0.37922484459E+01  0.12700000000E+01 0.  1.
         25    2    1    2    0    0  0.00000000000E+00  0.00000000000E+00  0.10568663634E+04  0.10642326409E+04  0.12499841549E+03 0.  0.
    9000005    1    3    3    0    0  0.29684801865E+02 -0.48499187986E+02  0.30775999386E+03  0.31297056175E+03  0.10000000000E+01 0.  0.
    9000005    1    3    3    0    0 -0.29684801865E+02  0.48499187986E+02  0.74910636951E+03  0.75126207913E+03  0.10000000000E+01 0.  0.
<mgrwt>
<rscale>  0 0.12499842E+03</rscale>
<asrwt>0</asrwt>
<pdfrwt beam="1">  1        4 0.16316153E+00 0.12499842E+03</pdfrwt>
<pdfrwt beam="2">  1       -4 0.56663649E-03 0.12499842E+03</pdfrwt>
<totfact> 0.28555473E+03</totfact>
</mgrwt>
</event>
<event>
 5    1  0.3294152E-002  0.1250007E+03  0.7818608E-02  0.1235068E+00
         -4   -1    0    0    0  501 -0.00000000000E+00  0.00000000000E+00  0.55082099430E+03  0.55082245838E+03  0.12700000000E+01 0.  1.
          4   -1    0    0  501    0  0.00000000000E+00 -0.00000000000E+00 -0.70334180508E+01  0.71471581400E+01  0.12700000000E+01 0.  1.
         25    2    1    2    0    0  0.00000000000E+00  0.00000000000E+00  0.54378757625E+03  0.55796961652E+03  0.12500065953E+03 0.  0.
    9000005    1    3    3    0    0  0.21306837383E+01  0.57446108538E+02  0.16249169683E+03  0.17236341473E+03  0.10000000000E+01 0.  0.
    9000005    1    3    3    0    0 -0.21306837383E+01 -0.57446108538E+02  0.38129587942E+03  0.38560620179E+03  0.10000000000E+01 0.  0.
<mgrwt>
<rscale>  0 0.12500066E+03</rscale>
<asrwt>0</asrwt>
<pdfrwt beam="2">  1        4 0.10909260E-02 0.12500066E+03</pdfrwt>
<pdfrwt beam="1">  1       -4 0.84750568E-01 0.12500066E+03</pdfrwt>
<totfact> 0.51632166E+03</totfact>
</mgrwt>
</event>
<event>
 5    1  0.3294152E-002  0.1249988E+03  0.7818608E-02  0.1235071E+00
         -4   -1    0    0    0  501 -0.00000000000E+00  0.00000000000E+00  0.22146466844E+02  0.22182851343E+02  0.12700000000E+01 0. -1.
          4   -1    0    0  501    0  0.00000000000E+00 -0.00000000000E+00 -0.17619576847E+03  0.17620034542E+03  0.12700000000E+01 0. -1.
         25    2    1    2    0    0  0.00000000000E+00  0.00000000000E+00 -0.15404930163E+03  0.19838319676E+03  0.12499882170E+03 0.  0.
    9000005    1    3    3    0    0 -0.60601644718E+01 -0.56358844831E+02 -0.35271117501E+02  0.66768980177E+02  0.10000000000E+01 0.  0.
    9000005    1    3    3    0    0  0.60601644718E+01  0.56358844831E+02 -0.11877818412E+03  0.13161421659E+03  0.10000000000E+01 0.  0.
<mgrwt>
<rscale>  0 0.12499882E+03</rscale>
<asrwt>0</asrwt>
<pdfrwt beam="2">  1        4 0.27110191E-01 0.12499882E+03</pdfrwt>
<pdfrwt beam="1">  1       -4 0.34102998E-02 0.12499882E+03</pdfrwt>
<totfact> 0.90411164E+03</totfact>
</mgrwt>
</event>
<event>
 5    1  0.3294152E-002  0.1250005E+03  0.7818608E-02  0.1235069E+00
          4   -1    0    0  501    0  0.00000000000E+00  0.00000000000E+00  0.10314708238E+03  0.10315490053E+03  0.12700000000E+01 0.  1.
         -4   -1    0    0    0  501 -0.00000000000E+00 -0.00000000000E+00 -0.37851052956E+02  0.37872352843E+02  0.12700000000E+01 0.  1.
         25    2    1    2    0    0  0.00000000000E+00  0.00000000000E+00  0.65296029426E+02  0.14102725338E+03  0.12500045894E+03 0.  0.
    9000005    1    3    3    0    0 -0.61848306129E+02 -0.39241449686E+01  0.41720622211E+02  0.74714270407E+02  0.10000000000E+01 0.  0.
    9000005    1    3    3    0    0  0.61848306129E+02  0.39241449686E+01  0.23575407215E+02  0.66312982968E+02  0.10000000000E+01 0.  0.
<mgrwt>
<rscale>  0 0.12500046E+03</rscale>
<asrwt>0</asrwt>
<pdfrwt beam="1">  1        4 0.15871022E-01 0.12500046E+03</pdfrwt>
<pdfrwt beam="2">  1       -4 0.58254788E-02 0.12500046E+03</pdfrwt>
<totfact> 0.10112235E+04</totfact>
</mgrwt>
</event>
<event>
 5    1  0.3294152E-002  0.1249932E+03  0.7818608E-02  0.1235080E+00
          4   -1    0    0  501    0  0.00000000000E+00  0.00000000000E+00  0.51087234227E+01  0.52642145672E+01  0.12700000000E+01 0. -1.
         -4   -1    0    0    0  501 -0.00000000000E+00 -0.00000000000E+00 -0.75292358739E+03  0.75292465848E+03  0.12700000000E+01 0. -1.
         25    2    1    2    0    0  0.00000000000E+00  0.00000000000E+00 -0.74781486397E+03  0.75818887305E+03  0.12499318559E+03 0.  0.
    9000005    1    3    3    0    0 -0.76088042137E+01  0.61886317115E+02 -0.34888705704E+03  0.35441640583E+03  0.10000000000E+01 0.  0.
    9000005    1    3    3    0    0  0.76088042137E+01 -0.61886317115E+02 -0.39892780692E+03  0.40377246722E+03  0.10000000000E+01 0.  0.
<mgrwt>
<rscale>  0 0.12499319E+03</rscale>
<asrwt>0</asrwt>
<pdfrwt beam="1">  1        4 0.79800130E-03 0.12499319E+03</pdfrwt>
<pdfrwt beam="2">  1       -4 0.11584635E+00 0.12499319E+03</pdfrwt>
<totfact> 0.40191506E+03</totfact>
</mgrwt>
</event>
<event>
 5    1  0.3294152E-002  0.1249989E+03  0.7818608E-02  0.1235071E+00
          4   -1    0    0  501    0  0.00000000000E+00  0.00000000000E+00  0.17563795830E+03  0.17564254979E+03  0.12700000000E+01 0. -1.
         -4   -1    0    0    0  501 -0.00000000000E+00 -0.00000000000E+00 -0.22216960907E+02  0.22253230146E+02  0.12700000000E+01 0. -1.
         25    2    1    2    0    0  0.00000000000E+00  0.00000000000E+00  0.15342099740E+03  0.19789577994E+03  0.12499894909E+03 0.  0.
    9000005    1    3    3    0    0 -0.58986856862E+02 -0.16995193556E+02  0.58186727481E+02  0.84587121606E+02  0.10000000000E+01 0.  0.
    9000005    1    3    3    0    0  0.58986856862E+02  0.16995193556E+02  0.95234269916E+02  0.11330865833E+03  0.10000000000E+01 0.  0.
<mgrwt>
<rscale>  0 0.12499895E+03</rscale>
<asrwt>0</asrwt>
<pdfrwt beam="1">  1        4 0.27024367E-01 0.12499895E+03</pdfrwt>
<pdfrwt beam="2">  1       -4 0.34211371E-02 0.12499895E+03</pdfrwt>
<totfact> 0.90493463E+03</totfact>
</mgrwt>
</event>
<event>
 5    1  0.3294152E-002  0.1249962E+03  0.7818608E-02  0.1235075E+00
          4   -1    0    0  501    0  0.00000000000E+00  0.00000000000E+00  0.36288983996E+02  0.36311200193E+02  0.12700000000E+01 0.  1.
         -4   -1    0    0    0  501 -0.00000000000E+00 -0.00000000000E+00 -0.10757745040E+03  0.10758494660E+03  0.12700000000E+01 0.  1.
         25    2    1    2    0    0  0.00000000000E+00  0.00000000000E+00 -0.71288466401E+02  0.14389614679E+03  0.12499622242E+03 0.  0.
    9000005    1    3    3    0    0  0.45961651000E+02 -0.39328044511E+02 -0.17593977015E+02  0.63005686052E+02  0.10000000000E+01 0.  0.
    9000005    1    3    3    0    0 -0.45961651000E+02  0.39328044511E+02 -0.53694489386E+02  0.80890460736E+02  0.10000000000E+01 0.  0.
<mgrwt>
<rscale>  0 0.12499622E+03</rscale>
<asrwt>0</asrwt>
<pdfrwt beam="1">  1        4 0.55852062E-02 0.12499622E+03</pdfrwt>
<pdfrwt beam="2">  1       -4 0.16552662E-01 0.12499622E+03</pdfrwt>
<totfact> 0.10054320E+04</totfact>
</mgrwt>
</event>
<event>
 5    1  0.3294152E-002  0.1249984E+03  0.7818608E-02  0.1235072E+00
         -4   -1    0    0    0  501 -0.00000000000E+00  0.00000000000E+00  0.24461463001E+03  0.24461792680E+03  0.12700000000E+01 0. -1.
          4   -1    0    0  501    0  0.00000000000E+00 -0.00000000000E+00 -0.15939922951E+02  0.15990436007E+02  0.12700000000E+01 0. -1.
         25    2    1    2    0    0  0.00000000000E+00  0.00000000000E+00  0.22867470706E+03  0.26060836281E+03  0.12499838847E+03 0.  0.
    9000005    1    3    3    0    0  0.24995678981E+02  0.56665997959E+02  0.96977562423E+02  0.11507157297E+03  0.10000000000E+01 0.  0.
    9000005    1    3    3    0    0 -0.24995678981E+02 -0.56665997959E+02  0.13169714463E+03  0.14553678984E+03  0.10000000000E+01 0.  0.
<mgrwt>
<rscale>  0 0.12499839E+03</rscale>
<asrwt>0</asrwt>
<pdfrwt beam="2">  1        4 0.24564352E-02 0.12499839E+03</pdfrwt>
<pdfrwt beam="1">  1       -4 0.37637157E-01 0.12499839E+03</pdfrwt>
<totfact> 0.80823662E+03</totfact>
</mgrwt>
</event>
<event>
 5    1  0.3294152E-002  0.1249994E+03  0.7818608E-02  0.1235070E+00
         -4   -1    0    0    0  501 -0.00000000000E+00  0.00000000000E+00  0.40452450513E+03  0.40452649870E+03  0.12700000000E+01 0. -1.
          4   -1    0    0  501    0  0.00000000000E+00 -0.00000000000E+00 -0.96125182701E+01  0.96960511289E+01  0.12700000000E+01 0. -1.
         25    2    1    2    0    0  0.00000000000E+00  0.00000000000E+00  0.39491198686E+03  0.41422254983E+03  0.12499937368E+03 0.  0.
    9000005    1    3    3    0    0  0.30344763101E+02 -0.31161453659E+02  0.34614802623E+03  0.34887146186E+03  0.10000000000E+01 0.  0.
    9000005    1    3    3    0    0 -0.30344763101E+02  0.31161453659E+02  0.48763960633E+02  0.65351087966E+02  0.10000000000E+01 0.  0.
<mgrwt>
<rscale>  0 0.12499937E+03</rscale>
<asrwt>0</asrwt>
<pdfrwt beam="2">  1        4 0.14854277E-02 0.12499937E+03</pdfrwt>
<pdfrwt beam="1">  1       -4 0.62241128E-01 0.12499937E+03</pdfrwt>
<totfact> 0.63193499E+03</totfact>
</mgrwt>
</event>
<event>
 5    1  0.3294152E-002  0.1250180E+03  0.7818608E-02  0.1235041E+00
         -4   -1    0    0    0  501 -0.00000000000E+00  0.00000000000E+00  0.32154422379E+02  0.32179493136E+02  0.12700000000E+01 0.  1.
          4   -1    0    0  501    0  0.00000000000E+00 -0.00000000000E+00 -0.12144336162E+03  0.12145000199E+03  0.12700000000E+01 0.  1.
         25    2    1    2    0    0  0.00000000000E+00  0.00000000000E+00 -0.89288939246E+02  0.15362949512E+03  0.12501802710E+03 0.  0.
    9000005    1    3    3    0    0 -0.51308647943E+02  0.33783524451E+02 -0.58788249190E+02  0.85035064067E+02  0.10000000000E+01 0.  0.
    9000005    1    3    3    0    0  0.51308647943E+02 -0.33783524451E+02 -0.30500690056E+02  0.68594431057E+02  0.10000000000E+01 0.  0.
<mgrwt>
<rscale>  0 0.12501803E+03</rscale>
<asrwt>0</asrwt>
<pdfrwt beam="2">  1        4 0.18686033E-01 0.12501803E+03</pdfrwt>
<pdfrwt beam="1">  1       -4 0.49492736E-02 0.12501803E+03</pdfrwt>
<totfact> 0.98545100E+03</totfact>
</mgrwt>
</event>
<event>
 5    1  0.3294152E-002  0.1250004E+03  0.7818608E-02  0.1235069E+00
          4   -1    0    0  501    0  0.00000000000E+00  0.00000000000E+00  0.17183675546E+02  0.17230542802E+02  0.12700000000E+01 0. -1.
         -4   -1    0    0    0  501 -0.00000000000E+00 -0.00000000000E+00 -0.22696645666E+03  0.22697000980E+03  0.12700000000E+01 0. -1.
         25    2    1    2    0    0  0.00000000000E+00  0.00000000000E+00 -0.20978278111E+03  0.24420055260E+03  0.12500037856E+03 0.  0.
    9000005    1    3    3    0    0  0.27140035129E+02 -0.36603528018E+02 -0.21345095785E+02  0.50329046129E+02  0.10000000000E+01 0.  0.
    9000005    1    3    3    0    0 -0.27140035129E+02  0.36603528018E+02 -0.18843768532E+03  0.19387150647E+03  0.10000000000E+01 0.  0.
<mgrwt>
<rscale>  0 0.12500038E+03</rscale>
<asrwt>0</asrwt>
<pdfrwt beam="1">  1        4 0.26475210E-02 0.12500038E+03</pdfrwt>
<pdfrwt beam="2">  1       -4 0.34921793E-01 0.12500038E+03</pdfrwt>
<totfact> 0.83175019E+03</totfact>
</mgrwt>
</event>
<event>
 5    1  0.3294152E-002  0.1250121E+03  0.7818608E-02  0.1235050E+00
         -4   -1    0    0    0  501 -0.00000000000E+00  0.00000000000E+00  0.25728512856E+02  0.25759838388E+02  0.12700000000E+01 0.  1.
          4   -1    0    0  501    0  0.00000000000E+00 -0.00000000000E+00 -0.15172869393E+03  0.15173400891E+03  0.12700000000E+01 0.  1.
         25    2    1    2    0    0  0.00000000000E+00  0.00000000000E+00 -0.12600018107E+03  0.17749384730E+03  0.12501208022E+03 0.  0.
    9000005    1    3    3    0    0  0.84900284311E+01  0.39717204744E+02 -0.13044449461E+03  0.13662467973E+03  0.10000000000E+01 0.  0.
    9000005    1    3    3    0    0 -0.84900284311E+01 -0.39717204744E+02  0.44443135422E+01  0.40869167575E+02  0.10000000000E+01 0.  0.
<mgrwt>
<rscale>  0 0.12501208E+03</rscale>
<asrwt>0</asrwt>
<pdfrwt beam="2">  1        4 0.23345694E-01 0.12501208E+03</pdfrwt>
<pdfrwt beam="1">  1       -4 0.39610513E-02 0.12501208E+03</pdfrwt>
<totfact> 0.94044592E+03</totfact>
</mgrwt>
</event>
<event>
 5    1  0.3294152E-002  0.1249985E+03  0.7818608E-02  0.1235072E+00
         -4   -1    0    0    0  501 -0.00000000000E+00  0.00000000000E+00  0.34875009748E+03  0.34875240987E+03  0.12700000000E+01 0. -1.
          4   -1    0    0  501    0  0.00000000000E+00 -0.00000000000E+00 -0.11162090549E+02  0.11234107237E+02  0.12700000000E+01 0. -1.
         25    2    1    2    0    0  0.00000000000E+00  0.00000000000E+00  0.33758800693E+03  0.35998651711E+03  0.12499852030E+03 0.  0.
    9000005    1    3    3    0    0 -0.12305037624E+02 -0.37628816954E+02  0.30804121236E+03  0.31057644844E+03  0.10000000000E+01 0.  0.
    9000005    1    3    3    0    0  0.12305037624E+02  0.37628816954E+02  0.29546794577E+02  0.49410068671E+02  0.10000000000E+01 0.  0.
<mgrwt>
<rscale>  0 0.12499852E+03</rscale>
<asrwt>0</asrwt>
<pdfrwt beam="2">  1        4 0.17229628E-02 0.12499852E+03</pdfrwt>
<pdfrwt beam="1">  1       -4 0.53659564E-01 0.12499852E+03</pdfrwt>
<totfact> 0.68641966E+03</totfact>
</mgrwt>
</event>
<event>
 5    1  0.3294152E-002  0.1249991E+03  0.7818608E-02  0.1235071E+00
          4   -1    0    0  501    0  0.00000000000E+00  0.00000000000E+00  0.35258382935E+03  0.35258611660E+03  0.12700000000E+01 0.  1.
         -4   -1    0    0    0  501 -0.00000000000E+00 -0.00000000000E+00 -0.11040037247E+02  0.11112844929E+02  0.12700000000E+01 0.  1.
         25    2    1    2    0    0  0.00000000000E+00  0.00000000000E+00  0.34154379210E+03  0.36369896153E+03  0.12499909077E+03 0.  0.
    9000005    1    3    3    0    0 -0.52708372673E+02  0.31913480349E+02  0.14045736098E+03  0.15338159287E+03  0.10000000000E+01 0.  0.
    9000005    1    3    3    0    0  0.52708372673E+02 -0.31913480349E+02  0.20108643113E+03  0.21031736866E+03  0.10000000000E+01 0.  0.
<mgrwt>
<rscale>  0 0.12499909E+03</rscale>
<asrwt>0</asrwt>
<pdfrwt beam="1">  1        4 0.54249438E-01 0.12499909E+03</pdfrwt>
<pdfrwt beam="2">  1       -4 0.17042439E-02 0.12499909E+03</pdfrwt>
<totfact> 0.68244709E+03</totfact>
</mgrwt>
</event>
<event>
 5    1  0.3294152E-002  0.1249991E+03  0.7818608E-02  0.1235071E+00
         -4   -1    0    0    0  501 -0.00000000000E+00  0.00000000000E+00  0.64759511086E+03  0.64759635615E+03  0.12700000000E+01 0.  1.
          4   -1    0    0  501    0  0.00000000000E+00 -0.00000000000E+00 -0.59637308911E+01  0.60974573506E+01  0.12700000000E+01 0.  1.
         25    2    1    2    0    0  0.00000000000E+00  0.00000000000E+00  0.64163137996E+03  0.65369381350E+03  0.12499909623E+03 0.  0.
    9000005    1    3    3    0    0  0.33263713022E+02  0.52730239137E+02  0.29848051603E+03  0.30492387767E+03  0.10000000000E+01 0.  0.
    9000005    1    3    3    0    0 -0.33263713022E+02 -0.52730239137E+02  0.34315086393E+03  0.34876993584E+03  0.10000000000E+01 0.  0.
<mgrwt>
<rscale>  0 0.12499910E+03</rscale>
<asrwt>0</asrwt>
<pdfrwt beam="2">  1        4 0.92787956E-03 0.12499910E+03</pdfrwt>
<pdfrwt beam="1">  1       -4 0.99640394E-01 0.12499910E+03</pdfrwt>
<totfact> 0.45645395E+03</totfact>
</mgrwt>
</event>
<event>
 5    1  0.3294152E-002  0.1249995E+03  0.7818608E-02  0.1235070E+00
         -4   -1    0    0    0  501 -0.00000000000E+00  0.00000000000E+00  0.49435726702E+02  0.49452037112E+02  0.12700000000E+01 0.  1.
          4   -1    0    0  501    0  0.00000000000E+00 -0.00000000000E+00 -0.78981669354E+02  0.78991879291E+02  0.12700000000E+01 0.  1.
         25    2    1    2    0    0  0.00000000000E+00  0.00000000000E+00 -0.29545942652E+02  0.12844391640E+03  0.12499950773E+03 0.  0.
    9000005    1    3    3    0    0  0.46765411068E+02 -0.38499542690E+02  0.10126597924E+01  0.60590790881E+02  0.10000000000E+01 0.  0.
    9000005    1    3    3    0    0 -0.46765411068E+02  0.38499542690E+02 -0.30558602444E+02  0.67853125522E+02  0.10000000000E+01 0.  0.
<mgrwt>
<rscale>  0 0.12499951E+03</rscale>
<asrwt>0</asrwt>
<pdfrwt beam="2">  1        4 0.12153066E-01 0.12499951E+03</pdfrwt>
<pdfrwt beam="1">  1       -4 0.76075365E-02 0.12499951E+03</pdfrwt>
<totfact> 0.10378027E+04</totfact>
</mgrwt>
</event>
<event>
 5    1  0.3294152E-002  0.1249995E+03  0.7818608E-02  0.1235070E+00
         -4   -1    0    0    0  501 -0.00000000000E+00  0.00000000000E+00  0.20550574925E+03  0.20550967343E+03  0.12700000000E+01 0. -1.
          4   -1    0    0  501    0  0.00000000000E+00 -0.00000000000E+00 -0.18982520233E+02  0.19024956620E+02  0.12700000000E+01 0. -1.
         25    2    1    2    0    0  0.00000000000E+00  0.00000000000E+00  0.18652322901E+03  0.22453463005E+03  0.12499954052E+03 0.  0.
    9000005    1    3    3    0    0  0.22720158200E+02  0.30294606876E+02  0.18255791674E+03  0.18644667269E+03  0.10000000000E+01 0.  0.
    9000005    1    3    3    0    0 -0.22720158200E+02 -0.30294606876E+02  0.39653122780E+01  0.38087957360E+02  0.10000000000E+01 0.  0.
<mgrwt>
<rscale>  0 0.12499954E+03</rscale>
<asrwt>0</asrwt>
<pdfrwt beam="2">  1        4 0.29239539E-02 0.12499954E+03</pdfrwt>
<pdfrwt beam="1">  1       -4 0.31619835E-01 0.12499954E+03</pdfrwt>
<totfact> 0.86156734E+03</totfact>
</mgrwt>
</event>
<event>
 5    1  0.3294152E-002  0.1249725E+03  0.7818608E-02  0.1235112E+00
         -4   -1    0    0    0  501 -0.00000000000E+00  0.00000000000E+00  0.13720542219E+02  0.13779193691E+02  0.12700000000E+01 0.  1.
          4   -1    0    0  501    0  0.00000000000E+00 -0.00000000000E+00 -0.28390862591E+03  0.28391146643E+03  0.12700000000E+01 0.  1.
         25    2    1    2    0    0  0.00000000000E+00  0.00000000000E+00 -0.27018808370E+03  0.29769066012E+03  0.12497251118E+03 0.  0.
    9000005    1    3    3    0    0 -0.46892741545E+02 -0.26400237379E+02 -0.59480193464E+02  0.80217174955E+02  0.10000000000E+01 0.  0.
    9000005    1    3    3    0    0  0.46892741545E+02  0.26400237379E+02 -0.21070789023E+03  0.21747348516E+03  0.10000000000E+01 0.  0.
<mgrwt>
<rscale>  0 0.12497251E+03</rscale>
<asrwt>0</asrwt>
<pdfrwt beam="2">  1        4 0.43682976E-01 0.12497251E+03</pdfrwt>
<pdfrwt beam="1">  1       -4 0.21155830E-02 0.12497251E+03</pdfrwt>
<totfact> 0.75935771E+03</totfact>
</mgrwt>
</event>
<event>
 5    1  0.3294152E-002  0.1249997E+03  0.7818608E-02  0.1235070E+00
         -4   -1    0    0    0  501 -0.00000000000E+00  0.00000000000E+00  0.48156560152E+02  0.48173303662E+02  0.12700000000E+01 0.  1.
          4   -1    0    0  501    0  0.00000000000E+00 -0.00000000000E+00 -0.81079372998E+02  0.81089318814E+02  0.12700000000E+01 0.  1.
         25    2    1    2    0    0  0.00000000000E+00  0.00000000000E+00 -0.32922812846E+02  0.12926262248E+03  0.12499965585E+03 0.  0.
    9000005    1    3    3    0    0 -0.14010181446E+02  0.27128544270E+02 -0.72846010207E+02  0.78992305331E+02  0.10000000000E+01 0.  0.
    9000005    1    3    3    0    0  0.14010181446E+02 -0.27128544270E+02  0.39923197361E+02  0.50270317145E+02  0.10000000000E+01 0.  0.
<mgrwt>
<rscale>  0 0.12499966E+03</rscale>
<asrwt>0</asrwt>
<pdfrwt beam="2">  1        4 0.12475803E-01 0.12499966E+03</pdfrwt>
<pdfrwt beam="1">  1       -4 0.74107546E-02 0.12499966E+03</pdfrwt>
<totfact> 0.10360387E+04</totfact>
</mgrwt>
</event>
<event>
 5    1  0.3294152E-002  0.1249885E+03  0.7818608E-02  0.1235087E+00
         -4   -1    0    0    0  501 -0.00000000000E+00  0.00000000000E+00  0.21219190640E+03  0.21219570693E+03  0.12700000000E+01 0.  1.
          4   -1    0    0  501    0  0.00000000000E+00 -0.00000000000E+00 -0.18379764948E+02  0.18423589757E+02  0.12700000000E+01 0.  1.
         25    2    1    2    0    0  0.00000000000E+00  0.00000000000E+00  0.19381214145E+03  0.23061929669E+03  0.12498845480E+03 0.  0.
    9000005    1    3    3    0    0  0.44160343937E+02 -0.43666070458E+02  0.10964502023E+03  0.12601544409E+03  0.10000000000E+01 0.  0.
    9000005    1    3    3    0    0 -0.44160343937E+02  0.43666070458E+02  0.84167121216E+02  0.10460385260E+03  0.10000000000E+01 0.  0.
<mgrwt>
<rscale>  0 0.12498845E+03</rscale>
<asrwt>0</asrwt>
<pdfrwt beam="2">  1        4 0.28313199E-02 0.12498845E+03</pdfrwt>
<pdfrwt beam="1">  1       -4 0.32648569E-01 0.12498845E+03</pdfrwt>
<totfact> 0.85236549E+03</totfact>
</mgrwt>
</event>
<event>
 5    1  0.3294152E-002  0.1250012E+03  0.7818608E-02  0.1235067E+00
         -4   -1    0    0    0  501 -0.00000000000E+00  0.00000000000E+00  0.22554241136E+02  0.22589968863E+02  0.12700000000E+01 0.  1.
          4   -1    0    0  501    0  0.00000000000E+00 -0.00000000000E+00 -0.17302186299E+03  0.17302652390E+03  0.12700000000E+01 0.  1.
         25    2    1    2    0    0  0.00000000000E+00  0.00000000000E+00 -0.15046762185E+03  0.19561649276E+03  0.12500122805E+03 0.  0.
    9000005    1    3    3    0    0 -0.34216969698E+02 -0.50272093018E+02 -0.52705403234E+02  0.80479462484E+02  0.10000000000E+01 0.  0.
    9000005    1    3    3    0    0  0.34216969698E+02  0.50272093018E+02 -0.97762218620E+02  0.11513703028E+03  0.10000000000E+01 0.  0.
<mgrwt>
<rscale>  0 0.12500123E+03</rscale>
<asrwt>0</asrwt>
<pdfrwt beam="2">  1        4 0.26621854E-01 0.12500123E+03</pdfrwt>
<pdfrwt beam="1">  1       -4 0.34729902E-02 0.12500123E+03</pdfrwt>
<totfact> 0.90876645E+03</totfact>
</mgrwt>
</event>
<event>
 5    1  0.3294152E-002  0.1249990E+03  0.7818608E-02  0.1235071E+00
          4   -1    0    0  501    0  0.00000000000E+00  0.00000000000E+00  0.83296771882E+02  0.83306452967E+02  0.12700000000E+01 0. -1.
         -4   -1    0    0    0  501 -0.00000000000E+00 -0.00000000000E+00 -0.46873782918E+02  0.46890984475E+02  0.12700000000E+01 0. -1.
         25    2    1    2    0    0  0.00000000000E+00  0.00000000000E+00  0.36422988964E+02  0.13019743744E+03  0.12499895436E+03 0.  0.
    9000005    1    3    3    0    0 -0.20749894125E+02 -0.51273426331E+02  0.48501164346E+02  0.73572313385E+02  0.10000000000E+01 0.  0.
    9000005    1    3    3    0    0  0.20749894125E+02  0.51273426331E+02 -0.12078175381E+02  0.56625124057E+02  0.10000000000E+01 0.  0.
<mgrwt>
<rscale>  0 0.12499895E+03</rscale>
<asrwt>0</asrwt>
<pdfrwt beam="1">  1        4 0.12816956E-01 0.12499895E+03</pdfrwt>
<pdfrwt beam="2">  1       -4 0.72134191E-02 0.12499895E+03</pdfrwt>
<totfact> 0.10340530E+04</totfact>
</mgrwt>
</event>
<event>
 5    1  0.3294152E-002  0.1250028E+03  0.7818608E-02  0.1235065E+00
          4   -1    0    0  501    0  0.00000000000E+00  0.00000000000E+00  0.70504095285E+03  0.70504209668E+03  0.12700000000E+01 0.  1.
         -4   -1    0    0    0  501 -0.00000000000E+00 -0.00000000000E+00 -0.54667665370E+01  0.56123467792E+01  0.12700000000E+01 0.  1.
         25    2    1    2    0    0  0.00000000000E+00  0.00000000000E+00  0.69957418631E+03  0.71065444346E+03  0.12500278340E+03 0.  0.
    9000005    1    3    3    0    0  0.36082176346E+02  0.18887904241E+02  0.61926051334E+03  0.62059911356E+03  0.10000000000E+01 0.  0.
    9000005    1    3    3    0    0 -0.36082176346E+02 -0.18887904241E+02  0.80313672978E+02  0.90055329901E+02  0.10000000000E+01 0.  0.
<mgrwt>
<rscale>  0 0.12500278E+03</rscale>
<asrwt>0</asrwt>
<pdfrwt beam="1">  1        4 0.10847914E+00 0.12500278E+03</pdfrwt>
<pdfrwt beam="2">  1       -4 0.85232733E-03 0.12500278E+03</pdfrwt>
<totfact> 0.42527605E+03</totfact>
</mgrwt>
</event>
<event>
 5    1  0.3294152E-002  0.1250056E+03  0.7818608E-02  0.1235060E+00
         -4   -1    0    0    0  501 -0.00000000000E+00  0.00000000000E+00  0.26617818917E+03  0.26618121889E+03  0.12700000000E+01 0. -1.
          4   -1    0    0  501    0  0.00000000000E+00 -0.00000000000E+00 -0.14646047848E+02  0.14701007365E+02  0.12700000000E+01 0. -1.
         25    2    1    2    0    0  0.00000000000E+00  0.00000000000E+00  0.25153214132E+03  0.28088222625E+03  0.12500562750E+03 0.  0.
    9000005    1    3    3    0    0  0.32879887707E+02  0.31089020698E+02  0.28912399163E+02  0.53707923521E+02  0.10000000000E+01 0.  0.
    9000005    1    3    3    0    0 -0.32879887707E+02 -0.31089020698E+02  0.22261974216E+03  0.22717430273E+03  0.10000000000E+01 0.  0.
<mgrwt>
<rscale>  0 0.12500563E+03</rscale>
<asrwt>0</asrwt>
<pdfrwt beam="2">  1        4 0.22576988E-02 0.12500563E+03</pdfrwt>
<pdfrwt beam="1">  1       -4 0.40954952E-01 0.12500563E+03</pdfrwt>
<totfact> 0.78051509E+03</totfact>
</mgrwt>
</event>
<event>
 5    1  0.3294152E-002  0.1249996E+03  0.7818608E-02  0.1235070E+00
          4   -1    0    0  501    0  0.00000000000E+00  0.00000000000E+00  0.33524571963E+03  0.33524812517E+03  0.12700000000E+01 0.  1.
         -4   -1    0    0    0  501 -0.00000000000E+00 -0.00000000000E+00 -0.11614761321E+02  0.11683988212E+02  0.12700000000E+01 0.  1.
         25    2    1    2    0    0  0.00000000000E+00  0.00000000000E+00  0.32363095831E+03  0.34693211338E+03  0.12499957648E+03 0.  0.
    9000005    1    3    3    0    0  0.29695465320E+02  0.15062655367E+02  0.30858803916E+03  0.31038086629E+03  0.10000000000E+01 0.  0.
    9000005    1    3    3    0    0 -0.29695465320E+02 -0.15062655367E+02  0.15042919146E+02  0.36551247088E+02  0.10000000000E+01 0.  0.
<mgrwt>
<rscale>  0 0.12499958E+03</rscale>
<asrwt>0</asrwt>
<pdfrwt beam="1">  1        4 0.51581771E-01 0.12499958E+03</pdfrwt>
<pdfrwt beam="2">  1       -4 0.17923967E-02 0.12499958E+03</pdfrwt>
<totfact> 0.70064042E+03</totfact>
</mgrwt>
</event>
<event>
 5    1  0.3294152E-002  0.1250025E+03  0.7818608E-02  0.1235065E+00
          4   -1    0    0  501    0  0.00000000000E+00  0.00000000000E+00  0.85062695712E+02  0.85072175838E+02  0.12700000000E+01 0.  1.
         -4   -1    0    0    0  501 -0.00000000000E+00 -0.00000000000E+00 -0.45902993377E+02  0.45920558588E+02  0.12700000000E+01 0.  1.
         25    2    1    2    0    0  0.00000000000E+00  0.00000000000E+00  0.39159702334E+02  0.13099273443E+03  0.12500245672E+03 0.  0.
    9000005    1    3    3    0    0 -0.80956492025E+01 -0.43338966995E+02  0.65992211897E+02  0.79371138503E+02  0.10000000000E+01 0.  0.
    9000005    1    3    3    0    0  0.80956492025E+01  0.43338966995E+02 -0.26832509562E+02  0.51621595923E+02  0.10000000000E+01 0.  0.
<mgrwt>
<rscale>  0 0.12500246E+03</rscale>
<asrwt>0</asrwt>
<pdfrwt beam="1">  1        4 0.13088649E-01 0.12500246E+03</pdfrwt>
<pdfrwt beam="2">  1       -4 0.70640794E-02 0.12500246E+03</pdfrwt>
<totfact> 0.10322673E+04</totfact>
</mgrwt>
</event>
<event>
 5    1  0.3294152E-002  0.1250029E+03  0.7818608E-02  0.1235065E+00
         -4   -1    0    0    0  501 -0.00000000000E+00  0.00000000000E+00  0.69374506678E+01  0.70527386005E+01  0.12700000000E+01 0.  1.
          4   -1    0    0  501    0  0.00000000000E+00 -0.00000000000E+00 -0.55833719981E+03  0.55833864419E+03  0.12700000000E+01 0.  1.
         25    2    1    2    0    0  0.00000000000E+00  0.00000000000E+00 -0.55139974914E+03  0.56539138279E+03  0.12500292947E+03 0.  0.
    9000005    1    3    3    0    0 -0.56542155245E+02 -0.28579647792E+01 -0.15601052844E+03  0.16596827488E+03  0.10000000000E+01 0.  0.
    9000005    1    3    3    0    0  0.56542155245E+02  0.28579647792E+01 -0.39538922070E+03  0.39942310791E+03  0.10000000000E+01 0.  0.
<mgrwt>
<rscale>  0 0.12500293E+03</rscale>
<asrwt>0</asrwt>
<pdfrwt beam="2">  1        4 0.85906975E-01 0.12500293E+03</pdfrwt>
<pdfrwt beam="1">  1       -4 0.10762800E-02 0.12500293E+03</pdfrwt>
<totfact> 0.51124438E+03</totfact>
</mgrwt>
</event>
<event>
 5    1  0.3294152E-002  0.1250027E+03  0.7818608E-02  0.1235065E+00
         -4   -1    0    0    0  501 -0.00000000000E+00  0.00000000000E+00  0.52802604488E+02  0.52817875201E+02  0.12700000000E+01 0. -1.
          4   -1    0    0  501    0  0.00000000000E+00 -0.00000000000E+00 -0.73950108485E+02  0.73961013006E+02  0.12700000000E+01 0. -1.
         25    2    1    2    0    0  0.00000000000E+00  0.00000000000E+00 -0.21147503996E+02  0.12677888821E+03  0.12500267825E+03 0.  0.
    9000005    1    3    3    0    0 -0.11994071737E+02 -0.53528724896E+02 -0.40936329095E+02  0.68454110071E+02  0.10000000000E+01 0.  0.
    9000005    1    3    3    0    0  0.11994071737E+02  0.53528724896E+02  0.19788825099E+02  0.58324778136E+02  0.10000000000E+01 0.  0.
<mgrwt>
<rscale>  0 0.12500268E+03</rscale>
<asrwt>0</asrwt>
<pdfrwt beam="2">  1        4 0.11378953E-01 0.12500268E+03</pdfrwt>
<pdfrwt beam="1">  1       -4 0.81254911E-02 0.12500268E+03</pdfrwt>
<totfact> 0.10413324E+04</totfact>
</mgrwt>
</event>
<event>
 5    1  0.3294152E-002  0.1249828E+03  0.7818608E-02  0.1235096E+00
         -4   -1    0    0    0  501 -0.00000000000E+00  0.00000000000E+00  0.18813277008E+02  0.18856094288E+02  0.12700000000E+01 0. -1.
          4   -1    0    0  501    0  0.00000000000E+00 -0.00000000000E+00 -0.20729482548E+03  0.20729871579E+03  0.12700000000E+01 0. -1.
         25    2    1    2    0    0  0.00000000000E+00  0.00000000000E+00 -0.18848154847E+03  0.22615481008E+03  0.12498281486E+03 0.  0.
    9000005    1    3    3    0    0 -0.28248842824E+02 -0.54247222036E+02 -0.71109200293E+02  0.93799128918E+02  0.10000000000E+01 0.  0.
    9000005    1    3    3    0    0  0.28248842824E+02  0.54247222036E+02 -0.11737234818E+03  0.13235568116E+03  0.10000000000E+01 0.  0.
<mgrwt>
<rscale>  0 0.12498281E+03</rscale>
<asrwt>0</asrwt>
<pdfrwt beam="2">  1        4 0.31895103E-01 0.12498281E+03</pdfrwt>
<pdfrwt beam="1">  1       -4 0.28979433E-02 0.12498281E+03</pdfrwt>
<totfact> 0.85936506E+03</totfact>
</mgrwt>
</event>
<event>
 5    1  0.3294152E-002  0.1250085E+03  0.7818608E-02  0.1235056E+00
          4   -1    0    0  501    0  0.00000000000E+00  0.00000000000E+00  0.64171795899E+02  0.64184361717E+02  0.12700000000E+01 0. -1.
         -4   -1    0    0    0  501 -0.00000000000E+00 -0.00000000000E+00 -0.60854914468E+02  0.60868165037E+02  0.12700000000E+01 0. -1.
         25    2    1    2    0    0  0.00000000000E+00  0.00000000000E+00  0.33168814313E+01  0.12505252675E+03  0.12500853069E+03 0.  0.
    9000005    1    3    3    0    0 -0.62479814271E+02 -0.13177427906E+01  0.22239261309E+01  0.62541262258E+02  0.10000000000E+01 0.  0.
    9000005    1    3    3    0    0  0.62479814271E+02  0.13177427906E+01  0.10929553005E+01  0.62511264495E+02  0.10000000000E+01 0.  0.
<mgrwt>
<rscale>  0 0.12500853E+03</rscale>
<asrwt>0</asrwt>
<pdfrwt beam="1">  1        4 0.98745699E-02 0.12500853E+03</pdfrwt>
<pdfrwt beam="2">  1       -4 0.93642803E-02 0.12500853E+03</pdfrwt>
<totfact> 0.10449707E+04</totfact>
</mgrwt>
</event>
<event>
 5    1  0.3294152E-002  0.1250051E+03  0.7818608E-02  0.1235061E+00
          4   -1    0    0  501    0  0.00000000000E+00  0.00000000000E+00  0.22297219962E+04  0.22297223579E+04  0.12700000000E+01 0. -1.
         -4   -1    0    0    0  501 -0.00000000000E+00 -0.00000000000E+00 -0.15214865271E+01  0.19818731675E+01  0.12700000000E+01 0. -1.
         25    2    1    2    0    0  0.00000000000E+00  0.00000000000E+00  0.22282005097E+04  0.22317042310E+04  0.12500505421E+03 0.  0.
    9000005    1    3    3    0    0 -0.17547462751E+02 -0.15789036887E+02  0.21471590896E+04  0.21472890730E+04  0.10000000000E+01 0.  0.
    9000005    1    3    3    0    0  0.17547462751E+02  0.15789036887E+02  0.81041420090E+02  0.84415158029E+02  0.10000000000E+01 0.  0.
<mgrwt>
<rscale>  0 0.12500505E+03</rscale>
<asrwt>0</asrwt>
<pdfrwt beam="1">  1        4 0.34306955E+00 0.12500505E+03</pdfrwt>
<pdfrwt beam="2">  1       -4 0.26951707E-03 0.12500505E+03</pdfrwt>
<totfact> 0.71312197E+02</totfact>
</mgrwt>
</event>
<event>
 5    1  0.3294152E-002  0.1250067E+03  0.7818608E-02  0.1235059E+00
         -4   -1    0    0    0  501 -0.00000000000E+00  0.00000000000E+00  0.49153708453E+02  0.49170112413E+02  0.12700000000E+01 0. -1.
          4   -1    0    0  501    0  0.00000000000E+00 -0.00000000000E+00 -0.79443825592E+02  0.79453976141E+02  0.12700000000E+01 0. -1.
         25    2    1    2    0    0  0.00000000000E+00  0.00000000000E+00 -0.30290117138E+02  0.12862408855E+03  0.12500665966E+03 0.  0.
    9000005    1    3    3    0    0 -0.19021606671E+01  0.61167281903E+00  0.49125880143E+02  0.49176665795E+02  0.10000000000E+01 0.  0.
    9000005    1    3    3    0    0  0.19021606671E+01 -0.61167281903E+00 -0.79415997282E+02  0.79447422759E+02  0.10000000000E+01 0.  0.
<mgrwt>
<rscale>  0 0.12500666E+03</rscale>
<asrwt>0</asrwt>
<pdfrwt beam="2">  1        4 0.12224170E-01 0.12500666E+03</pdfrwt>
<pdfrwt beam="1">  1       -4 0.75641516E-02 0.12500666E+03</pdfrwt>
<totfact> 0.10372472E+04</totfact>
</mgrwt>
</event>
<event>
 5    1  0.3294152E-002  0.1249929E+03  0.7818608E-02  0.1235080E+00
         -4   -1    0    0    0  501 -0.00000000000E+00  0.00000000000E+00  0.22537300238E+02  0.22573054778E+02  0.12700000000E+01 0. -1.
          4   -1    0    0  501    0  0.00000000000E+00 -0.00000000000E+00 -0.17312859579E+03  0.17313325382E+03  0.12700000000E+01 0. -1.
         25    2    1    2    0    0  0.00000000000E+00  0.00000000000E+00 -0.15059129555E+03  0.19570630860E+03  0.12499288352E+03 0.  0.
    9000005    1    3    3    0    0 -0.70896333330E+01  0.60348277983E+02 -0.98126884385E+02  0.11542124153E+03  0.10000000000E+01 0.  0.
    9000005    1    3    3    0    0  0.70896333330E+01 -0.60348277983E+02 -0.52464411164E+02  0.80285067075E+02  0.10000000000E+01 0.  0.
<mgrwt>
<rscale>  0 0.12499288E+03</rscale>
<asrwt>0</asrwt>
<pdfrwt beam="2">  1        4 0.26638276E-01 0.12499288E+03</pdfrwt>
<pdfrwt beam="1">  1       -4 0.34703857E-02 0.12499288E+03</pdfrwt>
<totfact> 0.90878284E+03</totfact>
</mgrwt>
</event>
<event>
 5    1  0.3294152E-002  0.1249988E+03  0.7818608E-02  0.1235071E+00
          4   -1    0    0  501    0  0.00000000000E+00  0.00000000000E+00  0.39621448291E+03  0.39621651829E+03  0.12700000000E+01 0.  1.
         -4   -1    0    0    0  501 -0.00000000000E+00 -0.00000000000E+00 -0.98157757693E+01  0.98975933415E+01  0.12700000000E+01 0.  1.
         25    2    1    2    0    0  0.00000000000E+00  0.00000000000E+00  0.38639870714E+03  0.40611411163E+03  0.12499884315E+03 0.  0.
    9000005    1    3    3    0    0 -0.40980782097E+02 -0.47137078013E+02  0.19957347177E+03  0.20912173311E+03  0.10000000000E+01 0.  0.
    9000005    1    3    3    0    0  0.40980782097E+02  0.47137078013E+02  0.18682523537E+03  0.19699237853E+03  0.10000000000E+01 0.  0.
<mgrwt>
<rscale>  0 0.12499884E+03</rscale>
<asrwt>0</asrwt>
<pdfrwt beam="1">  1        4 0.60962531E-01 0.12499884E+03</pdfrwt>
<pdfrwt beam="2">  1       -4 0.15165694E-02 0.12499884E+03</pdfrwt>
<totfact> 0.63964078E+03</totfact>
</mgrwt>
</event>
<event>
 5    1  0.3294152E-002  0.1250012E+03  0.7818608E-02  0.1235067E+00
          4   -1    0    0  501    0  0.00000000000E+00  0.00000000000E+00  0.83574745105E+02  0.83584393994E+02  0.12700000000E+01 0.  1.
         -4   -1    0    0    0  501 -0.00000000000E+00 -0.00000000000E+00 -0.46719493336E+02  0.46736751680E+02  0.12700000000E+01 0.  1.
         25    2    1    2    0    0  0.00000000000E+00  0.00000000000E+00  0.36855251768E+02  0.13032114567E+03  0.12500116570E+03 0.  0.
    9000005    1    3    3    0    0 -0.53302061310E+02 -0.31248598145E+02  0.28193143383E+02  0.67922293540E+02  0.10000000000E+01 0.  0.
    9000005    1    3    3    0    0  0.53302061310E+02  0.31248598145E+02  0.86621083859E+01  0.62398852134E+02  0.10000000000E+01 0.  0.
<mgrwt>
<rscale>  0 0.12500117E+03</rscale>
<asrwt>0</asrwt>
<pdfrwt beam="1">  1        4 0.12859723E-01 0.12500117E+03</pdfrwt>
<pdfrwt beam="2">  1       -4 0.71896842E-02 0.12500117E+03</pdfrwt>
<totfact> 0.10337370E+04</totfact>
</mgrwt>
</event>
<event>
 5    1  0.3294152E-002  0.1249464E+03  0.7818608E-02  0.1235153E+00
          4   -1    0    0  501    0  0.00000000000E+00  0.00000000000E+00  0.19870792027E+02  0.19911335359E+02  0.12700000000E+01 0. -1.
         -4   -1    0    0    0  501 -0.00000000000E+00 -0.00000000000E+00 -0.19617109846E+03  0.19617520937E+03  0.12700000000E+01 0. -1.
         25    2    1    2    0    0  0.00000000000E+00  0.00000000000E+00 -0.17630030644E+03  0.21608654473E+03  0.12494637556E+03 0.  0.
    9000005    1    3    3    0    0 -0.47720749789E+01 -0.49571424033E+01 -0.19552216398E+03  0.19564575786E+03  0.10000000000E+01 0.  0.
    9000005    1    3    3    0    0  0.47720749789E+01  0.49571424033E+01  0.19221857546E+02  0.20440786871E+02  0.10000000000E+01 0.  0.
<mgrwt>
<rscale>  0 0.12494638E+03</rscale>
<asrwt>0</asrwt>
<pdfrwt beam="1">  1        4 0.30604800E-02 0.12494638E+03</pdfrwt>
<pdfrwt beam="2">  1       -4 0.30183602E-01 0.12494638E+03</pdfrwt>
<totfact> 0.87596332E+03</totfact>
</mgrwt>
</event>
<event>
 4    1  0.3294152E-002  0.1216162E+03  0.7818608E-02  0.1240454E+00
          4   -1    0    0  501    0  0.00000000000E+00  0.00000000000E+00  0.36237012283E+02  0.36259260324E+02  0.12700000000E+01 0. -1.
         -4   -1    0    0    0  501 -0.00000000000E+00 -0.00000000000E+00 -0.10198253839E+03  0.10199044581E+03  0.12700000000E+01 0. -1.
    9000005    1    1    2    0    0 -0.52591463962E+02 -0.88947868207E+01  0.30160127187E+00  0.53348573342E+02  0.10000000000E+01 0.  0.
    9000005    1    1    2    0    0  0.52591463962E+02  0.88947868207E+01 -0.66047127376E+02  0.84901132789E+02  0.10000000000E+01 0.  0.
<mgrwt>
<rscale>  0 0.12161623E+03</rscale>
<asrwt>0</asrwt>
<pdfrwt beam="1">  1        4 0.55772447E-02 0.12161623E+03</pdfrwt>
<pdfrwt beam="2">  1       -4 0.15691941E-01 0.12161623E+03</pdfrwt>
<totfact> 0.10985960E+04</totfact>
</mgrwt>
</event>
<event>
 5    1  0.3294152E-002  0.1250020E+03  0.7818608E-02  0.1235066E+00
         -4   -1    0    0    0  501 -0.00000000000E+00  0.00000000000E+00  0.23016792001E+02  0.23051802836E+02  0.12700000000E+01 0.  1.
          4   -1    0    0  501    0  0.00000000000E+00 -0.00000000000E+00 -0.16955211521E+03  0.16955687150E+03  0.12700000000E+01 0.  1.
         25    2    1    2    0    0  0.00000000000E+00  0.00000000000E+00 -0.14653532321E+03  0.19260867433E+03  0.12500200191E+03 0.  0.
    9000005    1    3    3    0    0 -0.73612303924E+01 -0.47344724987E+02 -0.13508731226E+03  0.14333629209E+03  0.10000000000E+01 0.  0.
    9000005    1    3    3    0    0  0.73612303924E+01  0.47344724987E+02 -0.11448010948E+02  0.49272382241E+02  0.10000000000E+01 0.  0.
<mgrwt>
<rscale>  0 0.12500200E+03</rscale>
<asrwt>0</asrwt>
<pdfrwt beam="2">  1        4 0.26087999E-01 0.12500200E+03</pdfrwt>
<pdfrwt beam="1">  1       -4 0.35441040E-02 0.12500200E+03</pdfrwt>
<totfact> 0.91391288E+03</totfact>
</mgrwt>
</event>
<event>
 5    1  0.3294152E-002  0.1250057E+03  0.7818608E-02  0.1235060E+00
         -4   -1    0    0    0  501 -0.00000000000E+00  0.00000000000E+00  0.86339280458E+02  0.86348620429E+02  0.12700000000E+01 0.  1.
          4   -1    0    0  501    0  0.00000000000E+00 -0.00000000000E+00 -0.45226478368E+02  0.45244306223E+02  0.12700000000E+01 0.  1.
         25    2    1    2    0    0  0.00000000000E+00  0.00000000000E+00  0.41112802090E+02  0.13159292665E+03  0.12500574327E+03 0.  0.
    9000005    1    3    3    0    0  0.58355115772E+02  0.85163639903E+01 -0.12158411623E+01  0.58994290081E+02  0.10000000000E+01 0.  0.
    9000005    1    3    3    0    0 -0.58355115772E+02 -0.85163639903E+01  0.42328643252E+02  0.72598636571E+02  0.10000000000E+01 0.  0.
<mgrwt>
<rscale>  0 0.12500574E+03</rscale>
<asrwt>0</asrwt>
<pdfrwt beam="2">  1        4 0.69600096E-02 0.12500574E+03</pdfrwt>
<pdfrwt beam="1">  1       -4 0.13285056E-01 0.12500574E+03</pdfrwt>
<totfact> 0.10309059E+04</totfact>
</mgrwt>
</event>
<event>
 5    1  0.3294152E-002  0.1250009E+03  0.7818608E-02  0.1235068E+00
          4   -1    0    0  501    0  0.00000000000E+00  0.00000000000E+00  0.23882239463E+03  0.23882577139E+03  0.12700000000E+01 0. -1.
         -4   -1    0    0    0  501 -0.00000000000E+00 -0.00000000000E+00 -0.16328376984E+02  0.16377691990E+02  0.12700000000E+01 0. -1.
         25    2    1    2    0    0  0.00000000000E+00  0.00000000000E+00  0.22249401765E+03  0.25520346338E+03  0.12500087932E+03 0.  0.
    9000005    1    3    3    0    0 -0.27539478924E+02  0.58581403223E+01 -0.26553343399E+01  0.28298259804E+02  0.10000000000E+01 0.  0.
    9000005    1    3    3    0    0  0.27539478924E+02 -0.58581403223E+01  0.22514935199E+03  0.22690520357E+03  0.10000000000E+01 0.  0.
<mgrwt>
<rscale>  0 0.12500088E+03</rscale>
<asrwt>0</asrwt>
<pdfrwt beam="1">  1        4 0.36745960E-01 0.12500088E+03</pdfrwt>
<pdfrwt beam="2">  1       -4 0.25161112E-02 0.12500088E+03</pdfrwt>
<totfact> 0.81582335E+03</totfact>
</mgrwt>
</event>
<event>
 5    1  0.3294152E-002  0.1249978E+03  0.7818608E-02  0.1235073E+00
          4   -1    0    0  501    0  0.00000000000E+00  0.00000000000E+00  0.27746459570E+02  0.27775509333E+02  0.12700000000E+01 0.  1.
         -4   -1    0    0    0  501 -0.00000000000E+00 -0.00000000000E+00 -0.14067328707E+03  0.14067901974E+03  0.12700000000E+01 0.  1.
         25    2    1    2    0    0  0.00000000000E+00  0.00000000000E+00 -0.11292682750E+03  0.16845452907E+03  0.12499783996E+03 0.  0.
    9000005    1    3    3    0    0  0.54024099816E+02  0.13801228671E+02 -0.94486468831E+02  0.10971677204E+03  0.10000000000E+01 0.  0.
    9000005    1    3    3    0    0 -0.54024099816E+02 -0.13801228671E+02 -0.18440358668E+02  0.58737757036E+02  0.10000000000E+01 0.  0.
<mgrwt>
<rscale>  0 0.12499784E+03</rscale>
<asrwt>0</asrwt>
<pdfrwt beam="1">  1        4 0.42713617E-02 0.12499784E+03</pdfrwt>
<pdfrwt beam="2">  1       -4 0.21644719E-01 0.12499784E+03</pdfrwt>
<totfact> 0.95741774E+03</totfact>
</mgrwt>
</event>
<event>
 5    1  0.3294152E-002  0.1250034E+03  0.7818608E-02  0.1235064E+00
         -4   -1    0    0    0  501 -0.00000000000E+00  0.00000000000E+00  0.14547445542E+03  0.14547999890E+03  0.12700000000E+01 0. -1.
          4   -1    0    0  501    0  0.00000000000E+00 -0.00000000000E+00 -0.26832198471E+02  0.26862236966E+02  0.12700000000E+01 0. -1.
         25    2    1    2    0    0  0.00000000000E+00  0.00000000000E+00  0.11864225695E+03  0.17234223586E+03  0.12500344447E+03 0.  0.
    9000005    1    3    3    0    0  0.44493549693E+02  0.27954289563E+02  0.10596006220E+03  0.11827786374E+03  0.10000000000E+01 0.  0.
    9000005    1    3    3    0    0 -0.44493549693E+02 -0.27954289563E+02  0.12682194743E+02  0.54064372121E+02  0.10000000000E+01 0.  0.
<mgrwt>
<rscale>  0 0.12500344E+03</rscale>
<asrwt>0</asrwt>
<pdfrwt beam="2">  1        4 0.41307675E-02 0.12500344E+03</pdfrwt>
<pdfrwt beam="1">  1       -4 0.22383423E-01 0.12500344E+03</pdfrwt>
<totfact> 0.95006526E+03</totfact>
</mgrwt>
</event>
<event>
 5    1  0.3294152E-002  0.1249983E+03  0.7818608E-02  0.1235072E+00
          4   -1    0    0  501    0  0.00000000000E+00  0.00000000000E+00  0.44868821183E+02  0.44886791090E+02  0.12700000000E+01 0. -1.
         -4   -1    0    0    0  501 -0.00000000000E+00 -0.00000000000E+00 -0.87016922583E+02  0.87026189827E+02  0.12700000000E+01 0. -1.
         25    2    1    2    0    0  0.00000000000E+00  0.00000000000E+00 -0.42148101400E+02  0.13191298092E+03  0.12499828832E+03 0.  0.
    9000005    1    3    3    0    0 -0.43824879151E+02  0.14328565350E+02 -0.65588162162E+02  0.80179391575E+02  0.10000000000E+01 0.  0.
    9000005    1    3    3    0    0  0.43824879151E+02 -0.14328565350E+02  0.23440060763E+02  0.51733589341E+02  0.10000000000E+01 0.  0.
<mgrwt>
<rscale>  0 0.12499829E+03</rscale>
<asrwt>0</asrwt>
<pdfrwt beam="1">  1        4 0.69049908E-02 0.12499829E+03</pdfrwt>
<pdfrwt beam="2">  1       -4 0.13389314E-01 0.12499829E+03</pdfrwt>
<totfact> 0.10303954E+04</totfact>
</mgrwt>
</event>
<event>
 5    1  0.3294152E-002  0.1249986E+03  0.7818608E-02  0.1235071E+00
          4   -1    0    0  501    0  0.00000000000E+00  0.00000000000E+00  0.45097738885E+03  0.45097917708E+03  0.12700000000E+01 0. -1.
         -4   -1    0    0    0  501 -0.00000000000E+00 -0.00000000000E+00 -0.86131867585E+01  0.87063130048E+01  0.12700000000E+01 0. -1.
         25    2    1    2    0    0  0.00000000000E+00  0.00000000000E+00  0.44236420209E+03  0.45968549008E+03  0.12499864998E+03 0.  0.
    9000005    1    3    3    0    0 -0.36273147317E+02  0.36025114211E+01  0.40784844528E+03  0.40947536388E+03  0.10000000000E+01 0.  0.
    9000005    1    3    3    0    0  0.36273147317E+02 -0.36025114211E+01  0.34515756810E+02  0.50210126200E+02  0.10000000000E+01 0.  0.
<mgrwt>
<rscale>  0 0.12499865E+03</rscale>
<asrwt>0</asrwt>
<pdfrwt beam="1">  1        4 0.69388421E-01 0.12499865E+03</pdfrwt>
<pdfrwt beam="2">  1       -4 0.13324071E-02 0.12499865E+03</pdfrwt>
<totfact> 0.59135595E+03</totfact>
</mgrwt>
</event>
<event>
 5    1  0.3294152E-002  0.1250031E+03  0.7818608E-02  0.1235064E+00
         -4   -1    0    0    0  501 -0.00000000000E+00  0.00000000000E+00  0.60897148368E+01  0.62207336218E+01  0.12700000000E+01 0.  1.
          4   -1    0    0  501    0  0.00000000000E+00 -0.00000000000E+00 -0.63452371263E+03  0.63452498358E+03  0.12700000000E+01 0.  1.
         25    2    1    2    0    0  0.00000000000E+00  0.00000000000E+00 -0.62843399779E+03  0.64074571720E+03  0.12500313809E+03 0.  0.
    9000005    1    3    3    0    0 -0.54329432727E+02  0.25327349643E+02 -0.22363543282E+03  0.23153178770E+03  0.10000000000E+01 0.  0.
    9000005    1    3    3    0    0  0.54329432727E+02 -0.25327349643E+02 -0.40479856497E+03  0.40921392951E+03  0.10000000000E+01 0.  0.
<mgrwt>
<rscale>  0 0.12500314E+03</rscale>
<asrwt>0</asrwt>
<pdfrwt beam="2">  1        4 0.97629157E-01 0.12500314E+03</pdfrwt>
<pdfrwt beam="1">  1       -4 0.94705584E-03 0.12500314E+03</pdfrwt>
<totfact> 0.46389418E+03</totfact>
</mgrwt>
</event>
<event>
 5    1  0.3294152E-002  0.1249988E+03  0.7818608E-02  0.1235071E+00
         -4   -1    0    0    0  501 -0.00000000000E+00  0.00000000000E+00  0.14978985804E+03  0.14979524182E+03  0.12700000000E+01 0.  1.
          4   -1    0    0  501    0  0.00000000000E+00 -0.00000000000E+00 -0.26056385562E+02  0.26087317389E+02  0.12700000000E+01 0.  1.
         25    2    1    2    0    0  0.00000000000E+00  0.00000000000E+00  0.12373347247E+03  0.17588255920E+03  0.12499880968E+03 0.  0.
    9000005    1    3    3    0    0  0.54490368749E+02  0.15494064370E+02  0.98985475365E+02  0.11405433201E+03  0.10000000000E+01 0.  0.
    9000005    1    3    3    0    0 -0.54490368749E+02 -0.15494064370E+02  0.24747997109E+02  0.61828227194E+02  0.10000000000E+01 0.  0.
<mgrwt>
<rscale>  0 0.12499881E+03</rscale>
<asrwt>0</asrwt>
<pdfrwt beam="2">  1        4 0.40114681E-02 0.12499881E+03</pdfrwt>
<pdfrwt beam="1">  1       -4 0.23047387E-01 0.12499881E+03</pdfrwt>
<totfact> 0.94365969E+03</totfact>
</mgrwt>
</event>
<event>
 5    1  0.3294152E-002  0.1250037E+03  0.7818608E-02  0.1235063E+00
         -4   -1    0    0    0  501 -0.00000000000E+00  0.00000000000E+00  0.41284287707E+02  0.41303817154E+02  0.12700000000E+01 0.  1.
          4   -1    0    0  501    0  0.00000000000E+00 -0.00000000000E+00 -0.94577808968E+02  0.94586335425E+02  0.12700000000E+01 0.  1.
         25    2    1    2    0    0  0.00000000000E+00  0.00000000000E+00 -0.53293521261E+02  0.13589015258E+03  0.12500373658E+03 0.  0.
    9000005    1    3    3    0    0  0.52179655404E+02 -0.18154696159E+02  0.51061707652E+01  0.55492183329E+02  0.10000000000E+01 0.  0.
    9000005    1    3    3    0    0 -0.52179655404E+02  0.18154696159E+02 -0.58399692027E+02  0.80397969250E+02  0.10000000000E+01 0.  0.
<mgrwt>
<rscale>  0 0.12500374E+03</rscale>
<asrwt>0</asrwt>
<pdfrwt beam="2">  1        4 0.14552590E-01 0.12500374E+03</pdfrwt>
<pdfrwt beam="1">  1       -4 0.63535870E-02 0.12500374E+03</pdfrwt>
<totfact> 0.10218482E+04</totfact>
</mgrwt>
</event>
<event>
 5    1  0.3294152E-002  0.1249951E+03  0.7818608E-02  0.1235077E+00
         -4   -1    0    0    0  501 -0.00000000000E+00  0.00000000000E+00  0.18915714553E+02  0.18958300479E+02  0.12700000000E+01 0. -1.
          4   -1    0    0  501    0  0.00000000000E+00 -0.00000000000E+00 -0.20621512168E+03  0.20621903237E+03  0.12700000000E+01 0. -1.
         25    2    1    2    0    0  0.00000000000E+00  0.00000000000E+00 -0.18729940713E+03  0.22517733284E+03  0.12499505317E+03 0.  0.
    9000005    1    3    3    0    0  0.16819986099E+02  0.56050095896E+02 -0.13313545588E+03  0.14543237189E+03  0.10000000000E+01 0.  0.
    9000005    1    3    3    0    0 -0.16819986099E+02 -0.56050095896E+02 -0.54163951248E+02  0.79744960951E+02  0.10000000000E+01 0.  0.
<mgrwt>
<rscale>  0 0.12499505E+03</rscale>
<asrwt>0</asrwt>
<pdfrwt beam="2">  1        4 0.31728978E-01 0.12499505E+03</pdfrwt>
<pdfrwt beam="1">  1       -4 0.29136867E-02 0.12499505E+03</pdfrwt>
<totfact> 0.86065169E+03</totfact>
</mgrwt>
</event>
<event>
 4    1  0.3294152E-002  0.1250614E+03  0.7818608E-02  0.1234973E+00
          4   -1    0    0  501    0  0.00000000000E+00  0.00000000000E+00  0.10269294730E+02  0.10347526964E+02  0.12700000000E+01 0.  1.
         -4   -1    0    0    0  501 -0.00000000000E+00 -0.00000000000E+00 -0.37923109402E+03  0.37923322055E+03  0.12700000000E+01 0.  1.
    9000005    1    1    2    0    0 -0.48692035137E+02  0.85576350008E+01 -0.30371052367E+03  0.30770965144E+03  0.10000000000E+01 0.  0.
    9000005    1    1    2    0    0  0.48692035137E+02 -0.85576350008E+01 -0.65251275618E+02  0.81871096074E+02  0.10000000000E+01 0.  0.
<mgrwt>
<rscale>  0 0.12506138E+03</rscale>
<asrwt>0</asrwt>
<pdfrwt beam="1">  1        4 0.15860732E-02 0.12506138E+03</pdfrwt>
<pdfrwt beam="2">  1       -4 0.58349416E-01 0.12506138E+03</pdfrwt>
<totfact> 0.65490100E+03</totfact>
</mgrwt>
</event>
<event>
 5    1  0.3294152E-002  0.1250026E+03  0.7818608E-02  0.1235065E+00
         -4   -1    0    0    0  501 -0.00000000000E+00  0.00000000000E+00  0.40636800511E+03  0.40636998964E+03  0.12700000000E+01 0.  1.
          4   -1    0    0  501    0  0.00000000000E+00 -0.00000000000E+00 -0.95690307708E+01  0.96529399611E+01  0.12700000000E+01 0.  1.
         25    2    1    2    0    0  0.00000000000E+00  0.00000000000E+00  0.39679897434E+03  0.41602292960E+03  0.12500260763E+03 0.  0.
    9000005    1    3    3    0    0  0.15072254196E+02 -0.55295629642E+02  0.28131118207E+03  0.28709190282E+03  0.10000000000E+01 0.  0.
    9000005    1    3    3    0    0 -0.15072254196E+02  0.55295629642E+02  0.11548779227E+03  0.12893102678E+03  0.10000000000E+01 0.  0.
<mgrwt>
<rscale>  0 0.12500261E+03</rscale>
<asrwt>0</asrwt>
<pdfrwt beam="2">  1        4 0.14787660E-02 0.12500261E+03</pdfrwt>
<pdfrwt beam="1">  1       -4 0.62524754E-01 0.12500261E+03</pdfrwt>
<totfact> 0.63020068E+03</totfact>
</mgrwt>
</event>
<event>
 5    1  0.3294152E-002  0.1250009E+03  0.7818608E-02  0.1235068E+00
          4   -1    0    0  501    0  0.00000000000E+00  0.00000000000E+00  0.54626720898E+02  0.54641481825E+02  0.12700000000E+01 0. -1.
         -4   -1    0    0    0  501 -0.00000000000E+00 -0.00000000000E+00 -0.71479009434E+02  0.71490290877E+02  0.12700000000E+01 0. -1.
         25    2    1    2    0    0  0.00000000000E+00  0.00000000000E+00 -0.16852288536E+02  0.12613177270E+03  0.12500089782E+03 0.  0.
    9000005    1    3    3    0    0  0.26128814118E+02 -0.44800960946E+02 -0.43605073079E+02  0.67766093492E+02  0.10000000000E+01 0.  0.
    9000005    1    3    3    0    0 -0.26128814118E+02  0.44800960946E+02  0.26752784542E+02  0.58365679211E+02  0.10000000000E+01 0.  0.
<mgrwt>
<rscale>  0 0.12500090E+03</rscale>
<asrwt>0</asrwt>
<pdfrwt beam="1">  1        4 0.84061141E-02 0.12500090E+03</pdfrwt>
<pdfrwt beam="2">  1       -4 0.10998774E-01 0.12500090E+03</pdfrwt>
<totfact> 0.10427860E+04</totfact>
</mgrwt>
</event>
<event>
 5    1  0.3294152E-002  0.1250066E+03  0.7818608E-02  0.1235059E+00
          4   -1    0    0  501    0  0.00000000000E+00  0.00000000000E+00  0.21087639969E+03  0.21088022394E+03  0.12700000000E+01 0. -1.
         -4   -1    0    0    0  501 -0.00000000000E+00 -0.00000000000E+00 -0.18500081340E+02  0.18543621804E+02  0.12700000000E+01 0. -1.
         25    2    1    2    0    0  0.00000000000E+00  0.00000000000E+00  0.19237631835E+03  0.22942384574E+03  0.12500661235E+03 0.  0.
    9000005    1    3    3    0    0 -0.15778510214E+02 -0.60302400515E+02  0.10446172951E+03  0.12164947112E+03  0.10000000000E+01 0.  0.
    9000005    1    3    3    0    0  0.15778510214E+02  0.60302400515E+02  0.87914588845E+02  0.10777437462E+03  0.10000000000E+01 0.  0.
<mgrwt>
<rscale>  0 0.12500661E+03</rscale>
<asrwt>0</asrwt>
<pdfrwt beam="1">  1        4 0.32446165E-01 0.12500661E+03</pdfrwt>
<pdfrwt beam="2">  1       -4 0.28498099E-02 0.12500661E+03</pdfrwt>
<totfact> 0.85385546E+03</totfact>
</mgrwt>
</event>
<event>
 5    1  0.3294152E-002  0.1249999E+03  0.7818608E-02  0.1235069E+00
          4   -1    0    0  501    0  0.00000000000E+00  0.00000000000E+00  0.46646040523E+03  0.46646213410E+03  0.12700000000E+01 0.  1.
         -4   -1    0    0    0  501 -0.00000000000E+00 -0.00000000000E+00 -0.83243176612E+01  0.84206391993E+01  0.12700000000E+01 0.  1.
         25    2    1    2    0    0  0.00000000000E+00  0.00000000000E+00  0.45813608757E+03  0.47488277330E+03  0.12499989457E+03 0.  0.
    9000005    1    3    3    0    0 -0.35504029782E+02  0.41047103195E+02  0.34676812950E+03  0.35099079254E+03  0.10000000000E+01 0.  0.
    9000005    1    3    3    0    0  0.35504029782E+02 -0.41047103195E+02  0.11136795807E+03  0.12389198076E+03  0.10000000000E+01 0.  0.
<mgrwt>
<rscale>  0 0.12499989E+03</rscale>
<asrwt>0</asrwt>
<pdfrwt beam="1">  1        4 0.71770685E-01 0.12499989E+03</pdfrwt>
<pdfrwt beam="2">  1       -4 0.12882065E-02 0.12499989E+03</pdfrwt>
<totfact> 0.57867345E+03</totfact>
</mgrwt>
</event>
<event>
 5    1  0.3294152E-002  0.1250036E+03  0.7818608E-02  0.1235064E+00
         -4   -1    0    0    0  501 -0.00000000000E+00  0.00000000000E+00  0.10516697617E+02  0.10593102887E+02  0.12700000000E+01 0. -1.
          4   -1    0    0  501    0  0.00000000000E+00 -0.00000000000E+00 -0.37003247455E+03  0.37003465395E+03  0.12700000000E+01 0. -1.
         25    2    1    2    0    0  0.00000000000E+00  0.00000000000E+00 -0.35951577694E+03  0.38062775684E+03  0.12500358158E+03 0.  0.
    9000005    1    3    3    0    0  0.18708283140E+01 -0.51100891042E+02 -0.28915001777E+03  0.29363844067E+03  0.10000000000E+01 0.  0.
    9000005    1    3    3    0    0 -0.18708283140E+01  0.51100891042E+02 -0.70365759166E+02  0.86989316165E+02  0.10000000000E+01 0.  0.
<mgrwt>
<rscale>  0 0.12500358E+03</rscale>
<asrwt>0</asrwt>
<pdfrwt beam="2">  1        4 0.56934108E-01 0.12500358E+03</pdfrwt>
<pdfrwt beam="1">  1       -4 0.16239987E-02 0.12500358E+03</pdfrwt>
<totfact> 0.66476282E+03</totfact>
</mgrwt>
</event>
<event>
 5    1  0.3294152E-002  0.1250010E+03  0.7818608E-02  0.1235068E+00
         -4   -1    0    0    0  501 -0.00000000000E+00  0.00000000000E+00  0.39077461560E+03  0.39077667931E+03  0.12700000000E+01 0. -1.
          4   -1    0    0  501    0  0.00000000000E+00 -0.00000000000E+00 -0.99538945545E+01  0.10034586030E+02  0.12700000000E+01 0. -1.
         25    2    1    2    0    0  0.00000000000E+00  0.00000000000E+00  0.38082072104E+03  0.40081126534E+03  0.12500099540E+03 0.  0.
    9000005    1    3    3    0    0  0.35000653703E+02  0.13574474726E+02  0.30215438141E+02  0.48200464996E+02  0.10000000000E+01 0.  0.
    9000005    1    3    3    0    0 -0.35000653703E+02 -0.13574474726E+02  0.35060528290E+03  0.35261080035E+03  0.10000000000E+01 0.  0.
<mgrwt>
<rscale>  0 0.12500100E+03</rscale>
<asrwt>0</asrwt>
<pdfrwt beam="2">  1        4 0.15377344E-02 0.12500100E+03</pdfrwt>
<pdfrwt beam="1">  1       -4 0.60125528E-01 0.12500100E+03</pdfrwt>
<totfact> 0.64472550E+03</totfact>
</mgrwt>
</event>
<event>
 5    1  0.3294152E-002  0.1250010E+03  0.7818608E-02  0.1235068E+00
          4   -1    0    0  501    0  0.00000000000E+00  0.00000000000E+00  0.16669006063E+03  0.16669489858E+03  0.12700000000E+01 0.  1.
         -4   -1    0    0    0  501 -0.00000000000E+00 -0.00000000000E+00 -0.23412200053E+02  0.23446620466E+02  0.12700000000E+01 0.  1.
         25    2    1    2    0    0  0.00000000000E+00  0.00000000000E+00  0.14327786058E+03  0.19014151905E+03  0.12500100773E+03 0.  0.
    9000005    1    3    3    0    0  0.54588533138E+02 -0.29216728480E+02  0.84527027357E+02  0.10478236267E+03  0.10000000000E+01 0.  0.
    9000005    1    3    3    0    0 -0.54588533138E+02  0.29216728480E+02  0.58750833223E+02  0.85359156379E+02  0.10000000000E+01 0.  0.
<mgrwt>
<rscale>  0 0.12500101E+03</rscale>
<asrwt>0</asrwt>
<pdfrwt beam="1">  1        4 0.25647645E-01 0.12500101E+03</pdfrwt>
<pdfrwt beam="2">  1       -4 0.36048967E-02 0.12500101E+03</pdfrwt>
<totfact> 0.91820623E+03</totfact>
</mgrwt>
</event>
<event>
 5    1  0.3294152E-002  0.1250068E+03  0.7818608E-02  0.1235059E+00
          4   -1    0    0  501    0  0.00000000000E+00  0.00000000000E+00  0.38082845015E+03  0.38083056776E+03  0.12700000000E+01 0. -1.
         -4   -1    0    0    0  501 -0.00000000000E+00 -0.00000000000E+00 -0.10216901871E+02  0.10295532228E+02  0.12700000000E+01 0. -1.
         25    2    1    2    0    0  0.00000000000E+00  0.00000000000E+00  0.37061154828E+03  0.39112609999E+03  0.12500682532E+03 0.  0.
    9000005    1    3    3    0    0  0.12483423235E+02  0.55807956200E+02  0.26416942203E+03  0.27029030202E+03  0.10000000000E+01 0.  0.
    9000005    1    3    3    0    0 -0.12483423235E+02 -0.55807956200E+02  0.10644212625E+03  0.12083579797E+03  0.10000000000E+01 0.  0.
<mgrwt>
<rscale>  0 0.12500683E+03</rscale>
<asrwt>0</asrwt>
<pdfrwt beam="1">  1        4 0.58595197E-01 0.12500683E+03</pdfrwt>
<pdfrwt beam="2">  1       -4 0.15780426E-02 0.12500683E+03</pdfrwt>
<totfact> 0.65415243E+03</totfact>
</mgrwt>
</event>
<event>
 5    1  0.3294152E-002  0.1250004E+03  0.7818608E-02  0.1235069E+00
          4   -1    0    0  501    0  0.00000000000E+00  0.00000000000E+00  0.32509699219E+02  0.32534496205E+02  0.12700000000E+01 0. -1.
         -4   -1    0    0    0  501 -0.00000000000E+00 -0.00000000000E+00 -0.12008316771E+03  0.12008988328E+03  0.12700000000E+01 0. -1.
         25    2    1    2    0    0  0.00000000000E+00  0.00000000000E+00 -0.87573468492E+02  0.15262437949E+03  0.12500035532E+03 0.  0.
    9000005    1    3    3    0    0 -0.25105420166E+02  0.35298851171E+02 -0.98785339289E+02  0.10786952431E+03  0.10000000000E+01 0.  0.
    9000005    1    3    3    0    0  0.25105420166E+02 -0.35298851171E+02  0.11211870797E+02  0.44754855183E+02  0.10000000000E+01 0.  0.
<mgrwt>
<rscale>  0 0.12500036E+03</rscale>
<asrwt>0</asrwt>
<pdfrwt beam="1">  1        4 0.50039163E-02 0.12500036E+03</pdfrwt>
<pdfrwt beam="2">  1       -4 0.18476757E-01 0.12500036E+03</pdfrwt>
<totfact> 0.98782327E+03</totfact>
</mgrwt>
</event>
<event>
 5    1  0.3294152E-002  0.1249988E+03  0.7818608E-02  0.1235071E+00
          4   -1    0    0  501    0  0.00000000000E+00  0.00000000000E+00  0.91695481801E+02  0.91704276251E+02  0.12700000000E+01 0. -1.
         -4   -1    0    0    0  501 -0.00000000000E+00 -0.00000000000E+00 -0.42579139016E+02  0.42598074832E+02  0.12700000000E+01 0. -1.
         25    2    1    2    0    0  0.00000000000E+00  0.00000000000E+00  0.49116342785E+02  0.13430235108E+03  0.12499882551E+03 0.  0.
    9000005    1    3    3    0    0 -0.34847512355E+02 -0.51648403734E+02  0.19375249660E+02  0.65255704923E+02  0.10000000000E+01 0.  0.
    9000005    1    3    3    0    0  0.34847512355E+02  0.51648403734E+02  0.29741093125E+02  0.69046646160E+02  0.10000000000E+01 0.  0.
<mgrwt>
<rscale>  0 0.12499883E+03</rscale>
<asrwt>0</asrwt>
<pdfrwt beam="1">  1        4 0.14109130E-01 0.12499883E+03</pdfrwt>
<pdfrwt beam="2">  1       -4 0.65527699E-02 0.12499883E+03</pdfrwt>
<totfact> 0.10253068E+04</totfact>
</mgrwt>
</event>
<event>
 5    1  0.3294152E-002  0.1249986E+03  0.7818608E-02  0.1235072E+00
          4   -1    0    0  501    0  0.00000000000E+00  0.00000000000E+00  0.47338449189E+03  0.47338619547E+03  0.12700000000E+01 0.  1.
         -4   -1    0    0    0  501 -0.00000000000E+00 -0.00000000000E+00 -0.82009629177E+01  0.82987163331E+01  0.12700000000E+01 0.  1.
         25    2    1    2    0    0  0.00000000000E+00  0.00000000000E+00  0.46518352897E+03  0.48168491181E+03  0.12499855452E+03 0.  0.
    9000005    1    3    3    0    0 -0.96660246594E+01 -0.41266290877E+02  0.55630628879E+02  0.69943589162E+02  0.10000000000E+01 0.  0.
    9000005    1    3    3    0    0  0.96660246594E+01  0.41266290877E+02  0.40955290010E+03  0.41174132264E+03  0.10000000000E+01 0.  0.
<mgrwt>
<rscale>  0 0.12499855E+03</rscale>
<asrwt>0</asrwt>
<pdfrwt beam="1">  1        4 0.72836042E-01 0.12499855E+03</pdfrwt>
<pdfrwt beam="2">  1       -4 0.12693370E-02 0.12499855E+03</pdfrwt>
<totfact> 0.57315747E+03</totfact>
</mgrwt>
</event>
<event>
 5    1  0.3294152E-002  0.1249989E+03  0.7818608E-02  0.1235071E+00
          4   -1    0    0  501    0  0.00000000000E+00  0.00000000000E+00  0.31284088260E+02  0.31309855928E+02  0.12700000000E+01 0.  1.
         -4   -1    0    0    0  501 -0.00000000000E+00 -0.00000000000E+00 -0.12478113554E+03  0.12478759828E+03  0.12700000000E+01 0.  1.
         25    2    1    2    0    0  0.00000000000E+00  0.00000000000E+00 -0.93497047275E+02  0.15609745421E+03  0.12499886944E+03 0.  0.
    9000005    1    3    3    0    0 -0.61654539022E+02  0.92606982551E+01 -0.52066764330E+02  0.81234171763E+02  0.10000000000E+01 0.  0.
    9000005    1    3    3    0    0  0.61654539022E+02 -0.92606982551E+01 -0.41430282945E+02  0.74863282449E+02  0.10000000000E+01 0.  0.
<mgrwt>
<rscale>  0 0.12499887E+03</rscale>
<asrwt>0</asrwt>
<pdfrwt beam="1">  1        4 0.48154160E-02 0.12499887E+03</pdfrwt>
<pdfrwt beam="2">  1       -4 0.19199577E-01 0.12499887E+03</pdfrwt>
<totfact> 0.98102979E+03</totfact>
</mgrwt>
</event>
<event>
 5    1  0.3294152E-002  0.1250017E+03  0.7818608E-02  0.1235067E+00
          4   -1    0    0  501    0  0.00000000000E+00  0.00000000000E+00  0.10386481746E+03  0.10387258159E+03  0.12700000000E+01 0.  1.
         -4   -1    0    0    0  501 -0.00000000000E+00 -0.00000000000E+00 -0.37590122683E+02  0.37611570339E+02  0.12700000000E+01 0.  1.
         25    2    1    2    0    0  0.00000000000E+00  0.00000000000E+00  0.66274694779E+02  0.14148415193E+03  0.12500172031E+03 0.  0.
    9000005    1    3    3    0    0  0.90174856393E+01  0.61838745895E+02  0.33013468908E+02  0.70684048204E+02  0.10000000000E+01 0.  0.
    9000005    1    3    3    0    0 -0.90174856393E+01 -0.61838745895E+02  0.33261225870E+02  0.70800103726E+02  0.10000000000E+01 0.  0.
<mgrwt>
<rscale>  0 0.12500172E+03</rscale>
<asrwt>0</asrwt>
<pdfrwt beam="1">  1        4 0.15981450E-01 0.12500172E+03</pdfrwt>
<pdfrwt beam="2">  1       -4 0.57853429E-02 0.12500172E+03</pdfrwt>
<totfact> 0.10102527E+04</totfact>
</mgrwt>
</event>
<event>
 5    1  0.3294152E-002  0.1249980E+03  0.7818608E-02  0.1235072E+00
         -4   -1    0    0    0  501 -0.00000000000E+00  0.00000000000E+00  0.51206181503E+03  0.51206338994E+03  0.12700000000E+01 0. -1.
          4   -1    0    0  501    0  0.00000000000E+00 -0.00000000000E+00 -0.75737736236E+01  0.76795147569E+01  0.12700000000E+01 0. -1.
         25    2    1    2    0    0  0.00000000000E+00  0.00000000000E+00  0.50448804141E+03  0.51974290469E+03  0.12499801221E+03 0.  0.
    9000005    1    3    3    0    0  0.47263925742E+02  0.39419487330E+02  0.29728720200E+03  0.30359258082E+03  0.10000000000E+01 0.  0.
    9000005    1    3    3    0    0 -0.47263925742E+02 -0.39419487330E+02  0.20720083941E+03  0.21615032387E+03  0.10000000000E+01 0.  0.
<mgrwt>
<rscale>  0 0.12499801E+03</rscale>
<asrwt>0</asrwt>
<pdfrwt beam="2">  1        4 0.11734507E-02 0.12499801E+03</pdfrwt>
<pdfrwt beam="1">  1       -4 0.78787014E-01 0.12499801E+03</pdfrwt>
<totfact> 0.54366815E+03</totfact>
</mgrwt>
</event>
<event>
 5    1  0.3294152E-002  0.1249997E+03  0.7818608E-02  0.1235070E+00
          4   -1    0    0  501    0  0.00000000000E+00  0.00000000000E+00  0.13538584941E+03  0.13539180596E+03  0.12700000000E+01 0.  1.
         -4   -1    0    0    0  501 -0.00000000000E+00 -0.00000000000E+00 -0.28831994306E+02  0.28859951414E+02  0.12700000000E+01 0.  1.
         25    2    1    2    0    0  0.00000000000E+00  0.00000000000E+00  0.10655385511E+03  0.16425175738E+03  0.12499966305E+03 0.  0.
    9000005    1    3    3    0    0 -0.34346015823E+02  0.17103312638E+02  0.11809219382E+03  0.12417301780E+03  0.10000000000E+01 0.  0.
    9000005    1    3    3    0    0  0.34346015823E+02 -0.17103312638E+02 -0.11538338716E+02  0.40078739581E+02  0.10000000000E+01 0.  0.
<mgrwt>
<rscale>  0 0.12499966E+03</rscale>
<asrwt>0</asrwt>
<pdfrwt beam="1">  1        4 0.20831201E-01 0.12499966E+03</pdfrwt>
<pdfrwt beam="2">  1       -4 0.44383002E-02 0.12499966E+03</pdfrwt>
<totfact> 0.96530016E+03</totfact>
</mgrwt>
</event>
<event>
 5    1  0.3294152E-002  0.1250112E+03  0.7818608E-02  0.1235052E+00
          4   -1    0    0  501    0  0.00000000000E+00  0.00000000000E+00  0.27616202705E+03  0.27616494725E+03  0.12700000000E+01 0.  1.
         -4   -1    0    0    0  501 -0.00000000000E+00 -0.00000000000E+00 -0.14115812147E+02  0.14172827966E+02  0.12700000000E+01 0.  1.
         25    2    1    2    0    0  0.00000000000E+00  0.00000000000E+00  0.26204621491E+03  0.29033777521E+03  0.12501121936E+03 0.  0.
    9000005    1    3    3    0    0 -0.20061741894E+02  0.30602600524E+02  0.24869262832E+03  0.25137226583E+03  0.10000000000E+01 0.  0.
    9000005    1    3    3    0    0  0.20061741894E+02 -0.30602600524E+02  0.13353586587E+02  0.38965509382E+02  0.10000000000E+01 0.  0.
<mgrwt>
<rscale>  0 0.12501122E+03</rscale>
<asrwt>0</asrwt>
<pdfrwt beam="1">  1        4 0.42491073E-01 0.12501122E+03</pdfrwt>
<pdfrwt beam="2">  1       -4 0.21762741E-02 0.12501122E+03</pdfrwt>
<totfact> 0.76807916E+03</totfact>
</mgrwt>
</event>
<event>
 5    1  0.3294152E-002  0.1250052E+03  0.7818608E-02  0.1235061E+00
          4   -1    0    0  501    0  0.00000000000E+00  0.00000000000E+00  0.14863617958E+03  0.14864160514E+03  0.12700000000E+01 0. -1.
         -4   -1    0    0    0  501 -0.00000000000E+00 -0.00000000000E+00 -0.26261538097E+02  0.26292228571E+02  0.12700000000E+01 0. -1.
         25    2    1    2    0    0  0.00000000000E+00  0.00000000000E+00  0.12237464148E+03  0.17493383371E+03  0.12500517310E+03 0.  0.
    9000005    1    3    3    0    0 -0.11755285740E+02  0.56701721138E+02  0.28299590534E+02  0.64460365708E+02  0.10000000000E+01 0.  0.
    9000005    1    3    3    0    0  0.11755285740E+02 -0.56701721138E+02  0.94075050947E+02  0.11047346801E+03  0.10000000000E+01 0.  0.
<mgrwt>
<rscale>  0 0.12500517E+03</rscale>
<asrwt>0</asrwt>
<pdfrwt beam="1">  1        4 0.22869883E-01 0.12500517E+03</pdfrwt>
<pdfrwt beam="2">  1       -4 0.40430148E-02 0.12500517E+03</pdfrwt>
<totfact> 0.94525990E+03</totfact>
</mgrwt>
</event>
<event>
 5    1  0.3294152E-002  0.1250002E+03  0.7818608E-02  0.1235069E+00
         -4   -1    0    0    0  501 -0.00000000000E+00  0.00000000000E+00  0.33790374368E+01  0.36098191089E+01  0.12700000000E+01 0.  1.
          4   -1    0    0  501    0  0.00000000000E+00 -0.00000000000E+00 -0.11176242469E+04  0.11176249685E+04  0.12700000000E+01 0.  1.
         25    2    1    2    0    0  0.00000000000E+00  0.00000000000E+00 -0.11142452094E+04  0.11212347876E+04  0.12500024831E+03 0.  0.
    9000005    1    3    3    0    0 -0.20522977138E+02 -0.47072108208E+01 -0.29353583906E+02  0.36138391115E+02  0.10000000000E+01 0.  0.
    9000005    1    3    3    0    0  0.20522977138E+02  0.47072108208E+01 -0.10848916255E+04  0.10850963964E+04  0.10000000000E+01 0.  0.
<mgrwt>
<rscale>  0 0.12500025E+03</rscale>
<asrwt>0</asrwt>
<pdfrwt beam="2">  1        4 0.17195971E+00 0.12500025E+03</pdfrwt>
<pdfrwt beam="1">  1       -4 0.53766075E-03 0.12500025E+03</pdfrwt>
<totfact> 0.26869985E+03</totfact>
</mgrwt>
</event>
<event>
 5    1  0.3294152E-002  0.1249992E+03  0.7818608E-02  0.1235070E+00
          4   -1    0    0  501    0  0.00000000000E+00  0.00000000000E+00  0.16333353368E+03  0.16333847105E+03  0.12700000000E+01 0.  1.
         -4   -1    0    0    0  501 -0.00000000000E+00 -0.00000000000E+00 -0.23893327467E+02  0.23927055763E+02  0.12700000000E+01 0.  1.
         25    2    1    2    0    0  0.00000000000E+00  0.00000000000E+00  0.13944020621E+03  0.18726552681E+03  0.12499922569E+03 0.  0.
    9000005    1    3    3    0    0 -0.10512728443E+02 -0.22387287692E+02  0.15569643631E+03  0.15765179475E+03  0.10000000000E+01 0.  0.
    9000005    1    3    3    0    0  0.10512728443E+02  0.22387287692E+02 -0.16256230096E+02  0.29613732059E+02  0.10000000000E+01 0.  0.
<mgrwt>
<rscale>  0 0.12499923E+03</rscale>
<asrwt>0</asrwt>
<pdfrwt beam="1">  1        4 0.25131210E-01 0.12499923E+03</pdfrwt>
<pdfrwt beam="2">  1       -4 0.36788709E-02 0.12499923E+03</pdfrwt>
<totfact> 0.92326894E+03</totfact>
</mgrwt>
</event>
<event>
 5    1  0.3294152E-002  0.1249987E+03  0.7818608E-02  0.1235071E+00
          4   -1    0    0  501    0  0.00000000000E+00  0.00000000000E+00  0.88653967520E+02  0.88663063657E+02  0.12700000000E+01 0.  1.
         -4   -1    0    0    0  501 -0.00000000000E+00 -0.00000000000E+00 -0.44040308918E+02  0.44058616746E+02  0.12700000000E+01 0.  1.
         25    2    1    2    0    0  0.00000000000E+00  0.00000000000E+00  0.44613658602E+02  0.13272168040E+03  0.12499866365E+03 0.  0.
    9000005    1    3    3    0    0  0.22285069737E+02  0.45938193569E+02 -0.15950214217E+02  0.53500946675E+02  0.10000000000E+01 0.  0.
    9000005    1    3    3    0    0 -0.22285069737E+02 -0.45938193569E+02  0.60563872819E+02  0.79220733728E+02  0.10000000000E+01 0.  0.
<mgrwt>
<rscale>  0 0.12499866E+03</rscale>
<asrwt>0</asrwt>
<pdfrwt beam="1">  1        4 0.13641180E-01 0.12499866E+03</pdfrwt>
<pdfrwt beam="2">  1       -4 0.67775402E-02 0.12499866E+03</pdfrwt>
<totfact> 0.10286629E+04</totfact>
</mgrwt>
</event>
<event>
 5    1  0.3294152E-002  0.1250005E+03  0.7818608E-02  0.1235069E+00
         -4   -1    0    0    0  501 -0.00000000000E+00  0.00000000000E+00  0.66226995331E+02  0.66239171270E+02  0.12700000000E+01 0. -1.
          4   -1    0    0  501    0  0.00000000000E+00 -0.00000000000E+00 -0.58958754631E+02  0.58972431251E+02  0.12700000000E+01 0. -1.
         25    2    1    2    0    0  0.00000000000E+00  0.00000000000E+00  0.72682406992E+01  0.12521160252E+03  0.12500047233E+03 0.  0.
    9000005    1    3    3    0    0  0.25389862272E+02  0.25412182914E+02  0.54856146853E+02  0.65579120108E+02  0.10000000000E+01 0.  0.
    9000005    1    3    3    0    0 -0.25389862272E+02 -0.25412182914E+02 -0.47587906153E+02  0.59632482413E+02  0.10000000000E+01 0.  0.
<mgrwt>
<rscale>  0 0.12500047E+03</rscale>
<asrwt>0</asrwt>
<pdfrwt beam="2">  1        4 0.90725663E-02 0.12500047E+03</pdfrwt>
<pdfrwt beam="1">  1       -4 0.10190757E-01 0.12500047E+03</pdfrwt>
<totfact> 0.10448157E+04</totfact>
</mgrwt>
</event>
<event>
 5    1  0.3294152E-002  0.1249989E+03  0.7818608E-02  0.1235071E+00
         -4   -1    0    0    0  501 -0.00000000000E+00  0.00000000000E+00  0.34627830057E+03  0.34628062947E+03  0.12700000000E+01 0.  1.
          4   -1    0    0  501    0  0.00000000000E+00 -0.00000000000E+00 -0.11242355845E+02  0.11313861629E+02  0.12700000000E+01 0.  1.
         25    2    1    2    0    0  0.00000000000E+00  0.00000000000E+00  0.33503594473E+03  0.35759449110E+03  0.12499894322E+03 0.  0.
    9000005    1    3    3    0    0 -0.14118905771E+02 -0.59652658766E+02  0.20225033528E+03  0.21133854669E+03  0.10000000000E+01 0.  0.
    9000005    1    3    3    0    0  0.14118905771E+02  0.59652658766E+02  0.13278560945E+03  0.14625594441E+03  0.10000000000E+01 0.  0.
<mgrwt>
<rscale>  0 0.12499894E+03</rscale>
<asrwt>0</asrwt>
<pdfrwt beam="2">  1        4 0.17352726E-02 0.12499894E+03</pdfrwt>
<pdfrwt beam="1">  1       -4 0.53279269E-01 0.12499894E+03</pdfrwt>
<totfact> 0.68898676E+03</totfact>
</mgrwt>
</event>
<event>
 5    1  0.3294152E-002  0.1250028E+03  0.7818608E-02  0.1235065E+00
         -4   -1    0    0    0  501 -0.00000000000E+00  0.00000000000E+00  0.12121292659E+02  0.12187642746E+02  0.12700000000E+01 0. -1.
          4   -1    0    0  501    0  0.00000000000E+00 -0.00000000000E+00 -0.32133049018E+03  0.32133299989E+03  0.12700000000E+01 0. -1.
         25    2    1    2    0    0  0.00000000000E+00  0.00000000000E+00 -0.30920919752E+03  0.33352064264E+03  0.12500276490E+03 0.  0.
    9000005    1    3    3    0    0  0.56956406879E+02  0.37127728856E+01 -0.86706364788E+02  0.10381141874E+03  0.10000000000E+01 0.  0.
    9000005    1    3    3    0    0 -0.56956406879E+02 -0.37127728856E+01 -0.22250283273E+03  0.22970922389E+03  0.10000000000E+01 0.  0.
<mgrwt>
<rscale>  0 0.12500276E+03</rscale>
<asrwt>0</asrwt>
<pdfrwt beam="2">  1        4 0.49440751E-01 0.12500276E+03</pdfrwt>
<pdfrwt beam="1">  1       -4 0.18701114E-02 0.12500276E+03</pdfrwt>
<totfact> 0.71571984E+03</totfact>
</mgrwt>
</event>
<event>
 5    1  0.3294152E-002  0.1249742E+03  0.7818608E-02  0.1235110E+00
         -4   -1    0    0    0  501 -0.00000000000E+00  0.00000000000E+00  0.19608934341E+02  0.19650017964E+02  0.12700000000E+01 0.  1.
          4   -1    0    0  501    0  0.00000000000E+00 -0.00000000000E+00 -0.19887388249E+03  0.19887793753E+03  0.12700000000E+01 0.  1.
         25    2    1    2    0    0  0.00000000000E+00  0.00000000000E+00 -0.17926494815E+03  0.21852795550E+03  0.12497418013E+03 0.  0.
    9000005    1    3    3    0    0  0.22843810588E+01  0.23085785799E+02  0.11807519868E+02  0.26049749101E+02  0.10000000000E+01 0.  0.
    9000005    1    3    3    0    0 -0.22843810588E+01 -0.23085785799E+02 -0.19107246802E+03  0.19247820639E+03  0.10000000000E+01 0.  0.
<mgrwt>
<rscale>  0 0.12497418E+03</rscale>
<asrwt>0</asrwt>
<pdfrwt beam="2">  1        4 0.30599453E-01 0.12497418E+03</pdfrwt>
<pdfrwt beam="1">  1       -4 0.30202315E-02 0.12497418E+03</pdfrwt>
<totfact> 0.87152079E+03</totfact>
</mgrwt>
</event>
<event>
 5    1  0.3294152E-002  0.1250003E+03  0.7818608E-02  0.1235069E+00
          4   -1    0    0  501    0  0.00000000000E+00  0.00000000000E+00  0.82252737305E+02  0.82262541257E+02  0.12700000000E+01 0. -1.
         -4   -1    0    0    0  501 -0.00000000000E+00 -0.00000000000E+00 -0.47469912492E+02  0.47486898109E+02  0.12700000000E+01 0. -1.
         25    2    1    2    0    0  0.00000000000E+00  0.00000000000E+00  0.34782824812E+02  0.12974943937E+03  0.12500028846E+03 0.  0.
    9000005    1    3    3    0    0  0.43841401272E+02 -0.24522083572E+01 -0.28763535397E+02  0.52501645306E+02  0.10000000000E+01 0.  0.
    9000005    1    3    3    0    0 -0.43841401272E+02  0.24522083572E+01  0.63546360210E+02  0.77247794060E+02  0.10000000000E+01 0.  0.
<mgrwt>
<rscale>  0 0.12500029E+03</rscale>
<asrwt>0</asrwt>
<pdfrwt beam="1">  1        4 0.12656328E-01 0.12500029E+03</pdfrwt>
<pdfrwt beam="2">  1       -4 0.73051242E-02 0.12500029E+03</pdfrwt>
<totfact> 0.10349803E+04</totfact>
</mgrwt>
</event>
<event>
 5    1  0.3294152E-002  0.1249986E+03  0.7818608E-02  0.1235071E+00
         -4   -1    0    0    0  501 -0.00000000000E+00  0.00000000000E+00  0.81812286386E+02  0.81822143114E+02  0.12700000000E+01 0. -1.
          4   -1    0    0  501    0  0.00000000000E+00 -0.00000000000E+00 -0.47724238061E+02  0.47741133193E+02  0.12700000000E+01 0. -1.
         25    2    1    2    0    0  0.00000000000E+00  0.00000000000E+00  0.34088048325E+02  0.12956327631E+03  0.12499859011E+03 0.  0.
    9000005    1    3    3    0    0 -0.35469256887E+02 -0.51036371359E+02  0.10296101835E+02  0.63006262376E+02  0.10000000000E+01 0.  0.
    9000005    1    3    3    0    0  0.35469256887E+02  0.51036371359E+02  0.23791946490E+02  0.66557013931E+02  0.10000000000E+01 0.  0.
<mgrwt>
<rscale>  0 0.12499859E+03</rscale>
<asrwt>0</asrwt>
<pdfrwt beam="2">  1        4 0.73442483E-02 0.12499859E+03</pdfrwt>
<pdfrwt beam="1">  1       -4 0.12588563E-01 0.12499859E+03</pdfrwt>
<totfact> 0.10354188E+04</totfact>
</mgrwt>
</event>
<event>
 5    1  0.3294152E-002  0.1249965E+03  0.7818608E-02  0.1235075E+00
         -4   -1    0    0    0  501 -0.00000000000E+00  0.00000000000E+00  0.58050932891E+02  0.58064823340E+02  0.12700000000E+01 0.  1.
          4   -1    0    0  501    0  0.00000000000E+00 -0.00000000000E+00 -0.67258379400E+02  0.67270368659E+02  0.12700000000E+01 0.  1.
         25    2    1    2    0    0  0.00000000000E+00  0.00000000000E+00 -0.92074465088E+01  0.12533519200E+03  0.12499653308E+03 0.  0.
    9000005    1    3    3    0    0  0.21596728906E+02 -0.55433798987E+02  0.14571596766E+02  0.61258927528E+02  0.10000000000E+01 0.  0.
    9000005    1    3    3    0    0 -0.21596728906E+02  0.55433798987E+02 -0.23779043275E+02  0.64076264471E+02  0.10000000000E+01 0.  0.
<mgrwt>
<rscale>  0 0.12499653E+03</rscale>
<asrwt>0</asrwt>
<pdfrwt beam="2">  1        4 0.10349434E-01 0.12499653E+03</pdfrwt>
<pdfrwt beam="1">  1       -4 0.89329035E-02 0.12499653E+03</pdfrwt>
<totfact> 0.10446405E+04</totfact>
</mgrwt>
</event>
<event>
 5    1  0.3294152E-002  0.1249982E+03  0.7818608E-02  0.1235072E+00
          4   -1    0    0  501    0  0.00000000000E+00  0.00000000000E+00  0.93910286653E+02  0.93918873712E+02  0.12700000000E+01 0. -1.
         -4   -1    0    0    0  501 -0.00000000000E+00 -0.00000000000E+00 -0.41574146221E+02  0.41593539571E+02  0.12700000000E+01 0. -1.
         25    2    1    2    0    0  0.00000000000E+00  0.00000000000E+00  0.52336140432E+02  0.13551241328E+03  0.12499817022E+03 0.  0.
    9000005    1    3    3    0    0  0.61916595134E+02  0.76761294058E+01  0.22327803722E+02  0.66273060399E+02  0.10000000000E+01 0.  0.
    9000005    1    3    3    0    0 -0.61916595134E+02 -0.76761294058E+01  0.30008336710E+02  0.69239352883E+02  0.10000000000E+01 0.  0.
<mgrwt>
<rscale>  0 0.12499817E+03</rscale>
<asrwt>0</asrwt>
<pdfrwt beam="1">  1        4 0.14449889E-01 0.12499817E+03</pdfrwt>
<pdfrwt beam="2">  1       -4 0.63981749E-02 0.12499817E+03</pdfrwt>
<totfact> 0.10227704E+04</totfact>
</mgrwt>
</event>
<event>
 5    1  0.3294152E-002  0.1250019E+03  0.7818608E-02  0.1235066E+00
         -4   -1    0    0    0  501 -0.00000000000E+00  0.00000000000E+00  0.25072973850E+02  0.25105117360E+02  0.12700000000E+01 0. -1.
          4   -1    0    0  501    0  0.00000000000E+00 -0.00000000000E+00 -0.15566555942E+03  0.15567073999E+03  0.12700000000E+01 0. -1.
         25    2    1    2    0    0  0.00000000000E+00  0.00000000000E+00 -0.13059258557E+03  0.18077585735E+03  0.12500194877E+03 0.  0.
    9000005    1    3    3    0    0  0.59499495328E+02 -0.91251979779E+01 -0.89578094168E+02  0.10792911626E+03  0.10000000000E+01 0.  0.
    9000005    1    3    3    0    0 -0.59499495328E+02  0.91251979779E+01 -0.41014491402E+02  0.72846741090E+02  0.10000000000E+01 0.  0.
<mgrwt>
<rscale>  0 0.12500195E+03</rscale>
<asrwt>0</asrwt>
<pdfrwt beam="2">  1        4 0.23951418E-01 0.12500195E+03</pdfrwt>
<pdfrwt beam="1">  1       -4 0.38602518E-02 0.12500195E+03</pdfrwt>
<totfact> 0.93473449E+03</totfact>
</mgrwt>
</event>
<event>
 5    1  0.3294152E-002  0.1250013E+03  0.7818608E-02  0.1235067E+00
          4   -1    0    0  501    0  0.00000000000E+00  0.00000000000E+00  0.63200552321E+02  0.63213311207E+02  0.12700000000E+01 0. -1.
         -4   -1    0    0    0  501 -0.00000000000E+00 -0.00000000000E+00 -0.61782935483E+02  0.61795987062E+02  0.12700000000E+01 0. -1.
         25    2    1    2    0    0  0.00000000000E+00  0.00000000000E+00  0.14176168380E+01  0.12500929827E+03  0.12500126006E+03 0.  0.
    9000005    1    3    3    0    0  0.55460115185E+02  0.15136676678E+02  0.25213147114E+02  0.62782530569E+02  0.10000000000E+01 0.  0.
    9000005    1    3    3    0    0 -0.55460115185E+02 -0.15136676678E+02 -0.23795530276E+02  0.62226767700E+02  0.10000000000E+01 0.  0.
<mgrwt>
<rscale>  0 0.12500126E+03</rscale>
<asrwt>0</asrwt>
<pdfrwt beam="1">  1        4 0.97251473E-02 0.12500126E+03</pdfrwt>
<pdfrwt beam="2">  1       -4 0.95070525E-02 0.12500126E+03</pdfrwt>
<totfact> 0.10452363E+04</totfact>
</mgrwt>
</event>
<event>
 5    1  0.3294152E-002  0.1249965E+03  0.7818608E-02  0.1235075E+00
          4   -1    0    0  501    0  0.00000000000E+00  0.00000000000E+00  0.65860775580E+02  0.65873019212E+02  0.12700000000E+01 0. -1.
         -4   -1    0    0    0  501 -0.00000000000E+00 -0.00000000000E+00 -0.59282810173E+02  0.59296412050E+02  0.12700000000E+01 0. -1.
         25    2    1    2    0    0  0.00000000000E+00  0.00000000000E+00  0.65779654078E+01  0.12516943126E+03  0.12499646752E+03 0.  0.
    9000005    1    3    3    0    0 -0.40858373872E+02  0.49707593582E+00 -0.44056197628E+02  0.60096608468E+02  0.10000000000E+01 0.  0.
    9000005    1    3    3    0    0  0.40858373872E+02 -0.49707593582E+00  0.50634163036E+02  0.65072822793E+02  0.10000000000E+01 0.  0.
<mgrwt>
<rscale>  0 0.12499647E+03</rscale>
<asrwt>0</asrwt>
<pdfrwt beam="1">  1        4 0.10134415E-01 0.12499647E+03</pdfrwt>
<pdfrwt beam="2">  1       -4 0.91224205E-02 0.12499647E+03</pdfrwt>
<totfact> 0.10450018E+04</totfact>
</mgrwt>
</event>
<event>
 5    1  0.3294152E-002  0.1249999E+03  0.7818608E-02  0.1235069E+00
         -4   -1    0    0    0  501 -0.00000000000E+00  0.00000000000E+00  0.22302263076E+02  0.22338393817E+02  0.12700000000E+01 0. -1.
          4   -1    0    0  501    0  0.00000000000E+00 -0.00000000000E+00 -0.17496988759E+03  0.17497449661E+03  0.12700000000E+01 0. -1.
         25    2    1    2    0    0  0.00000000000E+00  0.00000000000E+00 -0.15266762452E+03  0.19731289043E+03  0.12499989261E+03 0.  0.
    9000005    1    3    3    0    0  0.13745566378E+02 -0.54849636522E+02 -0.34337877339E+02  0.66162776860E+02  0.10000000000E+01 0.  0.
    9000005    1    3    3    0    0 -0.13745566378E+02  0.54849636522E+02 -0.11832974718E+03  0.13115011357E+03  0.10000000000E+01 0.  0.
<mgrwt>
<rscale>  0 0.12499989E+03</rscale>
<asrwt>0</asrwt>
<pdfrwt beam="2">  1        4 0.26921577E-01 0.12499989E+03</pdfrwt>
<pdfrwt beam="1">  1       -4 0.34342513E-02 0.12499989E+03</pdfrwt>
<totfact> 0.90590452E+03</totfact>
</mgrwt>
</event>
<event>
 5    1  0.3294152E-002  0.1249984E+03  0.7818608E-02  0.1235072E+00
          4   -1    0    0  501    0  0.00000000000E+00  0.00000000000E+00  0.54945668860E+01  0.56394295159E+01  0.12700000000E+01 0. -1.
         -4   -1    0    0    0  501 -0.00000000000E+00 -0.00000000000E+00 -0.70151590322E+03  0.70151705281E+03  0.12700000000E+01 0. -1.
         25    2    1    2    0    0  0.00000000000E+00  0.00000000000E+00 -0.69602133634E+03  0.70715648232E+03  0.12499835939E+03 0.  0.
    9000005    1    3    3    0    0  0.48241934849E+02  0.26903489881E+02 -0.51334261595E+03  0.51630681130E+03  0.10000000000E+01 0.  0.
    9000005    1    3    3    0    0 -0.48241934849E+02 -0.26903489881E+02 -0.18267872039E+03  0.19084967102E+03  0.10000000000E+01 0.  0.
<mgrwt>
<rscale>  0 0.12499836E+03</rscale>
<asrwt>0</asrwt>
<pdfrwt beam="1">  1        4 0.85655025E-03 0.12499836E+03</pdfrwt>
<pdfrwt beam="2">  1       -4 0.10793669E+00 0.12499836E+03</pdfrwt>
<totfact> 0.42713154E+03</totfact>
</mgrwt>
</event>
<event>
 5    1  0.3294152E-002  0.1249984E+03  0.7818608E-02  0.1235072E+00
          4   -1    0    0  501    0  0.00000000000E+00  0.00000000000E+00  0.21906426021E+02  0.21943208540E+02  0.12700000000E+01 0. -1.
         -4   -1    0    0    0  501 -0.00000000000E+00 -0.00000000000E+00 -0.17812204112E+03  0.17812656857E+03  0.12700000000E+01 0. -1.
         25    2    1    2    0    0  0.00000000000E+00  0.00000000000E+00 -0.15621561509E+03  0.20006977711E+03  0.12499838925E+03 0.  0.
    9000005    1    3    3    0    0 -0.55607717169E+02 -0.28347704002E+02 -0.73216527232E+02  0.96215749183E+02  0.10000000000E+01 0.  0.
    9000005    1    3    3    0    0  0.55607717169E+02  0.28347704002E+02 -0.82999087863E+02  0.10385402793E+03  0.10000000000E+01 0.  0.
<mgrwt>
<rscale>  0 0.12499839E+03</rscale>
<asrwt>0</asrwt>
<pdfrwt beam="1">  1        4 0.33733972E-02 0.12499839E+03</pdfrwt>
<pdfrwt beam="2">  1       -4 0.27406568E-01 0.12499839E+03</pdfrwt>
<totfact> 0.90126988E+03</totfact>
</mgrwt>
</event>
<event>
 5    1  0.3294152E-002  0.1249972E+03  0.7818608E-02  0.1235074E+00
         -4   -1    0    0    0  501 -0.00000000000E+00  0.00000000000E+00  0.22682665324E+03  0.22683020857E+03  0.12700000000E+01 0.  1.
          4   -1    0    0  501    0  0.00000000000E+00 -0.00000000000E+00 -0.17193421091E+02  0.17240261854E+02  0.12700000000E+01 0.  1.
         25    2    1    2    0    0  0.00000000000E+00  0.00000000000E+00  0.20963323215E+03  0.24407047043E+03  0.12499721002E+03 0.  0.
    9000005    1    3    3    0    0  0.35426660020E+02 -0.47989871352E+02  0.14118964165E+03  0.15327619157E+03  0.10000000000E+01 0.  0.
    9000005    1    3    3    0    0 -0.35426660020E+02  0.47989871352E+02  0.68443590502E+02  0.90794278858E+02  0.10000000000E+01 0.  0.
<mgrwt>
<rscale>  0 0.12499721E+03</rscale>
<asrwt>0</asrwt>
<pdfrwt beam="2">  1        4 0.26490184E-02 0.12499721E+03</pdfrwt>
<pdfrwt beam="1">  1       -4 0.34900284E-01 0.12499721E+03</pdfrwt>
<totfact> 0.83200026E+03</totfact>
</mgrwt>
</event>
<event>
 5    1  0.3294152E-002  0.1250041E+03  0.7818608E-02  0.1235063E+00
          4   -1    0    0  501    0  0.00000000000E+00  0.00000000000E+00  0.22027045419E+03  0.22027411534E+03  0.12700000000E+01 0. -1.
         -4   -1    0    0    0  501 -0.00000000000E+00 -0.00000000000E+00 -0.17708485067E+02  0.17753966976E+02  0.12700000000E+01 0. -1.
         25    2    1    2    0    0  0.00000000000E+00  0.00000000000E+00  0.20256196912E+03  0.23802808231E+03  0.12500406648E+03 0.  0.
    9000005    1    3    3    0    0  0.60705753097E+02  0.14828407600E+02  0.10253546230E+03  0.12008160209E+03  0.10000000000E+01 0.  0.
    9000005    1    3    3    0    0 -0.60705753097E+02 -0.14828407600E+02  0.10002650682E+03  0.11794648022E+03  0.10000000000E+01 0.  0.
<mgrwt>
<rscale>  0 0.12500407E+03</rscale>
<asrwt>0</asrwt>
<pdfrwt beam="1">  1        4 0.33891546E-01 0.12500407E+03</pdfrwt>
<pdfrwt beam="2">  1       -4 0.27281623E-02 0.12500407E+03</pdfrwt>
<totfact> 0.84084301E+03</totfact>
</mgrwt>
</event>
<event>
 5    1  0.3294152E-002  0.1250247E+03  0.7818608E-02  0.1235031E+00
         -4   -1    0    0    0  501 -0.00000000000E+00  0.00000000000E+00  0.27322438237E+01  0.30129812997E+01  0.12700000000E+01 0. -1.
          4   -1    0    0  501    0  0.00000000000E+00 -0.00000000000E+00 -0.13600810232E+04  0.13600816162E+04  0.12700000000E+01 0. -1.
         25    2    1    2    0    0  0.00000000000E+00  0.00000000000E+00 -0.13573487794E+04  0.13630945975E+04  0.12502468837E+03 0.  0.
    9000005    1    3    3    0    0  0.32905829909E+01  0.52150787290E+02 -0.10525972312E+04  0.10538939527E+04  0.10000000000E+01 0.  0.
    9000005    1    3    3    0    0 -0.32905829909E+01 -0.52150787290E+02 -0.30475154822E+03  0.30920064472E+03  0.10000000000E+01 0.  0.
<mgrwt>
<rscale>  0 0.12502469E+03</rscale>
<asrwt>0</asrwt>
<pdfrwt beam="2">  1        4 0.20926436E+00 0.12502469E+03</pdfrwt>
<pdfrwt beam="1">  1       -4 0.44198709E-03 0.12502469E+03</pdfrwt>
<totfact> 0.20775312E+03</totfact>
</mgrwt>
</event>
<event>
 5    1  0.3294152E-002  0.1250109E+03  0.7818608E-02  0.1235052E+00
         -4   -1    0    0    0  501 -0.00000000000E+00  0.00000000000E+00  0.48298673777E+01  0.49940483464E+01  0.12700000000E+01 0. -1.
          4   -1    0    0  501    0  0.00000000000E+00 -0.00000000000E+00 -0.79522759422E+03  0.79522860833E+03  0.12700000000E+01 0. -1.
         25    2    1    2    0    0  0.00000000000E+00  0.00000000000E+00 -0.79039772684E+03  0.80022265668E+03  0.12501093417E+03 0.  0.
    9000005    1    3    3    0    0  0.49155210670E+02 -0.35799212979E+02 -0.30285361251E+03  0.30889986888E+03  0.10000000000E+01 0.  0.
    9000005    1    3    3    0    0 -0.49155210670E+02  0.35799212979E+02 -0.48754411434E+03  0.49132278780E+03  0.10000000000E+01 0.  0.
<mgrwt>
<rscale>  0 0.12501093E+03</rscale>
<asrwt>0</asrwt>
<pdfrwt beam="2">  1        4 0.12235531E+00 0.12501093E+03</pdfrwt>
<pdfrwt beam="1">  1       -4 0.75576446E-03 0.12501093E+03</pdfrwt>
<totfact> 0.38245678E+03</totfact>
</mgrwt>
</event>
<event>
 5    1  0.3294152E-002  0.1249994E+03  0.7818608E-02  0.1235070E+00
         -4   -1    0    0    0  501 -0.00000000000E+00  0.00000000000E+00  0.11919535741E+03  0.11920212301E+03  0.12700000000E+01 0. -1.
          4   -1    0    0  501    0  0.00000000000E+00 -0.00000000000E+00 -0.32751513169E+02  0.32776127209E+02  0.12700000000E+01 0. -1.
         25    2    1    2    0    0  0.00000000000E+00  0.00000000000E+00  0.86443844245E+02  0.15197825022E+03  0.12499940132E+03 0.  0.
    9000005    1    3    3    0    0 -0.27665671592E+02  0.48940345708E+02  0.76400227464E+02  0.94860642941E+02  0.10000000000E+01 0.  0.
    9000005    1    3    3    0    0  0.27665671592E+02 -0.48940345708E+02  0.10043616782E+02  0.57117607274E+02  0.10000000000E+01 0.  0.
<mgrwt>
<rscale>  0 0.12499940E+03</rscale>
<asrwt>0</asrwt>
<pdfrwt beam="2">  1        4 0.50411082E-02 0.12499940E+03</pdfrwt>
<pdfrwt beam="1">  1       -4 0.18340161E-01 0.12499940E+03</pdfrwt>
<totfact> 0.98912148E+03</totfact>
</mgrwt>
</event>
<event>
 5    1  0.3294152E-002  0.1249980E+03  0.7818608E-02  0.1235072E+00
         -4   -1    0    0    0  501 -0.00000000000E+00  0.00000000000E+00  0.13002779120E+02  0.13064653262E+02  0.12700000000E+01 0.  1.
          4   -1    0    0  501    0  0.00000000000E+00 -0.00000000000E+00 -0.29963069332E+03  0.29963338479E+03  0.12700000000E+01 0.  1.
         25    2    1    2    0    0  0.00000000000E+00  0.00000000000E+00 -0.28662791420E+03  0.31269803805E+03  0.12499800719E+03 0.  0.
    9000005    1    3    3    0    0  0.58130579526E+02 -0.14406461117E+02 -0.98674504316E+02  0.11543122714E+03  0.10000000000E+01 0.  0.
    9000005    1    3    3    0    0 -0.58130579526E+02  0.14406461117E+02 -0.18795340989E+03  0.19726681091E+03  0.10000000000E+01 0.  0.
<mgrwt>
<rscale>  0 0.12499801E+03</rscale>
<asrwt>0</asrwt>
<pdfrwt beam="2">  1        4 0.46101991E-01 0.12499801E+03</pdfrwt>
<pdfrwt beam="1">  1       -4 0.20053944E-02 0.12499801E+03</pdfrwt>
<totfact> 0.74036371E+03</totfact>
</mgrwt>
</event>
<event>
 5    1  0.3294152E-002  0.1249976E+03  0.7818608E-02  0.1235073E+00
          4   -1    0    0  501    0  0.00000000000E+00  0.00000000000E+00  0.52768219148E+03  0.52768371977E+03  0.12700000000E+01 0. -1.
         -4   -1    0    0    0  501 -0.00000000000E+00 -0.00000000000E+00 -0.73463443128E+01  0.74553118488E+01  0.12700000000E+01 0. -1.
         25    2    1    2    0    0  0.00000000000E+00  0.00000000000E+00  0.52033584717E+03  0.53513903161E+03  0.12499755721E+03 0.  0.
    9000005    1    3    3    0    0  0.37210762286E+02  0.23356318568E+02  0.45042548786E+03  0.45256411541E+03  0.10000000000E+01 0.  0.
    9000005    1    3    3    0    0 -0.37210762286E+02 -0.23356318568E+02  0.69910359309E+02  0.82574916202E+02  0.10000000000E+01 0.  0.
<mgrwt>
<rscale>  0 0.12499756E+03</rscale>
<asrwt>0</asrwt>
<pdfrwt beam="1">  1        4 0.81190373E-01 0.12499756E+03</pdfrwt>
<pdfrwt beam="2">  1       -4 0.11387065E-02 0.12499756E+03</pdfrwt>
<totfact> 0.53240347E+03</totfact>
</mgrwt>
</event>
<event>
 5    1  0.3294152E-002  0.1249990E+03  0.7818608E-02  0.1235071E+00
          4   -1    0    0  501    0  0.00000000000E+00  0.00000000000E+00  0.14129834564E+03  0.14130405295E+03  0.12700000000E+01 0. -1.
         -4   -1    0    0    0  501 -0.00000000000E+00 -0.00000000000E+00 -0.27624111406E+02  0.27653289695E+02  0.12700000000E+01 0. -1.
         25    2    1    2    0    0  0.00000000000E+00  0.00000000000E+00  0.11367423423E+03  0.16895734265E+03  0.12499900842E+03 0.  0.
    9000005    1    3    3    0    0 -0.37321260382E+00  0.62468309842E+02  0.59082273970E+02  0.85989209321E+02  0.10000000000E+01 0.  0.
    9000005    1    3    3    0    0  0.37321260382E+00 -0.62468309842E+02  0.54591960265E+02  0.82968133327E+02  0.10000000000E+01 0.  0.
<mgrwt>
<rscale>  0 0.12499901E+03</rscale>
<asrwt>0</asrwt>
<pdfrwt beam="1">  1        4 0.21740891E-01 0.12499901E+03</pdfrwt>
<pdfrwt beam="2">  1       -4 0.42525468E-02 0.12499901E+03</pdfrwt>
<totfact> 0.95645268E+03</totfact>
</mgrwt>
</event>
<event>
 5    1  0.3294152E-002  0.1250018E+03  0.7818608E-02  0.1235067E+00
          4   -1    0    0  501    0  0.00000000000E+00  0.00000000000E+00  0.44500681527E+03  0.44500862749E+03  0.12700000000E+01 0.  1.
         -4   -1    0    0    0  501 -0.00000000000E+00 -0.00000000000E+00 -0.87304297344E+01  0.88223184792E+01  0.12700000000E+01 0.  1.
         25    2    1    2    0    0  0.00000000000E+00  0.00000000000E+00  0.43627638554E+03  0.45383094597E+03  0.12500177175E+03 0.  0.
    9000005    1    3    3    0    0  0.52202106775E+02  0.21541497924E+02  0.31530427602E+03  0.32032309090E+03  0.10000000000E+01 0.  0.
    9000005    1    3    3    0    0 -0.52202106775E+02 -0.21541497924E+02  0.12097210952E+03  0.13350785507E+03  0.10000000000E+01 0.  0.
<mgrwt>
<rscale>  0 0.12500177E+03</rscale>
<asrwt>0</asrwt>
<pdfrwt beam="1">  1        4 0.68469784E-01 0.12500177E+03</pdfrwt>
<pdfrwt beam="2">  1       -4 0.13503510E-02 0.12500177E+03</pdfrwt>
<totfact> 0.59631028E+03</totfact>
</mgrwt>
</event>
<event>
 5    1  0.3294152E-002  0.1250024E+03  0.7818608E-02  0.1235066E+00
          4   -1    0    0  501    0  0.00000000000E+00  0.00000000000E+00  0.15390024920E+02  0.15442336838E+02  0.12700000000E+01 0.  1.
         -4   -1    0    0    0  501 -0.00000000000E+00 -0.00000000000E+00 -0.25334221306E+03  0.25334539629E+03  0.12700000000E+01 0.  1.
         25    2    1    2    0    0  0.00000000000E+00  0.00000000000E+00 -0.23795218814E+03  0.26878773312E+03  0.12500240652E+03 0.  0.
    9000005    1    3    3    0    0  0.18868868380E+02  0.48411624556E+02 -0.44312782715E+02  0.68295990351E+02  0.10000000000E+01 0.  0.
    9000005    1    3    3    0    0 -0.18868868380E+02 -0.48411624556E+02 -0.19363940543E+03  0.20049174277E+03  0.10000000000E+01 0.  0.
<mgrwt>
<rscale>  0 0.12500241E+03</rscale>
<asrwt>0</asrwt>
<pdfrwt beam="1">  1        4 0.23719652E-02 0.12500241E+03</pdfrwt>
<pdfrwt beam="2">  1       -4 0.38979991E-01 0.12500241E+03</pdfrwt>
<totfact> 0.79684164E+03</totfact>
</mgrwt>
</event>
<event>
 5    1  0.3294152E-002  0.1250027E+03  0.7818608E-02  0.1235065E+00
          4   -1    0    0  501    0  0.00000000000E+00  0.00000000000E+00  0.17663724636E+03  0.17664181187E+03  0.12700000000E+01 0.  1.
         -4   -1    0    0    0  501 -0.00000000000E+00 -0.00000000000E+00 -0.22092403325E+02  0.22128876715E+02  0.12700000000E+01 0.  1.
         25    2    1    2    0    0  0.00000000000E+00  0.00000000000E+00  0.15454484303E+03  0.19877068858E+03  0.12500271250E+03 0.  0.
    9000005    1    3    3    0    0  0.14086221762E+02 -0.12154807435E+02 -0.17594033771E+02  0.25626373361E+02  0.10000000000E+01 0.  0.
    9000005    1    3    3    0    0 -0.14086221762E+02  0.12154807435E+02  0.17213887680E+03  0.17314431522E+03  0.10000000000E+01 0.  0.
<mgrwt>
<rscale>  0 0.12500271E+03</rscale>
<asrwt>0</asrwt>
<pdfrwt beam="1">  1        4 0.27178118E-01 0.12500271E+03</pdfrwt>
<pdfrwt beam="2">  1       -4 0.34019880E-02 0.12500271E+03</pdfrwt>
<totfact> 0.90337756E+03</totfact>
</mgrwt>
</event>
<event>
 5    1  0.3294152E-002  0.1249993E+03  0.7818608E-02  0.1235070E+00
         -4   -1    0    0    0  501 -0.00000000000E+00  0.00000000000E+00  0.15677241040E+02  0.15728597732E+02  0.12700000000E+01 0. -1.
          4   -1    0    0  501    0  0.00000000000E+00 -0.00000000000E+00 -0.24870363801E+03  0.24870688061E+03  0.12700000000E+01 0. -1.
         25    2    1    2    0    0  0.00000000000E+00  0.00000000000E+00 -0.23302639697E+03  0.26443547834E+03  0.12499928207E+03 0.  0.
    9000005    1    3    3    0    0 -0.45761088672E+01  0.61772594079E+02 -0.99015734713E+02  0.11679858677E+03  0.10000000000E+01 0.  0.
    9000005    1    3    3    0    0  0.45761088672E+01 -0.61772594079E+02 -0.13401066226E+03  0.14763689156E+03  0.10000000000E+01 0.  0.
<mgrwt>
<rscale>  0 0.12499928E+03</rscale>
<asrwt>0</asrwt>
<pdfrwt beam="2">  1        4 0.38266295E-01 0.12499928E+03</pdfrwt>
<pdfrwt beam="1">  1       -4 0.24160834E-02 0.12499928E+03</pdfrwt>
<totfact> 0.80288890E+03</totfact>
</mgrwt>
</event>
<event>
 5    1  0.3294152E-002  0.1250059E+03  0.7818608E-02  0.1235060E+00
         -4   -1    0    0    0  501 -0.00000000000E+00  0.00000000000E+00  0.29700950976E+02  0.29728090905E+02  0.12700000000E+01 0. -1.
          4   -1    0    0  501    0  0.00000000000E+00 -0.00000000000E+00 -0.13144159895E+03  0.13144773423E+03  0.12700000000E+01 0. -1.
         25    2    1    2    0    0  0.00000000000E+00  0.00000000000E+00 -0.10174064798E+03  0.16117582514E+03  0.12500594849E+03 0.  0.
    9000005    1    3    3    0    0 -0.11749210354E+02 -0.26376829076E+01 -0.12993800030E+03  0.13049860243E+03  0.10000000000E+01 0.  0.
    9000005    1    3    3    0    0  0.11749210354E+02  0.26376829076E+01  0.28197352322E+02  0.30677222707E+02  0.10000000000E+01 0.  0.
<mgrwt>
<rscale>  0 0.12500595E+03</rscale>
<asrwt>0</asrwt>
<pdfrwt beam="2">  1        4 0.20224344E-01 0.12500595E+03</pdfrwt>
<pdfrwt beam="1">  1       -4 0.45719368E-02 0.12500595E+03</pdfrwt>
<totfact> 0.97103591E+03</totfact>
</mgrwt>
</event>
<event>
 5    1  0.3294152E-002  0.1249989E+03  0.7818608E-02  0.1235071E+00
         -4   -1    0    0    0  501 -0.00000000000E+00  0.00000000000E+00  0.12085112198E+03  0.12085779488E+03  0.12700000000E+01 0. -1.
          4   -1    0    0  501    0  0.00000000000E+00 -0.00000000000E+00 -0.32302237512E+02  0.32327193635E+02  0.12700000000E+01 0. -1.
         25    2    1    2    0    0  0.00000000000E+00  0.00000000000E+00  0.88548884466E+02  0.15318498852E+03  0.12499894306E+03 0.  0.
    9000005    1    3    3    0    0 -0.42218834440E+02  0.45145103179E+02  0.55551191616E+02  0.83111041459E+02  0.10000000000E+01 0.  0.
    9000005    1    3    3    0    0  0.42218834440E+02 -0.45145103179E+02  0.32997692850E+02  0.70073947056E+02  0.10000000000E+01 0.  0.
<mgrwt>
<rscale>  0 0.12499894E+03</rscale>
<asrwt>0</asrwt>
<pdfrwt beam="2">  1        4 0.49720080E-02 0.12499894E+03</pdfrwt>
<pdfrwt beam="1">  1       -4 0.18594913E-01 0.12499894E+03</pdfrwt>
<totfact> 0.98674911E+03</totfact>
</mgrwt>
</event>
<event>
 5    1  0.3294152E-002  0.1250003E+03  0.7818608E-02  0.1235069E+00
          4   -1    0    0  501    0  0.00000000000E+00  0.00000000000E+00  0.54004904994E+03  0.54005054323E+03  0.12700000000E+01 0.  1.
         -4   -1    0    0    0  501 -0.00000000000E+00 -0.00000000000E+00 -0.71759155473E+01  0.72874319168E+01  0.12700000000E+01 0.  1.
         25    2    1    2    0    0  0.00000000000E+00  0.00000000000E+00  0.53287313440E+03  0.54733797515E+03  0.12500032671E+03 0.  0.
    9000005    1    3    3    0    0 -0.22792953576E+02  0.55211541482E+02  0.34687081863E+03  0.35197755307E+03  0.10000000000E+01 0.  0.
    9000005    1    3    3    0    0  0.22792953576E+02 -0.55211541482E+02  0.18600231576E+03  0.19536042208E+03  0.10000000000E+01 0.  0.
<mgrwt>
<rscale>  0 0.12500033E+03</rscale>
<asrwt>0</asrwt>
<pdfrwt beam="1">  1        4 0.83093153E-01 0.12500033E+03</pdfrwt>
<pdfrwt beam="2">  1       -4 0.11126802E-02 0.12500033E+03</pdfrwt>
<totfact> 0.52369606E+03</totfact>
</mgrwt>
</event>
<event>
 5    1  0.3294152E-002  0.1249932E+03  0.7818608E-02  0.1235080E+00
          4   -1    0    0  501    0  0.00000000000E+00  0.00000000000E+00  0.62620782909E+02  0.62633659897E+02  0.12700000000E+01 0.  1.
         -4   -1    0    0    0  501 -0.00000000000E+00 -0.00000000000E+00 -0.62346954078E+02  0.62359887611E+02  0.12700000000E+01 0.  1.
         25    2    1    2    0    0  0.00000000000E+00  0.00000000000E+00  0.27382883100E+00  0.12499354751E+03  0.12499324756E+03 0.  0.
    9000005    1    3    3    0    0 -0.25287090386E+02  0.38032185951E+02 -0.42512266180E+02  0.62403340329E+02  0.10000000000E+01 0.  0.
    9000005    1    3    3    0    0  0.25287090386E+02 -0.38032185951E+02  0.42786095011E+02  0.62590207179E+02  0.10000000000E+01 0.  0.
<mgrwt>
<rscale>  0 0.12499325E+03</rscale>
<asrwt>0</asrwt>
<pdfrwt beam="1">  1        4 0.96359520E-02 0.12499325E+03</pdfrwt>
<pdfrwt beam="2">  1       -4 0.95938246E-02 0.12499325E+03</pdfrwt>
<totfact> 0.10454598E+04</totfact>
</mgrwt>
</event>
<event>
 5    1  0.3294152E-002  0.1250171E+03  0.7818608E-02  0.1235043E+00
          4   -1    0    0  501    0  0.00000000000E+00  0.00000000000E+00  0.27644821605E+03  0.27645113321E+03  0.12700000000E+01 0.  1.
         -4   -1    0    0    0  501 -0.00000000000E+00 -0.00000000000E+00 -0.14102461900E+02  0.14159531476E+02  0.12700000000E+01 0.  1.
         25    2    1    2    0    0  0.00000000000E+00  0.00000000000E+00  0.26234575415E+03  0.29061066469E+03  0.12501705369E+03 0.  0.
    9000005    1    3    3    0    0 -0.53134812797E+02 -0.69567056075E+01  0.56402252017E+02  0.77806928460E+02  0.10000000000E+01 0.  0.
    9000005    1    3    3    0    0  0.53134812797E+02  0.69567056075E+01  0.20594350213E+03  0.21280373623E+03  0.10000000000E+01 0.  0.
<mgrwt>
<rscale>  0 0.12501705E+03</rscale>
<asrwt>0</asrwt>
<pdfrwt beam="1">  1        4 0.42535106E-01 0.12501705E+03</pdfrwt>
<pdfrwt beam="2">  1       -4 0.21742240E-02 0.12501705E+03</pdfrwt>
<totfact> 0.76762838E+03</totfact>
</mgrwt>
</event>
<event>
 5    1  0.3294152E-002  0.1250008E+03  0.7818608E-02  0.1235068E+00
          4   -1    0    0  501    0  0.00000000000E+00  0.00000000000E+00  0.12434486859E+04  0.12434493345E+04  0.12700000000E+01 0.  1.
         -4   -1    0    0    0  501 -0.00000000000E+00 -0.00000000000E+00 -0.30124722387E+01  0.32692337005E+01  0.12700000000E+01 0.  1.
         25    2    1    2    0    0  0.00000000000E+00  0.00000000000E+00  0.12404362137E+04  0.12467185682E+04  0.12500075212E+03 0.  0.
    9000005    1    3    3    0    0 -0.42905977729E+02 -0.31717158164E+02  0.94469209627E+03  0.94619821275E+03  0.10000000000E+01 0.  0.
    9000005    1    3    3    0    0  0.42905977729E+02  0.31717158164E+02  0.29574411739E+03  0.30052035541E+03  0.10000000000E+01 0.  0.
<mgrwt>
<rscale>  0 0.12500075E+03</rscale>
<asrwt>0</asrwt>
<pdfrwt beam="1">  1        4 0.19131987E+00 0.12500075E+03</pdfrwt>
<pdfrwt beam="2">  1       -4 0.48325735E-03 0.12500075E+03</pdfrwt>
<totfact> 0.23521140E+03</totfact>
</mgrwt>
</event>
<event>
 5    1  0.3294152E-002  0.1250002E+03  0.7818608E-02  0.1235069E+00
         -4   -1    0    0    0  501 -0.00000000000E+00  0.00000000000E+00  0.25427027565E+03  0.25427344725E+03  0.12700000000E+01 0. -1.
          4   -1    0    0  501    0  0.00000000000E+00 -0.00000000000E+00 -0.15333121526E+02  0.15385626921E+02  0.12700000000E+01 0. -1.
         25    2    1    2    0    0  0.00000000000E+00  0.00000000000E+00  0.23893715412E+03  0.26965907418E+03  0.12500021066E+03 0.  0.
    9000005    1    3    3    0    0  0.10308251067E+02 -0.61630302451E+02  0.12128497437E+03  0.13643899453E+03  0.10000000000E+01 0.  0.
    9000005    1    3    3    0    0 -0.10308251067E+02  0.61630302451E+02  0.11765217975E+03  0.13322007964E+03  0.10000000000E+01 0.  0.
<mgrwt>
<rscale>  0 0.12500021E+03</rscale>
<asrwt>0</asrwt>
<pdfrwt beam="2">  1        4 0.23632245E-02 0.12500021E+03</pdfrwt>
<pdfrwt beam="1">  1       -4 0.39122789E-01 0.12500021E+03</pdfrwt>
<totfact> 0.79568994E+03</totfact>
</mgrwt>
</event>
<event>
 5    1  0.3294152E-002  0.1250007E+03  0.7818608E-02  0.1235068E+00
         -4   -1    0    0    0  501 -0.00000000000E+00  0.00000000000E+00  0.23843484509E+02  0.23877283211E+02  0.12700000000E+01 0.  1.
          4   -1    0    0  501    0  0.00000000000E+00 -0.00000000000E+00 -0.16367826787E+03  0.16368319484E+03  0.12700000000E+01 0.  1.
         25    2    1    2    0    0  0.00000000000E+00  0.00000000000E+00 -0.13983478336E+03  0.18756047805E+03  0.12500066516E+03 0.  0.
    9000005    1    3    3    0    0  0.31865885281E+01  0.55234005661E+02 -0.26317223606E+02  0.61274350149E+02  0.10000000000E+01 0.  0.
    9000005    1    3    3    0    0 -0.31865885281E+01 -0.55234005661E+02 -0.11351755976E+03  0.12628612790E+03  0.10000000000E+01 0.  0.
<mgrwt>
<rscale>  0 0.12500067E+03</rscale>
<asrwt>0</asrwt>
<pdfrwt beam="2">  1        4 0.25184250E-01 0.12500067E+03</pdfrwt>
<pdfrwt beam="1">  1       -4 0.36712074E-02 0.12500067E+03</pdfrwt>
<totfact> 0.92272149E+03</totfact>
</mgrwt>
</event>
<event>
 5    1  0.3294152E-002  0.1249988E+03  0.7818608E-02  0.1235071E+00
         -4   -1    0    0    0  501 -0.00000000000E+00  0.00000000000E+00  0.13628833671E+03  0.13629425382E+03  0.12700000000E+01 0.  1.
          4   -1    0    0  501    0  0.00000000000E+00 -0.00000000000E+00 -0.28640498983E+02  0.28668642835E+02  0.12700000000E+01 0.  1.
         25    2    1    2    0    0  0.00000000000E+00  0.00000000000E+00  0.10764783773E+03  0.16496289665E+03  0.12499880121E+03 0.  0.
    9000005    1    3    3    0    0 -0.20018414823E+02  0.23779231030E+02 -0.17721067949E+02  0.35794203576E+02  0.10000000000E+01 0.  0.
    9000005    1    3    3    0    0  0.20018414823E+02 -0.23779231030E+02  0.12536890568E+03  0.12916869308E+03  0.10000000000E+01 0.  0.
<mgrwt>
<rscale>  0 0.12499880E+03</rscale>
<asrwt>0</asrwt>
<pdfrwt beam="2">  1        4 0.44088507E-02 0.12499880E+03</pdfrwt>
<pdfrwt beam="1">  1       -4 0.20970056E-01 0.12499880E+03</pdfrwt>
<totfact> 0.96397015E+03</totfact>
</mgrwt>
</event>
<event>
 5    1  0.3294152E-002  0.1250009E+03  0.7818608E-02  0.1235068E+00
          4   -1    0    0  501    0  0.00000000000E+00  0.00000000000E+00  0.13330197127E+04  0.13330203176E+04  0.12700000000E+01 0. -1.
         -4   -1    0    0    0  501 -0.00000000000E+00 -0.00000000000E+00 -0.27921836563E+01  0.30674402309E+01  0.12700000000E+01 0. -1.
         25    2    1    2    0    0  0.00000000000E+00  0.00000000000E+00  0.13302275290E+04  0.13360877579E+04  0.12500087125E+03 0.  0.
    9000005    1    3    3    0    0 -0.43158719965E+02  0.67338544982E+01  0.18742842168E+03  0.19245371692E+03  0.10000000000E+01 0.  0.
    9000005    1    3    3    0    0  0.43158719965E+02 -0.67338544982E+01  0.11427991073E+04  0.11436340409E+04  0.10000000000E+01 0.  0.
<mgrwt>
<rscale>  0 0.12500087E+03</rscale>
<asrwt>0</asrwt>
<pdfrwt beam="1">  1        4 0.20510133E+00 0.12500087E+03</pdfrwt>
<pdfrwt beam="2">  1       -4 0.45078650E-03 0.12500087E+03</pdfrwt>
<totfact> 0.21392037E+03</totfact>
</mgrwt>
</event>
<event>
 5    1  0.3294152E-002  0.1250028E+03  0.7818608E-02  0.1235065E+00
          4   -1    0    0  501    0  0.00000000000E+00  0.00000000000E+00  0.12360201507E+02  0.12425275904E+02  0.12700000000E+01 0.  1.
         -4   -1    0    0    0  501 -0.00000000000E+00 -0.00000000000E+00 -0.31515274049E+03  0.31515529939E+03  0.12700000000E+01 0.  1.
         25    2    1    2    0    0  0.00000000000E+00  0.00000000000E+00 -0.30279253898E+03  0.32758057530E+03  0.12500284657E+03 0.  0.
    9000005    1    3    3    0    0 -0.13199970570E+02  0.26543558754E+02 -0.72253149306E+01  0.30528755465E+02  0.10000000000E+01 0.  0.
    9000005    1    3    3    0    0  0.13199970570E+02 -0.26543558754E+02 -0.29556722405E+03  0.29705181983E+03  0.10000000000E+01 0.  0.
<mgrwt>
<rscale>  0 0.12500285E+03</rscale>
<asrwt>0</asrwt>
<pdfrwt beam="1">  1        4 0.19067723E-02 0.12500285E+03</pdfrwt>
<pdfrwt beam="2">  1       -4 0.48490234E-01 0.12500285E+03</pdfrwt>
<totfact> 0.72258941E+03</totfact>
</mgrwt>
</event>
<event>
 5    1  0.3294152E-002  0.1250059E+03  0.7818608E-02  0.1235060E+00
          4   -1    0    0  501    0  0.00000000000E+00  0.00000000000E+00  0.34081499015E+02  0.34105153204E+02  0.12700000000E+01 0. -1.
         -4   -1    0    0    0  501 -0.00000000000E+00 -0.00000000000E+00 -0.11455889900E+03  0.11456593839E+03  0.12700000000E+01 0. -1.
         25    2    1    2    0    0  0.00000000000E+00  0.00000000000E+00 -0.80477399982E+02  0.14867109159E+03  0.12500592613E+03 0.  0.
    9000005    1    3    3    0    0  0.50825185664E+02 -0.39815219134E+01 -0.83228160954E+02  0.97606243603E+02  0.10000000000E+01 0.  0.
    9000005    1    3    3    0    0 -0.50825185664E+02  0.39815219134E+01  0.27507609724E+01  0.51064847992E+02  0.10000000000E+01 0.  0.
<mgrwt>
<rscale>  0 0.12500593E+03</rscale>
<asrwt>0</asrwt>
<pdfrwt beam="1">  1        4 0.52456686E-02 0.12500593E+03</pdfrwt>
<pdfrwt beam="2">  1       -4 0.17626807E-01 0.12500593E+03</pdfrwt>
<totfact> 0.99555977E+03</totfact>
</mgrwt>
</event>
<event>
 5    1  0.3294152E-002  0.1250000E+03  0.7818608E-02  0.1235069E+00
         -4   -1    0    0    0  501 -0.00000000000E+00  0.00000000000E+00  0.82818551276E+01  0.83786648312E+01  0.12700000000E+01 0.  1.
          4   -1    0    0  501    0  0.00000000000E+00 -0.00000000000E+00 -0.46882550310E+03  0.46882722324E+03  0.12700000000E+01 0.  1.
         25    2    1    2    0    0  0.00000000000E+00  0.00000000000E+00 -0.46054364797E+03  0.47720588808E+03  0.12500003171E+03 0.  0.
    9000005    1    3    3    0    0 -0.11355904543E+02 -0.52331310765E+02 -0.35325273781E+03  0.35728982552E+03  0.10000000000E+01 0.  0.
    9000005    1    3    3    0    0  0.11355904543E+02  0.52331310765E+02 -0.10729091016E+03  0.11991606255E+03  0.10000000000E+01 0.  0.
<mgrwt>
<rscale>  0 0.12500003E+03</rscale>
<asrwt>0</asrwt>
<pdfrwt beam="2">  1        4 0.72134559E-01 0.12500003E+03</pdfrwt>
<pdfrwt beam="1">  1       -4 0.12817111E-02 0.12500003E+03</pdfrwt>
<totfact> 0.57677291E+03</totfact>
</mgrwt>
</event>
<event>
 5    1  0.3294152E-002  0.1249543E+03  0.7818608E-02  0.1235141E+00
          4   -1    0    0  501    0  0.00000000000E+00  0.00000000000E+00  0.17219617492E+03  0.17220085817E+03  0.12700000000E+01 0. -1.
         -4   -1    0    0    0  501 -0.00000000000E+00 -0.00000000000E+00 -0.22645525458E+02  0.22681109393E+02  0.12700000000E+01 0. -1.
         25    2    1    2    0    0  0.00000000000E+00  0.00000000000E+00  0.14955064946E+03  0.19488196757E+03  0.12495432977E+03 0.  0.
    9000005    1    3    3    0    0  0.54308004580E+02  0.29911666345E+02  0.86686718027E+02  0.10658167867E+03  0.10000000000E+01 0.  0.
    9000005    1    3    3    0    0 -0.54308004580E+02 -0.29911666345E+02  0.62863931430E+02  0.88300288900E+02  0.10000000000E+01 0.  0.
<mgrwt>
<rscale>  0 0.12495433E+03</rscale>
<asrwt>0</asrwt>
<pdfrwt beam="1">  1        4 0.26494817E-01 0.12495433E+03</pdfrwt>
<pdfrwt beam="2">  1       -4 0.34870245E-02 0.12495433E+03</pdfrwt>
<totfact> 0.91097856E+03</totfact>
</mgrwt>
</event>
<event>
 5    1  0.3294152E-002  0.1250000E+03  0.7818608E-02  0.1235069E+00
         -4   -1    0    0    0  501 -0.00000000000E+00  0.00000000000E+00  0.21205778829E+02  0.21243774518E+02  0.12700000000E+01 0.  1.
          4   -1    0    0  501    0  0.00000000000E+00 -0.00000000000E+00 -0.18400179554E+03  0.18400617833E+03  0.12700000000E+01 0.  1.
         25    2    1    2    0    0  0.00000000000E+00  0.00000000000E+00 -0.16279601671E+03  0.20524995285E+03  0.12500000034E+03 0.  0.
    9000005    1    3    3    0    0 -0.24352408361E+02 -0.44618297321E+02 -0.21709170448E+02  0.55282188183E+02  0.10000000000E+01 0.  0.
    9000005    1    3    3    0    0  0.24352408361E+02  0.44618297321E+02 -0.14108684626E+03  0.14996776466E+03  0.10000000000E+01 0.  0.
<mgrwt>
<rscale>  0 0.12500000E+03</rscale>
<asrwt>0</asrwt>
<pdfrwt beam="2">  1        4 0.28311228E-01 0.12500000E+03</pdfrwt>
<pdfrwt beam="1">  1       -4 0.32656875E-02 0.12500000E+03</pdfrwt>
<totfact> 0.89257549E+03</totfact>
</mgrwt>
</event>
<event>
 5    1  0.3294152E-002  0.1249978E+03  0.7818608E-02  0.1235073E+00
          4   -1    0    0  501    0  0.00000000000E+00  0.00000000000E+00  0.99441289491E+02  0.99449398970E+02  0.12700000000E+01 0. -1.
         -4   -1    0    0    0  501 -0.00000000000E+00 -0.00000000000E+00 -0.39260610824E+02  0.39281146397E+02  0.12700000000E+01 0. -1.
         25    2    1    2    0    0  0.00000000000E+00  0.00000000000E+00  0.60180678666E+02  0.13873054537E+03  0.12499780051E+03 0.  0.
    9000005    1    3    3    0    0 -0.29861922202E+02 -0.47836830583E+02  0.59974664319E+02  0.82328956740E+02  0.10000000000E+01 0.  0.
    9000005    1    3    3    0    0  0.29861922202E+02  0.47836830583E+02  0.20601434781E+00  0.56401588627E+02  0.10000000000E+01 0.  0.
<mgrwt>
<rscale>  0 0.12499780E+03</rscale>
<asrwt>0</asrwt>
<pdfrwt beam="1">  1        4 0.15300863E-01 0.12499780E+03</pdfrwt>
<pdfrwt beam="2">  1       -4 0.60422975E-02 0.12499780E+03</pdfrwt>
<totfact> 0.10160467E+04</totfact>
</mgrwt>
</event>
<event>
 5    1  0.3294152E-002  0.1250024E+03  0.7818608E-02  0.1235066E+00
         -4   -1    0    0    0  501 -0.00000000000E+00  0.00000000000E+00  0.27931973026E+02  0.27960830051E+02  0.12700000000E+01 0. -1.
          4   -1    0    0  501    0  0.00000000000E+00 -0.00000000000E+00 -0.13975012094E+03  0.13975589148E+03  0.12700000000E+01 0. -1.
         25    2    1    2    0    0  0.00000000000E+00  0.00000000000E+00 -0.11181814792E+03  0.16771672153E+03  0.12500240189E+03 0.  0.
    9000005    1    3    3    0    0  0.12736107841E+02 -0.61010485806E+02 -0.62044700086E+02  0.87949034275E+02  0.10000000000E+01 0.  0.
    9000005    1    3    3    0    0 -0.12736107841E+02  0.61010485806E+02 -0.49773447831E+02  0.79767687256E+02  0.10000000000E+01 0.  0.
<mgrwt>
<rscale>  0 0.12500240E+03</rscale>
<asrwt>0</asrwt>
<pdfrwt beam="2">  1        4 0.21502682E-01 0.12500240E+03</pdfrwt>
<pdfrwt beam="1">  1       -4 0.42998903E-02 0.12500240E+03</pdfrwt>
<totfact> 0.95870177E+03</totfact>
</mgrwt>
</event>
<event>
 5    1  0.3294152E-002  0.1250015E+03  0.7818608E-02  0.1235067E+00
         -4   -1    0    0    0  501 -0.00000000000E+00  0.00000000000E+00  0.64116586388E+02  0.64129163023E+02  0.12700000000E+01 0.  1.
          4   -1    0    0  501    0  0.00000000000E+00 -0.00000000000E+00 -0.60900491553E+02  0.60913732207E+02  0.12700000000E+01 0.  1.
         25    2    1    2    0    0  0.00000000000E+00  0.00000000000E+00  0.32160948350E+01  0.12504289523E+03  0.12500152952E+03 0.  0.
    9000005    1    3    3    0    0 -0.60762379410E+02  0.82034700318E+01  0.13694343638E+02  0.62832306339E+02  0.10000000000E+01 0.  0.
    9000005    1    3    3    0    0  0.60762379410E+02 -0.82034700318E+01 -0.10478248803E+02  0.62210588891E+02  0.10000000000E+01 0.  0.
<mgrwt>
<rscale>  0 0.12500153E+03</rscale>
<asrwt>0</asrwt>
<pdfrwt beam="2">  1        4 0.93712923E-02 0.12500153E+03</pdfrwt>
<pdfrwt beam="1">  1       -4 0.98660762E-02 0.12500153E+03</pdfrwt>
<totfact> 0.10451570E+04</totfact>
</mgrwt>
</event>
<event>
 5    1  0.3294152E-002  0.1250017E+03  0.7818608E-02  0.1235067E+00
         -4   -1    0    0    0  501 -0.00000000000E+00  0.00000000000E+00  0.74144809090E+02  0.74155684981E+02  0.12700000000E+01 0.  1.
          4   -1    0    0  501    0  0.00000000000E+00 -0.00000000000E+00 -0.52663139439E+02  0.52678450581E+02  0.12700000000E+01 0.  1.
         25    2    1    2    0    0  0.00000000000E+00  0.00000000000E+00  0.21481669651E+02  0.12683413556E+03  0.12500174324E+03 0.  0.
    9000005    1    3    3    0    0 -0.44334736433E+01 -0.31387772532E+02 -0.43905034863E+02  0.54161795017E+02  0.10000000000E+01 0.  0.
    9000005    1    3    3    0    0  0.44334736433E+01  0.31387772532E+02  0.65386704515E+02  0.72672340546E+02  0.10000000000E+01 0.  0.
<mgrwt>
<rscale>  0 0.12500174E+03</rscale>
<asrwt>0</asrwt>
<pdfrwt beam="2">  1        4 0.81040358E-02 0.12500174E+03</pdfrwt>
<pdfrwt beam="1">  1       -4 0.11408908E-01 0.12500174E+03</pdfrwt>
<totfact> 0.10412341E+04</totfact>
</mgrwt>
</event>
<event>
 5    1  0.3294152E-002  0.1249995E+03  0.7818608E-02  0.1235070E+00
          4   -1    0    0  501    0  0.00000000000E+00  0.00000000000E+00  0.30556518125E+02  0.30582898815E+02  0.12700000000E+01 0.  1.
         -4   -1    0    0    0  501 -0.00000000000E+00 -0.00000000000E+00 -0.12775117696E+03  0.12775748947E+03  0.12700000000E+01 0.  1.
         25    2    1    2    0    0  0.00000000000E+00  0.00000000000E+00 -0.97194658839E+02  0.15834038828E+03  0.12499950742E+03 0.  0.
    9000005    1    3    3    0    0  0.16886934990E+02 -0.25459340866E+02  0.20458206199E+02  0.36781582505E+02  0.10000000000E+01 0.  0.
    9000005    1    3    3    0    0 -0.16886934990E+02  0.25459340866E+02 -0.11765286504E+03  0.12155880578E+03  0.10000000000E+01 0.  0.
<mgrwt>
<rscale>  0 0.12499951E+03</rscale>
<asrwt>0</asrwt>
<pdfrwt beam="1">  1        4 0.47035177E-02 0.12499951E+03</pdfrwt>
<pdfrwt beam="2">  1       -4 0.19656542E-01 0.12499951E+03</pdfrwt>
<totfact> 0.97664784E+03</totfact>
</mgrwt>
</event>
<event>
 5    1  0.3294152E-002  0.1249990E+03  0.7818608E-02  0.1235071E+00
          4   -1    0    0  501    0  0.00000000000E+00  0.00000000000E+00  0.24919110412E+03  0.24919434037E+03  0.12700000000E+01 0.  1.
         -4   -1    0    0    0  501 -0.00000000000E+00 -0.00000000000E+00 -0.15646392406E+02  0.15697850023E+02  0.12700000000E+01 0.  1.
         25    2    1    2    0    0  0.00000000000E+00  0.00000000000E+00  0.23354471171E+03  0.26489219039E+03  0.12499896064E+03 0.  0.
    9000005    1    3    3    0    0  0.35063803999E+02  0.46580466453E+02  0.16444038664E+03  0.17447306659E+03  0.10000000000E+01 0.  0.
    9000005    1    3    3    0    0 -0.35063803999E+02 -0.46580466453E+02  0.69104325072E+02  0.90419123804E+02  0.10000000000E+01 0.  0.
<mgrwt>
<rscale>  0 0.12499896E+03</rscale>
<asrwt>0</asrwt>
<pdfrwt beam="1">  1        4 0.38341302E-01 0.12499896E+03</pdfrwt>
<pdfrwt beam="2">  1       -4 0.24113444E-02 0.12499896E+03</pdfrwt>
<totfact> 0.80226229E+03</totfact>
</mgrwt>
</event>
<event>
 5    1  0.3294152E-002  0.1249988E+03  0.7818608E-02  0.1235071E+00
          4   -1    0    0  501    0  0.00000000000E+00  0.00000000000E+00  0.13322183145E+02  0.13382580609E+02  0.12700000000E+01 0.  1.
         -4   -1    0    0    0  501 -0.00000000000E+00 -0.00000000000E+00 -0.29248346323E+03  0.29248622046E+03  0.12700000000E+01 0.  1.
         25    2    1    2    0    0  0.00000000000E+00  0.00000000000E+00 -0.27916128008E+03  0.30586880107E+03  0.12499881269E+03 0.  0.
    9000005    1    3    3    0    0 -0.30181542115E+02 -0.52122506332E+02 -0.18034274419E+03  0.19013728338E+03  0.10000000000E+01 0.  0.
    9000005    1    3    3    0    0  0.30181542115E+02  0.52122506332E+02 -0.98818535896E+02  0.11573151769E+03  0.10000000000E+01 0.  0.
<mgrwt>
<rscale>  0 0.12499881E+03</rscale>
<asrwt>0</asrwt>
<pdfrwt beam="1">  1        4 0.20544249E-02 0.12499881E+03</pdfrwt>
<pdfrwt beam="2">  1       -4 0.45002309E-01 0.12499881E+03</pdfrwt>
<totfact> 0.74870490E+03</totfact>
</mgrwt>
</event>
<event>
 5    1  0.3294152E-002  0.1250016E+03  0.7818608E-02  0.1235067E+00
          4   -1    0    0  501    0  0.00000000000E+00  0.00000000000E+00  0.22246541313E+03  0.22246903816E+03  0.12700000000E+01 0.  1.
         -4   -1    0    0    0  501 -0.00000000000E+00 -0.00000000000E+00 -0.17532623013E+02  0.17578559944E+02  0.12700000000E+01 0.  1.
         25    2    1    2    0    0  0.00000000000E+00  0.00000000000E+00  0.20493279012E+03  0.24004759811E+03  0.12500160355E+03 0.  0.
    9000005    1    3    3    0    0 -0.32954588478E+02 -0.52073925958E+02  0.12239110172E+03  0.13703386606E+03  0.10000000000E+01 0.  0.
    9000005    1    3    3    0    0  0.32954588478E+02  0.52073925958E+02  0.82541688398E+02  0.10301373205E+03  0.10000000000E+01 0.  0.
<mgrwt>
<rscale>  0 0.12500160E+03</rscale>
<asrwt>0</asrwt>
<pdfrwt beam="1">  1        4 0.34229263E-01 0.12500160E+03</pdfrwt>
<pdfrwt beam="2">  1       -4 0.27011389E-02 0.12500160E+03</pdfrwt>
<totfact> 0.83787281E+03</totfact>
</mgrwt>
</event>
<event>
 5    1  0.3294152E-002  0.1249982E+03  0.7818608E-02  0.1235072E+00
          4   -1    0    0  501    0  0.00000000000E+00  0.00000000000E+00  0.17842196336E+01  0.21900547255E+01  0.12700000000E+01 0. -1.
         -4   -1    0    0    0  501 -0.00000000000E+00 -0.00000000000E+00 -0.19653052509E+04  0.19653056612E+04  0.12700000000E+01 0. -1.
         25    2    1    2    0    0  0.00000000000E+00  0.00000000000E+00 -0.19635210313E+04  0.19674957160E+04  0.12499820851E+03 0.  0.
    9000005    1    3    3    0    0  0.25586490758E+02  0.32027454972E+02 -0.23934528752E+03  0.24283243820E+03  0.10000000000E+01 0.  0.
    9000005    1    3    3    0    0 -0.25586490758E+02 -0.32027454972E+02 -0.17241757437E+04  0.17246632778E+04  0.10000000000E+01 0.  0.
<mgrwt>
<rscale>  0 0.12499821E+03</rscale>
<asrwt>0</asrwt>
<pdfrwt beam="1">  1        4 0.30574655E-03 0.12499821E+03</pdfrwt>
<pdfrwt beam="2">  1       -4 0.30238435E+00 0.12499821E+03</pdfrwt>
<totfact> 0.10292103E+03</totfact>
</mgrwt>
</event>
<event>
 5    1  0.3294152E-002  0.1250007E+03  0.7818608E-02  0.1235068E+00
          4   -1    0    0  501    0  0.00000000000E+00  0.00000000000E+00  0.25110056809E+02  0.25142152910E+02  0.12700000000E+01 0. -1.
         -4   -1    0    0    0  501 -0.00000000000E+00 -0.00000000000E+00 -0.15543282551E+03  0.15543801384E+03  0.12700000000E+01 0. -1.
         25    2    1    2    0    0  0.00000000000E+00  0.00000000000E+00 -0.13032276870E+03  0.18058016675E+03  0.12500069032E+03 0.  0.
    9000005    1    3    3    0    0 -0.42971152892E+01 -0.60237556066E+02 -0.88377536146E+02  0.10704493101E+03  0.10000000000E+01 0.  0.
    9000005    1    3    3    0    0  0.42971152892E+01  0.60237556066E+02 -0.41945232557E+02  0.73535235737E+02  0.10000000000E+01 0.  0.
<mgrwt>
<rscale>  0 0.12500069E+03</rscale>
<asrwt>0</asrwt>
<pdfrwt beam="1">  1        4 0.38659538E-02 0.12500069E+03</pdfrwt>
<pdfrwt beam="2">  1       -4 0.23915610E-01 0.12500069E+03</pdfrwt>
<totfact> 0.93511228E+03</totfact>
</mgrwt>
</event>
<event>
 5    1  0.3294152E-002  0.1249986E+03  0.7818608E-02  0.1235071E+00
          4   -1    0    0  501    0  0.00000000000E+00  0.00000000000E+00  0.15413708169E+03  0.15414231363E+03  0.12700000000E+01 0. -1.
         -4   -1    0    0    0  501 -0.00000000000E+00 -0.00000000000E+00 -0.25320563282E+02  0.25352392884E+02  0.12700000000E+01 0. -1.
         25    2    1    2    0    0  0.00000000000E+00  0.00000000000E+00  0.12881651841E+03  0.17949470652E+03  0.12499861700E+03 0.  0.
    9000005    1    3    3    0    0 -0.57632661956E+02 -0.99340958113E+01  0.96030782558E+02  0.11244163456E+03  0.10000000000E+01 0.  0.
    9000005    1    3    3    0    0  0.57632661956E+02  0.99340958113E+01  0.32785735850E+02  0.67053071957E+02  0.10000000000E+01 0.  0.
<mgrwt>
<rscale>  0 0.12499862E+03</rscale>
<asrwt>0</asrwt>
<pdfrwt beam="1">  1        4 0.23716248E-01 0.12499862E+03</pdfrwt>
<pdfrwt beam="2">  1       -4 0.38983222E-02 0.12499862E+03</pdfrwt>
<totfact> 0.93710943E+03</totfact>
</mgrwt>
</event>
<event>
 5    1  0.3294152E-002  0.1250193E+03  0.7818608E-02  0.1235039E+00
         -4   -1    0    0    0  501 -0.00000000000E+00  0.00000000000E+00  0.32057087184E+03  0.32057338750E+03  0.12700000000E+01 0.  1.
          4   -1    0    0  501    0  0.00000000000E+00 -0.00000000000E+00 -0.12153408326E+02  0.12219584033E+02  0.12700000000E+01 0.  1.
         25    2    1    2    0    0  0.00000000000E+00  0.00000000000E+00  0.30841746351E+03  0.33279297153E+03  0.12501931891E+03 0.  0.
    9000005    1    3    3    0    0  0.11002045741E+02 -0.31388751894E+02  0.29506894621E+03  0.29693935707E+03  0.10000000000E+01 0.  0.
    9000005    1    3    3    0    0 -0.11002045741E+02  0.31388751894E+02  0.13348517300E+02  0.35853614463E+02  0.10000000000E+01 0.  0.
<mgrwt>
<rscale>  0 0.12501932E+03</rscale>
<asrwt>0</asrwt>
<pdfrwt beam="2">  1        4 0.18750391E-02 0.12501932E+03</pdfrwt>
<pdfrwt beam="1">  1       -4 0.49323878E-01 0.12501932E+03</pdfrwt>
<totfact> 0.71629310E+03</totfact>
</mgrwt>
</event>
<event>
 5    1  0.3294152E-002  0.1249961E+03  0.7818608E-02  0.1235075E+00
         -4   -1    0    0    0  501 -0.00000000000E+00  0.00000000000E+00  0.35424610139E+03  0.35424837791E+03  0.12700000000E+01 0.  1.
          4   -1    0    0  501    0  0.00000000000E+00 -0.00000000000E+00 -0.10987355201E+02  0.11060509677E+02  0.12700000000E+01 0.  1.
         25    2    1    2    0    0  0.00000000000E+00  0.00000000000E+00  0.34325874619E+03  0.36530888759E+03  0.12499606599E+03 0.  0.
    9000005    1    3    3    0    0 -0.40575321374E+02  0.40072563443E+02  0.96955908545E+02  0.11248828938E+03  0.10000000000E+01 0.  0.
    9000005    1    3    3    0    0  0.40575321374E+02 -0.40072563443E+02  0.24630283765E+03  0.25282059821E+03  0.10000000000E+01 0.  0.
<mgrwt>
<rscale>  0 0.12499607E+03</rscale>
<asrwt>0</asrwt>
<pdfrwt beam="2">  1        4 0.16961649E-02 0.12499607E+03</pdfrwt>
<pdfrwt beam="1">  1       -4 0.54505196E-01 0.12499607E+03</pdfrwt>
<totfact> 0.68078512E+03</totfact>
</mgrwt>
</event>
<event>
 5    1  0.3294152E-002  0.1249975E+03  0.7818608E-02  0.1235073E+00
          4   -1    0    0  501    0  0.00000000000E+00  0.00000000000E+00  0.88275215892E+02  0.88284351053E+02  0.12700000000E+01 0.  1.
         -4   -1    0    0    0  501 -0.00000000000E+00 -0.00000000000E+00 -0.44228522782E+02  0.44246752734E+02  0.12700000000E+01 0.  1.
         25    2    1    2    0    0  0.00000000000E+00  0.00000000000E+00  0.44046693110E+02  0.13253110379E+03  0.12499752916E+03 0.  0.
    9000005    1    3    3    0    0  0.25066297710E+02 -0.53411268189E+02  0.19072779445E+00  0.59009484217E+02  0.10000000000E+01 0.  0.
    9000005    1    3    3    0    0 -0.25066297710E+02  0.53411268189E+02  0.43855965316E+02  0.73521619570E+02  0.10000000000E+01 0.  0.
<mgrwt>
<rscale>  0 0.12499753E+03</rscale>
<asrwt>0</asrwt>
<pdfrwt beam="1">  1        4 0.13582907E-01 0.12499753E+03</pdfrwt>
<pdfrwt beam="2">  1       -4 0.68064932E-02 0.12499753E+03</pdfrwt>
<totfact> 0.10290949E+04</totfact>
</mgrwt>
</event>
<event>
 5    1  0.3294152E-002  0.1250006E+03  0.7818608E-02  0.1235068E+00
         -4   -1    0    0    0  501 -0.00000000000E+00  0.00000000000E+00  0.18981631107E+03  0.18982055961E+03  0.12700000000E+01 0.  1.
          4   -1    0    0  501    0  0.00000000000E+00 -0.00000000000E+00 -0.20555215925E+02  0.20594411906E+02  0.12700000000E+01 0.  1.
         25    2    1    2    0    0  0.00000000000E+00  0.00000000000E+00  0.16926109515E+03  0.21041497151E+03  0.12500056762E+03 0.  0.
    9000005    1    3    3    0    0  0.10757264442E+02 -0.60723146307E+02  0.10165333981E+03  0.11890088616E+03  0.10000000000E+01 0.  0.
    9000005    1    3    3    0    0 -0.10757264442E+02  0.60723146307E+02  0.67607755342E+02  0.91514085353E+02  0.10000000000E+01 0.  0.
<mgrwt>
<rscale>  0 0.12500057E+03</rscale>
<asrwt>0</asrwt>
<pdfrwt beam="2">  1        4 0.31656830E-02 0.12500057E+03</pdfrwt>
<pdfrwt beam="1">  1       -4 0.29205850E-01 0.12500057E+03</pdfrwt>
<totfact> 0.88407034E+03</totfact>
</mgrwt>
</event>
<event>
 5    1  0.3294152E-002  0.1250044E+03  0.7818608E-02  0.1235062E+00
          4   -1    0    0  501    0  0.00000000000E+00  0.00000000000E+00  0.52868429725E+03  0.52868582263E+03  0.12700000000E+01 0.  1.
         -4   -1    0    0    0  501 -0.00000000000E+00 -0.00000000000E+00 -0.73330264213E+01  0.74421889586E+01  0.12700000000E+01 0.  1.
         25    2    1    2    0    0  0.00000000000E+00  0.00000000000E+00  0.52135127082E+03  0.53612801159E+03  0.12500438882E+03 0.  0.
    9000005    1    3    3    0    0 -0.56067192186E+02  0.86888891000E+01  0.14830244554E+03  0.15878804170E+03  0.10000000000E+01 0.  0.
    9000005    1    3    3    0    0  0.56067192186E+02 -0.86888891000E+01  0.37304882528E+03  0.37733996989E+03  0.10000000000E+01 0.  0.
<mgrwt>
<rscale>  0 0.12500439E+03</rscale>
<asrwt>0</asrwt>
<pdfrwt beam="1">  1        4 0.81344566E-01 0.12500439E+03</pdfrwt>
<pdfrwt beam="2">  1       -4 0.11366723E-02 0.12500439E+03</pdfrwt>
<totfact> 0.53161205E+03</totfact>
</mgrwt>
</event>
<event>
 5    1  0.3294152E-002  0.1250000E+03  0.7818608E-02  0.1235069E+00
          4   -1    0    0  501    0  0.00000000000E+00  0.00000000000E+00  0.42257414835E+03  0.42257605677E+03  0.12700000000E+01 0. -1.
         -4   -1    0    0    0  501 -0.00000000000E+00 -0.00000000000E+00 -0.91983861374E+01  0.92856452405E+01  0.12700000000E+01 0. -1.
         25    2    1    2    0    0  0.00000000000E+00  0.00000000000E+00  0.41337576221E+03  0.43186170201E+03  0.12500003551E+03 0.  0.
    9000005    1    3    3    0    0  0.49470477510E+02 -0.10055895475E+02  0.79427576127E+02  0.94117952742E+02  0.10000000000E+01 0.  0.
    9000005    1    3    3    0    0 -0.49470477510E+02  0.10055895475E+02  0.33394818609E+03  0.33774374927E+03  0.10000000000E+01 0.  0.
<mgrwt>
<rscale>  0 0.12500004E+03</rscale>
<asrwt>0</asrwt>
<pdfrwt beam="1">  1        4 0.65018259E-01 0.12500004E+03</pdfrwt>
<pdfrwt beam="2">  1       -4 0.14219955E-02 0.12500004E+03</pdfrwt>
<totfact> 0.61567556E+03</totfact>
</mgrwt>
</event>
<event>
 5    1  0.3294152E-002  0.1250009E+03  0.7818608E-02  0.1235068E+00
          4   -1    0    0  501    0  0.00000000000E+00  0.00000000000E+00  0.64274655049E+02  0.64287200761E+02  0.12700000000E+01 0.  1.
         -4   -1    0    0    0  501 -0.00000000000E+00 -0.00000000000E+00 -0.60750083046E+02  0.60763356475E+02  0.12700000000E+01 0.  1.
         25    2    1    2    0    0  0.00000000000E+00  0.00000000000E+00  0.35245720031E+01  0.12505055724E+03  0.12500087703E+03 0.  0.
    9000005    1    3    3    0    0 -0.20500429960E+02 -0.53268594587E+02  0.27218302921E+02  0.63242760943E+02  0.10000000000E+01 0.  0.
    9000005    1    3    3    0    0  0.20500429960E+02  0.53268594587E+02 -0.23693730918E+02  0.61807796293E+02  0.10000000000E+01 0.  0.
<mgrwt>
<rscale>  0 0.12500088E+03</rscale>
<asrwt>0</asrwt>
<pdfrwt beam="1">  1        4 0.98903945E-02 0.12500088E+03</pdfrwt>
<pdfrwt beam="2">  1       -4 0.93481527E-02 0.12500088E+03</pdfrwt>
<totfact> 0.10451557E+04</totfact>
</mgrwt>
</event>
<event>
 5    1  0.3294152E-002  0.1250004E+03  0.7818608E-02  0.1235069E+00
         -4   -1    0    0    0  501 -0.00000000000E+00  0.00000000000E+00  0.97541810711E+02  0.97550078097E+02  0.12700000000E+01 0. -1.
          4   -1    0    0  501    0  0.00000000000E+00 -0.00000000000E+00 -0.40027123913E+02  0.40047266433E+02  0.12700000000E+01 0. -1.
         25    2    1    2    0    0  0.00000000000E+00  0.00000000000E+00  0.57514686798E+02  0.13759734453E+03  0.12500036010E+03 0.  0.
    9000005    1    3    3    0    0 -0.53807658211E+02  0.31756654811E+02  0.27398744124E+02  0.68230787674E+02  0.10000000000E+01 0.  0.
    9000005    1    3    3    0    0  0.53807658211E+02 -0.31756654811E+02  0.30115942674E+02  0.69366556857E+02  0.10000000000E+01 0.  0.
<mgrwt>
<rscale>  0 0.12500036E+03</rscale>
<asrwt>0</asrwt>
<pdfrwt beam="2">  1        4 0.61602045E-02 0.12500036E+03</pdfrwt>
<pdfrwt beam="1">  1       -4 0.15008618E-01 0.12500036E+03</pdfrwt>
<totfact> 0.10183528E+04</totfact>
</mgrwt>
</event>
<event>
 5    1  0.3294152E-002  0.1249961E+03  0.7818608E-02  0.1235075E+00
         -4   -1    0    0    0  501 -0.00000000000E+00  0.00000000000E+00  0.14285082831E+03  0.14285647360E+03  0.12700000000E+01 0. -1.
          4   -1    0    0  501    0  0.00000000000E+00 -0.00000000000E+00 -0.27322321395E+02  0.27351821629E+02  0.12700000000E+01 0. -1.
         25    2    1    2    0    0  0.00000000000E+00  0.00000000000E+00  0.11552850692E+03  0.17020829523E+03  0.12499611136E+03 0.  0.
    9000005    1    3    3    0    0 -0.15297917448E+02  0.34133614125E+02  0.12592967125E+03  0.13137127537E+03  0.10000000000E+01 0.  0.
    9000005    1    3    3    0    0  0.15297917448E+02 -0.34133614125E+02 -0.10401164338E+02  0.38837019853E+02  0.10000000000E+01 0.  0.
<mgrwt>
<rscale>  0 0.12499611E+03</rscale>
<asrwt>0</asrwt>
<pdfrwt beam="2">  1        4 0.42061375E-02 0.12499611E+03</pdfrwt>
<pdfrwt beam="1">  1       -4 0.21979754E-01 0.12499611E+03</pdfrwt>
<totfact> 0.95418154E+03</totfact>
</mgrwt>
</event>
<event>
 5    1  0.3294152E-002  0.1250009E+03  0.7818608E-02  0.1235068E+00
          4   -1    0    0  501    0  0.00000000000E+00  0.00000000000E+00  0.12955869981E+03  0.12956492425E+03  0.12700000000E+01 0. -1.
         -4   -1    0    0    0  501 -0.00000000000E+00 -0.00000000000E+00 -0.30130548598E+02  0.30157301915E+02  0.12700000000E+01 0. -1.
         25    2    1    2    0    0  0.00000000000E+00  0.00000000000E+00  0.99428151213E+02  0.15972222617E+03  0.12500092911E+03 0.  0.
    9000005    1    3    3    0    0 -0.11896170535E+02  0.61344393697E+02  0.50747851136E+02  0.80504645247E+02  0.10000000000E+01 0.  0.
    9000005    1    3    3    0    0  0.11896170535E+02 -0.61344393697E+02  0.48680300078E+02  0.79217580922E+02  0.10000000000E+01 0.  0.
<mgrwt>
<rscale>  0 0.12500093E+03</rscale>
<asrwt>0</asrwt>
<pdfrwt beam="1">  1        4 0.19934645E-01 0.12500093E+03</pdfrwt>
<pdfrwt beam="2">  1       -4 0.46380057E-02 0.12500093E+03</pdfrwt>
<totfact> 0.97394330E+03</totfact>
</mgrwt>
</event>
<event>
 5    1  0.3294152E-002  0.1250032E+03  0.7818608E-02  0.1235064E+00
          4   -1    0    0  501    0  0.00000000000E+00  0.00000000000E+00  0.46503025213E+01  0.48206030266E+01  0.12700000000E+01 0.  1.
         -4   -1    0    0    0  501 -0.00000000000E+00 -0.00000000000E+00 -0.82476664403E+03  0.82476762183E+03  0.12700000000E+01 0.  1.
         25    2    1    2    0    0  0.00000000000E+00  0.00000000000E+00 -0.82011634151E+03  0.82958822485E+03  0.12500323674E+03 0.  0.
    9000005    1    3    3    0    0 -0.28841831139E+01  0.31756404646E+02 -0.76674730240E+03  0.76741072021E+03  0.10000000000E+01 0.  0.
    9000005    1    3    3    0    0  0.28841831139E+01 -0.31756404646E+02 -0.53369039113E+02  0.62177504647E+02  0.10000000000E+01 0.  0.
<mgrwt>
<rscale>  0 0.12500324E+03</rscale>
<asrwt>0</asrwt>
<pdfrwt beam="1">  1        4 0.72860706E-03 0.12500324E+03</pdfrwt>
<pdfrwt beam="2">  1       -4 0.12690024E+00 0.12500324E+03</pdfrwt>
<totfact> 0.36974868E+03</totfact>
</mgrwt>
</event>
<event>
 5    1  0.3294152E-002  0.1250004E+03  0.7818608E-02  0.1235069E+00
         -4   -1    0    0    0  501 -0.00000000000E+00  0.00000000000E+00  0.63009126725E+02  0.63021924365E+02  0.12700000000E+01 0.  1.
          4   -1    0    0  501    0  0.00000000000E+00 -0.00000000000E+00 -0.61969744361E+02  0.61982756603E+02  0.12700000000E+01 0.  1.
         25    2    1    2    0    0  0.00000000000E+00  0.00000000000E+00  0.10393823649E+01  0.12500468097E+03  0.12500035979E+03 0.  0.
    9000005    1    3    3    0    0  0.98891866040E+00  0.26658994012E+02 -0.55994142254E+02  0.62032442226E+02  0.10000000000E+01 0.  0.
    9000005    1    3    3    0    0 -0.98891866040E+00 -0.26658994012E+02  0.57033524618E+02  0.62972238742E+02  0.10000000000E+01 0.  0.
<mgrwt>
<rscale>  0 0.12500036E+03</rscale>
<asrwt>0</asrwt>
<pdfrwt beam="2">  1        4 0.95357922E-02 0.12500036E+03</pdfrwt>
<pdfrwt beam="1">  1       -4 0.96956972E-02 0.12500036E+03</pdfrwt>
<totfact> 0.10452676E+04</totfact>
</mgrwt>
</event>
<event>
 5    1  0.3294152E-002  0.1250134E+03  0.7818608E-02  0.1235048E+00
          4   -1    0    0  501    0  0.00000000000E+00  0.00000000000E+00  0.96220289624E+01  0.97054799651E+01  0.12700000000E+01 0. -1.
         -4   -1    0    0    0  501 -0.00000000000E+00 -0.00000000000E+00 -0.40421866473E+03  0.40422065981E+03  0.12700000000E+01 0. -1.
         25    2    1    2    0    0  0.00000000000E+00  0.00000000000E+00 -0.39459663577E+03  0.41392613978E+03  0.12501337620E+03 0.  0.
    9000005    1    3    3    0    0  0.10859474181E+01 -0.62446264541E+02 -0.20497169742E+03  0.21427811830E+03  0.10000000000E+01 0.  0.
    9000005    1    3    3    0    0 -0.10859474181E+01  0.62446264541E+02 -0.18962493835E+03  0.19964802148E+03  0.10000000000E+01 0.  0.
<mgrwt>
<rscale>  0 0.12501338E+03</rscale>
<asrwt>0</asrwt>
<pdfrwt beam="1">  1        4 0.14868852E-02 0.12501338E+03</pdfrwt>
<pdfrwt beam="2">  1       -4 0.62194047E-01 0.12501338E+03</pdfrwt>
<totfact> 0.63201868E+03</totfact>
</mgrwt>
</event>
<event>
 5    1  0.3294152E-002  0.1249961E+03  0.7818608E-02  0.1235075E+00
          4   -1    0    0  501    0  0.00000000000E+00  0.00000000000E+00  0.28698879634E+02  0.28726966290E+02  0.12700000000E+01 0.  1.
         -4   -1    0    0    0  501 -0.00000000000E+00 -0.00000000000E+00 -0.13600551574E+03  0.13601144515E+03  0.12700000000E+01 0.  1.
         25    2    1    2    0    0  0.00000000000E+00  0.00000000000E+00 -0.10730663611E+03  0.16473841144E+03  0.12499612014E+03 0.  0.
    9000005    1    3    3    0    0 -0.24225052334E+02 -0.25911107294E+01  0.22188165343E+02  0.32967888872E+02  0.10000000000E+01 0.  0.
    9000005    1    3    3    0    0  0.24225052334E+02  0.25911107294E+01 -0.12949480145E+03  0.13177052257E+03  0.10000000000E+01 0.  0.
<mgrwt>
<rscale>  0 0.12499612E+03</rscale>
<asrwt>0</asrwt>
<pdfrwt beam="1">  1        4 0.44178290E-02 0.12499612E+03</pdfrwt>
<pdfrwt beam="2">  1       -4 0.20926542E-01 0.12499612E+03</pdfrwt>
<totfact> 0.96445362E+03</totfact>
</mgrwt>
</event>
<event>
 5    1  0.3294152E-002  0.1249996E+03  0.7818608E-02  0.1235070E+00
          4   -1    0    0  501    0  0.00000000000E+00  0.00000000000E+00  0.17781673340E+02  0.17826968524E+02  0.12700000000E+01 0.  1.
         -4   -1    0    0    0  501 -0.00000000000E+00 -0.00000000000E+00 -0.21935056663E+03  0.21935424314E+03  0.12700000000E+01 0.  1.
         25    2    1    2    0    0  0.00000000000E+00  0.00000000000E+00 -0.20156889329E+03  0.23718121166E+03  0.12499963368E+03 0.  0.
    9000005    1    3    3    0    0 -0.35832863710E+02 -0.31836539298E+02 -0.17686430457E+03  0.18324721440E+03  0.10000000000E+01 0.  0.
    9000005    1    3    3    0    0  0.35832863710E+02  0.31836539298E+02 -0.24704588725E+02  0.53933997257E+02  0.10000000000E+01 0.  0.
<mgrwt>
<rscale>  0 0.12499963E+03</rscale>
<asrwt>0</asrwt>
<pdfrwt beam="1">  1        4 0.27394093E-02 0.12499963E+03</pdfrwt>
<pdfrwt beam="2">  1       -4 0.33750006E-01 0.12499963E+03</pdfrwt>
<totfact> 0.84219664E+03</totfact>
</mgrwt>
</event>
<event>
 5    1  0.3294152E-002  0.1250024E+03  0.7818608E-02  0.1235066E+00
         -4   -1    0    0    0  501 -0.00000000000E+00  0.00000000000E+00  0.11136770585E+03  0.11137494694E+03  0.12700000000E+01 0. -1.
          4   -1    0    0  501    0  0.00000000000E+00 -0.00000000000E+00 -0.35056721315E+02  0.35079717920E+02  0.12700000000E+01 0. -1.
         25    2    1    2    0    0  0.00000000000E+00  0.00000000000E+00  0.76310984535E+02  0.14645466486E+03  0.12500240997E+03 0.  0.
    9000005    1    3    3    0    0 -0.17533108540E+02 -0.20079021226E+02 -0.28067418786E+02  0.38721531295E+02  0.10000000000E+01 0.  0.
    9000005    1    3    3    0    0  0.17533108540E+02  0.20079021226E+02  0.10437840332E+03  0.10773313357E+03  0.10000000000E+01 0.  0.
<mgrwt>
<rscale>  0 0.12500241E+03</rscale>
<asrwt>0</asrwt>
<pdfrwt beam="2">  1        4 0.53956677E-02 0.12500241E+03</pdfrwt>
<pdfrwt beam="1">  1       -4 0.17135819E-01 0.12500241E+03</pdfrwt>
<totfact> 0.10000974E+04</totfact>
</mgrwt>
</event>
<event>
 5    1  0.3294152E-002  0.1249996E+03  0.7818608E-02  0.1235070E+00
          4   -1    0    0  501    0  0.00000000000E+00  0.00000000000E+00  0.92844426993E+03  0.92844513854E+03  0.12700000000E+01 0.  1.
         -4   -1    0    0    0  501 -0.00000000000E+00 -0.00000000000E+00 -0.41105497213E+01  0.43022690538E+01  0.12700000000E+01 0.  1.
         25    2    1    2    0    0  0.00000000000E+00  0.00000000000E+00  0.92433372021E+03  0.93274740759E+03  0.12499960018E+03 0.  0.
    9000005    1    3    3    0    0 -0.46473423031E+02  0.20818950778E+00  0.77391454614E+03  0.77530932351E+03  0.10000000000E+01 0.  0.
    9000005    1    3    3    0    0  0.46473423031E+02 -0.20818950778E+00  0.15041917407E+03  0.15743808408E+03  0.10000000000E+01 0.  0.
<mgrwt>
<rscale>  0 0.12499960E+03</rscale>
<asrwt>0</asrwt>
<pdfrwt beam="1">  1        4 0.14285252E+00 0.12499960E+03</pdfrwt>
<pdfrwt beam="2">  1       -4 0.64720614E-03 0.12499960E+03</pdfrwt>
<totfact> 0.32936792E+03</totfact>
</mgrwt>
</event>
<event>
 5    1  0.3294152E-002  0.1249939E+03  0.7818608E-02  0.1235079E+00
         -4   -1    0    0    0  501 -0.00000000000E+00  0.00000000000E+00  0.11631012281E+03  0.11631705622E+03  0.12700000000E+01 0. -1.
          4   -1    0    0  501    0  0.00000000000E+00 -0.00000000000E+00 -0.33561545299E+02  0.33585565693E+02  0.12700000000E+01 0. -1.
         25    2    1    2    0    0  0.00000000000E+00  0.00000000000E+00  0.82748577511E+02  0.14990262191E+03  0.12499387576E+03 0.  0.
    9000005    1    3    3    0    0 -0.17844661774E+02 -0.59460690226E+02  0.49927230983E+02  0.79672668021E+02  0.10000000000E+01 0.  0.
    9000005    1    3    3    0    0  0.17844661774E+02  0.59460690226E+02  0.32821346528E+02  0.70229953894E+02  0.10000000000E+01 0.  0.
<mgrwt>
<rscale>  0 0.12499388E+03</rscale>
<asrwt>0</asrwt>
<pdfrwt beam="2">  1        4 0.51656957E-02 0.12499388E+03</pdfrwt>
<pdfrwt beam="1">  1       -4 0.17896246E-01 0.12499388E+03</pdfrwt>
<totfact> 0.99336803E+03</totfact>
</mgrwt>
</event>
<event>
 5    1  0.3294152E-002  0.1250115E+03  0.7818608E-02  0.1235051E+00
         -4   -1    0    0    0  501 -0.00000000000E+00  0.00000000000E+00  0.33340905354E+02  0.33365084592E+02  0.12700000000E+01 0.  1.
          4   -1    0    0  501    0  0.00000000000E+00 -0.00000000000E+00 -0.11711229033E+03  0.11711917625E+03  0.12700000000E+01 0.  1.
         25    2    1    2    0    0  0.00000000000E+00  0.00000000000E+00 -0.83771384973E+02  0.15048426084E+03  0.12501147076E+03 0.  0.
    9000005    1    3    3    0    0 -0.18647780527E+02  0.57943297633E+02 -0.58943558033E+02  0.84737881097E+02  0.10000000000E+01 0.  0.
    9000005    1    3    3    0    0  0.18647780527E+02 -0.57943297633E+02 -0.24827826940E+02  0.65746379746E+02  0.10000000000E+01 0.  0.
<mgrwt>
<rscale>  0 0.12501147E+03</rscale>
<asrwt>0</asrwt>
<pdfrwt beam="2">  1        4 0.18019665E-01 0.12501147E+03</pdfrwt>
<pdfrwt beam="1">  1       -4 0.51317597E-02 0.12501147E+03</pdfrwt>
<totfact> 0.99181650E+03</totfact>
</mgrwt>
</event>
<event>
 5    1  0.3294152E-002  0.1249722E+03  0.7818608E-02  0.1235113E+00
          4   -1    0    0  501    0  0.00000000000E+00  0.00000000000E+00  0.23644749197E+02  0.23678831571E+02  0.12700000000E+01 0.  1.
         -4   -1    0    0    0  501 -0.00000000000E+00 -0.00000000000E+00 -0.16497687178E+03  0.16498175997E+03  0.12700000000E+01 0.  1.
         25    2    1    2    0    0  0.00000000000E+00  0.00000000000E+00 -0.14133212258E+03  0.18866059154E+03  0.12497219661E+03 0.  0.
    9000005    1    3    3    0    0  0.28759258214E+02  0.20061001910E+02 -0.14872926276E+03  0.15281011855E+03  0.10000000000E+01 0.  0.
    9000005    1    3    3    0    0 -0.28759258214E+02 -0.20061001910E+02  0.73971401772E+01  0.35850472988E+02  0.10000000000E+01 0.  0.
<mgrwt>
<rscale>  0 0.12497220E+03</rscale>
<asrwt>0</asrwt>
<pdfrwt beam="1">  1        4 0.36406516E-02 0.12497220E+03</pdfrwt>
<pdfrwt beam="2">  1       -4 0.25384054E-01 0.12497220E+03</pdfrwt>
<totfact> 0.92138269E+03</totfact>
</mgrwt>
</event>
<event>
 5    1  0.3294152E-002  0.1249941E+03  0.7818608E-02  0.1235078E+00
         -4   -1    0    0    0  501 -0.00000000000E+00  0.00000000000E+00  0.18042165242E+02  0.18086808082E+02  0.12700000000E+01 0. -1.
          4   -1    0    0  501    0  0.00000000000E+00 -0.00000000000E+00 -0.21617233967E+03  0.21617607023E+03  0.12700000000E+01 0. -1.
         25    2    1    2    0    0  0.00000000000E+00  0.00000000000E+00 -0.19813017443E+03  0.23426287831E+03  0.12499412040E+03 0.  0.
    9000005    1    3    3    0    0  0.42302428437E+02  0.20299029818E+02 -0.17641576311E+03  0.18255154761E+03  0.10000000000E+01 0.  0.
    9000005    1    3    3    0    0 -0.42302428437E+02 -0.20299029818E+02 -0.21714411321E+02  0.51711330695E+02  0.10000000000E+01 0.  0.
<mgrwt>
<rscale>  0 0.12499412E+03</rscale>
<asrwt>0</asrwt>
<pdfrwt beam="2">  1        4 0.33261002E-01 0.12499412E+03</pdfrwt>
<pdfrwt beam="1">  1       -4 0.27794389E-02 0.12499412E+03</pdfrwt>
<totfact> 0.84670401E+03</totfact>
</mgrwt>
</event>
<event>
 5    1  0.3294152E-002  0.1250015E+03  0.7818608E-02  0.1235067E+00
         -4   -1    0    0    0  501 -0.00000000000E+00  0.00000000000E+00  0.35563567794E+01  0.37763174579E+01  0.12700000000E+01 0.  1.
          4   -1    0    0  501    0  0.00000000000E+00 -0.00000000000E+00 -0.10652412470E+04  0.10652420041E+04  0.12700000000E+01 0.  1.
         25    2    1    2    0    0  0.00000000000E+00  0.00000000000E+00 -0.10616848903E+04  0.10690183216E+04  0.12500146245E+03 0.  0.
    9000005    1    3    3    0    0 -0.14449187306E+02  0.16089718958E+01 -0.11065576904E+02  0.18297945146E+02  0.10000000000E+01 0.  0.
    9000005    1    3    3    0    0  0.14449187306E+02 -0.16089718958E+01 -0.10506193134E+04  0.10507203764E+04  0.10000000000E+01 0.  0.
<mgrwt>
<rscale>  0 0.12500146E+03</rscale>
<asrwt>0</asrwt>
<pdfrwt beam="2">  1        4 0.16390000E+00 0.12500146E+03</pdfrwt>
<pdfrwt beam="1">  1       -4 0.56411095E-03 0.12500146E+03</pdfrwt>
<totfact> 0.28407440E+03</totfact>
</mgrwt>
</event>
<event>
 5    1  0.3294152E-002  0.1249976E+03  0.7818608E-02  0.1235073E+00
          4   -1    0    0  501    0  0.00000000000E+00  0.00000000000E+00  0.18093320754E+03  0.18093766465E+03  0.12700000000E+01 0. -1.
         -4   -1    0    0    0  501 -0.00000000000E+00 -0.00000000000E+00 -0.21565217919E+02  0.21602581418E+02  0.12700000000E+01 0. -1.
         25    2    1    2    0    0  0.00000000000E+00  0.00000000000E+00  0.15936798962E+03  0.20254024607E+03  0.12499758063E+03 0.  0.
    9000005    1    3    3    0    0  0.15818823815E+02 -0.84428269185E+01  0.17668325371E+03  0.17759360533E+03  0.10000000000E+01 0.  0.
    9000005    1    3    3    0    0 -0.15818823815E+02  0.84428269185E+01 -0.17315264095E+02  0.24946640734E+02  0.10000000000E+01 0.  0.
<mgrwt>
<rscale>  0 0.12499758E+03</rscale>
<asrwt>0</asrwt>
<pdfrwt beam="1">  1        4 0.27839096E-01 0.12499758E+03</pdfrwt>
<pdfrwt beam="2">  1       -4 0.33209427E-02 0.12499758E+03</pdfrwt>
<totfact> 0.89713690E+03</totfact>
</mgrwt>
</event>
<event>
 5    1  0.3294152E-002  0.1249982E+03  0.7818608E-02  0.1235072E+00
          4   -1    0    0  501    0  0.00000000000E+00  0.00000000000E+00  0.13020155060E+03  0.13020774431E+03  0.12700000000E+01 0.  1.
         -4   -1    0    0    0  501 -0.00000000000E+00 -0.00000000000E+00 -0.29980337414E+02  0.30007224655E+02  0.12700000000E+01 0.  1.
         25    2    1    2    0    0  0.00000000000E+00  0.00000000000E+00  0.10022121319E+03  0.16021496897E+03  0.12499817882E+03 0.  0.
    9000005    1    3    3    0    0 -0.60190361374E+02  0.16772528585E+02  0.51352544105E+02  0.80884368722E+02  0.10000000000E+01 0.  0.
    9000005    1    3    3    0    0  0.60190361374E+02 -0.16772528585E+02  0.48868669082E+02  0.79330600246E+02  0.10000000000E+01 0.  0.
<mgrwt>
<rscale>  0 0.12499818E+03</rscale>
<asrwt>0</asrwt>
<pdfrwt beam="1">  1        4 0.20033552E-01 0.12499818E+03</pdfrwt>
<pdfrwt beam="2">  1       -4 0.46149044E-02 0.12499818E+03</pdfrwt>
<totfact> 0.97305340E+03</totfact>
</mgrwt>
</event>
<event>
 5    1  0.3294152E-002  0.1249954E+03  0.7818608E-02  0.1235076E+00
         -4   -1    0    0    0  501 -0.00000000000E+00  0.00000000000E+00  0.92810591272E+03  0.92810678164E+03  0.12700000000E+01 0. -1.
          4   -1    0    0  501    0  0.00000000000E+00 -0.00000000000E+00 -0.41118311790E+01  0.43034934233E+01  0.12700000000E+01 0. -1.
         25    2    1    2    0    0  0.00000000000E+00  0.00000000000E+00  0.92399408154E+03  0.93241027506E+03  0.12499543320E+03 0.  0.
    9000005    1    3    3    0    0  0.37951206243E+02  0.22699952000E+02  0.79134991584E+03  0.79258518229E+03  0.10000000000E+01 0.  0.
    9000005    1    3    3    0    0 -0.37951206243E+02 -0.22699952000E+02  0.13264416570E+03  0.13982509277E+03  0.10000000000E+01 0.  0.
<mgrwt>
<rscale>  0 0.12499543E+03</rscale>
<asrwt>0</asrwt>
<pdfrwt beam="2">  1        4 0.64739962E-03 0.12499543E+03</pdfrwt>
<pdfrwt beam="1">  1       -4 0.14280031E+00 0.12499543E+03</pdfrwt>
<totfact> 0.32952113E+03</totfact>
</mgrwt>
</event>
<event>
 5    1  0.3294152E-002  0.1249994E+03  0.7818608E-02  0.1235070E+00
          4   -1    0    0  501    0  0.00000000000E+00  0.00000000000E+00  0.11625786587E+02  0.11694948216E+02  0.12700000000E+01 0. -1.
         -4   -1    0    0    0  501 -0.00000000000E+00 -0.00000000000E+00 -0.33492887045E+03  0.33493127827E+03  0.12700000000E+01 0. -1.
         25    2    1    2    0    0  0.00000000000E+00  0.00000000000E+00 -0.32330308387E+03  0.34662622648E+03  0.12499942740E+03 0.  0.
    9000005    1    3    3    0    0  0.32471225597E+02 -0.20189934370E+02 -0.24584534930E+02  0.45468816780E+02  0.10000000000E+01 0.  0.
    9000005    1    3    3    0    0 -0.32471225597E+02  0.20189934370E+02 -0.29871854894E+03  0.30115740970E+03  0.10000000000E+01 0.  0.
<mgrwt>
<rscale>  0 0.12499943E+03</rscale>
<asrwt>0</asrwt>
<pdfrwt beam="1">  1        4 0.17940882E-02 0.12499943E+03</pdfrwt>
<pdfrwt beam="2">  1       -4 0.51533016E-01 0.12499943E+03</pdfrwt>
<totfact> 0.70098205E+03</totfact>
</mgrwt>
</event>
<event>
 5    1  0.3294152E-002  0.1249978E+03  0.7818608E-02  0.1235073E+00
         -4   -1    0    0    0  501 -0.00000000000E+00  0.00000000000E+00  0.51794147667E+02  0.51809715619E+02  0.12700000000E+01 0.  1.
          4   -1    0    0  501    0  0.00000000000E+00 -0.00000000000E+00 -0.75383865401E+02  0.75394562554E+02  0.12700000000E+01 0.  1.
         25    2    1    2    0    0  0.00000000000E+00  0.00000000000E+00 -0.23589717734E+02  0.12720427817E+03  0.12499781439E+03 0.  0.
    9000005    1    3    3    0    0  0.46665648042E+02 -0.32436282186E+02 -0.38240466801E+02  0.68506411454E+02  0.10000000000E+01 0.  0.
    9000005    1    3    3    0    0 -0.46665648042E+02  0.32436282186E+02  0.14650749067E+02  0.58697866719E+02  0.10000000000E+01 0.  0.
<mgrwt>
<rscale>  0 0.12499781E+03</rscale>
<asrwt>0</asrwt>
<pdfrwt beam="2">  1        4 0.11599538E-01 0.12499781E+03</pdfrwt>
<pdfrwt beam="1">  1       -4 0.79703508E-02 0.12499781E+03</pdfrwt>
<totfact> 0.10405224E+04</totfact>
</mgrwt>
</event>
<event>
 5    1  0.3294152E-002  0.1250035E+03  0.7818608E-02  0.1235064E+00
         -4   -1    0    0    0  501 -0.00000000000E+00  0.00000000000E+00  0.10039224225E+03  0.10040027492E+03  0.12700000000E+01 0.  1.
          4   -1    0    0  501    0  0.00000000000E+00 -0.00000000000E+00 -0.38892120814E+02  0.38912850851E+02  0.12700000000E+01 0.  1.
         25    2    1    2    0    0  0.00000000000E+00  0.00000000000E+00  0.61500121438E+02  0.13931312577E+03  0.12500352825E+03 0.  0.
    9000005    1    3    3    0    0 -0.45820461735E+02 -0.41803024291E+02  0.39271445681E+02  0.73418349201E+02  0.10000000000E+01 0.  0.
    9000005    1    3    3    0    0  0.45820461735E+02  0.41803024291E+02  0.22228675757E+02  0.65894776572E+02  0.10000000000E+01 0.  0.
<mgrwt>
<rscale>  0 0.12500353E+03</rscale>
<asrwt>0</asrwt>
<pdfrwt beam="2">  1        4 0.59856159E-02 0.12500353E+03</pdfrwt>
<pdfrwt beam="1">  1       -4 0.15447172E-01 0.12500353E+03</pdfrwt>
<totfact> 0.10147035E+04</totfact>
</mgrwt>
</event>
<event>
 5    1  0.3294152E-002  0.1249976E+03  0.7818608E-02  0.1235073E+00
         -4   -1    0    0    0  501 -0.00000000000E+00  0.00000000000E+00  0.18410041940E+03  0.18410479984E+03  0.12700000000E+01 0.  1.
          4   -1    0    0  501    0  0.00000000000E+00 -0.00000000000E+00 -0.21193587100E+02  0.21231604607E+02  0.12700000000E+01 0.  1.
         25    2    1    2    0    0  0.00000000000E+00  0.00000000000E+00  0.16290683230E+03  0.20533640445E+03  0.12499761190E+03 0.  0.
    9000005    1    3    3    0    0 -0.46084517178E+02  0.41002556649E+02  0.97889541012E+02  0.11570805769E+03  0.10000000000E+01 0.  0.
    9000005    1    3    3    0    0  0.46084517178E+02 -0.41002556649E+02  0.65017291289E+02  0.89628346754E+02  0.10000000000E+01 0.  0.
<mgrwt>
<rscale>  0 0.12499761E+03</rscale>
<asrwt>0</asrwt>
<pdfrwt beam="2">  1        4 0.32638133E-02 0.12499761E+03</pdfrwt>
<pdfrwt beam="1">  1       -4 0.28326402E-01 0.12499761E+03</pdfrwt>
<totfact> 0.89247983E+03</totfact>
</mgrwt>
</event>
<event>
 5    1  0.3294152E-002  0.1250059E+03  0.7818608E-02  0.1235060E+00
          4   -1    0    0  501    0  0.00000000000E+00  0.00000000000E+00  0.23405622617E+02  0.23440052689E+02  0.12700000000E+01 0. -1.
         -4   -1    0    0    0  501 -0.00000000000E+00 -0.00000000000E+00 -0.16674977755E+03  0.16675461377E+03  0.12700000000E+01 0. -1.
         25    2    1    2    0    0  0.00000000000E+00  0.00000000000E+00 -0.14334415494E+03  0.19019466646E+03  0.12500585745E+03 0.  0.
    9000005    1    3    3    0    0 -0.57833067422E+02 -0.22694801842E+02 -0.81979893372E+02  0.10286603247E+03  0.10000000000E+01 0.  0.
    9000005    1    3    3    0    0  0.57833067422E+02  0.22694801842E+02 -0.61364261566E+02  0.87328633996E+02  0.10000000000E+01 0.  0.
<mgrwt>
<rscale>  0 0.12500586E+03</rscale>
<asrwt>0</asrwt>
<pdfrwt beam="1">  1        4 0.36038856E-02 0.12500586E+03</pdfrwt>
<pdfrwt beam="2">  1       -4 0.25656832E-01 0.12500586E+03</pdfrwt>
<totfact> 0.91801409E+03</totfact>
</mgrwt>
</event>
<event>
 5    1  0.3294152E-002  0.1249997E+03  0.7818608E-02  0.1235070E+00
          4   -1    0    0  501    0  0.00000000000E+00  0.00000000000E+00  0.31281703828E+01  0.33761442422E+01  0.12700000000E+01 0. -1.
         -4   -1    0    0    0  501 -0.00000000000E+00 -0.00000000000E+00 -0.12008719503E+04  0.12008726219E+04  0.12700000000E+01 0. -1.
         25    2    1    2    0    0  0.00000000000E+00  0.00000000000E+00 -0.11977437799E+04  0.12042487661E+04  0.12499971325E+03 0.  0.
    9000005    1    3    3    0    0  0.25232530424E+02 -0.56411546334E+02 -0.68836399575E+03  0.69113307965E+03  0.10000000000E+01 0.  0.
    9000005    1    3    3    0    0 -0.25232530424E+02  0.56411546334E+02 -0.50937978419E+03  0.51311568647E+03  0.10000000000E+01 0.  0.
<mgrwt>
<rscale>  0 0.12499971E+03</rscale>
<asrwt>0</asrwt>
<pdfrwt beam="1">  1        4 0.50038451E-03 0.12499971E+03</pdfrwt>
<pdfrwt beam="2">  1       -4 0.18476830E+00 0.12499971E+03</pdfrwt>
<totfact> 0.24602021E+03</totfact>
</mgrwt>
</event>
<event>
 5    1  0.3294152E-002  0.1249960E+03  0.7818608E-02  0.1235076E+00
         -4   -1    0    0    0  501 -0.00000000000E+00  0.00000000000E+00  0.10758548092E+02  0.10833247761E+02  0.12700000000E+01 0. -1.
          4   -1    0    0  501    0  0.00000000000E+00 -0.00000000000E+00 -0.36172826216E+03  0.36173049159E+03  0.12700000000E+01 0. -1.
         25    2    1    2    0    0  0.00000000000E+00  0.00000000000E+00 -0.35096971407E+03  0.37256373935E+03  0.12499599868E+03 0.  0.
    9000005    1    3    3    0    0  0.45237056265E+02  0.34508901784E+02 -0.98463780019E+02  0.11372498203E+03  0.10000000000E+01 0.  0.
    9000005    1    3    3    0    0 -0.45237056265E+02 -0.34508901784E+02 -0.25250593405E+03  0.25883875732E+03  0.10000000000E+01 0.  0.
<mgrwt>
<rscale>  0 0.12499600E+03</rscale>
<asrwt>0</asrwt>
<pdfrwt beam="2">  1        4 0.55656410E-01 0.12499600E+03</pdfrwt>
<pdfrwt beam="1">  1       -4 0.16610791E-02 0.12499600E+03</pdfrwt>
<totfact> 0.67317530E+03</totfact>
</mgrwt>
</event>
<event>
 5    1  0.3294152E-002  0.1249822E+03  0.7818608E-02  0.1235097E+00
          4   -1    0    0  501    0  0.00000000000E+00  0.00000000000E+00  0.25906864444E+02  0.25937974580E+02  0.12700000000E+01 0. -1.
         -4   -1    0    0    0  501 -0.00000000000E+00 -0.00000000000E+00 -0.15061336940E+03  0.15061872374E+03  0.12700000000E+01 0. -1.
         25    2    1    2    0    0  0.00000000000E+00  0.00000000000E+00 -0.12470650495E+03  0.17655669832E+03  0.12498222011E+03 0.  0.
    9000005    1    3    3    0    0 -0.86321095944E+00 -0.30429571920E+02  0.14729479376E+02  0.33832847103E+02  0.10000000000E+01 0.  0.
    9000005    1    3    3    0    0  0.86321095944E+00  0.30429571920E+02 -0.13943598433E+03  0.14272385122E+03  0.10000000000E+01 0.  0.
<mgrwt>
<rscale>  0 0.12498222E+03</rscale>
<asrwt>0</asrwt>
<pdfrwt beam="1">  1        4 0.39884765E-02 0.12498222E+03</pdfrwt>
<pdfrwt beam="2">  1       -4 0.23174092E-01 0.12498222E+03</pdfrwt>
<totfact> 0.94278099E+03</totfact>
</mgrwt>
</event>
<event>
 5    1  0.3294152E-002  0.1250007E+03  0.7818608E-02  0.1235068E+00
         -4   -1    0    0    0  501 -0.00000000000E+00  0.00000000000E+00  0.58753964449E+03  0.58754101708E+03  0.12700000000E+01 0. -1.
          4   -1    0    0  501    0  0.00000000000E+00 -0.00000000000E+00 -0.65865185437E+01  0.67078406754E+01  0.12700000000E+01 0. -1.
         25    2    1    2    0    0  0.00000000000E+00  0.00000000000E+00  0.58095312595E+03  0.59424885775E+03  0.12500068157E+03 0.  0.
    9000005    1    3    3    0    0 -0.89935211144E+01  0.61248793351E+02  0.33109292409E+03  0.33683203899E+03  0.10000000000E+01 0.  0.
    9000005    1    3    3    0    0  0.89935211144E+01 -0.61248793351E+02  0.24986020186E+03  0.25741681877E+03  0.10000000000E+01 0.  0.
<mgrwt>
<rscale>  0 0.12500068E+03</rscale>
<asrwt>0</asrwt>
<pdfrwt beam="2">  1        4 0.10227488E-02 0.12500068E+03</pdfrwt>
<pdfrwt beam="1">  1       -4 0.90400139E-01 0.12500068E+03</pdfrwt>
<totfact> 0.49231932E+03</totfact>
</mgrwt>
</event>
<event>
 5    1  0.3294152E-002  0.1250012E+03  0.7818608E-02  0.1235067E+00
          4   -1    0    0  501    0  0.00000000000E+00  0.00000000000E+00  0.57204045623E+02  0.57218141665E+02  0.12700000000E+01 0. -1.
         -4   -1    0    0    0  501 -0.00000000000E+00 -0.00000000000E+00 -0.68259189638E+02  0.68271003143E+02  0.12700000000E+01 0. -1.
         25    2    1    2    0    0  0.00000000000E+00  0.00000000000E+00 -0.11055144016E+02  0.12548914481E+03  0.12500123702E+03 0.  0.
    9000005    1    3    3    0    0 -0.17186627145E+02 -0.30250585507E+02  0.46586989231E+02  0.58153466291E+02  0.10000000000E+01 0.  0.
    9000005    1    3    3    0    0  0.17186627145E+02  0.30250585507E+02 -0.57642133246E+02  0.67335678516E+02  0.10000000000E+01 0.  0.
<mgrwt>
<rscale>  0 0.12500124E+03</rscale>
<asrwt>0</asrwt>
<pdfrwt beam="1">  1        4 0.88026154E-02 0.12500124E+03</pdfrwt>
<pdfrwt beam="2">  1       -4 0.10503407E-01 0.12500124E+03</pdfrwt>
<totfact> 0.10441903E+04</totfact>
</mgrwt>
</event>
<event>
 5    1  0.3294152E-002  0.1250002E+03  0.7818608E-02  0.1235069E+00
          4   -1    0    0  501    0  0.00000000000E+00  0.00000000000E+00  0.95606695332E+02  0.95615130039E+02  0.12700000000E+01 0. -1.
         -4   -1    0    0    0  501 -0.00000000000E+00 -0.00000000000E+00 -0.40837498811E+02  0.40857241820E+02  0.12700000000E+01 0. -1.
         25    2    1    2    0    0  0.00000000000E+00  0.00000000000E+00  0.54769196521E+02  0.13647237186E+03  0.12500017357E+03 0.  0.
    9000005    1    3    3    0    0 -0.26914888604E+02 -0.41408317470E+02  0.69189851546E+02  0.85013502112E+02  0.10000000000E+01 0.  0.
    9000005    1    3    3    0    0  0.26914888604E+02  0.41408317470E+02 -0.14420655025E+02  0.51458869747E+02  0.10000000000E+01 0.  0.
<mgrwt>
<rscale>  0 0.12500017E+03</rscale>
<asrwt>0</asrwt>
<pdfrwt beam="1">  1        4 0.14710890E-01 0.12500017E+03</pdfrwt>
<pdfrwt beam="2">  1       -4 0.62848597E-02 0.12500017E+03</pdfrwt>
<totfact> 0.10207089E+04</totfact>
</mgrwt>
</event>
<event>
 5    1  0.3294152E-002  0.1249964E+03  0.7818608E-02  0.1235075E+00
          4   -1    0    0  501    0  0.00000000000E+00  0.00000000000E+00  0.69578922756E+02  0.69590512226E+02  0.12700000000E+01 0.  1.
         -4   -1    0    0    0  501 -0.00000000000E+00 -0.00000000000E+00 -0.56114574219E+02  0.56128943868E+02  0.12700000000E+01 0.  1.
         25    2    1    2    0    0  0.00000000000E+00  0.00000000000E+00  0.13464348537E+02  0.12571945609E+03  0.12499637178E+03 0.  0.
    9000005    1    3    3    0    0 -0.30009375950E+02  0.19184881373E+02 -0.44910748526E+02  0.57328855312E+02  0.10000000000E+01 0.  0.
    9000005    1    3    3    0    0  0.30009375950E+02 -0.19184881373E+02  0.58375097063E+02  0.68390600782E+02  0.10000000000E+01 0.  0.
<mgrwt>
<rscale>  0 0.12499637E+03</rscale>
<asrwt>0</asrwt>
<pdfrwt beam="1">  1        4 0.10706447E-01 0.12499637E+03</pdfrwt>
<pdfrwt beam="2">  1       -4 0.86350082E-02 0.12499637E+03</pdfrwt>
<totfact> 0.10437971E+04</totfact>
</mgrwt>
</event>
<event>
 5    1  0.3294152E-002  0.1249982E+03  0.7818608E-02  0.1235072E+00
         -4   -1    0    0    0  501 -0.00000000000E+00  0.00000000000E+00  0.83659536297E+02  0.83669175408E+02  0.12700000000E+01 0.  1.
          4   -1    0    0  501    0  0.00000000000E+00 -0.00000000000E+00 -0.46669901242E+02  0.46687177918E+02  0.12700000000E+01 0.  1.
         25    2    1    2    0    0  0.00000000000E+00  0.00000000000E+00  0.36989635055E+02  0.13035635333E+03  0.12499818299E+03 0.  0.
    9000005    1    3    3    0    0  0.30252937679E+02  0.37849571255E+02  0.59649144410E+02  0.76856038873E+02  0.10000000000E+01 0.  0.
    9000005    1    3    3    0    0 -0.30252937679E+02 -0.37849571255E+02 -0.22659509355E+02  0.53500314453E+02  0.10000000000E+01 0.  0.
<mgrwt>
<rscale>  0 0.12499818E+03</rscale>
<asrwt>0</asrwt>
<pdfrwt beam="2">  1        4 0.71820553E-02 0.12499818E+03</pdfrwt>
<pdfrwt beam="1">  1       -4 0.12872768E-01 0.12499818E+03</pdfrwt>
<totfact> 0.10337314E+04</totfact>
</mgrwt>
</event>
<event>
 5    1  0.3294152E-002  0.1249996E+03  0.7818608E-02  0.1235070E+00
          4   -1    0    0  501    0  0.00000000000E+00  0.00000000000E+00  0.24173744739E+02  0.24207082325E+02  0.12700000000E+01 0. -1.
         -4   -1    0    0    0  501 -0.00000000000E+00 -0.00000000000E+00 -0.16144251198E+03  0.16144750718E+03  0.12700000000E+01 0. -1.
         25    2    1    2    0    0  0.00000000000E+00  0.00000000000E+00 -0.13726876725E+03  0.18565458951E+03  0.12499964858E+03 0.  0.
    9000005    1    3    3    0    0  0.31859065730E+02 -0.53614207781E+02 -0.62741010086E+02  0.88469868835E+02  0.10000000000E+01 0.  0.
    9000005    1    3    3    0    0 -0.31859065730E+02  0.53614207781E+02 -0.74527757161E+02  0.97184720674E+02  0.10000000000E+01 0.  0.
<mgrwt>
<rscale>  0 0.12499965E+03</rscale>
<asrwt>0</asrwt>
<pdfrwt beam="1">  1        4 0.37219864E-02 0.12499965E+03</pdfrwt>
<pdfrwt beam="2">  1       -4 0.24840257E-01 0.12499965E+03</pdfrwt>
<totfact> 0.92609677E+03</totfact>
</mgrwt>
</event>
<event>
 5    1  0.3294152E-002  0.1250035E+03  0.7818608E-02  0.1235064E+00
         -4   -1    0    0    0  501 -0.00000000000E+00  0.00000000000E+00  0.17134819705E+03  0.17135290349E+03  0.12700000000E+01 0. -1.
          4   -1    0    0  501    0  0.00000000000E+00 -0.00000000000E+00 -0.22775731167E+02  0.22811111990E+02  0.12700000000E+01 0. -1.
         25    2    1    2    0    0  0.00000000000E+00  0.00000000000E+00  0.14857246589E+03  0.19416401548E+03  0.12500354910E+03 0.  0.
    9000005    1    3    3    0    0 -0.23084452640E+02  0.37100105638E+02  0.48886576898E+01  0.43979640358E+02  0.10000000000E+01 0.  0.
    9000005    1    3    3    0    0  0.23084452640E+02 -0.37100105638E+02  0.14368380820E+03  0.15018437512E+03  0.10000000000E+01 0.  0.
<mgrwt>
<rscale>  0 0.12500355E+03</rscale>
<asrwt>0</asrwt>
<pdfrwt beam="2">  1        4 0.35070423E-02 0.12500355E+03</pdfrwt>
<pdfrwt beam="1">  1       -4 0.26364345E-01 0.12500355E+03</pdfrwt>
<totfact> 0.91120554E+03</totfact>
</mgrwt>
</event>
<event>
 5    1  0.3294152E-002  0.1249963E+03  0.7818608E-02  0.1235075E+00
         -4   -1    0    0    0  501 -0.00000000000E+00  0.00000000000E+00  0.12868731135E+04  0.12868737402E+04  0.12700000000E+01 0. -1.
          4   -1    0    0  501    0  0.00000000000E+00 -0.00000000000E+00 -0.29017785222E+01  0.31675256261E+01  0.12700000000E+01 0. -1.
         25    2    1    2    0    0  0.00000000000E+00  0.00000000000E+00  0.12839713350E+04  0.12900412658E+04  0.12499631364E+03 0.  0.
    9000005    1    3    3    0    0 -0.33390137578E+02 -0.43867287148E+02  0.33830997477E+03  0.34277380180E+03  0.10000000000E+01 0.  0.
    9000005    1    3    3    0    0  0.33390137578E+02  0.43867287148E+02  0.94566136023E+03  0.94726746403E+03  0.10000000000E+01 0.  0.
<mgrwt>
<rscale>  0 0.12499631E+03</rscale>
<asrwt>0</asrwt>
<pdfrwt beam="2">  1        4 0.46691860E-03 0.12499631E+03</pdfrwt>
<pdfrwt beam="1">  1       -4 0.19800061E+00 0.12499631E+03</pdfrwt>
<totfact> 0.22466648E+03</totfact>
</mgrwt>
</event>
<event>
 5    1  0.3294152E-002  0.1250017E+03  0.7818608E-02  0.1235067E+00
         -4   -1    0    0    0  501 -0.00000000000E+00  0.00000000000E+00  0.16388549102E+02  0.16437683586E+02  0.12700000000E+01 0.  1.
          4   -1    0    0  501    0  0.00000000000E+00 -0.00000000000E+00 -0.23795123395E+03  0.23795462306E+03  0.12700000000E+01 0.  1.
         25    2    1    2    0    0  0.00000000000E+00  0.00000000000E+00 -0.22156268484E+03  0.25439230665E+03  0.12500168945E+03 0.  0.
    9000005    1    3    3    0    0 -0.13703084810E+02 -0.27553316795E+02 -0.89343929930E-01  0.30789085437E+02  0.10000000000E+01 0.  0.
    9000005    1    3    3    0    0  0.13703084810E+02  0.27553316795E+02 -0.22147334091E+03  0.22360322121E+03  0.10000000000E+01 0.  0.
<mgrwt>
<rscale>  0 0.12500169E+03</rscale>
<asrwt>0</asrwt>
<pdfrwt beam="2">  1        4 0.36611920E-01 0.12500169E+03</pdfrwt>
<pdfrwt beam="1">  1       -4 0.25253557E-02 0.12500169E+03</pdfrwt>
<totfact> 0.81696446E+03</totfact>
</mgrwt>
</event>
<event>
 5    1  0.3294152E-002  0.1249970E+03  0.7818608E-02  0.1235074E+00
         -4   -1    0    0    0  501 -0.00000000000E+00  0.00000000000E+00  0.24596443082E+02  0.24629208519E+02  0.12700000000E+01 0.  1.
          4   -1    0    0  501    0  0.00000000000E+00 -0.00000000000E+00 -0.15866500042E+03  0.15867008306E+03  0.12700000000E+01 0.  1.
         25    2    1    2    0    0  0.00000000000E+00  0.00000000000E+00 -0.13406855733E+03  0.18329929158E+03  0.12499700887E+03 0.  0.
    9000005    1    3    3    0    0  0.46852159629E+01 -0.53869603539E+02 -0.21100202813E+02  0.58052596779E+02  0.10000000000E+01 0.  0.
    9000005    1    3    3    0    0 -0.46852159629E+01  0.53869603539E+02 -0.11296835452E+03  0.12524669480E+03  0.10000000000E+01 0.  0.
<mgrwt>
<rscale>  0 0.12499701E+03</rscale>
<asrwt>0</asrwt>
<pdfrwt beam="2">  1        4 0.24412911E-01 0.12499701E+03</pdfrwt>
<pdfrwt beam="1">  1       -4 0.37869797E-02 0.12499701E+03</pdfrwt>
<totfact> 0.93032706E+03</totfact>
</mgrwt>
</event>
<event>
 5    1  0.3294152E-002  0.1249999E+03  0.7818608E-02  0.1235069E+00
         -4   -1    0    0    0  501 -0.00000000000E+00  0.00000000000E+00  0.35343626595E+02  0.35366436644E+02  0.12700000000E+01 0.  1.
          4   -1    0    0  501    0  0.00000000000E+00 -0.00000000000E+00 -0.11045973551E+03  0.11046703612E+03  0.12700000000E+01 0.  1.
         25    2    1    2    0    0  0.00000000000E+00  0.00000000000E+00 -0.75116108917E+02  0.14583347277E+03  0.12499988784E+03 0.  0.
    9000005    1    3    3    0    0 -0.35835212475E+02  0.31084452913E+02 -0.85017782839E+02  0.97362359590E+02  0.10000000000E+01 0.  0.
    9000005    1    3    3    0    0  0.35835212475E+02 -0.31084452913E+02  0.99016739222E+01  0.48471113176E+02  0.10000000000E+01 0.  0.
<mgrwt>
<rscale>  0 0.12499989E+03</rscale>
<asrwt>0</asrwt>
<pdfrwt beam="2">  1        4 0.16996122E-01 0.12499989E+03</pdfrwt>
<pdfrwt beam="1">  1       -4 0.54397973E-02 0.12499989E+03</pdfrwt>
<totfact> 0.10014107E+04</totfact>
</mgrwt>
</event>
<event>
 5    1  0.3294152E-002  0.1249973E+03  0.7818608E-02  0.1235074E+00
          4   -1    0    0  501    0  0.00000000000E+00  0.00000000000E+00  0.23122634949E+02  0.23157485766E+02  0.12700000000E+01 0.  1.
         -4   -1    0    0    0  501 -0.00000000000E+00 -0.00000000000E+00 -0.16876441677E+03  0.16876919526E+03  0.12700000000E+01 0.  1.
         25    2    1    2    0    0  0.00000000000E+00  0.00000000000E+00 -0.14564178182E+03  0.19192668102E+03  0.12499728908E+03 0.  0.
    9000005    1    3    3    0    0  0.19238198985E+02 -0.43333697953E+02 -0.10315516830E+02  0.48531717113E+02  0.10000000000E+01 0.  0.
    9000005    1    3    3    0    0 -0.19238198985E+02  0.43333697953E+02 -0.13532626499E+03  0.14339496391E+03  0.10000000000E+01 0.  0.
<mgrwt>
<rscale>  0 0.12499729E+03</rscale>
<asrwt>0</asrwt>
<pdfrwt beam="1">  1        4 0.35603770E-02 0.12499729E+03</pdfrwt>
<pdfrwt beam="2">  1       -4 0.25966804E-01 0.12499729E+03</pdfrwt>
<totfact> 0.91518712E+03</totfact>
</mgrwt>
</event>
<event>
 5    1  0.3294152E-002  0.1249964E+03  0.7818608E-02  0.1235075E+00
         -4   -1    0    0    0  501 -0.00000000000E+00  0.00000000000E+00  0.78180006049E+01  0.79204818956E+01  0.12700000000E+01 0. -1.
          4   -1    0    0  501    0  0.00000000000E+00 -0.00000000000E+00 -0.49626324544E+03  0.49626487048E+03  0.12700000000E+01 0. -1.
         25    2    1    2    0    0  0.00000000000E+00  0.00000000000E+00 -0.48844524483E+03  0.50418535237E+03  0.12499644935E+03 0.  0.
    9000005    1    3    3    0    0 -0.14641218872E+02 -0.55232993312E+02 -0.14218143742E+03  0.15323710382E+03  0.10000000000E+01 0.  0.
    9000005    1    3    3    0    0  0.14641218872E+02  0.55232993312E+02 -0.34626380741E+03  0.35094824855E+03  0.10000000000E+01 0.  0.
<mgrwt>
<rscale>  0 0.12499645E+03</rscale>
<asrwt>0</asrwt>
<pdfrwt beam="2">  1        4 0.76356175E-01 0.12499645E+03</pdfrwt>
<pdfrwt beam="1">  1       -4 0.12107779E-02 0.12499645E+03</pdfrwt>
<totfact> 0.55545437E+03</totfact>
</mgrwt>
</event>
<event>
 5    1  0.3294152E-002  0.1249996E+03  0.7818608E-02  0.1235070E+00
         -4   -1    0    0    0  501 -0.00000000000E+00  0.00000000000E+00  0.12789544116E+01  0.18023940710E+01  0.12700000000E+01 0.  1.
          4   -1    0    0  501    0  0.00000000000E+00 -0.00000000000E+00 -0.25348767476E+04  0.25348770658E+04  0.12700000000E+01 0.  1.
         25    2    1    2    0    0  0.00000000000E+00  0.00000000000E+00 -0.25335977932E+04  0.25366794599E+04  0.12499961675E+03 0.  0.
    9000005    1    3    3    0    0  0.21838111142E+02 -0.50220625464E+02 -0.65589661141E+03  0.65817959493E+03  0.10000000000E+01 0.  0.
    9000005    1    3    3    0    0 -0.21838111142E+02  0.50220625464E+02 -0.18777011818E+04  0.18784998649E+04  0.10000000000E+01 0.  0.
<mgrwt>
<rscale>  0 0.12499962E+03</rscale>
<asrwt>0</asrwt>
<pdfrwt beam="2">  1        4 0.39001799E+00 0.12499962E+03</pdfrwt>
<pdfrwt beam="1">  1       -4 0.23705331E-03 0.12499962E+03</pdfrwt>
<totfact> 0.43877378E+02</totfact>
</mgrwt>
</event>
<event>
 5    1  0.3294152E-002  0.1250040E+03  0.7818608E-02  0.1235063E+00
          4   -1    0    0  501    0  0.00000000000E+00  0.00000000000E+00  0.22041732666E+02  0.22078289765E+02  0.12700000000E+01 0.  1.
         -4   -1    0    0    0  501 -0.00000000000E+00 -0.00000000000E+00 -0.17704619489E+03  0.17705074986E+03  0.12700000000E+01 0.  1.
         25    2    1    2    0    0  0.00000000000E+00  0.00000000000E+00 -0.15500446222E+03  0.19912903962E+03  0.12500396438E+03 0.  0.
    9000005    1    3    3    0    0 -0.31165763267E+02 -0.53554622297E+02 -0.64551435245E+02  0.89483463062E+02  0.10000000000E+01 0.  0.
    9000005    1    3    3    0    0  0.31165763267E+02  0.53554622297E+02 -0.90453026977E+02  0.10964557656E+03  0.10000000000E+01 0.  0.
<mgrwt>
<rscale>  0 0.12500396E+03</rscale>
<asrwt>0</asrwt>
<pdfrwt beam="1">  1        4 0.33941984E-02 0.12500396E+03</pdfrwt>
<pdfrwt beam="2">  1       -4 0.27241038E-01 0.12500396E+03</pdfrwt>
<totfact> 0.90274600E+03</totfact>
</mgrwt>
</event>
<event>
 5    1  0.3294152E-002  0.1250015E+03  0.7818608E-02  0.1235067E+00
         -4   -1    0    0    0  501 -0.00000000000E+00  0.00000000000E+00  0.13779667205E+03  0.13780252439E+03  0.12700000000E+01 0.  1.
          4   -1    0    0  501    0  0.00000000000E+00 -0.00000000000E+00 -0.28327927379E+02  0.28356381461E+02  0.12700000000E+01 0.  1.
         25    2    1    2    0    0  0.00000000000E+00  0.00000000000E+00  0.10946874467E+03  0.16615890585E+03  0.12500150372E+03 0.  0.
    9000005    1    3    3    0    0 -0.49407063862E+01  0.23601422571E+02 -0.21901617252E+02  0.32590160558E+02  0.10000000000E+01 0.  0.
    9000005    1    3    3    0    0  0.49407063862E+01 -0.23601422571E+02  0.13137036192E+03  0.13356874529E+03  0.10000000000E+01 0.  0.
<mgrwt>
<rscale>  0 0.12500150E+03</rscale>
<asrwt>0</asrwt>
<pdfrwt beam="2">  1        4 0.43607816E-02 0.12500150E+03</pdfrwt>
<pdfrwt beam="1">  1       -4 0.21202127E-01 0.12500150E+03</pdfrwt>
<totfact> 0.96165115E+03</totfact>
</mgrwt>
</event>
<event>
 4    1  0.3294152E-002  0.1248944E+03  0.7818608E-02  0.1235234E+00
          4   -1    0    0  501    0  0.00000000000E+00  0.00000000000E+00  0.38361551265E+02  0.38382567859E+02  0.12700000000E+01 0.  1.
         -4   -1    0    0    0  501 -0.00000000000E+00 -0.00000000000E+00 -0.10160239512E+03  0.10161033213E+03  0.12700000000E+01 0.  1.
    9000005    1    1    2    0    0 -0.25372653278E+02 -0.28375364376E+02 -0.87098478026E+02  0.95058285869E+02  0.10000000000E+01 0.  0.
    9000005    1    1    2    0    0  0.25372653278E+02  0.28375364376E+02  0.23857634167E+02  0.44934614118E+02  0.10000000000E+01 0.  0.
<mgrwt>
<rscale>  0 0.12489439E+03</rscale>
<asrwt>0</asrwt>
<pdfrwt beam="1">  1        4 0.59040043E-02 0.12489439E+03</pdfrwt>
<pdfrwt beam="2">  1       -4 0.15633365E-01 0.12489439E+03</pdfrwt>
<totfact> 0.10157883E+04</totfact>
</mgrwt>
</event>
<event>
 5    1  0.3294152E-002  0.1250083E+03  0.7818608E-02  0.1235056E+00
         -4   -1    0    0    0  501 -0.00000000000E+00  0.00000000000E+00  0.17718423332E+04  0.17718427883E+04  0.12700000000E+01 0. -1.
          4   -1    0    0  501    0  0.00000000000E+00 -0.00000000000E+00 -0.20215488391E+01  0.23873750666E+01  0.12700000000E+01 0. -1.
         25    2    1    2    0    0  0.00000000000E+00  0.00000000000E+00  0.17698207843E+04  0.17742301634E+04  0.12500825578E+03 0.  0.
    9000005    1    3    3    0    0 -0.46189043971E+02  0.42043905065E+02  0.91551006655E+03  0.91763870869E+03  0.10000000000E+01 0.  0.
    9000005    1    3    3    0    0  0.46189043971E+02 -0.42043905065E+02  0.85431071778E+03  0.85659145469E+03  0.10000000000E+01 0.  0.
<mgrwt>
<rscale>  0 0.12500826E+03</rscale>
<asrwt>0</asrwt>
<pdfrwt beam="2">  1        4 0.33918308E-03 0.12500826E+03</pdfrwt>
<pdfrwt beam="1">  1       -4 0.27261925E+00 0.12500826E+03</pdfrwt>
<totfact> 0.13102357E+03</totfact>
</mgrwt>
</event>
<event>
 5    1  0.3294152E-002  0.1250017E+03  0.7818608E-02  0.1235067E+00
         -4   -1    0    0    0  501 -0.00000000000E+00  0.00000000000E+00  0.22146484598E+02  0.22182869068E+02  0.12700000000E+01 0.  1.
          4   -1    0    0  501    0  0.00000000000E+00 -0.00000000000E+00 -0.17620364070E+03  0.17620821744E+03  0.12700000000E+01 0.  1.
         25    2    1    2    0    0  0.00000000000E+00  0.00000000000E+00 -0.15405715610E+03  0.19839108651E+03  0.12500166344E+03 0.  0.
    9000005    1    3    3    0    0  0.43454540127E+02  0.25149216434E+02 -0.17972524529E+02  0.53336589531E+02  0.10000000000E+01 0.  0.
    9000005    1    3    3    0    0 -0.43454540127E+02 -0.25149216434E+02 -0.13608463157E+03  0.14505449698E+03  0.10000000000E+01 0.  0.
<mgrwt>
<rscale>  0 0.12500166E+03</rscale>
<asrwt>0</asrwt>
<pdfrwt beam="2">  1        4 0.27111402E-01 0.12500166E+03</pdfrwt>
<pdfrwt beam="1">  1       -4 0.34103025E-02 0.12500166E+03</pdfrwt>
<totfact> 0.90404078E+03</totfact>
</mgrwt>
</event>
<event>
 5    1  0.3294152E-002  0.1249936E+03  0.7818608E-02  0.1235079E+00
         -4   -1    0    0    0  501 -0.00000000000E+00  0.00000000000E+00  0.35102728630E+01  0.37329499827E+01  0.12700000000E+01 0.  1.
          4   -1    0    0  501    0  0.00000000000E+00 -0.00000000000E+00 -0.10782603823E+04  0.10782611302E+04  0.12700000000E+01 0.  1.
         25    2    1    2    0    0  0.00000000000E+00  0.00000000000E+00 -0.10747501095E+04  0.10819940802E+04  0.12499356725E+03 0.  0.
    9000005    1    3    3    0    0 -0.60220960118E+02  0.12487079648E+02 -0.44162231263E+03  0.44588536442E+03  0.10000000000E+01 0.  0.
    9000005    1    3    3    0    0  0.60220960118E+02 -0.12487079648E+02 -0.63312779683E+03  0.63610871580E+03  0.10000000000E+01 0.  0.
<mgrwt>
<rscale>  0 0.12499357E+03</rscale>
<asrwt>0</asrwt>
<pdfrwt beam="2">  1        4 0.16590314E+00 0.12499357E+03</pdfrwt>
<pdfrwt beam="1">  1       -4 0.55722938E-03 0.12499357E+03</pdfrwt>
<totfact> 0.28020416E+03</totfact>
</mgrwt>
</event>
<event>
 4    1  0.3294152E-002  0.1251346E+03  0.7818608E-02  0.1234859E+00
         -4   -1    0    0    0  501 -0.00000000000E+00  0.00000000000E+00  0.57100890728E+03  0.57101031960E+03  0.12700000000E+01 0.  1.
          4   -1    0    0  501    0  0.00000000000E+00 -0.00000000000E+00 -0.67954512894E+01  0.69131077112E+01  0.12700000000E+01 0.  1.
    9000005    1    1    2    0    0  0.17684540458E+02  0.52945732210E+02  0.41254506235E+03  0.41630568336E+03  0.10000000000E+01 0.  0.
    9000005    1    1    2    0    0 -0.17684540458E+02 -0.52945732210E+02  0.15166839364E+03  0.16161774395E+03  0.10000000000E+01 0.  0.
<mgrwt>
<rscale>  0 0.12513458E+03</rscale>
<asrwt>0</asrwt>
<pdfrwt beam="2">  1        4 0.10546134E-02 0.12513458E+03</pdfrwt>
<pdfrwt beam="1">  1       -4 0.87856664E-01 0.12513458E+03</pdfrwt>
<totfact> 0.50143277E+03</totfact>
</mgrwt>
</event>
<event>
 5    1  0.3294152E-002  0.1250007E+03  0.7818608E-02  0.1235068E+00
         -4   -1    0    0    0  501 -0.00000000000E+00  0.00000000000E+00  0.16760622051E+02  0.16808668940E+02  0.12700000000E+01 0. -1.
          4   -1    0    0  501    0  0.00000000000E+00 -0.00000000000E+00 -0.23268051246E+03  0.23268397835E+03  0.12700000000E+01 0. -1.
         25    2    1    2    0    0  0.00000000000E+00  0.00000000000E+00 -0.21591989041E+03  0.24949264729E+03  0.12500072790E+03 0.  0.
    9000005    1    3    3    0    0  0.51876084517E+02  0.34774664251E+02 -0.10354624344E+03  0.12092654775E+03  0.10000000000E+01 0.  0.
    9000005    1    3    3    0    0 -0.51876084517E+02 -0.34774664251E+02 -0.11237364697E+03  0.12856609954E+03  0.10000000000E+01 0.  0.
<mgrwt>
<rscale>  0 0.12500073E+03</rscale>
<asrwt>0</asrwt>
<pdfrwt beam="2">  1        4 0.35800962E-01 0.12500073E+03</pdfrwt>
<pdfrwt beam="1">  1       -4 0.25825199E-02 0.12500073E+03</pdfrwt>
<totfact> 0.82402276E+03</totfact>
</mgrwt>
</event>
<event>
 5    1  0.3294152E-002  0.1249616E+03  0.7818608E-02  0.1235129E+00
          4   -1    0    0  501    0  0.00000000000E+00  0.00000000000E+00  0.18509948669E+03  0.18510384348E+03  0.12700000000E+01 0.  1.
         -4   -1    0    0    0  501 -0.00000000000E+00 -0.00000000000E+00 -0.21066828263E+02  0.21105074107E+02  0.12700000000E+01 0.  1.
         25    2    1    2    0    0  0.00000000000E+00  0.00000000000E+00  0.16403265843E+03  0.20620891759E+03  0.12496161276E+03 0.  0.
    9000005    1    3    3    0    0  0.58469782045E+02  0.21893539040E+02  0.78397694491E+02  0.10022594956E+03  0.10000000000E+01 0.  0.
    9000005    1    3    3    0    0 -0.58469782045E+02 -0.21893539040E+02  0.85634963936E+02  0.10598296803E+03  0.10000000000E+01 0.  0.
<mgrwt>
<rscale>  0 0.12496161E+03</rscale>
<asrwt>0</asrwt>
<pdfrwt beam="1">  1        4 0.28480122E-01 0.12496161E+03</pdfrwt>
<pdfrwt beam="2">  1       -4 0.32443276E-02 0.12496161E+03</pdfrwt>
<totfact> 0.89175315E+03</totfact>
</mgrwt>
</event>
<event>
 5    1  0.3294152E-002  0.1249967E+03  0.7818608E-02  0.1235074E+00
          4   -1    0    0  501    0  0.00000000000E+00  0.00000000000E+00  0.57682300971E+02  0.57696280168E+02  0.12700000000E+01 0. -1.
         -4   -1    0    0    0  501 -0.00000000000E+00 -0.00000000000E+00 -0.67688346376E+02  0.67700259491E+02  0.12700000000E+01 0. -1.
         25    2    1    2    0    0  0.00000000000E+00  0.00000000000E+00 -0.10006045405E+02  0.12539653966E+03  0.12499668481E+03 0.  0.
    9000005    1    3    3    0    0 -0.29029656021E+02  0.54031969339E+02 -0.16994005763E+02  0.63655093050E+02  0.10000000000E+01 0.  0.
    9000005    1    3    3    0    0  0.29029656021E+02 -0.54031969339E+02  0.69879603574E+01  0.61741446609E+02  0.10000000000E+01 0.  0.
<mgrwt>
<rscale>  0 0.12499668E+03</rscale>
<asrwt>0</asrwt>
<pdfrwt beam="1">  1        4 0.88761919E-02 0.12499668E+03</pdfrwt>
<pdfrwt beam="2">  1       -4 0.10415583E-01 0.12499668E+03</pdfrwt>
<totfact> 0.10445024E+04</totfact>
</mgrwt>
</event>
<event>
 5    1  0.3294152E-002  0.1249995E+03  0.7818608E-02  0.1235070E+00
         -4   -1    0    0    0  501 -0.00000000000E+00  0.00000000000E+00  0.55060740479E+01  0.56506416823E+01  0.12700000000E+01 0.  1.
          4   -1    0    0  501    0  0.00000000000E+00 -0.00000000000E+00 -0.70010068292E+03  0.70010183483E+03  0.12700000000E+01 0.  1.
         25    2    1    2    0    0  0.00000000000E+00  0.00000000000E+00 -0.69459460888E+03  0.70575247651E+03  0.12499954969E+03 0.  0.
    9000005    1    3    3    0    0  0.32499302750E+02  0.19709411269E+02 -0.67231159036E+02  0.77237907255E+02  0.10000000000E+01 0.  0.
    9000005    1    3    3    0    0 -0.32499302750E+02 -0.19709411269E+02 -0.62736344984E+03  0.62851456926E+03  0.10000000000E+01 0.  0.
<mgrwt>
<rscale>  0 0.12499955E+03</rscale>
<asrwt>0</asrwt>
<pdfrwt beam="2">  1        4 0.10771894E+00 0.12499955E+03</pdfrwt>
<pdfrwt beam="1">  1       -4 0.85829806E-03 0.12499955E+03</pdfrwt>
<totfact> 0.42785209E+03</totfact>
</mgrwt>
</event>
<event>
 5    1  0.3294152E-002  0.1249992E+03  0.7818608E-02  0.1235071E+00
         -4   -1    0    0    0  501 -0.00000000000E+00  0.00000000000E+00  0.85491007631E+02  0.85500440266E+02  0.12700000000E+01 0. -1.
          4   -1    0    0  501    0  0.00000000000E+00 -0.00000000000E+00 -0.45670545817E+02  0.45688200394E+02  0.12700000000E+01 0. -1.
         25    2    1    2    0    0  0.00000000000E+00  0.00000000000E+00  0.39820461813E+02  0.13118864066E+03  0.12499916103E+03 0.  0.
    9000005    1    3    3    0    0 -0.55706342685E+02 -0.82476151900E+01 -0.85232868986E+01  0.56963726978E+02  0.10000000000E+01 0.  0.
    9000005    1    3    3    0    0  0.55706342685E+02  0.82476151900E+01  0.48343748712E+02  0.74224913682E+02  0.10000000000E+01 0.  0.
<mgrwt>
<rscale>  0 0.12499916E+03</rscale>
<asrwt>0</asrwt>
<pdfrwt beam="2">  1        4 0.70283216E-02 0.12499916E+03</pdfrwt>
<pdfrwt beam="1">  1       -4 0.13154546E-01 0.12499916E+03</pdfrwt>
<totfact> 0.10319242E+04</totfact>
</mgrwt>
</event>
<event>
 5    1  0.3294152E-002  0.1250202E+03  0.7818608E-02  0.1235038E+00
          4   -1    0    0  501    0  0.00000000000E+00  0.00000000000E+00  0.99025397986E+01  0.99836463510E+01  0.12700000000E+01 0. -1.
         -4   -1    0    0    0  501 -0.00000000000E+00 -0.00000000000E+00 -0.39290558017E+03  0.39290763269E+03  0.12700000000E+01 0. -1.
         25    2    1    2    0    0  0.00000000000E+00  0.00000000000E+00 -0.38300304037E+03  0.40289127904E+03  0.12502021355E+03 0.  0.
    9000005    1    3    3    0    0  0.20155003382E+02  0.55791435891E+02 -0.12805580485E+03  0.14113184486E+03  0.10000000000E+01 0.  0.
    9000005    1    3    3    0    0 -0.20155003382E+02 -0.55791435891E+02 -0.25494723553E+03  0.26175943418E+03  0.10000000000E+01 0.  0.
<mgrwt>
<rscale>  0 0.12502021E+03</rscale>
<asrwt>0</asrwt>
<pdfrwt beam="1">  1        4 0.15298648E-02 0.12502021E+03</pdfrwt>
<pdfrwt beam="2">  1       -4 0.60453397E-01 0.12502021E+03</pdfrwt>
<totfact> 0.64243891E+03</totfact>
</mgrwt>
</event>
<event>
 5    1  0.3294152E-002  0.1250011E+03  0.7818608E-02  0.1235068E+00
         -4   -1    0    0    0  501 -0.00000000000E+00  0.00000000000E+00  0.47951524949E+02  0.47968340027E+02  0.12700000000E+01 0. -1.
          4   -1    0    0  501    0  0.00000000000E+00 -0.00000000000E+00 -0.81427836811E+02  0.81437740070E+02  0.12700000000E+01 0. -1.
         25    2    1    2    0    0  0.00000000000E+00  0.00000000000E+00 -0.33476311862E+02  0.12940608010E+03  0.12500108044E+03 0.  0.
    9000005    1    3    3    0    0  0.25097750273E+02  0.52667072811E+02 -0.39923825165E+02  0.70700986153E+02  0.10000000000E+01 0.  0.
    9000005    1    3    3    0    0 -0.25097750273E+02 -0.52667072811E+02  0.64475133025E+01  0.58705093944E+02  0.10000000000E+01 0.  0.
<mgrwt>
<rscale>  0 0.12500108E+03</rscale>
<asrwt>0</asrwt>
<pdfrwt beam="2">  1        4 0.12529415E-01 0.12500108E+03</pdfrwt>
<pdfrwt beam="1">  1       -4 0.73792130E-02 0.12500108E+03</pdfrwt>
<totfact> 0.10356976E+04</totfact>
</mgrwt>
</event>
<event>
 5    1  0.3294152E-002  0.1250037E+03  0.7818608E-02  0.1235064E+00
         -4   -1    0    0    0  501 -0.00000000000E+00  0.00000000000E+00  0.72645433128E+02  0.72656533459E+02  0.12700000000E+01 0.  1.
          4   -1    0    0  501    0  0.00000000000E+00 -0.00000000000E+00 -0.53751892655E+02  0.53766893755E+02  0.12700000000E+01 0.  1.
         25    2    1    2    0    0  0.00000000000E+00  0.00000000000E+00  0.18893540472E+02  0.12642342721E+03  0.12500366825E+03 0.  0.
    9000005    1    3    3    0    0  0.52380347439E+02 -0.27714882809E+02  0.29513079908E+02  0.66210553634E+02  0.10000000000E+01 0.  0.
    9000005    1    3    3    0    0 -0.52380347439E+02  0.27714882809E+02 -0.10619539436E+02  0.60212873580E+02  0.10000000000E+01 0.  0.
<mgrwt>
<rscale>  0 0.12500367E+03</rscale>
<asrwt>0</asrwt>
<pdfrwt beam="2">  1        4 0.82715297E-02 0.12500367E+03</pdfrwt>
<pdfrwt beam="1">  1       -4 0.11178228E-01 0.12500367E+03</pdfrwt>
<totfact> 0.10420836E+04</totfact>
</mgrwt>
</event>
<event>
 5    1  0.3294152E-002  0.1249991E+03  0.7818608E-02  0.1235071E+00
          4   -1    0    0  501    0  0.00000000000E+00  0.00000000000E+00  0.17646571056E+03  0.17647028051E+03  0.12700000000E+01 0. -1.
         -4   -1    0    0    0  501 -0.00000000000E+00 -0.00000000000E+00 -0.22112643931E+02  0.22149083990E+02  0.12700000000E+01 0. -1.
         25    2    1    2    0    0  0.00000000000E+00  0.00000000000E+00  0.15435306663E+03  0.19861936450E+03  0.12499913110E+03 0.  0.
    9000005    1    3    3    0    0 -0.32035187647E+02  0.17444909516E+02  0.15780176189E+03  0.16196596609E+03  0.10000000000E+01 0.  0.
    9000005    1    3    3    0    0  0.32035187647E+02 -0.17444909516E+02 -0.34486952673E+01  0.36653398405E+02  0.10000000000E+01 0.  0.
<mgrwt>
<rscale>  0 0.12499913E+03</rscale>
<asrwt>0</asrwt>
<pdfrwt beam="1">  1        4 0.27151725E-01 0.12499913E+03</pdfrwt>
<pdfrwt beam="2">  1       -4 0.34050999E-02 0.12499913E+03</pdfrwt>
<totfact> 0.90370583E+03</totfact>
</mgrwt>
</event>
<event>
 5    1  0.3294152E-002  0.1250075E+03  0.7818608E-02  0.1235057E+00
         -4   -1    0    0    0  501 -0.00000000000E+00  0.00000000000E+00  0.15362483165E+03  0.15363008104E+03  0.12700000000E+01 0. -1.
          4   -1    0    0  501    0  0.00000000000E+00 -0.00000000000E+00 -0.25408730183E+02  0.25440449475E+02  0.12700000000E+01 0. -1.
         25    2    1    2    0    0  0.00000000000E+00  0.00000000000E+00  0.12821610147E+03  0.17907053051E+03  0.12500754466E+03 0.  0.
    9000005    1    3    3    0    0 -0.25400021528E+02  0.57054912395E+01  0.14549507787E+03  0.14780910461E+03  0.10000000000E+01 0.  0.
    9000005    1    3    3    0    0  0.25400021528E+02 -0.57054912395E+01 -0.17278976397E+02  0.31261425899E+02  0.10000000000E+01 0.  0.
<mgrwt>
<rscale>  0 0.12500754E+03</rscale>
<asrwt>0</asrwt>
<pdfrwt beam="2">  1        4 0.39118792E-02 0.12500754E+03</pdfrwt>
<pdfrwt beam="1">  1       -4 0.23637433E-01 0.12500754E+03</pdfrwt>
<totfact> 0.93768714E+03</totfact>
</mgrwt>
</event>
<event>
 5    1  0.3294152E-002  0.1250127E+03  0.7818608E-02  0.1235049E+00
          4   -1    0    0  501    0  0.00000000000E+00  0.00000000000E+00  0.16355449237E+02  0.16404682860E+02  0.12700000000E+01 0.  1.
         -4   -1    0    0    0  501 -0.00000000000E+00 -0.00000000000E+00 -0.23847334256E+03  0.23847672426E+03  0.12700000000E+01 0.  1.
         25    2    1    2    0    0  0.00000000000E+00  0.00000000000E+00 -0.22211789332E+03  0.25488140712E+03  0.12501269199E+03 0.  0.
    9000005    1    3    3    0    0 -0.53308555109E+02  0.21701290815E+01 -0.44693649560E+02  0.69606277152E+02  0.10000000000E+01 0.  0.
    9000005    1    3    3    0    0  0.53308555109E+02 -0.21701290815E+01 -0.17742424376E+03  0.18527512996E+03  0.10000000000E+01 0.  0.
<mgrwt>
<rscale>  0 0.12501269E+03</rscale>
<asrwt>0</asrwt>
<pdfrwt beam="1">  1        4 0.25202705E-02 0.12501269E+03</pdfrwt>
<pdfrwt beam="2">  1       -4 0.36692251E-01 0.12501269E+03</pdfrwt>
<totfact> 0.81606727E+03</totfact>
</mgrwt>
</event>
<event>
 5    1  0.3294152E-002  0.1249975E+03  0.7818608E-02  0.1235073E+00
          4   -1    0    0  501    0  0.00000000000E+00  0.00000000000E+00  0.79449195587E+02  0.79459345450E+02  0.12700000000E+01 0. -1.
         -4   -1    0    0    0  501 -0.00000000000E+00 -0.00000000000E+00 -0.49143200211E+02  0.49159607677E+02  0.12700000000E+01 0. -1.
         25    2    1    2    0    0  0.00000000000E+00  0.00000000000E+00  0.30305995376E+02  0.12861895313E+03  0.12499752697E+03 0.  0.
    9000005    1    3    3    0    0 -0.49800008115E+02 -0.24381791727E+02 -0.14501804557E+02  0.57322028152E+02  0.10000000000E+01 0.  0.
    9000005    1    3    3    0    0  0.49800008115E+02  0.24381791727E+02  0.44807799933E+02  0.71296924975E+02  0.10000000000E+01 0.  0.
<mgrwt>
<rscale>  0 0.12499753E+03</rscale>
<asrwt>0</asrwt>
<pdfrwt beam="1">  1        4 0.12224996E-01 0.12499753E+03</pdfrwt>
<pdfrwt beam="2">  1       -4 0.75625352E-02 0.12499753E+03</pdfrwt>
<totfact> 0.10374721E+04</totfact>
</mgrwt>
</event>
<event>
 5    1  0.3294152E-002  0.1250008E+03  0.7818608E-02  0.1235068E+00
         -4   -1    0    0    0  501 -0.00000000000E+00  0.00000000000E+00  0.50845688027E+03  0.50845846634E+03  0.12700000000E+01 0.  1.
          4   -1    0    0  501    0  0.00000000000E+00 -0.00000000000E+00 -0.76285625795E+01  0.77335546180E+01  0.12700000000E+01 0.  1.
         25    2    1    2    0    0  0.00000000000E+00  0.00000000000E+00  0.50082831769E+03  0.51619202096E+03  0.12500079480E+03 0.  0.
    9000005    1    3    3    0    0 -0.44557832934E+02 -0.41748146435E+02  0.30535239089E+03  0.31139908611E+03  0.10000000000E+01 0.  0.
    9000005    1    3    3    0    0  0.44557832934E+02  0.41748146435E+02  0.19547592680E+03  0.20479293485E+03  0.10000000000E+01 0.  0.
<mgrwt>
<rscale>  0 0.12500079E+03</rscale>
<asrwt>0</asrwt>
<pdfrwt beam="2">  1        4 0.11818236E-02 0.12500079E+03</pdfrwt>
<pdfrwt beam="1">  1       -4 0.78232318E-01 0.12500079E+03</pdfrwt>
<totfact> 0.54628645E+03</totfact>
</mgrwt>
</event>
<event>
 5    1  0.3294152E-002  0.1249972E+03  0.7818608E-02  0.1235074E+00
          4   -1    0    0  501    0  0.00000000000E+00  0.00000000000E+00  0.29238951058E+02  0.29266519420E+02  0.12700000000E+01 0. -1.
         -4   -1    0    0    0  501 -0.00000000000E+00 -0.00000000000E+00 -0.13349784401E+03  0.13350388479E+03  0.12700000000E+01 0. -1.
         25    2    1    2    0    0  0.00000000000E+00  0.00000000000E+00 -0.10425889295E+03  0.16277040421E+03  0.12499715088E+03 0.  0.
    9000005    1    3    3    0    0 -0.23373441913E+02 -0.13730117159E+02 -0.12544924511E+03  0.12834853720E+03  0.10000000000E+01 0.  0.
    9000005    1    3    3    0    0  0.23373441913E+02  0.13730117159E+02  0.21190352155E+02  0.34421867011E+02  0.10000000000E+01 0.  0.
<mgrwt>
<rscale>  0 0.12499715E+03</rscale>
<asrwt>0</asrwt>
<pdfrwt beam="1">  1        4 0.45008856E-02 0.12499715E+03</pdfrwt>
<pdfrwt beam="2">  1       -4 0.20540715E-01 0.12499715E+03</pdfrwt>
<totfact> 0.96817515E+03</totfact>
</mgrwt>
</event>
<event>
 5    1  0.3294152E-002  0.1250049E+03  0.7818608E-02  0.1235062E+00
         -4   -1    0    0    0  501 -0.00000000000E+00  0.00000000000E+00  0.49835215367E+02  0.49851395072E+02  0.12700000000E+01 0.  1.
          4   -1    0    0  501    0  0.00000000000E+00 -0.00000000000E+00 -0.78355374362E+02  0.78365665896E+02  0.12700000000E+01 0.  1.
         25    2    1    2    0    0  0.00000000000E+00  0.00000000000E+00 -0.28520158995E+02  0.12821706097E+03  0.12500486092E+03 0.  0.
    9000005    1    3    3    0    0 -0.61080341621E+02 -0.13214143449E+02 -0.13887292780E+02  0.64025609098E+02  0.10000000000E+01 0.  0.
    9000005    1    3    3    0    0  0.61080341621E+02  0.13214143449E+02 -0.14632866215E+02  0.64191451871E+02  0.10000000000E+01 0.  0.
<mgrwt>
<rscale>  0 0.12500486E+03</rscale>
<asrwt>0</asrwt>
<pdfrwt beam="2">  1        4 0.12056709E-01 0.12500486E+03</pdfrwt>
<pdfrwt beam="1">  1       -4 0.76689924E-02 0.12500486E+03</pdfrwt>
<totfact> 0.10381663E+04</totfact>
</mgrwt>
</event>
<event>
 5    1  0.3294152E-002  0.1250017E+03  0.7818608E-02  0.1235067E+00
          4   -1    0    0  501    0  0.00000000000E+00  0.00000000000E+00  0.72062184067E+02  0.72073374227E+02  0.12700000000E+01 0.  1.
         -4   -1    0    0    0  501 -0.00000000000E+00 -0.00000000000E+00 -0.54185300377E+02  0.54200181522E+02  0.12700000000E+01 0.  1.
         25    2    1    2    0    0  0.00000000000E+00  0.00000000000E+00  0.17876883689E+02  0.12627355575E+03  0.12500171163E+03 0.  0.
    9000005    1    3    3    0    0 -0.48087470192E+02  0.16880339002E+02 -0.27595907337E+02  0.57964512730E+02  0.10000000000E+01 0.  0.
    9000005    1    3    3    0    0  0.48087470192E+02 -0.16880339002E+02  0.45472791027E+02  0.68309043018E+02  0.10000000000E+01 0.  0.
<mgrwt>
<rscale>  0 0.12500171E+03</rscale>
<asrwt>0</asrwt>
<pdfrwt beam="1">  1        4 0.11088495E-01 0.12500171E+03</pdfrwt>
<pdfrwt beam="2">  1       -4 0.83382056E-02 0.12500171E+03</pdfrwt>
<totfact> 0.10424568E+04</totfact>
</mgrwt>
</event>
<event>
 5    1  0.3294152E-002  0.1249982E+03  0.7818608E-02  0.1235072E+00
         -4   -1    0    0    0  501 -0.00000000000E+00  0.00000000000E+00  0.91746116043E+01  0.92620946923E+01  0.12700000000E+01 0.  1.
          4   -1    0    0  501    0  0.00000000000E+00 -0.00000000000E+00 -0.42364636834E+03  0.42364827193E+03  0.12700000000E+01 0.  1.
         25    2    1    2    0    0  0.00000000000E+00  0.00000000000E+00 -0.41447175673E+03  0.43291036662E+03  0.12499819357E+03 0.  0.
    9000005    1    3    3    0    0 -0.27042343754E+02 -0.74051332307E+01 -0.40065652177E+03  0.40163761377E+03  0.10000000000E+01 0.  0.
    9000005    1    3    3    0    0  0.27042343754E+02  0.74051332307E+01 -0.13815234962E+02  0.31272752852E+02  0.10000000000E+01 0.  0.
<mgrwt>
<rscale>  0 0.12499819E+03</rscale>
<asrwt>0</asrwt>
<pdfrwt beam="2">  1        4 0.65183225E-01 0.12499819E+03</pdfrwt>
<pdfrwt beam="1">  1       -4 0.14183549E-02 0.12499819E+03</pdfrwt>
<totfact> 0.61475523E+03</totfact>
</mgrwt>
</event>
<event>
 5    1  0.3294152E-002  0.1250025E+03  0.7818608E-02  0.1235065E+00
          4   -1    0    0  501    0  0.00000000000E+00  0.00000000000E+00  0.11003521194E+02  0.11076568903E+02  0.12700000000E+01 0. -1.
         -4   -1    0    0    0  501 -0.00000000000E+00 -0.00000000000E+00 -0.35376565372E+03  0.35376793333E+03  0.12700000000E+01 0. -1.
         25    2    1    2    0    0  0.00000000000E+00  0.00000000000E+00 -0.34276213253E+03  0.36484450224E+03  0.12500252523E+03 0.  0.
    9000005    1    3    3    0    0 -0.21603946665E+02 -0.27021636527E+02 -0.32327978808E+03  0.32512723776E+03  0.10000000000E+01 0.  0.
    9000005    1    3    3    0    0  0.21603946665E+02  0.27021636527E+02 -0.19482344447E+02  0.39717264473E+02  0.10000000000E+01 0.  0.
<mgrwt>
<rscale>  0 0.12500253E+03</rscale>
<asrwt>0</asrwt>
<pdfrwt beam="1">  1        4 0.16986441E-02 0.12500253E+03</pdfrwt>
<pdfrwt beam="2">  1       -4 0.54431271E-01 0.12500253E+03</pdfrwt>
<totfact> 0.68117970E+03</totfact>
</mgrwt>
</event>
<event>
 5    1  0.3294152E-002  0.1250040E+03  0.7818608E-02  0.1235063E+00
         -4   -1    0    0    0  501 -0.00000000000E+00  0.00000000000E+00  0.41623667823E+03  0.41623861571E+03  0.12700000000E+01 0. -1.
          4   -1    0    0  501    0  0.00000000000E+00 -0.00000000000E+00 -0.93403507590E+01  0.94262957889E+01  0.12700000000E+01 0. -1.
         25    2    1    2    0    0  0.00000000000E+00  0.00000000000E+00  0.40689632747E+03  0.42566491150E+03  0.12500398221E+03 0.  0.
    9000005    1    3    3    0    0  0.36115149425E+02  0.27753423866E+02  0.34915547257E+03  0.35211518084E+03  0.10000000000E+01 0.  0.
    9000005    1    3    3    0    0 -0.36115149425E+02 -0.27753423866E+02  0.57740854904E+02  0.73549730654E+02  0.10000000000E+01 0.  0.
<mgrwt>
<rscale>  0 0.12500398E+03</rscale>
<asrwt>0</asrwt>
<pdfrwt beam="2">  1        4 0.14437372E-02 0.12500398E+03</pdfrwt>
<pdfrwt beam="1">  1       -4 0.64043173E-01 0.12500398E+03</pdfrwt>
<totfact> 0.62125457E+03</totfact>
</mgrwt>
</event>
<event>
 5    1  0.3294152E-002  0.1250018E+03  0.7818608E-02  0.1235066E+00
          4   -1    0    0  501    0  0.00000000000E+00  0.00000000000E+00  0.27405842877E+01  0.30205466787E+01  0.12700000000E+01 0. -1.
         -4   -1    0    0    0  501 -0.00000000000E+00 -0.00000000000E+00 -0.13558290448E+04  0.13558296396E+04  0.12700000000E+01 0. -1.
         25    2    1    2    0    0  0.00000000000E+00  0.00000000000E+00 -0.13530884605E+04  0.13588501863E+04  0.12500178712E+03 0.  0.
    9000005    1    3    3    0    0 -0.45612979861E+02  0.34746080291E+02 -0.40640754486E+03  0.41043382724E+03  0.10000000000E+01 0.  0.
    9000005    1    3    3    0    0  0.45612979861E+02 -0.34746080291E+02 -0.94668091565E+03  0.94841635903E+03  0.10000000000E+01 0.  0.
<mgrwt>
<rscale>  0 0.12500179E+03</rscale>
<asrwt>0</asrwt>
<pdfrwt beam="1">  1        4 0.44321076E-03 0.12500179E+03</pdfrwt>
<pdfrwt beam="2">  1       -4 0.20861016E+00 0.12500179E+03</pdfrwt>
<totfact> 0.20879873E+03</totfact>
</mgrwt>
</event>
<event>
 5    1  0.3294152E-002  0.1250034E+03  0.7818608E-02  0.1235064E+00
         -4   -1    0    0    0  501 -0.00000000000E+00  0.00000000000E+00  0.17951188988E+02  0.17996057515E+02  0.12700000000E+01 0.  1.
          4   -1    0    0  501    0  0.00000000000E+00 -0.00000000000E+00 -0.21729749342E+03  0.21730120466E+03  0.12700000000E+01 0.  1.
         25    2    1    2    0    0  0.00000000000E+00  0.00000000000E+00 -0.19934630443E+03  0.23529726217E+03  0.12500340994E+03 0.  0.
    9000005    1    3    3    0    0  0.18750737677E+02  0.59489068170E+02 -0.10694481430E+03  0.12380925935E+03  0.10000000000E+01 0.  0.
    9000005    1    3    3    0    0 -0.18750737677E+02 -0.59489068170E+02 -0.92401490126E+02  0.11148800282E+03  0.10000000000E+01 0.  0.
<mgrwt>
<rscale>  0 0.12500341E+03</rscale>
<asrwt>0</asrwt>
<pdfrwt beam="2">  1        4 0.33434119E-01 0.12500341E+03</pdfrwt>
<pdfrwt beam="1">  1       -4 0.27654584E-02 0.12500341E+03</pdfrwt>
<totfact> 0.84496354E+03</totfact>
</mgrwt>
</event>
<event>
 5    1  0.3294152E-002  0.1249958E+03  0.7818608E-02  0.1235076E+00
         -4   -1    0    0    0  501 -0.00000000000E+00  0.00000000000E+00  0.17916795503E+02  0.17961749945E+02  0.12700000000E+01 0. -1.
          4   -1    0    0  501    0  0.00000000000E+00 -0.00000000000E+00 -0.21768697143E+03  0.21769067603E+03  0.12700000000E+01 0. -1.
         25    2    1    2    0    0  0.00000000000E+00  0.00000000000E+00 -0.19977017593E+03  0.23565242597E+03  0.12499577064E+03 0.  0.
    9000005    1    3    3    0    0  0.61022048379E+02 -0.54464292836E+01 -0.76669933209E+02  0.98145976171E+02  0.10000000000E+01 0.  0.
    9000005    1    3    3    0    0 -0.61022048379E+02  0.54464292836E+01 -0.12310024272E+03  0.13750644980E+03  0.10000000000E+01 0.  0.
<mgrwt>
<rscale>  0 0.12499577E+03</rscale>
<asrwt>0</asrwt>
<pdfrwt beam="2">  1        4 0.33494044E-01 0.12499577E+03</pdfrwt>
<pdfrwt beam="1">  1       -4 0.27601732E-02 0.12499577E+03</pdfrwt>
<totfact> 0.84457118E+03</totfact>
</mgrwt>
</event>
<event>
 5    1  0.3294152E-002  0.1249903E+03  0.7818608E-02  0.1235085E+00
         -4   -1    0    0    0  501 -0.00000000000E+00  0.00000000000E+00  0.55538970431E+03  0.55539115636E+03  0.12700000000E+01 0.  1.
          4   -1    0    0  501    0  0.00000000000E+00 -0.00000000000E+00 -0.69734403881E+01  0.70881429758E+01  0.12700000000E+01 0.  1.
         25    2    1    2    0    0  0.00000000000E+00  0.00000000000E+00  0.54841626393E+03  0.56247929933E+03  0.12499025417E+03 0.  0.
    9000005    1    3    3    0    0 -0.61907346069E+02  0.76657240494E+01  0.25776053231E+03  0.26520327080E+03  0.10000000000E+01 0.  0.
    9000005    1    3    3    0    0  0.61907346069E+02 -0.76657240494E+01  0.29065573161E+03  0.29727602853E+03  0.10000000000E+01 0.  0.
<mgrwt>
<rscale>  0 0.12499025E+03</rscale>
<asrwt>0</asrwt>
<pdfrwt beam="2">  1        4 0.10817717E-02 0.12499025E+03</pdfrwt>
<pdfrwt beam="1">  1       -4 0.85453522E-01 0.12499025E+03</pdfrwt>
<totfact> 0.51336013E+03</totfact>
</mgrwt>
</event>
<event>
 5    1  0.3294152E-002  0.1249992E+03  0.7818608E-02  0.1235071E+00
          4   -1    0    0  501    0  0.00000000000E+00  0.00000000000E+00  0.70188506879E+03  0.70188621777E+03  0.12700000000E+01 0.  1.
         -4   -1    0    0    0  501 -0.00000000000E+00 -0.00000000000E+00 -0.54916780626E+01  0.56366149366E+01  0.12700000000E+01 0.  1.
         25    2    1    2    0    0  0.00000000000E+00  0.00000000000E+00  0.69639339073E+03  0.70752283270E+03  0.12499921659E+03 0.  0.
    9000005    1    3    3    0    0  0.12240569091E+02  0.15844529593E+02  0.13127061445E+02  0.23962478834E+02  0.10000000000E+01 0.  0.
    9000005    1    3    3    0    0 -0.12240569091E+02 -0.15844529593E+02  0.68326632928E+03  0.68356035387E+03  0.10000000000E+01 0.  0.
<mgrwt>
<rscale>  0 0.12499922E+03</rscale>
<asrwt>0</asrwt>
<pdfrwt beam="1">  1        4 0.10799360E+00 0.12499922E+03</pdfrwt>
<pdfrwt beam="2">  1       -4 0.85611055E-03 0.12499922E+03</pdfrwt>
<totfact> 0.42693256E+03</totfact>
</mgrwt>
</event>
<event>
 5    1  0.3294152E-002  0.1249993E+03  0.7818608E-02  0.1235070E+00
          4   -1    0    0  501    0  0.00000000000E+00  0.00000000000E+00  0.33579363209E+03  0.33579603370E+03  0.12700000000E+01 0.  1.
         -4   -1    0    0    0  501 -0.00000000000E+00 -0.00000000000E+00 -0.11595636970E+02  0.11664977357E+02  0.12700000000E+01 0.  1.
         25    2    1    2    0    0  0.00000000000E+00  0.00000000000E+00  0.32419799512E+03  0.34746101106E+03  0.12499925667E+03 0.  0.
    9000005    1    3    3    0    0  0.15449784174E+02  0.58175323000E+02  0.11540827460E+03  0.13016579383E+03  0.10000000000E+01 0.  0.
    9000005    1    3    3    0    0 -0.15449784174E+02 -0.58175323000E+02  0.20878972052E+03  0.21729521723E+03  0.10000000000E+01 0.  0.
<mgrwt>
<rscale>  0 0.12499926E+03</rscale>
<asrwt>0</asrwt>
<pdfrwt beam="1">  1        4 0.51666071E-01 0.12499926E+03</pdfrwt>
<pdfrwt beam="2">  1       -4 0.17894630E-02 0.12499926E+03</pdfrwt>
<totfact> 0.70005936E+03</totfact>
</mgrwt>
</event>
<event>
 5    1  0.3294152E-002  0.1250044E+03  0.7818608E-02  0.1235062E+00
         -4   -1    0    0    0  501 -0.00000000000E+00  0.00000000000E+00  0.94308067993E+02  0.94316618835E+02  0.12700000000E+01 0. -1.
          4   -1    0    0  501    0  0.00000000000E+00 -0.00000000000E+00 -0.41402875933E+02  0.41422349469E+02  0.12700000000E+01 0. -1.
         25    2    1    2    0    0  0.00000000000E+00  0.00000000000E+00  0.52905192059E+02  0.13573896830E+03  0.12500443260E+03 0.  0.
    9000005    1    3    3    0    0 -0.36728088424E+02  0.50447514591E+02  0.22750606704E+02  0.66426608472E+02  0.10000000000E+01 0.  0.
    9000005    1    3    3    0    0  0.36728088424E+02 -0.50447514591E+02  0.30154585355E+02  0.69312359833E+02  0.10000000000E+01 0.  0.
<mgrwt>
<rscale>  0 0.12500443E+03</rscale>
<asrwt>0</asrwt>
<pdfrwt beam="2">  1        4 0.63718290E-02 0.12500443E+03</pdfrwt>
<pdfrwt beam="1">  1       -4 0.14511089E-01 0.12500443E+03</pdfrwt>
<totfact> 0.10221497E+04</totfact>
</mgrwt>
</event>
<event>
 5    1  0.3294152E-002  0.1249949E+03  0.7818608E-02  0.1235077E+00
         -4   -1    0    0    0  501 -0.00000000000E+00  0.00000000000E+00  0.78850103421E+01  0.79866318367E+01  0.12700000000E+01 0. -1.
          4   -1    0    0  501    0  0.00000000000E+00 -0.00000000000E+00 -0.49208733680E+03  0.49208897564E+03  0.12700000000E+01 0. -1.
         25    2    1    2    0    0  0.00000000000E+00  0.00000000000E+00 -0.48420232646E+03  0.50007560747E+03  0.12499488085E+03 0.  0.
    9000005    1    3    3    0    0  0.30476400636E+02  0.47815990889E+02 -0.13702860076E+03  0.14830042955E+03  0.10000000000E+01 0.  0.
    9000005    1    3    3    0    0 -0.30476400636E+02 -0.47815990889E+02 -0.34717372571E+03  0.35177517792E+03  0.10000000000E+01 0.  0.
<mgrwt>
<rscale>  0 0.12499488E+03</rscale>
<asrwt>0</asrwt>
<pdfrwt beam="2">  1        4 0.75713663E-01 0.12499488E+03</pdfrwt>
<pdfrwt beam="1">  1       -4 0.12210220E-02 0.12499488E+03</pdfrwt>
<totfact> 0.55864799E+03</totfact>
</mgrwt>
</event>
<event>
 5    1  0.3294152E-002  0.1250000E+03  0.7818608E-02  0.1235069E+00
         -4   -1    0    0    0  501 -0.00000000000E+00  0.00000000000E+00  0.63565772652E+02  0.63578458245E+02  0.12700000000E+01 0. -1.
          4   -1    0    0  501    0  0.00000000000E+00 -0.00000000000E+00 -0.61426742968E+02  0.61439870212E+02  0.12700000000E+01 0. -1.
         25    2    1    2    0    0  0.00000000000E+00  0.00000000000E+00  0.21390296836E+01  0.12501832846E+03  0.12500002801E+03 0.  0.
    9000005    1    3    3    0    0  0.42646931523E+01 -0.49514831012E+02 -0.36821987674E+02  0.61860850900E+02  0.10000000000E+01 0.  0.
    9000005    1    3    3    0    0 -0.42646931523E+01  0.49514831012E+02  0.38961017358E+02  0.63157477557E+02  0.10000000000E+01 0.  0.
<mgrwt>
<rscale>  0 0.12500003E+03</rscale>
<asrwt>0</asrwt>
<pdfrwt beam="2">  1        4 0.94522538E-02 0.12500003E+03</pdfrwt>
<pdfrwt beam="1">  1       -4 0.97813352E-02 0.12500003E+03</pdfrwt>
<totfact> 0.10452458E+04</totfact>
</mgrwt>
</event>
<event>
 5    1  0.3294152E-002  0.1250037E+03  0.7818608E-02  0.1235064E+00
          4   -1    0    0  501    0  0.00000000000E+00  0.00000000000E+00  0.19312479048E+02  0.19354191975E+02  0.12700000000E+01 0.  1.
         -4   -1    0    0    0  501 -0.00000000000E+00 -0.00000000000E+00 -0.20201554691E+03  0.20201953889E+03  0.12700000000E+01 0.  1.
         25    2    1    2    0    0  0.00000000000E+00  0.00000000000E+00 -0.18270306786E+03  0.22137373087E+03  0.12500367079E+03 0.  0.
    9000005    1    3    3    0    0 -0.15367286160E+02 -0.49198246284E+02 -0.28768021169E+02  0.59035751569E+02  0.10000000000E+01 0.  0.
    9000005    1    3    3    0    0  0.15367286160E+02  0.49198246284E+02 -0.15393504670E+03  0.16233797930E+03  0.10000000000E+01 0.  0.
<mgrwt>
<rscale>  0 0.12500367E+03</rscale>
<asrwt>0</asrwt>
<pdfrwt beam="1">  1        4 0.29746665E-02 0.12500367E+03</pdfrwt>
<pdfrwt beam="2">  1       -4 0.31082829E-01 0.12500367E+03</pdfrwt>
<totfact> 0.86644337E+03</totfact>
</mgrwt>
</event>
<event>
 5    1  0.3294152E-002  0.1250001E+03  0.7818608E-02  0.1235069E+00
         -4   -1    0    0    0  501 -0.00000000000E+00  0.00000000000E+00  0.21144256076E+02  0.21182362121E+02  0.12700000000E+01 0. -1.
          4   -1    0    0  501    0  0.00000000000E+00 -0.00000000000E+00 -0.18453659707E+03  0.18454096715E+03  0.12700000000E+01 0. -1.
         25    2    1    2    0    0  0.00000000000E+00  0.00000000000E+00 -0.16339234099E+03  0.20572332928E+03  0.12500012445E+03 0.  0.
    9000005    1    3    3    0    0 -0.42393484937E+02  0.44558191594E+02 -0.63471914219E+02  0.88387351459E+02  0.10000000000E+01 0.  0.
    9000005    1    3    3    0    0  0.42393484937E+02 -0.44558191594E+02 -0.99920426775E+02  0.11733597782E+03  0.10000000000E+01 0.  0.
<mgrwt>
<rscale>  0 0.12500012E+03</rscale>
<asrwt>0</asrwt>
<pdfrwt beam="2">  1        4 0.28393512E-01 0.12500012E+03</pdfrwt>
<pdfrwt beam="1">  1       -4 0.32562300E-02 0.12500012E+03</pdfrwt>
<totfact> 0.89178867E+03</totfact>
</mgrwt>
</event>
<event>
 5    1  0.3294152E-002  0.1250287E+03  0.7818608E-02  0.1235024E+00
          4   -1    0    0  501    0  0.00000000000E+00  0.00000000000E+00  0.83647194016E+01  0.84605809887E+01  0.12700000000E+01 0.  1.
         -4   -1    0    0    0  501 -0.00000000000E+00 -0.00000000000E+00 -0.46444734212E+03  0.46444907848E+03  0.12700000000E+01 0.  1.
         25    2    1    2    0    0  0.00000000000E+00  0.00000000000E+00 -0.45608262272E+03  0.47290965947E+03  0.12502874579E+03 0.  0.
    9000005    1    3    3    0    0 -0.45224534629E+02  0.18115736384E+02 -0.79917271970E+02  0.93601329031E+02  0.10000000000E+01 0.  0.
    9000005    1    3    3    0    0  0.45224534629E+02 -0.18115736384E+02 -0.37616535075E+03  0.37930833044E+03  0.10000000000E+01 0.  0.
<mgrwt>
<rscale>  0 0.12502875E+03</rscale>
<asrwt>0</asrwt>
<pdfrwt beam="1">  1        4 0.12943878E-02 0.12502875E+03</pdfrwt>
<pdfrwt beam="2">  1       -4 0.71460925E-01 0.12502875E+03</pdfrwt>
<totfact> 0.57992574E+03</totfact>
</mgrwt>
</event>
<event>
 5    1  0.3294152E-002  0.1250058E+03  0.7818608E-02  0.1235060E+00
          4   -1    0    0  501    0  0.00000000000E+00  0.00000000000E+00  0.18297171568E+04  0.18297175976E+04  0.12700000000E+01 0.  1.
         -4   -1    0    0    0  501 -0.00000000000E+00 -0.00000000000E+00 -0.19457562189E+01  0.23235462688E+01  0.12700000000E+01 0.  1.
         25    2    1    2    0    0  0.00000000000E+00  0.00000000000E+00  0.18277714006E+04  0.18320411438E+04  0.12500583933E+03 0.  0.
    9000005    1    3    3    0    0 -0.52026377517E+02  0.33055912112E+02  0.10649012075E+04  0.10666841233E+04  0.10000000000E+01 0.  0.
    9000005    1    3    3    0    0  0.52026377517E+02 -0.33055912112E+02  0.76287019314E+03  0.76535702053E+03  0.10000000000E+01 0.  0.
<mgrwt>
<rscale>  0 0.12500584E+03</rscale>
<asrwt>0</asrwt>
<pdfrwt beam="1">  1        4 0.28152334E+00 0.12500584E+03</pdfrwt>
<pdfrwt beam="2">  1       -4 0.32844261E-03 0.12500584E+03</pdfrwt>
<totfact> 0.12214797E+03</totfact>
</mgrwt>
</event>
<event>
 5    1  0.3294152E-002  0.1249942E+03  0.7818608E-02  0.1235078E+00
         -4   -1    0    0    0  501 -0.00000000000E+00  0.00000000000E+00  0.73815415333E+02  0.73826339749E+02  0.12700000000E+01 0. -1.
          4   -1    0    0  501    0  0.00000000000E+00 -0.00000000000E+00 -0.52891803726E+02  0.52907048692E+02  0.12700000000E+01 0. -1.
         25    2    1    2    0    0  0.00000000000E+00  0.00000000000E+00  0.20923611607E+02  0.12673338844E+03  0.12499421676E+03 0.  0.
    9000005    1    3    3    0    0 -0.36802768886E+02 -0.48839346890E+02  0.23492196794E+02  0.65518004491E+02  0.10000000000E+01 0.  0.
    9000005    1    3    3    0    0  0.36802768886E+02  0.48839346890E+02 -0.25685851870E+01  0.61215383950E+02  0.10000000000E+01 0.  0.
<mgrwt>
<rscale>  0 0.12499422E+03</rscale>
<asrwt>0</asrwt>
<pdfrwt beam="2">  1        4 0.81392137E-02 0.12499422E+03</pdfrwt>
<pdfrwt beam="1">  1       -4 0.11358231E-01 0.12499422E+03</pdfrwt>
<totfact> 0.10416303E+04</totfact>
</mgrwt>
</event>
<event>
 5    1  0.3294152E-002  0.1249977E+03  0.7818608E-02  0.1235073E+00
          4   -1    0    0  501    0  0.00000000000E+00  0.00000000000E+00  0.38742175631E+02  0.38762985858E+02  0.12700000000E+01 0.  1.
         -4   -1    0    0    0  501 -0.00000000000E+00 -0.00000000000E+00 -0.10077123279E+03  0.10077923525E+03  0.12700000000E+01 0.  1.
         25    2    1    2    0    0  0.00000000000E+00  0.00000000000E+00 -0.62029057159E+02  0.13954222111E+03  0.12499771014E+03 0.  0.
    9000005    1    3    3    0    0 -0.50110926321E+02 -0.25784574355E+02 -0.61159459959E+02  0.83171081236E+02  0.10000000000E+01 0.  0.
    9000005    1    3    3    0    0  0.50110926321E+02  0.25784574355E+02 -0.86959720010E+00  0.56371139874E+02  0.10000000000E+01 0.  0.
<mgrwt>
<rscale>  0 0.12499771E+03</rscale>
<asrwt>0</asrwt>
<pdfrwt beam="1">  1        4 0.59625511E-02 0.12499771E+03</pdfrwt>
<pdfrwt beam="2">  1       -4 0.15505483E-01 0.12499771E+03</pdfrwt>
<totfact> 0.10143606E+04</totfact>
</mgrwt>
</event>
<event>
 5    1  0.3294152E-002  0.1250021E+03  0.7818608E-02  0.1235066E+00
          4   -1    0    0  501    0  0.00000000000E+00  0.00000000000E+00  0.74394387685E+03  0.74394496087E+03  0.12700000000E+01 0. -1.
         -4   -1    0    0    0  501 -0.00000000000E+00 -0.00000000000E+00 -0.51730153703E+01  0.53266300811E+01  0.12700000000E+01 0. -1.
         25    2    1    2    0    0  0.00000000000E+00  0.00000000000E+00  0.73877086148E+03  0.74927159095E+03  0.12500212492E+03 0.  0.
    9000005    1    3    3    0    0 -0.15012712867E+02 -0.44930217869E+02  0.12507451668E+03  0.13374879718E+03  0.10000000000E+01 0.  0.
    9000005    1    3    3    0    0  0.15012712867E+02  0.44930217869E+02  0.61369634480E+03  0.61552279377E+03  0.10000000000E+01 0.  0.
<mgrwt>
<rscale>  0 0.12500212E+03</rscale>
<asrwt>0</asrwt>
<pdfrwt beam="1">  1        4 0.11446480E+00 0.12500212E+03</pdfrwt>
<pdfrwt beam="2">  1       -4 0.80774844E-03 0.12500212E+03</pdfrwt>
<totfact> 0.40607112E+03</totfact>
</mgrwt>
</event>
<event>
 5    1  0.3294152E-002  0.1249998E+03  0.7818608E-02  0.1235070E+00
          4   -1    0    0  501    0  0.00000000000E+00  0.00000000000E+00  0.30167243977E+01  0.32731523172E+01  0.12700000000E+01 0. -1.
         -4   -1    0    0    0  501 -0.00000000000E+00 -0.00000000000E+00 -0.12418148113E+04  0.12418154607E+04  0.12700000000E+01 0. -1.
         25    2    1    2    0    0  0.00000000000E+00  0.00000000000E+00 -0.12387980869E+04  0.12450886130E+04  0.12499981673E+03 0.  0.
    9000005    1    3    3    0    0  0.12481283492E+02 -0.44718716022E+02 -0.20274868884E+03  0.20799898275E+03  0.10000000000E+01 0.  0.
    9000005    1    3    3    0    0 -0.12481283492E+02  0.44718716022E+02 -0.10360493980E+04  0.10370896303E+04  0.10000000000E+01 0.  0.
<mgrwt>
<rscale>  0 0.12499982E+03</rscale>
<asrwt>0</asrwt>
<pdfrwt beam="1">  1        4 0.48388761E-03 0.12499982E+03</pdfrwt>
<pdfrwt beam="2">  1       -4 0.19106782E+00 0.12499982E+03</pdfrwt>
<totfact> 0.23562258E+03</totfact>
</mgrwt>
</event>
<event>
 5    1  0.3294152E-002  0.1249941E+03  0.7818608E-02  0.1235079E+00
         -4   -1    0    0    0  501 -0.00000000000E+00  0.00000000000E+00  0.12736587045E+03  0.12737220205E+03  0.12700000000E+01 0.  1.
          4   -1    0    0  501    0  0.00000000000E+00 -0.00000000000E+00 -0.30646354871E+02  0.30672658295E+02  0.12700000000E+01 0.  1.
         25    2    1    2    0    0  0.00000000000E+00  0.00000000000E+00  0.96719515574E+02  0.15804486034E+03  0.12499405261E+03 0.  0.
    9000005    1    3    3    0    0  0.18440881845E+02  0.37336413575E+02 -0.10551917624E+02  0.42969953076E+02  0.10000000000E+01 0.  0.
    9000005    1    3    3    0    0 -0.18440881845E+02 -0.37336413575E+02  0.10727143320E+03  0.11507490727E+03  0.10000000000E+01 0.  0.
<mgrwt>
<rscale>  0 0.12499405E+03</rscale>
<asrwt>0</asrwt>
<pdfrwt beam="2">  1        4 0.47173342E-02 0.12499405E+03</pdfrwt>
<pdfrwt beam="1">  1       -4 0.19597260E-01 0.12499405E+03</pdfrwt>
<totfact> 0.97734117E+03</totfact>
</mgrwt>
</event>
<event>
 5    1  0.3294152E-002  0.1250014E+03  0.7818608E-02  0.1235067E+00
         -4   -1    0    0    0  501 -0.00000000000E+00  0.00000000000E+00  0.10286603722E+02  0.10364705308E+02  0.12700000000E+01 0.  1.
          4   -1    0    0  501    0  0.00000000000E+00 -0.00000000000E+00 -0.37823484004E+03  0.37823697218E+03  0.12700000000E+01 0.  1.
         25    2    1    2    0    0  0.00000000000E+00  0.00000000000E+00 -0.36794823632E+03  0.38860167749E+03  0.12500143652E+03 0.  0.
    9000005    1    3    3    0    0  0.24049693580E+02  0.54183931532E+02 -0.12249780656E+03  0.13609187635E+03  0.10000000000E+01 0.  0.
    9000005    1    3    3    0    0 -0.24049693580E+02 -0.54183931532E+02 -0.24545042977E+03  0.25250980114E+03  0.10000000000E+01 0.  0.
<mgrwt>
<rscale>  0 0.12500144E+03</rscale>
<asrwt>0</asrwt>
<pdfrwt beam="2">  1        4 0.58196137E-01 0.12500144E+03</pdfrwt>
<pdfrwt beam="1">  1       -4 0.15887265E-02 0.12500144E+03</pdfrwt>
<totfact> 0.65674602E+03</totfact>
</mgrwt>
</event>
<event>
 5    1  0.3294152E-002  0.1250002E+03  0.7818608E-02  0.1235069E+00
         -4   -1    0    0    0  501 -0.00000000000E+00  0.00000000000E+00  0.10173149469E+02  0.10252115398E+02  0.12700000000E+01 0. -1.
          4   -1    0    0  501    0  0.00000000000E+00 -0.00000000000E+00 -0.38241341013E+03  0.38241551897E+03  0.12700000000E+01 0. -1.
         25    2    1    2    0    0  0.00000000000E+00  0.00000000000E+00 -0.37224026066E+03  0.39266763437E+03  0.12500023768E+03 0.  0.
    9000005    1    3    3    0    0 -0.11797374355E+02  0.58146841270E+02 -0.12448015017E+03  0.13790047490E+03  0.10000000000E+01 0.  0.
    9000005    1    3    3    0    0  0.11797374355E+02 -0.58146841270E+02 -0.24776011049E+03  0.25476715947E+03  0.10000000000E+01 0.  0.
<mgrwt>
<rscale>  0 0.12500024E+03</rscale>
<asrwt>0</asrwt>
<pdfrwt beam="2">  1        4 0.58839058E-01 0.12500024E+03</pdfrwt>
<pdfrwt beam="1">  1       -4 0.15713367E-02 0.12500024E+03</pdfrwt>
<totfact> 0.65271891E+03</totfact>
</mgrwt>
</event>
<event>
 5    1  0.3294152E-002  0.1249988E+03  0.7818608E-02  0.1235071E+00
          4   -1    0    0  501    0  0.00000000000E+00  0.00000000000E+00  0.69309587920E+02  0.69321222419E+02  0.12700000000E+01 0.  1.
         -4   -1    0    0    0  501 -0.00000000000E+00 -0.00000000000E+00 -0.56334821556E+02  0.56349135040E+02  0.12700000000E+01 0.  1.
         25    2    1    2    0    0  0.00000000000E+00  0.00000000000E+00  0.12974766364E+02  0.12567035746E+03  0.12499877672E+03 0.  0.
    9000005    1    3    3    0    0  0.22466777070E+02 -0.43071525899E+02  0.46008392529E+02  0.66915503422E+02  0.10000000000E+01 0.  0.
    9000005    1    3    3    0    0 -0.22466777070E+02  0.43071525899E+02 -0.33033626165E+02  0.58754854036E+02  0.10000000000E+01 0.  0.
<mgrwt>
<rscale>  0 0.12499878E+03</rscale>
<asrwt>0</asrwt>
<pdfrwt beam="1">  1        4 0.10665009E-01 0.12499878E+03</pdfrwt>
<pdfrwt beam="2">  1       -4 0.86688917E-02 0.12499878E+03</pdfrwt>
<totfact> 0.10438485E+04</totfact>
</mgrwt>
</event>
<event>
 5    1  0.3294152E-002  0.1249961E+03  0.7818608E-02  0.1235075E+00
         -4   -1    0    0    0  501 -0.00000000000E+00  0.00000000000E+00  0.24157522852E+03  0.24157856680E+03  0.12700000000E+01 0.  1.
          4   -1    0    0  501    0  0.00000000000E+00 -0.00000000000E+00 -0.16140496463E+02  0.16190383753E+02  0.12700000000E+01 0.  1.
         25    2    1    2    0    0  0.00000000000E+00  0.00000000000E+00  0.22543473206E+03  0.25776895055E+03  0.12499605373E+03 0.  0.
    9000005    1    3    3    0    0 -0.41563110311E+02  0.33704643157E+02  0.17927006296E+03  0.18708888418E+03  0.10000000000E+01 0.  0.
    9000005    1    3    3    0    0  0.41563110311E+02 -0.33704643157E+02  0.46164669093E+02  0.70680066367E+02  0.10000000000E+01 0.  0.
<mgrwt>
<rscale>  0 0.12499605E+03</rscale>
<asrwt>0</asrwt>
<pdfrwt beam="2">  1        4 0.24872475E-02 0.12499605E+03</pdfrwt>
<pdfrwt beam="1">  1       -4 0.37169516E-01 0.12499605E+03</pdfrwt>
<totfact> 0.81227314E+03</totfact>
</mgrwt>
</event>
<event>
 5    1  0.3294152E-002  0.1249974E+03  0.7818608E-02  0.1235073E+00
          4   -1    0    0  501    0  0.00000000000E+00  0.00000000000E+00  0.46180072034E+02  0.46197531894E+02  0.12700000000E+01 0. -1.
         -4   -1    0    0    0  501 -0.00000000000E+00 -0.00000000000E+00 -0.84545681345E+02  0.84555219437E+02  0.12700000000E+01 0. -1.
         25    2    1    2    0    0  0.00000000000E+00  0.00000000000E+00 -0.38365609310E+02  0.13075275133E+03  0.12499744799E+03 0.  0.
    9000005    1    3    3    0    0 -0.64870097125E+01  0.13440765895E+02  0.44293628965E+02  0.46751053996E+02  0.10000000000E+01 0.  0.
    9000005    1    3    3    0    0  0.64870097125E+01 -0.13440765895E+02 -0.82659238276E+02  0.84001697335E+02  0.10000000000E+01 0.  0.
<mgrwt>
<rscale>  0 0.12499745E+03</rscale>
<asrwt>0</asrwt>
<pdfrwt beam="1">  1        4 0.71067032E-02 0.12499745E+03</pdfrwt>
<pdfrwt beam="2">  1       -4 0.13009105E-01 0.12499745E+03</pdfrwt>
<totfact> 0.10328987E+04</totfact>
</mgrwt>
</event>
<event>
 5    1  0.3294152E-002  0.1249985E+03  0.7818608E-02  0.1235072E+00
          4   -1    0    0  501    0  0.00000000000E+00  0.00000000000E+00  0.12077763596E+03  0.12078431292E+03  0.12700000000E+01 0.  1.
         -4   -1    0    0    0  501 -0.00000000000E+00 -0.00000000000E+00 -0.32321700183E+02  0.32346641290E+02  0.12700000000E+01 0.  1.
         25    2    1    2    0    0  0.00000000000E+00  0.00000000000E+00  0.88455935776E+02  0.15313095421E+03  0.12499854625E+03 0.  0.
    9000005    1    3    3    0    0  0.13033294204E+02 -0.60218462893E+02  0.31436238599E+02  0.69176348041E+02  0.10000000000E+01 0.  0.
    9000005    1    3    3    0    0 -0.13033294204E+02  0.60218462893E+02  0.57019697177E+02  0.83954606170E+02  0.10000000000E+01 0.  0.
<mgrwt>
<rscale>  0 0.12499855E+03</rscale>
<asrwt>0</asrwt>
<pdfrwt beam="1">  1        4 0.18583607E-01 0.12499855E+03</pdfrwt>
<pdfrwt beam="2">  1       -4 0.49750014E-02 0.12499855E+03</pdfrwt>
<totfact> 0.98686438E+03</totfact>
</mgrwt>
</event>
<event>
 5    1  0.3294152E-002  0.1249995E+03  0.7818608E-02  0.1235070E+00
          4   -1    0    0  501    0  0.00000000000E+00  0.00000000000E+00  0.75437715609E+03  0.75437822512E+03  0.12700000000E+01 0. -1.
         -4   -1    0    0    0  501 -0.00000000000E+00 -0.00000000000E+00 -0.50991120979E+01  0.52548876474E+01  0.12700000000E+01 0. -1.
         25    2    1    2    0    0  0.00000000000E+00  0.00000000000E+00  0.74927804399E+03  0.75963311277E+03  0.12499951520E+03 0.  0.
    9000005    1    3    3    0    0  0.56679399072E+02 -0.51648449648E+01  0.53146909583E+03  0.53450877423E+03  0.10000000000E+01 0.  0.
    9000005    1    3    3    0    0 -0.56679399072E+02  0.51648449648E+01  0.21780894816E+03  0.22512433854E+03  0.10000000000E+01 0.  0.
<mgrwt>
<rscale>  0 0.12499952E+03</rscale>
<asrwt>0</asrwt>
<pdfrwt beam="1">  1        4 0.11607002E+00 0.12499952E+03</pdfrwt>
<pdfrwt beam="2">  1       -4 0.79654420E-03 0.12499952E+03</pdfrwt>
<totfact> 0.40118015E+03</totfact>
</mgrwt>
</event>
<event>
 5    1  0.3294152E-002  0.1249942E+03  0.7818608E-02  0.1235078E+00
         -4   -1    0    0    0  501 -0.00000000000E+00  0.00000000000E+00  0.79166182507E+03  0.79166284375E+03  0.12700000000E+01 0.  1.
          4   -1    0    0  501    0  0.00000000000E+00 -0.00000000000E+00 -0.48510192356E+01  0.50145077151E+01  0.12700000000E+01 0.  1.
         25    2    1    2    0    0  0.00000000000E+00  0.00000000000E+00  0.78681080583E+03  0.79667735146E+03  0.12499423250E+03 0.  0.
    9000005    1    3    3    0    0 -0.18578832053E+02 -0.31480699509E+02  0.71643898714E+03  0.71737161202E+03  0.10000000000E+01 0.  0.
    9000005    1    3    3    0    0  0.18578832053E+02  0.31480699509E+02  0.70371818695E+02  0.79305739442E+02  0.10000000000E+01 0.  0.
<mgrwt>
<rscale>  0 0.12499423E+03</rscale>
<asrwt>0</asrwt>
<pdfrwt beam="2">  1        4 0.75896549E-03 0.12499423E+03</pdfrwt>
<pdfrwt beam="1">  1       -4 0.12180671E+00 0.12499423E+03</pdfrwt>
<totfact> 0.38418348E+03</totfact>
</mgrwt>
</event>
<event>
 5    1  0.3294152E-002  0.1250014E+03  0.7818608E-02  0.1235067E+00
          4   -1    0    0  501    0  0.00000000000E+00  0.00000000000E+00  0.21839703917E+02  0.21876598620E+02  0.12700000000E+01 0. -1.
         -4   -1    0    0    0  501 -0.00000000000E+00 -0.00000000000E+00 -0.17867401882E+03  0.17867853229E+03  0.12700000000E+01 0. -1.
         25    2    1    2    0    0  0.00000000000E+00  0.00000000000E+00 -0.15683431491E+03  0.20055513091E+03  0.12500143281E+03 0.  0.
    9000005    1    3    3    0    0 -0.38102940528E+02 -0.41693948999E+02 -0.35512120936E+02  0.66725783573E+02  0.10000000000E+01 0.  0.
    9000005    1    3    3    0    0  0.38102940528E+02  0.41693948999E+02 -0.12132219397E+03  0.13382934734E+03  0.10000000000E+01 0.  0.
<mgrwt>
<rscale>  0 0.12500143E+03</rscale>
<asrwt>0</asrwt>
<pdfrwt beam="1">  1        4 0.33631398E-02 0.12500143E+03</pdfrwt>
<pdfrwt beam="2">  1       -4 0.27491495E-01 0.12500143E+03</pdfrwt>
<totfact> 0.90039077E+03</totfact>
</mgrwt>
</event>
<event>
 5    1  0.3294152E-002  0.1249858E+03  0.7818608E-02  0.1235091E+00
         -4   -1    0    0    0  501 -0.00000000000E+00  0.00000000000E+00  0.49261048912E+03  0.49261212621E+03  0.12700000000E+01 0. -1.
          4   -1    0    0  501    0  0.00000000000E+00 -0.00000000000E+00 -0.78753701907E+01  0.79771144934E+01  0.12700000000E+01 0. -1.
         25    2    1    2    0    0  0.00000000000E+00  0.00000000000E+00  0.48473511893E+03  0.50058924071E+03  0.12498580874E+03 0.  0.
    9000005    1    3    3    0    0 -0.60816407907E+02  0.50274407032E+01  0.29617002981E+03  0.30239311697E+03  0.10000000000E+01 0.  0.
    9000005    1    3    3    0    0  0.60816407907E+02 -0.50274407032E+01  0.18856508912E+03  0.19819612374E+03  0.10000000000E+01 0.  0.
<mgrwt>
<rscale>  0 0.12498581E+03</rscale>
<asrwt>0</asrwt>
<pdfrwt beam="2">  1        4 0.12195481E-02 0.12498581E+03</pdfrwt>
<pdfrwt beam="1">  1       -4 0.75794168E-01 0.12498581E+03</pdfrwt>
<totfact> 0.55836104E+03</totfact>
</mgrwt>
</event>
<event>
 5    1  0.3294152E-002  0.1249873E+03  0.7818608E-02  0.1235089E+00
         -4   -1    0    0    0  501 -0.00000000000E+00  0.00000000000E+00  0.44700941172E+03  0.44701121582E+03  0.12700000000E+01 0.  1.
          4   -1    0    0  501    0  0.00000000000E+00 -0.00000000000E+00 -0.86888777497E+01  0.87812013158E+01  0.12700000000E+01 0.  1.
         25    2    1    2    0    0  0.00000000000E+00  0.00000000000E+00  0.43832053397E+03  0.45579241713E+03  0.12498734742E+03 0.  0.
    9000005    1    3    3    0    0  0.56443824179E+02 -0.19902424332E+02  0.15367697073E+03  0.16492308242E+03  0.10000000000E+01 0.  0.
    9000005    1    3    3    0    0 -0.56443824179E+02  0.19902424332E+02  0.28464356324E+03  0.29086933471E+03  0.10000000000E+01 0.  0.
<mgrwt>
<rscale>  0 0.12498735E+03</rscale>
<asrwt>0</asrwt>
<pdfrwt beam="2">  1        4 0.13439911E-02 0.12498735E+03</pdfrwt>
<pdfrwt beam="1">  1       -4 0.68777914E-01 0.12498735E+03</pdfrwt>
<totfact> 0.59481836E+03</totfact>
</mgrwt>
</event>
<event>
 5    1  0.3294152E-002  0.1250013E+03  0.7818608E-02  0.1235067E+00
          4   -1    0    0  501    0  0.00000000000E+00  0.00000000000E+00  0.62860960040E+02  0.62873787838E+02  0.12700000000E+01 0. -1.
         -4   -1    0    0    0  501 -0.00000000000E+00 -0.00000000000E+00 -0.62116746558E+02  0.62129728013E+02  0.12700000000E+01 0. -1.
         25    2    1    2    0    0  0.00000000000E+00  0.00000000000E+00  0.74421348203E+00  0.12500351585E+03  0.12500130048E+03 0.  0.
    9000005    1    3    3    0    0  0.20987792879E+02 -0.58764437099E+02 -0.30315932431E+01  0.62481493860E+02  0.10000000000E+01 0.  0.
    9000005    1    3    3    0    0 -0.20987792879E+02  0.58764437099E+02  0.37758067251E+01  0.62522021991E+02  0.10000000000E+01 0.  0.
<mgrwt>
<rscale>  0 0.12500130E+03</rscale>
<asrwt>0</asrwt>
<pdfrwt beam="1">  1        4 0.96729023E-02 0.12500130E+03</pdfrwt>
<pdfrwt beam="2">  1       -4 0.95584079E-02 0.12500130E+03</pdfrwt>
<totfact> 0.10452479E+04</totfact>
</mgrwt>
</event>
<event>
 5    1  0.3294152E-002  0.1249992E+03  0.7818608E-02  0.1235071E+00
         -4   -1    0    0    0  501 -0.00000000000E+00  0.00000000000E+00  0.15097835824E+03  0.15098369964E+03  0.12700000000E+01 0.  1.
          4   -1    0    0  501    0  0.00000000000E+00 -0.00000000000E+00 -0.25851200509E+02  0.25882377552E+02  0.12700000000E+01 0.  1.
         25    2    1    2    0    0  0.00000000000E+00  0.00000000000E+00  0.12512715773E+03  0.17686607719E+03  0.12499921464E+03 0.  0.
    9000005    1    3    3    0    0  0.17548268112E+02 -0.28456573878E+01 -0.22204776147E+02  0.28462107501E+02  0.10000000000E+01 0.  0.
    9000005    1    3    3    0    0 -0.17548268112E+02  0.28456573878E+01  0.14733193388E+03  0.14840396969E+03  0.10000000000E+01 0.  0.
<mgrwt>
<rscale>  0 0.12499921E+03</rscale>
<asrwt>0</asrwt>
<pdfrwt beam="2">  1        4 0.39799169E-02 0.12499921E+03</pdfrwt>
<pdfrwt beam="1">  1       -4 0.23230249E-01 0.12499921E+03</pdfrwt>
<totfact> 0.94185839E+03</totfact>
</mgrwt>
</event>
<event>
 5    1  0.3294152E-002  0.1250033E+03  0.7818608E-02  0.1235064E+00
         -4   -1    0    0    0  501 -0.00000000000E+00  0.00000000000E+00  0.18349626183E+03  0.18350065669E+03  0.12700000000E+01 0.  1.
          4   -1    0    0  501    0  0.00000000000E+00 -0.00000000000E+00 -0.21265417611E+02  0.21303306930E+02  0.12700000000E+01 0.  1.
         25    2    1    2    0    0  0.00000000000E+00  0.00000000000E+00  0.16223084422E+03  0.20480396362E+03  0.12500326675E+03 0.  0.
    9000005    1    3    3    0    0  0.37247274622E+02  0.49875997026E+02  0.72070145989E+02  0.95236970180E+02  0.10000000000E+01 0.  0.
    9000005    1    3    3    0    0 -0.37247274622E+02 -0.49875997026E+02  0.90160698230E+02  0.10956699344E+03  0.10000000000E+01 0.  0.
<mgrwt>
<rscale>  0 0.12500327E+03</rscale>
<asrwt>0</asrwt>
<pdfrwt beam="2">  1        4 0.32748553E-02 0.12500327E+03</pdfrwt>
<pdfrwt beam="1">  1       -4 0.28233447E-01 0.12500327E+03</pdfrwt>
<totfact> 0.89325028E+03</totfact>
</mgrwt>
</event>
<event>
 5    1  0.3294152E-002  0.1250063E+03  0.7818608E-02  0.1235059E+00
          4   -1    0    0  501    0  0.00000000000E+00  0.00000000000E+00  0.36380156600E+01  0.38533177837E+01  0.12700000000E+01 0. -1.
         -4   -1    0    0    0  501 -0.00000000000E+00 -0.00000000000E+00 -0.10427608448E+04  0.10427616182E+04  0.12700000000E+01 0. -1.
         25    2    1    2    0    0  0.00000000000E+00  0.00000000000E+00 -0.10391228291E+04  0.10466149359E+04  0.12500628041E+03 0.  0.
    9000005    1    3    3    0    0 -0.56138292215E+02 -0.21676629360E+02 -0.37840137687E+03  0.38315791278E+03  0.10000000000E+01 0.  0.
    9000005    1    3    3    0    0  0.56138292215E+02  0.21676629360E+02 -0.66072145226E+03  0.66345702317E+03  0.10000000000E+01 0.  0.
<mgrwt>
<rscale>  0 0.12500628E+03</rscale>
<asrwt>0</asrwt>
<pdfrwt beam="1">  1        4 0.57631674E-03 0.12500628E+03</pdfrwt>
<pdfrwt beam="2">  1       -4 0.16044114E+00 0.12500628E+03</pdfrwt>
<totfact> 0.29096758E+03</totfact>
</mgrwt>
</event>
<event>
 5    1  0.3294152E-002  0.1250002E+03  0.7818608E-02  0.1235069E+00
         -4   -1    0    0    0  501 -0.00000000000E+00  0.00000000000E+00  0.71707182474E+02  0.71718428025E+02  0.12700000000E+01 0.  1.
          4   -1    0    0  501    0  0.00000000000E+00 -0.00000000000E+00 -0.54452228383E+02  0.54467036599E+02  0.12700000000E+01 0.  1.
         25    2    1    2    0    0  0.00000000000E+00  0.00000000000E+00  0.17254954091E+02  0.12618546462E+03  0.12500015217E+03 0.  0.
    9000005    1    3    3    0    0 -0.21441742208E+02  0.55803417438E+02 -0.97520307478E+01  0.60579466904E+02  0.10000000000E+01 0.  0.
    9000005    1    3    3    0    0  0.21441742208E+02 -0.55803417438E+02  0.27006984839E+02  0.65605997720E+02  0.10000000000E+01 0.  0.
<mgrwt>
<rscale>  0 0.12500015E+03</rscale>
<asrwt>0</asrwt>
<pdfrwt beam="2">  1        4 0.83792700E-02 0.12500015E+03</pdfrwt>
<pdfrwt beam="1">  1       -4 0.11033878E-01 0.12500015E+03</pdfrwt>
<totfact> 0.10426861E+04</totfact>
</mgrwt>
</event>
<event>
 5    1  0.3294152E-002  0.1249958E+03  0.7818608E-02  0.1235076E+00
         -4   -1    0    0    0  501 -0.00000000000E+00  0.00000000000E+00  0.22504345993E+03  0.22504704343E+03  0.12700000000E+01 0.  1.
          4   -1    0    0  501    0  0.00000000000E+00 -0.00000000000E+00 -0.17329624531E+02  0.17376098135E+02  0.12700000000E+01 0.  1.
         25    2    1    2    0    0  0.00000000000E+00  0.00000000000E+00  0.20771383540E+03  0.24242314157E+03  0.12499576853E+03 0.  0.
    9000005    1    3    3    0    0  0.30247265034E+02 -0.17340883855E+02  0.32784464262E+01  0.35033576835E+02  0.10000000000E+01 0.  0.
    9000005    1    3    3    0    0 -0.30247265034E+02  0.17340883855E+02  0.20443538897E+03  0.20738956473E+03  0.10000000000E+01 0.  0.
<mgrwt>
<rscale>  0 0.12499577E+03</rscale>
<asrwt>0</asrwt>
<pdfrwt beam="2">  1        4 0.26699465E-02 0.12499577E+03</pdfrwt>
<pdfrwt beam="1">  1       -4 0.34625923E-01 0.12499577E+03</pdfrwt>
<totfact> 0.83445669E+03</totfact>
</mgrwt>
</event>
<event>
 5    1  0.3294152E-002  0.1250018E+03  0.7818608E-02  0.1235067E+00
          4   -1    0    0  501    0  0.00000000000E+00  0.00000000000E+00  0.32704421999E+02  0.32729071454E+02  0.12700000000E+01 0. -1.
         -4   -1    0    0    0  501 -0.00000000000E+00 -0.00000000000E+00 -0.11937136595E+03  0.11937812157E+03  0.12700000000E+01 0. -1.
         25    2    1    2    0    0  0.00000000000E+00  0.00000000000E+00 -0.86666943953E+02  0.15210719302E+03  0.12500175597E+03 0.  0.
    9000005    1    3    3    0    0 -0.42241063294E+02  0.10145501668E+02  0.11331263571E+02  0.44906972359E+02  0.10000000000E+01 0.  0.
    9000005    1    3    3    0    0  0.42241063294E+02 -0.10145501668E+02 -0.97998207525E+02  0.10720022066E+03  0.10000000000E+01 0.  0.
<mgrwt>
<rscale>  0 0.12500176E+03</rscale>
<asrwt>0</asrwt>
<pdfrwt beam="1">  1        4 0.50338654E-02 0.12500176E+03</pdfrwt>
<pdfrwt beam="2">  1       -4 0.18367241E-01 0.12500176E+03</pdfrwt>
<totfact> 0.98881401E+03</totfact>
</mgrwt>
</event>
<event>
 5    1  0.3294152E-002  0.1249840E+03  0.7818608E-02  0.1235094E+00
          4   -1    0    0  501    0  0.00000000000E+00  0.00000000000E+00  0.72077508865E+01  0.73187821967E+01  0.12700000000E+01 0.  1.
         -4   -1    0    0    0  501 -0.00000000000E+00 -0.00000000000E+00 -0.53755975870E+03  0.53756125891E+03  0.12700000000E+01 0.  1.
         25    2    1    2    0    0  0.00000000000E+00  0.00000000000E+00 -0.53035200782E+03  0.54488004110E+03  0.12498402697E+03 0.  0.
    9000005    1    3    3    0    0  0.58341227514E+02 -0.70772046540E+01 -0.17264709494E+03  0.18237819235E+03  0.10000000000E+01 0.  0.
    9000005    1    3    3    0    0 -0.58341227514E+02  0.70772046540E+01 -0.35770491288E+03  0.36250184876E+03  0.10000000000E+01 0.  0.
<mgrwt>
<rscale>  0 0.12498403E+03</rscale>
<asrwt>0</asrwt>
<pdfrwt beam="1">  1        4 0.11175414E-02 0.12498403E+03</pdfrwt>
<pdfrwt beam="2">  1       -4 0.82710127E-01 0.12498403E+03</pdfrwt>
<totfact> 0.52561406E+03</totfact>
</mgrwt>
</event>
<event>
 5    1  0.3294152E-002  0.1250000E+03  0.7818608E-02  0.1235069E+00
         -4   -1    0    0    0  501 -0.00000000000E+00  0.00000000000E+00  0.92216381221E+02  0.92225125999E+02  0.12700000000E+01 0. -1.
          4   -1    0    0  501    0  0.00000000000E+00 -0.00000000000E+00 -0.42339354542E+02  0.42358397551E+02  0.12700000000E+01 0. -1.
         25    2    1    2    0    0  0.00000000000E+00  0.00000000000E+00  0.49877026679E+02  0.13458352355E+03  0.12500002808E+03 0.  0.
    9000005    1    3    3    0    0 -0.50942589719E+02 -0.10533251648E+02 -0.12345223185E+02  0.53474305728E+02  0.10000000000E+01 0.  0.
    9000005    1    3    3    0    0  0.50942589719E+02  0.10533251648E+02  0.62222249864E+02  0.81109217822E+02  0.10000000000E+01 0.  0.
<mgrwt>
<rscale>  0 0.12500003E+03</rscale>
<asrwt>0</asrwt>
<pdfrwt beam="2">  1        4 0.65158845E-02 0.12500003E+03</pdfrwt>
<pdfrwt beam="1">  1       -4 0.14189273E-01 0.12500003E+03</pdfrwt>
<totfact> 0.10246850E+04</totfact>
</mgrwt>
</event>
<event>
 5    1  0.3294152E-002  0.1250142E+03  0.7818608E-02  0.1235047E+00
         -4   -1    0    0    0  501 -0.00000000000E+00  0.00000000000E+00  0.10964931443E+02  0.11038234531E+02  0.12700000000E+01 0.  1.
          4   -1    0    0  501    0  0.00000000000E+00 -0.00000000000E+00 -0.35506896726E+03  0.35507123850E+03  0.12700000000E+01 0.  1.
         25    2    1    2    0    0  0.00000000000E+00  0.00000000000E+00 -0.34410403581E+03  0.36610947303E+03  0.12501423430E+03 0.  0.
    9000005    1    3    3    0    0 -0.48407474818E+02  0.38885752333E+02 -0.15118847297E+03  0.16344521930E+03  0.10000000000E+01 0.  0.
    9000005    1    3    3    0    0  0.48407474818E+02 -0.38885752333E+02 -0.19291556285E+03  0.20266425373E+03  0.10000000000E+01 0.  0.
<mgrwt>
<rscale>  0 0.12501423E+03</rscale>
<asrwt>0</asrwt>
<pdfrwt beam="2">  1        4 0.54631800E-01 0.12501423E+03</pdfrwt>
<pdfrwt beam="1">  1       -4 0.16927262E-02 0.12501423E+03</pdfrwt>
<totfact> 0.67966542E+03</totfact>
</mgrwt>
</event>
<event>
 5    1  0.3294152E-002  0.1250230E+03  0.7818608E-02  0.1235033E+00
          4   -1    0    0  501    0  0.00000000000E+00  0.00000000000E+00  0.35854690748E+02  0.35877175874E+02  0.12700000000E+01 0. -1.
         -4   -1    0    0    0  501 -0.00000000000E+00 -0.00000000000E+00 -0.10892643810E+03  0.10893384147E+03  0.12700000000E+01 0. -1.
         25    2    1    2    0    0  0.00000000000E+00  0.00000000000E+00 -0.73071747354E+02  0.14481101735E+03  0.12502299982E+03 0.  0.
    9000005    1    3    3    0    0 -0.49806264814E+02 -0.10591894736E+02 -0.78519714272E+02  0.93590585949E+02  0.10000000000E+01 0.  0.
    9000005    1    3    3    0    0  0.49806264814E+02  0.10591894736E+02  0.54479669181E+01  0.51220431396E+02  0.10000000000E+01 0.  0.
<mgrwt>
<rscale>  0 0.12502300E+03</rscale>
<asrwt>0</asrwt>
<pdfrwt beam="1">  1        4 0.55184054E-02 0.12502300E+03</pdfrwt>
<pdfrwt beam="2">  1       -4 0.16760213E-01 0.12502300E+03</pdfrwt>
<totfact> 0.10029634E+04</totfact>
</mgrwt>
</event>
<event>
 5    1  0.3294152E-002  0.1250005E+03  0.7818608E-02  0.1235069E+00
         -4   -1    0    0    0  501 -0.00000000000E+00  0.00000000000E+00  0.36207060167E+01  0.38369795490E+01  0.12700000000E+01 0.  1.
          4   -1    0    0  501    0  0.00000000000E+00 -0.00000000000E+00 -0.10473681413E+04  0.10473689113E+04  0.12700000000E+01 0.  1.
         25    2    1    2    0    0  0.00000000000E+00  0.00000000000E+00 -0.10437474353E+04  0.10512058909E+04  0.12500046499E+03 0.  0.
    9000005    1    3    3    0    0 -0.61351670182E+02 -0.39251861160E-01 -0.62182089182E+03  0.62484098015E+03  0.10000000000E+01 0.  0.
    9000005    1    3    3    0    0  0.61351670182E+02  0.39251861160E-01 -0.42192654350E+03  0.42636491071E+03  0.10000000000E+01 0.  0.
<mgrwt>
<rscale>  0 0.12500046E+03</rscale>
<asrwt>0</asrwt>
<pdfrwt beam="2">  1        4 0.16115002E+00 0.12500046E+03</pdfrwt>
<pdfrwt beam="1">  1       -4 0.57372819E-03 0.12500046E+03</pdfrwt>
<totfact> 0.28956898E+03</totfact>
</mgrwt>
</event>
<event>
 5    1  0.3294152E-002  0.1249928E+03  0.7818608E-02  0.1235081E+00
         -4   -1    0    0    0  501 -0.00000000000E+00  0.00000000000E+00  0.17811486149E+03  0.17811938913E+03  0.12700000000E+01 0. -1.
          4   -1    0    0  501    0  0.00000000000E+00 -0.00000000000E+00 -0.21905345243E+02  0.21942129574E+02  0.12700000000E+01 0. -1.
         25    2    1    2    0    0  0.00000000000E+00  0.00000000000E+00  0.15620951625E+03  0.20006151870E+03  0.12499279299E+03 0.  0.
    9000005    1    3    3    0    0 -0.16839253686E+02  0.48695934324E+02  0.21516795727E+02  0.55846458999E+02  0.10000000000E+01 0.  0.
    9000005    1    3    3    0    0  0.16839253686E+02 -0.48695934324E+02  0.13469272052E+03  0.14421505970E+03  0.10000000000E+01 0.  0.
<mgrwt>
<rscale>  0 0.12499279E+03</rscale>
<asrwt>0</asrwt>
<pdfrwt beam="2">  1        4 0.33732311E-02 0.12499279E+03</pdfrwt>
<pdfrwt beam="1">  1       -4 0.27405463E-01 0.12499279E+03</pdfrwt>
<totfact> 0.90139668E+03</totfact>
</mgrwt>
</event>
<event>
 5    1  0.3294152E-002  0.1250038E+03  0.7818608E-02  0.1235063E+00
          4   -1    0    0  501    0  0.00000000000E+00  0.00000000000E+00  0.95459424909E+03  0.95459509390E+03  0.12700000000E+01 0.  1.
         -4   -1    0    0    0  501 -0.00000000000E+00 -0.00000000000E+00 -0.39929023800E+01  0.41900082835E+01  0.12700000000E+01 0.  1.
         25    2    1    2    0    0  0.00000000000E+00  0.00000000000E+00  0.95060134671E+03  0.95878510218E+03  0.12500380714E+03 0.  0.
    9000005    1    3    3    0    0 -0.26658837509E+02 -0.24997524342E+02  0.86412880583E+03  0.86490182270E+03  0.10000000000E+01 0.  0.
    9000005    1    3    3    0    0  0.26658837509E+02  0.24997524342E+02  0.86472540882E+02  0.93883279487E+02  0.10000000000E+01 0.  0.
<mgrwt>
<rscale>  0 0.12500381E+03</rscale>
<asrwt>0</asrwt>
<pdfrwt beam="1">  1        4 0.14687593E+00 0.12500381E+03</pdfrwt>
<pdfrwt beam="2">  1       -4 0.62951945E-03 0.12500381E+03</pdfrwt>
<totfact> 0.32003433E+03</totfact>
</mgrwt>
</event>
<event>
 5    1  0.3294152E-002  0.1249987E+03  0.7818608E-02  0.1235071E+00
          4   -1    0    0  501    0  0.00000000000E+00  0.00000000000E+00  0.14740510299E+02  0.14795118920E+02  0.12700000000E+01 0. -1.
         -4   -1    0    0    0  501 -0.00000000000E+00 -0.00000000000E+00 -0.26444931349E+03  0.26445236301E+03  0.12700000000E+01 0. -1.
         25    2    1    2    0    0  0.00000000000E+00  0.00000000000E+00 -0.24970880319E+03  0.27924748193E+03  0.12499867910E+03 0.  0.
    9000005    1    3    3    0    0 -0.46630444070E+02 -0.45715044981E+00 -0.21778894949E+03  0.22272771229E+03  0.10000000000E+01 0.  0.
    9000005    1    3    3    0    0  0.46630444070E+02  0.45715044981E+00 -0.31919853694E+02  0.56519769644E+02  0.10000000000E+01 0.  0.
<mgrwt>
<rscale>  0 0.12499868E+03</rscale>
<asrwt>0</asrwt>
<pdfrwt beam="1">  1        4 0.22722062E-02 0.12499868E+03</pdfrwt>
<pdfrwt beam="2">  1       -4 0.40688942E-01 0.12499868E+03</pdfrwt>
<totfact> 0.78280289E+03</totfact>
</mgrwt>
</event>
<event>
 5    1  0.3294152E-002  0.1249959E+03  0.7818608E-02  0.1235076E+00
          4   -1    0    0  501    0  0.00000000000E+00  0.00000000000E+00  0.53229943433E+01  0.54724006413E+01  0.12700000000E+01 0. -1.
         -4   -1    0    0    0  501 -0.00000000000E+00 -0.00000000000E+00 -0.72349111696E+03  0.72349223162E+03  0.12700000000E+01 0. -1.
         25    2    1    2    0    0  0.00000000000E+00  0.00000000000E+00 -0.71816812261E+03  0.72896463226E+03  0.12499593094E+03 0.  0.
    9000005    1    3    3    0    0  0.13791680818E+02  0.29105762667E+02 -0.67138470736E+03  0.67215755680E+03  0.10000000000E+01 0.  0.
    9000005    1    3    3    0    0 -0.13791680818E+02 -0.29105762667E+02 -0.46783415250E+02  0.56807075463E+02  0.10000000000E+01 0.  0.
<mgrwt>
<rscale>  0 0.12499593E+03</rscale>
<asrwt>0</asrwt>
<pdfrwt beam="1">  1        4 0.83050132E-03 0.12499593E+03</pdfrwt>
<pdfrwt beam="2">  1       -4 0.11131783E+00 0.12499593E+03</pdfrwt>
<totfact> 0.41604754E+03</totfact>
</mgrwt>
</event>
<event>
 5    1  0.3294152E-002  0.1249998E+03  0.7818608E-02  0.1235070E+00
          4   -1    0    0  501    0  0.00000000000E+00  0.00000000000E+00  0.54152365652E+01  0.55621656805E+01  0.12700000000E+01 0.  1.
         -4   -1    0    0    0  501 -0.00000000000E+00 -0.00000000000E+00 -0.71153988134E+03  0.71154101473E+03  0.12700000000E+01 0.  1.
         25    2    1    2    0    0  0.00000000000E+00  0.00000000000E+00 -0.70612464477E+03  0.71710318041E+03  0.12499982956E+03 0.  0.
    9000005    1    3    3    0    0 -0.76276206940E+01  0.22588951216E+02 -0.21674009365E+02  0.32236687119E+02  0.10000000000E+01 0.  0.
    9000005    1    3    3    0    0  0.76276206940E+01 -0.22588951216E+02 -0.68445063541E+03  0.68486649329E+03  0.10000000000E+01 0.  0.
<mgrwt>
<rscale>  0 0.12499983E+03</rscale>
<asrwt>0</asrwt>
<pdfrwt beam="1">  1        4 0.84450331E-03 0.12499983E+03</pdfrwt>
<pdfrwt beam="2">  1       -4 0.10947899E+00 0.12499983E+03</pdfrwt>
<totfact> 0.42199264E+03</totfact>
</mgrwt>
</event>
<event>
 5    1  0.3294152E-002  0.1249990E+03  0.7818608E-02  0.1235071E+00
         -4   -1    0    0    0  501 -0.00000000000E+00  0.00000000000E+00  0.29498572275E+03  0.29498845660E+03  0.12700000000E+01 0. -1.
          4   -1    0    0  501    0  0.00000000000E+00 -0.00000000000E+00 -0.13208709691E+02  0.13269623645E+02  0.12700000000E+01 0. -1.
         25    2    1    2    0    0  0.00000000000E+00  0.00000000000E+00  0.28177701306E+03  0.30825808024E+03  0.12499903578E+03 0.  0.
    9000005    1    3    3    0    0  0.52417810348E+02  0.25356215779E+02  0.84944529394E+02  0.10299095880E+03  0.10000000000E+01 0.  0.
    9000005    1    3    3    0    0 -0.52417810348E+02 -0.25356215779E+02  0.19683248366E+03  0.20526712144E+03  0.10000000000E+01 0.  0.
<mgrwt>
<rscale>  0 0.12499904E+03</rscale>
<asrwt>0</asrwt>
<pdfrwt beam="2">  1        4 0.20370051E-02 0.12499904E+03</pdfrwt>
<pdfrwt beam="1">  1       -4 0.45387316E-01 0.12499904E+03</pdfrwt>
<totfact> 0.74576093E+03</totfact>
</mgrwt>
</event>
<event>
 5    1  0.3294152E-002  0.1249996E+03  0.7818608E-02  0.1235070E+00
          4   -1    0    0  501    0  0.00000000000E+00  0.00000000000E+00  0.24206594727E+03  0.24206927878E+03  0.12700000000E+01 0. -1.
         -4   -1    0    0    0  501 -0.00000000000E+00 -0.00000000000E+00 -0.16108583330E+02  0.16158569147E+02  0.12700000000E+01 0. -1.
         25    2    1    2    0    0  0.00000000000E+00  0.00000000000E+00  0.22595736394E+03  0.25822784792E+03  0.12499956450E+03 0.  0.
    9000005    1    3    3    0    0  0.14031528124E+02  0.29240039121E+02  0.22332879764E+03  0.22567369258E+03  0.10000000000E+01 0.  0.
    9000005    1    3    3    0    0 -0.14031528124E+02 -0.29240039121E+02  0.26285663026E+01  0.32554155343E+02  0.10000000000E+01 0.  0.
<mgrwt>
<rscale>  0 0.12499956E+03</rscale>
<asrwt>0</asrwt>
<pdfrwt beam="1">  1        4 0.37245015E-01 0.12499956E+03</pdfrwt>
<pdfrwt beam="2">  1       -4 0.24823450E-02 0.12499956E+03</pdfrwt>
<totfact> 0.81156189E+03</totfact>
</mgrwt>
</event>
<event>
 5    1  0.3294152E-002  0.1250022E+03  0.7818608E-02  0.1235066E+00
          4   -1    0    0  501    0  0.00000000000E+00  0.00000000000E+00  0.20046376958E+02  0.20086565887E+02  0.12700000000E+01 0.  1.
         -4   -1    0    0    0  501 -0.00000000000E+00 -0.00000000000E+00 -0.19463025850E+03  0.19463440196E+03  0.12700000000E+01 0.  1.
         25    2    1    2    0    0  0.00000000000E+00  0.00000000000E+00 -0.17458388154E+03  0.21472096784E+03  0.12500224932E+03 0.  0.
    9000005    1    3    3    0    0  0.29612978350E+02  0.41075993118E+02 -0.15020016553E+03  0.15850948055E+03  0.10000000000E+01 0.  0.
    9000005    1    3    3    0    0 -0.29612978350E+02 -0.41075993118E+02 -0.24383716011E+02  0.56211487295E+02  0.10000000000E+01 0.  0.
<mgrwt>
<rscale>  0 0.12500225E+03</rscale>
<asrwt>0</asrwt>
<pdfrwt beam="1">  1        4 0.30874683E-02 0.12500225E+03</pdfrwt>
<pdfrwt beam="2">  1       -4 0.29946526E-01 0.12500225E+03</pdfrwt>
<totfact> 0.87706234E+03</totfact>
</mgrwt>
</event>
<event>
 5    1  0.3294152E-002  0.1249990E+03  0.7818608E-02  0.1235071E+00
          4   -1    0    0  501    0  0.00000000000E+00  0.00000000000E+00  0.69926588705E+02  0.69938120563E+02  0.12700000000E+01 0.  1.
         -4   -1    0    0    0  501 -0.00000000000E+00 -0.00000000000E+00 -0.55837869567E+02  0.55852310407E+02  0.12700000000E+01 0.  1.
         25    2    1    2    0    0  0.00000000000E+00  0.00000000000E+00  0.14088719137E+02  0.12579043097E+03  0.12499896206E+03 0.  0.
    9000005    1    3    3    0    0 -0.57832934988E+02 -0.21864635438E+02  0.16183408096E+02  0.63918802787E+02  0.10000000000E+01 0.  0.
    9000005    1    3    3    0    0  0.57832934988E+02  0.21864635438E+02 -0.20946889584E+01  0.61871628183E+02  0.10000000000E+01 0.  0.
<mgrwt>
<rscale>  0 0.12499896E+03</rscale>
<asrwt>0</asrwt>
<pdfrwt beam="1">  1        4 0.10759935E-01 0.12499896E+03</pdfrwt>
<pdfrwt beam="2">  1       -4 0.85924394E-02 0.12499896E+03</pdfrwt>
<totfact> 0.10435800E+04</totfact>
</mgrwt>
</event>
<event>
 5    1  0.3294152E-002  0.1250007E+03  0.7818608E-02  0.1235068E+00
         -4   -1    0    0    0  501 -0.00000000000E+00  0.00000000000E+00  0.15313773696E+03  0.15314300304E+03  0.12700000000E+01 0. -1.
          4   -1    0    0  501    0  0.00000000000E+00 -0.00000000000E+00 -0.25486844450E+02  0.25518466647E+02  0.12700000000E+01 0. -1.
         25    2    1    2    0    0  0.00000000000E+00  0.00000000000E+00  0.12765089251E+03  0.17866146969E+03  0.12500068157E+03 0.  0.
    9000005    1    3    3    0    0  0.56924097346E+02 -0.10760748042E+02  0.97319094095E+02  0.11326143489E+03  0.10000000000E+01 0.  0.
    9000005    1    3    3    0    0 -0.56924097346E+02  0.10760748042E+02  0.30331798410E+02  0.65400034800E+02  0.10000000000E+01 0.  0.
<mgrwt>
<rscale>  0 0.12500068E+03</rscale>
<asrwt>0</asrwt>
<pdfrwt beam="2">  1        4 0.39238906E-02 0.12500068E+03</pdfrwt>
<pdfrwt beam="1">  1       -4 0.23562489E-01 0.12500068E+03</pdfrwt>
<totfact> 0.93857065E+03</totfact>
</mgrwt>
</event>
<event>
 4    1  0.3294152E-002  0.1251379E+03  0.7818608E-02  0.1234854E+00
          4   -1    0    0  501    0  0.00000000000E+00  0.00000000000E+00  0.16750664762E+01  0.21020817538E+01  0.12700000000E+01 0. -1.
         -4   -1    0    0    0  501 -0.00000000000E+00 -0.00000000000E+00 -0.20724995553E+04  0.20724999444E+04  0.12700000000E+01 0. -1.
    9000005    1    1    2    0    0  0.60688195633E+02 -0.16107474353E+01 -0.78495896500E+03  0.78730377132E+03  0.10000000000E+01 0.  0.
    9000005    1    1    2    0    0 -0.60688195633E+02  0.16107474353E+01 -0.12858655238E+04  0.12872982548E+04  0.10000000000E+01 0.  0.
<mgrwt>
<rscale>  0 0.12513794E+03</rscale>
<asrwt>0</asrwt>
<pdfrwt beam="1">  1        4 0.29058145E-03 0.12513794E+03</pdfrwt>
<pdfrwt beam="2">  1       -4 0.31887714E+00 0.12513794E+03</pdfrwt>
<totfact> 0.88918487E+02</totfact>
</mgrwt>
</event>
<event>
 5    1  0.3294152E-002  0.1250058E+03  0.7818608E-02  0.1235060E+00
          4   -1    0    0  501    0  0.00000000000E+00  0.00000000000E+00  0.15951916286E+02  0.16002391484E+02  0.12700000000E+01 0.  1.
         -4   -1    0    0    0  501 -0.00000000000E+00 -0.00000000000E+00 -0.24446020038E+03  0.24446349925E+03  0.12700000000E+01 0.  1.
         25    2    1    2    0    0  0.00000000000E+00  0.00000000000E+00 -0.22850828409E+03  0.26046589074E+03  0.12500577723E+03 0.  0.
    9000005    1    3    3    0    0  0.50725388162E+02 -0.35575028008E+02 -0.97203539669E+02  0.11527434991E+03  0.10000000000E+01 0.  0.
    9000005    1    3    3    0    0 -0.50725388162E+02  0.35575028008E+02 -0.13130474442E+03  0.14519154083E+03  0.10000000000E+01 0.  0.
<mgrwt>
<rscale>  0 0.12500578E+03</rscale>
<asrwt>0</asrwt>
<pdfrwt beam="1">  1        4 0.24582776E-02 0.12500578E+03</pdfrwt>
<pdfrwt beam="2">  1       -4 0.37613395E-01 0.12500578E+03</pdfrwt>
<totfact> 0.80830330E+03</totfact>
</mgrwt>
</event>
<event>
 5    1  0.3294152E-002  0.1250033E+03  0.7818608E-02  0.1235064E+00
          4   -1    0    0  501    0  0.00000000000E+00  0.00000000000E+00  0.19058551963E+03  0.19058975102E+03  0.12700000000E+01 0.  1.
         -4   -1    0    0    0  501 -0.00000000000E+00 -0.00000000000E+00 -0.20472989683E+02  0.20512342786E+02  0.12700000000E+01 0.  1.
         25    2    1    2    0    0  0.00000000000E+00  0.00000000000E+00  0.17011252995E+03  0.21110209381E+03  0.12500328461E+03 0.  0.
    9000005    1    3    3    0    0  0.10647870929E+02  0.39561870919E+02  0.16475015632E+03  0.16977082432E+03  0.10000000000E+01 0.  0.
    9000005    1    3    3    0    0 -0.10647870929E+02 -0.39561870919E+02  0.53623736337E+01  0.41331269481E+02  0.10000000000E+01 0.  0.
<mgrwt>
<rscale>  0 0.12500328E+03</rscale>
<asrwt>0</asrwt>
<pdfrwt beam="1">  1        4 0.29324201E-01 0.12500328E+03</pdfrwt>
<pdfrwt beam="2">  1       -4 0.31530434E-02 0.12500328E+03</pdfrwt>
<totfact> 0.88289727E+03</totfact>
</mgrwt>
</event>
<event>
 5    1  0.3294152E-002  0.1250000E+03  0.7818608E-02  0.1235069E+00
          4   -1    0    0  501    0  0.00000000000E+00  0.00000000000E+00  0.24372374891E+03  0.24372705775E+03  0.12700000000E+01 0. -1.
         -4   -1    0    0    0  501 -0.00000000000E+00 -0.00000000000E+00 -0.15998782072E+02  0.16049109875E+02  0.12700000000E+01 0. -1.
         25    2    1    2    0    0  0.00000000000E+00  0.00000000000E+00  0.22772496683E+03  0.25977616763E+03  0.12499998699E+03 0.  0.
    9000005    1    3    3    0    0 -0.11680949838E+02  0.43824489441E+02  0.20320661265E+03  0.20820892846E+03  0.10000000000E+01 0.  0.
    9000005    1    3    3    0    0  0.11680949838E+02 -0.43824489441E+02  0.24518354182E+02  0.51567239171E+02  0.10000000000E+01 0.  0.
<mgrwt>
<rscale>  0 0.12499999E+03</rscale>
<asrwt>0</asrwt>
<pdfrwt beam="1">  1        4 0.37500087E-01 0.12499999E+03</pdfrwt>
<pdfrwt beam="2">  1       -4 0.24654770E-02 0.12499999E+03</pdfrwt>
<totfact> 0.80937505E+03</totfact>
</mgrwt>
</event>
<event>
 5    1  0.3294152E-002  0.1250351E+03  0.7818608E-02  0.1235014E+00
         -4   -1    0    0    0  501 -0.00000000000E+00  0.00000000000E+00  0.93622102722E+02  0.93630716210E+02  0.12700000000E+01 0. -1.
          4   -1    0    0  501    0  0.00000000000E+00 -0.00000000000E+00 -0.41726850956E+02  0.41746173366E+02  0.12700000000E+01 0. -1.
         25    2    1    2    0    0  0.00000000000E+00  0.00000000000E+00  0.51895251766E+02  0.13537688958E+03  0.12503513536E+03 0.  0.
    9000005    1    3    3    0    0 -0.14524341654E+02 -0.23851183838E+02  0.86498276614E+02  0.90899875292E+02  0.10000000000E+01 0.  0.
    9000005    1    3    3    0    0  0.14524341654E+02  0.23851183838E+02 -0.34603024848E+02  0.44477014284E+02  0.10000000000E+01 0.  0.
<mgrwt>
<rscale>  0 0.12503514E+03</rscale>
<asrwt>0</asrwt>
<pdfrwt beam="2">  1        4 0.64216645E-02 0.12503514E+03</pdfrwt>
<pdfrwt beam="1">  1       -4 0.14405549E-01 0.12503514E+03</pdfrwt>
<totfact> 0.10222031E+04</totfact>
</mgrwt>
</event>
<event>
 5    1  0.3294152E-002  0.1250006E+03  0.7818608E-02  0.1235068E+00
         -4   -1    0    0    0  501 -0.00000000000E+00  0.00000000000E+00  0.44998333010E+03  0.44998512227E+03  0.12700000000E+01 0. -1.
          4   -1    0    0  501    0  0.00000000000E+00 -0.00000000000E+00 -0.86326884259E+01  0.87256065381E+01  0.12700000000E+01 0. -1.
         25    2    1    2    0    0  0.00000000000E+00  0.00000000000E+00  0.44135064167E+03  0.45871072881E+03  0.12500057528E+03 0.  0.
    9000005    1    3    3    0    0 -0.55874096702E+02  0.25914915023E+02  0.25947475197E+03  0.26668641587E+03  0.10000000000E+01 0.  0.
    9000005    1    3    3    0    0  0.55874096702E+02 -0.25914915023E+02  0.18187588970E+03  0.19202431294E+03  0.10000000000E+01 0.  0.
<mgrwt>
<rscale>  0 0.12500058E+03</rscale>
<asrwt>0</asrwt>
<pdfrwt beam="2">  1        4 0.13353912E-02 0.12500058E+03</pdfrwt>
<pdfrwt beam="1">  1       -4 0.69235497E-01 0.12500058E+03</pdfrwt>
<totfact> 0.59215788E+03</totfact>
</mgrwt>
</event>
<event>
 5    1  0.3294152E-002  0.1250000E+03  0.7818608E-02  0.1235069E+00
         -4   -1    0    0    0  501 -0.00000000000E+00  0.00000000000E+00  0.40443419306E+02  0.40463354596E+02  0.12700000000E+01 0. -1.
          4   -1    0    0  501    0  0.00000000000E+00 -0.00000000000E+00 -0.96537654201E+02  0.96546007575E+02  0.12700000000E+01 0. -1.
         25    2    1    2    0    0  0.00000000000E+00  0.00000000000E+00 -0.56094234895E+02  0.13700936217E+03  0.12500000854E+03 0.  0.
    9000005    1    3    3    0    0 -0.40409605461E+02  0.47287979413E+02 -0.34638285088E+02  0.71203230294E+02  0.10000000000E+01 0.  0.
    9000005    1    3    3    0    0  0.40409605461E+02 -0.47287979413E+02 -0.21455949808E+02  0.65806131877E+02  0.10000000000E+01 0.  0.
<mgrwt>
<rscale>  0 0.12500001E+03</rscale>
<asrwt>0</asrwt>
<pdfrwt beam="2">  1        4 0.14854123E-01 0.12500001E+03</pdfrwt>
<pdfrwt beam="1">  1       -4 0.62242406E-02 0.12500001E+03</pdfrwt>
<totfact> 0.10195888E+04</totfact>
</mgrwt>
</event>
<event>
 5    1  0.3294152E-002  0.1250001E+03  0.7818608E-02  0.1235069E+00
          4   -1    0    0  501    0  0.00000000000E+00  0.00000000000E+00  0.63981353782E+01  0.65229622349E+01  0.12700000000E+01 0.  1.
         -4   -1    0    0    0  501 -0.00000000000E+00 -0.00000000000E+00 -0.60450640266E+03  0.60450773672E+03  0.12700000000E+01 0.  1.
         25    2    1    2    0    0  0.00000000000E+00  0.00000000000E+00 -0.59810826728E+03  0.61103069896E+03  0.12500006271E+03 0.  0.
    9000005    1    3    3    0    0 -0.49702244942E+02 -0.33591494468E+02 -0.21346767335E+03  0.22173892129E+03  0.10000000000E+01 0.  0.
    9000005    1    3    3    0    0  0.49702244942E+02  0.33591494468E+02 -0.38464059394E+03  0.38929177766E+03  0.10000000000E+01 0.  0.
<mgrwt>
<rscale>  0 0.12500006E+03</rscale>
<asrwt>0</asrwt>
<pdfrwt beam="1">  1        4 0.99403369E-03 0.12500006E+03</pdfrwt>
<pdfrwt beam="2">  1       -4 0.93010645E-01 0.12500006E+03</pdfrwt>
<totfact> 0.48178594E+03</totfact>
</mgrwt>
</event>
<event>
 5    1  0.3294152E-002  0.1249951E+03  0.7818608E-02  0.1235077E+00
         -4   -1    0    0    0  501 -0.00000000000E+00  0.00000000000E+00  0.16357288416E+03  0.16357781431E+03  0.12700000000E+01 0. -1.
          4   -1    0    0  501    0  0.00000000000E+00 -0.00000000000E+00 -0.23856746857E+02  0.23890526796E+02  0.12700000000E+01 0. -1.
         25    2    1    2    0    0  0.00000000000E+00  0.00000000000E+00  0.13971613731E+03  0.18746834110E+03  0.12499511947E+03 0.  0.
    9000005    1    3    3    0    0  0.14406858588E+02 -0.57927557164E+02  0.97585632243E+02  0.11439892951E+03  0.10000000000E+01 0.  0.
    9000005    1    3    3    0    0 -0.14406858588E+02  0.57927557164E+02  0.42130505065E+02  0.73069411592E+02  0.10000000000E+01 0.  0.
<mgrwt>
<rscale>  0 0.12499512E+03</rscale>
<asrwt>0</asrwt>
<pdfrwt beam="2">  1        4 0.36732465E-02 0.12499512E+03</pdfrwt>
<pdfrwt beam="1">  1       -4 0.25168036E-01 0.12499512E+03</pdfrwt>
<totfact> 0.92299783E+03</totfact>
</mgrwt>
</event>
<event>
 5    1  0.3294152E-002  0.1250002E+03  0.7818608E-02  0.1235069E+00
          4   -1    0    0  501    0  0.00000000000E+00  0.00000000000E+00  0.66091547885E+02  0.66103748773E+02  0.12700000000E+01 0.  1.
         -4   -1    0    0    0  501 -0.00000000000E+00 -0.00000000000E+00 -0.59079303280E+02  0.59092952000E+02  0.12700000000E+01 0.  1.
         25    2    1    2    0    0  0.00000000000E+00  0.00000000000E+00  0.70122446055E+01  0.12519670077E+03  0.12500016924E+03 0.  0.
    9000005    1    3    3    0    0 -0.34224137551E+02 -0.49749504274E+02 -0.12611282502E+02  0.61695617453E+02  0.10000000000E+01 0.  0.
    9000005    1    3    3    0    0  0.34224137551E+02  0.49749504274E+02  0.19623527107E+02  0.63501083320E+02  0.10000000000E+01 0.  0.
<mgrwt>
<rscale>  0 0.12500017E+03</rscale>
<asrwt>0</asrwt>
<pdfrwt beam="1">  1        4 0.10169919E-01 0.12500017E+03</pdfrwt>
<pdfrwt beam="2">  1       -4 0.90911120E-02 0.12500017E+03</pdfrwt>
<totfact> 0.10448552E+04</totfact>
</mgrwt>
</event>
<event>
 5    1  0.3294152E-002  0.1249874E+03  0.7818608E-02  0.1235089E+00
         -4   -1    0    0    0  501 -0.00000000000E+00  0.00000000000E+00  0.13182320780E+04  0.13182326898E+04  0.12700000000E+01 0. -1.
          4   -1    0    0  501    0  0.00000000000E+00 -0.00000000000E+00 -0.28259091818E+01  0.30981708642E+01  0.12700000000E+01 0. -1.
         25    2    1    2    0    0  0.00000000000E+00  0.00000000000E+00  0.13154061688E+04  0.13213308606E+04  0.12498741652E+03 0.  0.
    9000005    1    3    3    0    0 -0.25622305956E+02 -0.33449031975E+01  0.12591556527E+04  0.12594211562E+04  0.10000000000E+01 0.  0.
    9000005    1    3    3    0    0  0.25622305956E+02  0.33449031975E+01  0.56250516110E+02  0.61909704430E+02  0.10000000000E+01 0.  0.
<mgrwt>
<rscale>  0 0.12498742E+03</rscale>
<asrwt>0</asrwt>
<pdfrwt beam="2">  1        4 0.45574502E-03 0.12498742E+03</pdfrwt>
<pdfrwt beam="1">  1       -4 0.20282615E+00 0.12498742E+03</pdfrwt>
<totfact> 0.21736542E+03</totfact>
</mgrwt>
</event>
<event>
 5    1  0.3294152E-002  0.1250204E+03  0.7818608E-02  0.1235037E+00
         -4   -1    0    0    0  501 -0.00000000000E+00  0.00000000000E+00  0.30676881854E+03  0.30677144738E+03  0.12700000000E+01 0. -1.
          4   -1    0    0  501    0  0.00000000000E+00 -0.00000000000E+00 -0.12703347822E+02  0.12766673251E+02  0.12700000000E+01 0. -1.
         25    2    1    2    0    0  0.00000000000E+00  0.00000000000E+00  0.29406547071E+03  0.31953812063E+03  0.12502043620E+03 0.  0.
    9000005    1    3    3    0    0 -0.43677519736E+01 -0.56501478601E+02  0.21441481139E+03  0.22177963316E+03  0.10000000000E+01 0.  0.
    9000005    1    3    3    0    0  0.43677519736E+01  0.56501478601E+02  0.79650659328E+02  0.97758487472E+02  0.10000000000E+01 0.  0.
<mgrwt>
<rscale>  0 0.12502044E+03</rscale>
<asrwt>0</asrwt>
<pdfrwt beam="2">  1        4 0.19594346E-02 0.12502044E+03</pdfrwt>
<pdfrwt beam="1">  1       -4 0.47200277E-01 0.12502044E+03</pdfrwt>
<totfact> 0.73177934E+03</totfact>
</mgrwt>
</event>
<event>
 5    1  0.3294152E-002  0.1249994E+03  0.7818608E-02  0.1235070E+00
          4   -1    0    0  501    0  0.00000000000E+00  0.00000000000E+00  0.14963156255E+01  0.19626157166E+01  0.12700000000E+01 0. -1.
         -4   -1    0    0    0  501 -0.00000000000E+00 -0.00000000000E+00 -0.22581584375E+04  0.22581587946E+04  0.12700000000E+01 0. -1.
         25    2    1    2    0    0  0.00000000000E+00  0.00000000000E+00 -0.22566621218E+04  0.22601214103E+04  0.12499942876E+03 0.  0.
    9000005    1    3    3    0    0  0.34357681831E+02  0.44754420937E+02 -0.64255744180E+03  0.64503059966E+03  0.10000000000E+01 0.  0.
    9000005    1    3    3    0    0 -0.34357681831E+02 -0.44754420937E+02 -0.16141046800E+04  0.16150908106E+04  0.10000000000E+01 0.  0.
<mgrwt>
<rscale>  0 0.12499943E+03</rscale>
<asrwt>0</asrwt>
<pdfrwt beam="1">  1        4 0.26610092E-03 0.12499943E+03</pdfrwt>
<pdfrwt beam="2">  1       -4 0.34744253E+00 0.12499943E+03</pdfrwt>
<totfact> 0.68368767E+02</totfact>
</mgrwt>
</event>
<event>
 5    1  0.3294152E-002  0.1250006E+03  0.7818608E-02  0.1235068E+00
         -4   -1    0    0    0  501 -0.00000000000E+00  0.00000000000E+00  0.82134937201E+03  0.82135035387E+03  0.12700000000E+01 0. -1.
          4   -1    0    0  501    0  0.00000000000E+00 -0.00000000000E+00 -0.46701552775E+01  0.48397572579E+01  0.12700000000E+01 0. -1.
         25    2    1    2    0    0  0.00000000000E+00  0.00000000000E+00  0.81667921673E+03  0.82619011113E+03  0.12500062672E+03 0.  0.
    9000005    1    3    3    0    0  0.31074354249E+02  0.21007633789E+02  0.77974096981E+02  0.86532629507E+02  0.10000000000E+01 0.  0.
    9000005    1    3    3    0    0 -0.31074354249E+02 -0.21007633789E+02  0.73870511975E+03  0.73965748162E+03  0.10000000000E+01 0.  0.
<mgrwt>
<rscale>  0 0.12500063E+03</rscale>
<asrwt>0</asrwt>
<pdfrwt beam="2">  1        4 0.73160739E-03 0.12500063E+03</pdfrwt>
<pdfrwt beam="1">  1       -4 0.12637454E+00 0.12500063E+03</pdfrwt>
<totfact> 0.37121424E+03</totfact>
</mgrwt>
</event>
<event>
 5    1  0.3294152E-002  0.1249999E+03  0.7818608E-02  0.1235069E+00
         -4   -1    0    0    0  501 -0.00000000000E+00  0.00000000000E+00  0.10183462046E+02  0.10262348622E+02  0.12700000000E+01 0.  1.
          4   -1    0    0  501    0  0.00000000000E+00 -0.00000000000E+00 -0.38202682682E+03  0.38202893779E+03  0.12700000000E+01 0.  1.
         25    2    1    2    0    0  0.00000000000E+00  0.00000000000E+00 -0.37184336477E+03  0.39229128641E+03  0.12499986188E+03 0.  0.
    9000005    1    3    3    0    0  0.10649296412E+02 -0.47548862025E+02 -0.63127397793E+02  0.79751928792E+02  0.10000000000E+01 0.  0.
    9000005    1    3    3    0    0 -0.10649296412E+02  0.47548862025E+02 -0.30871596698E+03  0.31253935762E+03  0.10000000000E+01 0.  0.
<mgrwt>
<rscale>  0 0.12499986E+03</rscale>
<asrwt>0</asrwt>
<pdfrwt beam="2">  1        4 0.58779578E-01 0.12499986E+03</pdfrwt>
<pdfrwt beam="1">  1       -4 0.15729173E-02 0.12499986E+03</pdfrwt>
<totfact> 0.65309702E+03</totfact>
</mgrwt>
</event>
<event>
 5    1  0.3294152E-002  0.1249976E+03  0.7818608E-02  0.1235073E+00
         -4   -1    0    0    0  501 -0.00000000000E+00  0.00000000000E+00  0.13647881109E+02  0.13706843501E+02  0.12700000000E+01 0.  1.
          4   -1    0    0  501    0  0.00000000000E+00 -0.00000000000E+00 -0.28552829810E+03  0.28553112250E+03  0.12700000000E+01 0.  1.
         25    2    1    2    0    0  0.00000000000E+00  0.00000000000E+00 -0.27188041699E+03  0.29923796600E+03  0.12499759659E+03 0.  0.
    9000005    1    3    3    0    0  0.11180397662E+02 -0.57485793856E+02 -0.18814159909E+03  0.19704791066E+03  0.10000000000E+01 0.  0.
    9000005    1    3    3    0    0 -0.11180397662E+02  0.57485793856E+02 -0.83738817900E+02  0.10219005534E+03  0.10000000000E+01 0.  0.
<mgrwt>
<rscale>  0 0.12499760E+03</rscale>
<asrwt>0</asrwt>
<pdfrwt beam="2">  1        4 0.43932179E-01 0.12499760E+03</pdfrwt>
<pdfrwt beam="1">  1       -4 0.21044271E-02 0.12499760E+03</pdfrwt>
<totfact> 0.75698567E+03</totfact>
</mgrwt>
</event>
<event>
 5    1  0.3294152E-002  0.1249992E+03  0.7818608E-02  0.1235071E+00
         -4   -1    0    0    0  501 -0.00000000000E+00  0.00000000000E+00  0.10751207935E+03  0.10751958010E+03  0.12700000000E+01 0. -1.
          4   -1    0    0  501    0  0.00000000000E+00 -0.00000000000E+00 -0.36312793440E+02  0.36334995080E+02  0.12700000000E+01 0. -1.
         25    2    1    2    0    0  0.00000000000E+00  0.00000000000E+00  0.71199285905E+02  0.14385457518E+03  0.12499920195E+03 0.  0.
    9000005    1    3    3    0    0  0.70813329245E+01  0.33377251190E+02 -0.24652439451E+02  0.42106162777E+02  0.10000000000E+01 0.  0.
    9000005    1    3    3    0    0 -0.70813329245E+01 -0.33377251190E+02  0.95851725356E+02  0.10174841240E+03  0.10000000000E+01 0.  0.
<mgrwt>
<rscale>  0 0.12499920E+03</rscale>
<asrwt>0</asrwt>
<pdfrwt beam="2">  1        4 0.55888685E-02 0.12499920E+03</pdfrwt>
<pdfrwt beam="1">  1       -4 0.16542605E-01 0.12499920E+03</pdfrwt>
<totfact> 0.10054494E+04</totfact>
</mgrwt>
</event>
<event>
 5    1  0.3294152E-002  0.1250028E+03  0.7818608E-02  0.1235065E+00
          4   -1    0    0  501    0  0.00000000000E+00  0.00000000000E+00  0.17756298396E+03  0.17756752568E+03  0.12700000000E+01 0. -1.
         -4   -1    0    0    0  501 -0.00000000000E+00 -0.00000000000E+00 -0.21977074219E+02  0.22013738693E+02  0.12700000000E+01 0. -1.
         25    2    1    2    0    0  0.00000000000E+00  0.00000000000E+00  0.15558590975E+03  0.19958126437E+03  0.12500282307E+03 0.  0.
    9000005    1    3    3    0    0 -0.30016514076E+02  0.98701564189E+01 -0.82912772767E+01  0.32682661823E+02  0.10000000000E+01 0.  0.
    9000005    1    3    3    0    0  0.30016514076E+02 -0.98701564189E+01  0.16387718702E+03  0.16689860254E+03  0.10000000000E+01 0.  0.
<mgrwt>
<rscale>  0 0.12500282E+03</rscale>
<asrwt>0</asrwt>
<pdfrwt beam="1">  1        4 0.27320552E-01 0.12500282E+03</pdfrwt>
<pdfrwt beam="2">  1       -4 0.33842581E-02 0.12500282E+03</pdfrwt>
<totfact> 0.90200479E+03</totfact>
</mgrwt>
</event>
<event>
 5    1  0.3294152E-002  0.1249987E+03  0.7818608E-02  0.1235071E+00
         -4   -1    0    0    0  501 -0.00000000000E+00  0.00000000000E+00  0.42523293072E+02  0.42542253745E+02  0.12700000000E+01 0.  1.
          4   -1    0    0  501    0  0.00000000000E+00 -0.00000000000E+00 -0.91815703593E+02  0.91824486528E+02  0.12700000000E+01 0.  1.
         25    2    1    2    0    0  0.00000000000E+00  0.00000000000E+00 -0.49292410520E+02  0.13436674027E+03  0.12499871662E+03 0.  0.
    9000005    1    3    3    0    0 -0.31984936006E+02 -0.50815931826E+02 -0.43260910456E+02  0.74012170838E+02  0.10000000000E+01 0.  0.
    9000005    1    3    3    0    0  0.31984936006E+02  0.50815931826E+02 -0.60315000647E+01  0.60354569435E+02  0.10000000000E+01 0.  0.
<mgrwt>
<rscale>  0 0.12499872E+03</rscale>
<asrwt>0</asrwt>
<pdfrwt beam="2">  1        4 0.14127627E-01 0.12499872E+03</pdfrwt>
<pdfrwt beam="1">  1       -4 0.65441792E-02 0.12499872E+03</pdfrwt>
<totfact> 0.10251732E+04</totfact>
</mgrwt>
</event>
<event>
 5    1  0.3294152E-002  0.1250006E+03  0.7818608E-02  0.1235068E+00
         -4   -1    0    0    0  501 -0.00000000000E+00  0.00000000000E+00  0.47671583537E+02  0.47688497322E+02  0.12700000000E+01 0.  1.
          4   -1    0    0  501    0  0.00000000000E+00 -0.00000000000E+00 -0.81905282238E+02  0.81915127776E+02  0.12700000000E+01 0.  1.
         25    2    1    2    0    0  0.00000000000E+00  0.00000000000E+00 -0.34233698702E+02  0.12960362510E+03  0.12500061405E+03 0.  0.
    9000005    1    3    3    0    0 -0.22942660819E+02 -0.15562582457E+01  0.43130567119E+02  0.48887968307E+02  0.10000000000E+01 0.  0.
    9000005    1    3    3    0    0  0.22942660819E+02  0.15562582457E+01 -0.77364265821E+02  0.80715656791E+02  0.10000000000E+01 0.  0.
<mgrwt>
<rscale>  0 0.12500061E+03</rscale>
<asrwt>0</asrwt>
<pdfrwt beam="2">  1        4 0.12602871E-01 0.12500061E+03</pdfrwt>
<pdfrwt beam="1">  1       -4 0.73361482E-02 0.12500061E+03</pdfrwt>
<totfact> 0.10352851E+04</totfact>
</mgrwt>
</event>
<event>
 5    1  0.3294152E-002  0.1250006E+03  0.7818608E-02  0.1235068E+00
         -4   -1    0    0    0  501 -0.00000000000E+00  0.00000000000E+00  0.23748645395E+02  0.23782578878E+02  0.12700000000E+01 0. -1.
          4   -1    0    0  501    0  0.00000000000E+00 -0.00000000000E+00 -0.16433074827E+03  0.16433565567E+03  0.12700000000E+01 0. -1.
         25    2    1    2    0    0  0.00000000000E+00  0.00000000000E+00 -0.14058210287E+03  0.18811823455E+03  0.12500057009E+03 0.  0.
    9000005    1    3    3    0    0  0.57286961826E+02  0.19344829499E+02 -0.46530775792E+02  0.76302893257E+02  0.10000000000E+01 0.  0.
    9000005    1    3    3    0    0 -0.57286961826E+02 -0.19344829499E+02 -0.94051327080E+02  0.11181534130E+03  0.10000000000E+01 0.  0.
<mgrwt>
<rscale>  0 0.12500057E+03</rscale>
<asrwt>0</asrwt>
<pdfrwt beam="2">  1        4 0.25284641E-01 0.12500057E+03</pdfrwt>
<pdfrwt beam="1">  1       -4 0.36566256E-02 0.12500057E+03</pdfrwt>
<totfact> 0.92174593E+03</totfact>
</mgrwt>
</event>
<event>
 5    1  0.3294152E-002  0.1250086E+03  0.7818608E-02  0.1235056E+00
         -4   -1    0    0    0  501 -0.00000000000E+00  0.00000000000E+00  0.16702219116E+03  0.16702701949E+03  0.12700000000E+01 0. -1.
          4   -1    0    0  501    0  0.00000000000E+00 -0.00000000000E+00 -0.23368408614E+02  0.23402893435E+02  0.12700000000E+01 0. -1.
         25    2    1    2    0    0  0.00000000000E+00  0.00000000000E+00  0.14365378254E+03  0.19042991292E+03  0.12500856969E+03 0.  0.
    9000005    1    3    3    0    0 -0.58870690306E+02 -0.16469134423E+02  0.52035549122E+02  0.80285048036E+02  0.10000000000E+01 0.  0.
    9000005    1    3    3    0    0  0.58870690306E+02  0.16469134423E+02  0.91618233422E+02  0.11014486489E+03  0.10000000000E+01 0.  0.
<mgrwt>
<rscale>  0 0.12500857E+03</rscale>
<asrwt>0</asrwt>
<pdfrwt beam="2">  1        4 0.35981640E-02 0.12500857E+03</pdfrwt>
<pdfrwt beam="1">  1       -4 0.25698745E-01 0.12500857E+03</pdfrwt>
<totfact> 0.91754951E+03</totfact>
</mgrwt>
</event>
<event>
 5    1  0.3294152E-002  0.1249969E+03  0.7818608E-02  0.1235074E+00
          4   -1    0    0  501    0  0.00000000000E+00  0.00000000000E+00  0.14146004297E+03  0.14146574376E+03  0.12700000000E+01 0. -1.
         -4   -1    0    0    0  501 -0.00000000000E+00 -0.00000000000E+00 -0.27591559872E+02  0.27620772548E+02  0.12700000000E+01 0. -1.
         25    2    1    2    0    0  0.00000000000E+00  0.00000000000E+00  0.11386848310E+03  0.16908651631E+03  0.12499687418E+03 0.  0.
    9000005    1    3    3    0    0  0.32831025213E+02  0.48599751151E+01 -0.14690765679E+02  0.36308596377E+02  0.10000000000E+01 0.  0.
    9000005    1    3    3    0    0 -0.32831025213E+02 -0.48599751151E+01  0.12855924878E+03  0.13277791993E+03  0.10000000000E+01 0.  0.
<mgrwt>
<rscale>  0 0.12499687E+03</rscale>
<asrwt>0</asrwt>
<pdfrwt beam="1">  1        4 0.21765769E-01 0.12499687E+03</pdfrwt>
<pdfrwt beam="2">  1       -4 0.42475410E-02 0.12499687E+03</pdfrwt>
<totfact> 0.95625731E+03</totfact>
</mgrwt>
</event>
<event>
 5    1  0.3294152E-002  0.1250024E+03  0.7818608E-02  0.1235066E+00
          4   -1    0    0  501    0  0.00000000000E+00  0.00000000000E+00  0.45601630829E+03  0.45601807676E+03  0.12700000000E+01 0. -1.
         -4   -1    0    0    0  501 -0.00000000000E+00 -0.00000000000E+00 -0.85174965827E+01  0.86116576823E+01  0.12700000000E+01 0. -1.
         25    2    1    2    0    0  0.00000000000E+00  0.00000000000E+00  0.44749881171E+03  0.46462973444E+03  0.12500241455E+03 0.  0.
    9000005    1    3    3    0    0  0.50213093512E+02  0.63774185633E+00  0.85488288165E+02  0.99151444206E+02  0.10000000000E+01 0.  0.
    9000005    1    3    3    0    0 -0.50213093512E+02 -0.63774185633E+00  0.36201052355E+03  0.36547829023E+03  0.10000000000E+01 0.  0.
<mgrwt>
<rscale>  0 0.12500241E+03</rscale>
<asrwt>0</asrwt>
<pdfrwt beam="1">  1        4 0.70163736E-01 0.12500241E+03</pdfrwt>
<pdfrwt beam="2">  1       -4 0.13177633E-02 0.12500241E+03</pdfrwt>
<totfact> 0.58713924E+03</totfact>
</mgrwt>
</event>
<event>
 5    1  0.3294152E-002  0.1249670E+03  0.7818608E-02  0.1235121E+00
         -4   -1    0    0    0  501 -0.00000000000E+00  0.00000000000E+00  0.75643857365E+03  0.75643963977E+03  0.12700000000E+01 0.  1.
          4   -1    0    0  501    0  0.00000000000E+00 -0.00000000000E+00 -0.50820624261E+01  0.52383450156E+01  0.12700000000E+01 0.  1.
         25    2    1    2    0    0  0.00000000000E+00  0.00000000000E+00  0.75135651123E+03  0.76167798478E+03  0.12496697779E+03 0.  0.
    9000005    1    3    3    0    0  0.51858036983E+02  0.13039999858E+02  0.57260434325E+03  0.57509654103E+03  0.10000000000E+01 0.  0.
    9000005    1    3    3    0    0 -0.51858036983E+02 -0.13039999858E+02  0.17875216797E+03  0.18658144375E+03  0.10000000000E+01 0.  0.
<mgrwt>
<rscale>  0 0.12496698E+03</rscale>
<asrwt>0</asrwt>
<pdfrwt beam="2">  1        4 0.79395999E-03 0.12496698E+03</pdfrwt>
<pdfrwt beam="1">  1       -4 0.11638720E+00 0.12496698E+03</pdfrwt>
<totfact> 0.40050637E+03</totfact>
</mgrwt>
</event>
<event>
 5    1  0.3294152E-002  0.1249955E+03  0.7818608E-02  0.1235076E+00
         -4   -1    0    0    0  501 -0.00000000000E+00  0.00000000000E+00  0.59254526236E+03  0.59254662335E+03  0.12700000000E+01 0.  1.
          4   -1    0    0  501    0  0.00000000000E+00 -0.00000000000E+00 -0.65293023399E+01  0.66516681401E+01  0.12700000000E+01 0.  1.
         25    2    1    2    0    0  0.00000000000E+00  0.00000000000E+00  0.58601596002E+03  0.59919829149E+03  0.12499554843E+03 0.  0.
    9000005    1    3    3    0    0  0.27280859518E+02  0.55206415691E+02  0.24205456997E+03  0.24976670810E+03  0.10000000000E+01 0.  0.
    9000005    1    3    3    0    0 -0.27280859518E+02 -0.55206415691E+02  0.34396139004E+03  0.34943158339E+03  0.10000000000E+01 0.  0.
<mgrwt>
<rscale>  0 0.12499555E+03</rscale>
<asrwt>0</asrwt>
<pdfrwt beam="2">  1        4 0.10140253E-02 0.12499555E+03</pdfrwt>
<pdfrwt beam="1">  1       -4 0.91170344E-01 0.12499555E+03</pdfrwt>
<totfact> 0.48923024E+03</totfact>
</mgrwt>
</event>
<event>
 5    1  0.3294152E-002  0.1250085E+03  0.7818608E-02  0.1235056E+00
         -4   -1    0    0    0  501 -0.00000000000E+00  0.00000000000E+00  0.10317271236E+03  0.10318052857E+03  0.12700000000E+01 0.  1.
          4   -1    0    0  501    0  0.00000000000E+00 -0.00000000000E+00 -0.37846515487E+02  0.37867817927E+02  0.12700000000E+01 0.  1.
         25    2    1    2    0    0  0.00000000000E+00  0.00000000000E+00  0.65326196875E+02  0.14104834650E+03  0.12500849592E+03 0.  0.
    9000005    1    3    3    0    0  0.31488015172E+02  0.52103695281E+02  0.16726707991E+02  0.63143272972E+02  0.10000000000E+01 0.  0.
    9000005    1    3    3    0    0 -0.31488015172E+02 -0.52103695281E+02  0.48599488883E+02  0.77905073526E+02  0.10000000000E+01 0.  0.
<mgrwt>
<rscale>  0 0.12500850E+03</rscale>
<asrwt>0</asrwt>
<pdfrwt beam="2">  1        4 0.58247808E-02 0.12500850E+03</pdfrwt>
<pdfrwt beam="1">  1       -4 0.15874965E-01 0.12500850E+03</pdfrwt>
<totfact> 0.10109969E+04</totfact>
</mgrwt>
</event>
<event>
 5    1  0.3294152E-002  0.1249918E+03  0.7818608E-02  0.1235082E+00
          4   -1    0    0  501    0  0.00000000000E+00  0.00000000000E+00  0.92524815729E+02  0.92533531358E+02  0.12700000000E+01 0.  1.
         -4   -1    0    0    0  501 -0.00000000000E+00 -0.00000000000E+00 -0.42192605347E+02  0.42211714558E+02  0.12700000000E+01 0.  1.
         25    2    1    2    0    0  0.00000000000E+00  0.00000000000E+00  0.50332210382E+02  0.13474524592E+03  0.12499179931E+03 0.  0.
    9000005    1    3    3    0    0  0.51148958948E+02 -0.34338808816E+02  0.36440063745E+02  0.71583853195E+02  0.10000000000E+01 0.  0.
    9000005    1    3    3    0    0 -0.51148958948E+02  0.34338808816E+02  0.13892146636E+02  0.63161392722E+02  0.10000000000E+01 0.  0.
<mgrwt>
<rscale>  0 0.12499180E+03</rscale>
<asrwt>0</asrwt>
<pdfrwt beam="1">  1        4 0.14236727E-01 0.12499180E+03</pdfrwt>
<pdfrwt beam="2">  1       -4 0.64933105E-02 0.12499180E+03</pdfrwt>
<totfact> 0.10245338E+04</totfact>
</mgrwt>
</event>
<event>
 5    1  0.3294152E-002  0.1249938E+03  0.7818608E-02  0.1235079E+00
          4   -1    0    0  501    0  0.00000000000E+00  0.00000000000E+00  0.47245844541E+03  0.47246015233E+03  0.12700000000E+01 0. -1.
         -4   -1    0    0    0  501 -0.00000000000E+00 -0.00000000000E+00 -0.82165931447E+01  0.83141627905E+01  0.12700000000E+01 0. -1.
         25    2    1    2    0    0  0.00000000000E+00  0.00000000000E+00  0.46424185226E+03  0.48077431512E+03  0.12499377858E+03 0.  0.
    9000005    1    3    3    0    0  0.46278009429E+02  0.27085781373E+02  0.10870242573E+03  0.12121266876E+03  0.10000000000E+01 0.  0.
    9000005    1    3    3    0    0 -0.46278009429E+02 -0.27085781373E+02  0.35553942653E+03  0.35956164635E+03  0.10000000000E+01 0.  0.
<mgrwt>
<rscale>  0 0.12499378E+03</rscale>
<asrwt>0</asrwt>
<pdfrwt beam="1">  1        4 0.72693563E-01 0.12499378E+03</pdfrwt>
<pdfrwt beam="2">  1       -4 0.12717277E-02 0.12499378E+03</pdfrwt>
<totfact> 0.57395368E+03</totfact>
</mgrwt>
</event>
<event>
 5    1  0.3294152E-002  0.1249966E+03  0.7818608E-02  0.1235075E+00
          4   -1    0    0  501    0  0.00000000000E+00  0.00000000000E+00  0.17519577079E+02  0.17565548128E+02  0.12700000000E+01 0. -1.
         -4   -1    0    0    0  501 -0.00000000000E+00 -0.00000000000E+00 -0.22261268302E+03  0.22261630565E+03  0.12700000000E+01 0. -1.
         25    2    1    2    0    0  0.00000000000E+00  0.00000000000E+00 -0.20509310594E+03  0.24018185378E+03  0.12499656307E+03 0.  0.
    9000005    1    3    3    0    0  0.29150162193E+02 -0.38275025628E+02 -0.17917414050E+03  0.18552380485E+03  0.10000000000E+01 0.  0.
    9000005    1    3    3    0    0 -0.29150162193E+02  0.38275025628E+02 -0.25918965438E+02  0.54658048923E+02  0.10000000000E+01 0.  0.
<mgrwt>
<rscale>  0 0.12499656E+03</rscale>
<asrwt>0</asrwt>
<pdfrwt beam="1">  1        4 0.26991346E-02 0.12499656E+03</pdfrwt>
<pdfrwt beam="2">  1       -4 0.34251918E-01 0.12499656E+03</pdfrwt>
<totfact> 0.83776711E+03</totfact>
</mgrwt>
</event>
<event>
 5    1  0.3294152E-002  0.1249952E+03  0.7818608E-02  0.1235077E+00
          4   -1    0    0  501    0  0.00000000000E+00  0.00000000000E+00  0.46666078925E+02  0.46683357015E+02  0.12700000000E+01 0.  1.
         -4   -1    0    0    0  501 -0.00000000000E+00 -0.00000000000E+00 -0.83662383531E+02  0.83672022314E+02  0.12700000000E+01 0.  1.
         25    2    1    2    0    0  0.00000000000E+00  0.00000000000E+00 -0.36996304606E+02  0.13035537933E+03  0.12499519337E+03 0.  0.
    9000005    1    3    3    0    0 -0.24045561367E+02  0.31668079270E+02 -0.68772186855E+02  0.79446019101E+02  0.10000000000E+01 0.  0.
    9000005    1    3    3    0    0  0.24045561367E+02 -0.31668079270E+02  0.31775882249E+02  0.50909360228E+02  0.10000000000E+01 0.  0.
<mgrwt>
<rscale>  0 0.12499519E+03</rscale>
<asrwt>0</asrwt>
<pdfrwt beam="1">  1        4 0.71814673E-02 0.12499519E+03</pdfrwt>
<pdfrwt beam="2">  1       -4 0.12873206E-01 0.12499519E+03</pdfrwt>
<totfact> 0.10338033E+04</totfact>
</mgrwt>
</event>
<event>
 5    1  0.3294152E-002  0.1250055E+03  0.7818608E-02  0.1235061E+00
          4   -1    0    0  501    0  0.00000000000E+00  0.00000000000E+00  0.22983543344E+02  0.23018604751E+02  0.12700000000E+01 0.  1.
         -4   -1    0    0    0  501 -0.00000000000E+00 -0.00000000000E+00 -0.16980654692E+03  0.16981129608E+03  0.12700000000E+01 0.  1.
         25    2    1    2    0    0  0.00000000000E+00  0.00000000000E+00 -0.14682300358E+03  0.19282990083E+03  0.12500550498E+03 0.  0.
    9000005    1    3    3    0    0  0.44312914655E+02  0.19231926067E+02 -0.13457387272E+03  0.14298471458E+03  0.10000000000E+01 0.  0.
    9000005    1    3    3    0    0 -0.44312914655E+02 -0.19231926067E+02 -0.12249130854E+02  0.49845186248E+02  0.10000000000E+01 0.  0.
<mgrwt>
<rscale>  0 0.12500550E+03</rscale>
<asrwt>0</asrwt>
<pdfrwt beam="1">  1        4 0.35389922E-02 0.12500550E+03</pdfrwt>
<pdfrwt beam="2">  1       -4 0.26127146E-01 0.12500550E+03</pdfrwt>
<totfact> 0.91345979E+03</totfact>
</mgrwt>
</event>
<event>
 5    1  0.3294152E-002  0.1250010E+03  0.7818608E-02  0.1235068E+00
          4   -1    0    0  501    0  0.00000000000E+00  0.00000000000E+00  0.40215255868E+02  0.40235304206E+02  0.12700000000E+01 0.  1.
         -4   -1    0    0    0  501 -0.00000000000E+00 -0.00000000000E+00 -0.97086714652E+02  0.97095020788E+02  0.12700000000E+01 0.  1.
         25    2    1    2    0    0  0.00000000000E+00  0.00000000000E+00 -0.56871458783E+02  0.13733032499E+03  0.12500102135E+03 0.  0.
    9000005    1    3    3    0    0 -0.18803280680E+02 -0.18530359289E+02  0.33793659058E+02  0.42894626379E+02  0.10000000000E+01 0.  0.
    9000005    1    3    3    0    0  0.18803280680E+02  0.18530359289E+02 -0.90665117841E+02  0.94435698615E+02  0.10000000000E+01 0.  0.
<mgrwt>
<rscale>  0 0.12500102E+03</rscale>
<asrwt>0</asrwt>
<pdfrwt beam="1">  1        4 0.61891436E-02 0.12500102E+03</pdfrwt>
<pdfrwt beam="2">  1       -4 0.14938599E-01 0.12500102E+03</pdfrwt>
<totfact> 0.10188949E+04</totfact>
</mgrwt>
</event>
<event>
 5    1  0.3294152E-002  0.1249772E+03  0.7818608E-02  0.1235105E+00
         -4   -1    0    0    0  501 -0.00000000000E+00  0.00000000000E+00  0.60345076337E+02  0.60358438831E+02  0.12700000000E+01 0.  1.
          4   -1    0    0  501    0  0.00000000000E+00 -0.00000000000E+00 -0.64681456558E+02  0.64693923382E+02  0.12700000000E+01 0.  1.
         25    2    1    2    0    0  0.00000000000E+00  0.00000000000E+00 -0.43363802212E+01  0.12505236221E+03  0.12497715432E+03 0.  0.
    9000005    1    3    3    0    0 -0.35163674707E+02 -0.51329536204E+02 -0.78827537348E+01  0.62724342263E+02  0.10000000000E+01 0.  0.
    9000005    1    3    3    0    0  0.35163674707E+02  0.51329536204E+02  0.35463735136E+01  0.62328019950E+02  0.10000000000E+01 0.  0.
<mgrwt>
<rscale>  0 0.12497715E+03</rscale>
<asrwt>0</asrwt>
<pdfrwt beam="2">  1        4 0.99529802E-02 0.12497715E+03</pdfrwt>
<pdfrwt beam="1">  1       -4 0.92858448E-02 0.12497715E+03</pdfrwt>
<totfact> 0.10457124E+04</totfact>
</mgrwt>
</event>
<event>
 5    1  0.3294152E-002  0.1250067E+03  0.7818608E-02  0.1235059E+00
         -4   -1    0    0    0  501 -0.00000000000E+00  0.00000000000E+00  0.86525721009E+01  0.87452789528E+01  0.12700000000E+01 0.  1.
          4   -1    0    0  501    0  0.00000000000E+00 -0.00000000000E+00 -0.44900458046E+03  0.44900637654E+03  0.12700000000E+01 0.  1.
         25    2    1    2    0    0  0.00000000000E+00  0.00000000000E+00 -0.44035200836E+03  0.45775165549E+03  0.12500674718E+03 0.  0.
    9000005    1    3    3    0    0  0.14951390555E+01  0.62055949479E+02 -0.24670721735E+03  0.25439856013E+03  0.10000000000E+01 0.  0.
    9000005    1    3    3    0    0 -0.14951390555E+01 -0.62055949479E+02 -0.19364479101E+03  0.20335309536E+03  0.10000000000E+01 0.  0.
<mgrwt>
<rscale>  0 0.12500675E+03</rscale>
<asrwt>0</asrwt>
<pdfrwt beam="2">  1        4 0.69084879E-01 0.12500675E+03</pdfrwt>
<pdfrwt beam="1">  1       -4 0.13384348E-02 0.12500675E+03</pdfrwt>
<totfact> 0.59289302E+03</totfact>
</mgrwt>
</event>
<event>
 5    1  0.3294152E-002  0.1249995E+03  0.7818608E-02  0.1235070E+00
          4   -1    0    0  501    0  0.00000000000E+00  0.00000000000E+00  0.33161962350E+02  0.33186271964E+02  0.12700000000E+01 0.  1.
         -4   -1    0    0    0  501 -0.00000000000E+00 -0.00000000000E+00 -0.11772130769E+03  0.11772815800E+03  0.12700000000E+01 0.  1.
         25    2    1    2    0    0  0.00000000000E+00  0.00000000000E+00 -0.84559345344E+02  0.15091442996E+03  0.12499952914E+03 0.  0.
    9000005    1    3    3    0    0  0.38567455240E+01  0.55185299361E+02 -0.71857065561E+01  0.55793602951E+02  0.10000000000E+01 0.  0.
    9000005    1    3    3    0    0 -0.38567455240E+01 -0.55185299361E+02 -0.77373638788E+02  0.95120827009E+02  0.10000000000E+01 0.  0.
<mgrwt>
<rscale>  0 0.12499953E+03</rscale>
<asrwt>0</asrwt>
<pdfrwt beam="1">  1        4 0.51042373E-02 0.12499953E+03</pdfrwt>
<pdfrwt beam="2">  1       -4 0.18113367E-01 0.12499953E+03</pdfrwt>
<totfact> 0.99122782E+03</totfact>
</mgrwt>
</event>
<event>
 5    1  0.3294152E-002  0.1250068E+03  0.7818608E-02  0.1235059E+00
         -4   -1    0    0    0  501 -0.00000000000E+00  0.00000000000E+00  0.30082453321E+02  0.30109249373E+02  0.12700000000E+01 0. -1.
          4   -1    0    0  501    0  0.00000000000E+00 -0.00000000000E+00 -0.12977789288E+03  0.12978410681E+03  0.12700000000E+01 0. -1.
         25    2    1    2    0    0  0.00000000000E+00  0.00000000000E+00 -0.99695439559E+02  0.15989335618E+03  0.12500681854E+03 0.  0.
    9000005    1    3    3    0    0  0.58460629167E+02 -0.10303669880E+02 -0.74842646515E+02  0.95531316922E+02  0.10000000000E+01 0.  0.
    9000005    1    3    3    0    0 -0.58460629167E+02  0.10303669880E+02 -0.24852793044E+02  0.64362039260E+02  0.10000000000E+01 0.  0.
<mgrwt>
<rscale>  0 0.12500682E+03</rscale>
<asrwt>0</asrwt>
<pdfrwt beam="2">  1        4 0.19968369E-01 0.12500682E+03</pdfrwt>
<pdfrwt beam="1">  1       -4 0.46306090E-02 0.12500682E+03</pdfrwt>
<totfact> 0.97348428E+03</totfact>
</mgrwt>
</event>
<event>
 5    1  0.3294152E-002  0.1250018E+03  0.7818608E-02  0.1235067E+00
         -4   -1    0    0    0  501 -0.00000000000E+00  0.00000000000E+00  0.14301329610E+03  0.14301893497E+03  0.12700000000E+01 0.  1.
          4   -1    0    0  501    0  0.00000000000E+00 -0.00000000000E+00 -0.27293720813E+02  0.27323251926E+02  0.12700000000E+01 0.  1.
         25    2    1    2    0    0  0.00000000000E+00  0.00000000000E+00  0.11571957528E+03  0.17034218690E+03  0.12500176212E+03 0.  0.
    9000005    1    3    3    0    0  0.51806675469E+02  0.97090819661E+01  0.12108923799E+02  0.54090885844E+02  0.10000000000E+01 0.  0.
    9000005    1    3    3    0    0 -0.51806675469E+02 -0.97090819661E+01  0.10361065148E+03  0.11625130105E+03  0.10000000000E+01 0.  0.
<mgrwt>
<rscale>  0 0.12500176E+03</rscale>
<asrwt>0</asrwt>
<pdfrwt beam="2">  1        4 0.42017394E-02 0.12500176E+03</pdfrwt>
<pdfrwt beam="1">  1       -4 0.22004751E-01 0.12500176E+03</pdfrwt>
<totfact> 0.95381123E+03</totfact>
</mgrwt>
</event>
<event>
 5    1  0.3294152E-002  0.1249910E+03  0.7818608E-02  0.1235083E+00
         -4   -1    0    0    0  501 -0.00000000000E+00  0.00000000000E+00  0.55980095010E+02  0.55994499171E+02  0.12700000000E+01 0.  1.
          4   -1    0    0  501    0  0.00000000000E+00 -0.00000000000E+00 -0.69740058799E+02  0.69751621496E+02  0.12700000000E+01 0.  1.
         25    2    1    2    0    0  0.00000000000E+00  0.00000000000E+00 -0.13759963789E+02  0.12574612067E+03  0.12499100071E+03 0.  0.
    9000005    1    3    3    0    0  0.32882317386E+02  0.46859799162E+02 -0.32083276429E+02  0.65630969828E+02  0.10000000000E+01 0.  0.
    9000005    1    3    3    0    0 -0.32882317386E+02 -0.46859799162E+02  0.18323312640E+02  0.60115150838E+02  0.10000000000E+01 0.  0.
<mgrwt>
<rscale>  0 0.12499100E+03</rscale>
<asrwt>0</asrwt>
<pdfrwt beam="2">  1        4 0.10731237E-01 0.12499100E+03</pdfrwt>
<pdfrwt beam="1">  1       -4 0.86143197E-02 0.12499100E+03</pdfrwt>
<totfact> 0.10438649E+04</totfact>
</mgrwt>
</event>
<event>
 5    1  0.3294152E-002  0.1250007E+03  0.7818608E-02  0.1235068E+00
         -4   -1    0    0    0  501 -0.00000000000E+00  0.00000000000E+00  0.21254108898E+03  0.21254488327E+03  0.12700000000E+01 0. -1.
          4   -1    0    0  501    0  0.00000000000E+00 -0.00000000000E+00 -0.18353093758E+02  0.18396982103E+02  0.12700000000E+01 0. -1.
         25    2    1    2    0    0  0.00000000000E+00  0.00000000000E+00  0.19418799522E+03  0.23094186537E+03  0.12500067077E+03 0.  0.
    9000005    1    3    3    0    0 -0.53600967679E+02 -0.75241706878E+01  0.39386855095E+02  0.66947750036E+02  0.10000000000E+01 0.  0.
    9000005    1    3    3    0    0  0.53600967679E+02  0.75241706878E+01  0.15480114012E+03  0.16399411533E+03  0.10000000000E+01 0.  0.
<mgrwt>
<rscale>  0 0.12500067E+03</rscale>
<asrwt>0</asrwt>
<pdfrwt beam="2">  1        4 0.28272209E-02 0.12500067E+03</pdfrwt>
<pdfrwt beam="1">  1       -4 0.32702296E-01 0.12500067E+03</pdfrwt>
<totfact> 0.85163908E+03</totfact>
</mgrwt>
</event>
<event>
 5    1  0.3294152E-002  0.1249987E+03  0.7818608E-02  0.1235071E+00
         -4   -1    0    0    0  501 -0.00000000000E+00  0.00000000000E+00  0.54101054786E+02  0.54115959097E+02  0.12700000000E+01 0. -1.
          4   -1    0    0  501    0  0.00000000000E+00 -0.00000000000E+00 -0.72170858549E+02  0.72182031862E+02  0.12700000000E+01 0. -1.
         25    2    1    2    0    0  0.00000000000E+00  0.00000000000E+00 -0.18069803763E+02  0.12629799096E+03  0.12499865884E+03 0.  0.
    9000005    1    3    3    0    0  0.50137430667E+02 -0.37296304696E+02 -0.84040075412E+01  0.63058731677E+02  0.10000000000E+01 0.  0.
    9000005    1    3    3    0    0 -0.50137430667E+02  0.37296304696E+02 -0.96657962215E+01  0.63239259282E+02  0.10000000000E+01 0.  0.
<mgrwt>
<rscale>  0 0.12499866E+03</rscale>
<asrwt>0</asrwt>
<pdfrwt beam="2">  1        4 0.11105215E-01 0.12499866E+03</pdfrwt>
<pdfrwt beam="1">  1       -4 0.83252451E-02 0.12499866E+03</pdfrwt>
<totfact> 0.10424753E+04</totfact>
</mgrwt>
</event>
<event>
 5    1  0.3294152E-002  0.1249992E+03  0.7818608E-02  0.1235070E+00
         -4   -1    0    0    0  501 -0.00000000000E+00  0.00000000000E+00  0.54564686271E+01  0.56023164744E+01  0.12700000000E+01 0.  1.
          4   -1    0    0  501    0  0.00000000000E+00 -0.00000000000E+00 -0.70629668473E+03  0.70629782653E+03  0.12700000000E+01 0.  1.
         25    2    1    2    0    0  0.00000000000E+00  0.00000000000E+00 -0.70084021610E+03  0.71190014300E+03  0.12499922041E+03 0.  0.
    9000005    1    3    3    0    0  0.49397013098E+02  0.21626114966E+01 -0.56806903604E+03  0.57021765274E+03  0.10000000000E+01 0.  0.
    9000005    1    3    3    0    0 -0.49397013098E+02 -0.21626114966E+01 -0.13277118006E+03  0.14168249026E+03  0.10000000000E+01 0.  0.
<mgrwt>
<rscale>  0 0.12499922E+03</rscale>
<asrwt>0</asrwt>
<pdfrwt beam="2">  1        4 0.10867226E+00 0.12499922E+03</pdfrwt>
<pdfrwt beam="1">  1       -4 0.85076417E-03 0.12499922E+03</pdfrwt>
<totfact> 0.42466654E+03</totfact>
</mgrwt>
</event>
<event>
 5    1  0.3294152E-002  0.1249994E+03  0.7818608E-02  0.1235070E+00
          4   -1    0    0  501    0  0.00000000000E+00  0.00000000000E+00  0.20733844011E+02  0.20772702941E+02  0.12700000000E+01 0.  1.
         -4   -1    0    0    0  501 -0.00000000000E+00 -0.00000000000E+00 -0.18818064471E+03  0.18818493018E+03  0.12700000000E+01 0.  1.
         25    2    1    2    0    0  0.00000000000E+00  0.00000000000E+00 -0.16744680070E+03  0.20895763312E+03  0.12499944549E+03 0.  0.
    9000005    1    3    3    0    0  0.43500704731E+02 -0.43790367162E+02 -0.10004318105E+03  0.11755656359E+03  0.10000000000E+01 0.  0.
    9000005    1    3    3    0    0 -0.43500704731E+02  0.43790367162E+02 -0.67403619650E+02  0.91401069525E+02  0.10000000000E+01 0.  0.
<mgrwt>
<rscale>  0 0.12499945E+03</rscale>
<asrwt>0</asrwt>
<pdfrwt beam="1">  1        4 0.31931411E-02 0.12499945E+03</pdfrwt>
<pdfrwt beam="2">  1       -4 0.28954186E-01 0.12499945E+03</pdfrwt>
<totfact> 0.88647496E+03</totfact>
</mgrwt>
</event>
<event>
 5    1  0.3294152E-002  0.1249980E+03  0.7818608E-02  0.1235072E+00
         -4   -1    0    0    0  501 -0.00000000000E+00  0.00000000000E+00  0.78619811597E+01  0.79638965184E+01  0.12700000000E+01 0. -1.
          4   -1    0    0  501    0  0.00000000000E+00 -0.00000000000E+00 -0.49353507044E+03  0.49353670447E+03  0.12700000000E+01 0. -1.
         25    2    1    2    0    0  0.00000000000E+00  0.00000000000E+00 -0.48567308928E+03  0.50150060099E+03  0.12499801253E+03 0.  0.
    9000005    1    3    3    0    0  0.37964221977E+02 -0.33980086497E+02 -0.38800455004E+03  0.39133675943E+03  0.10000000000E+01 0.  0.
    9000005    1    3    3    0    0 -0.37964221977E+02  0.33980086497E+02 -0.97668539239E+02  0.11016384155E+03  0.10000000000E+01 0.  0.
<mgrwt>
<rscale>  0 0.12499801E+03</rscale>
<asrwt>0</asrwt>
<pdfrwt beam="2">  1        4 0.75936414E-01 0.12499801E+03</pdfrwt>
<pdfrwt beam="1">  1       -4 0.12175013E-02 0.12499801E+03</pdfrwt>
<totfact> 0.55750573E+03</totfact>
</mgrwt>
</event>
<event>
 5    1  0.3294152E-002  0.1249959E+03  0.7818608E-02  0.1235076E+00
          4   -1    0    0  501    0  0.00000000000E+00  0.00000000000E+00  0.81321470047E+02  0.81331386258E+02  0.12700000000E+01 0. -1.
         -4   -1    0    0    0  501 -0.00000000000E+00 -0.00000000000E+00 -0.48010295897E+02  0.48027090398E+02  0.12700000000E+01 0. -1.
         25    2    1    2    0    0  0.00000000000E+00  0.00000000000E+00  0.33311174150E+02  0.12935847666E+03  0.12499592457E+03 0.  0.
    9000005    1    3    3    0    0  0.32194001085E+02 -0.31947591057E+02  0.61143030695E+02  0.76135224980E+02  0.10000000000E+01 0.  0.
    9000005    1    3    3    0    0 -0.32194001085E+02  0.31947591057E+02 -0.27831856546E+02  0.53223251676E+02  0.10000000000E+01 0.  0.
<mgrwt>
<rscale>  0 0.12499592E+03</rscale>
<asrwt>0</asrwt>
<pdfrwt beam="1">  1        4 0.12513050E-01 0.12499592E+03</pdfrwt>
<pdfrwt beam="2">  1       -4 0.73882541E-02 0.12499592E+03</pdfrwt>
<totfact> 0.10359203E+04</totfact>
</mgrwt>
</event>
<event>
 5    1  0.3294152E-002  0.1249996E+03  0.7818608E-02  0.1235070E+00
         -4   -1    0    0    0  501 -0.00000000000E+00  0.00000000000E+00  0.25917700593E+03  0.25918011749E+03  0.12700000000E+01 0.  1.
          4   -1    0    0  501    0  0.00000000000E+00 -0.00000000000E+00 -0.15041690835E+02  0.15095209941E+02  0.12700000000E+01 0.  1.
         25    2    1    2    0    0  0.00000000000E+00  0.00000000000E+00  0.24413531509E+03  0.27427532743E+03  0.12499961265E+03 0.  0.
    9000005    1    3    3    0    0  0.59919924651E+02  0.16445814828E+02  0.13668240920E+03  0.15014640582E+03  0.10000000000E+01 0.  0.
    9000005    1    3    3    0    0 -0.59919924651E+02 -0.16445814828E+02  0.10745290589E+03  0.12412892161E+03  0.10000000000E+01 0.  0.
<mgrwt>
<rscale>  0 0.12499961E+03</rscale>
<asrwt>0</asrwt>
<pdfrwt beam="2">  1        4 0.23184626E-02 0.12499961E+03</pdfrwt>
<pdfrwt beam="1">  1       -4 0.39877741E-01 0.12499961E+03</pdfrwt>
<totfact> 0.78944009E+03</totfact>
</mgrwt>
</event>
<event>
 5    1  0.3294152E-002  0.1250008E+03  0.7818608E-02  0.1235068E+00
          4   -1    0    0  501    0  0.00000000000E+00  0.00000000000E+00  0.28787130432E+03  0.28787410573E+03  0.12700000000E+01 0. -1.
         -4   -1    0    0    0  501 -0.00000000000E+00 -0.00000000000E+00 -0.13537019549E+02  0.13596462712E+02  0.12700000000E+01 0. -1.
         25    2    1    2    0    0  0.00000000000E+00  0.00000000000E+00  0.27433428477E+03  0.30147056844E+03  0.12500081534E+03 0.  0.
    9000005    1    3    3    0    0  0.35465703030E+01 -0.33527607696E+02  0.10266467447E+02  0.35257325375E+02  0.10000000000E+01 0.  0.
    9000005    1    3    3    0    0 -0.35465703030E+01  0.33527607696E+02  0.26406781732E+03  0.26621324307E+03  0.10000000000E+01 0.  0.
<mgrwt>
<rscale>  0 0.12500082E+03</rscale>
<asrwt>0</asrwt>
<pdfrwt beam="1">  1        4 0.44292683E-01 0.12500082E+03</pdfrwt>
<pdfrwt beam="2">  1       -4 0.20874063E-02 0.12500082E+03</pdfrwt>
<totfact> 0.75413375E+03</totfact>
</mgrwt>
</event>
<event>
 5    1  0.3294152E-002  0.1249942E+03  0.7818608E-02  0.1235078E+00
         -4   -1    0    0    0  501 -0.00000000000E+00  0.00000000000E+00  0.22855533779E+03  0.22855886623E+03  0.12700000000E+01 0.  1.
          4   -1    0    0  501    0  0.00000000000E+00 -0.00000000000E+00 -0.17062201413E+02  0.17109401423E+02  0.12700000000E+01 0.  1.
         25    2    1    2    0    0  0.00000000000E+00  0.00000000000E+00  0.21149313638E+03  0.24566826765E+03  0.12499420385E+03 0.  0.
    9000005    1    3    3    0    0 -0.15147388500E+02 -0.58537297113E+02  0.74743128771E+02  0.96143610449E+02  0.10000000000E+01 0.  0.
    9000005    1    3    3    0    0  0.15147388500E+02  0.58537297113E+02  0.13675000760E+03  0.14952465720E+03  0.10000000000E+01 0.  0.
<mgrwt>
<rscale>  0 0.12499420E+03</rscale>
<asrwt>0</asrwt>
<pdfrwt beam="2">  1        4 0.26288563E-02 0.12499420E+03</pdfrwt>
<pdfrwt beam="1">  1       -4 0.35166261E-01 0.12499420E+03</pdfrwt>
<totfact> 0.82971072E+03</totfact>
</mgrwt>
</event>
<event>
 5    1  0.3294152E-002  0.1249975E+03  0.7818608E-02  0.1235073E+00
         -4   -1    0    0    0  501 -0.00000000000E+00  0.00000000000E+00  0.19566899275E+03  0.19567311421E+03  0.12700000000E+01 0. -1.
          4   -1    0    0  501    0  0.00000000000E+00 -0.00000000000E+00 -0.19938235458E+02  0.19978641926E+02  0.12700000000E+01 0. -1.
         25    2    1    2    0    0  0.00000000000E+00  0.00000000000E+00  0.17573075730E+03  0.21565175614E+03  0.12499752344E+03 0.  0.
    9000005    1    3    3    0    0  0.13824241510E+02  0.53667686928E+02  0.13768190093E+03  0.14842047068E+03  0.10000000000E+01 0.  0.
    9000005    1    3    3    0    0 -0.13824241510E+02 -0.53667686928E+02  0.38048856370E+02  0.67231285460E+02  0.10000000000E+01 0.  0.
<mgrwt>
<rscale>  0 0.12499752E+03</rscale>
<asrwt>0</asrwt>
<pdfrwt beam="2">  1        4 0.30708462E-02 0.12499752E+03</pdfrwt>
<pdfrwt beam="1">  1       -4 0.30106346E-01 0.12499752E+03</pdfrwt>
<totfact> 0.87565959E+03</totfact>
</mgrwt>
</event>
<event>
 5    1  0.3294152E-002  0.1249973E+03  0.7818608E-02  0.1235073E+00
         -4   -1    0    0    0  501 -0.00000000000E+00  0.00000000000E+00  0.35057497203E+03  0.35057727238E+03  0.12700000000E+01 0. -1.
          4   -1    0    0  501    0  0.00000000000E+00 -0.00000000000E+00 -0.11103396488E+02  0.11175791406E+02  0.12700000000E+01 0. -1.
         25    2    1    2    0    0  0.00000000000E+00  0.00000000000E+00  0.33947157554E+03  0.36175306379E+03  0.12499731422E+03 0.  0.
    9000005    1    3    3    0    0 -0.23476740981E+02  0.10075252332E+02  0.46861971027E+01  0.25992855171E+02  0.10000000000E+01 0.  0.
    9000005    1    3    3    0    0  0.23476740981E+02 -0.10075252332E+02  0.33478537844E+03  0.33576020862E+03  0.10000000000E+01 0.  0.
<mgrwt>
<rscale>  0 0.12499731E+03</rscale>
<asrwt>0</asrwt>
<pdfrwt beam="2">  1        4 0.17139605E-02 0.12499731E+03</pdfrwt>
<pdfrwt beam="1">  1       -4 0.53940362E-01 0.12499731E+03</pdfrwt>
<totfact> 0.68454699E+03</totfact>
</mgrwt>
</event>
<event>
 5    1  0.3294152E-002  0.1250007E+03  0.7818608E-02  0.1235068E+00
          4   -1    0    0  501    0  0.00000000000E+00  0.00000000000E+00  0.75858464488E+01  0.76914216075E+01  0.12700000000E+01 0. -1.
         -4   -1    0    0    0  501 -0.00000000000E+00 -0.00000000000E+00 -0.51128042155E+03  0.51128199886E+03  0.12700000000E+01 0. -1.
         25    2    1    2    0    0  0.00000000000E+00  0.00000000000E+00 -0.50369457510E+03  0.51897342047E+03  0.12500074467E+03 0.  0.
    9000005    1    3    3    0    0 -0.10499139223E+02  0.24850266976E+02 -0.48588037748E+03  0.48662974520E+03  0.10000000000E+01 0.  0.
    9000005    1    3    3    0    0  0.10499139223E+02 -0.24850266976E+02 -0.17814197626E+02  0.32343675274E+02  0.10000000000E+01 0.  0.
<mgrwt>
<rscale>  0 0.12500074E+03</rscale>
<asrwt>0</asrwt>
<pdfrwt beam="1">  1        4 0.11752962E-02 0.12500074E+03</pdfrwt>
<pdfrwt beam="2">  1       -4 0.78666742E-01 0.12500074E+03</pdfrwt>
<totfact> 0.54420859E+03</totfact>
</mgrwt>
</event>
<event>
 5    1  0.3294152E-002  0.1250019E+03  0.7818608E-02  0.1235066E+00
          4   -1    0    0  501    0  0.00000000000E+00  0.00000000000E+00  0.23636200700E+03  0.23636541890E+03  0.12700000000E+01 0.  1.
         -4   -1    0    0    0  501 -0.00000000000E+00 -0.00000000000E+00 -0.16499132175E+02  0.16547938316E+02  0.12700000000E+01 0.  1.
         25    2    1    2    0    0  0.00000000000E+00  0.00000000000E+00  0.21986287483E+03  0.25291335722E+03  0.12500193012E+03 0.  0.
    9000005    1    3    3    0    0  0.54950906115E+02 -0.88387023612E+01  0.16743113249E+03  0.17644236699E+03  0.10000000000E+01 0.  0.
    9000005    1    3    3    0    0 -0.54950906115E+02  0.88387023612E+01  0.52431742333E+02  0.76470990227E+02  0.10000000000E+01 0.  0.
<mgrwt>
<rscale>  0 0.12500193E+03</rscale>
<asrwt>0</asrwt>
<pdfrwt beam="1">  1        4 0.36367401E-01 0.12500193E+03</pdfrwt>
<pdfrwt beam="2">  1       -4 0.25423449E-02 0.12500193E+03</pdfrwt>
<totfact> 0.81907451E+03</totfact>
</mgrwt>
</event>
<event>
 5    1  0.3294152E-002  0.1249963E+03  0.7818608E-02  0.1235075E+00
          4   -1    0    0  501    0  0.00000000000E+00  0.00000000000E+00  0.50309611121E+01  0.51887830665E+01  0.12700000000E+01 0. -1.
         -4   -1    0    0    0  501 -0.00000000000E+00 -0.00000000000E+00 -0.76424834121E+03  0.76424939643E+03  0.12700000000E+01 0. -1.
         25    2    1    2    0    0  0.00000000000E+00  0.00000000000E+00 -0.75921738010E+03  0.76943817950E+03  0.12499632724E+03 0.  0.
    9000005    1    3    3    0    0 -0.37980122884E+02 -0.25170972261E+02 -0.11635301760E+03  0.12496036285E+03  0.10000000000E+01 0.  0.
    9000005    1    3    3    0    0  0.37980122884E+02  0.25170972261E+02 -0.64286436251E+03  0.64447781665E+03  0.10000000000E+01 0.  0.
<mgrwt>
<rscale>  0 0.12499633E+03</rscale>
<asrwt>0</asrwt>
<pdfrwt beam="1">  1        4 0.78621595E-03 0.12499633E+03</pdfrwt>
<pdfrwt beam="2">  1       -4 0.11758880E+00 0.12499633E+03</pdfrwt>
<totfact> 0.39664420E+03</totfact>
</mgrwt>
</event>
<event>
 5    1  0.3294152E-002  0.1249974E+03  0.7818608E-02  0.1235073E+00
         -4   -1    0    0    0  501 -0.00000000000E+00  0.00000000000E+00  0.50197116109E+02  0.50213179203E+02  0.12700000000E+01 0.  1.
          4   -1    0    0  501    0  0.00000000000E+00 -0.00000000000E+00 -0.77781283683E+02  0.77791651167E+02  0.12700000000E+01 0.  1.
         25    2    1    2    0    0  0.00000000000E+00  0.00000000000E+00 -0.27584167573E+02  0.12800483037E+03  0.12499740116E+03 0.  0.
    9000005    1    3    3    0    0  0.11007920429E+02 -0.56763071585E+02 -0.38066127213E+02  0.69233305923E+02  0.10000000000E+01 0.  0.
    9000005    1    3    3    0    0 -0.11007920429E+02  0.56763071585E+02  0.10481959640E+02  0.58771524448E+02  0.10000000000E+01 0.  0.
<mgrwt>
<rscale>  0 0.12499740E+03</rscale>
<asrwt>0</asrwt>
<pdfrwt beam="2">  1        4 0.11968384E-01 0.12499740E+03</pdfrwt>
<pdfrwt beam="1">  1       -4 0.77246664E-02 0.12499740E+03</pdfrwt>
<totfact> 0.10387993E+04</totfact>
</mgrwt>
</event>
<event>
 5    1  0.3294152E-002  0.1250038E+03  0.7818608E-02  0.1235063E+00
         -4   -1    0    0    0  501 -0.00000000000E+00  0.00000000000E+00  0.10753683608E+03  0.10754433511E+03  0.12700000000E+01 0. -1.
          4   -1    0    0  501    0  0.00000000000E+00 -0.00000000000E+00 -0.36307088005E+02  0.36329293131E+02  0.12700000000E+01 0. -1.
         25    2    1    2    0    0  0.00000000000E+00  0.00000000000E+00  0.71229748074E+02  0.14387362824E+03  0.12500377551E+03 0.  0.
    9000005    1    3    3    0    0  0.34192915496E+01 -0.60904377870E+02  0.51246306482E+02  0.79675709765E+02  0.10000000000E+01 0.  0.
    9000005    1    3    3    0    0 -0.34192915496E+01  0.60904377870E+02  0.19983441592E+02  0.64197918473E+02  0.10000000000E+01 0.  0.
<mgrwt>
<rscale>  0 0.12500378E+03</rscale>
<asrwt>0</asrwt>
<pdfrwt beam="2">  1        4 0.55879909E-02 0.12500378E+03</pdfrwt>
<pdfrwt beam="1">  1       -4 0.16546413E-01 0.12500378E+03</pdfrwt>
<totfact> 0.10053069E+04</totfact>
</mgrwt>
</event>
<event>
 5    1  0.3294152E-002  0.1249455E+03  0.7818608E-02  0.1235155E+00
         -4   -1    0    0    0  501 -0.00000000000E+00  0.00000000000E+00  0.16150380578E+02  0.16200237430E+02  0.12700000000E+01 0.  1.
          4   -1    0    0  501    0  0.00000000000E+00 -0.00000000000E+00 -0.24123237967E+03  0.24123572269E+03  0.12700000000E+01 0.  1.
         25    2    1    2    0    0  0.00000000000E+00  0.00000000000E+00 -0.22508199909E+03  0.25743596012E+03  0.12494545709E+03 0.  0.
    9000005    1    3    3    0    0  0.53930270753E+02 -0.86385749525E+01 -0.50089093252E+02  0.74114886112E+02  0.10000000000E+01 0.  0.
    9000005    1    3    3    0    0 -0.53930270753E+02  0.86385749525E+01 -0.17499290584E+03  0.18332107401E+03  0.10000000000E+01 0.  0.
<mgrwt>
<rscale>  0 0.12494546E+03</rscale>
<asrwt>0</asrwt>
<pdfrwt beam="2">  1        4 0.37116763E-01 0.12494546E+03</pdfrwt>
<pdfrwt beam="1">  1       -4 0.24887664E-02 0.12494546E+03</pdfrwt>
<totfact> 0.81366006E+03</totfact>
</mgrwt>
</event>
<event>
 5    1  0.3294152E-002  0.1249997E+03  0.7818608E-02  0.1235070E+00
          4   -1    0    0  501    0  0.00000000000E+00  0.00000000000E+00  0.83588572114E+03  0.83588668592E+03  0.12700000000E+01 0. -1.
         -4   -1    0    0    0  501 -0.00000000000E+00 -0.00000000000E+00 -0.45858904437E+01  0.47584967333E+01  0.12700000000E+01 0. -1.
         25    2    1    2    0    0  0.00000000000E+00  0.00000000000E+00  0.83129983069E+03  0.84064518266E+03  0.12499965844E+03 0.  0.
    9000005    1    3    3    0    0 -0.19929343433E+02  0.59225801425E+02  0.41965333744E+03  0.42428150786E+03  0.10000000000E+01 0.  0.
    9000005    1    3    3    0    0  0.19929343433E+02 -0.59225801425E+02  0.41164649325E+03  0.41636367480E+03  0.10000000000E+01 0.  0.
<mgrwt>
<rscale>  0 0.12499966E+03</rscale>
<asrwt>0</asrwt>
<pdfrwt beam="1">  1        4 0.12861117E+00 0.12499966E+03</pdfrwt>
<pdfrwt beam="2">  1       -4 0.71887312E-03 0.12499966E+03</pdfrwt>
<totfact> 0.36513486E+03</totfact>
</mgrwt>
</event>
<event>
 5    1  0.3294152E-002  0.1249995E+03  0.7818608E-02  0.1235070E+00
         -4   -1    0    0    0  501 -0.00000000000E+00  0.00000000000E+00  0.18755359730E+03  0.18755789709E+03  0.12700000000E+01 0.  1.
          4   -1    0    0  501    0  0.00000000000E+00 -0.00000000000E+00 -0.20803311226E+02  0.20842040638E+02  0.12700000000E+01 0.  1.
         25    2    1    2    0    0  0.00000000000E+00  0.00000000000E+00  0.16675028608E+03  0.20839993773E+03  0.12499950455E+03 0.  0.
    9000005    1    3    3    0    0 -0.11536372847E+02  0.94967683374E+01 -0.17789276925E+02  0.23253706819E+02  0.10000000000E+01 0.  0.
    9000005    1    3    3    0    0  0.11536372847E+02 -0.94967683374E+01  0.18453956300E+03  0.18514623091E+03  0.10000000000E+01 0.  0.
<mgrwt>
<rscale>  0 0.12499950E+03</rscale>
<asrwt>0</asrwt>
<pdfrwt beam="2">  1        4 0.32038193E-02 0.12499950E+03</pdfrwt>
<pdfrwt beam="1">  1       -4 0.28857710E-01 0.12499950E+03</pdfrwt>
<totfact> 0.88738843E+03</totfact>
</mgrwt>
</event>
<event>
 5    1  0.3294152E-002  0.1249875E+03  0.7818608E-02  0.1235089E+00
         -4   -1    0    0    0  501 -0.00000000000E+00  0.00000000000E+00  0.55470453614E+02  0.55484990080E+02  0.12700000000E+01 0. -1.
          4   -1    0    0  501    0  0.00000000000E+00 -0.00000000000E+00 -0.70376838047E+02  0.70388296140E+02  0.12700000000E+01 0. -1.
         25    2    1    2    0    0  0.00000000000E+00  0.00000000000E+00 -0.14906384432E+02  0.12587328622E+03  0.12498753493E+03 0.  0.
    9000005    1    3    3    0    0 -0.33462412785E+02 -0.21476414116E+02  0.41091119756E+02  0.57187844473E+02  0.10000000000E+01 0.  0.
    9000005    1    3    3    0    0  0.33462412785E+02  0.21476414116E+02 -0.55997504188E+02  0.68685441747E+02  0.10000000000E+01 0.  0.
<mgrwt>
<rscale>  0 0.12498753E+03</rscale>
<asrwt>0</asrwt>
<pdfrwt beam="2">  1        4 0.10829205E-01 0.12498753E+03</pdfrwt>
<pdfrwt beam="1">  1       -4 0.85359155E-02 0.12498753E+03</pdfrwt>
<totfact> 0.10436671E+04</totfact>
</mgrwt>
</event>
<event>
 5    1  0.3294152E-002  0.1249948E+03  0.7818608E-02  0.1235077E+00
         -4   -1    0    0    0  501 -0.00000000000E+00  0.00000000000E+00  0.58293474484E+03  0.58293612827E+03  0.12700000000E+01 0. -1.
          4   -1    0    0  501    0  0.00000000000E+00 -0.00000000000E+00 -0.66388638289E+01  0.67592464771E+01  0.12700000000E+01 0. -1.
         25    2    1    2    0    0  0.00000000000E+00  0.00000000000E+00  0.57629588101E+03  0.58969537474E+03  0.12499477000E+03 0.  0.
    9000005    1    3    3    0    0 -0.45150214842E+02 -0.34019713731E+02  0.41377157164E+03  0.41761680560E+03  0.10000000000E+01 0.  0.
    9000005    1    3    3    0    0  0.45150214842E+02  0.34019713731E+02  0.16252430937E+03  0.17207856914E+03  0.10000000000E+01 0.  0.
<mgrwt>
<rscale>  0 0.12499477E+03</rscale>
<asrwt>0</asrwt>
<pdfrwt beam="2">  1        4 0.10307298E-02 0.12499477E+03</pdfrwt>
<pdfrwt beam="1">  1       -4 0.89691674E-01 0.12499477E+03</pdfrwt>
<totfact> 0.49530261E+03</totfact>
</mgrwt>
</event>
<event>
 5    1  0.3294152E-002  0.1250020E+03  0.7818608E-02  0.1235066E+00
         -4   -1    0    0    0  501 -0.00000000000E+00  0.00000000000E+00  0.32016775024E+02  0.32041953482E+02  0.12700000000E+01 0.  1.
          4   -1    0    0  501    0  0.00000000000E+00 -0.00000000000E+00 -0.12193389262E+03  0.12194050627E+03  0.12700000000E+01 0.  1.
         25    2    1    2    0    0  0.00000000000E+00  0.00000000000E+00 -0.89917117600E+02  0.15398245976E+03  0.12500203948E+03 0.  0.
    9000005    1    3    3    0    0  0.36553424719E+02 -0.44249034824E+02 -0.75413846862E+02  0.94775409470E+02  0.10000000000E+01 0.  0.
    9000005    1    3    3    0    0 -0.36553424719E+02  0.44249034824E+02 -0.14503270738E+02  0.59207050286E+02  0.10000000000E+01 0.  0.
<mgrwt>
<rscale>  0 0.12500204E+03</rscale>
<asrwt>0</asrwt>
<pdfrwt beam="2">  1        4 0.18761506E-01 0.12500204E+03</pdfrwt>
<pdfrwt beam="1">  1       -4 0.49281033E-02 0.12500204E+03</pdfrwt>
<totfact> 0.98511107E+03</totfact>
</mgrwt>
</event>
<event>
 5    1  0.3294152E-002  0.1250115E+03  0.7818608E-02  0.1235051E+00
         -4   -1    0    0    0  501 -0.00000000000E+00  0.00000000000E+00  0.16365026501E+04  0.16365031429E+04  0.12700000000E+01 0.  1.
          4   -1    0    0  501    0  0.00000000000E+00 -0.00000000000E+00 -0.22179648318E+01  0.25558301969E+01  0.12700000000E+01 0.  1.
         25    2    1    2    0    0  0.00000000000E+00  0.00000000000E+00  0.16342846853E+04  0.16390589731E+04  0.12501153847E+03 0.  0.
    9000005    1    3    3    0    0 -0.22244075449E+02  0.11442113951E+02  0.15680697808E+04  0.15682696064E+04  0.10000000000E+01 0.  0.
    9000005    1    3    3    0    0  0.22244075449E+02 -0.11442113951E+02  0.66214904539E+02  0.70789366768E+02  0.10000000000E+01 0.  0.
<mgrwt>
<rscale>  0 0.12501154E+03</rscale>
<asrwt>0</asrwt>
<pdfrwt beam="2">  1        4 0.36725211E-03 0.12501154E+03</pdfrwt>
<pdfrwt beam="1">  1       -4 0.25179621E+00 0.12501154E+03</pdfrwt>
<totfact> 0.15346488E+03</totfact>
</mgrwt>
</event>
<event>
 5    1  0.3294152E-002  0.1250024E+03  0.7818608E-02  0.1235065E+00
          4   -1    0    0  501    0  0.00000000000E+00  0.00000000000E+00  0.16258162931E+03  0.16258658951E+03  0.12700000000E+01 0. -1.
         -4   -1    0    0    0  501 -0.00000000000E+00 -0.00000000000E+00 -0.24005213203E+02  0.24038784515E+02  0.12700000000E+01 0. -1.
         25    2    1    2    0    0  0.00000000000E+00  0.00000000000E+00  0.13857641611E+03  0.18662537403E+03  0.12500242850E+03 0.  0.
    9000005    1    3    3    0    0  0.32805475802E+02  0.19009687409E+02 -0.48787114221E+01  0.38240937267E+02  0.10000000000E+01 0.  0.
    9000005    1    3    3    0    0 -0.32805475802E+02 -0.19009687409E+02  0.14345512753E+03  0.14838443676E+03  0.10000000000E+01 0.  0.
<mgrwt>
<rscale>  0 0.12500243E+03</rscale>
<asrwt>0</asrwt>
<pdfrwt beam="1">  1        4 0.25015522E-01 0.12500243E+03</pdfrwt>
<pdfrwt beam="2">  1       -4 0.36960738E-02 0.12500243E+03</pdfrwt>
<totfact> 0.92432796E+03</totfact>
</mgrwt>
</event>
<event>
 5    1  0.3294152E-002  0.1250015E+03  0.7818608E-02  0.1235067E+00
         -4   -1    0    0    0  501 -0.00000000000E+00  0.00000000000E+00  0.10317873225E+04  0.10317881041E+04  0.12700000000E+01 0. -1.
          4   -1    0    0  501    0  0.00000000000E+00 -0.00000000000E+00 -0.36786862092E+01  0.38917389720E+01  0.12700000000E+01 0. -1.
         25    2    1    2    0    0  0.00000000000E+00  0.00000000000E+00  0.10281086363E+04  0.10356798431E+04  0.12500147735E+03 0.  0.
    9000005    1    3    3    0    0 -0.80277531877E+01  0.55532624404E+02  0.28609070632E+03  0.29154280892E+03  0.10000000000E+01 0.  0.
    9000005    1    3    3    0    0  0.80277531877E+01 -0.55532624404E+02  0.74201792998E+03  0.74413703416E+03  0.10000000000E+01 0.  0.
<mgrwt>
<rscale>  0 0.12500148E+03</rscale>
<asrwt>0</asrwt>
<pdfrwt beam="2">  1        4 0.58240069E-03 0.12500148E+03</pdfrwt>
<pdfrwt beam="1">  1       -4 0.15875291E+00 0.12500148E+03</pdfrwt>
<totfact> 0.29445205E+03</totfact>
</mgrwt>
</event>
<event>
 5    1  0.3294152E-002  0.1250038E+03  0.7818608E-02  0.1235063E+00
         -4   -1    0    0    0  501 -0.00000000000E+00  0.00000000000E+00  0.69728486323E+01  0.70875607968E+01  0.12700000000E+01 0. -1.
          4   -1    0    0  501    0  0.00000000000E+00 -0.00000000000E+00 -0.55555649833E+03  0.55555794994E+03  0.12700000000E+01 0. -1.
         25    2    1    2    0    0  0.00000000000E+00  0.00000000000E+00 -0.54858364970E+03  0.56264551073E+03  0.12500380007E+03 0.  0.
    9000005    1    3    3    0    0  0.15015655352E+02 -0.15089366879E+02 -0.98271283531E+01  0.23467666056E+02  0.10000000000E+01 0.  0.
    9000005    1    3    3    0    0 -0.15015655352E+02  0.15089366879E+02 -0.53875652134E+03  0.53917784468E+03  0.10000000000E+01 0.  0.
<mgrwt>
<rscale>  0 0.12500380E+03</rscale>
<asrwt>0</asrwt>
<pdfrwt beam="2">  1        4 0.85479132E-01 0.12500380E+03</pdfrwt>
<pdfrwt beam="1">  1       -4 0.10816821E-02 0.12500380E+03</pdfrwt>
<totfact> 0.51309482E+03</totfact>
</mgrwt>
</event>
<event>
 5    1  0.3294152E-002  0.1250063E+03  0.7818608E-02  0.1235059E+00
         -4   -1    0    0    0  501 -0.00000000000E+00  0.00000000000E+00  0.18466856977E+03  0.18467293673E+03  0.12700000000E+01 0. -1.
          4   -1    0    0  501    0  0.00000000000E+00 -0.00000000000E+00 -0.21131203783E+02  0.21169333322E+02  0.12700000000E+01 0. -1.
         25    2    1    2    0    0  0.00000000000E+00  0.00000000000E+00  0.16353736599E+03  0.20584227005E+03  0.12500628011E+03 0.  0.
    9000005    1    3    3    0    0  0.49080914059E+02 -0.26847122898E+01  0.18217623274E+02  0.52431151072E+02  0.10000000000E+01 0.  0.
    9000005    1    3    3    0    0 -0.49080914059E+02  0.26847122898E+01  0.14531974271E+03  0.15341111898E+03  0.10000000000E+01 0.  0.
<mgrwt>
<rscale>  0 0.12500628E+03</rscale>
<asrwt>0</asrwt>
<pdfrwt beam="2">  1        4 0.32542234E-02 0.12500628E+03</pdfrwt>
<pdfrwt beam="1">  1       -4 0.28413818E-01 0.12500628E+03</pdfrwt>
<totfact> 0.89146904E+03</totfact>
</mgrwt>
</event>
<event>
 5    1  0.3294152E-002  0.1249990E+03  0.7818608E-02  0.1235071E+00
          4   -1    0    0  501    0  0.00000000000E+00  0.00000000000E+00  0.20318760573E+03  0.20319157468E+03  0.12700000000E+01 0. -1.
         -4   -1    0    0    0  501 -0.00000000000E+00 -0.00000000000E+00 -0.19199407389E+02  0.19241365442E+02  0.12700000000E+01 0. -1.
         25    2    1    2    0    0  0.00000000000E+00  0.00000000000E+00  0.18398819834E+03  0.22243294012E+03  0.12499902289E+03 0.  0.
    9000005    1    3    3    0    0 -0.56683717819E+02 -0.19313037665E+02  0.60204062759E+02  0.84920942425E+02  0.10000000000E+01 0.  0.
    9000005    1    3    3    0    0  0.56683717819E+02  0.19313037665E+02  0.12378413558E+03  0.13751199770E+03  0.10000000000E+01 0.  0.
<mgrwt>
<rscale>  0 0.12499902E+03</rscale>
<asrwt>0</asrwt>
<pdfrwt beam="1">  1        4 0.31263164E-01 0.12499902E+03</pdfrwt>
<pdfrwt beam="2">  1       -4 0.29572879E-02 0.12499902E+03</pdfrwt>
<totfact> 0.86486714E+03</totfact>
</mgrwt>
</event>
<event>
 5    1  0.3294152E-002  0.1249973E+03  0.7818608E-02  0.1235073E+00
          4   -1    0    0  501    0  0.00000000000E+00  0.00000000000E+00  0.23864111869E+03  0.23864449801E+03  0.12700000000E+01 0.  1.
         -4   -1    0    0    0  501 -0.00000000000E+00 -0.00000000000E+00 -0.16339879341E+02  0.16389159737E+02  0.12700000000E+01 0.  1.
         25    2    1    2    0    0  0.00000000000E+00  0.00000000000E+00  0.22230123935E+03  0.25503365774E+03  0.12499730224E+03 0.  0.
    9000005    1    3    3    0    0  0.44894273999E+02 -0.11352623628E+02  0.25537569059E+02  0.52891826728E+02  0.10000000000E+01 0.  0.
    9000005    1    3    3    0    0 -0.44894273999E+02  0.11352623628E+02  0.19676367029E+03  0.20214183102E+03  0.10000000000E+01 0.  0.
<mgrwt>
<rscale>  0 0.12499730E+03</rscale>
<asrwt>0</asrwt>
<pdfrwt beam="1">  1        4 0.36718065E-01 0.12499730E+03</pdfrwt>
<pdfrwt beam="2">  1       -4 0.25178786E-02 0.12499730E+03</pdfrwt>
<totfact> 0.81613013E+03</totfact>
</mgrwt>
</event>
<event>
 5    1  0.3294152E-002  0.1250017E+03  0.7818608E-02  0.1235067E+00
          4   -1    0    0  501    0  0.00000000000E+00  0.00000000000E+00  0.14193894692E+03  0.14194462848E+03  0.12700000000E+01 0. -1.
         -4   -1    0    0    0  501 -0.00000000000E+00 -0.00000000000E+00 -0.27500499160E+02  0.27529808463E+02  0.12700000000E+01 0. -1.
         25    2    1    2    0    0  0.00000000000E+00  0.00000000000E+00  0.11443844776E+03  0.16947443694E+03  0.12500170579E+03 0.  0.
    9000005    1    3    3    0    0  0.42974068978E+01 -0.30457947270E+02  0.13097152789E+03  0.13453882479E+03  0.10000000000E+01 0.  0.
    9000005    1    3    3    0    0 -0.42974068978E+01  0.30457947270E+02 -0.16533080127E+02  0.34935612151E+02  0.10000000000E+01 0.  0.
<mgrwt>
<rscale>  0 0.12500171E+03</rscale>
<asrwt>0</asrwt>
<pdfrwt beam="1">  1        4 0.21839453E-01 0.12500171E+03</pdfrwt>
<pdfrwt beam="2">  1       -4 0.42335375E-02 0.12500171E+03</pdfrwt>
<totfact> 0.95542991E+03</totfact>
</mgrwt>
</event>
<event>
 5    1  0.3294152E-002  0.1250016E+03  0.7818608E-02  0.1235067E+00
         -4   -1    0    0    0  501 -0.00000000000E+00  0.00000000000E+00  0.27878546778E+02  0.27907459047E+02  0.12700000000E+01 0.  1.
          4   -1    0    0  501    0  0.00000000000E+00 -0.00000000000E+00 -0.14001597976E+03  0.14002173934E+03  0.12700000000E+01 0.  1.
         25    2    1    2    0    0  0.00000000000E+00  0.00000000000E+00 -0.11213743298E+03  0.16792919839E+03  0.12500164717E+03 0.  0.
    9000005    1    3    3    0    0 -0.19942191577E+02  0.47817619511E+01 -0.13537346683E+03  0.13692162639E+03  0.10000000000E+01 0.  0.
    9000005    1    3    3    0    0  0.19942191577E+02 -0.47817619511E+01  0.23236033847E+02  0.31007571998E+02  0.10000000000E+01 0.  0.
<mgrwt>
<rscale>  0 0.12500165E+03</rscale>
<asrwt>0</asrwt>
<pdfrwt beam="2">  1        4 0.21543587E-01 0.12500165E+03</pdfrwt>
<pdfrwt beam="1">  1       -4 0.42916743E-02 0.12500165E+03</pdfrwt>
<totfact> 0.95831962E+03</totfact>
</mgrwt>
</event>
<event>
 5    1  0.3294152E-002  0.1249978E+03  0.7818608E-02  0.1235073E+00
          4   -1    0    0  501    0  0.00000000000E+00  0.00000000000E+00  0.14071431432E+02  0.14128626350E+02  0.12700000000E+01 0.  1.
         -4   -1    0    0    0  501 -0.00000000000E+00 -0.00000000000E+00 -0.27697003151E+03  0.27697294318E+03  0.12700000000E+01 0.  1.
         25    2    1    2    0    0  0.00000000000E+00  0.00000000000E+00 -0.26289860008E+03  0.29110156953E+03  0.12499779942E+03 0.  0.
    9000005    1    3    3    0    0  0.41492950331E+02  0.43989378312E+02 -0.94746233030E+02  0.11240364320E+03  0.10000000000E+01 0.  0.
    9000005    1    3    3    0    0 -0.41492950331E+02 -0.43989378312E+02 -0.16815236705E+03  0.17869792633E+03  0.10000000000E+01 0.  0.
<mgrwt>
<rscale>  0 0.12499780E+03</rscale>
<asrwt>0</asrwt>
<pdfrwt beam="1">  1        4 0.21694594E-02 0.12499780E+03</pdfrwt>
<pdfrwt beam="2">  1       -4 0.42615394E-01 0.12499780E+03</pdfrwt>
<totfact> 0.76732525E+03</totfact>
</mgrwt>
</event>
<event>
 5    1  0.3294152E-002  0.1250028E+03  0.7818608E-02  0.1235065E+00
         -4   -1    0    0    0  501 -0.00000000000E+00  0.00000000000E+00  0.88519855088E+03  0.88519946192E+03  0.12700000000E+01 0.  1.
          4   -1    0    0  501    0  0.00000000000E+00 -0.00000000000E+00 -0.43207451114E+01  0.45035250991E+01  0.12700000000E+01 0.  1.
         25    2    1    2    0    0  0.00000000000E+00  0.00000000000E+00  0.88087780577E+03  0.88970298702E+03  0.12500278562E+03 0.  0.
    9000005    1    3    3    0    0 -0.31009426876E+02  0.22687068848E+02  0.79123222179E+03  0.79216520780E+03  0.10000000000E+01 0.  0.
    9000005    1    3    3    0    0  0.31009426876E+02 -0.22687068848E+02  0.89645583982E+02  0.97537779222E+02  0.10000000000E+01 0.  0.
<mgrwt>
<rscale>  0 0.12500279E+03</rscale>
<asrwt>0</asrwt>
<pdfrwt beam="2">  1        4 0.67886028E-03 0.12500279E+03</pdfrwt>
<pdfrwt beam="1">  1       -4 0.13619848E+00 0.12500279E+03</pdfrwt>
<totfact> 0.34553245E+03</totfact>
</mgrwt>
</event>
<event>
 5    1  0.3294152E-002  0.1250128E+03  0.7818608E-02  0.1235049E+00
          4   -1    0    0  501    0  0.00000000000E+00  0.00000000000E+00  0.15377229801E+02  0.15429585099E+02  0.12700000000E+01 0. -1.
         -4   -1    0    0    0  501 -0.00000000000E+00 -0.00000000000E+00 -0.25359461321E+03  0.25359779327E+03  0.12700000000E+01 0. -1.
         25    2    1    2    0    0  0.00000000000E+00  0.00000000000E+00 -0.23821738341E+03  0.26902737837E+03  0.12501283355E+03 0.  0.
    9000005    1    3    3    0    0  0.34662269508E+02  0.50873947707E+02 -0.95888975903E+02  0.11395317978E+03  0.10000000000E+01 0.  0.
    9000005    1    3    3    0    0 -0.34662269508E+02 -0.50873947707E+02 -0.14232840751E+03  0.15507419858E+03  0.10000000000E+01 0.  0.
<mgrwt>
<rscale>  0 0.12501283E+03</rscale>
<asrwt>0</asrwt>
<pdfrwt beam="1">  1        4 0.23699998E-02 0.12501283E+03</pdfrwt>
<pdfrwt beam="2">  1       -4 0.39018825E-01 0.12501283E+03</pdfrwt>
<totfact> 0.79632919E+03</totfact>
</mgrwt>
</event>
<event>
 5    1  0.3294152E-002  0.1250081E+03  0.7818608E-02  0.1235057E+00
          4   -1    0    0  501    0  0.00000000000E+00  0.00000000000E+00  0.12407212486E+03  0.12407862454E+03  0.12700000000E+01 0. -1.
         -4   -1    0    0    0  501 -0.00000000000E+00 -0.00000000000E+00 -0.31467659924E+02  0.31493277395E+02  0.12700000000E+01 0. -1.
         25    2    1    2    0    0  0.00000000000E+00  0.00000000000E+00  0.92604464941E+02  0.15557190194E+03  0.12500811872E+03 0.  0.
    9000005    1    3    3    0    0 -0.12992614275E+02  0.57373248169E+02  0.72562532747E+02  0.93417443713E+02  0.10000000000E+01 0.  0.
    9000005    1    3    3    0    0  0.12992614275E+02 -0.57373248169E+02  0.20041932194E+02  0.62154458225E+02  0.10000000000E+01 0.  0.
<mgrwt>
<rscale>  0 0.12500812E+03</rscale>
<asrwt>0</asrwt>
<pdfrwt beam="1">  1        4 0.19090490E-01 0.12500812E+03</pdfrwt>
<pdfrwt beam="2">  1       -4 0.48436490E-02 0.12500812E+03</pdfrwt>
<totfact> 0.98185416E+03</totfact>
</mgrwt>
</event>
<event>
 5    1  0.3294152E-002  0.1249990E+03  0.7818608E-02  0.1235071E+00
          4   -1    0    0  501    0  0.00000000000E+00  0.00000000000E+00  0.28079482922E+03  0.28079770124E+03  0.12700000000E+01 0. -1.
         -4   -1    0    0    0  501 -0.00000000000E+00 -0.00000000000E+00 -0.13879239012E+02  0.13937222663E+02  0.12700000000E+01 0. -1.
         25    2    1    2    0    0  0.00000000000E+00  0.00000000000E+00  0.26691559021E+03  0.29473492390E+03  0.12499897226E+03 0.  0.
    9000005    1    3    3    0    0 -0.33618785748E+02  0.44292637361E+02  0.20069410821E+03  0.20825749818E+03  0.10000000000E+01 0.  0.
    9000005    1    3    3    0    0  0.33618785748E+02 -0.44292637361E+02  0.66221482003E+02  0.86477425714E+02  0.10000000000E+01 0.  0.
<mgrwt>
<rscale>  0 0.12499897E+03</rscale>
<asrwt>0</asrwt>
<pdfrwt beam="1">  1        4 0.43203884E-01 0.12499897E+03</pdfrwt>
<pdfrwt beam="2">  1       -4 0.21399488E-02 0.12499897E+03</pdfrwt>
<totfact> 0.76265802E+03</totfact>
</mgrwt>
</event>
<event>
 5    1  0.3294152E-002  0.1249994E+03  0.7818608E-02  0.1235070E+00
          4   -1    0    0  501    0  0.00000000000E+00  0.00000000000E+00  0.67751571395E+01  0.68931599622E+01  0.12700000000E+01 0.  1.
         -4   -1    0    0    0  501 -0.00000000000E+00 -0.00000000000E+00 -0.57145277938E+03  0.57145419060E+03  0.12700000000E+01 0.  1.
         25    2    1    2    0    0  0.00000000000E+00  0.00000000000E+00 -0.56467762224E+03  0.57834735056E+03  0.12499936340E+03 0.  0.
    9000005    1    3    3    0    0  0.61059254127E+02  0.12705194320E+02 -0.26409035113E+03  0.27135653307E+03  0.10000000000E+01 0.  0.
    9000005    1    3    3    0    0 -0.61059254127E+02 -0.12705194320E+02 -0.30058727111E+03  0.30699081750E+03  0.10000000000E+01 0.  0.
<mgrwt>
<rscale>  0 0.12499936E+03</rscale>
<asrwt>0</asrwt>
<pdfrwt beam="1">  1        4 0.10515180E-02 0.12499936E+03</pdfrwt>
<pdfrwt beam="2">  1       -4 0.87924960E-01 0.12499936E+03</pdfrwt>
<totfact> 0.50264265E+03</totfact>
</mgrwt>
</event>
<event>
 5    1  0.3294152E-002  0.1249922E+03  0.7818608E-02  0.1235081E+00
         -4   -1    0    0    0  501 -0.00000000000E+00  0.00000000000E+00  0.98106383267E+02  0.98114603081E+02  0.12700000000E+01 0. -1.
          4   -1    0    0  501    0  0.00000000000E+00 -0.00000000000E+00 -0.39791512199E+02  0.39811773926E+02  0.12700000000E+01 0. -1.
         25    2    1    2    0    0  0.00000000000E+00  0.00000000000E+00  0.58314871068E+02  0.13792637701E+03  0.12499224491E+03 0.  0.
    9000005    1    3    3    0    0  0.35871747730E+02 -0.51108092208E+02  0.26466676617E+02  0.67825543459E+02  0.10000000000E+01 0.  0.
    9000005    1    3    3    0    0 -0.35871747730E+02  0.51108092208E+02  0.31848194451E+02  0.70100833548E+02  0.10000000000E+01 0.  0.
<mgrwt>
<rscale>  0 0.12499224E+03</rscale>
<asrwt>0</asrwt>
<pdfrwt beam="2">  1        4 0.61239621E-02 0.12499224E+03</pdfrwt>
<pdfrwt beam="1">  1       -4 0.15095480E-01 0.12499224E+03</pdfrwt>
<totfact> 0.10178523E+04</totfact>
</mgrwt>
</event>
<event>
 5    1  0.3294152E-002  0.1250030E+03  0.7818608E-02  0.1235065E+00
         -4   -1    0    0    0  501 -0.00000000000E+00  0.00000000000E+00  0.10877048214E+03  0.10877789613E+03  0.12700000000E+01 0.  1.
          4   -1    0    0  501    0  0.00000000000E+00 -0.00000000000E+00 -0.35894639242E+02  0.35917099358E+02  0.12700000000E+01 0.  1.
         25    2    1    2    0    0  0.00000000000E+00  0.00000000000E+00  0.72875842902E+02  0.14469499549E+03  0.12500301292E+03 0.  0.
    9000005    1    3    3    0    0 -0.17419622111E+02 -0.56880235159E+01  0.10559638377E+03  0.10717925691E+03  0.10000000000E+01 0.  0.
    9000005    1    3    3    0    0  0.17419622111E+02  0.56880235159E+01 -0.32720540870E+02  0.37515738575E+02  0.10000000000E+01 0.  0.
<mgrwt>
<rscale>  0 0.12500301E+03</rscale>
<asrwt>0</asrwt>
<pdfrwt beam="2">  1        4 0.55245503E-02 0.12500301E+03</pdfrwt>
<pdfrwt beam="1">  1       -4 0.16736218E-01 0.12500301E+03</pdfrwt>
<totfact> 0.10036508E+04</totfact>
</mgrwt>
</event>
<event>
 5    1  0.3294152E-002  0.1250094E+03  0.7818608E-02  0.1235055E+00
          4   -1    0    0  501    0  0.00000000000E+00  0.00000000000E+00  0.15401709745E+01  0.19962531479E+01  0.12700000000E+01 0. -1.
         -4   -1    0    0    0  501 -0.00000000000E+00 -0.00000000000E+00 -0.22090276451E+04  0.22090280102E+04  0.12700000000E+01 0. -1.
         25    2    1    2    0    0  0.00000000000E+00  0.00000000000E+00 -0.22074874741E+04  0.22110242633E+04  0.12500937789E+03 0.  0.
    9000005    1    3    3    0    0  0.46913403881E+02 -0.94243737355E+01 -0.39270750995E+03  0.39561328928E+03  0.10000000000E+01 0.  0.
    9000005    1    3    3    0    0 -0.46913403881E+02  0.94243737355E+01 -0.18147799642E+04  0.18154109740E+04  0.10000000000E+01 0.  0.
<mgrwt>
<rscale>  0 0.12500938E+03</rscale>
<asrwt>0</asrwt>
<pdfrwt beam="1">  1        4 0.27206247E-03 0.12500938E+03</pdfrwt>
<pdfrwt beam="2">  1       -4 0.33988331E+00 0.12500938E+03</pdfrwt>
<totfact> 0.73509147E+02</totfact>
</mgrwt>
</event>
<event>
 5    1  0.3294152E-002  0.1250003E+03  0.7818608E-02  0.1235069E+00
         -4   -1    0    0    0  501 -0.00000000000E+00  0.00000000000E+00  0.87961448662E+02  0.87970616405E+02  0.12700000000E+01 0.  1.
          4   -1    0    0  501    0  0.00000000000E+00 -0.00000000000E+00 -0.44388316247E+02  0.44406480600E+02  0.12700000000E+01 0.  1.
         25    2    1    2    0    0  0.00000000000E+00  0.00000000000E+00  0.43573132415E+02  0.13237709701E+03  0.12500031177E+03 0.  0.
    9000005    1    3    3    0    0 -0.10464636350E+02 -0.57713430729E+02  0.44621052096E+02  0.73704728414E+02  0.10000000000E+01 0.  0.
    9000005    1    3    3    0    0  0.10464636350E+02  0.57713430729E+02 -0.10479196815E+01  0.58672368591E+02  0.10000000000E+01 0.  0.
<mgrwt>
<rscale>  0 0.12500031E+03</rscale>
<asrwt>0</asrwt>
<pdfrwt beam="2">  1        4 0.68310742E-02 0.12500031E+03</pdfrwt>
<pdfrwt beam="1">  1       -4 0.13534633E-01 0.12500031E+03</pdfrwt>
<totfact> 0.10293584E+04</totfact>
</mgrwt>
</event>
<event>
 5    1  0.3294152E-002  0.1250005E+03  0.7818608E-02  0.1235069E+00
          4   -1    0    0  501    0  0.00000000000E+00  0.00000000000E+00  0.17156817722E+02  0.17203758146E+02  0.12700000000E+01 0. -1.
         -4   -1    0    0    0  501 -0.00000000000E+00 -0.00000000000E+00 -0.22732119944E+03  0.22732474703E+03  0.12700000000E+01 0. -1.
         25    2    1    2    0    0  0.00000000000E+00  0.00000000000E+00 -0.21016438172E+03  0.24452850518E+03  0.12500049001E+03 0.  0.
    9000005    1    3    3    0    0  0.24430377422E+02 -0.43910810009E+02 -0.32404508715E+02  0.59800123425E+02  0.10000000000E+01 0.  0.
    9000005    1    3    3    0    0 -0.24430377422E+02  0.43910810009E+02 -0.17775987300E+03  0.18472838175E+03  0.10000000000E+01 0.  0.
<mgrwt>
<rscale>  0 0.12500049E+03</rscale>
<asrwt>0</asrwt>
<pdfrwt beam="1">  1        4 0.26433943E-02 0.12500049E+03</pdfrwt>
<pdfrwt beam="2">  1       -4 0.34976374E-01 0.12500049E+03</pdfrwt>
<totfact> 0.83126609E+03</totfact>
</mgrwt>
</event>
<event>
 5    1  0.3294152E-002  0.1250100E+03  0.7818608E-02  0.1235054E+00
         -4   -1    0    0    0  501 -0.00000000000E+00  0.00000000000E+00  0.61579485081E+02  0.61592579771E+02  0.12700000000E+01 0.  1.
          4   -1    0    0  501    0  0.00000000000E+00 -0.00000000000E+00 -0.63418263454E+02  0.63430978548E+02  0.12700000000E+01 0.  1.
         25    2    1    2    0    0  0.00000000000E+00  0.00000000000E+00 -0.18387783738E+01  0.12502355832E+03  0.12501003571E+03 0.  0.
    9000005    1    3    3    0    0 -0.45386144861E+02  0.41293381945E+02  0.10949148598E+02  0.62337223172E+02  0.10000000000E+01 0.  0.
    9000005    1    3    3    0    0  0.45386144861E+02 -0.41293381945E+02 -0.12787926972E+02  0.62686335146E+02  0.10000000000E+01 0.  0.
<mgrwt>
<rscale>  0 0.12501004E+03</rscale>
<asrwt>0</asrwt>
<pdfrwt beam="2">  1        4 0.97586413E-02 0.12501004E+03</pdfrwt>
<pdfrwt beam="1">  1       -4 0.94757523E-02 0.12501004E+03</pdfrwt>
<totfact> 0.10449980E+04</totfact>
</mgrwt>
</event>
<event>
 5    1  0.3294152E-002  0.1249999E+03  0.7818608E-02  0.1235069E+00
         -4   -1    0    0    0  501 -0.00000000000E+00  0.00000000000E+00  0.41842961814E+02  0.41862230630E+02  0.12700000000E+01 0. -1.
          4   -1    0    0  501    0  0.00000000000E+00 -0.00000000000E+00 -0.93309726113E+02  0.93318368434E+02  0.12700000000E+01 0. -1.
         25    2    1    2    0    0  0.00000000000E+00  0.00000000000E+00 -0.51466764299E+02  0.13518059906E+03  0.12499986614E+03 0.  0.
    9000005    1    3    3    0    0  0.24321802885E+02 -0.48139554525E+02  0.84011848112E+01  0.54594383518E+02  0.10000000000E+01 0.  0.
    9000005    1    3    3    0    0 -0.24321802885E+02  0.48139554525E+02 -0.59867949110E+02  0.80586215547E+02  0.10000000000E+01 0.  0.
<mgrwt>
<rscale>  0 0.12499987E+03</rscale>
<asrwt>0</asrwt>
<pdfrwt beam="2">  1        4 0.14357489E-01 0.12499987E+03</pdfrwt>
<pdfrwt beam="1">  1       -4 0.64395257E-02 0.12499987E+03</pdfrwt>
<totfact> 0.10234297E+04</totfact>
</mgrwt>
</event>
<event>
 4    1  0.3294152E-002  0.1251043E+03  0.7818608E-02  0.1234906E+00
          4   -1    0    0  501    0  0.00000000000E+00  0.00000000000E+00  0.27966967672E+02  0.27995788625E+02  0.12700000000E+01 0.  1.
         -4   -1    0    0    0  501 -0.00000000000E+00 -0.00000000000E+00 -0.13980323643E+03  0.13980900478E+03  0.12700000000E+01 0.  1.
    9000005    1    1    2    0    0  0.20677189290E+02 -0.21610951853E+02 -0.12959542600E+03  0.13300584136E+03  0.10000000000E+01 0.  0.
    9000005    1    1    2    0    0 -0.20677189290E+02  0.21610951853E+02  0.17759157241E+02  0.34798952037E+02  0.10000000000E+01 0.  0.
<mgrwt>
<rscale>  0 0.12510435E+03</rscale>
<asrwt>0</asrwt>
<pdfrwt beam="1">  1        4 0.43052712E-02 0.12510435E+03</pdfrwt>
<pdfrwt beam="2">  1       -4 0.21510851E-01 0.12510435E+03</pdfrwt>
<totfact> 0.95634540E+03</totfact>
</mgrwt>
</event>
<event>
 5    1  0.3294152E-002  0.1249990E+03  0.7818608E-02  0.1235071E+00
         -4   -1    0    0    0  501 -0.00000000000E+00  0.00000000000E+00  0.17554306619E+03  0.17554766016E+03  0.12700000000E+01 0.  1.
          4   -1    0    0  501    0  0.00000000000E+00 -0.00000000000E+00 -0.22229008876E+02  0.22265258489E+02  0.12700000000E+01 0.  1.
         25    2    1    2    0    0  0.00000000000E+00  0.00000000000E+00  0.15331405731E+03  0.19781291865E+03  0.12499900245E+03 0.  0.
    9000005    1    3    3    0    0  0.52605312501E+02  0.32026695470E+02  0.93416726675E+02  0.11189599166E+03  0.10000000000E+01 0.  0.
    9000005    1    3    3    0    0 -0.52605312501E+02 -0.32026695470E+02  0.59897330638E+02  0.85916926991E+02  0.10000000000E+01 0.  0.
<mgrwt>
<rscale>  0 0.12499900E+03</rscale>
<asrwt>0</asrwt>
<pdfrwt beam="2">  1        4 0.34229893E-02 0.12499900E+03</pdfrwt>
<pdfrwt beam="1">  1       -4 0.27009767E-01 0.12499900E+03</pdfrwt>
<totfact> 0.90507403E+03</totfact>
</mgrwt>
</event>
<event>
 5    1  0.3294152E-002  0.1249961E+03  0.7818608E-02  0.1235075E+00
          4   -1    0    0  501    0  0.00000000000E+00  0.00000000000E+00  0.10861254241E+02  0.10935252338E+02  0.12700000000E+01 0. -1.
         -4   -1    0    0    0  501 -0.00000000000E+00 -0.00000000000E+00 -0.35833126315E+03  0.35833351371E+03  0.12700000000E+01 0. -1.
         25    2    1    2    0    0  0.00000000000E+00  0.00000000000E+00 -0.34747000891E+03  0.36926876605E+03  0.12499605790E+03 0.  0.
    9000005    1    3    3    0    0 -0.57940759987E+02 -0.16008787539E+02 -0.22418174086E+03  0.23210313630E+03  0.10000000000E+01 0.  0.
    9000005    1    3    3    0    0  0.57940759987E+02  0.16008787539E+02 -0.12328826805E+03  0.13716562975E+03  0.10000000000E+01 0.  0.
<mgrwt>
<rscale>  0 0.12499606E+03</rscale>
<asrwt>0</asrwt>
<pdfrwt beam="1">  1        4 0.16768277E-02 0.12499606E+03</pdfrwt>
<pdfrwt beam="2">  1       -4 0.55133743E-01 0.12499606E+03</pdfrwt>
<totfact> 0.67661408E+03</totfact>
</mgrwt>
</event>
<event>
 5    1  0.3294152E-002  0.1250032E+03  0.7818608E-02  0.1235064E+00
         -4   -1    0    0    0  501 -0.00000000000E+00  0.00000000000E+00  0.51754493893E+03  0.51754649715E+03  0.12700000000E+01 0.  1.
          4   -1    0    0  501    0  0.00000000000E+00 -0.00000000000E+00 -0.74930400185E+01  0.75999045204E+01  0.12700000000E+01 0.  1.
         25    2    1    2    0    0  0.00000000000E+00  0.00000000000E+00  0.51005189891E+03  0.52514640167E+03  0.12500321437E+03 0.  0.
    9000005    1    3    3    0    0 -0.12090561283E+02 -0.24341794642E+02  0.49143595142E+03  0.49218797119E+03  0.10000000000E+01 0.  0.
    9000005    1    3    3    0    0  0.12090561283E+02  0.24341794642E+02  0.18615947492E+02  0.32958430478E+02  0.10000000000E+01 0.  0.
<mgrwt>
<rscale>  0 0.12500321E+03</rscale>
<asrwt>0</asrwt>
<pdfrwt beam="2">  1        4 0.11611156E-02 0.12500321E+03</pdfrwt>
<pdfrwt beam="1">  1       -4 0.79630638E-01 0.12500321E+03</pdfrwt>
<totfact> 0.53960958E+03</totfact>
</mgrwt>
</event>
<event>
 5    1  0.3294152E-002  0.1249980E+03  0.7818608E-02  0.1235072E+00
         -4   -1    0    0    0  501 -0.00000000000E+00  0.00000000000E+00  0.35193567148E+02  0.35216474392E+02  0.12700000000E+01 0.  1.
          4   -1    0    0  501    0  0.00000000000E+00 -0.00000000000E+00 -0.11092715464E+03  0.11093442449E+03  0.12700000000E+01 0.  1.
         25    2    1    2    0    0  0.00000000000E+00  0.00000000000E+00 -0.75733587495E+02  0.14615089888E+03  0.12499803586E+03 0.  0.
    9000005    1    3    3    0    0 -0.35886953384E+01 -0.54247108387E+01 -0.11053602986E+03  0.11073174847E+03  0.10000000000E+01 0.  0.
    9000005    1    3    3    0    0  0.35886953384E+01  0.54247108387E+01  0.34802442362E+02  0.35419150417E+02  0.10000000000E+01 0.  0.
<mgrwt>
<rscale>  0 0.12499804E+03</rscale>
<asrwt>0</asrwt>
<pdfrwt beam="2">  1        4 0.17068037E-01 0.12499804E+03</pdfrwt>
<pdfrwt beam="1">  1       -4 0.54167163E-02 0.12499804E+03</pdfrwt>
<totfact> 0.10008100E+04</totfact>
</mgrwt>
</event>
<event>
 5    1  0.3294152E-002  0.1250005E+03  0.7818608E-02  0.1235068E+00
         -4   -1    0    0    0  501 -0.00000000000E+00  0.00000000000E+00  0.26086270455E+02  0.26117166888E+02  0.12700000000E+01 0.  1.
          4   -1    0    0  501    0  0.00000000000E+00 -0.00000000000E+00 -0.14962251972E+03  0.14962790952E+03  0.12700000000E+01 0.  1.
         25    2    1    2    0    0  0.00000000000E+00  0.00000000000E+00 -0.12353624927E+03  0.17574507641E+03  0.12500050800E+03 0.  0.
    9000005    1    3    3    0    0 -0.45874396934E+02  0.32864843295E+02 -0.99512803935E+02  0.11440435466E+03  0.10000000000E+01 0.  0.
    9000005    1    3    3    0    0  0.45874396934E+02 -0.32864843295E+02 -0.24023445334E+02  0.61340721748E+02  0.10000000000E+01 0.  0.
<mgrwt>
<rscale>  0 0.12500051E+03</rscale>
<asrwt>0</asrwt>
<pdfrwt beam="2">  1        4 0.23021640E-01 0.12500051E+03</pdfrwt>
<pdfrwt beam="1">  1       -4 0.40160637E-02 0.12500051E+03</pdfrwt>
<totfact> 0.94387483E+03</totfact>
</mgrwt>
</event>
<event>
 5    1  0.3294152E-002  0.1249952E+03  0.7818608E-02  0.1235077E+00
         -4   -1    0    0    0  501 -0.00000000000E+00  0.00000000000E+00  0.13299479979E+03  0.13300086342E+03  0.12700000000E+01 0. -1.
          4   -1    0    0  501    0  0.00000000000E+00 -0.00000000000E+00 -0.29348726302E+02  0.29376191645E+02  0.12700000000E+01 0. -1.
         25    2    1    2    0    0  0.00000000000E+00  0.00000000000E+00  0.10364607349E+03  0.16237705507E+03  0.12499519776E+03 0.  0.
    9000005    1    3    3    0    0 -0.34781646300E+02 -0.39092849826E+02  0.74463515228E+01  0.52862670930E+02  0.10000000000E+01 0.  0.
    9000005    1    3    3    0    0  0.34781646300E+02  0.39092849826E+02  0.96199721966E+02  0.10951438414E+03  0.10000000000E+01 0.  0.
<mgrwt>
<rscale>  0 0.12499520E+03</rscale>
<asrwt>0</asrwt>
<pdfrwt beam="2">  1        4 0.45177678E-02 0.12499520E+03</pdfrwt>
<pdfrwt beam="1">  1       -4 0.20463317E-01 0.12499520E+03</pdfrwt>
<totfact> 0.96896911E+03</totfact>
</mgrwt>
</event>
<event>
 5    1  0.3294152E-002  0.1250005E+03  0.7818608E-02  0.1235069E+00
         -4   -1    0    0    0  501 -0.00000000000E+00  0.00000000000E+00  0.97228263609E+02  0.97236557654E+02  0.12700000000E+01 0. -1.
          4   -1    0    0  501    0  0.00000000000E+00 -0.00000000000E+00 -0.40156336189E+02  0.40176413929E+02  0.12700000000E+01 0. -1.
         25    2    1    2    0    0  0.00000000000E+00  0.00000000000E+00  0.57071927419E+02  0.13741297158E+03  0.12500047944E+03 0.  0.
    9000005    1    3    3    0    0 -0.31949460410E+02 -0.53370462496E+02  0.21930492537E+02  0.65963025934E+02  0.10000000000E+01 0.  0.
    9000005    1    3    3    0    0  0.31949460410E+02  0.53370462496E+02  0.35141434883E+02  0.71449945648E+02  0.10000000000E+01 0.  0.
<mgrwt>
<rscale>  0 0.12500048E+03</rscale>
<asrwt>0</asrwt>
<pdfrwt beam="2">  1        4 0.61800804E-02 0.12500048E+03</pdfrwt>
<pdfrwt beam="1">  1       -4 0.14960377E-01 0.12500048E+03</pdfrwt>
<totfact> 0.10187348E+04</totfact>
</mgrwt>
</event>
<event>
 5    1  0.3294152E-002  0.1249996E+03  0.7818608E-02  0.1235070E+00
          4   -1    0    0  501    0  0.00000000000E+00  0.00000000000E+00  0.12027103506E+02  0.12093970347E+02  0.12700000000E+01 0.  1.
         -4   -1    0    0    0  501 -0.00000000000E+00 -0.00000000000E+00 -0.32381680071E+03  0.32381929115E+03  0.12700000000E+01 0.  1.
         25    2    1    2    0    0  0.00000000000E+00  0.00000000000E+00 -0.31178969720E+03  0.33591326150E+03  0.12499961587E+03 0.  0.
    9000005    1    3    3    0    0  0.61968960076E+01 -0.20510264121E+02  0.18611138836E+01  0.21529890834E+02  0.10000000000E+01 0.  0.
    9000005    1    3    3    0    0 -0.61968960076E+01  0.20510264121E+02 -0.31365081109E+03  0.31438337066E+03  0.10000000000E+01 0.  0.
<mgrwt>
<rscale>  0 0.12499962E+03</rscale>
<asrwt>0</asrwt>
<pdfrwt beam="1">  1        4 0.18556590E-02 0.12499962E+03</pdfrwt>
<pdfrwt beam="2">  1       -4 0.49823298E-01 0.12499962E+03</pdfrwt>
<totfact> 0.71303197E+03</totfact>
</mgrwt>
</event>
<event>
 4    1  0.3294152E-002  0.1250790E+03  0.7818608E-02  0.1234946E+00
         -4   -1    0    0    0  501 -0.00000000000E+00  0.00000000000E+00  0.35771033821E+02  0.35793571498E+02  0.12700000000E+01 0.  1.
          4   -1    0    0  501    0  0.00000000000E+00 -0.00000000000E+00 -0.10927884715E+03  0.10928622664E+03  0.12700000000E+01 0.  1.
    9000005    1    1    2    0    0 -0.35043540062E+02  0.36931704227E+00  0.23315331546E+02  0.42104522088E+02  0.10000000000E+01 0.  0.
    9000005    1    1    2    0    0  0.35043540062E+02 -0.36931704227E+00 -0.96823144873E+02  0.10297527605E+03  0.10000000000E+01 0.  0.
<mgrwt>
<rscale>  0 0.12507897E+03</rscale>
<asrwt>0</asrwt>
<pdfrwt beam="2">  1        4 0.16814431E-01 0.12507897E+03</pdfrwt>
<pdfrwt beam="1">  1       -4 0.55055374E-02 0.12507897E+03</pdfrwt>
<totfact> 0.10011553E+04</totfact>
</mgrwt>
</event>
<event>
 5    1  0.3294152E-002  0.1249959E+03  0.7818608E-02  0.1235076E+00
          4   -1    0    0  501    0  0.00000000000E+00  0.00000000000E+00  0.17908395942E+02  0.17953371417E+02  0.12700000000E+01 0. -1.
         -4   -1    0    0    0  501 -0.00000000000E+00 -0.00000000000E+00 -0.21778930707E+03  0.21779300992E+03  0.12700000000E+01 0. -1.
         25    2    1    2    0    0  0.00000000000E+00  0.00000000000E+00 -0.19988091112E+03  0.23574638134E+03  0.12499591067E+03 0.  0.
    9000005    1    3    3    0    0 -0.11271377577E+02 -0.60557945751E+02 -0.11978288932E+03  0.13469687940E+03  0.10000000000E+01 0.  0.
    9000005    1    3    3    0    0  0.11271377577E+02  0.60557945751E+02 -0.80098021806E+02  0.10104950194E+03  0.10000000000E+01 0.  0.
<mgrwt>
<rscale>  0 0.12499591E+03</rscale>
<asrwt>0</asrwt>
<pdfrwt beam="1">  1        4 0.27588825E-02 0.12499591E+03</pdfrwt>
<pdfrwt beam="2">  1       -4 0.33509790E-01 0.12499591E+03</pdfrwt>
<totfact> 0.84442676E+03</totfact>
</mgrwt>
</event>
<event>
 5    1  0.3294152E-002  0.1250074E+03  0.7818608E-02  0.1235058E+00
         -4   -1    0    0    0  501 -0.00000000000E+00  0.00000000000E+00  0.60623811139E+02  0.60637112209E+02  0.12700000000E+01 0.  1.
          4   -1    0    0  501    0  0.00000000000E+00 -0.00000000000E+00 -0.64415218065E+02  0.64427736406E+02  0.12700000000E+01 0.  1.
         25    2    1    2    0    0  0.00000000000E+00  0.00000000000E+00 -0.37914069258E+01  0.12506484861E+03  0.12500736615E+03 0.  0.
    9000005    1    3    3    0    0  0.41180719082E+02 -0.39683814008E+02  0.23316155867E+02  0.61768113479E+02  0.10000000000E+01 0.  0.
    9000005    1    3    3    0    0 -0.41180719082E+02  0.39683814008E+02 -0.27107562793E+02  0.63296735136E+02  0.10000000000E+01 0.  0.
<mgrwt>
<rscale>  0 0.12500737E+03</rscale>
<asrwt>0</asrwt>
<pdfrwt beam="2">  1        4 0.99120197E-02 0.12500737E+03</pdfrwt>
<pdfrwt beam="1">  1       -4 0.93287263E-02 0.12500737E+03</pdfrwt>
<totfact> 0.10449714E+04</totfact>
</mgrwt>
</event>
<event>
 5    1  0.3294152E-002  0.1250024E+03  0.7818608E-02  0.1235066E+00
         -4   -1    0    0    0  501 -0.00000000000E+00  0.00000000000E+00  0.28372730165E+03  0.28373014398E+03  0.12700000000E+01 0. -1.
          4   -1    0    0  501    0  0.00000000000E+00 -0.00000000000E+00 -0.13735940659E+02  0.13794526661E+02  0.12700000000E+01 0. -1.
         25    2    1    2    0    0  0.00000000000E+00  0.00000000000E+00  0.26999136099E+03  0.29752467064E+03  0.12500237849E+03 0.  0.
    9000005    1    3    3    0    0 -0.31735500856E+02 -0.52413302258E+02  0.10573796773E+03  0.12221216833E+03  0.10000000000E+01 0.  0.
    9000005    1    3    3    0    0  0.31735500856E+02  0.52413302258E+02  0.16425339326E+03  0.17531250231E+03  0.10000000000E+01 0.  0.
<mgrwt>
<rscale>  0 0.12500238E+03</rscale>
<asrwt>0</asrwt>
<pdfrwt beam="2">  1        4 0.21179472E-02 0.12500238E+03</pdfrwt>
<pdfrwt beam="1">  1       -4 0.43655073E-01 0.12500238E+03</pdfrwt>
<totfact> 0.75906387E+03</totfact>
</mgrwt>
</event>
<event>
 5    1  0.3294152E-002  0.1249966E+03  0.7818608E-02  0.1235075E+00
         -4   -1    0    0    0  501 -0.00000000000E+00  0.00000000000E+00  0.14765259012E+03  0.14765805182E+03  0.12700000000E+01 0.  1.
          4   -1    0    0  501    0  0.00000000000E+00 -0.00000000000E+00 -0.26433039809E+02  0.26463531389E+02  0.12700000000E+01 0.  1.
         25    2    1    2    0    0  0.00000000000E+00  0.00000000000E+00  0.12121955031E+03  0.17412158321E+03  0.12499658541E+03 0.  0.
    9000005    1    3    3    0    0 -0.45186538705E+01 -0.41911483535E+02  0.12487040148E+03  0.13179760184E+03  0.10000000000E+01 0.  0.
    9000005    1    3    3    0    0  0.45186538705E+01  0.41911483535E+02 -0.36508511729E+01  0.42323981372E+02  0.10000000000E+01 0.  0.
<mgrwt>
<rscale>  0 0.12499659E+03</rscale>
<asrwt>0</asrwt>
<pdfrwt beam="2">  1        4 0.40693872E-02 0.12499659E+03</pdfrwt>
<pdfrwt beam="1">  1       -4 0.22718548E-01 0.12499659E+03</pdfrwt>
<totfact> 0.94693221E+03</totfact>
</mgrwt>
</event>
<event>
 5    1  0.3294152E-002  0.1250001E+03  0.7818608E-02  0.1235069E+00
         -4   -1    0    0    0  501 -0.00000000000E+00  0.00000000000E+00  0.93877184061E+02  0.93885774147E+02  0.12700000000E+01 0.  1.
          4   -1    0    0  501    0  0.00000000000E+00 -0.00000000000E+00 -0.41590106310E+02  0.41609492220E+02  0.12700000000E+01 0.  1.
         25    2    1    2    0    0  0.00000000000E+00  0.00000000000E+00  0.52287077751E+02  0.13549526637E+03  0.12500011483E+03 0.  0.
    9000005    1    3    3    0    0  0.47877677668E+02  0.23761870583E+02 -0.89533528221E+01  0.54203883987E+02  0.10000000000E+01 0.  0.
    9000005    1    3    3    0    0 -0.47877677668E+02 -0.23761870583E+02  0.61240430573E+02  0.81291382380E+02  0.10000000000E+01 0.  0.
<mgrwt>
<rscale>  0 0.12500011E+03</rscale>
<asrwt>0</asrwt>
<pdfrwt beam="2">  1        4 0.64006299E-02 0.12500011E+03</pdfrwt>
<pdfrwt beam="1">  1       -4 0.14444796E-01 0.12500011E+03</pdfrwt>
<totfact> 0.10227616E+04</totfact>
</mgrwt>
</event>
<event>
 5    1  0.3294152E-002  0.1249994E+03  0.7818608E-02  0.1235070E+00
         -4   -1    0    0    0  501 -0.00000000000E+00  0.00000000000E+00  0.33687118095E+03  0.33687357489E+03  0.12700000000E+01 0. -1.
          4   -1    0    0  501    0  0.00000000000E+00 -0.00000000000E+00 -0.11558351027E+02  0.11627913762E+02  0.12700000000E+01 0. -1.
         25    2    1    2    0    0  0.00000000000E+00  0.00000000000E+00  0.32531282993E+03  0.34850148865E+03  0.12499940110E+03 0.  0.
    9000005    1    3    3    0    0  0.54787803378E+02 -0.16894204070E+02  0.93341876753E+02  0.10954827012E+03  0.10000000000E+01 0.  0.
    9000005    1    3    3    0    0 -0.54787803378E+02  0.16894204070E+02  0.23197095317E+03  0.23895321853E+03  0.10000000000E+01 0.  0.
<mgrwt>
<rscale>  0 0.12499940E+03</rscale>
<asrwt>0</asrwt>
<pdfrwt beam="2">  1        4 0.17837428E-02 0.12499940E+03</pdfrwt>
<pdfrwt beam="1">  1       -4 0.51831876E-01 0.12499940E+03</pdfrwt>
<totfact> 0.69890646E+03</totfact>
</mgrwt>
</event>
<event>
 4    1  0.3294152E-002  0.1253163E+03  0.7818608E-02  0.1234576E+00
         -4   -1    0    0    0  501 -0.00000000000E+00  0.00000000000E+00  0.45556511054E+02  0.45574209806E+02  0.12700000000E+01 0. -1.
          4   -1    0    0  501    0  0.00000000000E+00 -0.00000000000E+00 -0.86140464022E+02  0.86149825548E+02  0.12700000000E+01 0. -1.
    9000005    1    1    2    0    0  0.22632048531E+02  0.49108840588E+02  0.12966923891E+02  0.55615006606E+02  0.10000000000E+01 0.  0.
    9000005    1    1    2    0    0 -0.22632048531E+02 -0.49108840588E+02 -0.53550876859E+02  0.76109028748E+02  0.10000000000E+01 0.  0.
<mgrwt>
<rscale>  0 0.12531626E+03</rscale>
<asrwt>0</asrwt>
<pdfrwt beam="2">  1        4 0.13254461E-01 0.12531626E+03</pdfrwt>
<pdfrwt beam="1">  1       -4 0.70107756E-02 0.12531626E+03</pdfrwt>
<totfact> 0.10234396E+04</totfact>
</mgrwt>
</event>
<event>
 5    1  0.3294152E-002  0.1249995E+03  0.7818608E-02  0.1235070E+00
         -4   -1    0    0    0  501 -0.00000000000E+00  0.00000000000E+00  0.14889515013E+03  0.14890056625E+03  0.12700000000E+01 0.  1.
          4   -1    0    0  501    0  0.00000000000E+00 -0.00000000000E+00 -0.26213425423E+02  0.26244172161E+02  0.12700000000E+01 0.  1.
         25    2    1    2    0    0  0.00000000000E+00  0.00000000000E+00  0.12268172470E+03  0.17514473842E+03  0.12499949527E+03 0.  0.
    9000005    1    3    3    0    0 -0.59780931027E+02 -0.27595398355E+01  0.86555721624E+02  0.10523434668E+03  0.10000000000E+01 0.  0.
    9000005    1    3    3    0    0  0.59780931027E+02  0.27595398355E+01  0.36126003078E+02  0.69910391739E+02  0.10000000000E+01 0.  0.
<mgrwt>
<rscale>  0 0.12499950E+03</rscale>
<asrwt>0</asrwt>
<pdfrwt beam="2">  1        4 0.40356165E-02 0.12499950E+03</pdfrwt>
<pdfrwt beam="1">  1       -4 0.22909728E-01 0.12499950E+03</pdfrwt>
<totfact> 0.94499409E+03</totfact>
</mgrwt>
</event>
<event>
 5    1  0.3294152E-002  0.1250028E+03  0.7818608E-02  0.1235065E+00
         -4   -1    0    0    0  501 -0.00000000000E+00  0.00000000000E+00  0.30066406085E+02  0.30093216426E+02  0.12700000000E+01 0. -1.
          4   -1    0    0  501    0  0.00000000000E+00 -0.00000000000E+00 -0.12983877625E+03  0.12984498727E+03  0.12700000000E+01 0. -1.
         25    2    1    2    0    0  0.00000000000E+00  0.00000000000E+00 -0.99772370166E+02  0.15993820369E+03  0.12500281258E+03 0.  0.
    9000005    1    3    3    0    0  0.11719212746E+01  0.60485367215E+02 -0.69936560493E+02  0.92476891926E+02  0.10000000000E+01 0.  0.
    9000005    1    3    3    0    0 -0.11719212746E+01 -0.60485367215E+02 -0.29835809674E+02  0.67461311768E+02  0.10000000000E+01 0.  0.
<mgrwt>
<rscale>  0 0.12500281E+03</rscale>
<asrwt>0</asrwt>
<pdfrwt beam="2">  1        4 0.19977736E-01 0.12500281E+03</pdfrwt>
<pdfrwt beam="1">  1       -4 0.46281411E-02 0.12500281E+03</pdfrwt>
<totfact> 0.97348546E+03</totfact>
</mgrwt>
</event>
<event>
 5    1  0.3294152E-002  0.1249477E+03  0.7818608E-02  0.1235151E+00
         -4   -1    0    0    0  501 -0.00000000000E+00  0.00000000000E+00  0.15325002224E+03  0.15325528447E+03  0.12700000000E+01 0. -1.
          4   -1    0    0  501    0  0.00000000000E+00 -0.00000000000E+00 -0.25446525430E+02  0.25478197669E+02  0.12700000000E+01 0. -1.
         25    2    1    2    0    0  0.00000000000E+00  0.00000000000E+00  0.12780349681E+03  0.17873348214E+03  0.12494768441E+03 0.  0.
    9000005    1    3    3    0    0 -0.55623836305E+02  0.51302262224E+01  0.23908744098E+02  0.60769716395E+02  0.10000000000E+01 0.  0.
    9000005    1    3    3    0    0  0.55623836305E+02 -0.51302262224E+01  0.10389475271E+03  0.11796376574E+03  0.10000000000E+01 0.  0.
<mgrwt>
<rscale>  0 0.12494768E+03</rscale>
<asrwt>0</asrwt>
<pdfrwt beam="2">  1        4 0.39176912E-02 0.12494768E+03</pdfrwt>
<pdfrwt beam="1">  1       -4 0.23579768E-01 0.12494768E+03</pdfrwt>
<totfact> 0.93955660E+03</totfact>
</mgrwt>
</event>
<event>
 5    1  0.3294152E-002  0.1250015E+03  0.7818608E-02  0.1235067E+00
         -4   -1    0    0    0  501 -0.00000000000E+00  0.00000000000E+00  0.71540052597E+03  0.71540165324E+03  0.12700000000E+01 0.  1.
          4   -1    0    0  501    0  0.00000000000E+00 -0.00000000000E+00 -0.53853663482E+01  0.55330887129E+01  0.12700000000E+01 0.  1.
         25    2    1    2    0    0  0.00000000000E+00  0.00000000000E+00  0.71001515963E+03  0.72093474196E+03  0.12500150104E+03 0.  0.
    9000005    1    3    3    0    0 -0.17455817568E+02  0.49249231094E+02  0.55271713249E+03  0.55518233120E+03  0.10000000000E+01 0.  0.
    9000005    1    3    3    0    0  0.17455817568E+02 -0.49249231094E+02  0.15729802713E+03  0.16575241075E+03  0.10000000000E+01 0.  0.
<mgrwt>
<rscale>  0 0.12500150E+03</rscale>
<asrwt>0</asrwt>
<pdfrwt beam="2">  1        4 0.83996738E-03 0.12500150E+03</pdfrwt>
<pdfrwt beam="1">  1       -4 0.11007313E+00 0.12500150E+03</pdfrwt>
<totfact> 0.42002952E+03</totfact>
</mgrwt>
</event>
<event>
 5    1  0.3294152E-002  0.1250063E+03  0.7818608E-02  0.1235060E+00
         -4   -1    0    0    0  501 -0.00000000000E+00  0.00000000000E+00  0.17160582854E+03  0.17161052791E+03  0.12700000000E+01 0. -1.
          4   -1    0    0  501    0  0.00000000000E+00 -0.00000000000E+00 -0.22742471891E+02  0.22777904375E+02  0.12700000000E+01 0. -1.
         25    2    1    2    0    0  0.00000000000E+00  0.00000000000E+00  0.14886335665E+03  0.19438843228E+03  0.12500625445E+03 0.  0.
    9000005    1    3    3    0    0 -0.17863608171E+02  0.59296673916E+02  0.87482526160E+02  0.10718860209E+03  0.10000000000E+01 0.  0.
    9000005    1    3    3    0    0  0.17863608171E+02 -0.59296673916E+02  0.61380830491E+02  0.87199830196E+02  0.10000000000E+01 0.  0.
<mgrwt>
<rscale>  0 0.12500625E+03</rscale>
<asrwt>0</asrwt>
<pdfrwt beam="2">  1        4 0.35019290E-02 0.12500625E+03</pdfrwt>
<pdfrwt beam="1">  1       -4 0.26403983E-01 0.12500625E+03</pdfrwt>
<totfact> 0.91076544E+03</totfact>
</mgrwt>
</event>
<event>
 5    1  0.3294152E-002  0.1250018E+03  0.7818608E-02  0.1235066E+00
          4   -1    0    0  501    0  0.00000000000E+00  0.00000000000E+00  0.18928980655E+03  0.18929406690E+03  0.12700000000E+01 0.  1.
         -4   -1    0    0    0  501 -0.00000000000E+00 -0.00000000000E+00 -0.20612914688E+02  0.20652001161E+02  0.12700000000E+01 0.  1.
         25    2    1    2    0    0  0.00000000000E+00  0.00000000000E+00  0.16867689186E+03  0.20994606806E+03  0.12500183057E+03 0.  0.
    9000005    1    3    3    0    0 -0.22603746661E+02  0.37311404579E+02  0.91838904794E+01  0.44591637323E+02  0.10000000000E+01 0.  0.
    9000005    1    3    3    0    0  0.22603746661E+02 -0.37311404579E+02  0.15949300138E+03  0.16535443073E+03  0.10000000000E+01 0.  0.
<mgrwt>
<rscale>  0 0.12500183E+03</rscale>
<asrwt>0</asrwt>
<pdfrwt beam="1">  1        4 0.29124843E-01 0.12500183E+03</pdfrwt>
<pdfrwt beam="2">  1       -4 0.31745521E-02 0.12500183E+03</pdfrwt>
<totfact> 0.88481068E+03</totfact>
</mgrwt>
</event>
<event>
 5    1  0.3294152E-002  0.1249973E+03  0.7818608E-02  0.1235074E+00
         -4   -1    0    0    0  501 -0.00000000000E+00  0.00000000000E+00  0.53484144296E+02  0.53499220472E+02  0.12700000000E+01 0. -1.
          4   -1    0    0  501    0  0.00000000000E+00 -0.00000000000E+00 -0.73001561340E+02  0.73012607528E+02  0.12700000000E+01 0. -1.
         25    2    1    2    0    0  0.00000000000E+00  0.00000000000E+00 -0.19517417043E+02  0.12651182800E+03  0.12499725219E+03 0.  0.
    9000005    1    3    3    0    0 -0.40769936899E+02  0.47142451055E+02 -0.14339006242E+02  0.63962532363E+02  0.10000000000E+01 0.  0.
    9000005    1    3    3    0    0  0.40769936899E+02 -0.47142451055E+02 -0.51784108007E+01  0.62549295637E+02  0.10000000000E+01 0.  0.
<mgrwt>
<rscale>  0 0.12499725E+03</rscale>
<asrwt>0</asrwt>
<pdfrwt beam="2">  1        4 0.11233019E-01 0.12499725E+03</pdfrwt>
<pdfrwt beam="1">  1       -4 0.82303393E-02 0.12499725E+03</pdfrwt>
<totfact> 0.10420416E+04</totfact>
</mgrwt>
</event>
<event>
 5    1  0.3294152E-002  0.1250043E+03  0.7818608E-02  0.1235063E+00
          4   -1    0    0  501    0  0.00000000000E+00  0.00000000000E+00  0.44674461073E+01  0.46444563430E+01  0.12700000000E+01 0.  1.
         -4   -1    0    0    0  501 -0.00000000000E+00 -0.00000000000E+00 -0.85727593549E+03  0.85727687620E+03  0.12700000000E+01 0.  1.
         25    2    1    2    0    0  0.00000000000E+00  0.00000000000E+00 -0.85280848938E+03  0.86192133255E+03  0.12500425566E+03 0.  0.
    9000005    1    3    3    0    0  0.54761798042E+02  0.94081779273E+01 -0.22918073915E+03  0.23582234740E+03  0.10000000000E+01 0.  0.
    9000005    1    3    3    0    0 -0.54761798042E+02 -0.94081779273E+01 -0.62362775024E+03  0.62609898515E+03  0.10000000000E+01 0.  0.
<mgrwt>
<rscale>  0 0.12500426E+03</rscale>
<asrwt>0</asrwt>
<pdfrwt beam="1">  1        4 0.70098862E-03 0.12500426E+03</pdfrwt>
<pdfrwt beam="2">  1       -4 0.13190217E+00 0.12500426E+03</pdfrwt>
<totfact> 0.35641118E+03</totfact>
</mgrwt>
</event>
<event>
 5    1  0.3294152E-002  0.1250032E+03  0.7818608E-02  0.1235064E+00
         -4   -1    0    0    0  501 -0.00000000000E+00  0.00000000000E+00  0.72058680147E+01  0.73169278966E+01  0.12700000000E+01 0.  1.
          4   -1    0    0  501    0  0.00000000000E+00 -0.00000000000E+00 -0.53786338929E+03  0.53786488864E+03  0.12700000000E+01 0.  1.
         25    2    1    2    0    0  0.00000000000E+00  0.00000000000E+00 -0.53065752127E+03  0.54518181654E+03  0.12500323277E+03 0.  0.
    9000005    1    3    3    0    0 -0.43217092116E+02 -0.45140946159E+02 -0.26457361099E+03  0.27185587672E+03  0.10000000000E+01 0.  0.
    9000005    1    3    3    0    0  0.43217092116E+02  0.45140946159E+02 -0.26608391028E+03  0.27332593982E+03  0.10000000000E+01 0.  0.
<mgrwt>
<rscale>  0 0.12500323E+03</rscale>
<asrwt>0</asrwt>
<pdfrwt beam="2">  1        4 0.82756841E-01 0.12500323E+03</pdfrwt>
<pdfrwt beam="1">  1       -4 0.11172539E-02 0.12500323E+03</pdfrwt>
<totfact> 0.52517951E+03</totfact>
</mgrwt>
</event>
<event>
 5    1  0.3294152E-002  0.1249956E+03  0.7818608E-02  0.1235076E+00
          4   -1    0    0  501    0  0.00000000000E+00  0.00000000000E+00  0.85198648629E+01  0.86140000745E+01  0.12700000000E+01 0.  1.
         -4   -1    0    0    0  501 -0.00000000000E+00 -0.00000000000E+00 -0.45584114708E+03  0.45584291623E+03  0.12700000000E+01 0.  1.
         25    2    1    2    0    0  0.00000000000E+00  0.00000000000E+00 -0.44732128222E+03  0.46445691630E+03  0.12499559021E+03 0.  0.
    9000005    1    3    3    0    0 -0.55272905699E+01 -0.43647203075E+02 -0.38855722477E+03  0.39104136124E+03  0.10000000000E+01 0.  0.
    9000005    1    3    3    0    0  0.55272905699E+01  0.43647203075E+02 -0.58764057450E+02  0.73415555064E+02  0.10000000000E+01 0.  0.
<mgrwt>
<rscale>  0 0.12499559E+03</rscale>
<asrwt>0</asrwt>
<pdfrwt beam="1">  1        4 0.13181261E-02 0.12499559E+03</pdfrwt>
<pdfrwt beam="2">  1       -4 0.70136766E-01 0.12499559E+03</pdfrwt>
<totfact> 0.58737248E+03</totfact>
</mgrwt>
</event>
<event>
 5    1  0.3294152E-002  0.1249986E+03  0.7818608E-02  0.1235071E+00
          4   -1    0    0  501    0  0.00000000000E+00  0.00000000000E+00  0.64658114264E+01  0.65893563723E+01  0.12700000000E+01 0.  1.
         -4   -1    0    0    0  501 -0.00000000000E+00 -0.00000000000E+00 -0.59828462464E+03  0.59828597257E+03  0.12700000000E+01 0.  1.
         25    2    1    2    0    0  0.00000000000E+00  0.00000000000E+00 -0.59181881321E+03  0.60487532895E+03  0.12499862358E+03 0.  0.
    9000005    1    3    3    0    0  0.22544810139E+02 -0.38364352426E+02 -0.83592720951E+02  0.94703933378E+02  0.10000000000E+01 0.  0.
    9000005    1    3    3    0    0 -0.22544810139E+02  0.38364352426E+02 -0.50822609226E+03  0.51017139557E+03  0.10000000000E+01 0.  0.
<mgrwt>
<rscale>  0 0.12499862E+03</rscale>
<asrwt>0</asrwt>
<pdfrwt beam="1">  1        4 0.10043478E-02 0.12499862E+03</pdfrwt>
<pdfrwt beam="2">  1       -4 0.92053352E-01 0.12499862E+03</pdfrwt>
<totfact> 0.48562787E+03</totfact>
</mgrwt>
</event>
<event>
 5    1  0.3294152E-002  0.1250017E+03  0.7818608E-02  0.1235067E+00
          4   -1    0    0  501    0  0.00000000000E+00  0.00000000000E+00  0.36221367279E+03  0.36221589923E+03  0.12700000000E+01 0.  1.
         -4   -1    0    0    0  501 -0.00000000000E+00 -0.00000000000E+00 -0.10745020518E+02  0.10819813581E+02  0.12700000000E+01 0.  1.
         25    2    1    2    0    0  0.00000000000E+00  0.00000000000E+00  0.35146865227E+03  0.37303571281E+03  0.12500171800E+03 0.  0.
    9000005    1    3    3    0    0  0.27896871992E+02 -0.32349473210E+02  0.31185754866E+03  0.31477111453E+03  0.10000000000E+01 0.  0.
    9000005    1    3    3    0    0 -0.27896871992E+02  0.32349473210E+02  0.39611103610E+02  0.58264598283E+02  0.10000000000E+01 0.  0.
<mgrwt>
<rscale>  0 0.12500172E+03</rscale>
<asrwt>0</asrwt>
<pdfrwt beam="1">  1        4 0.55731094E-01 0.12500172E+03</pdfrwt>
<pdfrwt beam="2">  1       -4 0.16590050E-02 0.12500172E+03</pdfrwt>
<totfact> 0.67259987E+03</totfact>
</mgrwt>
</event>
<event>
 5    1  0.3294152E-002  0.1249997E+03  0.7818608E-02  0.1235070E+00
         -4   -1    0    0    0  501 -0.00000000000E+00  0.00000000000E+00  0.28984377884E+02  0.29012188152E+02  0.12700000000E+01 0. -1.
          4   -1    0    0  501    0  0.00000000000E+00 -0.00000000000E+00 -0.13467480778E+03  0.13468079577E+03  0.12700000000E+01 0. -1.
         25    2    1    2    0    0  0.00000000000E+00  0.00000000000E+00 -0.10569042989E+03  0.16369298392E+03  0.12499970406E+03 0.  0.
    9000005    1    3    3    0    0 -0.35514549997E+02  0.51244463951E+02 -0.58393918104E+02  0.85429081808E+02  0.10000000000E+01 0.  0.
    9000005    1    3    3    0    0  0.35514549997E+02 -0.51244463951E+02 -0.47296511789E+02  0.78263902116E+02  0.10000000000E+01 0.  0.
<mgrwt>
<rscale>  0 0.12499970E+03</rscale>
<asrwt>0</asrwt>
<pdfrwt beam="2">  1        4 0.20721801E-01 0.12499970E+03</pdfrwt>
<pdfrwt beam="1">  1       -4 0.44617350E-02 0.12499970E+03</pdfrwt>
<totfact> 0.96636137E+03</totfact>
</mgrwt>
</event>
<event>
 5    1  0.3294152E-002  0.1250011E+03  0.7818608E-02  0.1235068E+00
         -4   -1    0    0    0  501 -0.00000000000E+00  0.00000000000E+00  0.89200381754E+01  0.90099933990E+01  0.12700000000E+01 0.  1.
          4   -1    0    0  501    0  0.00000000000E+00 -0.00000000000E+00 -0.43563796101E+03  0.43563981219E+03  0.12700000000E+01 0.  1.
         25    2    1    2    0    0  0.00000000000E+00  0.00000000000E+00 -0.42671792283E+03  0.44464980559E+03  0.12500105580E+03 0.  0.
    9000005    1    3    3    0    0  0.32867762071E+02 -0.47320877878E+02 -0.29945130863E+03  0.30494530904E+03  0.10000000000E+01 0.  0.
    9000005    1    3    3    0    0 -0.32867762071E+02  0.47320877878E+02 -0.12726661420E+03  0.13970449655E+03  0.10000000000E+01 0.  0.
<mgrwt>
<rscale>  0 0.12500106E+03</rscale>
<asrwt>0</asrwt>
<pdfrwt beam="2">  1        4 0.67028270E-01 0.12500106E+03</pdfrwt>
<pdfrwt beam="1">  1       -4 0.13793759E-02 0.12500106E+03</pdfrwt>
<totfact> 0.60428702E+03</totfact>
</mgrwt>
</event>
<event>
 5    1  0.3294152E-002  0.1250066E+03  0.7818608E-02  0.1235059E+00
         -4   -1    0    0    0  501 -0.00000000000E+00  0.00000000000E+00  0.38231927058E+01  0.40286104882E+01  0.12700000000E+01 0.  1.
          4   -1    0    0  501    0  0.00000000000E+00 -0.00000000000E+00 -0.99489411093E+03  0.99489492152E+03  0.12700000000E+01 0.  1.
         25    2    1    2    0    0  0.00000000000E+00  0.00000000000E+00 -0.99107091823E+03  0.99892353201E+03  0.12500663121E+03 0.  0.
    9000005    1    3    3    0    0 -0.58718917502E+02 -0.16991663794E+02 -0.39164168968E+03  0.39638471339E+03  0.10000000000E+01 0.  0.
    9000005    1    3    3    0    0  0.58718917502E+02  0.16991663794E+02 -0.59942922855E+03  0.60253881862E+03  0.10000000000E+01 0.  0.
<mgrwt>
<rscale>  0 0.12500663E+03</rscale>
<asrwt>0</asrwt>
<pdfrwt beam="2">  1        4 0.15307629E+00 0.12500663E+03</pdfrwt>
<pdfrwt beam="1">  1       -4 0.60404801E-03 0.12500663E+03</pdfrwt>
<totfact> 0.30635662E+03</totfact>
</mgrwt>
</event>
<event>
 5    1  0.3294152E-002  0.1250022E+03  0.7818608E-02  0.1235066E+00
         -4   -1    0    0    0  501 -0.00000000000E+00  0.00000000000E+00  0.71692806375E+02  0.71704054181E+02  0.12700000000E+01 0. -1.
          4   -1    0    0  501    0  0.00000000000E+00 -0.00000000000E+00 -0.54464909833E+02  0.54479714602E+02  0.12700000000E+01 0. -1.
         25    2    1    2    0    0  0.00000000000E+00  0.00000000000E+00  0.17227896542E+02  0.12618376878E+03  0.12500217232E+03 0.  0.
    9000005    1    3    3    0    0 -0.38173127699E+02  0.18463500168E+02  0.54953180597E+02  0.69418589546E+02  0.10000000000E+01 0.  0.
    9000005    1    3    3    0    0  0.38173127699E+02 -0.18463500168E+02 -0.37725284055E+02  0.56765179237E+02  0.10000000000E+01 0.  0.
<mgrwt>
<rscale>  0 0.12500217E+03</rscale>
<asrwt>0</asrwt>
<pdfrwt beam="2">  1        4 0.83812209E-02 0.12500217E+03</pdfrwt>
<pdfrwt beam="1">  1       -4 0.11031667E-01 0.12500217E+03</pdfrwt>
<totfact> 0.10426423E+04</totfact>
</mgrwt>
</event>
<event>
 5    1  0.3294152E-002  0.1249997E+03  0.7818608E-02  0.1235070E+00
         -4   -1    0    0    0  501 -0.00000000000E+00  0.00000000000E+00  0.81711076588E+02  0.81720945523E+02  0.12700000000E+01 0. -1.
          4   -1    0    0  501    0  0.00000000000E+00 -0.00000000000E+00 -0.47784209800E+02  0.47801083735E+02  0.12700000000E+01 0. -1.
         25    2    1    2    0    0  0.00000000000E+00  0.00000000000E+00  0.33926866788E+02  0.12952202926E+03  0.12499969509E+03 0.  0.
    9000005    1    3    3    0    0  0.16674028967E+02 -0.25998295468E+01  0.79310478997E+02  0.81092135466E+02  0.10000000000E+01 0.  0.
    9000005    1    3    3    0    0 -0.16674028967E+02  0.25998295468E+01 -0.45383612208E+02  0.48429893793E+02  0.10000000000E+01 0.  0.
<mgrwt>
<rscale>  0 0.12499970E+03</rscale>
<asrwt>0</asrwt>
<pdfrwt beam="2">  1        4 0.73534740E-02 0.12499970E+03</pdfrwt>
<pdfrwt beam="1">  1       -4 0.12572992E-01 0.12499970E+03</pdfrwt>
<totfact> 0.10354814E+04</totfact>
</mgrwt>
</event>
<event>
 5    1  0.3294152E-002  0.1250008E+03  0.7818608E-02  0.1235068E+00
          4   -1    0    0  501    0  0.00000000000E+00  0.00000000000E+00  0.17087672770E+03  0.17088144712E+03  0.12700000000E+01 0.  1.
         -4   -1    0    0    0  501 -0.00000000000E+00 -0.00000000000E+00 -0.22837668578E+02  0.22872953593E+02  0.12700000000E+01 0.  1.
         25    2    1    2    0    0  0.00000000000E+00  0.00000000000E+00  0.14803905912E+03  0.19375440071E+03  0.12500081908E+03 0.  0.
    9000005    1    3    3    0    0 -0.29929893025E+02 -0.34133736134E+01 -0.10848433789E+02  0.32033390885E+02  0.10000000000E+01 0.  0.
    9000005    1    3    3    0    0  0.29929893025E+02  0.34133736134E+01  0.15888749291E+03  0.16172100983E+03  0.10000000000E+01 0.  0.
<mgrwt>
<rscale>  0 0.12500082E+03</rscale>
<asrwt>0</asrwt>
<pdfrwt beam="1">  1        4 0.26291805E-01 0.12500082E+03</pdfrwt>
<pdfrwt beam="2">  1       -4 0.35165647E-02 0.12500082E+03</pdfrwt>
<totfact> 0.91196461E+03</totfact>
</mgrwt>
</event>
<event>
 5    1  0.3294152E-002  0.1250009E+03  0.7818608E-02  0.1235068E+00
          4   -1    0    0  501    0  0.00000000000E+00  0.00000000000E+00  0.62425000735E+03  0.62425129922E+03  0.12700000000E+01 0. -1.
         -4   -1    0    0    0  501 -0.00000000000E+00 -0.00000000000E+00 -0.61918474152E+01  0.63207495135E+01  0.12700000000E+01 0. -1.
         25    2    1    2    0    0  0.00000000000E+00  0.00000000000E+00  0.61805815994E+03  0.63057204873E+03  0.12500087832E+03 0.  0.
    9000005    1    3    3    0    0  0.37217497273E+02  0.25191163005E+02  0.89979329771E+02  0.10058338125E+03  0.10000000000E+01 0.  0.
    9000005    1    3    3    0    0 -0.37217497273E+02 -0.25191163005E+02  0.52807883017E+03  0.52998866749E+03  0.10000000000E+01 0.  0.
<mgrwt>
<rscale>  0 0.12500088E+03</rscale>
<asrwt>0</asrwt>
<pdfrwt beam="1">  1        4 0.96048474E-01 0.12500088E+03</pdfrwt>
<pdfrwt beam="2">  1       -4 0.96260686E-03 0.12500088E+03</pdfrwt>
<totfact> 0.46992078E+03</totfact>
</mgrwt>
</event>
<event>
 5    1  0.3294152E-002  0.1250139E+03  0.7818608E-02  0.1235048E+00
         -4   -1    0    0    0  501 -0.00000000000E+00  0.00000000000E+00  0.72072598882E+01  0.73182986476E+01  0.12700000000E+01 0. -1.
          4   -1    0    0  501    0  0.00000000000E+00 -0.00000000000E+00 -0.53785298057E+03  0.53785447995E+03  0.12700000000E+01 0. -1.
         25    2    1    2    0    0  0.00000000000E+00  0.00000000000E+00 -0.53064572068E+03  0.54517277860E+03  0.12501390983E+03 0.  0.
    9000005    1    3    3    0    0 -0.30291769453E+02  0.26357310405E+01 -0.50344464757E+03  0.50436301564E+03  0.10000000000E+01 0.  0.
    9000005    1    3    3    0    0  0.30291769453E+02 -0.26357310405E+01 -0.27201073103E+02  0.40809762958E+02  0.10000000000E+01 0.  0.
<mgrwt>
<rscale>  0 0.12501391E+03</rscale>
<asrwt>0</asrwt>
<pdfrwt beam="2">  1        4 0.82755238E-01 0.12501391E+03</pdfrwt>
<pdfrwt beam="1">  1       -4 0.11174664E-02 0.12501391E+03</pdfrwt>
<totfact> 0.52506278E+03</totfact>
</mgrwt>
</event>
<event>
 5    1  0.3294152E-002  0.1250042E+03  0.7818608E-02  0.1235063E+00
          4   -1    0    0  501    0  0.00000000000E+00  0.00000000000E+00  0.10920362847E+02  0.10993963103E+02  0.12700000000E+01 0.  1.
         -4   -1    0    0    0  501 -0.00000000000E+00 -0.00000000000E+00 -0.35645140402E+03  0.35645366645E+03  0.12700000000E+01 0.  1.
         25    2    1    2    0    0  0.00000000000E+00  0.00000000000E+00 -0.34553104117E+03  0.36744762956E+03  0.12500424014E+03 0.  0.
    9000005    1    3    3    0    0 -0.12465234568E+02  0.61153916569E+02 -0.16331728117E+03  0.17483912009E+03  0.10000000000E+01 0.  0.
    9000005    1    3    3    0    0  0.12465234568E+02 -0.61153916569E+02 -0.18221376000E+03  0.19260850946E+03  0.10000000000E+01 0.  0.
<mgrwt>
<rscale>  0 0.12500424E+03</rscale>
<asrwt>0</asrwt>
<pdfrwt beam="1">  1        4 0.16858917E-02 0.12500424E+03</pdfrwt>
<pdfrwt beam="2">  1       -4 0.54844504E-01 0.12500424E+03</pdfrwt>
<totfact> 0.67840454E+03</totfact>
</mgrwt>
</event>
<event>
 5    1  0.3294152E-002  0.1250045E+03  0.7818608E-02  0.1235062E+00
          4   -1    0    0  501    0  0.00000000000E+00  0.00000000000E+00  0.12629542843E+02  0.12693236483E+02  0.12700000000E+01 0.  1.
         -4   -1    0    0    0  501 -0.00000000000E+00 -0.00000000000E+00 -0.30847397396E+03  0.30847658827E+03  0.12700000000E+01 0.  1.
         25    2    1    2    0    0  0.00000000000E+00  0.00000000000E+00 -0.29584443112E+03  0.32116982475E+03  0.12500451555E+03 0.  0.
    9000005    1    3    3    0    0 -0.12978944267E+02  0.89150383107E+01  0.74621133284E+01  0.17453195630E+02  0.10000000000E+01 0.  0.
    9000005    1    3    3    0    0  0.12978944267E+02 -0.89150383107E+01 -0.30330654444E+03  0.30371662912E+03  0.10000000000E+01 0.  0.
<mgrwt>
<rscale>  0 0.12500452E+03</rscale>
<asrwt>0</asrwt>
<pdfrwt beam="1">  1        4 0.19481074E-02 0.12500452E+03</pdfrwt>
<pdfrwt beam="2">  1       -4 0.47462630E-01 0.12500452E+03</pdfrwt>
<totfact> 0.73009900E+03</totfact>
</mgrwt>
</event>
<event>
 5    1  0.3294152E-002  0.1250020E+03  0.7818608E-02  0.1235066E+00
          4   -1    0    0  501    0  0.00000000000E+00  0.00000000000E+00  0.15511145292E+04  0.15511150491E+04  0.12700000000E+01 0.  1.
         -4   -1    0    0    0  501 -0.00000000000E+00 -0.00000000000E+00 -0.23577701185E+01  0.26780552518E+01  0.12700000000E+01 0.  1.
         25    2    1    2    0    0  0.00000000000E+00  0.00000000000E+00  0.15487567591E+04  0.15537931044E+04  0.12500204951E+03 0.  0.
    9000005    1    3    3    0    0  0.26535221357E+02 -0.49668894344E+02  0.11112010415E+04  0.11126274631E+04  0.10000000000E+01 0.  0.
    9000005    1    3    3    0    0 -0.26535221357E+02  0.49668894344E+02  0.43755571760E+03  0.44116564128E+03  0.10000000000E+01 0.  0.
<mgrwt>
<rscale>  0 0.12500205E+03</rscale>
<asrwt>0</asrwt>
<pdfrwt beam="1">  1        4 0.23865784E+00 0.12500205E+03</pdfrwt>
<pdfrwt beam="2">  1       -4 0.38741092E-03 0.12500205E+03</pdfrwt>
<totfact> 0.16896130E+03</totfact>
</mgrwt>
</event>
<event>
 5    1  0.3294152E-002  0.1249970E+03  0.7818608E-02  0.1235074E+00
          4   -1    0    0  501    0  0.00000000000E+00  0.00000000000E+00  0.30878932472E+03  0.30879193636E+03  0.12700000000E+01 0.  1.
         -4   -1    0    0    0  501 -0.00000000000E+00 -0.00000000000E+00 -0.12615062532E+02  0.12678828916E+02  0.12700000000E+01 0.  1.
         25    2    1    2    0    0  0.00000000000E+00  0.00000000000E+00  0.29617426219E+03  0.32147076528E+03  0.12499703734E+03 0.  0.
    9000005    1    3    3    0    0 -0.14111167898E+02 -0.86452157200E+01 -0.68897265254E+01  0.17953638792E+02  0.10000000000E+01 0.  0.
    9000005    1    3    3    0    0  0.14111167898E+02  0.86452157200E+01  0.30306398872E+03  0.30351712649E+03  0.10000000000E+01 0.  0.
<mgrwt>
<rscale>  0 0.12499704E+03</rscale>
<asrwt>0</asrwt>
<pdfrwt beam="1">  1        4 0.47511154E-01 0.12499704E+03</pdfrwt>
<pdfrwt beam="2">  1       -4 0.19458849E-02 0.12499704E+03</pdfrwt>
<totfact> 0.72986330E+03</totfact>
</mgrwt>
</event>
<event>
 5    1  0.3294152E-002  0.1249992E+03  0.7818608E-02  0.1235071E+00
         -4   -1    0    0    0  501 -0.00000000000E+00  0.00000000000E+00  0.25792213341E+02  0.25823461600E+02  0.12700000000E+01 0. -1.
          4   -1    0    0  501    0  0.00000000000E+00 -0.00000000000E+00 -0.15132322115E+03  0.15132855038E+03  0.12700000000E+01 0. -1.
         25    2    1    2    0    0  0.00000000000E+00  0.00000000000E+00 -0.12553100781E+03  0.17715201198E+03  0.12499920570E+03 0.  0.
    9000005    1    3    3    0    0  0.57054830082E+02 -0.25017839535E+02 -0.55814679254E+02  0.83650608790E+02  0.10000000000E+01 0.  0.
    9000005    1    3    3    0    0 -0.57054830082E+02  0.25017839535E+02 -0.69716328554E+02  0.93501403186E+02  0.10000000000E+01 0.  0.
<mgrwt>
<rscale>  0 0.12499921E+03</rscale>
<asrwt>0</asrwt>
<pdfrwt beam="2">  1        4 0.23283309E-01 0.12499921E+03</pdfrwt>
<pdfrwt beam="1">  1       -4 0.39708466E-02 0.12499921E+03</pdfrwt>
<totfact> 0.94133854E+03</totfact>
</mgrwt>
</event>
<event>
 5    1  0.3294152E-002  0.1250022E+03  0.7818608E-02  0.1235066E+00
          4   -1    0    0  501    0  0.00000000000E+00  0.00000000000E+00  0.21212781375E+02  0.21250764543E+02  0.12700000000E+01 0.  1.
         -4   -1    0    0    0  501 -0.00000000000E+00 -0.00000000000E+00 -0.18394773244E+03  0.18395211652E+03  0.12700000000E+01 0.  1.
         25    2    1    2    0    0  0.00000000000E+00  0.00000000000E+00 -0.16273495107E+03  0.20520288106E+03  0.12500223237E+03 0.  0.
    9000005    1    3    3    0    0  0.70281340531E+01 -0.48230621767E+02 -0.14557461094E+03  0.15352053574E+03  0.10000000000E+01 0.  0.
    9000005    1    3    3    0    0 -0.70281340531E+01  0.48230621767E+02 -0.17160340128E+02  0.51682345318E+02  0.10000000000E+01 0.  0.
<mgrwt>
<rscale>  0 0.12500223E+03</rscale>
<asrwt>0</asrwt>
<pdfrwt beam="1">  1        4 0.32667640E-02 0.12500223E+03</pdfrwt>
<pdfrwt beam="2">  1       -4 0.28302909E-01 0.12500223E+03</pdfrwt>
<totfact> 0.89260899E+03</totfact>
</mgrwt>
</event>
<event>
 5    1  0.3294152E-002  0.1249975E+03  0.7818608E-02  0.1235073E+00
          4   -1    0    0  501    0  0.00000000000E+00  0.00000000000E+00  0.27016706724E+02  0.27046540300E+02  0.12700000000E+01 0.  1.
         -4   -1    0    0    0  501 -0.00000000000E+00 -0.00000000000E+00 -0.14446828511E+03  0.14447386719E+03  0.12700000000E+01 0.  1.
         25    2    1    2    0    0  0.00000000000E+00  0.00000000000E+00 -0.11745157838E+03  0.17152040749E+03  0.12499750766E+03 0.  0.
    9000005    1    3    3    0    0 -0.24203835358E+02 -0.29536029149E+02  0.91510809141E+01  0.39280337904E+02  0.10000000000E+01 0.  0.
    9000005    1    3    3    0    0  0.24203835358E+02  0.29536029149E+02 -0.12660265930E+03  0.13224006959E+03  0.10000000000E+01 0.  0.
<mgrwt>
<rscale>  0 0.12499751E+03</rscale>
<asrwt>0</asrwt>
<pdfrwt beam="1">  1        4 0.41591408E-02 0.12499751E+03</pdfrwt>
<pdfrwt beam="2">  1       -4 0.22228614E-01 0.12499751E+03</pdfrwt>
<totfact> 0.95171334E+03</totfact>
</mgrwt>
</event>
<event>
 5    1  0.3294152E-002  0.1250059E+03  0.7818608E-02  0.1235060E+00
         -4   -1    0    0    0  501 -0.00000000000E+00  0.00000000000E+00  0.33169784449E+02  0.33194088335E+02  0.12700000000E+01 0. -1.
          4   -1    0    0  501    0  0.00000000000E+00 -0.00000000000E+00 -0.11770562216E+03  0.11771247337E+03  0.12700000000E+01 0. -1.
         25    2    1    2    0    0  0.00000000000E+00  0.00000000000E+00 -0.84535837708E+02  0.15090656171E+03  0.12500592990E+03 0.  0.
    9000005    1    3    3    0    0  0.10298803301E+02  0.39390418707E+02 -0.99504126583E+02  0.10751623897E+03  0.10000000000E+01 0.  0.
    9000005    1    3    3    0    0 -0.10298803301E+02 -0.39390418707E+02  0.14968288875E+02  0.43390322736E+02  0.10000000000E+01 0.  0.
<mgrwt>
<rscale>  0 0.12500593E+03</rscale>
<asrwt>0</asrwt>
<pdfrwt beam="2">  1        4 0.18110954E-01 0.12500593E+03</pdfrwt>
<pdfrwt beam="1">  1       -4 0.51054404E-02 0.12500593E+03</pdfrwt>
<totfact> 0.99110069E+03</totfact>
</mgrwt>
</event>
<event>
 5    1  0.3294152E-002  0.1250028E+03  0.7818608E-02  0.1235065E+00
          4   -1    0    0  501    0  0.00000000000E+00  0.00000000000E+00  0.77284749171E+03  0.77284853519E+03  0.12700000000E+01 0. -1.
         -4   -1    0    0    0  501 -0.00000000000E+00 -0.00000000000E+00 -0.49737496792E+01  0.51333308749E+01  0.12700000000E+01 0. -1.
         25    2    1    2    0    0  0.00000000000E+00  0.00000000000E+00  0.76787374203E+03  0.77798186606E+03  0.12500280086E+03 0.  0.
    9000005    1    3    3    0    0  0.45736242950E+02  0.35663792817E+02  0.52879243057E+03  0.53196442048E+03  0.10000000000E+01 0.  0.
    9000005    1    3    3    0    0 -0.45736242950E+02 -0.35663792817E+02  0.23908131147E+03  0.24601744558E+03  0.10000000000E+01 0.  0.
<mgrwt>
<rscale>  0 0.12500280E+03</rscale>
<asrwt>0</asrwt>
<pdfrwt beam="1">  1        4 0.11891194E+00 0.12500280E+03</pdfrwt>
<pdfrwt beam="2">  1       -4 0.77754822E-03 0.12500280E+03</pdfrwt>
<totfact> 0.39264370E+03</totfact>
</mgrwt>
</event>
<event>
 5    1  0.3294152E-002  0.1250027E+03  0.7818608E-02  0.1235065E+00
         -4   -1    0    0    0  501 -0.00000000000E+00  0.00000000000E+00  0.76314161782E+03  0.76314267457E+03  0.12700000000E+01 0. -1.
          4   -1    0    0  501    0  0.00000000000E+00 -0.00000000000E+00 -0.50390149445E+01  0.51965923075E+01  0.12700000000E+01 0. -1.
         25    2    1    2    0    0  0.00000000000E+00  0.00000000000E+00  0.75810260288E+03  0.76833926688E+03  0.12500269012E+03 0.  0.
    9000005    1    3    3    0    0  0.60082572587E+02 -0.15464875652E+02  0.42518762305E+03  0.42969127604E+03  0.10000000000E+01 0.  0.
    9000005    1    3    3    0    0 -0.60082572587E+02  0.15464875652E+02  0.33291497983E+03  0.33864799084E+03  0.10000000000E+01 0.  0.
<mgrwt>
<rscale>  0 0.12500269E+03</rscale>
<asrwt>0</asrwt>
<pdfrwt beam="2">  1        4 0.78743598E-03 0.12500269E+03</pdfrwt>
<pdfrwt beam="1">  1       -4 0.11741856E+00 0.12500269E+03</pdfrwt>
<totfact> 0.39709626E+03</totfact>
</mgrwt>
</event>
<event>
 5    1  0.3294152E-002  0.1250008E+03  0.7818608E-02  0.1235068E+00
          4   -1    0    0  501    0  0.00000000000E+00  0.00000000000E+00  0.39944644590E+02  0.39964828680E+02  0.12700000000E+01 0. -1.
         -4   -1    0    0    0  501 -0.00000000000E+00 -0.00000000000E+00 -0.97743831573E+02  0.97752081873E+02  0.12700000000E+01 0. -1.
         25    2    1    2    0    0  0.00000000000E+00  0.00000000000E+00 -0.57799186983E+02  0.13771691055E+03  0.12500080574E+03 0.  0.
    9000005    1    3    3    0    0 -0.18047910284E+02 -0.51623151740E+02  0.44196886812E+01  0.54874497804E+02  0.10000000000E+01 0.  0.
    9000005    1    3    3    0    0  0.18047910284E+02  0.51623151740E+02 -0.62218875665E+02  0.82842412749E+02  0.10000000000E+01 0.  0.
<mgrwt>
<rscale>  0 0.12500081E+03</rscale>
<asrwt>0</asrwt>
<pdfrwt beam="1">  1        4 0.61475172E-02 0.12500081E+03</pdfrwt>
<pdfrwt beam="2">  1       -4 0.15039700E-01 0.12500081E+03</pdfrwt>
<totfact> 0.10180932E+04</totfact>
</mgrwt>
</event>
<event>
 5    1  0.3294152E-002  0.1250039E+03  0.7818608E-02  0.1235063E+00
         -4   -1    0    0    0  501 -0.00000000000E+00  0.00000000000E+00  0.12351661296E+02  0.12416780451E+02  0.12700000000E+01 0. -1.
          4   -1    0    0  501    0  0.00000000000E+00 -0.00000000000E+00 -0.31537464313E+03  0.31537720024E+03  0.12700000000E+01 0. -1.
         25    2    1    2    0    0  0.00000000000E+00  0.00000000000E+00 -0.30302298183E+03  0.32779398069E+03  0.12500386496E+03 0.  0.
    9000005    1    3    3    0    0  0.56790679483E+02  0.23537382891E+02 -0.18098164900E+03  0.19114012385E+03  0.10000000000E+01 0.  0.
    9000005    1    3    3    0    0 -0.56790679483E+02 -0.23537382891E+02 -0.12204133283E+03  0.13665385684E+03  0.10000000000E+01 0.  0.
<mgrwt>
<rscale>  0 0.12500386E+03</rscale>
<asrwt>0</asrwt>
<pdfrwt beam="2">  1        4 0.48524376E-01 0.12500386E+03</pdfrwt>
<pdfrwt beam="1">  1       -4 0.19054617E-02 0.12500386E+03</pdfrwt>
<totfact> 0.72232441E+03</totfact>
</mgrwt>
</event>
<event>
 5    1  0.3294152E-002  0.1250030E+03  0.7818608E-02  0.1235065E+00
         -4   -1    0    0    0  501 -0.00000000000E+00  0.00000000000E+00  0.41390832149E+02  0.41410311349E+02  0.12700000000E+01 0.  1.
          4   -1    0    0  501    0  0.00000000000E+00 -0.00000000000E+00 -0.94333277198E+02  0.94341825756E+02  0.12700000000E+01 0.  1.
         25    2    1    2    0    0  0.00000000000E+00  0.00000000000E+00 -0.52942445049E+02  0.13575213711E+03  0.12500296093E+03 0.  0.
    9000005    1    3    3    0    0  0.28155868903E+01 -0.36084177119E+02  0.28855105347E+02  0.46299162763E+02  0.10000000000E+01 0.  0.
    9000005    1    3    3    0    0 -0.28155868903E+01  0.36084177119E+02 -0.81797550396E+02  0.89452974342E+02  0.10000000000E+01 0.  0.
<mgrwt>
<rscale>  0 0.12500296E+03</rscale>
<asrwt>0</asrwt>
<pdfrwt beam="2">  1        4 0.14514968E-01 0.12500296E+03</pdfrwt>
<pdfrwt beam="1">  1       -4 0.63699763E-02 0.12500296E+03</pdfrwt>
<totfact> 0.10221560E+04</totfact>
</mgrwt>
</event>
<event>
 5    1  0.3294152E-002  0.1250016E+03  0.7818608E-02  0.1235067E+00
         -4   -1    0    0    0  501 -0.00000000000E+00  0.00000000000E+00  0.43302512614E+02  0.43321132241E+02  0.12700000000E+01 0. -1.
          4   -1    0    0  501    0  0.00000000000E+00 -0.00000000000E+00 -0.90168168118E+02  0.90177111518E+02  0.12700000000E+01 0. -1.
         25    2    1    2    0    0  0.00000000000E+00  0.00000000000E+00 -0.46865655504E+02  0.13349824376E+03  0.12500156567E+03 0.  0.
    9000005    1    3    3    0    0  0.18589809075E+02  0.34356177580E+02  0.28662124684E+02  0.48460760732E+02  0.10000000000E+01 0.  0.
    9000005    1    3    3    0    0 -0.18589809075E+02 -0.34356177580E+02 -0.75527780189E+02  0.85037483027E+02  0.10000000000E+01 0.  0.
<mgrwt>
<rscale>  0 0.12500157E+03</rscale>
<asrwt>0</asrwt>
<pdfrwt beam="2">  1        4 0.13874146E-01 0.12500157E+03</pdfrwt>
<pdfrwt beam="1">  1       -4 0.66640452E-02 0.12500157E+03</pdfrwt>
<totfact> 0.10269459E+04</totfact>
</mgrwt>
</event>
<event>
 5    1  0.3294152E-002  0.1250001E+03  0.7818608E-02  0.1235069E+00
          4   -1    0    0  501    0  0.00000000000E+00  0.00000000000E+00  0.22070590443E+03  0.22070955836E+03  0.12700000000E+01 0. -1.
         -4   -1    0    0    0  501 -0.00000000000E+00 -0.00000000000E+00 -0.17672339670E+02  0.17717914364E+02  0.12700000000E+01 0. -1.
         25    2    1    2    0    0  0.00000000000E+00  0.00000000000E+00  0.20303356476E+03  0.23842747273E+03  0.12500012532E+03 0.  0.
    9000005    1    3    3    0    0 -0.26644399558E+02 -0.46313137585E+02  0.16333675438E+03  0.17185670215E+03  0.10000000000E+01 0.  0.
    9000005    1    3    3    0    0  0.26644399558E+02  0.46313137585E+02  0.39696810382E+02  0.66570770578E+02  0.10000000000E+01 0.  0.
<mgrwt>
<rscale>  0 0.12500013E+03</rscale>
<asrwt>0</asrwt>
<pdfrwt beam="1">  1        4 0.33958542E-01 0.12500013E+03</pdfrwt>
<pdfrwt beam="2">  1       -4 0.27226083E-02 0.12500013E+03</pdfrwt>
<totfact> 0.84031890E+03</totfact>
</mgrwt>
</event>
<event>
 5    1  0.3294152E-002  0.1249889E+03  0.7818608E-02  0.1235087E+00
          4   -1    0    0  501    0  0.00000000000E+00  0.00000000000E+00  0.34769253200E+01  0.37016090664E+01  0.12700000000E+01 0. -1.
         -4   -1    0    0    0  501 -0.00000000000E+00 -0.00000000000E+00 -0.10878950865E+04  0.10878958278E+04  0.12700000000E+01 0. -1.
         25    2    1    2    0    0  0.00000000000E+00  0.00000000000E+00 -0.10844181612E+04  0.10915974369E+04  0.12498886295E+03 0.  0.
    9000005    1    3    3    0    0  0.39994270486E+02  0.37325564639E+02 -0.80592991518E+03  0.80778509990E+03  0.10000000000E+01 0.  0.
    9000005    1    3    3    0    0 -0.39994270486E+02 -0.37325564639E+02 -0.27848824599E+03  0.28381233695E+03  0.10000000000E+01 0.  0.
<mgrwt>
<rscale>  0 0.12498886E+03</rscale>
<asrwt>0</asrwt>
<pdfrwt beam="1">  1        4 0.55225284E-03 0.12498886E+03</pdfrwt>
<pdfrwt beam="2">  1       -4 0.16738555E+00 0.12498886E+03</pdfrwt>
<totfact> 0.27737401E+03</totfact>
</mgrwt>
</event>
<event>
 5    1  0.3294152E-002  0.1250011E+03  0.7818608E-02  0.1235068E+00
         -4   -1    0    0    0  501 -0.00000000000E+00  0.00000000000E+00  0.13272889920E+03  0.13273497498E+03  0.12700000000E+01 0.  1.
          4   -1    0    0  501    0  0.00000000000E+00 -0.00000000000E+00 -0.29410351226E+02  0.29437759073E+02  0.12700000000E+01 0.  1.
         25    2    1    2    0    0  0.00000000000E+00  0.00000000000E+00  0.10331854797E+03  0.16217273405E+03  0.12500109325E+03 0.  0.
    9000005    1    3    3    0    0 -0.19911420688E+02 -0.97694760050E+01 -0.24138825856E+02  0.32796192598E+02  0.10000000000E+01 0.  0.
    9000005    1    3    3    0    0  0.19911420688E+02  0.97694760050E+01  0.12745737383E+03  0.12937654145E+03  0.10000000000E+01 0.  0.
<mgrwt>
<rscale>  0 0.12500109E+03</rscale>
<asrwt>0</asrwt>
<pdfrwt beam="2">  1        4 0.45272451E-02 0.12500109E+03</pdfrwt>
<pdfrwt beam="1">  1       -4 0.20422406E-01 0.12500109E+03</pdfrwt>
<totfact> 0.96923146E+03</totfact>
</mgrwt>
</event>
<event>
 5    1  0.3294152E-002  0.1250006E+03  0.7818608E-02  0.1235068E+00
         -4   -1    0    0    0  501 -0.00000000000E+00  0.00000000000E+00  0.11126245252E+03  0.11126970047E+03  0.12700000000E+01 0.  1.
          4   -1    0    0  501    0  0.00000000000E+00 -0.00000000000E+00 -0.35088871935E+02  0.35111847483E+02  0.12700000000E+01 0.  1.
         25    2    1    2    0    0  0.00000000000E+00  0.00000000000E+00  0.76173580590E+02  0.14638154795E+03  0.12500057280E+03 0.  0.
    9000005    1    3    3    0    0  0.15133259749E+02 -0.44246210497E+02 -0.10459332188E+02  0.47928491774E+02  0.10000000000E+01 0.  0.
    9000005    1    3    3    0    0 -0.15133259749E+02  0.44246210497E+02  0.86632912778E+02  0.98453056175E+02  0.10000000000E+01 0.  0.
<mgrwt>
<rscale>  0 0.12500057E+03</rscale>
<asrwt>0</asrwt>
<pdfrwt beam="2">  1        4 0.54006129E-02 0.12500057E+03</pdfrwt>
<pdfrwt beam="1">  1       -4 0.17119625E-01 0.12500057E+03</pdfrwt>
<totfact> 0.10002865E+04</totfact>
</mgrwt>
</event>
<event>
 5    1  0.3294152E-002  0.1250015E+03  0.7818608E-02  0.1235067E+00
          4   -1    0    0  501    0  0.00000000000E+00  0.00000000000E+00  0.17469000051E+02  0.17515103847E+02  0.12700000000E+01 0. -1.
         -4   -1    0    0    0  501 -0.00000000000E+00 -0.00000000000E+00 -0.22327299290E+03  0.22327660481E+03  0.12700000000E+01 0. -1.
         25    2    1    2    0    0  0.00000000000E+00  0.00000000000E+00 -0.20580399285E+03  0.24079170866E+03  0.12500145394E+03 0.  0.
    9000005    1    3    3    0    0 -0.22846308206E+02 -0.51899393888E+02 -0.52307806514E+02  0.77153143208E+02  0.10000000000E+01 0.  0.
    9000005    1    3    3    0    0  0.22846308206E+02  0.51899393888E+02 -0.15349618633E+03  0.16363856545E+03  0.10000000000E+01 0.  0.
<mgrwt>
<rscale>  0 0.12500145E+03</rscale>
<asrwt>0</asrwt>
<pdfrwt beam="1">  1        4 0.26913629E-02 0.12500145E+03</pdfrwt>
<pdfrwt beam="2">  1       -4 0.34353513E-01 0.12500145E+03</pdfrwt>
<totfact> 0.83676886E+03</totfact>
</mgrwt>
</event>
<event>
 5    1  0.3294152E-002  0.1249982E+03  0.7818608E-02  0.1235072E+00
         -4   -1    0    0    0  501 -0.00000000000E+00  0.00000000000E+00  0.15426594630E+02  0.15478782959E+02  0.12700000000E+01 0. -1.
          4   -1    0    0  501    0  0.00000000000E+00 -0.00000000000E+00 -0.25272645740E+03  0.25272964838E+03  0.12700000000E+01 0. -1.
         25    2    1    2    0    0  0.00000000000E+00  0.00000000000E+00 -0.23729986277E+03  0.26820843134E+03  0.12499815107E+03 0.  0.
    9000005    1    3    3    0    0  0.58107579169E+02 -0.13537033117E+02 -0.15852718480E+03  0.16938598036E+03  0.10000000000E+01 0.  0.
    9000005    1    3    3    0    0 -0.58107579169E+02  0.13537033117E+02 -0.78772677973E+02  0.98822450979E+02  0.10000000000E+01 0.  0.
<mgrwt>
<rscale>  0 0.12499815E+03</rscale>
<asrwt>0</asrwt>
<pdfrwt beam="2">  1        4 0.38885250E-01 0.12499815E+03</pdfrwt>
<pdfrwt beam="1">  1       -4 0.23775824E-02 0.12499815E+03</pdfrwt>
<totfact> 0.79771031E+03</totfact>
</mgrwt>
</event>
<event>
 5    1  0.3294152E-002  0.1250263E+03  0.7818608E-02  0.1235028E+00
         -4   -1    0    0    0  501 -0.00000000000E+00  0.00000000000E+00  0.73919544302E+02  0.73930453331E+02  0.12700000000E+01 0.  1.
          4   -1    0    0  501    0  0.00000000000E+00 -0.00000000000E+00 -0.52844425715E+02  0.52859684346E+02  0.12700000000E+01 0.  1.
         25    2    1    2    0    0  0.00000000000E+00  0.00000000000E+00  0.21075118587E+02  0.12679013768E+03  0.12502631079E+03 0.  0.
    9000005    1    3    3    0    0 -0.62151948706E+01 -0.46809162692E+01 -0.52356371433E+02  0.52940808967E+02  0.10000000000E+01 0.  0.
    9000005    1    3    3    0    0  0.62151948706E+01  0.46809162692E+01  0.73431490020E+02  0.73849328710E+02  0.10000000000E+01 0.  0.
<mgrwt>
<rscale>  0 0.12502631E+03</rscale>
<asrwt>0</asrwt>
<pdfrwt beam="2">  1        4 0.81319245E-02 0.12502631E+03</pdfrwt>
<pdfrwt beam="1">  1       -4 0.11374251E-01 0.12502631E+03</pdfrwt>
<totfact> 0.10407526E+04</totfact>
</mgrwt>
</event>
<event>
 5    1  0.3294152E-002  0.1249987E+03  0.7818608E-02  0.1235071E+00
          4   -1    0    0  501    0  0.00000000000E+00  0.00000000000E+00  0.12123346482E+02  0.12189685391E+02  0.12700000000E+01 0.  1.
         -4   -1    0    0    0  501 -0.00000000000E+00 -0.00000000000E+00 -0.32125559723E+03  0.32125810753E+03  0.12700000000E+01 0.  1.
         25    2    1    2    0    0  0.00000000000E+00  0.00000000000E+00 -0.30913225075E+03  0.33344779292E+03  0.12499872859E+03 0.  0.
    9000005    1    3    3    0    0 -0.15194028971E+02  0.60528056081E+02 -0.14585383861E+03  0.15864692347E+03  0.10000000000E+01 0.  0.
    9000005    1    3    3    0    0  0.15194028971E+02 -0.60528056081E+02 -0.16327841214E+03  0.17480086945E+03  0.10000000000E+01 0.  0.
<mgrwt>
<rscale>  0 0.12499873E+03</rscale>
<asrwt>0</asrwt>
<pdfrwt beam="1">  1        4 0.18704266E-02 0.12499873E+03</pdfrwt>
<pdfrwt beam="2">  1       -4 0.49429228E-01 0.12499873E+03</pdfrwt>
<totfact> 0.71586746E+03</totfact>
</mgrwt>
</event>
<event>
 5    1  0.3294152E-002  0.1249761E+03  0.7818608E-02  0.1235107E+00
         -4   -1    0    0    0  501 -0.00000000000E+00  0.00000000000E+00  0.14729360552E+03  0.14729908054E+03  0.12700000000E+01 0. -1.
          4   -1    0    0  501    0  0.00000000000E+00 -0.00000000000E+00 -0.26488846972E+02  0.26519274385E+02  0.12700000000E+01 0. -1.
         25    2    1    2    0    0  0.00000000000E+00  0.00000000000E+00  0.12080475855E+03  0.17381835492E+03  0.12497612100E+03 0.  0.
    9000005    1    3    3    0    0  0.23596022212E+02  0.57016057161E+02  0.46764282190E+02  0.77430621379E+02  0.10000000000E+01 0.  0.
    9000005    1    3    3    0    0 -0.23596022212E+02 -0.57016057161E+02  0.74040476360E+02  0.96387733545E+02  0.10000000000E+01 0.  0.
<mgrwt>
<rscale>  0 0.12497612E+03</rscale>
<asrwt>0</asrwt>
<pdfrwt beam="2">  1        4 0.40779689E-02 0.12497612E+03</pdfrwt>
<pdfrwt beam="1">  1       -4 0.22663317E-01 0.12497612E+03</pdfrwt>
<totfact> 0.94792478E+03</totfact>
</mgrwt>
</event>
<event>
 5    1  0.3294152E-002  0.1250273E+03  0.7818608E-02  0.1235027E+00
         -4   -1    0    0    0  501 -0.00000000000E+00  0.00000000000E+00  0.47537373562E+02  0.47554335083E+02  0.12700000000E+01 0. -1.
          4   -1    0    0  501    0  0.00000000000E+00 -0.00000000000E+00 -0.82171554982E+02  0.82181368619E+02  0.12700000000E+01 0. -1.
         25    2    1    2    0    0  0.00000000000E+00  0.00000000000E+00 -0.34634181419E+02  0.12973570370E+03  0.12502730219E+03 0.  0.
    9000005    1    3    3    0    0  0.20316358727E+01 -0.55033653595E+02 -0.47996124017E+02  0.73057911912E+02  0.10000000000E+01 0.  0.
    9000005    1    3    3    0    0 -0.20316358727E+01  0.55033653595E+02  0.13361942597E+02  0.56677791791E+02  0.10000000000E+01 0.  0.
<mgrwt>
<rscale>  0 0.12502730E+03</rscale>
<asrwt>0</asrwt>
<pdfrwt beam="2">  1        4 0.12643837E-01 0.12502730E+03</pdfrwt>
<pdfrwt beam="1">  1       -4 0.73155017E-02 0.12502730E+03</pdfrwt>
<totfact> 0.10343788E+04</totfact>
</mgrwt>
</event>
<event>
 5    1  0.3294152E-002  0.1250020E+03  0.7818608E-02  0.1235066E+00
         -4   -1    0    0    0  501 -0.00000000000E+00  0.00000000000E+00  0.87044774879E+02  0.87054039158E+02  0.12700000000E+01 0.  1.
          4   -1    0    0  501    0  0.00000000000E+00 -0.00000000000E+00 -0.44857144459E+02  0.44875119042E+02  0.12700000000E+01 0.  1.
         25    2    1    2    0    0  0.00000000000E+00  0.00000000000E+00  0.42187630420E+02  0.13192915820E+03  0.12500202648E+03 0.  0.
    9000005    1    3    3    0    0 -0.55210444709E+02  0.27597523520E+02  0.10776608289E+02  0.62665395520E+02  0.10000000000E+01 0.  0.
    9000005    1    3    3    0    0  0.55210444709E+02 -0.27597523520E+02  0.31411022131E+02  0.69263762681E+02  0.10000000000E+01 0.  0.
<mgrwt>
<rscale>  0 0.12500203E+03</rscale>
<asrwt>0</asrwt>
<pdfrwt beam="2">  1        4 0.69031945E-02 0.12500203E+03</pdfrwt>
<pdfrwt beam="1">  1       -4 0.13393599E-01 0.12500203E+03</pdfrwt>
<totfact> 0.10302740E+04</totfact>
</mgrwt>
</event>
<event>
 5    1  0.3294152E-002  0.1250187E+03  0.7818608E-02  0.1235040E+00
          4   -1    0    0  501    0  0.00000000000E+00  0.00000000000E+00  0.89018767055E+02  0.89027825920E+02  0.12700000000E+01 0.  1.
         -4   -1    0    0    0  501 -0.00000000000E+00 -0.00000000000E+00 -0.43873823551E+02  0.43892200822E+02  0.12700000000E+01 0.  1.
         25    2    1    2    0    0  0.00000000000E+00  0.00000000000E+00  0.45144943504E+02  0.13292002674E+03  0.12501866895E+03 0.  0.
    9000005    1    3    3    0    0 -0.52975579802E+02 -0.32713228103E+02  0.16763698441E+02  0.64487122232E+02  0.10000000000E+01 0.  0.
    9000005    1    3    3    0    0  0.52975579802E+02  0.32713228103E+02  0.28381245063E+02  0.68432904510E+02  0.10000000000E+01 0.  0.
<mgrwt>
<rscale>  0 0.12501867E+03</rscale>
<asrwt>0</asrwt>
<pdfrwt beam="1">  1        4 0.13697305E-01 0.12501867E+03</pdfrwt>
<pdfrwt beam="2">  1       -4 0.67519295E-02 0.12501867E+03</pdfrwt>
<totfact> 0.10277771E+04</totfact>
</mgrwt>
</event>
<event>
 5    1  0.3294152E-002  0.1249986E+03  0.7818608E-02  0.1235071E+00
         -4   -1    0    0    0  501 -0.00000000000E+00  0.00000000000E+00  0.21687939485E+03  0.21688311325E+03  0.12700000000E+01 0. -1.
          4   -1    0    0  501    0  0.00000000000E+00 -0.00000000000E+00 -0.17984491842E+02  0.18029277490E+02  0.12700000000E+01 0. -1.
         25    2    1    2    0    0  0.00000000000E+00  0.00000000000E+00  0.19889490301E+03  0.23491239074E+03  0.12499859550E+03 0.  0.
    9000005    1    3    3    0    0  0.10732287941E+02  0.74278954654E+01 -0.15403566598E+02  0.20214487365E+02  0.10000000000E+01 0.  0.
    9000005    1    3    3    0    0 -0.10732287941E+02 -0.74278954654E+01  0.21429846961E+03  0.21469790337E+03  0.10000000000E+01 0.  0.
<mgrwt>
<rscale>  0 0.12499860E+03</rscale>
<asrwt>0</asrwt>
<pdfrwt beam="2">  1        4 0.27705759E-02 0.12499860E+03</pdfrwt>
<pdfrwt beam="1">  1       -4 0.33369793E-01 0.12499860E+03</pdfrwt>
<totfact> 0.84563606E+03</totfact>
</mgrwt>
</event>
