<event>
 5    1  0.3321169E-002  0.1250014E+03  0.7818608E-02  0.1235067E+00
          4   -1    0    0  501    0  0.00000000000E+00  0.00000000000E+00  0.12809637196E+03  0.12810266745E+03  0.12700000000E+01 0. -1.
         -4   -1    0    0    0  501 -0.00000000000E+00 -0.00000000000E+00 -0.30475012491E+02  0.30501463675E+02  0.12700000000E+01 0. -1.
         25    2    1    2    0    0  0.00000000000E+00  0.00000000000E+00  0.97621359465E+02  0.15860413113E+03  0.12500136234E+03 0.  0.
    9000005    1    3    3    0    0 -0.17494092074E+02  0.55648917518E+02  0.20368465479E+02  0.61795790021E+02  0.10000000000E+01 0.  0.
    9000005    1    3    3    0    0  0.17494092074E+02 -0.55648917518E+02  0.77252893986E+02  0.96808341105E+02  0.10000000000E+01 0.  0.
<mgrwt>
<rscale>  0 0.12500136E+03</rscale>
<asrwt>0</asrwt>
<pdfrwt beam="1">  1        4 0.19709653E-01 0.12500136E+03</pdfrwt>
<pdfrwt beam="2">  1       -4 0.46909824E-02 0.12500136E+03</pdfrwt>
<totfact> 0.97609585E+03</totfact>
</mgrwt>
</event>
<event>
 5    1  0.3321169E-002  0.1250019E+03  0.7818608E-02  0.1235066E+00
         -4   -1    0    0    0  501 -0.00000000000E+00  0.00000000000E+00  0.27535078930E+02  0.27564351464E+02  0.12700000000E+01 0. -1.
          4   -1    0    0  501    0  0.00000000000E+00 -0.00000000000E+00 -0.14176124178E+03  0.14176693045E+03  0.12700000000E+01 0. -1.
         25    2    1    2    0    0  0.00000000000E+00  0.00000000000E+00 -0.11422616285E+03  0.16933128192E+03  0.12500186701E+03 0.  0.
    9000005    1    3    3    0    0  0.10511033808E+02 -0.41626779985E+02  0.44010847184E+01  0.43169899123E+02  0.10000000000E+01 0.  0.
    9000005    1    3    3    0    0 -0.10511033808E+02  0.41626779985E+02 -0.11862724757E+03  0.12616138279E+03  0.10000000000E+01 0.  0.
<mgrwt>
<rscale>  0 0.12500187E+03</rscale>
<asrwt>0</asrwt>
<pdfrwt beam="2">  1        4 0.21812111E-01 0.12500187E+03</pdfrwt>
<pdfrwt beam="1">  1       -4 0.42388554E-02 0.12500187E+03</pdfrwt>
<totfact> 0.95569339E+03</totfact>
</mgrwt>
</event>
<event>
 5    1  0.3321169E-002  0.1250015E+03  0.7818608E-02  0.1235067E+00
         -4   -1    0    0    0  501 -0.00000000000E+00  0.00000000000E+00  0.29335037006E+02  0.29362515153E+02  0.12700000000E+01 0.  1.
          4   -1    0    0  501    0  0.00000000000E+00 -0.00000000000E+00 -0.13307016832E+03  0.13307622852E+03  0.12700000000E+01 0.  1.
         25    2    1    2    0    0  0.00000000000E+00  0.00000000000E+00 -0.10373513132E+03  0.16243874367E+03  0.12500147190E+03 0.  0.
    9000005    1    3    3    0    0 -0.55537450122E+02  0.12731724708E+02 -0.18512375240E+02  0.59918387971E+02  0.10000000000E+01 0.  0.
    9000005    1    3    3    0    0  0.55537450122E+02 -0.12731724708E+02 -0.85222756078E+02  0.10252035570E+03  0.10000000000E+01 0.  0.
<mgrwt>
<rscale>  0 0.12500147E+03</rscale>
<asrwt>0</asrwt>
<pdfrwt beam="2">  1        4 0.20474913E-01 0.12500147E+03</pdfrwt>
<pdfrwt beam="1">  1       -4 0.45156626E-02 0.12500147E+03</pdfrwt>
<totfact> 0.96871460E+03</totfact>
</mgrwt>
</event>
<event>
 5    1  0.3321169E-002  0.1249980E+03  0.7818608E-02  0.1235072E+00
         -4   -1    0    0    0  501 -0.00000000000E+00  0.00000000000E+00  0.15940901370E+01  0.20381421356E+01  0.12700000000E+01 0. -1.
          4   -1    0    0  501    0  0.00000000000E+00 -0.00000000000E+00 -0.21503696940E+04  0.21503700690E+04  0.12700000000E+01 0. -1.
         25    2    1    2    0    0  0.00000000000E+00  0.00000000000E+00 -0.21487756039E+04  0.21524082112E+04  0.12499804690E+03 0.  0.
    9000005    1    3    3    0    0  0.56780725308E+02  0.25453938322E+02 -0.97520837933E+03  0.97719206754E+03  0.10000000000E+01 0.  0.
    9000005    1    3    3    0    0 -0.56780725308E+02 -0.25453938322E+02 -0.11735672245E+04  0.11752161436E+04  0.10000000000E+01 0.  0.
<mgrwt>
<rscale>  0 0.12499805E+03</rscale>
<asrwt>0</asrwt>
<pdfrwt beam="2">  1        4 0.33085826E+00 0.12499805E+03</pdfrwt>
<pdfrwt beam="1">  1       -4 0.27943305E-03 0.12499805E+03</pdfrwt>
<totfact> 0.80013041E+02</totfact>
</mgrwt>
</event>
<event>
 5    1  0.3321169E-002  0.1250007E+03  0.7818608E-02  0.1235068E+00
         -4   -1    0    0    0  501 -0.00000000000E+00  0.00000000000E+00  0.11554456161E+03  0.11555154096E+03  0.12700000000E+01 0.  1.
          4   -1    0    0  501    0  0.00000000000E+00 -0.00000000000E+00 -0.33787742406E+02  0.33811602105E+02  0.12700000000E+01 0.  1.
         25    2    1    2    0    0  0.00000000000E+00  0.00000000000E+00  0.81756819205E+02  0.14936314306E+03  0.12500068407E+03 0.  0.
    9000005    1    3    3    0    0  0.53615947432E+02  0.31542478699E+02  0.33739455578E+02  0.70773926302E+02  0.10000000000E+01 0.  0.
    9000005    1    3    3    0    0 -0.53615947432E+02 -0.31542478699E+02  0.48017363627E+02  0.78589216762E+02  0.10000000000E+01 0.  0.
<mgrwt>
<rscale>  0 0.12500068E+03</rscale>
<asrwt>0</asrwt>
<pdfrwt beam="2">  1        4 0.52004864E-02 0.12500068E+03</pdfrwt>
<pdfrwt beam="1">  1       -4 0.17778459E-01 0.12500068E+03</pdfrwt>
<totfact> 0.99429266E+03</totfact>
</mgrwt>
</event>
<event>
 5    1  0.3321169E-002  0.1250073E+03  0.7818608E-02  0.1235058E+00
          4   -1    0    0  501    0  0.00000000000E+00  0.00000000000E+00  0.16884029027E+02  0.16931725730E+02  0.12700000000E+01 0.  1.
         -4   -1    0    0    0  501 -0.00000000000E+00 -0.00000000000E+00 -0.23100883561E+03  0.23101232657E+03  0.12700000000E+01 0.  1.
         25    2    1    2    0    0  0.00000000000E+00  0.00000000000E+00 -0.21412480658E+03  0.24794405230E+03  0.12500728091E+03 0.  0.
    9000005    1    3    3    0    0  0.52144489609E+02  0.34434841141E+02 -0.10894299939E+03  0.12559611140E+03  0.10000000000E+01 0.  0.
    9000005    1    3    3    0    0 -0.52144489609E+02 -0.34434841141E+02 -0.10518180718E+03  0.12234794090E+03  0.10000000000E+01 0.  0.
<mgrwt>
<rscale>  0 0.12500728E+03</rscale>
<asrwt>0</asrwt>
<pdfrwt beam="1">  1        4 0.26014806E-02 0.12500728E+03</pdfrwt>
<pdfrwt beam="2">  1       -4 0.35543756E-01 0.12500728E+03</pdfrwt>
<totfact> 0.82614886E+03</totfact>
</mgrwt>
</event>
<event>
 5    1  0.3321169E-002  0.1250015E+03  0.7818608E-02  0.1235067E+00
          4   -1    0    0  501    0  0.00000000000E+00  0.00000000000E+00  0.31677337130E+02  0.31702785172E+02  0.12700000000E+01 0. -1.
         -4   -1    0    0    0  501 -0.00000000000E+00 -0.00000000000E+00 -0.12323840630E+03  0.12324494994E+03  0.12700000000E+01 0. -1.
         25    2    1    2    0    0  0.00000000000E+00  0.00000000000E+00 -0.91561069166E+02  0.15494773511E+03  0.12500148491E+03 0.  0.
    9000005    1    3    3    0    0 -0.55446528407E+02  0.77623761870E+00 -0.10059857712E+02  0.56365954213E+02  0.10000000000E+01 0.  0.
    9000005    1    3    3    0    0  0.55446528407E+02 -0.77623761870E+00 -0.81501211454E+02  0.98581780901E+02  0.10000000000E+01 0.  0.
<mgrwt>
<rscale>  0 0.12500148E+03</rscale>
<asrwt>0</asrwt>
<pdfrwt beam="1">  1        4 0.48758974E-02 0.12500148E+03</pdfrwt>
<pdfrwt beam="2">  1       -4 0.18962216E-01 0.12500148E+03</pdfrwt>
<totfact> 0.98322477E+03</totfact>
</mgrwt>
</event>
<event>
 5    1  0.3321169E-002  0.1249976E+03  0.7818608E-02  0.1235073E+00
         -4   -1    0    0    0  501 -0.00000000000E+00  0.00000000000E+00  0.19143833500E+04  0.19143837712E+04  0.12700000000E+01 0.  1.
          4   -1    0    0  501    0  0.00000000000E+00 -0.00000000000E+00 -0.18423120042E+01  0.22376356989E+01  0.12700000000E+01 0.  1.
         25    2    1    2    0    0  0.00000000000E+00  0.00000000000E+00  0.19125410380E+04  0.19166214069E+04  0.12499758233E+03 0.  0.
    9000005    1    3    3    0    0  0.38778195641E+02  0.20835361785E+02  0.16363555082E+04  0.16369478336E+04  0.10000000000E+01 0.  0.
    9000005    1    3    3    0    0 -0.38778195641E+02 -0.20835361785E+02  0.27618552979E+03  0.27967357334E+03  0.10000000000E+01 0.  0.
<mgrwt>
<rscale>  0 0.12499758E+03</rscale>
<asrwt>0</asrwt>
<pdfrwt beam="2">  1        4 0.31387376E-03 0.12499758E+03</pdfrwt>
<pdfrwt beam="1">  1       -4 0.29455169E+00 0.12499758E+03</pdfrwt>
<totfact> 0.10989540E+03</totfact>
</mgrwt>
</event>
<event>
 5    1  0.3321169E-002  0.1250223E+03  0.7818608E-02  0.1235034E+00
         -4   -1    0    0    0  501 -0.00000000000E+00  0.00000000000E+00  0.11505814642E+03  0.11506515527E+03  0.12700000000E+01 0. -1.
          4   -1    0    0  501    0  0.00000000000E+00 -0.00000000000E+00 -0.33942422410E+02  0.33966173453E+02  0.12700000000E+01 0. -1.
         25    2    1    2    0    0  0.00000000000E+00  0.00000000000E+00  0.81115724007E+02  0.14903132872E+03  0.12502230305E+03 0.  0.
    9000005    1    3    3    0    0 -0.18087841457E+02 -0.59030492145E+02  0.52168767634E+02  0.80835322279E+02  0.10000000000E+01 0.  0.
    9000005    1    3    3    0    0  0.18087841457E+02  0.59030492145E+02  0.28946956373E+02  0.68196006442E+02  0.10000000000E+01 0.  0.
<mgrwt>
<rscale>  0 0.12502230E+03</rscale>
<asrwt>0</asrwt>
<pdfrwt beam="2">  1        4 0.52242773E-02 0.12502230E+03</pdfrwt>
<pdfrwt beam="1">  1       -4 0.17703619E-01 0.12502230E+03</pdfrwt>
<totfact> 0.99447208E+03</totfact>
</mgrwt>
</event>
<event>
 5    1  0.3321169E-002  0.1250130E+03  0.7818608E-02  0.1235049E+00
         -4   -1    0    0    0  501 -0.00000000000E+00  0.00000000000E+00  0.64561589125E+01  0.65798850981E+01  0.12700000000E+01 0. -1.
          4   -1    0    0  501    0  0.00000000000E+00 -0.00000000000E+00 -0.59929986746E+03  0.59930121312E+03  0.12700000000E+01 0. -1.
         25    2    1    2    0    0  0.00000000000E+00  0.00000000000E+00 -0.59284370855E+03  0.60588109821E+03  0.12501296894E+03 0.  0.
    9000005    1    3    3    0    0  0.45934970553E+02  0.41643354638E+02 -0.33454359549E+03  0.34024198416E+03  0.10000000000E+01 0.  0.
    9000005    1    3    3    0    0 -0.45934970553E+02 -0.41643354638E+02 -0.25830011307E+03  0.26563911405E+03  0.10000000000E+01 0.  0.
<mgrwt>
<rscale>  0 0.12501297E+03</rscale>
<asrwt>0</asrwt>
<pdfrwt beam="2">  1        4 0.92209557E-01 0.12501297E+03</pdfrwt>
<pdfrwt beam="1">  1       -4 0.10028766E-02 0.12501297E+03</pdfrwt>
<totfact> 0.48484700E+03</totfact>
</mgrwt>
</event>
<event>
 5    1  0.3321169E-002  0.1250040E+03  0.7818608E-02  0.1235063E+00
         -4   -1    0    0    0  501 -0.00000000000E+00  0.00000000000E+00  0.13625756958E+02  0.13684814675E+02  0.12700000000E+01 0. -1.
          4   -1    0    0  501    0  0.00000000000E+00 -0.00000000000E+00 -0.28601908453E+03  0.28602190408E+03  0.12700000000E+01 0. -1.
         25    2    1    2    0    0  0.00000000000E+00  0.00000000000E+00 -0.27239332757E+03  0.29970671876E+03  0.12500396939E+03 0.  0.
    9000005    1    3    3    0    0 -0.65473546145E+01 -0.45450385680E+02 -0.23782942967E+03  0.24222395222E+03  0.10000000000E+01 0.  0.
    9000005    1    3    3    0    0  0.65473546145E+01  0.45450385680E+02 -0.34563897901E+02  0.57482766539E+02  0.10000000000E+01 0.  0.
<mgrwt>
<rscale>  0 0.12500397E+03</rscale>
<asrwt>0</asrwt>
<pdfrwt beam="2">  1        4 0.44007691E-01 0.12500397E+03</pdfrwt>
<pdfrwt beam="1">  1       -4 0.21010303E-02 0.12500397E+03</pdfrwt>
<totfact> 0.75628980E+03</totfact>
</mgrwt>
</event>
<event>
 5    1  0.3321169E-002  0.1249952E+03  0.7818608E-02  0.1235077E+00
         -4   -1    0    0    0  501 -0.00000000000E+00  0.00000000000E+00  0.23650513782E+02  0.23684587861E+02  0.12700000000E+01 0.  1.
          4   -1    0    0  501    0  0.00000000000E+00 -0.00000000000E+00 -0.16499743681E+03  0.16500232439E+03  0.12700000000E+01 0.  1.
         25    2    1    2    0    0  0.00000000000E+00  0.00000000000E+00 -0.14134692303E+03  0.18868691225E+03  0.12499519273E+03 0.  0.
    9000005    1    3    3    0    0  0.33190268357E+02  0.19799508082E+02  0.34536798897E+01  0.38814202796E+02  0.10000000000E+01 0.  0.
    9000005    1    3    3    0    0 -0.33190268357E+02 -0.19799508082E+02 -0.14480060292E+03  0.14987270946E+03  0.10000000000E+01 0.  0.
<mgrwt>
<rscale>  0 0.12499519E+03</rscale>
<asrwt>0</asrwt>
<pdfrwt beam="2">  1        4 0.25387217E-01 0.12499519E+03</pdfrwt>
<pdfrwt beam="1">  1       -4 0.36415377E-02 0.12499519E+03</pdfrwt>
<totfact> 0.92086208E+03</totfact>
</mgrwt>
</event>
<event>
 5    1  0.3321169E-002  0.1249971E+03  0.7818608E-02  0.1235074E+00
          4   -1    0    0  501    0  0.00000000000E+00  0.00000000000E+00  0.51394050327E+02  0.51409739437E+02  0.12700000000E+01 0.  1.
         -4   -1    0    0    0  501 -0.00000000000E+00 -0.00000000000E+00 -0.75969698299E+02  0.75980312974E+02  0.12700000000E+01 0.  1.
         25    2    1    2    0    0  0.00000000000E+00  0.00000000000E+00 -0.24575647972E+02  0.12739005241E+03  0.12499705189E+03 0.  0.
    9000005    1    3    3    0    0  0.79304405456E+01 -0.28014330688E+02 -0.68639887871E+02  0.74566271317E+02  0.10000000000E+01 0.  0.
    9000005    1    3    3    0    0 -0.79304405456E+01  0.28014330688E+02  0.44064239900E+02  0.52823781094E+02  0.10000000000E+01 0.  0.
<mgrwt>
<rscale>  0 0.12499705E+03</rscale>
<asrwt>0</asrwt>
<pdfrwt beam="1">  1        4 0.79088003E-02 0.12499705E+03</pdfrwt>
<pdfrwt beam="2">  1       -4 0.11689669E-01 0.12499705E+03</pdfrwt>
<totfact> 0.10401375E+04</totfact>
</mgrwt>
</event>
<event>
 5    1  0.3321169E-002  0.1250021E+03  0.7818608E-02  0.1235066E+00
          4   -1    0    0  501    0  0.00000000000E+00  0.00000000000E+00  0.86364258826E+01  0.87293042120E+01  0.12700000000E+01 0. -1.
         -4   -1    0    0    0  501 -0.00000000000E+00 -0.00000000000E+00 -0.44980143403E+03  0.44980322693E+03  0.12700000000E+01 0. -1.
         25    2    1    2    0    0  0.00000000000E+00  0.00000000000E+00 -0.44116500815E+03  0.45853253114E+03  0.12500207079E+03 0.  0.
    9000005    1    3    3    0    0 -0.20321300573E+02  0.16270100139E+02 -0.12181376212E+02  0.28758604659E+02  0.10000000000E+01 0.  0.
    9000005    1    3    3    0    0  0.20321300573E+02 -0.16270100139E+02 -0.42898363193E+03  0.42977392648E+03  0.10000000000E+01 0.  0.
<mgrwt>
<rscale>  0 0.12500207E+03</rscale>
<asrwt>0</asrwt>
<pdfrwt beam="1">  1        4 0.13359637E-02 0.12500207E+03</pdfrwt>
<pdfrwt beam="2">  1       -4 0.69207485E-01 0.12500207E+03</pdfrwt>
<totfact> 0.59228992E+03</totfact>
</mgrwt>
</event>
<event>
 5    1  0.3321169E-002  0.1250022E+03  0.7818608E-02  0.1235066E+00
          4   -1    0    0  501    0  0.00000000000E+00  0.00000000000E+00  0.28902550616E+02  0.28930439542E+02  0.12700000000E+01 0. -1.
         -4   -1    0    0    0  501 -0.00000000000E+00 -0.00000000000E+00 -0.13506107314E+03  0.13506704401E+03  0.12700000000E+01 0. -1.
         25    2    1    2    0    0  0.00000000000E+00  0.00000000000E+00 -0.10615852253E+03  0.16399748355E+03  0.12500217081E+03 0.  0.
    9000005    1    3    3    0    0 -0.51312939963E+02 -0.29124472442E+02 -0.26060175619E+02  0.64508801384E+02  0.10000000000E+01 0.  0.
    9000005    1    3    3    0    0  0.51312939963E+02  0.29124472442E+02 -0.80098346907E+02  0.99488682170E+02  0.10000000000E+01 0.  0.
<mgrwt>
<rscale>  0 0.12500217E+03</rscale>
<asrwt>0</asrwt>
<pdfrwt beam="1">  1        4 0.44491509E-02 0.12500217E+03</pdfrwt>
<pdfrwt beam="2">  1       -4 0.20781231E-01 0.12500217E+03</pdfrwt>
<totfact> 0.96572880E+03</totfact>
</mgrwt>
</event>
<event>
 5    1  0.3321169E-002  0.1249967E+03  0.7818608E-02  0.1235074E+00
         -4   -1    0    0    0  501 -0.00000000000E+00  0.00000000000E+00  0.60075227422E+02  0.60088649925E+02  0.12700000000E+01 0. -1.
          4   -1    0    0  501    0  0.00000000000E+00 -0.00000000000E+00 -0.64992351478E+02  0.65004758677E+02  0.12700000000E+01 0. -1.
         25    2    1    2    0    0  0.00000000000E+00  0.00000000000E+00 -0.49171240560E+01  0.12509340860E+03  0.12499673102E+03 0.  0.
    9000005    1    3    3    0    0  0.87720621852E+01 -0.54494257278E+02 -0.31780925667E+02  0.63699296601E+02  0.10000000000E+01 0.  0.
    9000005    1    3    3    0    0 -0.87720621852E+01  0.54494257278E+02  0.26863801611E+02  0.61394112000E+02  0.10000000000E+01 0.  0.
<mgrwt>
<rscale>  0 0.12499673E+03</rscale>
<asrwt>0</asrwt>
<pdfrwt beam="2">  1        4 0.10000810E-01 0.12499673E+03</pdfrwt>
<pdfrwt beam="1">  1       -4 0.92443296E-02 0.12499673E+03</pdfrwt>
<totfact> 0.10451606E+04</totfact>
</mgrwt>
</event>
<event>
 5    1  0.3321169E-002  0.1249997E+03  0.7818608E-02  0.1235070E+00
         -4   -1    0    0    0  501 -0.00000000000E+00  0.00000000000E+00  0.14657224958E+03  0.14657775154E+03  0.12700000000E+01 0.  1.
          4   -1    0    0  501    0  0.00000000000E+00 -0.00000000000E+00 -0.26629402584E+02  0.26659669578E+02  0.12700000000E+01 0.  1.
         25    2    1    2    0    0  0.00000000000E+00  0.00000000000E+00  0.11994284700E+03  0.17323742112E+03  0.12499967012E+03 0.  0.
    9000005    1    3    3    0    0 -0.16571514357E+02  0.27593463176E+02  0.13420739491E+03  0.13801680748E+03  0.10000000000E+01 0.  0.
    9000005    1    3    3    0    0  0.16571514357E+02 -0.27593463176E+02 -0.14264547913E+02  0.35220613641E+02  0.10000000000E+01 0.  0.
<mgrwt>
<rscale>  0 0.12499967E+03</rscale>
<asrwt>0</asrwt>
<pdfrwt beam="2">  1        4 0.40995828E-02 0.12499967E+03</pdfrwt>
<pdfrwt beam="1">  1       -4 0.22552328E-01 0.12499967E+03</pdfrwt>
<totfact> 0.94849350E+03</totfact>
</mgrwt>
</event>
<event>
 5    1  0.3321169E-002  0.1250023E+03  0.7818608E-02  0.1235066E+00
          4   -1    0    0  501    0  0.00000000000E+00  0.00000000000E+00  0.15506424475E+03  0.15506944541E+03  0.12700000000E+01 0.  1.
         -4   -1    0    0    0  501 -0.00000000000E+00 -0.00000000000E+00 -0.25170479244E+02  0.25202498395E+02  0.12700000000E+01 0.  1.
         25    2    1    2    0    0  0.00000000000E+00  0.00000000000E+00  0.12989376550E+03  0.18027194380E+03  0.12500233360E+03 0.  0.
    9000005    1    3    3    0    0  0.53159622659E+02  0.12006000821E+02  0.20841971342E+02  0.58356467563E+02  0.10000000000E+01 0.  0.
    9000005    1    3    3    0    0 -0.53159622659E+02 -0.12006000821E+02  0.10905179416E+03  0.12191547624E+03  0.10000000000E+01 0.  0.
<mgrwt>
<rscale>  0 0.12500233E+03</rscale>
<asrwt>0</asrwt>
<pdfrwt beam="1">  1        4 0.23858901E-01 0.12500233E+03</pdfrwt>
<pdfrwt beam="2">  1       -4 0.38752444E-02 0.12500233E+03</pdfrwt>
<totfact> 0.93563179E+03</totfact>
</mgrwt>
</event>
<event>
 5    1  0.3321169E-002  0.1250112E+03  0.7818608E-02  0.1235052E+00
         -4   -1    0    0    0  501 -0.00000000000E+00  0.00000000000E+00  0.12414418881E+03  0.12415068472E+03  0.12700000000E+01 0.  1.
          4   -1    0    0  501    0  0.00000000000E+00 -0.00000000000E+00 -0.31450921643E+02  0.31476552737E+02  0.12700000000E+01 0.  1.
         25    2    1    2    0    0  0.00000000000E+00  0.00000000000E+00  0.92693267171E+02  0.15562723746E+03  0.12501118054E+03 0.  0.
    9000005    1    3    3    0    0 -0.56461899953E+02  0.12798987390E+02  0.17040026482E+02  0.60358286317E+02  0.10000000000E+01 0.  0.
    9000005    1    3    3    0    0  0.56461899953E+02 -0.12798987390E+02  0.75653240689E+02  0.95268951140E+02  0.10000000000E+01 0.  0.
<mgrwt>
<rscale>  0 0.12501118E+03</rscale>
<asrwt>0</asrwt>
<pdfrwt beam="2">  1        4 0.48410747E-02 0.12501118E+03</pdfrwt>
<pdfrwt beam="1">  1       -4 0.19101577E-01 0.12501118E+03</pdfrwt>
<totfact> 0.98167821E+03</totfact>
</mgrwt>
</event>
<event>
 5    1  0.3321169E-002  0.1250002E+03  0.7818608E-02  0.1235069E+00
         -4   -1    0    0    0  501 -0.00000000000E+00  0.00000000000E+00  0.89893775917E+01  0.90786457958E+01  0.12700000000E+01 0.  1.
          4   -1    0    0  501    0  0.00000000000E+00 -0.00000000000E+00 -0.43230497830E+03  0.43230684376E+03  0.12700000000E+01 0.  1.
         25    2    1    2    0    0  0.00000000000E+00  0.00000000000E+00 -0.42331560070E+03  0.44138548955E+03  0.12500021035E+03 0.  0.
    9000005    1    3    3    0    0 -0.24344586035E+02 -0.17245345417E+02 -0.40555232200E+03  0.40664941496E+03  0.10000000000E+01 0.  0.
    9000005    1    3    3    0    0  0.24344586035E+02  0.17245345417E+02 -0.17763278703E+02  0.34736074592E+02  0.10000000000E+01 0.  0.
<mgrwt>
<rscale>  0 0.12500021E+03</rscale>
<asrwt>0</asrwt>
<pdfrwt beam="2">  1        4 0.66515452E-01 0.12500021E+03</pdfrwt>
<pdfrwt beam="1">  1       -4 0.13899918E-02 0.12500021E+03</pdfrwt>
<totfact> 0.60717078E+03</totfact>
</mgrwt>
</event>
<event>
 5    1  0.3321169E-002  0.1249994E+03  0.7818608E-02  0.1235070E+00
         -4   -1    0    0    0  501 -0.00000000000E+00  0.00000000000E+00  0.66584614652E+01  0.67784960783E+01  0.12700000000E+01 0.  1.
          4   -1    0    0  501    0  0.00000000000E+00 -0.00000000000E+00 -0.58129252342E+03  0.58129391076E+03  0.12700000000E+01 0.  1.
         25    2    1    2    0    0  0.00000000000E+00  0.00000000000E+00 -0.57463406196E+03  0.58807240684E+03  0.12499940209E+03 0.  0.
    9000005    1    3    3    0    0  0.74178270955E+01  0.49914212669E+02 -0.11389901290E+03  0.12458104963E+03  0.10000000000E+01 0.  0.
    9000005    1    3    3    0    0 -0.74178270955E+01 -0.49914212669E+02 -0.46073504905E+03  0.46349135721E+03  0.10000000000E+01 0.  0.
<mgrwt>
<rscale>  0 0.12499940E+03</rscale>
<asrwt>0</asrwt>
<pdfrwt beam="2">  1        4 0.89438919E-01 0.12499940E+03</pdfrwt>
<pdfrwt beam="1">  1       -4 0.10337193E-02 0.12499940E+03</pdfrwt>
<totfact> 0.49629942E+03</totfact>
</mgrwt>
</event>
<event>
 5    1  0.3321169E-002  0.1249917E+03  0.7818608E-02  0.1235082E+00
          4   -1    0    0  501    0  0.00000000000E+00  0.00000000000E+00  0.77777907117E+03  0.77778010803E+03  0.12700000000E+01 0. -1.
         -4   -1    0    0    0  501 -0.00000000000E+00 -0.00000000000E+00 -0.49402883803E+01  0.51009165137E+01  0.12700000000E+01 0. -1.
         25    2    1    2    0    0  0.00000000000E+00  0.00000000000E+00  0.77283878279E+03  0.78288102455E+03  0.12499165736E+03 0.  0.
    9000005    1    3    3    0    0  0.51131337204E+02 -0.27846673969E+02  0.24429560010E+03  0.25113978403E+03  0.10000000000E+01 0.  0.
    9000005    1    3    3    0    0 -0.51131337204E+02  0.27846673969E+02  0.52854318269E+03  0.53174124051E+03  0.10000000000E+01 0.  0.
<mgrwt>
<rscale>  0 0.12499166E+03</rscale>
<asrwt>0</asrwt>
<pdfrwt beam="1">  1        4 0.11967074E+00 0.12499166E+03</pdfrwt>
<pdfrwt beam="2">  1       -4 0.77248023E-03 0.12499166E+03</pdfrwt>
<totfact> 0.39047603E+03</totfact>
</mgrwt>
</event>
<event>
 5    1  0.3321169E-002  0.1249982E+03  0.7818608E-02  0.1235072E+00
         -4   -1    0    0    0  501 -0.00000000000E+00  0.00000000000E+00  0.11548453497E+02  0.11618075494E+02  0.12700000000E+01 0.  1.
          4   -1    0    0  501    0  0.00000000000E+00 -0.00000000000E+00 -0.33715189996E+03  0.33715429190E+03  0.12700000000E+01 0.  1.
         25    2    1    2    0    0  0.00000000000E+00  0.00000000000E+00 -0.32560344647E+03  0.34877236740E+03  0.12499823962E+03 0.  0.
    9000005    1    3    3    0    0 -0.46756445278E+02 -0.35363268560E+02 -0.22319006774E+03  0.23076293523E+03  0.10000000000E+01 0.  0.
    9000005    1    3    3    0    0  0.46756445278E+02  0.35363268560E+02 -0.10241337873E+03  0.11800943217E+03  0.10000000000E+01 0.  0.
<mgrwt>
<rscale>  0 0.12499824E+03</rscale>
<asrwt>0</asrwt>
<pdfrwt beam="2">  1        4 0.51875055E-01 0.12499824E+03</pdfrwt>
<pdfrwt beam="1">  1       -4 0.17822249E-02 0.12499824E+03</pdfrwt>
<totfact> 0.69862547E+03</totfact>
</mgrwt>
</event>
<event>
 5    1  0.3321169E-002  0.1250054E+03  0.7818608E-02  0.1235061E+00
         -4   -1    0    0    0  501 -0.00000000000E+00  0.00000000000E+00  0.14006676379E+04  0.14006682137E+04  0.12700000000E+01 0.  1.
          4   -1    0    0  501    0  0.00000000000E+00 -0.00000000000E+00 -0.26439124672E+01  0.29331166247E+01  0.12700000000E+01 0.  1.
         25    2    1    2    0    0  0.00000000000E+00  0.00000000000E+00  0.13980237254E+04  0.14036013303E+04  0.12500542991E+03 0.  0.
    9000005    1    3    3    0    0  0.62191106163E+02  0.61356344916E+01  0.70415340940E+03  0.70692178045E+03  0.10000000000E+01 0.  0.
    9000005    1    3    3    0    0 -0.62191106163E+02 -0.61356344916E+01  0.69387031604E+03  0.69667954985E+03  0.10000000000E+01 0.  0.
<mgrwt>
<rscale>  0 0.12500543E+03</rscale>
<asrwt>0</asrwt>
<pdfrwt beam="2">  1        4 0.42904682E-03 0.12500543E+03</pdfrwt>
<pdfrwt beam="1">  1       -4 0.21550947E+00 0.12500543E+03</pdfrwt>
<totfact> 0.19901434E+03</totfact>
</mgrwt>
</event>
<event>
 5    1  0.3321169E-002  0.1249933E+03  0.7818608E-02  0.1235080E+00
          4   -1    0    0  501    0  0.00000000000E+00  0.00000000000E+00  0.12408474847E+03  0.12409124749E+03  0.12700000000E+01 0. -1.
         -4   -1    0    0    0  501 -0.00000000000E+00 -0.00000000000E+00 -0.31456991339E+02  0.31482617492E+02  0.12700000000E+01 0. -1.
         25    2    1    2    0    0  0.00000000000E+00  0.00000000000E+00  0.92627757129E+02  0.15557386498E+03  0.12499330411E+03 0.  0.
    9000005    1    3    3    0    0  0.46654708768E+02 -0.14375652148E+02  0.94863666817E+02  0.10669318866E+03  0.10000000000E+01 0.  0.
    9000005    1    3    3    0    0 -0.46654708768E+02  0.14375652148E+02 -0.22359096884E+01  0.48880676315E+02  0.10000000000E+01 0.  0.
<mgrwt>
<rscale>  0 0.12499330E+03</rscale>
<asrwt>0</asrwt>
<pdfrwt beam="1">  1        4 0.19092433E-01 0.12499330E+03</pdfrwt>
<pdfrwt beam="2">  1       -4 0.48420082E-02 0.12499330E+03</pdfrwt>
<totfact> 0.98217748E+03</totfact>
</mgrwt>
</event>
<event>
 5    1  0.3321169E-002  0.1249994E+03  0.7818608E-02  0.1235070E+00
         -4   -1    0    0    0  501 -0.00000000000E+00  0.00000000000E+00  0.83668517163E+03  0.83668613549E+03  0.12700000000E+01 0.  1.
          4   -1    0    0  501    0  0.00000000000E+00 -0.00000000000E+00 -0.45813260209E+01  0.47540980333E+01  0.12700000000E+01 0.  1.
         25    2    1    2    0    0  0.00000000000E+00  0.00000000000E+00  0.83210384561E+03  0.84144023352E+03  0.12499942687E+03 0.  0.
    9000005    1    3    3    0    0  0.60289379340E+02  0.15605992225E+02  0.45093794732E+03  0.45521905561E+03  0.10000000000E+01 0.  0.
    9000005    1    3    3    0    0 -0.60289379340E+02 -0.15605992225E+02  0.38116589829E+03  0.38622117792E+03  0.10000000000E+01 0.  0.
<mgrwt>
<rscale>  0 0.12499943E+03</rscale>
<asrwt>0</asrwt>
<pdfrwt beam="2">  1        4 0.71818453E-03 0.12499943E+03</pdfrwt>
<pdfrwt beam="1">  1       -4 0.12873401E+00 0.12499943E+03</pdfrwt>
<totfact> 0.36480677E+03</totfact>
</mgrwt>
</event>
<event>
 5    1  0.3321169E-002  0.1249913E+03  0.7818608E-02  0.1235083E+00
          4   -1    0    0  501    0  0.00000000000E+00  0.00000000000E+00  0.21059431147E+03  0.21059814083E+03  0.12700000000E+01 0.  1.
         -4   -1    0    0    0  501 -0.00000000000E+00 -0.00000000000E+00 -0.18520375502E+02  0.18563868367E+02  0.12700000000E+01 0.  1.
         25    2    1    2    0    0  0.00000000000E+00  0.00000000000E+00  0.19207393596E+03  0.22916200920E+03  0.12499131803E+03 0.  0.
    9000005    1    3    3    0    0 -0.51214372207E+02 -0.35036016536E+02  0.10954383953E+03  0.12590189496E+03  0.10000000000E+01 0.  0.
    9000005    1    3    3    0    0  0.51214372207E+02  0.35036016536E+02  0.82530096429E+02  0.10326011424E+03  0.10000000000E+01 0.  0.
<mgrwt>
<rscale>  0 0.12499132E+03</rscale>
<asrwt>0</asrwt>
<pdfrwt beam="1">  1        4 0.32402762E-01 0.12499132E+03</pdfrwt>
<pdfrwt beam="2">  1       -4 0.28529290E-02 0.12499132E+03</pdfrwt>
<totfact> 0.85454993E+03</totfact>
</mgrwt>
</event>
<event>
 5    1  0.3321169E-002  0.1249870E+03  0.7818608E-02  0.1235090E+00
          4   -1    0    0  501    0  0.00000000000E+00  0.00000000000E+00  0.20816874805E+03  0.20817262203E+03  0.12700000000E+01 0. -1.
         -4   -1    0    0    0  501 -0.00000000000E+00 -0.00000000000E+00 -0.18735380247E+02  0.18778375143E+02  0.12700000000E+01 0. -1.
         25    2    1    2    0    0  0.00000000000E+00  0.00000000000E+00  0.18943336780E+03  0.22695099717E+03  0.12498701646E+03 0.  0.
    9000005    1    3    3    0    0  0.57277134020E+02  0.85306408629E+01  0.52093913419E+02  0.77898765911E+02  0.10000000000E+01 0.  0.
    9000005    1    3    3    0    0 -0.57277134020E+02 -0.85306408629E+01  0.13733945438E+03  0.14905223126E+03  0.10000000000E+01 0.  0.
<mgrwt>
<rscale>  0 0.12498702E+03</rscale>
<asrwt>0</asrwt>
<pdfrwt beam="1">  1        4 0.32029567E-01 0.12498702E+03</pdfrwt>
<pdfrwt beam="2">  1       -4 0.28859715E-02 0.12498702E+03</pdfrwt>
<totfact> 0.85804843E+03</totfact>
</mgrwt>
</event>
<event>
 5    1  0.3321169E-002  0.1250042E+03  0.7818608E-02  0.1235063E+00
          4   -1    0    0  501    0  0.00000000000E+00  0.00000000000E+00  0.16591839225E+04  0.16591844086E+04  0.12700000000E+01 0.  1.
         -4   -1    0    0    0  501 -0.00000000000E+00 -0.00000000000E+00 -0.21826965273E+01  0.25252849602E+01  0.12700000000E+01 0.  1.
         25    2    1    2    0    0  0.00000000000E+00  0.00000000000E+00  0.16570012260E+04  0.16617096935E+04  0.12500417048E+03 0.  0.
    9000005    1    3    3    0    0 -0.42324409779E+02 -0.45431620229E+02  0.73438782080E+03  0.73700872391E+03  0.10000000000E+01 0.  0.
    9000005    1    3    3    0    0  0.42324409779E+02  0.45431620229E+02  0.92261340519E+03  0.92470096962E+03  0.10000000000E+01 0.  0.
<mgrwt>
<rscale>  0 0.12500417E+03</rscale>
<asrwt>0</asrwt>
<pdfrwt beam="1">  1        4 0.25528568E+00 0.12500417E+03</pdfrwt>
<pdfrwt beam="2">  1       -4 0.36218949E-03 0.12500417E+03</pdfrwt>
<totfact> 0.14955464E+03</totfact>
</mgrwt>
</event>
<event>
 5    1  0.3321169E-002  0.1250003E+03  0.7818608E-02  0.1235069E+00
         -4   -1    0    0    0  501 -0.00000000000E+00  0.00000000000E+00  0.23253475339E+02  0.23288130353E+02  0.12700000000E+01 0.  1.
          4   -1    0    0  501    0  0.00000000000E+00 -0.00000000000E+00 -0.16782425463E+03  0.16782905988E+03  0.12700000000E+01 0.  1.
         25    2    1    2    0    0  0.00000000000E+00  0.00000000000E+00 -0.14457077929E+03  0.19111719024E+03  0.12500028072E+03 0.  0.
    9000005    1    3    3    0    0  0.21363016915E+01  0.37509037483E+02 -0.14863687186E+03  0.15331474605E+03  0.10000000000E+01 0.  0.
    9000005    1    3    3    0    0 -0.21363016915E+01 -0.37509037483E+02  0.40660925769E+01  0.37802444189E+02  0.10000000000E+01 0.  0.
<mgrwt>
<rscale>  0 0.12500028E+03</rscale>
<asrwt>0</asrwt>
<pdfrwt beam="2">  1        4 0.25822151E-01 0.12500028E+03</pdfrwt>
<pdfrwt beam="1">  1       -4 0.35804933E-02 0.12500028E+03</pdfrwt>
<totfact> 0.91652714E+03</totfact>
</mgrwt>
</event>
<event>
 5    1  0.3321169E-002  0.1249996E+03  0.7818608E-02  0.1235070E+00
          4   -1    0    0  501    0  0.00000000000E+00  0.00000000000E+00  0.22711632641E+03  0.22711987721E+03  0.12700000000E+01 0. -1.
         -4   -1    0    0    0  501 -0.00000000000E+00 -0.00000000000E+00 -0.17172095324E+02  0.17218994100E+02  0.12700000000E+01 0. -1.
         25    2    1    2    0    0  0.00000000000E+00  0.00000000000E+00  0.20994423109E+03  0.24433887131E+03  0.12499961546E+03 0.  0.
    9000005    1    3    3    0    0  0.23065669642E+02  0.32480781008E+02  0.10857015010E+02  0.41302554714E+02  0.10000000000E+01 0.  0.
    9000005    1    3    3    0    0 -0.23065669642E+02 -0.32480781008E+02  0.19908721608E+03  0.20303631660E+03  0.10000000000E+01 0.  0.
<mgrwt>
<rscale>  0 0.12499962E+03</rscale>
<asrwt>0</asrwt>
<pdfrwt beam="1">  1        4 0.34944850E-01 0.12499962E+03</pdfrwt>
<pdfrwt beam="2">  1       -4 0.26457418E-02 0.12499962E+03</pdfrwt>
<totfact> 0.83156099E+03</totfact>
</mgrwt>
</event>
<event>
 5    1  0.3321169E-002  0.1249982E+03  0.7818608E-02  0.1235072E+00
          4   -1    0    0  501    0  0.00000000000E+00  0.00000000000E+00  0.17047939824E+03  0.17048412865E+03  0.12700000000E+01 0.  1.
         -4   -1    0    0    0  501 -0.00000000000E+00 -0.00000000000E+00 -0.22890003540E+02  0.22925208005E+02  0.12700000000E+01 0.  1.
         25    2    1    2    0    0  0.00000000000E+00  0.00000000000E+00  0.14758939470E+03  0.19340933666E+03  0.12499816831E+03 0.  0.
    9000005    1    3    3    0    0  0.37093520718E+02  0.39614904127E+02  0.25856797599E+02  0.60123571836E+02  0.10000000000E+01 0.  0.
    9000005    1    3    3    0    0 -0.37093520718E+02 -0.39614904127E+02  0.12173259710E+03  0.13328576482E+03  0.10000000000E+01 0.  0.
<mgrwt>
<rscale>  0 0.12499817E+03</rscale>
<asrwt>0</asrwt>
<pdfrwt beam="1">  1        4 0.26230671E-01 0.12499817E+03</pdfrwt>
<pdfrwt beam="2">  1       -4 0.35246110E-02 0.12499817E+03</pdfrwt>
<totfact> 0.91261206E+03</totfact>
</mgrwt>
</event>
<event>
 5    1  0.3321169E-002  0.1250006E+03  0.7818608E-02  0.1235068E+00
          4   -1    0    0  501    0  0.00000000000E+00  0.00000000000E+00  0.51496624153E+01  0.53039535246E+01  0.12700000000E+01 0.  1.
         -4   -1    0    0    0  501 -0.00000000000E+00 -0.00000000000E+00 -0.74720162001E+03  0.74720269931E+03  0.12700000000E+01 0.  1.
         25    2    1    2    0    0  0.00000000000E+00  0.00000000000E+00 -0.74205195760E+03  0.75250665283E+03  0.12500061912E+03 0.  0.
    9000005    1    3    3    0    0  0.51736738878E+02  0.33628357063E+02 -0.43053967151E+03  0.43494018588E+03  0.10000000000E+01 0.  0.
    9000005    1    3    3    0    0 -0.51736738878E+02 -0.33628357063E+02 -0.31151228609E+03  0.31756646695E+03  0.10000000000E+01 0.  0.
<mgrwt>
<rscale>  0 0.12500062E+03</rscale>
<asrwt>0</asrwt>
<pdfrwt beam="1">  1        4 0.80420792E-03 0.12500062E+03</pdfrwt>
<pdfrwt beam="2">  1       -4 0.11496596E+00 0.12500062E+03</pdfrwt>
<totfact> 0.40454006E+03</totfact>
</mgrwt>
</event>
<event>
 5    1  0.3321169E-002  0.1249922E+03  0.7818608E-02  0.1235081E+00
          4   -1    0    0  501    0  0.00000000000E+00  0.00000000000E+00  0.45055523002E+02  0.45073418475E+02  0.12700000000E+01 0.  1.
         -4   -1    0    0    0  501 -0.00000000000E+00 -0.00000000000E+00 -0.86648024078E+02  0.86657330773E+02  0.12700000000E+01 0.  1.
         25    2    1    2    0    0  0.00000000000E+00  0.00000000000E+00 -0.41592501076E+02  0.13173074925E+03  0.12499221636E+03 0.  0.
    9000005    1    3    3    0    0 -0.46003491945E+02 -0.13382073443E+02 -0.63075874414E+02  0.79214689887E+02  0.10000000000E+01 0.  0.
    9000005    1    3    3    0    0  0.46003491945E+02  0.13382073443E+02  0.21483373338E+02  0.52516059361E+02  0.10000000000E+01 0.  0.
<mgrwt>
<rscale>  0 0.12499222E+03</rscale>
<asrwt>0</asrwt>
<pdfrwt beam="1">  1        4 0.69337114E-02 0.12499222E+03</pdfrwt>
<pdfrwt beam="2">  1       -4 0.13332558E-01 0.12499222E+03</pdfrwt>
<totfact> 0.10309259E+04</totfact>
</mgrwt>
</event>
<event>
 5    1  0.3321169E-002  0.1250008E+03  0.7818608E-02  0.1235068E+00
         -4   -1    0    0    0  501 -0.00000000000E+00  0.00000000000E+00  0.39796600989E+02  0.39816860125E+02  0.12700000000E+01 0. -1.
          4   -1    0    0  501    0  0.00000000000E+00 -0.00000000000E+00 -0.98107319546E+02  0.98115539281E+02  0.12700000000E+01 0. -1.
         25    2    1    2    0    0  0.00000000000E+00  0.00000000000E+00 -0.58310718557E+02  0.13793239941E+03  0.12500082763E+03 0.  0.
    9000005    1    3    3    0    0  0.50941351254E+02 -0.36189793224E+02 -0.29995234537E+02  0.69321255731E+02  0.10000000000E+01 0.  0.
    9000005    1    3    3    0    0 -0.50941351254E+02  0.36189793224E+02 -0.28315484021E+02  0.68611143676E+02  0.10000000000E+01 0.  0.
<mgrwt>
<rscale>  0 0.12500083E+03</rscale>
<asrwt>0</asrwt>
<pdfrwt beam="2">  1        4 0.15095624E-01 0.12500083E+03</pdfrwt>
<pdfrwt beam="1">  1       -4 0.61247447E-02 0.12500083E+03</pdfrwt>
<totfact> 0.10176429E+04</totfact>
</mgrwt>
</event>
<event>
 5    1  0.3321169E-002  0.1250004E+03  0.7818608E-02  0.1235069E+00
          4   -1    0    0  501    0  0.00000000000E+00  0.00000000000E+00  0.88648603958E+01  0.89553698884E+01  0.12700000000E+01 0.  1.
         -4   -1    0    0    0  501 -0.00000000000E+00 -0.00000000000E+00 -0.43831766866E+03  0.43831950853E+03  0.12700000000E+01 0.  1.
         25    2    1    2    0    0  0.00000000000E+00  0.00000000000E+00 -0.42945280826E+03  0.44727487842E+03  0.12500040936E+03 0.  0.
    9000005    1    3    3    0    0 -0.50955777732E+02  0.68329841856E+00 -0.85300970004E+02  0.99369078011E+02  0.10000000000E+01 0.  0.
    9000005    1    3    3    0    0  0.50955777732E+02 -0.68329841856E+00 -0.34415183826E+03  0.34790580040E+03  0.10000000000E+01 0.  0.
<mgrwt>
<rscale>  0 0.12500041E+03</rscale>
<asrwt>0</asrwt>
<pdfrwt beam="1">  1        4 0.13709288E-02 0.12500041E+03</pdfrwt>
<pdfrwt beam="2">  1       -4 0.67440575E-01 0.12500041E+03</pdfrwt>
<totfact> 0.60200065E+03</totfact>
</mgrwt>
</event>
<event>
 5    1  0.3321169E-002  0.1250001E+03  0.7818608E-02  0.1235069E+00
         -4   -1    0    0    0  501 -0.00000000000E+00  0.00000000000E+00  0.15839525102E+02  0.15890357311E+02  0.12700000000E+01 0.  1.
          4   -1    0    0  501    0  0.00000000000E+00 -0.00000000000E+00 -0.24616704475E+03  0.24617032075E+03  0.12700000000E+01 0.  1.
         25    2    1    2    0    0  0.00000000000E+00  0.00000000000E+00 -0.23032751964E+03  0.26206067806E+03  0.12500013072E+03 0.  0.
    9000005    1    3    3    0    0  0.62522101306E+01 -0.51815453005E+02 -0.18722080251E+03  0.19436193092E+03  0.10000000000E+01 0.  0.
    9000005    1    3    3    0    0 -0.62522101306E+01  0.51815453005E+02 -0.43106717139E+02  0.67698747139E+02  0.10000000000E+01 0.  0.
<mgrwt>
<rscale>  0 0.12500013E+03</rscale>
<asrwt>0</asrwt>
<pdfrwt beam="2">  1        4 0.37876012E-01 0.12500013E+03</pdfrwt>
<pdfrwt beam="1">  1       -4 0.24410124E-02 0.12500013E+03</pdfrwt>
<totfact> 0.80617508E+03</totfact>
</mgrwt>
</event>
<event>
 5    1  0.3321169E-002  0.1250073E+03  0.7818608E-02  0.1235058E+00
         -4   -1    0    0    0  501 -0.00000000000E+00  0.00000000000E+00  0.19791311713E+03  0.19791719186E+03  0.12700000000E+01 0.  1.
          4   -1    0    0  501    0  0.00000000000E+00 -0.00000000000E+00 -0.19714802141E+02  0.19755665604E+02  0.12700000000E+01 0.  1.
         25    2    1    2    0    0  0.00000000000E+00  0.00000000000E+00  0.17819831499E+03  0.21767285746E+03  0.12500733343E+03 0.  0.
    9000005    1    3    3    0    0 -0.45476250736E+02 -0.13391380231E+02  0.18190540335E+02  0.50786949142E+02  0.10000000000E+01 0.  0.
    9000005    1    3    3    0    0  0.45476250736E+02  0.13391380231E+02  0.16000777466E+03  0.16688590832E+03  0.10000000000E+01 0.  0.
<mgrwt>
<rscale>  0 0.12500733E+03</rscale>
<asrwt>0</asrwt>
<pdfrwt beam="2">  1        4 0.30365032E-02 0.12500733E+03</pdfrwt>
<pdfrwt beam="1">  1       -4 0.30451629E-01 0.12500733E+03</pdfrwt>
<totfact> 0.87223642E+03</totfact>
</mgrwt>
</event>
<event>
 5    1  0.3321169E-002  0.1250004E+03  0.7818608E-02  0.1235069E+00
         -4   -1    0    0    0  501 -0.00000000000E+00  0.00000000000E+00  0.18787216535E+03  0.18787645785E+03  0.12700000000E+01 0.  1.
          4   -1    0    0  501    0  0.00000000000E+00 -0.00000000000E+00 -0.20768270053E+02  0.20807064690E+02  0.12700000000E+01 0.  1.
         25    2    1    2    0    0  0.00000000000E+00  0.00000000000E+00  0.16710389530E+03  0.20868352254E+03  0.12500040302E+03 0.  0.
    9000005    1    3    3    0    0 -0.17845173377E+02 -0.32506095436E+02 -0.42350363195E+00  0.37098191448E+02  0.10000000000E+01 0.  0.
    9000005    1    3    3    0    0  0.17845173377E+02  0.32506095436E+02  0.16752739893E+03  0.17158533109E+03  0.10000000000E+01 0.  0.
<mgrwt>
<rscale>  0 0.12500040E+03</rscale>
<asrwt>0</asrwt>
<pdfrwt beam="2">  1        4 0.31984327E-02 0.12500040E+03</pdfrwt>
<pdfrwt beam="1">  1       -4 0.28906726E-01 0.12500040E+03</pdfrwt>
<totfact> 0.88690530E+03</totfact>
</mgrwt>
</event>
<event>
 5    1  0.3321169E-002  0.1250017E+03  0.7818608E-02  0.1235067E+00
         -4   -1    0    0    0  501 -0.00000000000E+00  0.00000000000E+00  0.24897591468E+03  0.24897915373E+03  0.12700000000E+01 0.  1.
          4   -1    0    0  501    0  0.00000000000E+00 -0.00000000000E+00 -0.15660647077E+02  0.15712058009E+02  0.12700000000E+01 0.  1.
         25    2    1    2    0    0  0.00000000000E+00  0.00000000000E+00  0.23331526761E+03  0.26469121174E+03  0.12500169388E+03 0.  0.
    9000005    1    3    3    0    0  0.59866369730E+02  0.17915142978E+02  0.11803204679E+03  0.13355709881E+03  0.10000000000E+01 0.  0.
    9000005    1    3    3    0    0 -0.59866369730E+02 -0.17915142978E+02  0.11528322081E+03  0.13113411293E+03  0.10000000000E+01 0.  0.
<mgrwt>
<rscale>  0 0.12500169E+03</rscale>
<asrwt>0</asrwt>
<pdfrwt beam="2">  1        4 0.24135341E-02 0.12500169E+03</pdfrwt>
<pdfrwt beam="1">  1       -4 0.38308192E-01 0.12500169E+03</pdfrwt>
<totfact> 0.80249163E+03</totfact>
</mgrwt>
</event>
<event>
 5    1  0.3321169E-002  0.1250101E+03  0.7818608E-02  0.1235053E+00
         -4   -1    0    0    0  501 -0.00000000000E+00  0.00000000000E+00  0.68099697591E+02  0.68111538758E+02  0.12700000000E+01 0.  1.
          4   -1    0    0  501    0  0.00000000000E+00 -0.00000000000E+00 -0.57346193545E+02  0.57360254655E+02  0.12700000000E+01 0.  1.
         25    2    1    2    0    0  0.00000000000E+00  0.00000000000E+00  0.10753504046E+02  0.12547179341E+03  0.12501013196E+03 0.  0.
    9000005    1    3    3    0    0  0.13903694983E+02  0.34626772419E+02  0.55697290034E+02  0.67048595955E+02  0.10000000000E+01 0.  0.
    9000005    1    3    3    0    0 -0.13903694983E+02 -0.34626772419E+02 -0.44943785988E+02  0.58423197459E+02  0.10000000000E+01 0.  0.
<mgrwt>
<rscale>  0 0.12501013E+03</rscale>
<asrwt>0</asrwt>
<pdfrwt beam="2">  1        4 0.88244838E-02 0.12501013E+03</pdfrwt>
<pdfrwt beam="1">  1       -4 0.10478869E-01 0.12501013E+03</pdfrwt>
<totfact> 0.10440192E+04</totfact>
</mgrwt>
</event>
<event>
 5    1  0.3321169E-002  0.1249983E+03  0.7818608E-02  0.1235072E+00
          4   -1    0    0  501    0  0.00000000000E+00  0.00000000000E+00  0.36879402284E+02  0.36901263025E+02  0.12700000000E+01 0.  1.
         -4   -1    0    0    0  501 -0.00000000000E+00 -0.00000000000E+00 -0.10585961375E+03  0.10586723158E+03  0.12700000000E+01 0.  1.
         25    2    1    2    0    0  0.00000000000E+00  0.00000000000E+00 -0.68980211461E+02  0.14276849460E+03  0.12499829390E+03 0.  0.
    9000005    1    3    3    0    0  0.38294130191E+02  0.42779782392E+02 -0.62666916530E+02  0.84998191840E+02  0.10000000000E+01 0.  0.
    9000005    1    3    3    0    0 -0.38294130191E+02 -0.42779782392E+02 -0.63132949308E+01  0.57770302765E+02  0.10000000000E+01 0.  0.
<mgrwt>
<rscale>  0 0.12499829E+03</rscale>
<asrwt>0</asrwt>
<pdfrwt beam="1">  1        4 0.56760218E-02 0.12499829E+03</pdfrwt>
<pdfrwt beam="2">  1       -4 0.16288362E-01 0.12499829E+03</pdfrwt>
<totfact> 0.10076913E+04</totfact>
</mgrwt>
</event>
<event>
 5    1  0.3321169E-002  0.1249614E+03  0.7818608E-02  0.1235130E+00
         -4   -1    0    0    0  501 -0.00000000000E+00  0.00000000000E+00  0.28269089982E+03  0.28269375257E+03  0.12700000000E+01 0.  1.
          4   -1    0    0  501    0  0.00000000000E+00 -0.00000000000E+00 -0.13777438650E+02  0.13835848935E+02  0.12700000000E+01 0.  1.
         25    2    1    2    0    0  0.00000000000E+00  0.00000000000E+00  0.26891346117E+03  0.29652960151E+03  0.12496141392E+03 0.  0.
    9000005    1    3    3    0    0  0.44324785328E+01 -0.20242179787E+02 -0.53964672555E+01  0.21436290895E+02  0.10000000000E+01 0.  0.
    9000005    1    3    3    0    0 -0.44324785328E+01  0.20242179787E+02  0.27430992843E+03  0.27509331061E+03  0.10000000000E+01 0.  0.
<mgrwt>
<rscale>  0 0.12496141E+03</rscale>
<asrwt>0</asrwt>
<pdfrwt beam="2">  1        4 0.21243187E-02 0.12496141E+03</pdfrwt>
<pdfrwt beam="1">  1       -4 0.43495616E-01 0.12496141E+03</pdfrwt>
<totfact> 0.76101416E+03</totfact>
</mgrwt>
</event>
<event>
 5    1  0.3321169E-002  0.1250012E+03  0.7818608E-02  0.1235067E+00
         -4   -1    0    0    0  501 -0.00000000000E+00  0.00000000000E+00  0.76837682436E+01  0.77880160774E+01  0.12700000000E+01 0. -1.
          4   -1    0    0  501    0  0.00000000000E+00 -0.00000000000E+00 -0.50485596171E+03  0.50485755910E+03  0.12700000000E+01 0. -1.
         25    2    1    2    0    0  0.00000000000E+00  0.00000000000E+00 -0.49717219347E+03  0.51264557518E+03  0.12500118314E+03 0.  0.
    9000005    1    3    3    0    0  0.11415285264E+01 -0.34016479526E+02 -0.46352969387E+03  0.46477865814E+03  0.10000000000E+01 0.  0.
    9000005    1    3    3    0    0 -0.11415285264E+01  0.34016479526E+02 -0.33642499600E+02  0.47866917031E+02  0.10000000000E+01 0.  0.
<mgrwt>
<rscale>  0 0.12500118E+03</rscale>
<asrwt>0</asrwt>
<pdfrwt beam="2">  1        4 0.77678264E-01 0.12500118E+03</pdfrwt>
<pdfrwt beam="1">  1       -4 0.11902605E-02 0.12500118E+03</pdfrwt>
<totfact> 0.54894986E+03</totfact>
</mgrwt>
</event>
<event>
 5    1  0.3321169E-002  0.1250250E+03  0.7818608E-02  0.1235030E+00
          4   -1    0    0  501    0  0.00000000000E+00  0.00000000000E+00  0.22191824637E+03  0.22192188033E+03  0.12700000000E+01 0. -1.
         -4   -1    0    0    0  501 -0.00000000000E+00 -0.00000000000E+00 -0.17582560550E+02  0.17628367352E+02  0.12700000000E+01 0. -1.
         25    2    1    2    0    0  0.00000000000E+00  0.00000000000E+00  0.20433568581E+03  0.23955024768E+03  0.12502499217E+03 0.  0.
    9000005    1    3    3    0    0  0.35063532666E+02  0.48837123945E+02  0.13492538816E+03  0.14771721758E+03  0.10000000000E+01 0.  0.
    9000005    1    3    3    0    0 -0.35063532666E+02 -0.48837123945E+02  0.69410297654E+02  0.91833030107E+02  0.10000000000E+01 0.  0.
<mgrwt>
<rscale>  0 0.12502499E+03</rscale>
<asrwt>0</asrwt>
<pdfrwt beam="1">  1        4 0.34145070E-01 0.12502499E+03</pdfrwt>
<pdfrwt beam="2">  1       -4 0.27088126E-02 0.12502499E+03</pdfrwt>
<totfact> 0.83817685E+03</totfact>
</mgrwt>
</event>
<event>
 5    1  0.3321169E-002  0.1250021E+03  0.7818608E-02  0.1235066E+00
         -4   -1    0    0    0  501 -0.00000000000E+00  0.00000000000E+00  0.81085102601E+03  0.81085202058E+03  0.12700000000E+01 0. -1.
          4   -1    0    0  501    0  0.00000000000E+00 -0.00000000000E+00 -0.47329193213E+01  0.49003495082E+01  0.12700000000E+01 0. -1.
         25    2    1    2    0    0  0.00000000000E+00  0.00000000000E+00  0.80611810669E+03  0.81575237009E+03  0.12500210949E+03 0.  0.
    9000005    1    3    3    0    0  0.87170077464E+01  0.25920315321E+02  0.36355648345E+02  0.45503649710E+02  0.10000000000E+01 0.  0.
    9000005    1    3    3    0    0 -0.87170077464E+01 -0.25920315321E+02  0.76976245834E+03  0.77024872038E+03  0.10000000000E+01 0.  0.
<mgrwt>
<rscale>  0 0.12500211E+03</rscale>
<asrwt>0</asrwt>
<pdfrwt beam="2">  1        4 0.74109806E-03 0.12500211E+03</pdfrwt>
<pdfrwt beam="1">  1       -4 0.12475912E+00 0.12500211E+03</pdfrwt>
<totfact> 0.37569412E+03</totfact>
</mgrwt>
</event>
<event>
 5    1  0.3321169E-002  0.1249995E+03  0.7818608E-02  0.1235070E+00
         -4   -1    0    0    0  501 -0.00000000000E+00  0.00000000000E+00  0.10549720880E+03  0.10550485280E+03  0.12700000000E+01 0. -1.
          4   -1    0    0  501    0  0.00000000000E+00 -0.00000000000E+00 -0.37006843672E+02  0.37028629175E+02  0.12700000000E+01 0. -1.
         25    2    1    2    0    0  0.00000000000E+00  0.00000000000E+00  0.68490365128E+02  0.14253348198E+03  0.12499945347E+03 0.  0.
    9000005    1    3    3    0    0  0.17917449880E+02 -0.26821735944E+02 -0.26786320156E+02  0.41939807782E+02  0.10000000000E+01 0.  0.
    9000005    1    3    3    0    0 -0.17917449880E+02  0.26821735944E+02  0.95276685283E+02  0.10059367419E+03  0.10000000000E+01 0.  0.
<mgrwt>
<rscale>  0 0.12499945E+03</rscale>
<asrwt>0</asrwt>
<pdfrwt beam="2">  1        4 0.56956244E-02 0.12499945E+03</pdfrwt>
<pdfrwt beam="1">  1       -4 0.16232604E-01 0.12499945E+03</pdfrwt>
<totfact> 0.10081469E+04</totfact>
</mgrwt>
</event>
<event>
 5    1  0.3321169E-002  0.1250016E+03  0.7818608E-02  0.1235067E+00
         -4   -1    0    0    0  501 -0.00000000000E+00  0.00000000000E+00  0.11739670384E+02  0.11808165002E+02  0.12700000000E+01 0.  1.
          4   -1    0    0  501    0  0.00000000000E+00 -0.00000000000E+00 -0.33171044735E+03  0.33171287853E+03  0.12700000000E+01 0.  1.
         25    2    1    2    0    0  0.00000000000E+00  0.00000000000E+00 -0.31997077697E+03  0.34352104353E+03  0.12500163693E+03 0.  0.
    9000005    1    3    3    0    0  0.26670953444E+02  0.51473436643E+02 -0.95859153920E+02  0.11203049508E+03  0.10000000000E+01 0.  0.
    9000005    1    3    3    0    0 -0.26670953444E+02 -0.51473436643E+02 -0.22411162305E+03  0.23149054845E+03  0.10000000000E+01 0.  0.
<mgrwt>
<rscale>  0 0.12500164E+03</rscale>
<asrwt>0</asrwt>
<pdfrwt beam="2">  1        4 0.51037825E-01 0.12500164E+03</pdfrwt>
<pdfrwt beam="1">  1       -4 0.18115592E-02 0.12500164E+03</pdfrwt>
<totfact> 0.70440701E+03</totfact>
</mgrwt>
</event>
<event>
 5    1  0.3321169E-002  0.1249998E+03  0.7818608E-02  0.1235070E+00
         -4   -1    0    0    0  501 -0.00000000000E+00  0.00000000000E+00  0.15474807765E+03  0.15475328894E+03  0.12700000000E+01 0.  1.
          4   -1    0    0  501    0  0.00000000000E+00 -0.00000000000E+00 -0.25220925436E+02  0.25252880624E+02  0.12700000000E+01 0.  1.
         25    2    1    2    0    0  0.00000000000E+00  0.00000000000E+00  0.12952715222E+03  0.18000616956E+03  0.12499975168E+03 0.  0.
    9000005    1    3    3    0    0  0.55390166356E+01 -0.28081294696E+01  0.15430967958E+03  0.15443783056E+03  0.10000000000E+01 0.  0.
    9000005    1    3    3    0    0 -0.55390166356E+01  0.28081294696E+01 -0.24782527367E+02  0.25568338998E+02  0.10000000000E+01 0.  0.
<mgrwt>
<rscale>  0 0.12499975E+03</rscale>
<asrwt>0</asrwt>
<pdfrwt beam="2">  1        4 0.38830013E-02 0.12499975E+03</pdfrwt>
<pdfrwt beam="1">  1       -4 0.23810256E-01 0.12499975E+03</pdfrwt>
<totfact> 0.93616414E+03</totfact>
</mgrwt>
</event>
<event>
 5    1  0.3321169E-002  0.1249978E+03  0.7818608E-02  0.1235073E+00
          4   -1    0    0  501    0  0.00000000000E+00  0.00000000000E+00  0.10277874028E+04  0.10277881875E+04  0.12700000000E+01 0.  1.
         -4   -1    0    0    0  501 -0.00000000000E+00 -0.00000000000E+00 -0.36936029230E+01  0.39058421055E+01  0.12700000000E+01 0.  1.
         25    2    1    2    0    0  0.00000000000E+00  0.00000000000E+00  0.10240937999E+04  0.10316940296E+04  0.12499783865E+03 0.  0.
    9000005    1    3    3    0    0 -0.36200841490E+02 -0.39409065382E+02  0.24567629427E+03  0.25143869416E+03  0.10000000000E+01 0.  0.
    9000005    1    3    3    0    0  0.36200841490E+02  0.39409065382E+02  0.77841750566E+03  0.78025533543E+03  0.10000000000E+01 0.  0.
<mgrwt>
<rscale>  0 0.12499784E+03</rscale>
<asrwt>0</asrwt>
<pdfrwt beam="1">  1        4 0.15813758E+00 0.12499784E+03</pdfrwt>
<pdfrwt beam="2">  1       -4 0.58463285E-03 0.12499784E+03</pdfrwt>
<totfact> 0.29574686E+03</totfact>
</mgrwt>
</event>
<event>
 5    1  0.3321169E-002  0.1250034E+03  0.7818608E-02  0.1235064E+00
          4   -1    0    0  501    0  0.00000000000E+00  0.00000000000E+00  0.10174746260E+04  0.10174754186E+04  0.12700000000E+01 0.  1.
         -4   -1    0    0    0  501 -0.00000000000E+00 -0.00000000000E+00 -0.37335295583E+01  0.39436205399E+01  0.12700000000E+01 0.  1.
         25    2    1    2    0    0  0.00000000000E+00  0.00000000000E+00  0.10137410965E+04  0.10214190392E+04  0.12500337156E+03 0.  0.
    9000005    1    3    3    0    0  0.46591627071E+02 -0.27843048377E+02  0.25377039073E+03  0.25951190005E+03  0.10000000000E+01 0.  0.
    9000005    1    3    3    0    0 -0.46591627071E+02  0.27843048377E+02  0.75997070572E+03  0.76190713910E+03  0.10000000000E+01 0.  0.
<mgrwt>
<rscale>  0 0.12500337E+03</rscale>
<asrwt>0</asrwt>
<pdfrwt beam="1">  1        4 0.15655062E+00 0.12500337E+03</pdfrwt>
<pdfrwt beam="2">  1       -4 0.59061156E-03 0.12500337E+03</pdfrwt>
<totfact> 0.29902045E+03</totfact>
</mgrwt>
</event>
<event>
 5    1  0.3321169E-002  0.1250014E+03  0.7818608E-02  0.1235067E+00
         -4   -1    0    0    0  501 -0.00000000000E+00  0.00000000000E+00  0.17221261925E+02  0.17268027169E+02  0.12700000000E+01 0. -1.
          4   -1    0    0  501    0  0.00000000000E+00 -0.00000000000E+00 -0.22647623081E+03  0.22647979164E+03  0.12700000000E+01 0. -1.
         25    2    1    2    0    0  0.00000000000E+00  0.00000000000E+00 -0.20925496889E+03  0.24374781881E+03  0.12500142868E+03 0.  0.
    9000005    1    3    3    0    0 -0.16934356897E+02  0.27716291161E+02 -0.52126169381E+00  0.32499799276E+02  0.10000000000E+01 0.  0.
    9000005    1    3    3    0    0  0.16934356897E+02 -0.27716291161E+02 -0.20873370719E+03  0.21124801954E+03  0.10000000000E+01 0.  0.
<mgrwt>
<rscale>  0 0.12500143E+03</rscale>
<asrwt>0</asrwt>
<pdfrwt beam="2">  1        4 0.34846366E-01 0.12500143E+03</pdfrwt>
<pdfrwt beam="1">  1       -4 0.26532963E-02 0.12500143E+03</pdfrwt>
<totfact> 0.83239694E+03</totfact>
</mgrwt>
</event>
<event>
 5    1  0.3321169E-002  0.1250006E+03  0.7818608E-02  0.1235068E+00
         -4   -1    0    0    0  501 -0.00000000000E+00  0.00000000000E+00  0.56340165730E+01  0.57753824761E+01  0.12700000000E+01 0. -1.
          4   -1    0    0  501    0  0.00000000000E+00 -0.00000000000E+00 -0.68460761076E+03  0.68460878874E+03  0.12700000000E+01 0. -1.
         25    2    1    2    0    0  0.00000000000E+00  0.00000000000E+00 -0.67897359419E+03  0.69038417121E+03  0.12500064901E+03 0.  0.
    9000005    1    3    3    0    0 -0.35431319766E+02 -0.45176365908E+02 -0.20318860528E+03  0.21114661204E+03  0.10000000000E+01 0.  0.
    9000005    1    3    3    0    0  0.35431319766E+02  0.45176365908E+02 -0.47578498891E+03  0.47923755918E+03  0.10000000000E+01 0.  0.
<mgrwt>
<rscale>  0 0.12500065E+03</rscale>
<asrwt>0</asrwt>
<pdfrwt beam="2">  1        4 0.10533515E+00 0.12500065E+03</pdfrwt>
<pdfrwt beam="1">  1       -4 0.87773724E-03 0.12500065E+03</pdfrwt>
<totfact> 0.43598583E+03</totfact>
</mgrwt>
</event>
<event>
 5    1  0.3321169E-002  0.1250017E+03  0.7818608E-02  0.1235067E+00
          4   -1    0    0  501    0  0.00000000000E+00  0.00000000000E+00  0.17640763461E+02  0.17686419521E+02  0.12700000000E+01 0. -1.
         -4   -1    0    0    0  501 -0.00000000000E+00 -0.00000000000E+00 -0.22110567746E+03  0.22110932478E+03  0.12700000000E+01 0. -1.
         25    2    1    2    0    0  0.00000000000E+00  0.00000000000E+00 -0.20346491400E+03  0.23879574430E+03  0.12500174506E+03 0.  0.
    9000005    1    3    3    0    0  0.57652738199E+00 -0.19227915666E+02  0.11853462955E+02  0.22617464684E+02  0.10000000000E+01 0.  0.
    9000005    1    3    3    0    0 -0.57652738199E+00  0.19227915666E+02 -0.21531837695E+03  0.21617827962E+03  0.10000000000E+01 0.  0.
<mgrwt>
<rscale>  0 0.12500175E+03</rscale>
<asrwt>0</asrwt>
<pdfrwt beam="1">  1        4 0.27177563E-02 0.12500175E+03</pdfrwt>
<pdfrwt beam="2">  1       -4 0.34020048E-01 0.12500175E+03</pdfrwt>
<totfact> 0.83973781E+03</totfact>
</mgrwt>
</event>
<event>
 5    1  0.3321169E-002  0.1250017E+03  0.7818608E-02  0.1235067E+00
          4   -1    0    0  501    0  0.00000000000E+00  0.00000000000E+00  0.36658046405E+02  0.36680039070E+02  0.12700000000E+01 0. -1.
         -4   -1    0    0    0  501 -0.00000000000E+00 -0.00000000000E+00 -0.10650431432E+03  0.10651188605E+03  0.12700000000E+01 0. -1.
         25    2    1    2    0    0  0.00000000000E+00  0.00000000000E+00 -0.69846267920E+02  0.14319192512E+03  0.12500170510E+03 0.  0.
    9000005    1    3    3    0    0  0.13834598999E+01  0.55440572597E+02 -0.67920974259E+02  0.87691674607E+02  0.10000000000E+01 0.  0.
    9000005    1    3    3    0    0 -0.13834598999E+01 -0.55440572597E+02 -0.19252936611E+01  0.55500250512E+02  0.10000000000E+01 0.  0.
<mgrwt>
<rscale>  0 0.12500171E+03</rscale>
<asrwt>0</asrwt>
<pdfrwt beam="1">  1        4 0.56419737E-02 0.12500171E+03</pdfrwt>
<pdfrwt beam="2">  1       -4 0.16387553E-01 0.12500171E+03</pdfrwt>
<totfact> 0.10067468E+04</totfact>
</mgrwt>
</event>
<event>
 5    1  0.3321169E-002  0.1250023E+03  0.7818608E-02  0.1235066E+00
         -4   -1    0    0    0  501 -0.00000000000E+00  0.00000000000E+00  0.62747691419E+02  0.62760542369E+02  0.12700000000E+01 0.  1.
          4   -1    0    0  501    0  0.00000000000E+00 -0.00000000000E+00 -0.62229873167E+02  0.62242831028E+02  0.12700000000E+01 0.  1.
         25    2    1    2    0    0  0.00000000000E+00  0.00000000000E+00  0.51781825183E+00  0.12500337340E+03  0.12500230088E+03 0.  0.
    9000005    1    3    3    0    0 -0.60974075595E+02 -0.13431368913E+02  0.29336733031E+01  0.62512766733E+02  0.10000000000E+01 0.  0.
    9000005    1    3    3    0    0  0.60974075595E+02  0.13431368913E+02 -0.24158550513E+01  0.62490606664E+02  0.10000000000E+01 0.  0.
<mgrwt>
<rscale>  0 0.12500230E+03</rscale>
<asrwt>0</asrwt>
<pdfrwt beam="2">  1        4 0.95758119E-02 0.12500230E+03</pdfrwt>
<pdfrwt beam="1">  1       -4 0.96554763E-02 0.12500230E+03</pdfrwt>
<totfact> 0.10452246E+04</totfact>
</mgrwt>
</event>
<event>
 5    1  0.3321169E-002  0.1249971E+03  0.7818608E-02  0.1235074E+00
          4   -1    0    0  501    0  0.00000000000E+00  0.00000000000E+00  0.52131778813E+01  0.53656428899E+01  0.12700000000E+01 0. -1.
         -4   -1    0    0    0  501 -0.00000000000E+00 -0.00000000000E+00 -0.73831670035E+03  0.73831779263E+03  0.12700000000E+01 0. -1.
         25    2    1    2    0    0  0.00000000000E+00  0.00000000000E+00 -0.73310352246E+03  0.74368343552E+03  0.12499711042E+03 0.  0.
    9000005    1    3    3    0    0 -0.55038190535E+02 -0.26798991033E+01 -0.19119628720E+03  0.19898091496E+03  0.10000000000E+01 0.  0.
    9000005    1    3    3    0    0  0.55038190535E+02  0.26798991033E+01 -0.54190723526E+03  0.54470252056E+03  0.10000000000E+01 0.  0.
<mgrwt>
<rscale>  0 0.12499711E+03</rscale>
<asrwt>0</asrwt>
<pdfrwt beam="1">  1        4 0.81384005E-03 0.12499711E+03</pdfrwt>
<pdfrwt beam="2">  1       -4 0.11359892E+00 0.12499711E+03</pdfrwt>
<totfact> 0.40880702E+03</totfact>
</mgrwt>
</event>
<event>
 5    1  0.3321169E-002  0.1250043E+03  0.7818608E-02  0.1235063E+00
         -4   -1    0    0    0  501 -0.00000000000E+00  0.00000000000E+00  0.42463757866E+01  0.44322237445E+01  0.12700000000E+01 0.  1.
          4   -1    0    0  501    0  0.00000000000E+00 -0.00000000000E+00 -0.90007833025E+03  0.90007922622E+03  0.12700000000E+01 0.  1.
         25    2    1    2    0    0  0.00000000000E+00  0.00000000000E+00 -0.89583195446E+03  0.90451144997E+03  0.12500428989E+03 0.  0.
    9000005    1    3    3    0    0 -0.51477639916E+02 -0.22774443636E+02 -0.64433886094E+03  0.64679377735E+03  0.10000000000E+01 0.  0.
    9000005    1    3    3    0    0  0.51477639916E+02  0.22774443636E+02 -0.25149309352E+03  0.25771767262E+03  0.10000000000E+01 0.  0.
<mgrwt>
<rscale>  0 0.12500429E+03</rscale>
<asrwt>0</asrwt>
<pdfrwt beam="2">  1        4 0.13848781E+00 0.12500429E+03</pdfrwt>
<pdfrwt beam="1">  1       -4 0.66765422E-03 0.12500429E+03</pdfrwt>
<totfact> 0.33984610E+03</totfact>
</mgrwt>
</event>
<event>
 5    1  0.3321169E-002  0.1250026E+03  0.7818608E-02  0.1235065E+00
         -4   -1    0    0    0  501 -0.00000000000E+00  0.00000000000E+00  0.55487326867E+01  0.56922170047E+01  0.12700000000E+01 0.  1.
          4   -1    0    0  501    0  0.00000000000E+00 -0.00000000000E+00 -0.69488880863E+03  0.69488996917E+03  0.12700000000E+01 0.  1.
         25    2    1    2    0    0  0.00000000000E+00  0.00000000000E+00 -0.68934007594E+03  0.70058218618E+03  0.12500263713E+03 0.  0.
    9000005    1    3    3    0    0  0.26164076787E+02  0.48786855383E+02 -0.18216752176E+03  0.19039622411E+03  0.10000000000E+01 0.  0.
    9000005    1    3    3    0    0 -0.26164076787E+02 -0.48786855383E+02 -0.50717255419E+03  0.51018596207E+03  0.10000000000E+01 0.  0.
<mgrwt>
<rscale>  0 0.12500264E+03</rscale>
<asrwt>0</asrwt>
<pdfrwt beam="2">  1        4 0.10691703E+00 0.12500264E+03</pdfrwt>
<pdfrwt beam="1">  1       -4 0.86477826E-03 0.12500264E+03</pdfrwt>
<totfact> 0.43053513E+03</totfact>
</mgrwt>
</event>
<event>
 5    1  0.3321169E-002  0.1249959E+03  0.7818608E-02  0.1235076E+00
          4   -1    0    0  501    0  0.00000000000E+00  0.00000000000E+00  0.71501515340E+01  0.72620635469E+01  0.12700000000E+01 0. -1.
         -4   -1    0    0    0  501 -0.00000000000E+00 -0.00000000000E+00 -0.54192680951E+03  0.54192829763E+03  0.12700000000E+01 0. -1.
         25    2    1    2    0    0  0.00000000000E+00  0.00000000000E+00 -0.53477665798E+03  0.54919036117E+03  0.12499591548E+03 0.  0.
    9000005    1    3    3    0    0 -0.23180133126E+02 -0.39285604856E+02 -0.79725920878E+02  0.91858041458E+02  0.10000000000E+01 0.  0.
    9000005    1    3    3    0    0  0.23180133126E+02  0.39285604856E+02 -0.45505073710E+03  0.45733231972E+03  0.10000000000E+01 0.  0.
<mgrwt>
<rscale>  0 0.12499592E+03</rscale>
<asrwt>0</asrwt>
<pdfrwt beam="1">  1        4 0.11087468E-02 0.12499592E+03</pdfrwt>
<pdfrwt beam="2">  1       -4 0.83382047E-01 0.12499592E+03</pdfrwt>
<totfact> 0.52245107E+03</totfact>
</mgrwt>
</event>
<event>
 5    1  0.3321169E-002  0.1250084E+03  0.7818608E-02  0.1235056E+00
          4   -1    0    0  501    0  0.00000000000E+00  0.00000000000E+00  0.74073374423E+01  0.75154206791E+01  0.12700000000E+01 0.  1.
         -4   -1    0    0    0  501 -0.00000000000E+00 -0.00000000000E+00 -0.52349092519E+03  0.52349246571E+03  0.12700000000E+01 0.  1.
         25    2    1    2    0    0  0.00000000000E+00  0.00000000000E+00 -0.51608358775E+03  0.53100788639E+03  0.12500842318E+03 0.  0.
    9000005    1    3    3    0    0 -0.51992394634E+02 -0.34614585647E+02 -0.26694980550E+03  0.27416158976E+03  0.10000000000E+01 0.  0.
    9000005    1    3    3    0    0  0.51992394634E+02  0.34614585647E+02 -0.24913378225E+03  0.25684629664E+03  0.10000000000E+01 0.  0.
<mgrwt>
<rscale>  0 0.12500842E+03</rscale>
<asrwt>0</asrwt>
<pdfrwt beam="1">  1        4 0.11480234E-02 0.12500842E+03</pdfrwt>
<pdfrwt beam="2">  1       -4 0.80545469E-01 0.12500842E+03</pdfrwt>
<totfact> 0.53526426E+03</totfact>
</mgrwt>
</event>
<event>
 5    1  0.3321169E-002  0.1250002E+03  0.7818608E-02  0.1235069E+00
          4   -1    0    0  501    0  0.00000000000E+00  0.00000000000E+00  0.34782807068E+02  0.34805984651E+02  0.12700000000E+01 0. -1.
         -4   -1    0    0    0  501 -0.00000000000E+00 -0.00000000000E+00 -0.11224029362E+03  0.11224747843E+03  0.12700000000E+01 0. -1.
         25    2    1    2    0    0  0.00000000000E+00  0.00000000000E+00 -0.77457486556E+02  0.14705346308E+03  0.12500023512E+03 0.  0.
    9000005    1    3    3    0    0 -0.62139805295E+02 -0.56405581731E+01 -0.34637657667E+02  0.71371833571E+02  0.10000000000E+01 0.  0.
    9000005    1    3    3    0    0  0.62139805295E+02  0.56405581731E+01 -0.42819828889E+02  0.75681629506E+02  0.10000000000E+01 0.  0.
<mgrwt>
<rscale>  0 0.12500024E+03</rscale>
<asrwt>0</asrwt>
<pdfrwt beam="1">  1        4 0.53535367E-02 0.12500024E+03</pdfrwt>
<pdfrwt beam="2">  1       -4 0.17270073E-01 0.12500024E+03</pdfrwt>
<totfact> 0.99893794E+03</totfact>
</mgrwt>
</event>
<event>
 5    1  0.3321169E-002  0.1249985E+03  0.7818608E-02  0.1235072E+00
          4   -1    0    0  501    0  0.00000000000E+00  0.00000000000E+00  0.26537411567E+02  0.26567783360E+02  0.12700000000E+01 0. -1.
         -4   -1    0    0    0  501 -0.00000000000E+00 -0.00000000000E+00 -0.14707699629E+03  0.14708247937E+03  0.12700000000E+01 0. -1.
         25    2    1    2    0    0  0.00000000000E+00  0.00000000000E+00 -0.12053958473E+03  0.17365026274E+03  0.12499848904E+03 0.  0.
    9000005    1    3    3    0    0  0.36599072967E+02 -0.72459017767E+01 -0.12991332291E+03  0.13516829031E+03  0.10000000000E+01 0.  0.
    9000005    1    3    3    0    0 -0.36599072967E+02  0.72459017767E+01  0.93737381825E+01  0.38481972430E+02  0.10000000000E+01 0.  0.
<mgrwt>
<rscale>  0 0.12499849E+03</rscale>
<asrwt>0</asrwt>
<pdfrwt beam="1">  1        4 0.40854368E-02 0.12499849E+03</pdfrwt>
<pdfrwt beam="2">  1       -4 0.22629988E-01 0.12499849E+03</pdfrwt>
<totfact> 0.94775838E+03</totfact>
</mgrwt>
</event>
<event>
 5    1  0.3321169E-002  0.1249996E+03  0.7818608E-02  0.1235070E+00
          4   -1    0    0  501    0  0.00000000000E+00  0.00000000000E+00  0.41889784534E+02  0.41909031822E+02  0.12700000000E+01 0. -1.
         -4   -1    0    0    0  501 -0.00000000000E+00 -0.00000000000E+00 -0.93205125077E+02  0.93213777097E+02  0.12700000000E+01 0. -1.
         25    2    1    2    0    0  0.00000000000E+00  0.00000000000E+00 -0.51315340543E+02  0.13512280892E+03  0.12499963726E+03 0.  0.
    9000005    1    3    3    0    0  0.84796793618E+01 -0.61058851594E+02 -0.36741806408E+02  0.71770806447E+02  0.10000000000E+01 0.  0.
    9000005    1    3    3    0    0 -0.84796793618E+01  0.61058851594E+02 -0.14573534135E+02  0.63352002472E+02  0.10000000000E+01 0.  0.
<mgrwt>
<rscale>  0 0.12499964E+03</rscale>
<asrwt>0</asrwt>
<pdfrwt beam="1">  1        4 0.64467283E-02 0.12499964E+03</pdfrwt>
<pdfrwt beam="2">  1       -4 0.14341396E-01 0.12499964E+03</pdfrwt>
<totfact> 0.10235567E+04</totfact>
</mgrwt>
</event>
<event>
 5    1  0.3321169E-002  0.1249955E+03  0.7818608E-02  0.1235076E+00
         -4   -1    0    0    0  501 -0.00000000000E+00  0.00000000000E+00  0.68320665977E+02  0.68332468853E+02  0.12700000000E+01 0.  1.
          4   -1    0    0  501    0  0.00000000000E+00 -0.00000000000E+00 -0.57147287890E+02  0.57161397928E+02  0.12700000000E+01 0.  1.
         25    2    1    2    0    0  0.00000000000E+00  0.00000000000E+00  0.11173378087E+02  0.12549386678E+03  0.12499546480E+03 0.  0.
    9000005    1    3    3    0    0 -0.41742370608E+01  0.55739832960E+02  0.33637551890E+02  0.65244449040E+02  0.10000000000E+01 0.  0.
    9000005    1    3    3    0    0  0.41742370608E+01 -0.55739832960E+02 -0.22464173803E+02  0.60249417741E+02  0.10000000000E+01 0.  0.
<mgrwt>
<rscale>  0 0.12499546E+03</rscale>
<asrwt>0</asrwt>
<pdfrwt beam="2">  1        4 0.87938838E-02 0.12499546E+03</pdfrwt>
<pdfrwt beam="1">  1       -4 0.10512865E-01 0.12499546E+03</pdfrwt>
<totfact> 0.10443158E+04</totfact>
</mgrwt>
</event>
<event>
 5    1  0.3321169E-002  0.1250030E+03  0.7818608E-02  0.1235065E+00
         -4   -1    0    0    0  501 -0.00000000000E+00  0.00000000000E+00  0.13457823680E+04  0.13457829672E+04  0.12700000000E+01 0. -1.
          4   -1    0    0  501    0  0.00000000000E+00 -0.00000000000E+00 -0.27631850355E+01  0.30410675001E+01  0.12700000000E+01 0. -1.
         25    2    1    2    0    0  0.00000000000E+00  0.00000000000E+00  0.13430191829E+04  0.13488240347E+04  0.12500300352E+03 0.  0.
    9000005    1    3    3    0    0 -0.24879335329E+02  0.57102337095E+02  0.72629590027E+03  0.72896254566E+03  0.10000000000E+01 0.  0.
    9000005    1    3    3    0    0  0.24879335329E+02 -0.57102337095E+02  0.61672328266E+03  0.61986148905E+03  0.10000000000E+01 0.  0.
<mgrwt>
<rscale>  0 0.12500300E+03</rscale>
<asrwt>0</asrwt>
<pdfrwt beam="2">  1        4 0.44652727E-03 0.12500300E+03</pdfrwt>
<pdfrwt beam="1">  1       -4 0.20706476E+00 0.12500300E+03</pdfrwt>
<totfact> 0.21103273E+03</totfact>
</mgrwt>
</event>
<event>
 5    1  0.3321169E-002  0.1249974E+03  0.7818608E-02  0.1235073E+00
         -4   -1    0    0    0  501 -0.00000000000E+00  0.00000000000E+00  0.40849736189E+02  0.40869473287E+02  0.12700000000E+01 0. -1.
          4   -1    0    0  501    0  0.00000000000E+00 -0.00000000000E+00 -0.95573878899E+02  0.95582316501E+02  0.12700000000E+01 0. -1.
         25    2    1    2    0    0  0.00000000000E+00  0.00000000000E+00 -0.54724142709E+02  0.13645178979E+03  0.12499743654E+03 0.  0.
    9000005    1    3    3    0    0  0.24040198279E+02  0.26384594484E+02  0.28631675569E+02  0.45769540146E+02  0.10000000000E+01 0.  0.
    9000005    1    3    3    0    0 -0.24040198279E+02 -0.26384594484E+02 -0.83355818278E+02  0.90682249642E+02  0.10000000000E+01 0.  0.
<mgrwt>
<rscale>  0 0.12499744E+03</rscale>
<asrwt>0</asrwt>
<pdfrwt beam="2">  1        4 0.14705841E-01 0.12499744E+03</pdfrwt>
<pdfrwt beam="1">  1       -4 0.62867421E-02 0.12499744E+03</pdfrwt>
<totfact> 0.10208151E+04</totfact>
</mgrwt>
</event>
<event>
 5    1  0.3321169E-002  0.1250003E+03  0.7818608E-02  0.1235069E+00
         -4   -1    0    0    0  501 -0.00000000000E+00  0.00000000000E+00  0.25329650716E+02  0.25361468913E+02  0.12700000000E+01 0.  1.
          4   -1    0    0  501    0  0.00000000000E+00 -0.00000000000E+00 -0.15408607253E+03  0.15409130620E+03  0.12700000000E+01 0.  1.
         25    2    1    2    0    0  0.00000000000E+00  0.00000000000E+00 -0.12875642181E+03  0.17945277511E+03  0.12500032935E+03 0.  0.
    9000005    1    3    3    0    0 -0.48269134778E+02 -0.14533369677E+02 -0.11354652245E+02  0.51682263244E+02  0.10000000000E+01 0.  0.
    9000005    1    3    3    0    0  0.48269134778E+02  0.14533369677E+02 -0.11740176956E+03  0.12777051187E+03  0.10000000000E+01 0.  0.
<mgrwt>
<rscale>  0 0.12500033E+03</rscale>
<asrwt>0</asrwt>
<pdfrwt beam="2">  1        4 0.23708399E-01 0.12500033E+03</pdfrwt>
<pdfrwt beam="1">  1       -4 0.38997196E-02 0.12500033E+03</pdfrwt>
<totfact> 0.93714906E+03</totfact>
</mgrwt>
</event>
<event>
 5    1  0.3321169E-002  0.1250081E+03  0.7818608E-02  0.1235057E+00
          4   -1    0    0  501    0  0.00000000000E+00  0.00000000000E+00  0.27527387540E+02  0.27556668246E+02  0.12700000000E+01 0. -1.
         -4   -1    0    0    0  501 -0.00000000000E+00 -0.00000000000E+00 -0.14181496431E+03  0.14182065083E+03  0.12700000000E+01 0. -1.
         25    2    1    2    0    0  0.00000000000E+00  0.00000000000E+00 -0.11428757677E+03  0.16937731907E+03  0.12500810379E+03 0.  0.
    9000005    1    3    3    0    0  0.14523359347E+02 -0.59056617372E+02 -0.37642928109E+02  0.71530427503E+02  0.10000000000E+01 0.  0.
    9000005    1    3    3    0    0 -0.14523359347E+02  0.59056617372E+02 -0.76644648656E+02  0.97846891570E+02  0.10000000000E+01 0.  0.
<mgrwt>
<rscale>  0 0.12500810E+03</rscale>
<asrwt>0</asrwt>
<pdfrwt beam="1">  1        4 0.42376726E-02 0.12500810E+03</pdfrwt>
<pdfrwt beam="2">  1       -4 0.21820376E-01 0.12500810E+03</pdfrwt>
<totfact> 0.95547373E+03</totfact>
</mgrwt>
</event>
<event>
 5    1  0.3321169E-002  0.1249978E+03  0.7818608E-02  0.1235073E+00
         -4   -1    0    0    0  501 -0.00000000000E+00  0.00000000000E+00  0.18112645014E+02  0.18157114567E+02  0.12700000000E+01 0. -1.
          4   -1    0    0  501    0  0.00000000000E+00 -0.00000000000E+00 -0.21534583288E+03  0.21534957776E+03  0.12700000000E+01 0. -1.
         25    2    1    2    0    0  0.00000000000E+00  0.00000000000E+00 -0.19723318787E+03  0.23350669232E+03  0.12499777983E+03 0.  0.
    9000005    1    3    3    0    0  0.42101167518E+02 -0.10396150045E+02 -0.18267059479E+03  0.18775019159E+03  0.10000000000E+01 0.  0.
    9000005    1    3    3    0    0 -0.42101167518E+02  0.10396150045E+02 -0.14562593081E+02  0.45756500734E+02  0.10000000000E+01 0.  0.
<mgrwt>
<rscale>  0 0.12499778E+03</rscale>
<asrwt>0</asrwt>
<pdfrwt beam="2">  1        4 0.33133835E-01 0.12499778E+03</pdfrwt>
<pdfrwt beam="1">  1       -4 0.27902697E-02 0.12499778E+03</pdfrwt>
<totfact> 0.84778233E+03</totfact>
</mgrwt>
</event>
<event>
 5    1  0.3321169E-002  0.1249996E+03  0.7818608E-02  0.1235070E+00
         -4   -1    0    0    0  501 -0.00000000000E+00  0.00000000000E+00  0.15058795962E+03  0.15059331487E+03  0.12700000000E+01 0.  1.
          4   -1    0    0  501    0  0.00000000000E+00 -0.00000000000E+00 -0.25918477647E+02  0.25949573861E+02  0.12700000000E+01 0.  1.
         25    2    1    2    0    0  0.00000000000E+00  0.00000000000E+00  0.12466948197E+03  0.17654288873E+03  0.12499964730E+03 0.  0.
    9000005    1    3    3    0    0  0.13078637044E+02  0.47507879242E+02  0.11661700431E+03  0.12660400875E+03  0.10000000000E+01 0.  0.
    9000005    1    3    3    0    0 -0.13078637044E+02 -0.47507879242E+02  0.80524776617E+01  0.49938879978E+02  0.10000000000E+01 0.  0.
<mgrwt>
<rscale>  0 0.12499965E+03</rscale>
<asrwt>0</asrwt>
<pdfrwt beam="2">  1        4 0.39902621E-02 0.12499965E+03</pdfrwt>
<pdfrwt beam="1">  1       -4 0.23170182E-01 0.12499965E+03</pdfrwt>
<totfact> 0.94243767E+03</totfact>
</mgrwt>
</event>
<event>
 5    1  0.3321169E-002  0.1249994E+03  0.7818608E-02  0.1235070E+00
          4   -1    0    0  501    0  0.00000000000E+00  0.00000000000E+00  0.74761147717E+02  0.74771933959E+02  0.12700000000E+01 0. -1.
         -4   -1    0    0    0  501 -0.00000000000E+00 -0.00000000000E+00 -0.52226989244E+02  0.52242428213E+02  0.12700000000E+01 0. -1.
         25    2    1    2    0    0  0.00000000000E+00  0.00000000000E+00  0.22534158473E+02  0.12701436217E+03  0.12499943960E+03 0.  0.
    9000005    1    3    3    0    0  0.15934431046E+02 -0.60293059525E+02  0.71955131426E+01  0.62784827219E+02  0.10000000000E+01 0.  0.
    9000005    1    3    3    0    0 -0.15934431046E+02  0.60293059525E+02  0.15338645330E+02  0.64229534952E+02  0.10000000000E+01 0.  0.
<mgrwt>
<rscale>  0 0.12499944E+03</rscale>
<asrwt>0</asrwt>
<pdfrwt beam="1">  1        4 0.11503732E-01 0.12499944E+03</pdfrwt>
<pdfrwt beam="2">  1       -4 0.80369388E-02 0.12499944E+03</pdfrwt>
<totfact> 0.10408965E+04</totfact>
</mgrwt>
</event>
<event>
 5    1  0.3321169E-002  0.1249975E+03  0.7818608E-02  0.1235073E+00
         -4   -1    0    0    0  501 -0.00000000000E+00  0.00000000000E+00  0.40984854902E+03  0.40985051670E+03  0.12700000000E+01 0. -1.
          4   -1    0    0  501    0  0.00000000000E+00 -0.00000000000E+00 -0.94862706109E+01  0.95709053962E+01  0.12700000000E+01 0. -1.
         25    2    1    2    0    0  0.00000000000E+00  0.00000000000E+00  0.40036227841E+03  0.41942142209E+03  0.12499750131E+03 0.  0.
    9000005    1    3    3    0    0  0.18601242983E+02  0.58106555356E+02  0.15482486733E+03  0.16641549675E+03  0.10000000000E+01 0.  0.
    9000005    1    3    3    0    0 -0.18601242983E+02 -0.58106555356E+02  0.24553741108E+03  0.25300592534E+03  0.10000000000E+01 0.  0.
<mgrwt>
<rscale>  0 0.12499750E+03</rscale>
<asrwt>0</asrwt>
<pdfrwt beam="2">  1        4 0.14660879E-02 0.12499750E+03</pdfrwt>
<pdfrwt beam="1">  1       -4 0.63060287E-01 0.12499750E+03</pdfrwt>
<totfact> 0.62710175E+03</totfact>
</mgrwt>
</event>
<event>
 5    1  0.3321169E-002  0.1249958E+03  0.7818608E-02  0.1235076E+00
          4   -1    0    0  501    0  0.00000000000E+00  0.00000000000E+00  0.49122569375E+01  0.50737725826E+01  0.12700000000E+01 0.  1.
         -4   -1    0    0    0  501 -0.00000000000E+00 -0.00000000000E+00 -0.78212845955E+03  0.78212949064E+03  0.12700000000E+01 0.  1.
         25    2    1    2    0    0  0.00000000000E+00  0.00000000000E+00 -0.77721620261E+03  0.78720326323E+03  0.12499580807E+03 0.  0.
    9000005    1    3    3    0    0  0.41919462910E+02  0.15042453217E+02 -0.11254498805E+03  0.12104086543E+03  0.10000000000E+01 0.  0.
    9000005    1    3    3    0    0 -0.41919462910E+02 -0.15042453217E+02 -0.66467121456E+03  0.66616239780E+03  0.10000000000E+01 0.  0.
<mgrwt>
<rscale>  0 0.12499581E+03</rscale>
<asrwt>0</asrwt>
<pdfrwt beam="1">  1        4 0.76823605E-03 0.12499581E+03</pdfrwt>
<pdfrwt beam="2">  1       -4 0.12033986E+00 0.12499581E+03</pdfrwt>
<totfact> 0.38846017E+03</totfact>
</mgrwt>
</event>
<event>
 5    1  0.3321169E-002  0.1250001E+03  0.7818608E-02  0.1235069E+00
          4   -1    0    0  501    0  0.00000000000E+00  0.00000000000E+00  0.62610124553E+03  0.62610253358E+03  0.12700000000E+01 0. -1.
         -4   -1    0    0    0  501 -0.00000000000E+00 -0.00000000000E+00 -0.61730829635E+01  0.63023688622E+01  0.12700000000E+01 0. -1.
         25    2    1    2    0    0  0.00000000000E+00  0.00000000000E+00  0.61992816257E+03  0.63240490244E+03  0.12500013555E+03 0.  0.
    9000005    1    3    3    0    0 -0.25737763074E+02 -0.26630648664E+02  0.55306428072E+02  0.66568948335E+02  0.10000000000E+01 0.  0.
    9000005    1    3    3    0    0  0.25737763074E+02  0.26630648664E+02  0.56462173450E+03  0.56583595411E+03  0.10000000000E+01 0.  0.
<mgrwt>
<rscale>  0 0.12500014E+03</rscale>
<asrwt>0</asrwt>
<pdfrwt beam="1">  1        4 0.96333320E-01 0.12500014E+03</pdfrwt>
<pdfrwt beam="2">  1       -4 0.95974915E-03 0.12500014E+03</pdfrwt>
<totfact> 0.46883847E+03</totfact>
</mgrwt>
</event>
<event>
 5    1  0.3321169E-002  0.1249998E+03  0.7818608E-02  0.1235070E+00
         -4   -1    0    0    0  501 -0.00000000000E+00  0.00000000000E+00  0.64881455840E+02  0.64893884241E+02  0.12700000000E+01 0. -1.
          4   -1    0    0  501    0  0.00000000000E+00 -0.00000000000E+00 -0.60180892845E+02  0.60194291786E+02  0.12700000000E+01 0. -1.
         25    2    1    2    0    0  0.00000000000E+00  0.00000000000E+00  0.47005629949E+01  0.12508817603E+03  0.12499982596E+03 0.  0.
    9000005    1    3    3    0    0  0.44760949739E+01 -0.38244729155E+02 -0.46903856546E+02  0.60693216205E+02  0.10000000000E+01 0.  0.
    9000005    1    3    3    0    0 -0.44760949739E+01  0.38244729155E+02  0.51604419541E+02  0.64394959822E+02  0.10000000000E+01 0.  0.
<mgrwt>
<rscale>  0 0.12499983E+03</rscale>
<asrwt>0</asrwt>
<pdfrwt beam="2">  1        4 0.92605856E-02 0.12499983E+03</pdfrwt>
<pdfrwt beam="1">  1       -4 0.99837492E-02 0.12499983E+03</pdfrwt>
<totfact> 0.10450989E+04</totfact>
</mgrwt>
</event>
<event>
 5    1  0.3321169E-002  0.1250052E+03  0.7818608E-02  0.1235061E+00
          4   -1    0    0  501    0  0.00000000000E+00  0.00000000000E+00  0.23324191708E+03  0.23324537463E+03  0.12700000000E+01 0.  1.
         -4   -1    0    0    0  501 -0.00000000000E+00 -0.00000000000E+00 -0.16721352275E+02  0.16769511678E+02  0.12700000000E+01 0.  1.
         25    2    1    2    0    0  0.00000000000E+00  0.00000000000E+00  0.21652056481E+03  0.25001488631E+03  0.12500515345E+03 0.  0.
    9000005    1    3    3    0    0 -0.13523137475E+02  0.15353557752E+02 -0.98429411955E+01  0.22726426780E+02  0.10000000000E+01 0.  0.
    9000005    1    3    3    0    0  0.13523137475E+02 -0.15353557752E+02  0.22636350600E+03  0.22728845953E+03  0.10000000000E+01 0.  0.
<mgrwt>
<rscale>  0 0.12500515E+03</rscale>
<asrwt>0</asrwt>
<pdfrwt beam="1">  1        4 0.35887341E-01 0.12500515E+03</pdfrwt>
<pdfrwt beam="2">  1       -4 0.25764863E-02 0.12500515E+03</pdfrwt>
<totfact> 0.82318626E+03</totfact>
</mgrwt>
</event>
<event>
 5    1  0.3321169E-002  0.1250009E+03  0.7818608E-02  0.1235068E+00
          4   -1    0    0  501    0  0.00000000000E+00  0.00000000000E+00  0.10744952043E+03  0.10745702556E+03  0.12700000000E+01 0. -1.
         -4   -1    0    0    0  501 -0.00000000000E+00 -0.00000000000E+00 -0.36334958518E+02  0.36357146622E+02  0.12700000000E+01 0. -1.
         25    2    1    2    0    0  0.00000000000E+00  0.00000000000E+00  0.71114561916E+02  0.14381417218E+03  0.12500094081E+03 0.  0.
    9000005    1    3    3    0    0 -0.23265802164E+02  0.40699420627E+02 -0.11984720393E+02  0.48398077572E+02  0.10000000000E+01 0.  0.
    9000005    1    3    3    0    0  0.23265802164E+02 -0.40699420627E+02  0.83099282309E+02  0.95416094607E+02  0.10000000000E+01 0.  0.
<mgrwt>
<rscale>  0 0.12500094E+03</rscale>
<asrwt>0</asrwt>
<pdfrwt beam="1">  1        4 0.16532979E-01 0.12500094E+03</pdfrwt>
<pdfrwt beam="2">  1       -4 0.55922778E-02 0.12500094E+03</pdfrwt>
<totfact> 0.10054925E+04</totfact>
</mgrwt>
</event>
<event>
 5    1  0.3321169E-002  0.1250005E+03  0.7818608E-02  0.1235068E+00
          4   -1    0    0  501    0  0.00000000000E+00  0.00000000000E+00  0.19087824107E+03  0.19088246597E+03  0.12700000000E+01 0.  1.
         -4   -1    0    0    0  501 -0.00000000000E+00 -0.00000000000E+00 -0.20440632317E+02  0.20480047596E+02  0.12700000000E+01 0.  1.
         25    2    1    2    0    0  0.00000000000E+00  0.00000000000E+00  0.17043760876E+03  0.21136251357E+03  0.12500053465E+03 0.  0.
    9000005    1    3    3    0    0 -0.46531964051E+02  0.27169160240E+02  0.31697397919E+02  0.62522891660E+02  0.10000000000E+01 0.  0.
    9000005    1    3    3    0    0  0.46531964051E+02 -0.27169160240E+02  0.13874021084E+03  0.14883962191E+03  0.10000000000E+01 0.  0.
<mgrwt>
<rscale>  0 0.12500053E+03</rscale>
<asrwt>0</asrwt>
<pdfrwt beam="1">  1        4 0.29369240E-01 0.12500053E+03</pdfrwt>
<pdfrwt beam="2">  1       -4 0.31480696E-02 0.12500053E+03</pdfrwt>
<totfact> 0.88252792E+03</totfact>
</mgrwt>
</event>
<event>
 5    1  0.3321169E-002  0.1249996E+03  0.7818608E-02  0.1235070E+00
          4   -1    0    0  501    0  0.00000000000E+00  0.00000000000E+00  0.38640951076E+02  0.38661815789E+02  0.12700000000E+01 0.  1.
         -4   -1    0    0    0  501 -0.00000000000E+00 -0.00000000000E+00 -0.10103810212E+03  0.10104608345E+03  0.12700000000E+01 0.  1.
         25    2    1    2    0    0  0.00000000000E+00  0.00000000000E+00 -0.62397151046E+02  0.13970789924E+03  0.12499957060E+03 0.  0.
    9000005    1    3    3    0    0  0.59136140924E+02 -0.11574594754E+02 -0.12692197819E+02  0.61588524033E+02  0.10000000000E+01 0.  0.
    9000005    1    3    3    0    0 -0.59136140924E+02  0.11574594754E+02 -0.49704953227E+02  0.78119375205E+02  0.10000000000E+01 0.  0.
<mgrwt>
<rscale>  0 0.12499957E+03</rscale>
<asrwt>0</asrwt>
<pdfrwt beam="1">  1        4 0.59469807E-02 0.12499957E+03</pdfrwt>
<pdfrwt beam="2">  1       -4 0.15546542E-01 0.12499957E+03</pdfrwt>
<totfact> 0.10139741E+04</totfact>
</mgrwt>
</event>
<event>
 5    1  0.3321169E-002  0.1249980E+03  0.7818608E-02  0.1235072E+00
          4   -1    0    0  501    0  0.00000000000E+00  0.00000000000E+00  0.15425983438E+03  0.15426506216E+03  0.12700000000E+01 0.  1.
         -4   -1    0    0    0  501 -0.00000000000E+00 -0.00000000000E+00 -0.25300148701E+02  0.25332003953E+02  0.12700000000E+01 0.  1.
         25    2    1    2    0    0  0.00000000000E+00  0.00000000000E+00  0.12895968568E+03  0.17959706611E+03  0.12499802249E+03 0.  0.
    9000005    1    3    3    0    0 -0.97972517043E+01  0.54159929217E+02  0.10700139035E+03  0.12033113317E+03  0.10000000000E+01 0.  0.
    9000005    1    3    3    0    0  0.97972517043E+01 -0.54159929217E+02  0.21958295333E+02  0.59265932944E+02  0.10000000000E+01 0.  0.
<mgrwt>
<rscale>  0 0.12499802E+03</rscale>
<asrwt>0</asrwt>
<pdfrwt beam="1">  1        4 0.23735134E-01 0.12499802E+03</pdfrwt>
<pdfrwt beam="2">  1       -4 0.38951832E-02 0.12499802E+03</pdfrwt>
<totfact> 0.93693738E+03</totfact>
</mgrwt>
</event>
<event>
 5    1  0.3321169E-002  0.1250068E+03  0.7818608E-02  0.1235059E+00
          4   -1    0    0  501    0  0.00000000000E+00  0.00000000000E+00  0.26396598574E+04  0.26396601630E+04  0.12700000000E+01 0. -1.
         -4   -1    0    0    0  501 -0.00000000000E+00 -0.00000000000E+00 -0.12071780981E+01  0.17521926151E+01  0.12700000000E+01 0. -1.
         25    2    1    2    0    0  0.00000000000E+00  0.00000000000E+00  0.26384526793E+04  0.26414123556E+04  0.12500676390E+03 0.  0.
    9000005    1    3    3    0    0 -0.58754324456E+02 -0.13323338429E+02  0.96812811514E+03  0.97000135531E+03  0.10000000000E+01 0.  0.
    9000005    1    3    3    0    0  0.58754324456E+02  0.13323338429E+02  0.16703245642E+04  0.16714110003E+04  0.10000000000E+01 0.  0.
<mgrwt>
<rscale>  0 0.12500676E+03</rscale>
<asrwt>0</asrwt>
<pdfrwt beam="1">  1        4 0.40613972E+00 0.12500676E+03</pdfrwt>
<pdfrwt beam="2">  1       -4 0.22766950E-03 0.12500676E+03</pdfrwt>
<totfact> 0.36508252E+02</totfact>
</mgrwt>
</event>
<event>
 5    1  0.3321169E-002  0.1249930E+03  0.7818608E-02  0.1235080E+00
         -4   -1    0    0    0  501 -0.00000000000E+00  0.00000000000E+00  0.46997486127E+03  0.46997657721E+03  0.12700000000E+01 0. -1.
          4   -1    0    0  501    0  0.00000000000E+00 -0.00000000000E+00 -0.82604267510E+01  0.83574846759E+01  0.12700000000E+01 0. -1.
         25    2    1    2    0    0  0.00000000000E+00  0.00000000000E+00  0.46171443452E+03  0.47833406188E+03  0.12499302267E+03 0.  0.
    9000005    1    3    3    0    0  0.19662037570E+01 -0.61263817417E+02  0.18434950520E+03  0.19427522063E+03  0.10000000000E+01 0.  0.
    9000005    1    3    3    0    0 -0.19662037570E+01  0.61263817417E+02  0.27736492931E+03  0.28405884125E+03  0.10000000000E+01 0.  0.
<mgrwt>
<rscale>  0 0.12499302E+03</rscale>
<asrwt>0</asrwt>
<pdfrwt beam="2">  1        4 0.12784331E-02 0.12499302E+03</pdfrwt>
<pdfrwt beam="1">  1       -4 0.72311409E-01 0.12499302E+03</pdfrwt>
<totfact> 0.57594302E+03</totfact>
</mgrwt>
</event>
<event>
 5    1  0.3321169E-002  0.1250042E+03  0.7818608E-02  0.1235063E+00
         -4   -1    0    0    0  501 -0.00000000000E+00  0.00000000000E+00  0.14975434895E+03  0.14975973401E+03  0.12700000000E+01 0.  1.
          4   -1    0    0  501    0  0.00000000000E+00 -0.00000000000E+00 -0.26064808251E+02  0.26095730094E+02  0.12700000000E+01 0.  1.
         25    2    1    2    0    0  0.00000000000E+00  0.00000000000E+00  0.12368954070E+03  0.17585546410E+03  0.12500416703E+03 0.  0.
    9000005    1    3    3    0    0  0.35222708707E+02 -0.41191509135E+02  0.10561697261E+03  0.11871530877E+03  0.10000000000E+01 0.  0.
    9000005    1    3    3    0    0 -0.35222708707E+02  0.41191509135E+02  0.18072568088E+02  0.57140155327E+02  0.10000000000E+01 0.  0.
<mgrwt>
<rscale>  0 0.12500417E+03</rscale>
<asrwt>0</asrwt>
<pdfrwt beam="2">  1        4 0.40127633E-02 0.12500417E+03</pdfrwt>
<pdfrwt beam="1">  1       -4 0.23041924E-01 0.12500417E+03</pdfrwt>
<totfact> 0.94359577E+03</totfact>
</mgrwt>
</event>
<event>
 5    1  0.3321169E-002  0.1250123E+03  0.7818608E-02  0.1235050E+00
         -4   -1    0    0    0  501 -0.00000000000E+00  0.00000000000E+00  0.48973031624E+03  0.48973196296E+03  0.12700000000E+01 0. -1.
          4   -1    0    0  501    0  0.00000000000E+00 -0.00000000000E+00 -0.79256874414E+01  0.80267939689E+01  0.12700000000E+01 0. -1.
         25    2    1    2    0    0  0.00000000000E+00  0.00000000000E+00  0.48180462880E+03  0.49775875693E+03  0.12501231846E+03 0.  0.
    9000005    1    3    3    0    0 -0.47759480319E+02 -0.39821468112E+02  0.26586418148E+03  0.27304116957E+03  0.10000000000E+01 0.  0.
    9000005    1    3    3    0    0  0.47759480319E+02  0.39821468112E+02  0.21594044732E+03  0.22471758736E+03  0.10000000000E+01 0.  0.
<mgrwt>
<rscale>  0 0.12501232E+03</rscale>
<asrwt>0</asrwt>
<pdfrwt beam="2">  1        4 0.12272406E-02 0.12501232E+03</pdfrwt>
<pdfrwt beam="1">  1       -4 0.75351032E-01 0.12501232E+03</pdfrwt>
<totfact> 0.56023500E+03</totfact>
</mgrwt>
</event>
<event>
 5    1  0.3321169E-002  0.1249981E+03  0.7818608E-02  0.1235072E+00
          4   -1    0    0  501    0  0.00000000000E+00  0.00000000000E+00  0.22827813898E+02  0.22863114122E+02  0.12700000000E+01 0.  1.
         -4   -1    0    0    0  501 -0.00000000000E+00 -0.00000000000E+00 -0.17094291518E+03  0.17094763277E+03  0.12700000000E+01 0.  1.
         25    2    1    2    0    0  0.00000000000E+00  0.00000000000E+00 -0.14811510129E+03  0.19381074690E+03  0.12499808952E+03 0.  0.
    9000005    1    3    3    0    0 -0.10337209562E+02  0.21500569534E+02  0.15496943285E+02  0.28465551865E+02  0.10000000000E+01 0.  0.
    9000005    1    3    3    0    0  0.10337209562E+02 -0.21500569534E+02 -0.16361204457E+03  0.16534519503E+03  0.10000000000E+01 0.  0.
<mgrwt>
<rscale>  0 0.12499809E+03</rscale>
<asrwt>0</asrwt>
<pdfrwt beam="1">  1        4 0.35150498E-02 0.12499809E+03</pdfrwt>
<pdfrwt beam="2">  1       -4 0.26301988E-01 0.12499809E+03</pdfrwt>
<totfact> 0.91192354E+03</totfact>
</mgrwt>
</event>
<event>
 5    1  0.3321169E-002  0.1250010E+03  0.7818608E-02  0.1235068E+00
          4   -1    0    0  501    0  0.00000000000E+00  0.00000000000E+00  0.65312503312E+02  0.65324849704E+02  0.12700000000E+01 0. -1.
         -4   -1    0    0    0  501 -0.00000000000E+00 -0.00000000000E+00 -0.59784831802E+02  0.59798319488E+02  0.12700000000E+01 0. -1.
         25    2    1    2    0    0  0.00000000000E+00  0.00000000000E+00  0.55276715103E+01  0.12512316919E+03  0.12500100926E+03 0.  0.
    9000005    1    3    3    0    0 -0.25587625941E+02 -0.65252172669E+01  0.59458467522E+02  0.65066231040E+02  0.10000000000E+01 0.  0.
    9000005    1    3    3    0    0  0.25587625941E+02  0.65252172669E+01 -0.53930796012E+02  0.60056938152E+02  0.10000000000E+01 0.  0.
<mgrwt>
<rscale>  0 0.12500101E+03</rscale>
<asrwt>0</asrwt>
<pdfrwt beam="1">  1        4 0.10050065E-01 0.12500101E+03</pdfrwt>
<pdfrwt beam="2">  1       -4 0.91996536E-02 0.12500101E+03</pdfrwt>
<totfact> 0.10449950E+04</totfact>
</mgrwt>
</event>
<event>
 5    1  0.3321169E-002  0.1250013E+03  0.7818608E-02  0.1235067E+00
          4   -1    0    0  501    0  0.00000000000E+00  0.00000000000E+00  0.39761074120E+01  0.41740064868E+01  0.12700000000E+01 0.  1.
         -4   -1    0    0    0  501 -0.00000000000E+00 -0.00000000000E+00 -0.95839764099E+03  0.95839848245E+03  0.12700000000E+01 0.  1.
         25    2    1    2    0    0  0.00000000000E+00  0.00000000000E+00 -0.95442153358E+03  0.96257248893E+03  0.12500133077E+03 0.  0.
    9000005    1    3    3    0    0  0.11849524335E+02 -0.10560582231E+02 -0.11767035055E+02  0.19783837797E+02  0.10000000000E+01 0.  0.
    9000005    1    3    3    0    0 -0.11849524335E+02  0.10560582231E+02 -0.94265449852E+03  0.94278865113E+03  0.10000000000E+01 0.  0.
<mgrwt>
<rscale>  0 0.12500133E+03</rscale>
<asrwt>0</asrwt>
<pdfrwt beam="1">  1        4 0.62699733E-03 0.12500133E+03</pdfrwt>
<pdfrwt beam="2">  1       -4 0.14746090E+00 0.12500133E+03</pdfrwt>
<totfact> 0.31872875E+03</totfact>
</mgrwt>
</event>
<event>
 5    1  0.3321169E-002  0.1249968E+03  0.7818608E-02  0.1235074E+00
         -4   -1    0    0    0  501 -0.00000000000E+00  0.00000000000E+00  0.61998592822E+01  0.63285981954E+01  0.12700000000E+01 0. -1.
          4   -1    0    0  501    0  0.00000000000E+00 -0.00000000000E+00 -0.62341890944E+03  0.62342020303E+03  0.12700000000E+01 0. -1.
         25    2    1    2    0    0  0.00000000000E+00  0.00000000000E+00 -0.61721905016E+03  0.62974880123E+03  0.12499678703E+03 0.  0.
    9000005    1    3    3    0    0  0.57209311934E+02  0.22944572446E+02 -0.36040434198E+03  0.36563868572E+03  0.10000000000E+01 0.  0.
    9000005    1    3    3    0    0 -0.57209311934E+02 -0.22944572446E+02 -0.25681470818E+03  0.26411011551E+03  0.10000000000E+01 0.  0.
<mgrwt>
<rscale>  0 0.12499679E+03</rscale>
<asrwt>0</asrwt>
<pdfrwt beam="2">  1        4 0.95920555E-01 0.12499679E+03</pdfrwt>
<pdfrwt beam="1">  1       -4 0.96382750E-03 0.12499679E+03</pdfrwt>
<totfact> 0.47045389E+03</totfact>
</mgrwt>
</event>
<event>
 5    1  0.3321169E-002  0.1249995E+03  0.7818608E-02  0.1235070E+00
         -4   -1    0    0    0  501 -0.00000000000E+00  0.00000000000E+00  0.84861087395E+02  0.84870590041E+02  0.12700000000E+01 0.  1.
          4   -1    0    0  501    0  0.00000000000E+00 -0.00000000000E+00 -0.46009893138E+02  0.46027417553E+02  0.12700000000E+01 0.  1.
         25    2    1    2    0    0  0.00000000000E+00  0.00000000000E+00  0.38851194257E+02  0.13089800759E+03  0.12499949239E+03 0.  0.
    9000005    1    3    3    0    0 -0.22901906793E+02  0.50884706039E+02 -0.10034987828E+02  0.56704952377E+02  0.10000000000E+01 0.  0.
    9000005    1    3    3    0    0  0.22901906793E+02 -0.50884706039E+02  0.48886182086E+02  0.74193055216E+02  0.10000000000E+01 0.  0.
<mgrwt>
<rscale>  0 0.12499949E+03</rscale>
<asrwt>0</asrwt>
<pdfrwt beam="2">  1        4 0.70805242E-02 0.12499949E+03</pdfrwt>
<pdfrwt beam="1">  1       -4 0.13057631E-01 0.12499949E+03</pdfrwt>
<totfact> 0.10325395E+04</totfact>
</mgrwt>
</event>
<event>
 5    1  0.3321169E-002  0.1250108E+03  0.7818608E-02  0.1235052E+00
         -4   -1    0    0    0  501 -0.00000000000E+00  0.00000000000E+00  0.58895648713E+02  0.58909339983E+02  0.12700000000E+01 0. -1.
          4   -1    0    0  501    0  0.00000000000E+00 -0.00000000000E+00 -0.66308941767E+02  0.66321102662E+02  0.12700000000E+01 0. -1.
         25    2    1    2    0    0  0.00000000000E+00  0.00000000000E+00 -0.74132930545E+01  0.12523044265E+03  0.12501082694E+03 0.  0.
    9000005    1    3    3    0    0  0.15838085301E+02 -0.60426772156E+02 -0.56301691790E+01  0.62729088501E+02  0.10000000000E+01 0.  0.
    9000005    1    3    3    0    0 -0.15838085301E+02  0.60426772156E+02 -0.17831238755E+01  0.62501354144E+02  0.10000000000E+01 0.  0.
<mgrwt>
<rscale>  0 0.12501083E+03</rscale>
<asrwt>0</asrwt>
<pdfrwt beam="2">  1        4 0.10203364E-01 0.12501083E+03</pdfrwt>
<pdfrwt beam="1">  1       -4 0.90628577E-02 0.12501083E+03</pdfrwt>
<totfact> 0.10445303E+04</totfact>
</mgrwt>
</event>
<event>
 5    1  0.3321169E-002  0.1250003E+03  0.7818608E-02  0.1235069E+00
          4   -1    0    0  501    0  0.00000000000E+00  0.00000000000E+00  0.74895487383E+03  0.74895595059E+03  0.12700000000E+01 0. -1.
         -4   -1    0    0    0  501 -0.00000000000E+00 -0.00000000000E+00 -0.51372228197E+01  0.52918766330E+01  0.12700000000E+01 0. -1.
         25    2    1    2    0    0  0.00000000000E+00  0.00000000000E+00  0.74381765101E+03  0.75424782723E+03  0.12500034770E+03 0.  0.
    9000005    1    3    3    0    0 -0.63102492862E+01 -0.62153921030E+02  0.36267353374E+03  0.36801633282E+03  0.10000000000E+01 0.  0.
    9000005    1    3    3    0    0  0.63102492862E+01  0.62153921030E+02  0.38114411727E+03  0.38623149441E+03  0.10000000000E+01 0.  0.
<mgrwt>
<rscale>  0 0.12500035E+03</rscale>
<asrwt>0</asrwt>
<pdfrwt beam="1">  1        4 0.11523571E+00 0.12500035E+03</pdfrwt>
<pdfrwt beam="2">  1       -4 0.80232190E-03 0.12500035E+03</pdfrwt>
<totfact> 0.40371503E+03</totfact>
</mgrwt>
</event>
<event>
 5    1  0.3321169E-002  0.1249912E+03  0.7818608E-02  0.1235083E+00
          4   -1    0    0  501    0  0.00000000000E+00  0.00000000000E+00  0.65789621348E+03  0.65789743928E+03  0.12700000000E+01 0.  1.
         -4   -1    0    0    0  501 -0.00000000000E+00 -0.00000000000E+00 -0.58674797220E+01  0.60033505885E+01  0.12700000000E+01 0.  1.
         25    2    1    2    0    0  0.00000000000E+00  0.00000000000E+00  0.65202873376E+03  0.66390078987E+03  0.12499115626E+03 0.  0.
    9000005    1    3    3    0    0  0.43742608308E+02 -0.32520540223E+02  0.16371133177E+03  0.17254970723E+03  0.10000000000E+01 0.  0.
    9000005    1    3    3    0    0 -0.43742608308E+02  0.32520540223E+02  0.48831740199E+03  0.49135108263E+03  0.10000000000E+01 0.  0.
<mgrwt>
<rscale>  0 0.12499116E+03</rscale>
<asrwt>0</asrwt>
<pdfrwt beam="1">  1        4 0.10122526E+00 0.12499116E+03</pdfrwt>
<pdfrwt beam="2">  1       -4 0.91323586E-03 0.12499116E+03</pdfrwt>
<totfact> 0.45070725E+03</totfact>
</mgrwt>
</event>
<event>
 5    1  0.3321169E-002  0.1250008E+03  0.7818608E-02  0.1235068E+00
          4   -1    0    0  501    0  0.00000000000E+00  0.00000000000E+00  0.29545874717E+03  0.29546147664E+03  0.12700000000E+01 0.  1.
         -4   -1    0    0    0  501 -0.00000000000E+00 -0.00000000000E+00 -0.13187838113E+02  0.13248848029E+02  0.12700000000E+01 0.  1.
         25    2    1    2    0    0  0.00000000000E+00  0.00000000000E+00  0.28227090905E+03  0.30871032467E+03  0.12500079383E+03 0.  0.
    9000005    1    3    3    0    0  0.14489399123E+02 -0.60349428066E+02  0.15916629965E+03  0.17084176041E+03  0.10000000000E+01 0.  0.
    9000005    1    3    3    0    0 -0.14489399123E+02  0.60349428066E+02  0.12310460940E+03  0.13786856426E+03  0.10000000000E+01 0.  0.
<mgrwt>
<rscale>  0 0.12500079E+03</rscale>
<asrwt>0</asrwt>
<pdfrwt beam="1">  1        4 0.45460090E-01 0.12500079E+03</pdfrwt>
<pdfrwt beam="2">  1       -4 0.20338014E-02 0.12500079E+03</pdfrwt>
<totfact> 0.74517751E+03</totfact>
</mgrwt>
</event>
<event>
 5    1  0.3321169E-002  0.1249973E+03  0.7818608E-02  0.1235073E+00
          4   -1    0    0  501    0  0.00000000000E+00  0.00000000000E+00  0.44371227996E+02  0.44389399342E+02  0.12700000000E+01 0. -1.
         -4   -1    0    0    0  501 -0.00000000000E+00 -0.00000000000E+00 -0.87991121100E+02  0.88000285752E+02  0.12700000000E+01 0. -1.
         25    2    1    2    0    0  0.00000000000E+00  0.00000000000E+00 -0.43619893104E+02  0.13238968509E+03  0.12499733455E+03 0.  0.
    9000005    1    3    3    0    0 -0.31367989913E+02 -0.47292872975E+02  0.59006227430E+01  0.57064734944E+02  0.10000000000E+01 0.  0.
    9000005    1    3    3    0    0  0.31367989913E+02  0.47292872975E+02 -0.49520515847E+02  0.75324950150E+02  0.10000000000E+01 0.  0.
<mgrwt>
<rscale>  0 0.12499733E+03</rscale>
<asrwt>0</asrwt>
<pdfrwt beam="1">  1        4 0.68284455E-02 0.12499733E+03</pdfrwt>
<pdfrwt beam="2">  1       -4 0.13539198E-01 0.12499733E+03</pdfrwt>
<totfact> 0.10294007E+04</totfact>
</mgrwt>
</event>
<event>
 5    1  0.3321169E-002  0.1249994E+03  0.7818608E-02  0.1235070E+00
          4   -1    0    0  501    0  0.00000000000E+00  0.00000000000E+00  0.32641865408E+03  0.32642112467E+03  0.12700000000E+01 0. -1.
         -4   -1    0    0    0  501 -0.00000000000E+00 -0.00000000000E+00 -0.11930657275E+02  0.11998061636E+02  0.12700000000E+01 0. -1.
         25    2    1    2    0    0  0.00000000000E+00  0.00000000000E+00  0.31448799680E+03  0.33841918631E+03  0.12499938210E+03 0.  0.
    9000005    1    3    3    0    0  0.25227358962E+02  0.45535706862E+02  0.63642249964E+02  0.82226858265E+02  0.10000000000E+01 0.  0.
    9000005    1    3    3    0    0 -0.25227358962E+02 -0.45535706862E+02  0.25084574684E+03  0.25619232804E+03  0.10000000000E+01 0.  0.
<mgrwt>
<rscale>  0 0.12499938E+03</rscale>
<asrwt>0</asrwt>
<pdfrwt beam="1">  1        4 0.50223620E-01 0.12499938E+03</pdfrwt>
<pdfrwt beam="2">  1       -4 0.18408611E-02 0.12499938E+03</pdfrwt>
<totfact> 0.71018639E+03</totfact>
</mgrwt>
</event>
<event>
 5    1  0.3321169E-002  0.1250006E+03  0.7818608E-02  0.1235068E+00
          4   -1    0    0  501    0  0.00000000000E+00  0.00000000000E+00  0.87171116149E+02  0.87180367002E+02  0.12700000000E+01 0. -1.
         -4   -1    0    0    0  501 -0.00000000000E+00 -0.00000000000E+00 -0.44791111838E+02  0.44809112909E+02  0.12700000000E+01 0. -1.
         25    2    1    2    0    0  0.00000000000E+00  0.00000000000E+00  0.42380004310E+02  0.13198947991E+03  0.12500063217E+03 0.  0.
    9000005    1    3    3    0    0 -0.20893061665E+02 -0.46914718217E+02 -0.16406620500E+02  0.53922982181E+02  0.10000000000E+01 0.  0.
    9000005    1    3    3    0    0  0.20893061665E+02  0.46914718217E+02  0.58786624811E+02  0.78066497730E+02  0.10000000000E+01 0.  0.
<mgrwt>
<rscale>  0 0.12500063E+03</rscale>
<asrwt>0</asrwt>
<pdfrwt beam="1">  1        4 0.13413037E-01 0.12500063E+03</pdfrwt>
<pdfrwt beam="2">  1       -4 0.68930366E-02 0.12500063E+03</pdfrwt>
<totfact> 0.10301776E+04</totfact>
</mgrwt>
</event>
<event>
 5    1  0.3321169E-002  0.1249995E+03  0.7818608E-02  0.1235070E+00
          4   -1    0    0  501    0  0.00000000000E+00  0.00000000000E+00  0.86357451177E+01  0.87286306909E+01  0.12700000000E+01 0.  1.
         -4   -1    0    0    0  501 -0.00000000000E+00 -0.00000000000E+00 -0.44981779172E+03  0.44981958455E+03  0.12700000000E+01 0.  1.
         25    2    1    2    0    0  0.00000000000E+00  0.00000000000E+00 -0.44118204660E+03  0.45854821524E+03  0.12499946984E+03 0.  0.
    9000005    1    3    3    0    0 -0.32172355815E+02  0.52269159517E+02 -0.17748280500E+03  0.18779848665E+03  0.10000000000E+01 0.  0.
    9000005    1    3    3    0    0  0.32172355815E+02 -0.52269159517E+02 -0.26369924160E+03  0.27074972860E+03  0.10000000000E+01 0.  0.
<mgrwt>
<rscale>  0 0.12499947E+03</rscale>
<asrwt>0</asrwt>
<pdfrwt beam="1">  1        4 0.13358595E-02 0.12499947E+03</pdfrwt>
<pdfrwt beam="2">  1       -4 0.69210002E-01 0.12499947E+03</pdfrwt>
<totfact> 0.59231051E+03</totfact>
</mgrwt>
</event>
<event>
 4    1  0.3321169E-002  0.1250735E+03  0.7818608E-02  0.1234954E+00
         -4   -1    0    0    0  501 -0.00000000000E+00  0.00000000000E+00  0.11427074848E+03  0.11427780563E+03  0.12700000000E+01 0.  1.
          4   -1    0    0  501    0  0.00000000000E+00 -0.00000000000E+00 -0.34204489248E+02  0.34228058442E+02  0.12700000000E+01 0.  1.
    9000005    1    1    2    0    0 -0.51127341760E+02  0.28201463274E+02  0.13469437326E+02  0.59931238500E+02  0.10000000000E+01 0.  0.
    9000005    1    1    2    0    0  0.51127341760E+02 -0.28201463274E+02  0.66596821911E+02  0.88574625570E+02  0.10000000000E+01 0.  0.
<mgrwt>
<rscale>  0 0.12507352E+03</rscale>
<asrwt>0</asrwt>
<pdfrwt beam="2">  1        4 0.52645849E-02 0.12507352E+03</pdfrwt>
<pdfrwt beam="1">  1       -4 0.17582471E-01 0.12507352E+03</pdfrwt>
<totfact> 0.99437714E+03</totfact>
</mgrwt>
</event>
<event>
 5    1  0.3321169E-002  0.1250005E+03  0.7818608E-02  0.1235068E+00
         -4   -1    0    0    0  501 -0.00000000000E+00  0.00000000000E+00  0.48322175008E+02  0.48338861153E+02  0.12700000000E+01 0. -1.
          4   -1    0    0  501    0  0.00000000000E+00 -0.00000000000E+00 -0.80802686442E+02  0.80812666311E+02  0.12700000000E+01 0. -1.
         25    2    1    2    0    0  0.00000000000E+00  0.00000000000E+00 -0.32480511434E+02  0.12915152746E+03  0.12500053369E+03 0.  0.
    9000005    1    3    3    0    0  0.56284759384E+02  0.13133128095E+01 -0.44262566323E+02  0.71623136673E+02  0.10000000000E+01 0.  0.
    9000005    1    3    3    0    0 -0.56284759384E+02 -0.13133128095E+01  0.11782054889E+02  0.57528390790E+02  0.10000000000E+01 0.  0.
<mgrwt>
<rscale>  0 0.12500053E+03</rscale>
<asrwt>0</asrwt>
<pdfrwt beam="2">  1        4 0.12433234E-01 0.12500053E+03</pdfrwt>
<pdfrwt beam="1">  1       -4 0.74362320E-02 0.12500053E+03</pdfrwt>
<totfact> 0.10362567E+04</totfact>
</mgrwt>
</event>
<event>
 5    1  0.3321169E-002  0.1250000E+03  0.7818608E-02  0.1235069E+00
          4   -1    0    0  501    0  0.00000000000E+00  0.00000000000E+00  0.70229541296E+02  0.70241023417E+02  0.12700000000E+01 0. -1.
         -4   -1    0    0    0  501 -0.00000000000E+00 -0.00000000000E+00 -0.55597859483E+02  0.55612362647E+02  0.12700000000E+01 0. -1.
         25    2    1    2    0    0  0.00000000000E+00  0.00000000000E+00  0.14631681812E+02  0.12585338606E+03  0.12499995468E+03 0.  0.
    9000005    1    3    3    0    0 -0.32661861957E+02 -0.43256645815E+02  0.38629834379E+02  0.66567249739E+02  0.10000000000E+01 0.  0.
    9000005    1    3    3    0    0  0.32661861957E+02  0.43256645815E+02 -0.23998152567E+02  0.59286136324E+02  0.10000000000E+01 0.  0.
<mgrwt>
<rscale>  0 0.12499995E+03</rscale>
<asrwt>0</asrwt>
<pdfrwt beam="1">  1        4 0.10806544E-01 0.12499995E+03</pdfrwt>
<pdfrwt beam="2">  1       -4 0.85555157E-02 0.12499995E+03</pdfrwt>
<totfact> 0.10434183E+04</totfact>
</mgrwt>
</event>
<event>
 5    1  0.3321169E-002  0.1250016E+03  0.7818608E-02  0.1235067E+00
         -4   -1    0    0    0  501 -0.00000000000E+00  0.00000000000E+00  0.44259538683E+02  0.44277755865E+02  0.12700000000E+01 0. -1.
          4   -1    0    0  501    0  0.00000000000E+00 -0.00000000000E+00 -0.88219119199E+02  0.88228260168E+02  0.12700000000E+01 0. -1.
         25    2    1    2    0    0  0.00000000000E+00  0.00000000000E+00 -0.43959580516E+02  0.13250601603E+03  0.12500159825E+03 0.  0.
    9000005    1    3    3    0    0 -0.19241746646E+02  0.33939559863E+02  0.29769132099E+02  0.49085025859E+02  0.10000000000E+01 0.  0.
    9000005    1    3    3    0    0  0.19241746646E+02 -0.33939559863E+02 -0.73728712616E+02  0.83420990174E+02  0.10000000000E+01 0.  0.
<mgrwt>
<rscale>  0 0.12500160E+03</rscale>
<asrwt>0</asrwt>
<pdfrwt beam="2">  1        4 0.13574277E-01 0.12500160E+03</pdfrwt>
<pdfrwt beam="1">  1       -4 0.68112643E-02 0.12500160E+03</pdfrwt>
<totfact> 0.10290539E+04</totfact>
</mgrwt>
</event>
<event>
 5    1  0.3321169E-002  0.1250004E+03  0.7818608E-02  0.1235069E+00
          4   -1    0    0  501    0  0.00000000000E+00  0.00000000000E+00  0.57839875545E+02  0.57853816668E+02  0.12700000000E+01 0.  1.
         -4   -1    0    0    0  501 -0.00000000000E+00 -0.00000000000E+00 -0.67507997306E+02  0.67519942242E+02  0.12700000000E+01 0.  1.
         25    2    1    2    0    0  0.00000000000E+00  0.00000000000E+00 -0.96681217611E+01  0.12537375891E+03  0.12500042738E+03 0.  0.
    9000005    1    3    3    0    0  0.41489554158E+02 -0.15173095113E+02 -0.49166419820E+02  0.66105542562E+02  0.10000000000E+01 0.  0.
    9000005    1    3    3    0    0 -0.41489554158E+02  0.15173095113E+02  0.39498298059E+02  0.59268216348E+02  0.10000000000E+01 0.  0.
<mgrwt>
<rscale>  0 0.12500043E+03</rscale>
<asrwt>0</asrwt>
<pdfrwt beam="1">  1        4 0.89004336E-02 0.12500043E+03</pdfrwt>
<pdfrwt beam="2">  1       -4 0.10387837E-01 0.12500043E+03</pdfrwt>
<totfact> 0.10444648E+04</totfact>
</mgrwt>
</event>
<event>
 5    1  0.3321169E-002  0.1249877E+03  0.7818608E-02  0.1235088E+00
          4   -1    0    0  501    0  0.00000000000E+00  0.00000000000E+00  0.40638819324E+03  0.40639017767E+03  0.12700000000E+01 0. -1.
         -4   -1    0    0    0  501 -0.00000000000E+00 -0.00000000000E+00 -0.95662556454E+01  0.96501889657E+01  0.12700000000E+01 0. -1.
         25    2    1    2    0    0  0.00000000000E+00  0.00000000000E+00  0.39682193760E+03  0.41604036664E+03  0.12498774545E+03 0.  0.
    9000005    1    3    3    0    0 -0.29871206972E+02 -0.41103137194E+02  0.31947166972E+03  0.32348864686E+03  0.10000000000E+01 0.  0.
    9000005    1    3    3    0    0  0.29871206972E+02  0.41103137194E+02  0.77350267883E+02  0.92551719783E+02  0.10000000000E+01 0.  0.
<mgrwt>
<rscale>  0 0.12498775E+03</rscale>
<asrwt>0</asrwt>
<pdfrwt beam="1">  1        4 0.62527854E-01 0.12498775E+03</pdfrwt>
<pdfrwt beam="2">  1       -4 0.14783411E-02 0.12498775E+03</pdfrwt>
<totfact> 0.63039107E+03</totfact>
</mgrwt>
</event>
<event>
 5    1  0.3321169E-002  0.1249998E+03  0.7818608E-02  0.1235070E+00
          4   -1    0    0  501    0  0.00000000000E+00  0.00000000000E+00  0.83101477511E+02  0.83111181345E+02  0.12700000000E+01 0.  1.
         -4   -1    0    0    0  501 -0.00000000000E+00 -0.00000000000E+00 -0.46984630880E+02  0.47001791869E+02  0.12700000000E+01 0.  1.
         25    2    1    2    0    0  0.00000000000E+00  0.00000000000E+00  0.36116846631E+02  0.13011297321E+03  0.12499983675E+03 0.  0.
    9000005    1    3    3    0    0 -0.35502374434E+02  0.50390531415E+02  0.73611008310E+01  0.62087116636E+02  0.10000000000E+01 0.  0.
    9000005    1    3    3    0    0  0.35502374434E+02 -0.50390531415E+02  0.28755745800E+02  0.68025856578E+02  0.10000000000E+01 0.  0.
<mgrwt>
<rscale>  0 0.12499984E+03</rscale>
<asrwt>0</asrwt>
<pdfrwt beam="1">  1        4 0.12786909E-01 0.12499984E+03</pdfrwt>
<pdfrwt beam="2">  1       -4 0.72304714E-02 0.12499984E+03</pdfrwt>
<totfact> 0.10342130E+04</totfact>
</mgrwt>
</event>
<event>
 5    1  0.3321169E-002  0.1250085E+03  0.7818608E-02  0.1235056E+00
         -4   -1    0    0    0  501 -0.00000000000E+00  0.00000000000E+00  0.16002921469E+03  0.16003425400E+03  0.12700000000E+01 0. -1.
          4   -1    0    0  501    0  0.00000000000E+00 -0.00000000000E+00 -0.24390994460E+02  0.24424035513E+02  0.12700000000E+01 0. -1.
         25    2    1    2    0    0  0.00000000000E+00  0.00000000000E+00  0.13563822023E+03  0.18445828951E+03  0.12500853484E+03 0.  0.
    9000005    1    3    3    0    0  0.29433280186E+02  0.48463002994E+02  0.29036631833E+02  0.63711118574E+02  0.10000000000E+01 0.  0.
    9000005    1    3    3    0    0 -0.29433280186E+02 -0.48463002994E+02  0.10660158839E+03  0.12074717094E+03  0.10000000000E+01 0.  0.
<mgrwt>
<rscale>  0 0.12500853E+03</rscale>
<asrwt>0</asrwt>
<pdfrwt beam="2">  1        4 0.37553898E-02 0.12500853E+03</pdfrwt>
<pdfrwt beam="1">  1       -4 0.24622809E-01 0.12500853E+03</pdfrwt>
<totfact> 0.92802843E+03</totfact>
</mgrwt>
</event>
<event>
 5    1  0.3321169E-002  0.1249992E+03  0.7818608E-02  0.1235071E+00
         -4   -1    0    0    0  501 -0.00000000000E+00  0.00000000000E+00  0.49041543404E+03  0.49041707846E+03  0.12700000000E+01 0.  1.
          4   -1    0    0  501    0  0.00000000000E+00 -0.00000000000E+00 -0.79127869840E+01  0.80140562672E+01  0.12700000000E+01 0.  1.
         25    2    1    2    0    0  0.00000000000E+00  0.00000000000E+00  0.48250264705E+03  0.49843113472E+03  0.12499916659E+03 0.  0.
    9000005    1    3    3    0    0 -0.42097361786E+02  0.26148397083E+02  0.89450928284E+02  0.10226629508E+03  0.10000000000E+01 0.  0.
    9000005    1    3    3    0    0  0.42097361786E+02 -0.26148397083E+02  0.39305171877E+03  0.39616483964E+03  0.10000000000E+01 0.  0.
<mgrwt>
<rscale>  0 0.12499917E+03</rscale>
<asrwt>0</asrwt>
<pdfrwt beam="2">  1        4 0.12252684E-02 0.12499917E+03</pdfrwt>
<pdfrwt beam="1">  1       -4 0.75456436E-01 0.12499917E+03</pdfrwt>
<totfact> 0.55987326E+03</totfact>
</mgrwt>
</event>
<event>
 5    1  0.3321169E-002  0.1250001E+03  0.7818608E-02  0.1235069E+00
          4   -1    0    0  501    0  0.00000000000E+00  0.00000000000E+00  0.11255265573E+03  0.11255982059E+03  0.12700000000E+01 0.  1.
         -4   -1    0    0    0  501 -0.00000000000E+00 -0.00000000000E+00 -0.34686162825E+02  0.34709404943E+02  0.12700000000E+01 0.  1.
         25    2    1    2    0    0  0.00000000000E+00  0.00000000000E+00  0.77866492905E+02  0.14726922554E+03  0.12500013629E+03 0.  0.
    9000005    1    3    3    0    0  0.42887760493E+02 -0.45367312976E+02  0.35662853086E+02  0.71905439134E+02  0.10000000000E+01 0.  0.
    9000005    1    3    3    0    0 -0.42887760493E+02  0.45367312976E+02  0.42203639819E+02  0.75363786402E+02  0.10000000000E+01 0.  0.
<mgrwt>
<rscale>  0 0.12500014E+03</rscale>
<asrwt>0</asrwt>
<pdfrwt beam="1">  1        4 0.17318133E-01 0.12500014E+03</pdfrwt>
<pdfrwt beam="2">  1       -4 0.53386716E-02 0.12500014E+03</pdfrwt>
<totfact> 0.99850542E+03</totfact>
</mgrwt>
</event>
<event>
 5    1  0.3321169E-002  0.1250006E+03  0.7818608E-02  0.1235068E+00
          4   -1    0    0  501    0  0.00000000000E+00  0.00000000000E+00  0.26914314768E+02  0.26944261717E+02  0.12700000000E+01 0. -1.
         -4   -1    0    0    0  501 -0.00000000000E+00 -0.00000000000E+00 -0.14502455068E+03  0.14503011135E+03  0.12700000000E+01 0. -1.
         25    2    1    2    0    0  0.00000000000E+00  0.00000000000E+00 -0.11811023591E+03  0.17197437307E+03  0.12500062866E+03 0.  0.
    9000005    1    3    3    0    0 -0.45881356507E+02 -0.18808451990E+02 -0.67311548214E+01  0.50051625212E+02  0.10000000000E+01 0.  0.
    9000005    1    3    3    0    0  0.45881356507E+02  0.18808451990E+02 -0.11137908109E+03  0.12192274786E+03  0.10000000000E+01 0.  0.
<mgrwt>
<rscale>  0 0.12500063E+03</rscale>
<asrwt>0</asrwt>
<pdfrwt beam="1">  1        4 0.41433952E-02 0.12500063E+03</pdfrwt>
<pdfrwt beam="2">  1       -4 0.22314200E-01 0.12500063E+03</pdfrwt>
<totfact> 0.95080575E+03</totfact>
</mgrwt>
</event>
<event>
 5    1  0.3321169E-002  0.1250153E+03  0.7818608E-02  0.1235045E+00
         -4   -1    0    0    0  501 -0.00000000000E+00  0.00000000000E+00  0.62329924995E+02  0.62342862060E+02  0.12700000000E+01 0. -1.
          4   -1    0    0  501    0  0.00000000000E+00 -0.00000000000E+00 -0.62659980834E+02  0.62672849769E+02  0.12700000000E+01 0. -1.
         25    2    1    2    0    0  0.00000000000E+00  0.00000000000E+00 -0.33005583927E+00  0.12501571183E+03  0.12501527614E+03 0.  0.
    9000005    1    3    3    0    0  0.59491906084E+02  0.17693315523E+02 -0.75042982186E+01  0.62527232431E+02  0.10000000000E+01 0.  0.
    9000005    1    3    3    0    0 -0.59491906084E+02 -0.17693315523E+02  0.71742423793E+01  0.62488479398E+02  0.10000000000E+01 0.  0.
<mgrwt>
<rscale>  0 0.12501528E+03</rscale>
<asrwt>0</asrwt>
<pdfrwt beam="2">  1        4 0.96419821E-02 0.12501528E+03</pdfrwt>
<pdfrwt beam="1">  1       -4 0.95912043E-02 0.12501528E+03</pdfrwt>
<totfact> 0.10448913E+04</totfact>
</mgrwt>
</event>
<event>
 5    1  0.3321169E-002  0.1250005E+03  0.7818608E-02  0.1235069E+00
          4   -1    0    0  501    0  0.00000000000E+00  0.00000000000E+00  0.19601229424E+03  0.19601640848E+03  0.12700000000E+01 0.  1.
         -4   -1    0    0    0  501 -0.00000000000E+00 -0.00000000000E+00 -0.19904181888E+02  0.19944657345E+02  0.12700000000E+01 0.  1.
         25    2    1    2    0    0  0.00000000000E+00  0.00000000000E+00  0.17610811235E+03  0.21596106583E+03  0.12500045886E+03 0.  0.
    9000005    1    3    3    0    0  0.28175654078E+02  0.14711625994E+02  0.18101201589E+03  0.18378424665E+03  0.10000000000E+01 0.  0.
    9000005    1    3    3    0    0 -0.28175654078E+02 -0.14711625994E+02 -0.49039035360E+01  0.32176819171E+02  0.10000000000E+01 0.  0.
<mgrwt>
<rscale>  0 0.12500046E+03</rscale>
<asrwt>0</asrwt>
<pdfrwt beam="1">  1        4 0.30159168E-01 0.12500046E+03</pdfrwt>
<pdfrwt beam="2">  1       -4 0.30656118E-02 0.12500046E+03</pdfrwt>
<totfact> 0.87510622E+03</totfact>
</mgrwt>
</event>
<event>
 5    1  0.3321169E-002  0.1249996E+03  0.7818608E-02  0.1235070E+00
         -4   -1    0    0    0  501 -0.00000000000E+00  0.00000000000E+00  0.16241221107E+02  0.16290799951E+02  0.12700000000E+01 0. -1.
          4   -1    0    0  501    0  0.00000000000E+00 -0.00000000000E+00 -0.24009516700E+03  0.24009852586E+03  0.12700000000E+01 0. -1.
         25    2    1    2    0    0  0.00000000000E+00  0.00000000000E+00 -0.22385394590E+03  0.25638932581E+03  0.12499958918E+03 0.  0.
    9000005    1    3    3    0    0  0.51049544322E+02  0.26257250934E+02 -0.61279427928E+02  0.83974207286E+02  0.10000000000E+01 0.  0.
    9000005    1    3    3    0    0 -0.51049544322E+02 -0.26257250934E+02 -0.16257451797E+03  0.17241511852E+03  0.10000000000E+01 0.  0.
<mgrwt>
<rscale>  0 0.12499959E+03</rscale>
<asrwt>0</asrwt>
<pdfrwt beam="2">  1        4 0.36941788E-01 0.12499959E+03</pdfrwt>
<pdfrwt beam="1">  1       -4 0.25027217E-02 0.12499959E+03</pdfrwt>
<totfact> 0.81416199E+03</totfact>
</mgrwt>
</event>
<event>
 5    1  0.3321169E-002  0.1250004E+03  0.7818608E-02  0.1235069E+00
          4   -1    0    0  501    0  0.00000000000E+00  0.00000000000E+00  0.37004579574E+03  0.37004797506E+03  0.12700000000E+01 0. -1.
         -4   -1    0    0    0  501 -0.00000000000E+00 -0.00000000000E+00 -0.10515781672E+02  0.10592193549E+02  0.12700000000E+01 0. -1.
         25    2    1    2    0    0  0.00000000000E+00  0.00000000000E+00  0.35953001406E+03  0.38064016860E+03  0.12500042777E+03 0.  0.
    9000005    1    3    3    0    0  0.12989578506E+02 -0.32014540919E+02  0.33833363639E+03  0.34009455964E+03  0.10000000000E+01 0.  0.
    9000005    1    3    3    0    0 -0.12989578506E+02  0.32014540919E+02  0.21196377670E+02  0.40545608965E+02  0.10000000000E+01 0.  0.
<mgrwt>
<rscale>  0 0.12500043E+03</rscale>
<asrwt>0</asrwt>
<pdfrwt beam="1">  1        4 0.56936176E-01 0.12500043E+03</pdfrwt>
<pdfrwt beam="2">  1       -4 0.16238578E-02 0.12500043E+03</pdfrwt>
<totfact> 0.66479638E+03</totfact>
</mgrwt>
</event>
<event>
 5    1  0.3321169E-002  0.1250008E+03  0.7818608E-02  0.1235068E+00
          4   -1    0    0  501    0  0.00000000000E+00  0.00000000000E+00  0.32535034458E+02  0.32559812149E+02  0.12700000000E+01 0.  1.
         -4   -1    0    0    0  501 -0.00000000000E+00 -0.00000000000E+00 -0.11999048886E+03  0.11999720962E+03  0.12700000000E+01 0.  1.
         25    2    1    2    0    0  0.00000000000E+00  0.00000000000E+00 -0.87455454405E+02  0.15255702177E+03  0.12500075355E+03 0.  0.
    9000005    1    3    3    0    0 -0.18070477682E+02 -0.27951514249E+02 -0.10827859983E+03  0.11328320482E+03  0.10000000000E+01 0.  0.
    9000005    1    3    3    0    0  0.18070477682E+02  0.27951514249E+02  0.20823145428E+02  0.39273816953E+02  0.10000000000E+01 0.  0.
<mgrwt>
<rscale>  0 0.12500075E+03</rscale>
<asrwt>0</asrwt>
<pdfrwt beam="1">  1        4 0.50078129E-02 0.12500075E+03</pdfrwt>
<pdfrwt beam="2">  1       -4 0.18462498E-01 0.12500075E+03</pdfrwt>
<totfact> 0.98794740E+03</totfact>
</mgrwt>
</event>
<event>
 5    1  0.3321169E-002  0.1250019E+03  0.7818608E-02  0.1235066E+00
         -4   -1    0    0    0  501 -0.00000000000E+00  0.00000000000E+00  0.17119544042E+03  0.17120015105E+03  0.12700000000E+01 0. -1.
          4   -1    0    0  501    0  0.00000000000E+00 -0.00000000000E+00 -0.22795471127E+02  0.22830821359E+02  0.12700000000E+01 0. -1.
         25    2    1    2    0    0  0.00000000000E+00  0.00000000000E+00  0.14839996929E+03  0.19403097241E+03  0.12500186946E+03 0.  0.
    9000005    1    3    3    0    0  0.24089488840E+02  0.24583621671E+02 -0.67646931513E+01  0.35091580194E+02  0.10000000000E+01 0.  0.
    9000005    1    3    3    0    0 -0.24089488840E+02 -0.24583621671E+02  0.15516466244E+03  0.15893939222E+03  0.10000000000E+01 0.  0.
<mgrwt>
<rscale>  0 0.12500187E+03</rscale>
<asrwt>0</asrwt>
<pdfrwt beam="2">  1        4 0.35100771E-02 0.12500187E+03</pdfrwt>
<pdfrwt beam="1">  1       -4 0.26340842E-01 0.12500187E+03</pdfrwt>
<totfact> 0.91146814E+03</totfact>
</mgrwt>
</event>
<event>
 5    1  0.3321169E-002  0.1250016E+03  0.7818608E-02  0.1235067E+00
          4   -1    0    0  501    0  0.00000000000E+00  0.00000000000E+00  0.36728079967E+03  0.36728299540E+03  0.12700000000E+01 0. -1.
         -4   -1    0    0    0  501 -0.00000000000E+00 -0.00000000000E+00 -0.10595717088E+02  0.10671556616E+02  0.12700000000E+01 0. -1.
         25    2    1    2    0    0  0.00000000000E+00  0.00000000000E+00  0.35668508258E+03  0.37795455201E+03  0.12500158099E+03 0.  0.
    9000005    1    3    3    0    0 -0.36559635718E+02  0.31557166364E+02  0.29825735846E+03  0.30214386240E+03  0.10000000000E+01 0.  0.
    9000005    1    3    3    0    0  0.36559635718E+02 -0.31557166364E+02  0.58427724124E+02  0.75810689609E+02  0.10000000000E+01 0.  0.
<mgrwt>
<rscale>  0 0.12500158E+03</rscale>
<asrwt>0</asrwt>
<pdfrwt beam="1">  1        4 0.56510741E-01 0.12500158E+03</pdfrwt>
<pdfrwt beam="2">  1       -4 0.16361130E-02 0.12500158E+03</pdfrwt>
<totfact> 0.66752538E+03</totfact>
</mgrwt>
</event>
<event>
 5    1  0.3321169E-002  0.1249978E+03  0.7818608E-02  0.1235073E+00
         -4   -1    0    0    0  501 -0.00000000000E+00  0.00000000000E+00  0.52751092509E+02  0.52766378129E+02  0.12700000000E+01 0.  1.
          4   -1    0    0  501    0  0.00000000000E+00 -0.00000000000E+00 -0.74016532813E+02  0.74027427550E+02  0.12700000000E+01 0.  1.
         25    2    1    2    0    0  0.00000000000E+00  0.00000000000E+00 -0.21265440305E+02  0.12679380568E+03  0.12499780081E+03 0.  0.
    9000005    1    3    3    0    0  0.24819581619E+02 -0.35345482686E+02  0.35180331531E+02  0.55713288403E+02  0.10000000000E+01 0.  0.
    9000005    1    3    3    0    0 -0.24819581619E+02  0.35345482686E+02 -0.56445771836E+02  0.71080517276E+02  0.10000000000E+01 0.  0.
<mgrwt>
<rscale>  0 0.12499780E+03</rscale>
<asrwt>0</asrwt>
<pdfrwt beam="2">  1        4 0.11389173E-01 0.12499780E+03</pdfrwt>
<pdfrwt beam="1">  1       -4 0.81175666E-02 0.12499780E+03</pdfrwt>
<totfact> 0.10414145E+04</totfact>
</mgrwt>
</event>
<event>
 5    1  0.3321169E-002  0.1249998E+03  0.7818608E-02  0.1235070E+00
          4   -1    0    0  501    0  0.00000000000E+00  0.00000000000E+00  0.75808160386E+03  0.75808266767E+03  0.12700000000E+01 0.  1.
         -4   -1    0    0    0  501 -0.00000000000E+00 -0.00000000000E+00 -0.50734530752E+01  0.52299929356E+01  0.12700000000E+01 0.  1.
         25    2    1    2    0    0  0.00000000000E+00  0.00000000000E+00  0.75300815079E+03  0.76331266060E+03  0.12499977073E+03 0.  0.
    9000005    1    3    3    0    0 -0.45094943407E+02 -0.40936559380E+02  0.46196904392E+03  0.46596754539E+03  0.10000000000E+01 0.  0.
    9000005    1    3    3    0    0  0.45094943407E+02  0.40936559380E+02  0.29103910687E+03  0.29734511522E+03  0.10000000000E+01 0.  0.
<mgrwt>
<rscale>  0 0.12499977E+03</rscale>
<asrwt>0</asrwt>
<pdfrwt beam="1">  1        4 0.11664000E+00 0.12499977E+03</pdfrwt>
<pdfrwt beam="2">  1       -4 0.79265502E-03 0.12499977E+03</pdfrwt>
<totfact> 0.39945563E+03</totfact>
</mgrwt>
</event>
<event>
 5    1  0.3321169E-002  0.1250007E+03  0.7818608E-02  0.1235068E+00
          4   -1    0    0  501    0  0.00000000000E+00  0.00000000000E+00  0.19527140957E+03  0.19527553942E+03  0.12700000000E+01 0. -1.
         -4   -1    0    0    0  501 -0.00000000000E+00 -0.00000000000E+00 -0.19979915043E+02  0.20020237389E+02  0.12700000000E+01 0. -1.
         25    2    1    2    0    0  0.00000000000E+00  0.00000000000E+00  0.17529149453E+03  0.21529577681E+03  0.12500065383E+03 0.  0.
    9000005    1    3    3    0    0  0.19806800627E+01  0.37328540627E+02  0.17390038886E+03  0.17787548534E+03  0.10000000000E+01 0.  0.
    9000005    1    3    3    0    0 -0.19806800627E+01 -0.37328540627E+02  0.13911056682E+01  0.37420291471E+02  0.10000000000E+01 0.  0.
<mgrwt>
<rscale>  0 0.12500065E+03</rscale>
<asrwt>0</asrwt>
<pdfrwt beam="1">  1        4 0.30045175E-01 0.12500065E+03</pdfrwt>
<pdfrwt beam="2">  1       -4 0.30772525E-02 0.12500065E+03</pdfrwt>
<totfact> 0.87616968E+03</totfact>
</mgrwt>
</event>
<event>
 5    1  0.3321169E-002  0.1249836E+03  0.7818608E-02  0.1235095E+00
          4   -1    0    0  501    0  0.00000000000E+00  0.00000000000E+00  0.19422228490E+02  0.19463706213E+02  0.12700000000E+01 0.  1.
         -4   -1    0    0    0  501 -0.00000000000E+00 -0.00000000000E+00 -0.20081199041E+03  0.20081600631E+03  0.12700000000E+01 0.  1.
         25    2    1    2    0    0  0.00000000000E+00  0.00000000000E+00 -0.18138976192E+03  0.22027971253E+03  0.12498362302E+03 0.  0.
    9000005    1    3    3    0    0 -0.20286259190E+02  0.41537704036E+02 -0.16601712214E+02  0.49127690938E+02  0.10000000000E+01 0.  0.
    9000005    1    3    3    0    0  0.20286259190E+02 -0.41537704036E+02 -0.16478804970E+03  0.17115202159E+03  0.10000000000E+01 0.  0.
<mgrwt>
<rscale>  0 0.12498362E+03</rscale>
<asrwt>0</asrwt>
<pdfrwt beam="1">  1        4 0.29915348E-02 0.12498362E+03</pdfrwt>
<pdfrwt beam="2">  1       -4 0.30897650E-01 0.12498362E+03</pdfrwt>
<totfact> 0.86855876E+03</totfact>
</mgrwt>
</event>
<event>
 5    1  0.3321169E-002  0.1250029E+03  0.7818608E-02  0.1235065E+00
         -4   -1    0    0    0  501 -0.00000000000E+00  0.00000000000E+00  0.36907965413E+02  0.36929809246E+02  0.12700000000E+01 0.  1.
          4   -1    0    0  501    0  0.00000000000E+00 -0.00000000000E+00 -0.10578552315E+03  0.10579314632E+03  0.12700000000E+01 0.  1.
         25    2    1    2    0    0  0.00000000000E+00  0.00000000000E+00 -0.68877557736E+02  0.14272295556E+03  0.12500289631E+03 0.  0.
    9000005    1    3    3    0    0  0.35412413557E+01  0.54175785291E+02 -0.69775655143E+02  0.88414920420E+02  0.10000000000E+01 0.  0.
    9000005    1    3    3    0    0 -0.35412413557E+01 -0.54175785291E+02  0.89809740697E+00  0.54308035144E+02  0.10000000000E+01 0.  0.
<mgrwt>
<rscale>  0 0.12500290E+03</rscale>
<asrwt>0</asrwt>
<pdfrwt beam="2">  1        4 0.16276962E-01 0.12500290E+03</pdfrwt>
<pdfrwt beam="1">  1       -4 0.56804152E-02 0.12500290E+03</pdfrwt>
<totfact> 0.10076802E+04</totfact>
</mgrwt>
</event>
<event>
 5    1  0.3321169E-002  0.1249956E+03  0.7818608E-02  0.1235076E+00
          4   -1    0    0  501    0  0.00000000000E+00  0.00000000000E+00  0.33335152803E+01  0.35672432106E+01  0.12700000000E+01 0.  1.
         -4   -1    0    0    0  501 -0.00000000000E+00 -0.00000000000E+00 -0.11318082680E+04  0.11318089806E+04  0.12700000000E+01 0.  1.
         25    2    1    2    0    0  0.00000000000E+00  0.00000000000E+00 -0.11284747527E+04  0.11353762238E+04  0.12499560758E+03 0.  0.
    9000005    1    3    3    0    0  0.49103496736E+01  0.57971128488E+02 -0.35706334708E+03  0.36177340574E+03  0.10000000000E+01 0.  0.
    9000005    1    3    3    0    0 -0.49103496736E+01 -0.57971128488E+02 -0.77141140566E+03  0.77360281802E+03  0.10000000000E+01 0.  0.
<mgrwt>
<rscale>  0 0.12499561E+03</rscale>
<asrwt>0</asrwt>
<pdfrwt beam="1">  1        4 0.53088329E-03 0.12499561E+03</pdfrwt>
<pdfrwt beam="2">  1       -4 0.17414209E+00 0.12499561E+03</pdfrwt>
<totfact> 0.26472087E+03</totfact>
</mgrwt>
</event>
<event>
 5    1  0.3321169E-002  0.1249975E+03  0.7818608E-02  0.1235073E+00
          4   -1    0    0  501    0  0.00000000000E+00  0.00000000000E+00  0.24497955924E+03  0.24498285112E+03  0.12700000000E+01 0. -1.
         -4   -1    0    0    0  501 -0.00000000000E+00 -0.00000000000E+00 -0.15915877544E+02  0.15966466672E+02  0.12700000000E+01 0. -1.
         25    2    1    2    0    0  0.00000000000E+00  0.00000000000E+00  0.22906368169E+03  0.26094931779E+03  0.12499750472E+03 0.  0.
    9000005    1    3    3    0    0  0.61744590781E+02  0.91687631047E+01  0.12066584716E+03  0.13585914537E+03  0.10000000000E+01 0.  0.
    9000005    1    3    3    0    0 -0.61744590781E+02 -0.91687631047E+01  0.10839783453E+03  0.12509017243E+03  0.10000000000E+01 0.  0.
<mgrwt>
<rscale>  0 0.12499750E+03</rscale>
<asrwt>0</asrwt>
<pdfrwt beam="1">  1        4 0.37693307E-01 0.12499750E+03</pdfrwt>
<pdfrwt beam="2">  1       -4 0.24527413E-02 0.12499750E+03</pdfrwt>
<totfact> 0.80777508E+03</totfact>
</mgrwt>
</event>
<event>
 5    1  0.3321169E-002  0.1249984E+03  0.7818608E-02  0.1235072E+00
         -4   -1    0    0    0  501 -0.00000000000E+00  0.00000000000E+00  0.24748464550E+03  0.24748790406E+03  0.12700000000E+01 0.  1.
          4   -1    0    0  501    0  0.00000000000E+00 -0.00000000000E+00 -0.15754497091E+02  0.15805602759E+02  0.12700000000E+01 0.  1.
         25    2    1    2    0    0  0.00000000000E+00  0.00000000000E+00  0.23173014841E+03  0.26329350682E+03  0.12499843621E+03 0.  0.
    9000005    1    3    3    0    0 -0.49453062814E+02  0.11477412785E+02  0.39110460313E+02  0.64093404745E+02  0.10000000000E+01 0.  0.
    9000005    1    3    3    0    0  0.49453062814E+02 -0.11477412785E+02  0.19261968810E+03  0.19920010208E+03  0.10000000000E+01 0.  0.
<mgrwt>
<rscale>  0 0.12499844E+03</rscale>
<asrwt>0</asrwt>
<pdfrwt beam="2">  1        4 0.24279504E-02 0.12499844E+03</pdfrwt>
<pdfrwt beam="1">  1       -4 0.38078747E-01 0.12499844E+03</pdfrwt>
<totfact> 0.80448869E+03</totfact>
</mgrwt>
</event>
<event>
 5    1  0.3321169E-002  0.1250018E+03  0.7818608E-02  0.1235066E+00
         -4   -1    0    0    0  501 -0.00000000000E+00  0.00000000000E+00  0.62841394030E+03  0.62841522361E+03  0.12700000000E+01 0. -1.
          4   -1    0    0  501    0  0.00000000000E+00 -0.00000000000E+00 -0.61500561624E+01  0.62798161439E+01  0.12700000000E+01 0. -1.
         25    2    1    2    0    0  0.00000000000E+00  0.00000000000E+00  0.62226388414E+03  0.63469503975E+03  0.12500180793E+03 0.  0.
    9000005    1    3    3    0    0  0.18751950084E+02  0.50969159834E+02  0.15415035878E+03  0.16344058247E+03  0.10000000000E+01 0.  0.
    9000005    1    3    3    0    0 -0.18751950084E+02 -0.50969159834E+02  0.46811352536E+03  0.47125445728E+03  0.10000000000E+01 0.  0.
<mgrwt>
<rscale>  0 0.12500181E+03</rscale>
<asrwt>0</asrwt>
<pdfrwt beam="2">  1        4 0.95624286E-03 0.12500181E+03</pdfrwt>
<pdfrwt beam="1">  1       -4 0.96689136E-01 0.12500181E+03</pdfrwt>
<totfact> 0.46746479E+03</totfact>
</mgrwt>
</event>
<event>
 5    1  0.3321169E-002  0.1249992E+03  0.7818608E-02  0.1235070E+00
          4   -1    0    0  501    0  0.00000000000E+00  0.00000000000E+00  0.15769212419E+03  0.15769723819E+03  0.12700000000E+01 0.  1.
         -4   -1    0    0    0  501 -0.00000000000E+00 -0.00000000000E+00 -0.24749271533E+02  0.24781834908E+02  0.12700000000E+01 0.  1.
         25    2    1    2    0    0  0.00000000000E+00  0.00000000000E+00  0.13294285266E+03  0.18247907310E+03  0.12499924018E+03 0.  0.
    9000005    1    3    3    0    0  0.48851428372E+02  0.10565859642E+02  0.12123208308E+03  0.13113473000E+03  0.10000000000E+01 0.  0.
    9000005    1    3    3    0    0 -0.48851428372E+02 -0.10565859642E+02  0.11710769579E+02  0.51344343097E+02  0.10000000000E+01 0.  0.
<mgrwt>
<rscale>  0 0.12499924E+03</rscale>
<asrwt>0</asrwt>
<pdfrwt beam="1">  1        4 0.24263225E-01 0.12499924E+03</pdfrwt>
<pdfrwt beam="2">  1       -4 0.38104785E-02 0.12499924E+03</pdfrwt>
<totfact> 0.93174242E+03</totfact>
</mgrwt>
</event>
<event>
 5    1  0.3321169E-002  0.1250070E+03  0.7818608E-02  0.1235058E+00
          4   -1    0    0  501    0  0.00000000000E+00  0.00000000000E+00  0.28677637342E+02  0.28705744782E+02  0.12700000000E+01 0. -1.
         -4   -1    0    0    0  501 -0.00000000000E+00 -0.00000000000E+00 -0.13612980039E+03  0.13613572438E+03  0.12700000000E+01 0. -1.
         25    2    1    2    0    0  0.00000000000E+00  0.00000000000E+00 -0.10745216304E+03  0.16484146916E+03  0.12500697026E+03 0.  0.
    9000005    1    3    3    0    0  0.62295619992E+02  0.41249029647E+01 -0.57438650975E+02  0.84840778641E+02  0.10000000000E+01 0.  0.
    9000005    1    3    3    0    0 -0.62295619992E+02 -0.41249029647E+01 -0.50013512069E+02  0.80000690523E+02  0.10000000000E+01 0.  0.
<mgrwt>
<rscale>  0 0.12500697E+03</rscale>
<asrwt>0</asrwt>
<pdfrwt beam="1">  1        4 0.44145621E-02 0.12500697E+03</pdfrwt>
<pdfrwt beam="2">  1       -4 0.20945664E-01 0.12500697E+03</pdfrwt>
<totfact> 0.96402328E+03</totfact>
</mgrwt>
</event>
<event>
 5    1  0.3321169E-002  0.1249988E+03  0.7818608E-02  0.1235071E+00
         -4   -1    0    0    0  501 -0.00000000000E+00  0.00000000000E+00  0.41287265647E+03  0.41287460973E+03  0.12700000000E+01 0. -1.
          4   -1    0    0  501    0  0.00000000000E+00 -0.00000000000E+00 -0.94163688389E+01  0.95016262877E+01  0.12700000000E+01 0. -1.
         25    2    1    2    0    0  0.00000000000E+00  0.00000000000E+00  0.40345628763E+03  0.42237623602E+03  0.12499883489E+03 0.  0.
    9000005    1    3    3    0    0  0.16125530253E+01 -0.61286858499E+02  0.24262680629E+03  0.25025476315E+03  0.10000000000E+01 0.  0.
    9000005    1    3    3    0    0 -0.16125530253E+01  0.61286858499E+02  0.16082948135E+03  0.17212147287E+03  0.10000000000E+01 0.  0.
<mgrwt>
<rscale>  0 0.12499883E+03</rscale>
<asrwt>0</asrwt>
<pdfrwt beam="2">  1        4 0.14553807E-02 0.12499883E+03</pdfrwt>
<pdfrwt beam="1">  1       -4 0.63525577E-01 0.12499883E+03</pdfrwt>
<totfact> 0.62434775E+03</totfact>
</mgrwt>
</event>
<event>
 5    1  0.3321169E-002  0.1250022E+03  0.7818608E-02  0.1235066E+00
         -4   -1    0    0    0  501 -0.00000000000E+00  0.00000000000E+00  0.18778545659E+02  0.18821441950E+02  0.12700000000E+01 0. -1.
          4   -1    0    0  501    0  0.00000000000E+00 -0.00000000000E+00 -0.20774180746E+03  0.20774568941E+03  0.12700000000E+01 0. -1.
         25    2    1    2    0    0  0.00000000000E+00  0.00000000000E+00 -0.18896326180E+03  0.22656713136E+03  0.12500220278E+03 0.  0.
    9000005    1    3    3    0    0  0.45517588093E+02  0.19515573645E+02 -0.25399757895E+02  0.55667370529E+02  0.10000000000E+01 0.  0.
    9000005    1    3    3    0    0 -0.45517588093E+02 -0.19515573645E+02 -0.16356350391E+03  0.17089976083E+03  0.10000000000E+01 0.  0.
<mgrwt>
<rscale>  0 0.12500220E+03</rscale>
<asrwt>0</asrwt>
<pdfrwt beam="2">  1        4 0.31963875E-01 0.12500220E+03</pdfrwt>
<pdfrwt beam="1">  1       -4 0.28926055E-02 0.12500220E+03</pdfrwt>
<totfact> 0.85835301E+03</totfact>
</mgrwt>
</event>
<event>
 5    1  0.3321169E-002  0.1249992E+03  0.7818608E-02  0.1235071E+00
         -4   -1    0    0    0  501 -0.00000000000E+00  0.00000000000E+00  0.31082832870E+02  0.31108767240E+02  0.12700000000E+01 0.  1.
          4   -1    0    0  501    0  0.00000000000E+00 -0.00000000000E+00 -0.12558914155E+03  0.12559556272E+03  0.12700000000E+01 0.  1.
         25    2    1    2    0    0  0.00000000000E+00  0.00000000000E+00 -0.94506308683E+02  0.15670432996E+03  0.12499921859E+03 0.  0.
    9000005    1    3    3    0    0 -0.32729574579E+02 -0.13059873585E+02 -0.11195150144E+03  0.11737088236E+03  0.10000000000E+01 0.  0.
    9000005    1    3    3    0    0  0.32729574579E+02  0.13059873585E+02  0.17445192760E+02  0.39333447606E+02  0.10000000000E+01 0.  0.
<mgrwt>
<rscale>  0 0.12499922E+03</rscale>
<asrwt>0</asrwt>
<pdfrwt beam="2">  1        4 0.19323895E-01 0.12499922E+03</pdfrwt>
<pdfrwt beam="1">  1       -4 0.47844632E-02 0.12499922E+03</pdfrwt>
<totfact> 0.97983675E+03</totfact>
</mgrwt>
</event>
<event>
 5    1  0.3321169E-002  0.1250089E+03  0.7818608E-02  0.1235055E+00
         -4   -1    0    0    0  501 -0.00000000000E+00  0.00000000000E+00  0.17692617723E+02  0.17738140317E+02  0.12700000000E+01 0. -1.
          4   -1    0    0  501    0  0.00000000000E+00 -0.00000000000E+00 -0.22048452696E+03  0.22048818456E+03  0.12700000000E+01 0. -1.
         25    2    1    2    0    0  0.00000000000E+00  0.00000000000E+00 -0.20279190924E+03  0.23822632488E+03  0.12500889333E+03 0.  0.
    9000005    1    3    3    0    0  0.30207136617E+01  0.61580791069E+02 -0.12087558092E+03  0.13569533743E+03  0.10000000000E+01 0.  0.
    9000005    1    3    3    0    0 -0.30207136617E+01 -0.61580791069E+02 -0.81916328323E+02  0.10253098744E+03  0.10000000000E+01 0.  0.
<mgrwt>
<rscale>  0 0.12500889E+03</rscale>
<asrwt>0</asrwt>
<pdfrwt beam="2">  1        4 0.33924478E-01 0.12500889E+03</pdfrwt>
<pdfrwt beam="1">  1       -4 0.27257244E-02 0.12500889E+03</pdfrwt>
<totfact> 0.84045570E+03</totfact>
</mgrwt>
</event>
<event>
 5    1  0.3321169E-002  0.1250022E+03  0.7818608E-02  0.1235066E+00
         -4   -1    0    0    0  501 -0.00000000000E+00  0.00000000000E+00  0.28336796136E+02  0.28365241322E+02  0.12700000000E+01 0. -1.
          4   -1    0    0  501    0  0.00000000000E+00 -0.00000000000E+00 -0.13775519664E+03  0.13776105075E+03  0.12700000000E+01 0. -1.
         25    2    1    2    0    0  0.00000000000E+00  0.00000000000E+00 -0.10941840051E+03  0.16612629207E+03  0.12500223417E+03 0.  0.
    9000005    1    3    3    0    0  0.29225581750E+02  0.45226509257E+02 -0.12560880141E+02  0.55302327963E+02  0.10000000000E+01 0.  0.
    9000005    1    3    3    0    0 -0.29225581750E+02 -0.45226509257E+02 -0.96857520368E+02  0.11082396411E+03  0.10000000000E+01 0.  0.
<mgrwt>
<rscale>  0 0.12500223E+03</rscale>
<asrwt>0</asrwt>
<pdfrwt beam="2">  1        4 0.21195745E-01 0.12500223E+03</pdfrwt>
<pdfrwt beam="1">  1       -4 0.43621456E-02 0.12500223E+03</pdfrwt>
<totfact> 0.96169689E+03</totfact>
</mgrwt>
</event>
<event>
 5    1  0.3321169E-002  0.1250001E+03  0.7818608E-02  0.1235069E+00
          4   -1    0    0  501    0  0.00000000000E+00  0.00000000000E+00  0.19952207358E+03  0.19952611545E+03  0.12700000000E+01 0.  1.
         -4   -1    0    0    0  501 -0.00000000000E+00 -0.00000000000E+00 -0.19553226643E+02  0.19594427068E+02  0.12700000000E+01 0.  1.
         25    2    1    2    0    0  0.00000000000E+00  0.00000000000E+00  0.17996884694E+03  0.21912054252E+03  0.12500010514E+03 0.  0.
    9000005    1    3    3    0    0  0.39590283883E+02  0.39550624811E+02  0.13874119000E+03  0.14960534852E+03  0.10000000000E+01 0.  0.
    9000005    1    3    3    0    0 -0.39590283883E+02 -0.39550624811E+02  0.41227656939E+02  0.69515194005E+02  0.10000000000E+01 0.  0.
<mgrwt>
<rscale>  0 0.12500011E+03</rscale>
<asrwt>0</asrwt>
<pdfrwt beam="1">  1        4 0.30699185E-01 0.12500011E+03</pdfrwt>
<pdfrwt beam="2">  1       -4 0.30116688E-02 0.12500011E+03</pdfrwt>
<totfact> 0.87007498E+03</totfact>
</mgrwt>
</event>
<event>
 5    1  0.3321169E-002  0.1249916E+03  0.7818608E-02  0.1235082E+00
         -4   -1    0    0    0  501 -0.00000000000E+00  0.00000000000E+00  0.40445291074E+01  0.42392352731E+01  0.12700000000E+01 0. -1.
          4   -1    0    0  501    0  0.00000000000E+00 -0.00000000000E+00 -0.94278730159E+03  0.94278815698E+03  0.12700000000E+01 0. -1.
         25    2    1    2    0    0  0.00000000000E+00  0.00000000000E+00 -0.93874277248E+03  0.94702739225E+03  0.12499155486E+03 0.  0.
    9000005    1    3    3    0    0 -0.17716304110E+00  0.10136657611E+02 -0.21911718886E+01  0.10420386198E+02  0.10000000000E+01 0.  0.
    9000005    1    3    3    0    0  0.17716304110E+00 -0.10136657611E+02 -0.93655160059E+03  0.93660700605E+03  0.10000000000E+01 0.  0.
<mgrwt>
<rscale>  0 0.12499155E+03</rscale>
<asrwt>0</asrwt>
<pdfrwt beam="2">  1        4 0.14505907E+00 0.12499155E+03</pdfrwt>
<pdfrwt beam="1">  1       -4 0.63727919E-03 0.12499155E+03</pdfrwt>
<totfact> 0.32427758E+03</totfact>
</mgrwt>
</event>
<event>
 5    1  0.3321169E-002  0.1249969E+03  0.7818608E-02  0.1235074E+00
         -4   -1    0    0    0  501 -0.00000000000E+00  0.00000000000E+00  0.40811907895E+03  0.40812105496E+03  0.12700000000E+01 0. -1.
          4   -1    0    0  501    0  0.00000000000E+00 -0.00000000000E+00 -0.95267416869E+01  0.96110200900E+01  0.12700000000E+01 0. -1.
         25    2    1    2    0    0  0.00000000000E+00  0.00000000000E+00  0.39859233726E+03  0.41773207505E+03  0.12499694077E+03 0.  0.
    9000005    1    3    3    0    0  0.22312396608E+02 -0.49565727884E+02  0.30232625809E+03  0.30717547225E+03  0.10000000000E+01 0.  0.
    9000005    1    3    3    0    0 -0.22312396608E+02  0.49565727884E+02  0.96266079175E+02  0.11055660280E+03  0.10000000000E+01 0.  0.
<mgrwt>
<rscale>  0 0.12499694E+03</rscale>
<asrwt>0</asrwt>
<pdfrwt beam="2">  1        4 0.14722880E-02 0.12499694E+03</pdfrwt>
<pdfrwt beam="1">  1       -4 0.62794167E-01 0.12499694E+03</pdfrwt>
<totfact> 0.62868220E+03</totfact>
</mgrwt>
</event>
<event>
 5    1  0.3321169E-002  0.1249998E+03  0.7818608E-02  0.1235070E+00
         -4   -1    0    0    0  501 -0.00000000000E+00  0.00000000000E+00  0.63086645493E+02  0.63099427411E+02  0.12700000000E+01 0.  1.
          4   -1    0    0  501    0  0.00000000000E+00 -0.00000000000E+00 -0.61893019183E+02  0.61906047552E+02  0.12700000000E+01 0.  1.
         25    2    1    2    0    0  0.00000000000E+00  0.00000000000E+00  0.11936263104E+01  0.12500547496E+03  0.12499977611E+03 0.  0.
    9000005    1    3    3    0    0 -0.44863264500E+02  0.37932138370E+02 -0.20703838286E+02  0.62299346246E+02  0.10000000000E+01 0.  0.
    9000005    1    3    3    0    0  0.44863264500E+02 -0.37932138370E+02  0.21897464596E+02  0.62706128717E+02  0.10000000000E+01 0.  0.
<mgrwt>
<rscale>  0 0.12499978E+03</rscale>
<asrwt>0</asrwt>
<pdfrwt beam="2">  1        4 0.95239883E-02 0.12499978E+03</pdfrwt>
<pdfrwt beam="1">  1       -4 0.97076232E-02 0.12499978E+03</pdfrwt>
<totfact> 0.10452796E+04</totfact>
</mgrwt>
</event>
<event>
 5    1  0.3321169E-002  0.1249924E+03  0.7818608E-02  0.1235081E+00
         -4   -1    0    0    0  501 -0.00000000000E+00  0.00000000000E+00  0.12851267653E+03  0.12851895163E+03  0.12700000000E+01 0. -1.
          4   -1    0    0  501    0  0.00000000000E+00 -0.00000000000E+00 -0.30371827902E+02  0.30398368872E+02  0.12700000000E+01 0. -1.
         25    2    1    2    0    0  0.00000000000E+00  0.00000000000E+00  0.98140848629E+02  0.15891732051E+03  0.12499235412E+03 0.  0.
    9000005    1    3    3    0    0 -0.45305856304E+02  0.33693703085E+02  0.15028601523E+02  0.58435820408E+02  0.10000000000E+01 0.  0.
    9000005    1    3    3    0    0  0.45305856304E+02 -0.33693703085E+02  0.83112247106E+02  0.10048150010E+03  0.10000000000E+01 0.  0.
<mgrwt>
<rscale>  0 0.12499235E+03</rscale>
<asrwt>0</asrwt>
<pdfrwt beam="2">  1        4 0.46751132E-02 0.12499235E+03</pdfrwt>
<pdfrwt beam="1">  1       -4 0.19773705E-01 0.12499235E+03</pdfrwt>
<totfact> 0.97568693E+03</totfact>
</mgrwt>
</event>
<event>
 5    1  0.3321169E-002  0.1249996E+03  0.7818608E-02  0.1235070E+00
          4   -1    0    0  501    0  0.00000000000E+00  0.00000000000E+00  0.67407912471E+02  0.67419875139E+02  0.12700000000E+01 0.  1.
         -4   -1    0    0    0  501 -0.00000000000E+00 -0.00000000000E+00 -0.57924949517E+02  0.57938870170E+02  0.12700000000E+01 0.  1.
         25    2    1    2    0    0  0.00000000000E+00  0.00000000000E+00  0.94829629543E+01  0.12535874531E+03  0.12499955376E+03 0.  0.
    9000005    1    3    3    0    0 -0.48198454702E+02 -0.35004322040E+02  0.23685667470E+02  0.64112435928E+02  0.10000000000E+01 0.  0.
    9000005    1    3    3    0    0  0.48198454702E+02  0.35004322040E+02 -0.14202704515E+02  0.61246309380E+02  0.10000000000E+01 0.  0.
<mgrwt>
<rscale>  0 0.12499955E+03</rscale>
<asrwt>0</asrwt>
<pdfrwt beam="1">  1        4 0.10372439E-01 0.12499955E+03</pdfrwt>
<pdfrwt beam="2">  1       -4 0.89135218E-02 0.12499955E+03</pdfrwt>
<totfact> 0.10445181E+04</totfact>
</mgrwt>
</event>
<event>
 5    1  0.3321169E-002  0.1249999E+03  0.7818608E-02  0.1235069E+00
         -4   -1    0    0    0  501 -0.00000000000E+00  0.00000000000E+00  0.15467141126E+03  0.15467662512E+03  0.12700000000E+01 0.  1.
          4   -1    0    0  501    0  0.00000000000E+00 -0.00000000000E+00 -0.25233501579E+02  0.25265440862E+02  0.12700000000E+01 0.  1.
         25    2    1    2    0    0  0.00000000000E+00  0.00000000000E+00  0.12943790968E+03  0.17994206599E+03  0.12499989860E+03 0.  0.
    9000005    1    3    3    0    0 -0.31740433636E+02  0.27014310884E+02  0.13174664253E+03  0.13818612788E+03  0.10000000000E+01 0.  0.
    9000005    1    3    3    0    0  0.31740433636E+02 -0.27014310884E+02 -0.23087328541E+01  0.41755938108E+02  0.10000000000E+01 0.  0.
<mgrwt>
<rscale>  0 0.12499990E+03</rscale>
<asrwt>0</asrwt>
<pdfrwt beam="2">  1        4 0.38849350E-02 0.12499990E+03</pdfrwt>
<pdfrwt beam="1">  1       -4 0.23798460E-01 0.12499990E+03</pdfrwt>
<totfact> 0.93627645E+03</totfact>
</mgrwt>
</event>
<event>
 5    1  0.3321169E-002  0.1249931E+03  0.7818608E-02  0.1235080E+00
          4   -1    0    0  501    0  0.00000000000E+00  0.00000000000E+00  0.61685960738E+02  0.61699032830E+02  0.12700000000E+01 0. -1.
         -4   -1    0    0    0  501 -0.00000000000E+00 -0.00000000000E+00 -0.63291596513E+02  0.63304337049E+02  0.12700000000E+01 0. -1.
         25    2    1    2    0    0  0.00000000000E+00  0.00000000000E+00 -0.16056357757E+01  0.12500336988E+03  0.12499305747E+03 0.  0.
    9000005    1    3    3    0    0 -0.23945310841E+02  0.10338284004E+02 -0.57592695290E+02  0.63231136145E+02  0.10000000000E+01 0.  0.
    9000005    1    3    3    0    0  0.23945310841E+02 -0.10338284004E+02  0.55987059514E+02  0.61772233734E+02  0.10000000000E+01 0.  0.
<mgrwt>
<rscale>  0 0.12499306E+03</rscale>
<asrwt>0</asrwt>
<pdfrwt beam="1">  1        4 0.94921335E-02 0.12499306E+03</pdfrwt>
<pdfrwt beam="2">  1       -4 0.97391542E-02 0.12499306E+03</pdfrwt>
<totfact> 0.10454430E+04</totfact>
</mgrwt>
</event>
<event>
 5    1  0.3321169E-002  0.1250023E+03  0.7818608E-02  0.1235066E+00
         -4   -1    0    0    0  501 -0.00000000000E+00  0.00000000000E+00  0.52789599963E+02  0.52804874437E+02  0.12700000000E+01 0.  1.
          4   -1    0    0  501    0  0.00000000000E+00 -0.00000000000E+00 -0.73967874702E+02  0.73978776604E+02  0.12700000000E+01 0.  1.
         25    2    1    2    0    0  0.00000000000E+00  0.00000000000E+00 -0.21178274738E+02  0.12678365104E+03  0.12500229938E+03 0.  0.
    9000005    1    3    3    0    0  0.53486189053E+02  0.32239081324E+02 -0.12915937030E+02  0.63780500259E+02  0.10000000000E+01 0.  0.
    9000005    1    3    3    0    0 -0.53486189053E+02 -0.32239081324E+02 -0.82623377086E+01  0.63003150782E+02  0.10000000000E+01 0.  0.
<mgrwt>
<rscale>  0 0.12500230E+03</rscale>
<asrwt>0</asrwt>
<pdfrwt beam="2">  1        4 0.11381687E-01 0.12500230E+03</pdfrwt>
<pdfrwt beam="1">  1       -4 0.81234904E-02 0.12500230E+03</pdfrwt>
<totfact> 0.10413309E+04</totfact>
</mgrwt>
</event>
<event>
 5    1  0.3321169E-002  0.1249989E+03  0.7818608E-02  0.1235071E+00
         -4   -1    0    0    0  501 -0.00000000000E+00  0.00000000000E+00  0.75517987496E+01  0.76578433227E+01  0.12700000000E+01 0.  1.
          4   -1    0    0  501    0  0.00000000000E+00 -0.00000000000E+00 -0.51353814639E+03  0.51353971677E+03  0.12700000000E+01 0.  1.
         25    2    1    2    0    0  0.00000000000E+00  0.00000000000E+00 -0.50598634764E+03  0.52119756009E+03  0.12499885058E+03 0.  0.
    9000005    1    3    3    0    0  0.22765326615E+02  0.47473540644E+01 -0.11141598458E+02  0.25805671522E+02  0.10000000000E+01 0.  0.
    9000005    1    3    3    0    0 -0.22765326615E+02 -0.47473540644E+01 -0.49484474919E+03  0.49539188857E+03  0.10000000000E+01 0.  0.
<mgrwt>
<rscale>  0 0.12499885E+03</rscale>
<asrwt>0</asrwt>
<pdfrwt beam="2">  1        4 0.79014119E-01 0.12499885E+03</pdfrwt>
<pdfrwt beam="1">  1       -4 0.11700937E-02 0.12499885E+03</pdfrwt>
<totfact> 0.54257788E+03</totfact>
</mgrwt>
</event>
<event>
 5    1  0.3321169E-002  0.1249827E+03  0.7818608E-02  0.1235096E+00
          4   -1    0    0  501    0  0.00000000000E+00  0.00000000000E+00  0.12309010280E+02  0.12374353885E+02  0.12700000000E+01 0. -1.
         -4   -1    0    0    0  501 -0.00000000000E+00 -0.00000000000E+00 -0.31635443230E+03  0.31635698148E+03  0.12700000000E+01 0. -1.
         25    2    1    2    0    0  0.00000000000E+00  0.00000000000E+00 -0.30404542202E+03  0.32873133537E+03  0.12498268762E+03 0.  0.
    9000005    1    3    3    0    0  0.12024989358E+02  0.47266507123E+01 -0.31281527174E+03  0.31308359240E+03  0.10000000000E+01 0.  0.
    9000005    1    3    3    0    0 -0.12024989358E+02 -0.47266507123E+01  0.87698497210E+01  0.15647742973E+02  0.10000000000E+01 0.  0.
<mgrwt>
<rscale>  0 0.12498269E+03</rscale>
<asrwt>0</asrwt>
<pdfrwt beam="1">  1        4 0.18989167E-02 0.12498269E+03</pdfrwt>
<pdfrwt beam="2">  1       -4 0.48675129E-01 0.12498269E+03</pdfrwt>
<totfact> 0.72157220E+03</totfact>
</mgrwt>
</event>
<event>
 5    1  0.3321169E-002  0.1249955E+03  0.7818608E-02  0.1235076E+00
         -4   -1    0    0    0  501 -0.00000000000E+00  0.00000000000E+00  0.76040097803E+02  0.76050702652E+02  0.12700000000E+01 0. -1.
          4   -1    0    0  501    0  0.00000000000E+00 -0.00000000000E+00 -0.51345153296E+02  0.51360857343E+02  0.12700000000E+01 0. -1.
         25    2    1    2    0    0  0.00000000000E+00  0.00000000000E+00  0.24694944507E+02  0.12741155999E+03  0.12499546126E+03 0.  0.
    9000005    1    3    3    0    0 -0.47569326725E+02 -0.17106632611E+02  0.49792934941E+02  0.70963470140E+02  0.10000000000E+01 0.  0.
    9000005    1    3    3    0    0  0.47569326725E+02  0.17106632611E+02 -0.25097990434E+02  0.56448089854E+02  0.10000000000E+01 0.  0.
<mgrwt>
<rscale>  0 0.12499546E+03</rscale>
<asrwt>0</asrwt>
<pdfrwt beam="2">  1        4 0.79012782E-02 0.12499546E+03</pdfrwt>
<pdfrwt beam="1">  1       -4 0.11700500E-01 0.12499546E+03</pdfrwt>
<totfact> 0.10401282E+04</totfact>
</mgrwt>
</event>
<event>
 5    1  0.3321169E-002  0.1250002E+03  0.7818608E-02  0.1235069E+00
          4   -1    0    0  501    0  0.00000000000E+00  0.00000000000E+00  0.39228187453E+01  0.41232762348E+01  0.12700000000E+01 0.  1.
         -4   -1    0    0    0  501 -0.00000000000E+00 -0.00000000000E+00 -0.97077014379E+03  0.97077097452E+03  0.12700000000E+01 0.  1.
         25    2    1    2    0    0  0.00000000000E+00  0.00000000000E+00 -0.96684732505E+03  0.97489425076E+03  0.12500020085E+03 0.  0.
    9000005    1    3    3    0    0 -0.25670349956E+02 -0.48657667706E+02 -0.71461619303E+03  0.71673135750E+03  0.10000000000E+01 0.  0.
    9000005    1    3    3    0    0  0.25670349956E+02  0.48657667706E+02 -0.25223113202E+03  0.25816289325E+03  0.10000000000E+01 0.  0.
<mgrwt>
<rscale>  0 0.12500020E+03</rscale>
<asrwt>0</asrwt>
<pdfrwt beam="1">  1        4 0.61899506E-03 0.12500020E+03</pdfrwt>
<pdfrwt beam="2">  1       -4 0.14936455E+00 0.12500020E+03</pdfrwt>
<totfact> 0.31448191E+03</totfact>
</mgrwt>
</event>
<event>
 5    1  0.3321169E-002  0.1250016E+03  0.7818608E-02  0.1235067E+00
         -4   -1    0    0    0  501 -0.00000000000E+00  0.00000000000E+00  0.87800068175E+02  0.87809252767E+02  0.12700000000E+01 0.  1.
          4   -1    0    0  501    0  0.00000000000E+00 -0.00000000000E+00 -0.44470845395E+02  0.44488976052E+02  0.12700000000E+01 0.  1.
         25    2    1    2    0    0  0.00000000000E+00  0.00000000000E+00  0.43329222780E+02  0.13229822882E+03  0.12500159920E+03 0.  0.
    9000005    1    3    3    0    0  0.19865549376E+02 -0.42512875582E+02  0.65345590022E+02  0.80455147614E+02  0.10000000000E+01 0.  0.
    9000005    1    3    3    0    0 -0.19865549376E+02  0.42512875582E+02 -0.22016367242E+02  0.51843081205E+02  0.10000000000E+01 0.  0.
<mgrwt>
<rscale>  0 0.12500160E+03</rscale>
<asrwt>0</asrwt>
<pdfrwt beam="2">  1        4 0.68437698E-02 0.12500160E+03</pdfrwt>
<pdfrwt beam="1">  1       -4 0.13509804E-01 0.12500160E+03</pdfrwt>
<totfact> 0.10294966E+04</totfact>
</mgrwt>
</event>
<event>
 5    1  0.3321169E-002  0.1249978E+03  0.7818608E-02  0.1235073E+00
         -4   -1    0    0    0  501 -0.00000000000E+00  0.00000000000E+00  0.41677198279E+02  0.41696543698E+02  0.12700000000E+01 0. -1.
          4   -1    0    0  501    0  0.00000000000E+00 -0.00000000000E+00 -0.93677630220E+02  0.93686238603E+02  0.12700000000E+01 0. -1.
         25    2    1    2    0    0  0.00000000000E+00  0.00000000000E+00 -0.52000431941E+02  0.13538278230E+03  0.12499781127E+03 0.  0.
    9000005    1    3    3    0    0  0.19747044172E+02  0.31497181864E+02  0.28403407603E+02  0.46794997408E+02  0.10000000000E+01 0.  0.
    9000005    1    3    3    0    0 -0.19747044172E+02 -0.31497181864E+02 -0.80403839544E+02  0.88587784894E+02  0.10000000000E+01 0.  0.
<mgrwt>
<rscale>  0 0.12499781E+03</rscale>
<asrwt>0</asrwt>
<pdfrwt beam="2">  1        4 0.14414093E-01 0.12499781E+03</pdfrwt>
<pdfrwt beam="1">  1       -4 0.64140270E-02 0.12499781E+03</pdfrwt>
<totfact> 0.10230514E+04</totfact>
</mgrwt>
</event>
<event>
 5    1  0.3321169E-002  0.1250137E+03  0.7818608E-02  0.1235048E+00
          4   -1    0    0  501    0  0.00000000000E+00  0.00000000000E+00  0.17160269900E+04  0.17160274600E+04  0.12700000000E+01 0.  1.
         -4   -1    0    0    0  501 -0.00000000000E+00 -0.00000000000E+00 -0.20992250928E+01  0.24534966864E+01  0.12700000000E+01 0.  1.
         25    2    1    2    0    0  0.00000000000E+00  0.00000000000E+00  0.17139277649E+04  0.17184809567E+04  0.12501365929E+03 0.  0.
    9000005    1    3    3    0    0  0.51067517395E+02  0.17128735959E+01  0.36223321557E+03  0.36582062234E+03  0.10000000000E+01 0.  0.
    9000005    1    3    3    0    0 -0.51067517395E+02 -0.17128735959E+01  0.13516945494E+04  0.13526603343E+04  0.10000000000E+01 0.  0.
<mgrwt>
<rscale>  0 0.12501366E+03</rscale>
<asrwt>0</asrwt>
<pdfrwt beam="1">  1        4 0.26403209E+00 0.12501366E+03</pdfrwt>
<pdfrwt beam="2">  1       -4 0.35024466E-03 0.12501366E+03</pdfrwt>
<totfact> 0.13997626E+03</totfact>
</mgrwt>
</event>
<event>
 5    1  0.3321169E-002  0.1249990E+03  0.7818608E-02  0.1235071E+00
         -4   -1    0    0    0  501 -0.00000000000E+00  0.00000000000E+00  0.43991809207E+02  0.44010137211E+02  0.12700000000E+01 0.  1.
          4   -1    0    0  501    0  0.00000000000E+00 -0.00000000000E+00 -0.88752173317E+02  0.88761259390E+02  0.12700000000E+01 0.  1.
         25    2    1    2    0    0  0.00000000000E+00  0.00000000000E+00 -0.44760364109E+02  0.13277139660E+03  0.12499901424E+03 0.  0.
    9000005    1    3    3    0    0 -0.59645128377E+02 -0.62968307508E+00 -0.42173536725E+02  0.73058504226E+02  0.10000000000E+01 0.  0.
    9000005    1    3    3    0    0  0.59645128377E+02  0.62968307508E+00 -0.25868273845E+01  0.59712892375E+02  0.10000000000E+01 0.  0.
<mgrwt>
<rscale>  0 0.12499901E+03</rscale>
<asrwt>0</asrwt>
<pdfrwt beam="2">  1        4 0.13656289E-01 0.12499901E+03</pdfrwt>
<pdfrwt beam="1">  1       -4 0.67700794E-02 0.12499901E+03</pdfrwt>
<totfact> 0.10285490E+04</totfact>
</mgrwt>
</event>
<event>
 5    1  0.3321169E-002  0.1249777E+03  0.7818608E-02  0.1235104E+00
         -4   -1    0    0    0  501 -0.00000000000E+00  0.00000000000E+00  0.86274907405E+01  0.87204642352E+01  0.12700000000E+01 0.  1.
          4   -1    0    0  501    0  0.00000000000E+00 -0.00000000000E+00 -0.45008695461E+03  0.45008874637E+03  0.12700000000E+01 0.  1.
         25    2    1    2    0    0  0.00000000000E+00  0.00000000000E+00 -0.44145946387E+03  0.45880921061E+03  0.12497773201E+03 0.  0.
    9000005    1    3    3    0    0  0.19502972544E+02 -0.59292120824E+02 -0.21038728211E+03  0.21945325243E+03  0.10000000000E+01 0.  0.
    9000005    1    3    3    0    0 -0.19502972544E+02  0.59292120824E+02 -0.23107218176E+03  0.23935595818E+03  0.10000000000E+01 0.  0.
<mgrwt>
<rscale>  0 0.12497773E+03</rscale>
<asrwt>0</asrwt>
<pdfrwt beam="2">  1        4 0.69251419E-01 0.12497773E+03</pdfrwt>
<pdfrwt beam="1">  1       -4 0.13345962E-02 0.12497773E+03</pdfrwt>
<totfact> 0.59237228E+03</totfact>
</mgrwt>
</event>
<event>
 5    1  0.3321169E-002  0.1249995E+03  0.7818608E-02  0.1235070E+00
         -4   -1    0    0    0  501 -0.00000000000E+00  0.00000000000E+00  0.25872728688E+03  0.25873040385E+03  0.12700000000E+01 0.  1.
          4   -1    0    0  501    0  0.00000000000E+00 -0.00000000000E+00 -0.15067911098E+02  0.15121337403E+02  0.12700000000E+01 0.  1.
         25    2    1    2    0    0  0.00000000000E+00  0.00000000000E+00  0.24365937578E+03  0.27385174125E+03  0.12499953912E+03 0.  0.
    9000005    1    3    3    0    0  0.60092872255E+02  0.14918187380E+02  0.10330258807E+03  0.12044139783E+03  0.10000000000E+01 0.  0.
    9000005    1    3    3    0    0 -0.60092872255E+02 -0.14918187380E+02  0.14035678771E+03  0.15341034342E+03  0.10000000000E+01 0.  0.
<mgrwt>
<rscale>  0 0.12499954E+03</rscale>
<asrwt>0</asrwt>
<pdfrwt beam="2">  1        4 0.23224897E-02 0.12499954E+03</pdfrwt>
<pdfrwt beam="1">  1       -4 0.39808546E-01 0.12499954E+03</pdfrwt>
<totfact> 0.79001256E+03</totfact>
</mgrwt>
</event>
<event>
 5    1  0.3321169E-002  0.1249989E+03  0.7818608E-02  0.1235071E+00
         -4   -1    0    0    0  501 -0.00000000000E+00  0.00000000000E+00  0.33071482050E+03  0.33071725899E+03  0.12700000000E+01 0.  1.
          4   -1    0    0  501    0  0.00000000000E+00 -0.00000000000E+00 -0.11774695927E+02  0.11842987974E+02  0.12700000000E+01 0.  1.
         25    2    1    2    0    0  0.00000000000E+00  0.00000000000E+00  0.31894012457E+03  0.34256024697E+03  0.12499887896E+03 0.  0.
    9000005    1    3    3    0    0 -0.51040077238E+02 -0.19231113576E+02  0.24305572429E+03  0.24910240931E+03  0.10000000000E+01 0.  0.
    9000005    1    3    3    0    0  0.51040077238E+02  0.19231113576E+02  0.75884400278E+02  0.93457837656E+02  0.10000000000E+01 0.  0.
<mgrwt>
<rscale>  0 0.12499888E+03</rscale>
<asrwt>0</asrwt>
<pdfrwt beam="2">  1        4 0.18169325E-02 0.12499888E+03</pdfrwt>
<pdfrwt beam="1">  1       -4 0.50884645E-01 0.12499888E+03</pdfrwt>
<totfact> 0.70552598E+03</totfact>
</mgrwt>
</event>
<event>
 5    1  0.3321169E-002  0.1249967E+03  0.7818608E-02  0.1235074E+00
         -4   -1    0    0    0  501 -0.00000000000E+00  0.00000000000E+00  0.95674735876E+02  0.95683164584E+02  0.12700000000E+01 0. -1.
          4   -1    0    0  501    0  0.00000000000E+00 -0.00000000000E+00 -0.40806170563E+02  0.40825928722E+02  0.12700000000E+01 0. -1.
         25    2    1    2    0    0  0.00000000000E+00  0.00000000000E+00  0.54868565312E+02  0.13650909331E+03  0.12499669234E+03 0.  0.
    9000005    1    3    3    0    0 -0.44167690148E+02 -0.44540570826E+01  0.75467140313E+02  0.87560908769E+02  0.10000000000E+01 0.  0.
    9000005    1    3    3    0    0  0.44167690148E+02  0.44540570826E+01 -0.20598575000E+02  0.48948184538E+02  0.10000000000E+01 0.  0.
<mgrwt>
<rscale>  0 0.12499669E+03</rscale>
<asrwt>0</asrwt>
<pdfrwt beam="2">  1        4 0.62800406E-02 0.12499669E+03</pdfrwt>
<pdfrwt beam="1">  1       -4 0.14721358E-01 0.12499669E+03</pdfrwt>
<totfact> 0.10207121E+04</totfact>
</mgrwt>
</event>
<event>
 5    1  0.3321169E-002  0.1249983E+03  0.7818608E-02  0.1235072E+00
         -4   -1    0    0    0  501 -0.00000000000E+00  0.00000000000E+00  0.62820452679E+02  0.62833288748E+02  0.12700000000E+01 0.  1.
          4   -1    0    0  501    0  0.00000000000E+00 -0.00000000000E+00 -0.62153785576E+02  0.62166759296E+02  0.12700000000E+01 0.  1.
         25    2    1    2    0    0  0.00000000000E+00  0.00000000000E+00  0.66666710355E+00  0.12500004804E+03  0.12499827025E+03 0.  0.
    9000005    1    3    3    0    0  0.15394169528E+02 -0.26451475931E+02 -0.54151208259E+02  0.62209439720E+02  0.10000000000E+01 0.  0.
    9000005    1    3    3    0    0 -0.15394169528E+02  0.26451475931E+02  0.54817875362E+02  0.62790608324E+02  0.10000000000E+01 0.  0.
<mgrwt>
<rscale>  0 0.12499827E+03</rscale>
<asrwt>0</asrwt>
<pdfrwt beam="2">  1        4 0.95641062E-02 0.12499827E+03</pdfrwt>
<pdfrwt beam="1">  1       -4 0.96666704E-02 0.12499827E+03</pdfrwt>
<totfact> 0.10453270E+04</totfact>
</mgrwt>
</event>
<event>
 5    1  0.3321169E-002  0.1250001E+03  0.7818608E-02  0.1235069E+00
          4   -1    0    0  501    0  0.00000000000E+00  0.00000000000E+00  0.80353294591E+01  0.81350734180E+01  0.12700000000E+01 0.  1.
         -4   -1    0    0    0  501 -0.00000000000E+00 -0.00000000000E+00 -0.48303594737E+03  0.48303761691E+03  0.12700000000E+01 0.  1.
         25    2    1    2    0    0  0.00000000000E+00  0.00000000000E+00 -0.47500061791E+03  0.49117269033E+03  0.12500009884E+03 0.  0.
    9000005    1    3    3    0    0 -0.29384734428E+02 -0.53339233897E+02 -0.29261251152E+03  0.29888395472E+03  0.10000000000E+01 0.  0.
    9000005    1    3    3    0    0  0.29384734428E+02  0.53339233897E+02 -0.18238810639E+03  0.19228873561E+03  0.10000000000E+01 0.  0.
<mgrwt>
<rscale>  0 0.12500010E+03</rscale>
<asrwt>0</asrwt>
<pdfrwt beam="1">  1        4 0.12440059E-02 0.12500010E+03</pdfrwt>
<pdfrwt beam="2">  1       -4 0.74321001E-01 0.12500010E+03</pdfrwt>
<totfact> 0.56555707E+03</totfact>
</mgrwt>
</event>
<event>
 5    1  0.3321169E-002  0.1250011E+03  0.7818608E-02  0.1235068E+00
          4   -1    0    0  501    0  0.00000000000E+00  0.00000000000E+00  0.26824054577E+02  0.26854102181E+02  0.12700000000E+01 0. -1.
         -4   -1    0    0    0  501 -0.00000000000E+00 -0.00000000000E+00 -0.14551301888E+03  0.14551856089E+03  0.12700000000E+01 0. -1.
         25    2    1    2    0    0  0.00000000000E+00  0.00000000000E+00 -0.11868896431E+03  0.17237266307E+03  0.12500105890E+03 0.  0.
    9000005    1    3    3    0    0 -0.30949573179E+02  0.31203468660E+02  0.19193941868E+01  0.44002461413E+02  0.10000000000E+01 0.  0.
    9000005    1    3    3    0    0  0.30949573179E+02 -0.31203468660E+02 -0.12060835849E+03  0.12837020166E+03  0.10000000000E+01 0.  0.
<mgrwt>
<rscale>  0 0.12500106E+03</rscale>
<asrwt>0</asrwt>
<pdfrwt beam="1">  1        4 0.41295154E-02 0.12500106E+03</pdfrwt>
<pdfrwt beam="2">  1       -4 0.22389356E-01 0.12500106E+03</pdfrwt>
<totfact> 0.95005988E+03</totfact>
</mgrwt>
</event>
<event>
 5    1  0.3321169E-002  0.1249958E+03  0.7818608E-02  0.1235076E+00
         -4   -1    0    0    0  501 -0.00000000000E+00  0.00000000000E+00  0.61845405663E+03  0.61845536061E+03  0.12700000000E+01 0.  1.
          4   -1    0    0  501    0  0.00000000000E+00 -0.00000000000E+00 -0.62505597022E+01  0.63782753618E+01  0.12700000000E+01 0.  1.
         25    2    1    2    0    0  0.00000000000E+00  0.00000000000E+00  0.61220349693E+03  0.62483363597E+03  0.12499580387E+03 0.  0.
    9000005    1    3    3    0    0 -0.46612718514E+02 -0.20744932897E+02  0.12573515273E+03  0.13569608101E+03  0.10000000000E+01 0.  0.
    9000005    1    3    3    0    0  0.46612718514E+02  0.20744932897E+02  0.48646834419E+03  0.48913755496E+03  0.10000000000E+01 0.  0.
<mgrwt>
<rscale>  0 0.12499580E+03</rscale>
<asrwt>0</asrwt>
<pdfrwt beam="2">  1        4 0.97154888E-03 0.12499580E+03</pdfrwt>
<pdfrwt beam="1">  1       -4 0.95156730E-01 0.12499580E+03</pdfrwt>
<totfact> 0.47340988E+03</totfact>
</mgrwt>
</event>
<event>
 5    1  0.3321169E-002  0.1250020E+03  0.7818608E-02  0.1235066E+00
          4   -1    0    0  501    0  0.00000000000E+00  0.00000000000E+00  0.18283109949E+02  0.18327165886E+02  0.12700000000E+01 0.  1.
         -4   -1    0    0    0  501 -0.00000000000E+00 -0.00000000000E+00 -0.21335723694E+03  0.21336101672E+03  0.12700000000E+01 0.  1.
         25    2    1    2    0    0  0.00000000000E+00  0.00000000000E+00 -0.19507412699E+03  0.23168818261E+03  0.12500199573E+03 0.  0.
    9000005    1    3    3    0    0 -0.27909624283E+02 -0.12197709174E+02  0.36030149356E+01  0.30687341907E+02  0.10000000000E+01 0.  0.
    9000005    1    3    3    0    0  0.27909624283E+02  0.12197709174E+02 -0.19867714193E+03  0.20100084070E+03  0.10000000000E+01 0.  0.
<mgrwt>
<rscale>  0 0.12500200E+03</rscale>
<asrwt>0</asrwt>
<pdfrwt beam="1">  1        4 0.28164660E-02 0.12500200E+03</pdfrwt>
<pdfrwt beam="2">  1       -4 0.32827868E-01 0.12500200E+03</pdfrwt>
<totfact> 0.85047262E+03</totfact>
</mgrwt>
</event>
<event>
 5    1  0.3321169E-002  0.1250025E+03  0.7818608E-02  0.1235065E+00
          4   -1    0    0  501    0  0.00000000000E+00  0.00000000000E+00  0.14010025487E+02  0.14067470069E+02  0.12700000000E+01 0. -1.
         -4   -1    0    0    0  501 -0.00000000000E+00 -0.00000000000E+00 -0.27820013492E+03  0.27820303372E+03  0.12700000000E+01 0. -1.
         25    2    1    2    0    0  0.00000000000E+00  0.00000000000E+00 -0.26419010944E+03  0.29227050379E+03  0.12500253382E+03 0.  0.
    9000005    1    3    3    0    0 -0.38452436710E+02 -0.33525903944E+02 -0.21648883107E+03  0.22242075016E+03  0.10000000000E+01 0.  0.
    9000005    1    3    3    0    0  0.38452436710E+02  0.33525903944E+02 -0.47701278369E+02  0.69849753631E+02  0.10000000000E+01 0.  0.
<mgrwt>
<rscale>  0 0.12500253E+03</rscale>
<asrwt>0</asrwt>
<pdfrwt beam="1">  1        4 0.21600305E-02 0.12500253E+03</pdfrwt>
<pdfrwt beam="2">  1       -4 0.42804658E-01 0.12500253E+03</pdfrwt>
<totfact> 0.76574448E+03</totfact>
</mgrwt>
</event>
<event>
 5    1  0.3321169E-002  0.1250002E+03  0.7818608E-02  0.1235069E+00
          4   -1    0    0  501    0  0.00000000000E+00  0.00000000000E+00  0.22346420222E+03  0.22346781105E+03  0.12700000000E+01 0. -1.
         -4   -1    0    0    0  501 -0.00000000000E+00 -0.00000000000E+00 -0.17453653812E+02  0.17499798038E+02  0.12700000000E+01 0. -1.
         25    2    1    2    0    0  0.00000000000E+00  0.00000000000E+00  0.20601054841E+03  0.24096760909E+03  0.12500017029E+03 0.  0.
    9000005    1    3    3    0    0  0.29085490707E+02  0.12833163119E+02  0.20672054431E+03  0.20915314792E+03  0.10000000000E+01 0.  0.
    9000005    1    3    3    0    0 -0.29085490707E+02 -0.12833163119E+02 -0.70999589649E+00  0.31814461169E+02  0.10000000000E+01 0.  0.
<mgrwt>
<rscale>  0 0.12500017E+03</rscale>
<asrwt>0</asrwt>
<pdfrwt beam="1">  1        4 0.34382936E-01 0.12500017E+03</pdfrwt>
<pdfrwt beam="2">  1       -4 0.26890046E-02 0.12500017E+03</pdfrwt>
<totfact> 0.83653151E+03</totfact>
</mgrwt>
</event>
<event>
 5    1  0.3321169E-002  0.1249995E+03  0.7818608E-02  0.1235070E+00
          4   -1    0    0  501    0  0.00000000000E+00  0.00000000000E+00  0.15595280761E+02  0.15646906467E+02  0.12700000000E+01 0.  1.
         -4   -1    0    0    0  501 -0.00000000000E+00 -0.00000000000E+00 -0.25000744179E+03  0.25001066747E+03  0.12700000000E+01 0.  1.
         25    2    1    2    0    0  0.00000000000E+00  0.00000000000E+00 -0.23441216102E+03  0.26565757394E+03  0.12499954141E+03 0.  0.
    9000005    1    3    3    0    0  0.11882612488E+02 -0.58286655343E+02 -0.76508957287E+02  0.96918270805E+02  0.10000000000E+01 0.  0.
    9000005    1    3    3    0    0 -0.11882612488E+02  0.58286655343E+02 -0.15790320374E+03  0.16873930313E+03  0.10000000000E+01 0.  0.
<mgrwt>
<rscale>  0 0.12499954E+03</rscale>
<asrwt>0</asrwt>
<pdfrwt beam="1">  1        4 0.24034935E-02 0.12499954E+03</pdfrwt>
<pdfrwt beam="2">  1       -4 0.38466900E-01 0.12499954E+03</pdfrwt>
<totfact> 0.80119418E+03</totfact>
</mgrwt>
</event>
<event>
 5    1  0.3321169E-002  0.1249954E+03  0.7818608E-02  0.1235076E+00
          4   -1    0    0  501    0  0.00000000000E+00  0.00000000000E+00  0.33639349799E+02  0.33663314675E+02  0.12700000000E+01 0. -1.
         -4   -1    0    0    0  501 -0.00000000000E+00 -0.00000000000E+00 -0.11604416207E+03  0.11605111137E+03  0.12700000000E+01 0. -1.
         25    2    1    2    0    0  0.00000000000E+00  0.00000000000E+00 -0.82404812270E+02  0.14971442605E+03  0.12499542504E+03 0.  0.
    9000005    1    3    3    0    0  0.43730607752E+02  0.61015124765E+01  0.11761981720E+02  0.45704909177E+02  0.10000000000E+01 0.  0.
    9000005    1    3    3    0    0 -0.43730607752E+02 -0.61015124765E+01 -0.94166793990E+02  0.10400951687E+03  0.10000000000E+01 0.  0.
<mgrwt>
<rscale>  0 0.12499543E+03</rscale>
<asrwt>0</asrwt>
<pdfrwt beam="1">  1        4 0.51776626E-02 0.12499543E+03</pdfrwt>
<pdfrwt beam="2">  1       -4 0.17855326E-01 0.12499543E+03</pdfrwt>
<totfact> 0.99370885E+03</totfact>
</mgrwt>
</event>
<event>
 5    1  0.3321169E-002  0.1249991E+03  0.7818608E-02  0.1235071E+00
          4   -1    0    0  501    0  0.00000000000E+00  0.00000000000E+00  0.47877442765E+03  0.47877611206E+03  0.12700000000E+01 0. -1.
         -4   -1    0    0    0  501 -0.00000000000E+00 -0.00000000000E+00 -0.81076062492E+01  0.82064717810E+01  0.12700000000E+01 0. -1.
         25    2    1    2    0    0  0.00000000000E+00  0.00000000000E+00  0.47066682140E+03  0.48698258384E+03  0.12499912075E+03 0.  0.
    9000005    1    3    3    0    0  0.34298056428E+01  0.26121189897E+02  0.45610053247E+03  0.45686187831E+03  0.10000000000E+01 0.  0.
    9000005    1    3    3    0    0 -0.34298056428E+01 -0.26121189897E+02  0.14566288933E+02  0.30120705531E+02  0.10000000000E+01 0.  0.
<mgrwt>
<rscale>  0 0.12499912E+03</rscale>
<asrwt>0</asrwt>
<pdfrwt beam="1">  1        4 0.73665347E-01 0.12499912E+03</pdfrwt>
<pdfrwt beam="2">  1       -4 0.12550585E-02 0.12499912E+03</pdfrwt>
<totfact> 0.56889789E+03</totfact>
</mgrwt>
</event>
<event>
 5    1  0.3321169E-002  0.1250001E+03  0.7818608E-02  0.1235069E+00
          4   -1    0    0  501    0  0.00000000000E+00  0.00000000000E+00  0.18910139646E+03  0.18910566106E+03  0.12700000000E+01 0. -1.
         -4   -1    0    0    0  501 -0.00000000000E+00 -0.00000000000E+00 -0.20632934553E+02  0.20671983172E+02  0.12700000000E+01 0. -1.
         25    2    1    2    0    0  0.00000000000E+00  0.00000000000E+00  0.16846846191E+03  0.20977764423E+03  0.12500014944E+03 0.  0.
    9000005    1    3    3    0    0 -0.42304091768E+02 -0.10677059843E+02  0.15931692949E+03  0.16518631847E+03  0.10000000000E+01 0.  0.
    9000005    1    3    3    0    0  0.42304091768E+02  0.10677059843E+02  0.91515324139E+01  0.44591325756E+02  0.10000000000E+01 0.  0.
<mgrwt>
<rscale>  0 0.12500015E+03</rscale>
<asrwt>0</asrwt>
<pdfrwt beam="1">  1        4 0.29095855E-01 0.12500015E+03</pdfrwt>
<pdfrwt beam="2">  1       -4 0.31776294E-02 0.12500015E+03</pdfrwt>
<totfact> 0.88511911E+03</totfact>
</mgrwt>
</event>
<event>
 5    1  0.3321169E-002  0.1249960E+03  0.7818608E-02  0.1235075E+00
          4   -1    0    0  501    0  0.00000000000E+00  0.00000000000E+00  0.37156480421E+02  0.37178178241E+02  0.12700000000E+01 0.  1.
         -4   -1    0    0    0  501 -0.00000000000E+00 -0.00000000000E+00 -0.10506682986E+03  0.10507450517E+03  0.12700000000E+01 0.  1.
         25    2    1    2    0    0  0.00000000000E+00  0.00000000000E+00 -0.67910349438E+02  0.14225268341E+03  0.12499604144E+03 0.  0.
    9000005    1    3    3    0    0 -0.49648303699E+01 -0.49823087038E+00 -0.10484533156E+03  0.10496876357E+03  0.10000000000E+01 0.  0.
    9000005    1    3    3    0    0  0.49648303699E+01  0.49823087038E+00  0.36934982122E+02  0.37283919845E+02  0.10000000000E+01 0.  0.
<mgrwt>
<rscale>  0 0.12499604E+03</rscale>
<asrwt>0</asrwt>
<pdfrwt beam="1">  1        4 0.57186411E-02 0.12499604E+03</pdfrwt>
<pdfrwt beam="2">  1       -4 0.16166387E-01 0.12499604E+03</pdfrwt>
<totfact> 0.10088009E+04</totfact>
</mgrwt>
</event>
<event>
 5    1  0.3321169E-002  0.1250004E+03  0.7818608E-02  0.1235069E+00
         -4   -1    0    0    0  501 -0.00000000000E+00  0.00000000000E+00  0.83994699473E+03  0.83994795485E+03  0.12700000000E+01 0. -1.
          4   -1    0    0  501    0  0.00000000000E+00 -0.00000000000E+00 -0.45629384005E+01  0.47363811974E+01  0.12700000000E+01 0. -1.
         25    2    1    2    0    0  0.00000000000E+00  0.00000000000E+00  0.83538405633E+03  0.84468433605E+03  0.12500042397E+03 0.  0.
    9000005    1    3    3    0    0  0.16734980949E+02  0.47203101956E+02  0.67026927558E+03  0.67213844869E+03  0.10000000000E+01 0.  0.
    9000005    1    3    3    0    0 -0.16734980949E+02 -0.47203101956E+02  0.16511478075E+03  0.17254588736E+03  0.10000000000E+01 0.  0.
<mgrwt>
<rscale>  0 0.12500042E+03</rscale>
<asrwt>0</asrwt>
<pdfrwt beam="2">  1        4 0.71540645E-03 0.12500042E+03</pdfrwt>
<pdfrwt beam="1">  1       -4 0.12923597E+00 0.12500042E+03</pdfrwt>
<totfact> 0.36345516E+03</totfact>
</mgrwt>
</event>
<event>
 5    1  0.3321169E-002  0.1249992E+03  0.7818608E-02  0.1235070E+00
          4   -1    0    0  501    0  0.00000000000E+00  0.00000000000E+00  0.31962660803E+01  0.34393337808E+01  0.12700000000E+01 0.  1.
         -4   -1    0    0    0  501 -0.00000000000E+00 -0.00000000000E+00 -0.11771037867E+04  0.11771044718E+04  0.12700000000E+01 0.  1.
         25    2    1    2    0    0  0.00000000000E+00  0.00000000000E+00 -0.11739075206E+04  0.11805438056E+04  0.12499923983E+03 0.  0.
    9000005    1    3    3    0    0  0.98321048871E+01  0.39992787498E+02 -0.10308518972E+04  0.10316747197E+04  0.10000000000E+01 0.  0.
    9000005    1    3    3    0    0 -0.98321048871E+01 -0.39992787498E+02 -0.14305562341E+03  0.14886908587E+03  0.10000000000E+01 0.  0.
<mgrwt>
<rscale>  0 0.12499924E+03</rscale>
<asrwt>0</asrwt>
<pdfrwt beam="1">  1        4 0.51048440E-03 0.12499924E+03</pdfrwt>
<pdfrwt beam="2">  1       -4 0.18111131E+00 0.12499924E+03</pdfrwt>
<totfact> 0.25228245E+03</totfact>
</mgrwt>
</event>
<event>
 5    1  0.3321169E-002  0.1250024E+03  0.7818608E-02  0.1235066E+00
         -4   -1    0    0    0  501 -0.00000000000E+00  0.00000000000E+00  0.41460623803E+01  0.43362118562E+01  0.12700000000E+01 0. -1.
          4   -1    0    0  501    0  0.00000000000E+00 -0.00000000000E+00 -0.92088322848E+03  0.92088410421E+03  0.12700000000E+01 0. -1.
         25    2    1    2    0    0  0.00000000000E+00  0.00000000000E+00 -0.91673716610E+03  0.92522031607E+03  0.12500240623E+03 0.  0.
    9000005    1    3    3    0    0  0.16434570548E+02 -0.41131172162E+02 -0.13206440801E+03  0.13929779717E+03  0.10000000000E+01 0.  0.
    9000005    1    3    3    0    0 -0.16434570548E+02  0.41131172162E+02 -0.78467275809E+03  0.78592251890E+03  0.10000000000E+01 0.  0.
<mgrwt>
<rscale>  0 0.12500241E+03</rscale>
<asrwt>0</asrwt>
<pdfrwt beam="2">  1        4 0.14168888E+00 0.12500241E+03</pdfrwt>
<pdfrwt beam="1">  1       -4 0.65255073E-03 0.12500241E+03</pdfrwt>
<totfact> 0.33210691E+03</totfact>
</mgrwt>
</event>
<event>
 5    1  0.3321169E-002  0.1250012E+03  0.7818608E-02  0.1235067E+00
          4   -1    0    0  501    0  0.00000000000E+00  0.00000000000E+00  0.54894900222E+03  0.54895047130E+03  0.12700000000E+01 0.  1.
         -4   -1    0    0    0  501 -0.00000000000E+00 -0.00000000000E+00 -0.70578469062E+01  0.71711995476E+01  0.12700000000E+01 0.  1.
         25    2    1    2    0    0  0.00000000000E+00  0.00000000000E+00  0.54189115531E+03  0.55612167084E+03  0.12500115430E+03 0.  0.
    9000005    1    3    3    0    0  0.10041048646E+02  0.12207013318E+02  0.53993084592E+03  0.54016307927E+03  0.10000000000E+01 0.  0.
    9000005    1    3    3    0    0 -0.10041048646E+02 -0.12207013318E+02  0.19603093916E+01  0.15958591572E+02  0.10000000000E+01 0.  0.
<mgrwt>
<rscale>  0 0.12500115E+03</rscale>
<asrwt>0</asrwt>
<pdfrwt beam="1">  1        4 0.84462500E-01 0.12500115E+03</pdfrwt>
<pdfrwt beam="2">  1       -4 0.10946554E-02 0.12500115E+03</pdfrwt>
<totfact> 0.51758592E+03</totfact>
</mgrwt>
</event>
<event>
 5    1  0.3321169E-002  0.1249912E+03  0.7818608E-02  0.1235083E+00
         -4   -1    0    0    0  501 -0.00000000000E+00  0.00000000000E+00  0.10876990283E+02  0.10950882048E+02  0.12700000000E+01 0.  1.
          4   -1    0    0  501    0  0.00000000000E+00 -0.00000000000E+00 -0.35778872651E+03  0.35779098049E+03  0.12700000000E+01 0.  1.
         25    2    1    2    0    0  0.00000000000E+00  0.00000000000E+00 -0.34691173623E+03  0.36874186253E+03  0.12499123351E+03 0.  0.
    9000005    1    3    3    0    0 -0.36466562018E+02 -0.43039656059E+02 -0.94159043270E+02  0.10976860921E+03  0.10000000000E+01 0.  0.
    9000005    1    3    3    0    0  0.36466562018E+02  0.43039656059E+02 -0.25275269296E+03  0.25897325332E+03  0.10000000000E+01 0.  0.
<mgrwt>
<rscale>  0 0.12499123E+03</rscale>
<asrwt>0</asrwt>
<pdfrwt beam="2">  1        4 0.55050268E-01 0.12499123E+03</pdfrwt>
<pdfrwt beam="1">  1       -4 0.16792408E-02 0.12499123E+03</pdfrwt>
<totfact> 0.67723897E+03</totfact>
</mgrwt>
</event>
<event>
 5    1  0.3321169E-002  0.1249997E+03  0.7818608E-02  0.1235070E+00
          4   -1    0    0  501    0  0.00000000000E+00  0.00000000000E+00  0.65305440815E+02  0.65317788542E+02  0.12700000000E+01 0. -1.
         -4   -1    0    0    0  501 -0.00000000000E+00 -0.00000000000E+00 -0.59790066754E+02  0.59803553259E+02  0.12700000000E+01 0. -1.
         25    2    1    2    0    0  0.00000000000E+00  0.00000000000E+00  0.55153740610E+01  0.12512134180E+03  0.12499972329E+03 0.  0.
    9000005    1    3    3    0    0 -0.98762124061E+01  0.12204179577E+02  0.63304149885E+02  0.65229571233E+02  0.10000000000E+01 0.  0.
    9000005    1    3    3    0    0  0.98762124061E+01 -0.12204179577E+02 -0.57788775824E+02  0.59891770568E+02  0.10000000000E+01 0.  0.
<mgrwt>
<rscale>  0 0.12499972E+03</rscale>
<asrwt>0</asrwt>
<pdfrwt beam="1">  1        4 0.10048978E-01 0.12499972E+03</pdfrwt>
<pdfrwt beam="2">  1       -4 0.92004590E-02 0.12499972E+03</pdfrwt>
<totfact> 0.10450293E+04</totfact>
</mgrwt>
</event>
<event>
 5    1  0.3321169E-002  0.1250026E+03  0.7818608E-02  0.1235065E+00
         -4   -1    0    0    0  501 -0.00000000000E+00  0.00000000000E+00  0.53134684120E+01  0.54631352322E+01  0.12700000000E+01 0. -1.
          4   -1    0    0  501    0  0.00000000000E+00 -0.00000000000E+00 -0.72483022461E+03  0.72483133721E+03  0.12700000000E+01 0. -1.
         25    2    1    2    0    0  0.00000000000E+00  0.00000000000E+00 -0.71951675619E+03  0.73029447244E+03  0.12500261612E+03 0.  0.
    9000005    1    3    3    0    0 -0.43837387198E+02  0.16618945128E+02 -0.11834560710E+03  0.12729724495E+03  0.10000000000E+01 0.  0.
    9000005    1    3    3    0    0  0.43837387198E+02 -0.16618945128E+02 -0.60117114910E+03  0.60299722749E+03  0.10000000000E+01 0.  0.
<mgrwt>
<rscale>  0 0.12500262E+03</rscale>
<asrwt>0</asrwt>
<pdfrwt beam="2">  1        4 0.11152386E+00 0.12500262E+03</pdfrwt>
<pdfrwt beam="1">  1       -4 0.82905567E-03 0.12500262E+03</pdfrwt>
<totfact> 0.41532497E+03</totfact>
</mgrwt>
</event>
<event>
 5    1  0.3321169E-002  0.1250073E+03  0.7818608E-02  0.1235058E+00
          4   -1    0    0  501    0  0.00000000000E+00  0.00000000000E+00  0.26425606017E+01  0.29318981111E+01  0.12700000000E+01 0. -1.
         -4   -1    0    0    0  501 -0.00000000000E+00 -0.00000000000E+00 -0.14013559518E+04  0.14013565273E+04  0.12700000000E+01 0. -1.
         25    2    1    2    0    0  0.00000000000E+00  0.00000000000E+00 -0.13987133912E+04  0.14042884254E+04  0.12500732365E+03 0.  0.
    9000005    1    3    3    0    0  0.22612287279E+02  0.37677826421E+01 -0.46238471672E+02  0.51618872369E+02  0.10000000000E+01 0.  0.
    9000005    1    3    3    0    0 -0.22612287279E+02 -0.37677826421E+01 -0.13524749196E+04  0.13526695531E+04  0.10000000000E+01 0.  0.
<mgrwt>
<rscale>  0 0.12500732E+03</rscale>
<asrwt>0</asrwt>
<pdfrwt beam="1">  1        4 0.42884990E-03 0.12500732E+03</pdfrwt>
<pdfrwt beam="2">  1       -4 0.21561496E+00 0.12500732E+03</pdfrwt>
<totfact> 0.19885981E+03</totfact>
</mgrwt>
</event>
<event>
 5    1  0.3321169E-002  0.1249967E+03  0.7818608E-02  0.1235074E+00
          4   -1    0    0  501    0  0.00000000000E+00  0.00000000000E+00  0.35203211971E+03  0.35203441055E+03  0.12700000000E+01 0.  1.
         -4   -1    0    0    0  501 -0.00000000000E+00 -0.00000000000E+00 -0.11057032165E+02  0.11129728671E+02  0.12700000000E+01 0.  1.
         25    2    1    2    0    0  0.00000000000E+00  0.00000000000E+00  0.34097508755E+03  0.36316413922E+03  0.12499672670E+03 0.  0.
    9000005    1    3    3    0    0  0.65962504973E+01  0.13270856508E+02  0.34686690613E+03  0.34718478757E+03  0.10000000000E+01 0.  0.
    9000005    1    3    3    0    0 -0.65962504973E+01 -0.13270856508E+02 -0.58918185767E+01  0.15979351652E+02  0.10000000000E+01 0.  0.
<mgrwt>
<rscale>  0 0.12499673E+03</rscale>
<asrwt>0</asrwt>
<pdfrwt beam="1">  1        4 0.54164557E-01 0.12499673E+03</pdfrwt>
<pdfrwt beam="2">  1       -4 0.17068501E-02 0.12499673E+03</pdfrwt>
<totfact> 0.68305154E+03</totfact>
</mgrwt>
</event>
<event>
 5    1  0.3321169E-002  0.1249998E+03  0.7818608E-02  0.1235070E+00
          4   -1    0    0  501    0  0.00000000000E+00  0.00000000000E+00  0.14150484915E+03  0.14151054813E+03  0.12700000000E+01 0.  1.
         -4   -1    0    0    0  501 -0.00000000000E+00 -0.00000000000E+00 -0.27584092550E+02  0.27613313126E+02  0.12700000000E+01 0.  1.
         25    2    1    2    0    0  0.00000000000E+00  0.00000000000E+00  0.11392075660E+03  0.16912386126E+03  0.12499976665E+03 0.  0.
    9000005    1    3    3    0    0 -0.31514502827E+02  0.12139979070E+02  0.12810123574E+03  0.13248195944E+03  0.10000000000E+01 0.  0.
    9000005    1    3    3    0    0  0.31514502827E+02 -0.12139979070E+02 -0.14180479137E+02  0.36641901818E+02  0.10000000000E+01 0.  0.
<mgrwt>
<rscale>  0 0.12499977E+03</rscale>
<asrwt>0</asrwt>
<pdfrwt beam="1">  1        4 0.21772663E-01 0.12499977E+03</pdfrwt>
<pdfrwt beam="2">  1       -4 0.42463926E-02 0.12499977E+03</pdfrwt>
<totfact> 0.95612549E+03</totfact>
</mgrwt>
</event>
<event>
 5    1  0.3321169E-002  0.1250001E+03  0.7818608E-02  0.1235069E+00
          4   -1    0    0  501    0  0.00000000000E+00  0.00000000000E+00  0.16630745839E+02  0.16679166861E+02  0.12700000000E+01 0. -1.
         -4   -1    0    0    0  501 -0.00000000000E+00 -0.00000000000E+00 -0.23448984845E+03  0.23449328759E+03  0.12700000000E+01 0. -1.
         25    2    1    2    0    0  0.00000000000E+00  0.00000000000E+00 -0.21785910261E+03  0.25117245445E+03  0.12500005314E+03 0.  0.
    9000005    1    3    3    0    0  0.54267938960E+02  0.30697107209E+02 -0.11743844163E+03  0.13296657160E+03  0.10000000000E+01 0.  0.
    9000005    1    3    3    0    0 -0.54267938960E+02 -0.30697107209E+02 -0.10042066098E+03  0.11820588285E+03  0.10000000000E+01 0.  0.
<mgrwt>
<rscale>  0 0.12500005E+03</rscale>
<asrwt>0</asrwt>
<pdfrwt beam="1">  1        4 0.25625657E-02 0.12500005E+03</pdfrwt>
<pdfrwt beam="2">  1       -4 0.36079348E-01 0.12500005E+03</pdfrwt>
<totfact> 0.82160970E+03</totfact>
</mgrwt>
</event>
<event>
 5    1  0.3321169E-002  0.1249971E+03  0.7818608E-02  0.1235074E+00
          4   -1    0    0  501    0  0.00000000000E+00  0.00000000000E+00  0.24893131738E+04  0.24893134977E+04  0.12700000000E+01 0.  1.
         -4   -1    0    0    0  501 -0.00000000000E+00 -0.00000000000E+00 -0.13117843154E+01  0.18258362714E+01  0.12700000000E+01 0.  1.
         25    2    1    2    0    0  0.00000000000E+00  0.00000000000E+00  0.24880013895E+04  0.24911393340E+04  0.12499706999E+03 0.  0.
    9000005    1    3    3    0    0  0.16783125744E+02 -0.20647096319E-01  0.24436544423E+04  0.24437122799E+04  0.10000000000E+01 0.  0.
    9000005    1    3    3    0    0 -0.16783125744E+02  0.20647096319E-01  0.44346947181E+02  0.47427054097E+02  0.10000000000E+01 0.  0.
<mgrwt>
<rscale>  0 0.12499707E+03</rscale>
<asrwt>0</asrwt>
<pdfrwt beam="1">  1        4 0.38301223E+00 0.12499707E+03</pdfrwt>
<pdfrwt beam="2">  1       -4 0.24137946E-03 0.12499707E+03</pdfrwt>
<totfact> 0.47395733E+02</totfact>
</mgrwt>
</event>
<event>
 5    1  0.3321169E-002  0.1250020E+03  0.7818608E-02  0.1235066E+00
         -4   -1    0    0    0  501 -0.00000000000E+00  0.00000000000E+00  0.14561783473E+02  0.14617059824E+02  0.12700000000E+01 0. -1.
          4   -1    0    0  501    0  0.00000000000E+00 -0.00000000000E+00 -0.26769731015E+03  0.26770032268E+03  0.12700000000E+01 0. -1.
         25    2    1    2    0    0  0.00000000000E+00  0.00000000000E+00 -0.25313552668E+03  0.28231738250E+03  0.12500203837E+03 0.  0.
    9000005    1    3    3    0    0  0.19787537760E+02 -0.54290580434E+02 -0.18031649248E+03  0.18935166024E+03  0.10000000000E+01 0.  0.
    9000005    1    3    3    0    0 -0.19787537760E+02  0.54290580434E+02 -0.72819034197E+02  0.92965722263E+02  0.10000000000E+01 0.  0.
<mgrwt>
<rscale>  0 0.12500204E+03</rscale>
<asrwt>0</asrwt>
<pdfrwt beam="2">  1        4 0.41188682E-01 0.12500204E+03</pdfrwt>
<pdfrwt beam="1">  1       -4 0.22447583E-02 0.12500204E+03</pdfrwt>
<totfact> 0.77868311E+03</totfact>
</mgrwt>
</event>
<event>
 5    1  0.3321169E-002  0.1250004E+03  0.7818608E-02  0.1235069E+00
         -4   -1    0    0    0  501 -0.00000000000E+00  0.00000000000E+00  0.43571458666E+01  0.45384601025E+01  0.12700000000E+01 0.  1.
          4   -1    0    0  501    0  0.00000000000E+00 -0.00000000000E+00 -0.87806604980E+03  0.87806696823E+03  0.12700000000E+01 0.  1.
         25    2    1    2    0    0  0.00000000000E+00  0.00000000000E+00 -0.87370890393E+03  0.88260542834E+03  0.12500037330E+03 0.  0.
    9000005    1    3    3    0    0 -0.15890419673E+02  0.40654302581E+02 -0.75262367728E+03  0.75388903517E+03  0.10000000000E+01 0.  0.
    9000005    1    3    3    0    0  0.15890419673E+02 -0.40654302581E+02 -0.12108522665E+03  0.12871639316E+03  0.10000000000E+01 0.  0.
<mgrwt>
<rscale>  0 0.12500037E+03</rscale>
<asrwt>0</asrwt>
<pdfrwt beam="2">  1        4 0.13510096E+00 0.12500037E+03</pdfrwt>
<pdfrwt beam="1">  1       -4 0.68434873E-03 0.12500037E+03</pdfrwt>
<totfact> 0.34828681E+03</totfact>
</mgrwt>
</event>
<event>
 5    1  0.3321169E-002  0.1250012E+03  0.7818608E-02  0.1235067E+00
          4   -1    0    0  501    0  0.00000000000E+00  0.00000000000E+00  0.86562633623E+02  0.86571949498E+02  0.12700000000E+01 0. -1.
         -4   -1    0    0    0  501 -0.00000000000E+00 -0.00000000000E+00 -0.45106486152E+02  0.45124361413E+02  0.12700000000E+01 0. -1.
         25    2    1    2    0    0  0.00000000000E+00  0.00000000000E+00  0.41456147472E+02  0.13169631091E+03  0.12500122457E+03 0.  0.
    9000005    1    3    3    0    0 -0.38439771771E+02 -0.40976841095E+02  0.49554238002E+02  0.74922226769E+02  0.10000000000E+01 0.  0.
    9000005    1    3    3    0    0  0.38439771771E+02  0.40976841095E+02 -0.80980905307E+01  0.56774084142E+02  0.10000000000E+01 0.  0.
<mgrwt>
<rscale>  0 0.12500122E+03</rscale>
<asrwt>0</asrwt>
<pdfrwt beam="1">  1        4 0.13319420E-01 0.12500122E+03</pdfrwt>
<pdfrwt beam="2">  1       -4 0.69415510E-02 0.12500122E+03</pdfrwt>
<totfact> 0.10307900E+04</totfact>
</mgrwt>
</event>
<event>
 5    1  0.3321169E-002  0.1250019E+03  0.7818608E-02  0.1235066E+00
         -4   -1    0    0    0  501 -0.00000000000E+00  0.00000000000E+00  0.33631810328E+02  0.33655780573E+02  0.12700000000E+01 0.  1.
          4   -1    0    0  501    0  0.00000000000E+00 -0.00000000000E+00 -0.11608218386E+03  0.11608913089E+03  0.12700000000E+01 0.  1.
         25    2    1    2    0    0  0.00000000000E+00  0.00000000000E+00 -0.82450373534E+02  0.14974491146E+03  0.12500189764E+03 0.  0.
    9000005    1    3    3    0    0  0.61479320968E+02 -0.11170781227E+02 -0.40104395694E+02  0.74255341988E+02  0.10000000000E+01 0.  0.
    9000005    1    3    3    0    0 -0.61479320968E+02  0.11170781227E+02 -0.42345977840E+02  0.75489569472E+02  0.10000000000E+01 0.  0.
<mgrwt>
<rscale>  0 0.12500190E+03</rscale>
<asrwt>0</asrwt>
<pdfrwt beam="2">  1        4 0.17861176E-01 0.12500190E+03</pdfrwt>
<pdfrwt beam="1">  1       -4 0.51765030E-02 0.12500190E+03</pdfrwt>
<totfact> 0.99350327E+03</totfact>
</mgrwt>
</event>
<event>
 5    1  0.3321169E-002  0.1250008E+03  0.7818608E-02  0.1235068E+00
         -4   -1    0    0    0  501 -0.00000000000E+00  0.00000000000E+00  0.10864934167E+02  0.10938907371E+02  0.12700000000E+01 0.  1.
          4   -1    0    0  501    0  0.00000000000E+00 -0.00000000000E+00 -0.35823812694E+03  0.35824037809E+03  0.12700000000E+01 0.  1.
         25    2    1    2    0    0  0.00000000000E+00  0.00000000000E+00 -0.34737319277E+03  0.36917928546E+03  0.12500083902E+03 0.  0.
    9000005    1    3    3    0    0  0.45333868646E+02 -0.33912137527E+02 -0.95540470844E+02  0.11105932778E+03  0.10000000000E+01 0.  0.
    9000005    1    3    3    0    0 -0.45333868646E+02  0.33912137527E+02 -0.25183272193E+03  0.25811995768E+03  0.10000000000E+01 0.  0.
<mgrwt>
<rscale>  0 0.12500084E+03</rscale>
<asrwt>0</asrwt>
<pdfrwt beam="2">  1        4 0.55119412E-01 0.12500084E+03</pdfrwt>
<pdfrwt beam="1">  1       -4 0.16773920E-02 0.12500084E+03</pdfrwt>
<totfact> 0.67663635E+03</totfact>
</mgrwt>
</event>
<event>
 5    1  0.3321169E-002  0.1249973E+03  0.7818608E-02  0.1235074E+00
          4   -1    0    0  501    0  0.00000000000E+00  0.00000000000E+00  0.64727004565E+03  0.64727129157E+03  0.12700000000E+01 0. -1.
         -4   -1    0    0    0  501 -0.00000000000E+00 -0.00000000000E+00 -0.59666138290E+01  0.61002770908E+01  0.12700000000E+01 0. -1.
         25    2    1    2    0    0  0.00000000000E+00  0.00000000000E+00  0.64130343182E+03  0.65337156867E+03  0.12499726027E+03 0.  0.
    9000005    1    3    3    0    0  0.15747710549E+02 -0.33035593094E+02  0.58541995610E+03  0.58656360763E+03  0.10000000000E+01 0.  0.
    9000005    1    3    3    0    0 -0.15747710549E+02  0.33035593094E+02  0.55883475720E+02  0.66807961031E+02  0.10000000000E+01 0.  0.
<mgrwt>
<rscale>  0 0.12499726E+03</rscale>
<asrwt>0</asrwt>
<pdfrwt beam="1">  1        4 0.99590418E-01 0.12499726E+03</pdfrwt>
<pdfrwt beam="2">  1       -4 0.92831790E-03 0.12499726E+03</pdfrwt>
<totfact> 0.45665621E+03</totfact>
</mgrwt>
</event>
<event>
 5    1  0.3321169E-002  0.1249925E+03  0.7818608E-02  0.1235081E+00
         -4   -1    0    0    0  501 -0.00000000000E+00  0.00000000000E+00  0.32420290116E+03  0.32420538864E+03  0.12700000000E+01 0.  1.
          4   -1    0    0  501    0  0.00000000000E+00 -0.00000000000E+00 -0.12011320932E+02  0.12078275147E+02  0.12700000000E+01 0.  1.
         25    2    1    2    0    0  0.00000000000E+00  0.00000000000E+00  0.31219158023E+03  0.33628366379E+03  0.12499247882E+03 0.  0.
    9000005    1    3    3    0    0 -0.12728194083E+01 -0.57272484093E+02  0.88941504557E+02  0.10579862351E+03  0.10000000000E+01 0.  0.
    9000005    1    3    3    0    0  0.12728194083E+01  0.57272484093E+02  0.22325007567E+03  0.23048504028E+03  0.10000000000E+01 0.  0.
<mgrwt>
<rscale>  0 0.12499248E+03</rscale>
<asrwt>0</asrwt>
<pdfrwt beam="2">  1        4 0.18532374E-02 0.12499248E+03</pdfrwt>
<pdfrwt beam="1">  1       -4 0.49882705E-01 0.12499248E+03</pdfrwt>
<totfact> 0.71272229E+03</totfact>
</mgrwt>
</event>
<event>
 5    1  0.3321169E-002  0.1250015E+03  0.7818608E-02  0.1235067E+00
          4   -1    0    0  501    0  0.00000000000E+00  0.00000000000E+00  0.98021269295E+01  0.98840574838E+01  0.12700000000E+01 0.  1.
         -4   -1    0    0    0  501 -0.00000000000E+00 -0.00000000000E+00 -0.39677854050E+03  0.39678057299E+03  0.12700000000E+01 0.  1.
         25    2    1    2    0    0  0.00000000000E+00  0.00000000000E+00 -0.38697641357E+03  0.40666463047E+03  0.12500150806E+03 0.  0.
    9000005    1    3    3    0    0 -0.12418469085E+02 -0.43207672957E+02 -0.52271107927E+02  0.68952085543E+02  0.10000000000E+01 0.  0.
    9000005    1    3    3    0    0  0.12418469085E+02  0.43207672957E+02 -0.33470530565E+03  0.33771254493E+03  0.10000000000E+01 0.  0.
<mgrwt>
<rscale>  0 0.12500151E+03</rscale>
<asrwt>0</asrwt>
<pdfrwt beam="1">  1        4 0.15144785E-02 0.12500151E+03</pdfrwt>
<pdfrwt beam="2">  1       -4 0.61049299E-01 0.12500151E+03</pdfrwt>
<totfact> 0.63907595E+03</totfact>
</mgrwt>
</event>
<event>
 5    1  0.3321169E-002  0.1250013E+03  0.7818608E-02  0.1235067E+00
          4   -1    0    0  501    0  0.00000000000E+00  0.00000000000E+00  0.46907212422E+02  0.46924401725E+02  0.12700000000E+01 0.  1.
         -4   -1    0    0    0  501 -0.00000000000E+00 -0.00000000000E+00 -0.83240536987E+02  0.83250224612E+02  0.12700000000E+01 0.  1.
         25    2    1    2    0    0  0.00000000000E+00  0.00000000000E+00 -0.36333324565E+02  0.13017462634E+03  0.12500129147E+03 0.  0.
    9000005    1    3    3    0    0  0.40746058776E+02 -0.28761132962E+02 -0.57379890345E+02  0.76032202987E+02  0.10000000000E+01 0.  0.
    9000005    1    3    3    0    0 -0.40746058776E+02  0.28761132962E+02  0.21046565780E+02  0.54142423350E+02  0.10000000000E+01 0.  0.
<mgrwt>
<rscale>  0 0.12500129E+03</rscale>
<asrwt>0</asrwt>
<pdfrwt beam="1">  1        4 0.72185617E-02 0.12500129E+03</pdfrwt>
<pdfrwt beam="2">  1       -4 0.12808304E-01 0.12500129E+03</pdfrwt>
<totfact> 0.10340472E+04</totfact>
</mgrwt>
</event>
<event>
 5    1  0.3321169E-002  0.1249985E+03  0.7818608E-02  0.1235072E+00
         -4   -1    0    0    0  501 -0.00000000000E+00  0.00000000000E+00  0.24270915831E+03  0.24271248099E+03  0.12700000000E+01 0.  1.
          4   -1    0    0  501    0  0.00000000000E+00 -0.00000000000E+00 -0.16065478552E+02  0.16115598068E+02  0.12700000000E+01 0.  1.
         25    2    1    2    0    0  0.00000000000E+00  0.00000000000E+00  0.22664367976E+03  0.25882807906E+03  0.12499846773E+03 0.  0.
    9000005    1    3    3    0    0  0.48827763572E+02  0.36623335887E+02  0.14108206833E+03  0.15372237713E+03  0.10000000000E+01 0.  0.
    9000005    1    3    3    0    0 -0.48827763572E+02 -0.36623335887E+02  0.85561611430E+02  0.10510570193E+03  0.10000000000E+01 0.  0.
<mgrwt>
<rscale>  0 0.12499847E+03</rscale>
<asrwt>0</asrwt>
<pdfrwt beam="2">  1        4 0.24757231E-02 0.12499847E+03</pdfrwt>
<pdfrwt beam="1">  1       -4 0.37343980E-01 0.12499847E+03</pdfrwt>
<totfact> 0.81073571E+03</totfact>
</mgrwt>
</event>
<event>
 5    1  0.3321169E-002  0.1250040E+03  0.7818608E-02  0.1235063E+00
          4   -1    0    0  501    0  0.00000000000E+00  0.00000000000E+00  0.21019117065E+02  0.21057449565E+02  0.12700000000E+01 0. -1.
         -4   -1    0    0    0  501 -0.00000000000E+00 -0.00000000000E+00 -0.18564487746E+03  0.18564922145E+03  0.12700000000E+01 0. -1.
         25    2    1    2    0    0  0.00000000000E+00  0.00000000000E+00 -0.16462576039E+03  0.20670667102E+03  0.12500402737E+03 0.  0.
    9000005    1    3    3    0    0 -0.48956770161E+01 -0.53752723046E+02 -0.30226345507E+02  0.61870468328E+02  0.10000000000E+01 0.  0.
    9000005    1    3    3    0    0  0.48956770161E+01  0.53752723046E+02 -0.13439941488E+03  0.14483620269E+03  0.10000000000E+01 0.  0.
<mgrwt>
<rscale>  0 0.12500403E+03</rscale>
<asrwt>0</asrwt>
<pdfrwt beam="1">  1        4 0.32369932E-02 0.12500403E+03</pdfrwt>
<pdfrwt beam="2">  1       -4 0.28564032E-01 0.12500403E+03</pdfrwt>
<totfact> 0.89008548E+03</totfact>
</mgrwt>
</event>
<event>
 5    1  0.3321169E-002  0.1249998E+03  0.7818608E-02  0.1235070E+00
          4   -1    0    0  501    0  0.00000000000E+00  0.00000000000E+00  0.24830501712E+03  0.24830826492E+03  0.12700000000E+01 0. -1.
         -4   -1    0    0    0  501 -0.00000000000E+00 -0.00000000000E+00 -0.15702631621E+02  0.15753905542E+02  0.12700000000E+01 0. -1.
         25    2    1    2    0    0  0.00000000000E+00  0.00000000000E+00  0.23260238550E+03  0.26406217046E+03  0.12499984051E+03 0.  0.
    9000005    1    3    3    0    0 -0.28950424773E+02 -0.33397682692E+02  0.22974877176E+02  0.49823461190E+02  0.10000000000E+01 0.  0.
    9000005    1    3    3    0    0  0.28950424773E+02  0.33397682692E+02  0.20962750832E+03  0.21423870927E+03  0.10000000000E+01 0.  0.
<mgrwt>
<rscale>  0 0.12499984E+03</rscale>
<asrwt>0</asrwt>
<pdfrwt beam="1">  1        4 0.38204959E-01 0.12499984E+03</pdfrwt>
<pdfrwt beam="2">  1       -4 0.24199839E-02 0.12499984E+03</pdfrwt>
<totfact> 0.80339641E+03</totfact>
</mgrwt>
</event>
<event>
 5    1  0.3321169E-002  0.1250031E+03  0.7818608E-02  0.1235064E+00
         -4   -1    0    0    0  501 -0.00000000000E+00  0.00000000000E+00  0.66710136886E+01  0.67908264323E+01  0.12700000000E+01 0.  1.
          4   -1    0    0  501    0  0.00000000000E+00 -0.00000000000E+00 -0.58025241349E+03  0.58025380332E+03  0.12700000000E+01 0.  1.
         25    2    1    2    0    0  0.00000000000E+00  0.00000000000E+00 -0.57358139980E+03  0.58704462975E+03  0.12500310043E+03 0.  0.
    9000005    1    3    3    0    0  0.23276166331E+02 -0.46415867079E+02 -0.12348362629E+03  0.13396051134E+03  0.10000000000E+01 0.  0.
    9000005    1    3    3    0    0 -0.23276166331E+02  0.46415867079E+02 -0.45009777351E+03  0.45308411841E+03  0.10000000000E+01 0.  0.
<mgrwt>
<rscale>  0 0.12500310E+03</rscale>
<asrwt>0</asrwt>
<pdfrwt beam="2">  1        4 0.89278886E-01 0.12500310E+03</pdfrwt>
<pdfrwt beam="1">  1       -4 0.10356335E-02 0.12500310E+03</pdfrwt>
<totfact> 0.49692374E+03</totfact>
</mgrwt>
</event>
<event>
 5    1  0.3321169E-002  0.1250015E+03  0.7818608E-02  0.1235067E+00
          4   -1    0    0  501    0  0.00000000000E+00  0.00000000000E+00  0.57127276594E+02  0.57141391574E+02  0.12700000000E+01 0.  1.
         -4   -1    0    0    0  501 -0.00000000000E+00 -0.00000000000E+00 -0.68351204449E+02  0.68363002053E+02  0.12700000000E+01 0.  1.
         25    2    1    2    0    0  0.00000000000E+00  0.00000000000E+00 -0.11223927855E+02  0.12550439363E+03  0.12500150504E+03 0.  0.
    9000005    1    3    3    0    0 -0.32807768057E+01 -0.62548049783E+01 -0.67954099470E+02  0.68327488733E+02  0.10000000000E+01 0.  0.
    9000005    1    3    3    0    0  0.32807768057E+01  0.62548049783E+01  0.56730171615E+02  0.57176904894E+02  0.10000000000E+01 0.  0.
<mgrwt>
<rscale>  0 0.12500151E+03</rscale>
<asrwt>0</asrwt>
<pdfrwt beam="1">  1        4 0.87908051E-02 0.12500151E+03</pdfrwt>
<pdfrwt beam="2">  1       -4 0.10517563E-01 0.12500151E+03</pdfrwt>
<totfact> 0.10441503E+04</totfact>
</mgrwt>
</event>
<event>
 5    1  0.3321169E-002  0.1249982E+03  0.7818608E-02  0.1235072E+00
          4   -1    0    0  501    0  0.00000000000E+00  0.00000000000E+00  0.77222252516E+02  0.77232695043E+02  0.12700000000E+01 0.  1.
         -4   -1    0    0    0  501 -0.00000000000E+00 -0.00000000000E+00 -0.50561209462E+02  0.50577156922E+02  0.12700000000E+01 0.  1.
         25    2    1    2    0    0  0.00000000000E+00  0.00000000000E+00  0.26661043054E+02  0.12780985196E+03  0.12499818816E+03 0.  0.
    9000005    1    3    3    0    0  0.30233493541E+01 -0.29291650230E+02  0.69688338974E+02  0.75661126105E+02  0.10000000000E+01 0.  0.
    9000005    1    3    3    0    0 -0.30233493541E+01  0.29291650230E+02 -0.43027295921E+02  0.52148725860E+02  0.10000000000E+01 0.  0.
<mgrwt>
<rscale>  0 0.12499819E+03</rscale>
<asrwt>0</asrwt>
<pdfrwt beam="1">  1        4 0.11882376E-01 0.12499819E+03</pdfrwt>
<pdfrwt beam="2">  1       -4 0.77806776E-02 0.12499819E+03</pdfrwt>
<totfact> 0.10392021E+04</totfact>
</mgrwt>
</event>
<event>
 5    1  0.3321169E-002  0.1250073E+03  0.7818608E-02  0.1235058E+00
          4   -1    0    0  501    0  0.00000000000E+00  0.00000000000E+00  0.87478651809E+02  0.87487870144E+02  0.12700000000E+01 0.  1.
         -4   -1    0    0    0  501 -0.00000000000E+00 -0.00000000000E+00 -0.44638370074E+02  0.44656432715E+02  0.12700000000E+01 0.  1.
         25    2    1    2    0    0  0.00000000000E+00  0.00000000000E+00  0.42840281735E+02  0.13214430286E+03  0.12500730794E+03 0.  0.
    9000005    1    3    3    0    0  0.31862634978E+02 -0.41894923820E+02 -0.14197678694E+02  0.54525097248E+02  0.10000000000E+01 0.  0.
    9000005    1    3    3    0    0 -0.31862634978E+02  0.41894923820E+02  0.57037960429E+02  0.77619205610E+02  0.10000000000E+01 0.  0.
<mgrwt>
<rscale>  0 0.12500731E+03</rscale>
<asrwt>0</asrwt>
<pdfrwt beam="1">  1        4 0.13460353E-01 0.12500731E+03</pdfrwt>
<pdfrwt beam="2">  1       -4 0.68695401E-02 0.12500731E+03</pdfrwt>
<totfact> 0.10296922E+04</totfact>
</mgrwt>
</event>
<event>
 5    1  0.3321169E-002  0.1250008E+03  0.7818608E-02  0.1235068E+00
          4   -1    0    0  501    0  0.00000000000E+00  0.00000000000E+00  0.33112947397E+02  0.33137292969E+02  0.12700000000E+01 0.  1.
         -4   -1    0    0    0  501 -0.00000000000E+00 -0.00000000000E+00 -0.11789792987E+03  0.11790476991E+03  0.12700000000E+01 0.  1.
         25    2    1    2    0    0  0.00000000000E+00  0.00000000000E+00 -0.84784982468E+02  0.15104206287E+03  0.12500084602E+03 0.  0.
    9000005    1    3    3    0    0  0.25886557160E+02 -0.40190117637E+02 -0.91025919738E+02  0.10282060816E+03  0.10000000000E+01 0.  0.
    9000005    1    3    3    0    0 -0.25886557160E+02  0.40190117637E+02  0.62409372705E+01  0.48221454720E+02  0.10000000000E+01 0.  0.
<mgrwt>
<rscale>  0 0.12500085E+03</rscale>
<asrwt>0</asrwt>
<pdfrwt beam="1">  1        4 0.50966985E-02 0.12500085E+03</pdfrwt>
<pdfrwt beam="2">  1       -4 0.18140542E-01 0.12500085E+03</pdfrwt>
<totfact> 0.99094496E+03</totfact>
</mgrwt>
</event>
<event>
 5    1  0.3321169E-002  0.1250016E+03  0.7818608E-02  0.1235067E+00
          4   -1    0    0  501    0  0.00000000000E+00  0.00000000000E+00  0.19321782450E+02  0.19363475335E+02  0.12700000000E+01 0.  1.
         -4   -1    0    0    0  501 -0.00000000000E+00 -0.00000000000E+00 -0.20191175272E+03  0.20191574675E+03  0.12700000000E+01 0.  1.
         25    2    1    2    0    0  0.00000000000E+00  0.00000000000E+00 -0.18258997027E+03  0.22127922208E+03  0.12500158753E+03 0.  0.
    9000005    1    3    3    0    0 -0.50811376210E+02 -0.11563246685E+02 -0.15235687315E+03  0.16102521983E+03  0.10000000000E+01 0.  0.
    9000005    1    3    3    0    0  0.50811376210E+02  0.11563246685E+02 -0.30233097122E+02  0.60254002256E+02  0.10000000000E+01 0.  0.
<mgrwt>
<rscale>  0 0.12500159E+03</rscale>
<asrwt>0</asrwt>
<pdfrwt beam="1">  1        4 0.29760964E-02 0.12500159E+03</pdfrwt>
<pdfrwt beam="2">  1       -4 0.31066860E-01 0.12500159E+03</pdfrwt>
<totfact> 0.86663261E+03</totfact>
</mgrwt>
</event>
<event>
 5    1  0.3321169E-002  0.1249978E+03  0.7818608E-02  0.1235073E+00
         -4   -1    0    0    0  501 -0.00000000000E+00  0.00000000000E+00  0.14384759027E+03  0.14385319645E+03  0.12700000000E+01 0. -1.
          4   -1    0    0  501    0  0.00000000000E+00 -0.00000000000E+00 -0.27133521884E+02  0.27163227161E+02  0.12700000000E+01 0. -1.
         25    2    1    2    0    0  0.00000000000E+00  0.00000000000E+00  0.11671406839E+03  0.17101642361E+03  0.12499777351E+03 0.  0.
    9000005    1    3    3    0    0  0.41586464926E+02 -0.32170619054E+02  0.10456603770E+03  0.11704460277E+03  0.10000000000E+01 0.  0.
    9000005    1    3    3    0    0 -0.41586464926E+02  0.32170619054E+02  0.12148030686E+02  0.53971820841E+02  0.10000000000E+01 0.  0.
<mgrwt>
<rscale>  0 0.12499777E+03</rscale>
<asrwt>0</asrwt>
<pdfrwt beam="2">  1        4 0.41771043E-02 0.12499777E+03</pdfrwt>
<pdfrwt beam="1">  1       -4 0.22133114E-01 0.12499777E+03</pdfrwt>
<totfact> 0.95264288E+03</totfact>
</mgrwt>
</event>
<event>
 5    1  0.3321169E-002  0.1249999E+03  0.7818608E-02  0.1235069E+00
         -4   -1    0    0    0  501 -0.00000000000E+00  0.00000000000E+00  0.40285461893E+02  0.40305475310E+02  0.12700000000E+01 0.  1.
          4   -1    0    0  501    0  0.00000000000E+00 -0.00000000000E+00 -0.96915817068E+02  0.96924137850E+02  0.12700000000E+01 0.  1.
         25    2    1    2    0    0  0.00000000000E+00  0.00000000000E+00 -0.56630355175E+02  0.13722961316E+03  0.12499987840E+03 0.  0.
    9000005    1    3    3    0    0  0.19983238055E+02 -0.45148142602E+01 -0.93129741279E+02  0.95361743176E+02  0.10000000000E+01 0.  0.
    9000005    1    3    3    0    0 -0.19983238055E+02  0.45148142602E+01  0.36499386104E+02  0.41867869983E+02  0.10000000000E+01 0.  0.
<mgrwt>
<rscale>  0 0.12499988E+03</rscale>
<asrwt>0</asrwt>
<pdfrwt beam="2">  1        4 0.14912305E-01 0.12499988E+03</pdfrwt>
<pdfrwt beam="1">  1       -4 0.61999430E-02 0.12499988E+03</pdfrwt>
<totfact> 0.10191315E+04</totfact>
</mgrwt>
</event>
<event>
 5    1  0.3321169E-002  0.1249978E+03  0.7818608E-02  0.1235073E+00
         -4   -1    0    0    0  501 -0.00000000000E+00  0.00000000000E+00  0.37054371366E+03  0.37054589005E+03  0.12700000000E+01 0. -1.
          4   -1    0    0  501    0  0.00000000000E+00 -0.00000000000E+00 -0.10501108252E+02  0.10577626129E+02  0.12700000000E+01 0. -1.
         25    2    1    2    0    0  0.00000000000E+00  0.00000000000E+00  0.36004260541E+03  0.38112351618E+03  0.12499782748E+03 0.  0.
    9000005    1    3    3    0    0 -0.23884026494E+02 -0.22494202040E+02  0.34218553358E+03  0.34375627302E+03  0.10000000000E+01 0.  0.
    9000005    1    3    3    0    0  0.23884026494E+02  0.22494202040E+02  0.17857071822E+02  0.37367243156E+02  0.10000000000E+01 0.  0.
<mgrwt>
<rscale>  0 0.12499783E+03</rscale>
<asrwt>0</asrwt>
<pdfrwt beam="2">  1        4 0.16216085E-02 0.12499783E+03</pdfrwt>
<pdfrwt beam="1">  1       -4 0.57012778E-01 0.12499783E+03</pdfrwt>
<totfact> 0.66434232E+03</totfact>
</mgrwt>
</event>
<event>
 5    1  0.3321169E-002  0.1250431E+03  0.7818608E-02  0.1235002E+00
         -4   -1    0    0    0  501 -0.00000000000E+00  0.00000000000E+00  0.30862510807E+03  0.30862772110E+03  0.12700000000E+01 0.  1.
          4   -1    0    0  501    0  0.00000000000E+00 -0.00000000000E+00 -0.12631161448E+02  0.12694846967E+02  0.12700000000E+01 0.  1.
         25    2    1    2    0    0  0.00000000000E+00  0.00000000000E+00  0.29599394663E+03  0.32132256807E+03  0.12504309782E+03 0.  0.
    9000005    1    3    3    0    0  0.14774716043E+02 -0.53412094378E+02  0.22233180208E+03  0.22913658432E+03  0.10000000000E+01 0.  0.
    9000005    1    3    3    0    0 -0.14774716043E+02  0.53412094378E+02  0.73662144546E+02  0.92185983745E+02  0.10000000000E+01 0.  0.
<mgrwt>
<rscale>  0 0.12504310E+03</rscale>
<asrwt>0</asrwt>
<pdfrwt beam="2">  1        4 0.19483554E-02 0.12504310E+03</pdfrwt>
<pdfrwt beam="1">  1       -4 0.47485888E-01 0.12504310E+03</pdfrwt>
<totfact> 0.72929404E+03</totfact>
</mgrwt>
</event>
<event>
 5    1  0.3321169E-002  0.1250004E+03  0.7818608E-02  0.1235069E+00
         -4   -1    0    0    0  501 -0.00000000000E+00  0.00000000000E+00  0.59231443005E+02  0.59245056675E+02  0.12700000000E+01 0. -1.
          4   -1    0    0  501    0  0.00000000000E+00 -0.00000000000E+00 -0.65922051131E+02  0.65934283384E+02  0.12700000000E+01 0. -1.
         25    2    1    2    0    0  0.00000000000E+00  0.00000000000E+00 -0.66906081265E+01  0.12517934006E+03  0.12500041176E+03 0.  0.
    9000005    1    3    3    0    0  0.40524592541E+02 -0.35265127568E+02  0.28628503883E+02  0.60880728129E+02  0.10000000000E+01 0.  0.
    9000005    1    3    3    0    0 -0.40524592541E+02  0.35265127568E+02 -0.35319112009E+02  0.64298611930E+02  0.10000000000E+01 0.  0.
<mgrwt>
<rscale>  0 0.12500041E+03</rscale>
<asrwt>0</asrwt>
<pdfrwt beam="2">  1        4 0.10143842E-01 0.12500041E+03</pdfrwt>
<pdfrwt beam="1">  1       -4 0.91145179E-02 0.12500041E+03</pdfrwt>
<totfact> 0.10448871E+04</totfact>
</mgrwt>
</event>
<event>
 5    1  0.3321169E-002  0.1250008E+03  0.7818608E-02  0.1235068E+00
          4   -1    0    0  501    0  0.00000000000E+00  0.00000000000E+00  0.23096357415E+03  0.23096706580E+03  0.12700000000E+01 0. -1.
         -4   -1    0    0    0  501 -0.00000000000E+00 -0.00000000000E+00 -0.16885603602E+02  0.16933295869E+02  0.12700000000E+01 0. -1.
         25    2    1    2    0    0  0.00000000000E+00  0.00000000000E+00  0.21407797055E+03  0.24790036167E+03  0.12500084736E+03 0.  0.
    9000005    1    3    3    0    0 -0.15716482336E+02 -0.42779254218E+02  0.22242142128E+02  0.50722630994E+02  0.10000000000E+01 0.  0.
    9000005    1    3    3    0    0  0.15716482336E+02  0.42779254218E+02  0.19183582842E+03  0.19717773068E+03  0.10000000000E+01 0.  0.
<mgrwt>
<rscale>  0 0.12500085E+03</rscale>
<asrwt>0</asrwt>
<pdfrwt beam="1">  1        4 0.35536794E-01 0.12500085E+03</pdfrwt>
<pdfrwt beam="2">  1       -4 0.26017224E-02 0.12500085E+03</pdfrwt>
<totfact> 0.82633080E+03</totfact>
</mgrwt>
</event>
<event>
 5    1  0.3321169E-002  0.1249813E+03  0.7818608E-02  0.1235099E+00
          4   -1    0    0  501    0  0.00000000000E+00  0.00000000000E+00  0.13012868132E+02  0.13074694529E+02  0.12700000000E+01 0.  1.
         -4   -1    0    0    0  501 -0.00000000000E+00 -0.00000000000E+00 -0.29931940178E+03  0.29932209605E+03  0.12700000000E+01 0.  1.
         25    2    1    2    0    0  0.00000000000E+00  0.00000000000E+00 -0.28630653365E+03  0.31239679058E+03  0.12498129281E+03 0.  0.
    9000005    1    3    3    0    0 -0.28804236137E+02  0.29504419006E+02 -0.25810553446E+02  0.48655723502E+02  0.10000000000E+01 0.  0.
    9000005    1    3    3    0    0  0.28804236137E+02 -0.29504419006E+02 -0.26049598020E+03  0.26374106707E+03  0.10000000000E+01 0.  0.
<mgrwt>
<rscale>  0 0.12498129E+03</rscale>
<asrwt>0</asrwt>
<pdfrwt beam="1">  1        4 0.20069431E-02 0.12498129E+03</pdfrwt>
<pdfrwt beam="2">  1       -4 0.46054097E-01 0.12498129E+03</pdfrwt>
<totfact> 0.74100386E+03</totfact>
</mgrwt>
</event>
<event>
 5    1  0.3321169E-002  0.1249853E+03  0.7818608E-02  0.1235092E+00
         -4   -1    0    0    0  501 -0.00000000000E+00  0.00000000000E+00  0.51877372090E+02  0.51892915074E+02  0.12700000000E+01 0.  1.
          4   -1    0    0  501    0  0.00000000000E+00 -0.00000000000E+00 -0.75247896234E+02  0.75258612714E+02  0.12700000000E+01 0.  1.
         25    2    1    2    0    0  0.00000000000E+00  0.00000000000E+00 -0.23370524144E+02  0.12715152779E+03  0.12498531762E+03 0.  0.
    9000005    1    3    3    0    0 -0.52387074728E+02 -0.33285657623E+02 -0.43497569605E+01  0.62227493824E+02  0.10000000000E+01 0.  0.
    9000005    1    3    3    0    0  0.52387074728E+02  0.33285657623E+02 -0.19020767184E+02  0.64924033964E+02  0.10000000000E+01 0.  0.
<mgrwt>
<rscale>  0 0.12498532E+03</rscale>
<asrwt>0</asrwt>
<pdfrwt beam="2">  1        4 0.11578619E-01 0.12498532E+03</pdfrwt>
<pdfrwt beam="1">  1       -4 0.79831541E-02 0.12498532E+03</pdfrwt>
<totfact> 0.10409305E+04</totfact>
</mgrwt>
</event>
<event>
 5    1  0.3321169E-002  0.1250030E+03  0.7818608E-02  0.1235065E+00
          4   -1    0    0  501    0  0.00000000000E+00  0.00000000000E+00  0.30454789318E+02  0.30481258052E+02  0.12700000000E+01 0.  1.
         -4   -1    0    0    0  501 -0.00000000000E+00 -0.00000000000E+00 -0.12818469895E+03  0.12819099011E+03  0.12700000000E+01 0.  1.
         25    2    1    2    0    0  0.00000000000E+00  0.00000000000E+00 -0.97729909631E+02  0.15867224816E+03  0.12500298836E+03 0.  0.
    9000005    1    3    3    0    0  0.36382651148E+02 -0.38270205921E+02 -0.91291004305E+02  0.10546730978E+03  0.10000000000E+01 0.  0.
    9000005    1    3    3    0    0 -0.36382651148E+02  0.38270205921E+02 -0.64389053255E+01  0.53204938376E+02  0.10000000000E+01 0.  0.
<mgrwt>
<rscale>  0 0.12500299E+03</rscale>
<asrwt>0</asrwt>
<pdfrwt beam="1">  1        4 0.46878723E-02 0.12500299E+03</pdfrwt>
<pdfrwt beam="2">  1       -4 0.19723243E-01 0.12500299E+03</pdfrwt>
<totfact> 0.97592821E+03</totfact>
</mgrwt>
</event>
<event>
 5    1  0.3321169E-002  0.1249990E+03  0.7818608E-02  0.1235071E+00
          4   -1    0    0  501    0  0.00000000000E+00  0.00000000000E+00  0.34608786294E+02  0.34632080341E+02  0.12700000000E+01 0.  1.
         -4   -1    0    0    0  501 -0.00000000000E+00 -0.00000000000E+00 -0.11280207170E+03  0.11280922072E+03  0.12700000000E+01 0.  1.
         25    2    1    2    0    0  0.00000000000E+00  0.00000000000E+00 -0.78193285407E+02  0.14744130106E+03  0.12499898950E+03 0.  0.
    9000005    1    3    3    0    0  0.26958152783E+02 -0.21700222680E+02 -0.10047291507E+03  0.10627063719E+03  0.10000000000E+01 0.  0.
    9000005    1    3    3    0    0 -0.26958152783E+02  0.21700222680E+02  0.22279629664E+02  0.41170663874E+02  0.10000000000E+01 0.  0.
<mgrwt>
<rscale>  0 0.12499899E+03</rscale>
<asrwt>0</asrwt>
<pdfrwt beam="1">  1        4 0.53267705E-02 0.12499899E+03</pdfrwt>
<pdfrwt beam="2">  1       -4 0.17356506E-01 0.12499899E+03</pdfrwt>
<totfact> 0.99818474E+03</totfact>
</mgrwt>
</event>
<event>
 5    1  0.3321169E-002  0.1250017E+03  0.7818608E-02  0.1235067E+00
         -4   -1    0    0    0  501 -0.00000000000E+00  0.00000000000E+00  0.12426414842E+02  0.12491144296E+02  0.12700000000E+01 0. -1.
          4   -1    0    0  501    0  0.00000000000E+00 -0.00000000000E+00 -0.31347623544E+03  0.31347880803E+03  0.12700000000E+01 0. -1.
         25    2    1    2    0    0  0.00000000000E+00  0.00000000000E+00 -0.30104982060E+03  0.32596995233E+03  0.12500166135E+03 0.  0.
    9000005    1    3    3    0    0 -0.33767501633E+02 -0.33825099849E+02 -0.25551530758E+03  0.25994894490E+03  0.10000000000E+01 0.  0.
    9000005    1    3    3    0    0  0.33767501633E+02  0.33825099849E+02 -0.45534513019E+02  0.66021007431E+02  0.10000000000E+01 0.  0.
<mgrwt>
<rscale>  0 0.12500166E+03</rscale>
<asrwt>0</asrwt>
<pdfrwt beam="2">  1        4 0.48232284E-01 0.12500166E+03</pdfrwt>
<pdfrwt beam="1">  1       -4 0.19169335E-02 0.12500166E+03</pdfrwt>
<totfact> 0.72448995E+03</totfact>
</mgrwt>
</event>
<event>
 5    1  0.3321169E-002  0.1249840E+03  0.7818608E-02  0.1235094E+00
          4   -1    0    0  501    0  0.00000000000E+00  0.00000000000E+00  0.56591997344E+03  0.56592139847E+03  0.12700000000E+01 0.  1.
         -4   -1    0    0    0  501 -0.00000000000E+00 -0.00000000000E+00 -0.68408307444E+01  0.69577198329E+01  0.12700000000E+01 0.  1.
         25    2    1    2    0    0  0.00000000000E+00  0.00000000000E+00  0.55907914270E+03  0.57287911830E+03  0.12498398450E+03 0.  0.
    9000005    1    3    3    0    0  0.77730978439E+01  0.61987509068E+02  0.27416135166E+03  0.28119089436E+03  0.10000000000E+01 0.  0.
    9000005    1    3    3    0    0 -0.77730978439E+01 -0.61987509068E+02  0.28491779104E+03  0.29168822393E+03  0.10000000000E+01 0.  0.
<mgrwt>
<rscale>  0 0.12498398E+03</rscale>
<asrwt>0</asrwt>
<pdfrwt beam="1">  1        4 0.87073707E-01 0.12498398E+03</pdfrwt>
<pdfrwt beam="2">  1       -4 0.10615366E-02 0.12498398E+03</pdfrwt>
<totfact> 0.50643362E+03</totfact>
</mgrwt>
</event>
<event>
 5    1  0.3321169E-002  0.1249980E+03  0.7818608E-02  0.1235072E+00
         -4   -1    0    0    0  501 -0.00000000000E+00  0.00000000000E+00  0.23403803686E+02  0.23438236431E+02  0.12700000000E+01 0.  1.
          4   -1    0    0  501    0  0.00000000000E+00 -0.00000000000E+00 -0.16674162638E+03  0.16674646284E+03  0.12700000000E+01 0.  1.
         25    2    1    2    0    0  0.00000000000E+00  0.00000000000E+00 -0.14333782270E+03  0.19018469927E+03  0.12499795366E+03 0.  0.
    9000005    1    3    3    0    0  0.28382258779E+02 -0.29831470055E+02 -0.14772678370E+00  0.41188481912E+02  0.10000000000E+01 0.  0.
    9000005    1    3    3    0    0 -0.28382258779E+02  0.29831470055E+02 -0.14319009591E+03  0.14899621736E+03  0.10000000000E+01 0.  0.
<mgrwt>
<rscale>  0 0.12499795E+03</rscale>
<asrwt>0</asrwt>
<pdfrwt beam="2">  1        4 0.25655578E-01 0.12499795E+03</pdfrwt>
<pdfrwt beam="1">  1       -4 0.36036060E-02 0.12499795E+03</pdfrwt>
<totfact> 0.91819396E+03</totfact>
</mgrwt>
</event>
<event>
 5    1  0.3321169E-002  0.1250078E+03  0.7818608E-02  0.1235057E+00
          4   -1    0    0  501    0  0.00000000000E+00  0.00000000000E+00  0.45596628045E+02  0.45614311231E+02  0.12700000000E+01 0. -1.
         -4   -1    0    0    0  501 -0.00000000000E+00 -0.00000000000E+00 -0.85641334216E+02  0.85650750296E+02  0.12700000000E+01 0. -1.
         25    2    1    2    0    0  0.00000000000E+00  0.00000000000E+00 -0.40044706172E+02  0.13126506153E+03  0.12500775130E+03 0.  0.
    9000005    1    3    3    0    0  0.33661038660E+02 -0.95069914325E+01 -0.74405551994E+02  0.82223078131E+02  0.10000000000E+01 0.  0.
    9000005    1    3    3    0    0 -0.33661038660E+02  0.95069914325E+01  0.34360845823E+02  0.49041983396E+02  0.10000000000E+01 0.  0.
<mgrwt>
<rscale>  0 0.12500775E+03</rscale>
<asrwt>0</asrwt>
<pdfrwt beam="1">  1        4 0.70169504E-02 0.12500775E+03</pdfrwt>
<pdfrwt beam="2">  1       -4 0.13177674E-01 0.12500775E+03</pdfrwt>
<totfact> 0.10315606E+04</totfact>
</mgrwt>
</event>
<event>
 5    1  0.3321169E-002  0.1249962E+03  0.7818608E-02  0.1235075E+00
         -4   -1    0    0    0  501 -0.00000000000E+00  0.00000000000E+00  0.10971261242E+03  0.10971996274E+03  0.12700000000E+01 0. -1.
          4   -1    0    0  501    0  0.00000000000E+00 -0.00000000000E+00 -0.35582340711E+02  0.35604997830E+02  0.12700000000E+01 0. -1.
         25    2    1    2    0    0  0.00000000000E+00  0.00000000000E+00  0.74130271704E+02  0.14532496057E+03  0.12499618787E+03 0.  0.
    9000005    1    3    3    0    0  0.48562978621E+02  0.51780113340E+01  0.82390568633E+02  0.95782986451E+02  0.10000000000E+01 0.  0.
    9000005    1    3    3    0    0 -0.48562978621E+02 -0.51780113340E+01 -0.82602969283E+01  0.49541974116E+02  0.10000000000E+01 0.  0.
<mgrwt>
<rscale>  0 0.12499619E+03</rscale>
<asrwt>0</asrwt>
<pdfrwt beam="2">  1        4 0.54765145E-02 0.12499619E+03</pdfrwt>
<pdfrwt beam="1">  1       -4 0.16881172E-01 0.12499619E+03</pdfrwt>
<totfact> 0.10025251E+04</totfact>
</mgrwt>
</event>
<event>
 5    1  0.3321169E-002  0.1250001E+03  0.7818608E-02  0.1235069E+00
          4   -1    0    0  501    0  0.00000000000E+00  0.00000000000E+00  0.50798758791E+01  0.52362237296E+01  0.12700000000E+01 0. -1.
         -4   -1    0    0    0  501 -0.00000000000E+00 -0.00000000000E+00 -0.75715522408E+03  0.75715628918E+03  0.12700000000E+01 0. -1.
         25    2    1    2    0    0  0.00000000000E+00  0.00000000000E+00 -0.75207534820E+03  0.76239251291E+03  0.12500005750E+03 0.  0.
    9000005    1    3    3    0    0  0.97447444728E+00  0.53004865330E+02 -0.17423195368E+03  0.18212149525E+03  0.10000000000E+01 0.  0.
    9000005    1    3    3    0    0 -0.97447444728E+00 -0.53004865330E+02 -0.57784339452E+03  0.58027101766E+03  0.10000000000E+01 0.  0.
<mgrwt>
<rscale>  0 0.12500006E+03</rscale>
<asrwt>0</asrwt>
<pdfrwt beam="1">  1        4 0.79362866E-03 0.12500006E+03</pdfrwt>
<pdfrwt beam="2">  1       -4 0.11649744E+00 0.12500006E+03</pdfrwt>
<totfact> 0.39988279E+03</totfact>
</mgrwt>
</event>
<event>
 5    1  0.3321169E-002  0.1249902E+03  0.7818608E-02  0.1235085E+00
         -4   -1    0    0    0  501 -0.00000000000E+00  0.00000000000E+00  0.44352590004E+02  0.44370768982E+02  0.12700000000E+01 0.  1.
          4   -1    0    0  501    0  0.00000000000E+00 -0.00000000000E+00 -0.88017996229E+02  0.88027158083E+02  0.12700000000E+01 0.  1.
         25    2    1    2    0    0  0.00000000000E+00  0.00000000000E+00 -0.43665406225E+02  0.13239792707E+03  0.12499017318E+03 0.  0.
    9000005    1    3    3    0    0 -0.23750525019E+02 -0.31748855370E+02  0.29326243846E+02  0.49326522623E+02  0.10000000000E+01 0.  0.
    9000005    1    3    3    0    0  0.23750525019E+02  0.31748855370E+02 -0.72991650071E+02  0.83071404442E+02  0.10000000000E+01 0.  0.
<mgrwt>
<rscale>  0 0.12499017E+03</rscale>
<asrwt>0</asrwt>
<pdfrwt beam="2">  1        4 0.13543333E-01 0.12499017E+03</pdfrwt>
<pdfrwt beam="1">  1       -4 0.68255785E-02 0.12499017E+03</pdfrwt>
<totfact> 0.10295494E+04</totfact>
</mgrwt>
</event>
<event>
 5    1  0.3321169E-002  0.1249993E+03  0.7818608E-02  0.1235070E+00
         -4   -1    0    0    0  501 -0.00000000000E+00  0.00000000000E+00  0.27197011833E+02  0.27226647841E+02  0.12700000000E+01 0.  1.
          4   -1    0    0  501    0  0.00000000000E+00 -0.00000000000E+00 -0.14351575355E+03  0.14352137269E+03  0.12700000000E+01 0.  1.
         25    2    1    2    0    0  0.00000000000E+00  0.00000000000E+00 -0.11631874172E+03  0.17074802053E+03  0.12499934735E+03 0.  0.
    9000005    1    3    3    0    0 -0.56107737884E+02  0.19363664592E+02 -0.31455046202E+02  0.67182212590E+02  0.10000000000E+01 0.  0.
    9000005    1    3    3    0    0  0.56107737884E+02 -0.19363664592E+02 -0.84863695518E+02  0.10356580794E+03  0.10000000000E+01 0.  0.
<mgrwt>
<rscale>  0 0.12499935E+03</rscale>
<asrwt>0</asrwt>
<pdfrwt beam="2">  1        4 0.22082058E-01 0.12499935E+03</pdfrwt>
<pdfrwt beam="1">  1       -4 0.41868677E-02 0.12499935E+03</pdfrwt>
<totfact> 0.95310795E+03</totfact>
</mgrwt>
</event>
<event>
 5    1  0.3321169E-002  0.1249996E+03  0.7818608E-02  0.1235070E+00
          4   -1    0    0  501    0  0.00000000000E+00  0.00000000000E+00  0.53678905347E+02  0.53693926838E+02  0.12700000000E+01 0.  1.
         -4   -1    0    0    0  501 -0.00000000000E+00 -0.00000000000E+00 -0.72739503905E+02  0.72750589883E+02  0.12700000000E+01 0.  1.
         25    2    1    2    0    0  0.00000000000E+00  0.00000000000E+00 -0.19060598558E+02  0.12644451672E+03  0.12499963757E+03 0.  0.
    9000005    1    3    3    0    0 -0.52387198217E+02  0.10124894629E+02  0.23377185175E+02  0.58261692517E+02  0.10000000000E+01 0.  0.
    9000005    1    3    3    0    0  0.52387198217E+02 -0.10124894629E+02 -0.42437783733E+02  0.68182824204E+02  0.10000000000E+01 0.  0.
<mgrwt>
<rscale>  0 0.12499964E+03</rscale>
<asrwt>0</asrwt>
<pdfrwt beam="1">  1        4 0.82603014E-02 0.12499964E+03</pdfrwt>
<pdfrwt beam="2">  1       -4 0.11192701E-01 0.12499964E+03</pdfrwt>
<totfact> 0.10421324E+04</totfact>
</mgrwt>
</event>
<event>
 5    1  0.3321169E-002  0.1249931E+03  0.7818608E-02  0.1235080E+00
         -4   -1    0    0    0  501 -0.00000000000E+00  0.00000000000E+00  0.62305762838E+03  0.62305892272E+03  0.12700000000E+01 0. -1.
          4   -1    0    0  501    0  0.00000000000E+00 -0.00000000000E+00 -0.62031537319E+01  0.63318256626E+01  0.12700000000E+01 0. -1.
         25    2    1    2    0    0  0.00000000000E+00  0.00000000000E+00  0.61685447464E+03  0.62939074838E+03  0.12499308484E+03 0.  0.
    9000005    1    3    3    0    0 -0.34140895852E+02 -0.22908354721E+02  0.71472830362E+02  0.82460651013E+02  0.10000000000E+01 0.  0.
    9000005    1    3    3    0    0  0.34140895852E+02  0.22908354721E+02  0.54538164428E+03  0.54693009737E+03  0.10000000000E+01 0.  0.
<mgrwt>
<rscale>  0 0.12499308E+03</rscale>
<asrwt>0</asrwt>
<pdfrwt beam="2">  1        4 0.96432796E-03 0.12499308E+03</pdfrwt>
<pdfrwt beam="1">  1       -4 0.95865095E-01 0.12499308E+03</pdfrwt>
<totfact> 0.47070529E+03</totfact>
</mgrwt>
</event>
<event>
 5    1  0.3321169E-002  0.1249981E+03  0.7818608E-02  0.1235072E+00
          4   -1    0    0  501    0  0.00000000000E+00  0.00000000000E+00  0.85503430588E+03  0.85503524906E+03  0.12700000000E+01 0.  1.
         -4   -1    0    0    0  501 -0.00000000000E+00 -0.00000000000E+00 -0.44791642989E+01  0.46557290317E+01  0.12700000000E+01 0.  1.
         25    2    1    2    0    0  0.00000000000E+00  0.00000000000E+00  0.85055514159E+03  0.85969097809E+03  0.12499811574E+03 0.  0.
    9000005    1    3    3    0    0 -0.32445934293E+02  0.48753387726E+02  0.27530407526E+03  0.28146574449E+03  0.10000000000E+01 0.  0.
    9000005    1    3    3    0    0  0.32445934293E+02 -0.48753387726E+02  0.57525106633E+03  0.57822523361E+03  0.10000000000E+01 0.  0.
<mgrwt>
<rscale>  0 0.12499812E+03</rscale>
<asrwt>0</asrwt>
<pdfrwt beam="1">  1        4 0.13155724E+00 0.12499812E+03</pdfrwt>
<pdfrwt beam="2">  1       -4 0.70275747E-03 0.12499812E+03</pdfrwt>
<totfact> 0.35735518E+03</totfact>
</mgrwt>
</event>
<event>
 5    1  0.3321169E-002  0.1250016E+03  0.7818608E-02  0.1235067E+00
         -4   -1    0    0    0  501 -0.00000000000E+00  0.00000000000E+00  0.45503367460E+02  0.45521086874E+02  0.12700000000E+01 0.  1.
          4   -1    0    0  501    0  0.00000000000E+00 -0.00000000000E+00 -0.85808324818E+02  0.85817722575E+02  0.12700000000E+01 0.  1.
         25    2    1    2    0    0  0.00000000000E+00  0.00000000000E+00 -0.40304957358E+02  0.13133880945E+03  0.12500157311E+03 0.  0.
    9000005    1    3    3    0    0 -0.67132629379E+01 -0.46725462286E+02 -0.63179930735E+02  0.78873572081E+02  0.10000000000E+01 0.  0.
    9000005    1    3    3    0    0  0.67132629379E+01  0.46725462286E+02  0.22874973377E+02  0.52465237369E+02  0.10000000000E+01 0.  0.
<mgrwt>
<rscale>  0 0.12500157E+03</rscale>
<asrwt>0</asrwt>
<pdfrwt beam="2">  1        4 0.13203367E-01 0.12500157E+03</pdfrwt>
<pdfrwt beam="1">  1       -4 0.70026040E-02 0.12500157E+03</pdfrwt>
<totfact> 0.10315465E+04</totfact>
</mgrwt>
</event>
<event>
 5    1  0.3321169E-002  0.1250013E+03  0.7818608E-02  0.1235067E+00
          4   -1    0    0  501    0  0.00000000000E+00  0.00000000000E+00  0.25519866579E+03  0.25520182586E+03  0.12700000000E+01 0.  1.
         -4   -1    0    0    0  501 -0.00000000000E+00 -0.00000000000E+00 -0.15277416136E+02  0.15330112321E+02  0.12700000000E+01 0.  1.
         25    2    1    2    0    0  0.00000000000E+00  0.00000000000E+00  0.23992124966E+03  0.27053193818E+03  0.12500129415E+03 0.  0.
    9000005    1    3    3    0    0 -0.59682763490E+02 -0.18474155836E+02  0.12302451947E+03  0.13798318406E+03  0.10000000000E+01 0.  0.
    9000005    1    3    3    0    0  0.59682763490E+02  0.18474155836E+02  0.11689673019E+03  0.13254875412E+03  0.10000000000E+01 0.  0.
<mgrwt>
<rscale>  0 0.12500129E+03</rscale>
<asrwt>0</asrwt>
<pdfrwt beam="1">  1        4 0.39265629E-01 0.12500129E+03</pdfrwt>
<pdfrwt beam="2">  1       -4 0.23546684E-02 0.12500129E+03</pdfrwt>
<totfact> 0.79448114E+03</totfact>
</mgrwt>
</event>
<event>
 5    1  0.3321169E-002  0.1249988E+03  0.7818608E-02  0.1235071E+00
          4   -1    0    0  501    0  0.00000000000E+00  0.00000000000E+00  0.13831043537E+03  0.13831626597E+03  0.12700000000E+01 0.  1.
         -4   -1    0    0    0  501 -0.00000000000E+00 -0.00000000000E+00 -0.28221370419E+02  0.28249931829E+02  0.12700000000E+01 0.  1.
         25    2    1    2    0    0  0.00000000000E+00  0.00000000000E+00  0.11008906495E+03  0.16656619780E+03  0.12499878411E+03 0.  0.
    9000005    1    3    3    0    0 -0.87615215641E+01 -0.85074394734E+01  0.13671138088E+03  0.13725939839E+03  0.10000000000E+01 0.  0.
    9000005    1    3    3    0    0  0.87615215641E+01  0.85074394734E+01 -0.26622315922E+02  0.29306799409E+02  0.10000000000E+01 0.  0.
<mgrwt>
<rscale>  0 0.12499878E+03</rscale>
<asrwt>0</asrwt>
<pdfrwt beam="1">  1        4 0.21281174E-01 0.12499878E+03</pdfrwt>
<pdfrwt beam="2">  1       -4 0.43443948E-02 0.12499878E+03</pdfrwt>
<totfact> 0.96094223E+03</totfact>
</mgrwt>
</event>
<event>
 5    1  0.3321169E-002  0.1249986E+03  0.7818608E-02  0.1235071E+00
          4   -1    0    0  501    0  0.00000000000E+00  0.00000000000E+00  0.19095899359E+03  0.19096321670E+03  0.12700000000E+01 0.  1.
         -4   -1    0    0    0  501 -0.00000000000E+00 -0.00000000000E+00 -0.20431338206E+02  0.20470771380E+02  0.12700000000E+01 0.  1.
         25    2    1    2    0    0  0.00000000000E+00  0.00000000000E+00  0.17052765539E+03  0.21143398808E+03  0.12499860026E+03 0.  0.
    9000005    1    3    3    0    0  0.41123996967E+02 -0.18923575160E+02  0.12394572985E+02  0.46945822635E+02  0.10000000000E+01 0.  0.
    9000005    1    3    3    0    0 -0.41123996967E+02  0.18923575160E+02  0.15813308240E+03  0.16448816545E+03  0.10000000000E+01 0.  0.
<mgrwt>
<rscale>  0 0.12499860E+03</rscale>
<asrwt>0</asrwt>
<pdfrwt beam="1">  1        4 0.29381666E-01 0.12499860E+03</pdfrwt>
<pdfrwt beam="2">  1       -4 0.31466409E-02 0.12499860E+03</pdfrwt>
<totfact> 0.88244986E+03</totfact>
</mgrwt>
</event>
<event>
 5    1  0.3321169E-002  0.1249994E+03  0.7818608E-02  0.1235070E+00
         -4   -1    0    0    0  501 -0.00000000000E+00  0.00000000000E+00  0.84185152112E+02  0.84194731047E+02  0.12700000000E+01 0.  1.
          4   -1    0    0  501    0  0.00000000000E+00 -0.00000000000E+00 -0.46379309704E+02  0.46396694587E+02  0.12700000000E+01 0.  1.
         25    2    1    2    0    0  0.00000000000E+00  0.00000000000E+00  0.37805842408E+02  0.13059142563E+03  0.12499935491E+03 0.  0.
    9000005    1    3    3    0    0  0.17942479728E+02 -0.37153241844E+02  0.67937859769E+02  0.79491186607E+02  0.10000000000E+01 0.  0.
    9000005    1    3    3    0    0 -0.17942479728E+02  0.37153241844E+02 -0.30132017361E+02  0.51100239027E+02  0.10000000000E+01 0.  0.
<mgrwt>
<rscale>  0 0.12499935E+03</rscale>
<asrwt>0</asrwt>
<pdfrwt beam="2">  1        4 0.71373527E-02 0.12499935E+03</pdfrwt>
<pdfrwt beam="1">  1       -4 0.12953636E-01 0.12499935E+03</pdfrwt>
<totfact> 0.10332007E+04</totfact>
</mgrwt>
</event>
<event>
 5    1  0.3321169E-002  0.1249995E+03  0.7818608E-02  0.1235070E+00
          4   -1    0    0  501    0  0.00000000000E+00  0.00000000000E+00  0.38570395193E+02  0.38591298052E+02  0.12700000000E+01 0.  1.
         -4   -1    0    0    0  501 -0.00000000000E+00 -0.00000000000E+00 -0.10122275936E+03  0.10123072613E+03  0.12700000000E+01 0.  1.
         25    2    1    2    0    0  0.00000000000E+00  0.00000000000E+00 -0.62652364164E+02  0.13982202418E+03  0.12499951884E+03 0.  0.
    9000005    1    3    3    0    0 -0.54110362116E+02  0.86472238615E+01 -0.64930435849E+02  0.84968625200E+02  0.10000000000E+01 0.  0.
    9000005    1    3    3    0    0  0.54110362116E+02 -0.86472238615E+01  0.22780716843E+01  0.54853398978E+02  0.10000000000E+01 0.  0.
<mgrwt>
<rscale>  0 0.12499952E+03</rscale>
<asrwt>0</asrwt>
<pdfrwt beam="1">  1        4 0.59361278E-02 0.12499952E+03</pdfrwt>
<pdfrwt beam="2">  1       -4 0.15574953E-01 0.12499952E+03</pdfrwt>
<totfact> 0.10137386E+04</totfact>
</mgrwt>
</event>
<event>
 5    1  0.3321169E-002  0.1250010E+03  0.7818608E-02  0.1235068E+00
         -4   -1    0    0    0  501 -0.00000000000E+00  0.00000000000E+00  0.67433501903E+01  0.68619000130E+01  0.12700000000E+01 0.  1.
          4   -1    0    0  501    0  0.00000000000E+00 -0.00000000000E+00 -0.57411641466E+03  0.57411781933E+03  0.12700000000E+01 0.  1.
         25    2    1    2    0    0  0.00000000000E+00  0.00000000000E+00 -0.56737306447E+03  0.58097971935E+03  0.12500096004E+03 0.  0.
    9000005    1    3    3    0    0 -0.11453131407E+01  0.60812582993E+02 -0.21700587650E+03  0.22537087751E+03  0.10000000000E+01 0.  0.
    9000005    1    3    3    0    0  0.11453131407E+01 -0.60812582993E+02 -0.35036718796E+03  0.35560884184E+03  0.10000000000E+01 0.  0.
<mgrwt>
<rscale>  0 0.12500096E+03</rscale>
<asrwt>0</asrwt>
<pdfrwt beam="2">  1        4 0.88334791E-01 0.12500096E+03</pdfrwt>
<pdfrwt beam="1">  1       -4 0.10466662E-02 0.12500096E+03</pdfrwt>
<totfact> 0.50089626E+03</totfact>
</mgrwt>
</event>
<event>
 5    1  0.3321169E-002  0.1249999E+03  0.7818608E-02  0.1235069E+00
          4   -1    0    0  501    0  0.00000000000E+00  0.00000000000E+00  0.10473244892E+03  0.10474014874E+03  0.12700000000E+01 0.  1.
         -4   -1    0    0    0  501 -0.00000000000E+00 -0.00000000000E+00 -0.37277452950E+02  0.37299080396E+02  0.12700000000E+01 0.  1.
         25    2    1    2    0    0  0.00000000000E+00  0.00000000000E+00  0.67454995973E+02  0.14203922913E+03  0.12499986452E+03 0.  0.
    9000005    1    3    3    0    0  0.43733847238E+02 -0.31348942183E+02  0.69837222967E+02  0.88168266865E+02  0.10000000000E+01 0.  0.
    9000005    1    3    3    0    0 -0.43733847238E+02  0.31348942183E+02 -0.23822269933E+01  0.53870962268E+02  0.10000000000E+01 0.  0.
<mgrwt>
<rscale>  0 0.12499986E+03</rscale>
<asrwt>0</asrwt>
<pdfrwt beam="1">  1        4 0.16114940E-01 0.12499986E+03</pdfrwt>
<pdfrwt beam="2">  1       -4 0.57372488E-02 0.12499986E+03</pdfrwt>
<totfact> 0.10091526E+04</totfact>
</mgrwt>
</event>
<event>
 5    1  0.3321169E-002  0.1250005E+03  0.7818608E-02  0.1235069E+00
          4   -1    0    0  501    0  0.00000000000E+00  0.00000000000E+00  0.34632875172E+02  0.34656153028E+02  0.12700000000E+01 0. -1.
         -4   -1    0    0    0  501 -0.00000000000E+00 -0.00000000000E+00 -0.11272636630E+03  0.11273352012E+03  0.12700000000E+01 0. -1.
         25    2    1    2    0    0  0.00000000000E+00  0.00000000000E+00 -0.78093491125E+02  0.14738967315E+03  0.12500048958E+03 0.  0.
    9000005    1    3    3    0    0 -0.36552442082E+02 -0.43783478227E+02 -0.89341674146E+01  0.57739876473E+02  0.10000000000E+01 0.  0.
    9000005    1    3    3    0    0  0.36552442082E+02  0.43783478227E+02 -0.69159323711E+02  0.89649796675E+02  0.10000000000E+01 0.  0.
<mgrwt>
<rscale>  0 0.12500049E+03</rscale>
<asrwt>0</asrwt>
<pdfrwt beam="1">  1        4 0.53304756E-02 0.12500049E+03</pdfrwt>
<pdfrwt beam="2">  1       -4 0.17344859E-01 0.12500049E+03</pdfrwt>
<totfact> 0.99825495E+03</totfact>
</mgrwt>
</event>
<event>
 5    1  0.3321169E-002  0.1250016E+03  0.7818608E-02  0.1235067E+00
         -4   -1    0    0    0  501 -0.00000000000E+00  0.00000000000E+00  0.52054868606E+01  0.53581707192E+01  0.12700000000E+01 0.  1.
          4   -1    0    0  501    0  0.00000000000E+00 -0.00000000000E+00 -0.73943017354E+03  0.73943126418E+03  0.12700000000E+01 0.  1.
         25    2    1    2    0    0  0.00000000000E+00  0.00000000000E+00 -0.73422468668E+03  0.74478943490E+03  0.12500164720E+03 0.  0.
    9000005    1    3    3    0    0 -0.83181631546E+01 -0.35163924807E+02 -0.63320572090E+02  0.72912195796E+02  0.10000000000E+01 0.  0.
    9000005    1    3    3    0    0  0.83181631546E+01  0.35163924807E+02 -0.67090411459E+03  0.67187723910E+03  0.10000000000E+01 0.  0.
<mgrwt>
<rscale>  0 0.12500165E+03</rscale>
<asrwt>0</asrwt>
<pdfrwt beam="2">  1        4 0.11377023E+00 0.12500165E+03</pdfrwt>
<pdfrwt beam="1">  1       -4 0.81267353E-03 0.12500165E+03</pdfrwt>
<totfact> 0.40823159E+03</totfact>
</mgrwt>
</event>
<event>
 5    1  0.3321169E-002  0.1250051E+03  0.7818608E-02  0.1235061E+00
         -4   -1    0    0    0  501 -0.00000000000E+00  0.00000000000E+00  0.58258182796E+02  0.58272023842E+02  0.12700000000E+01 0. -1.
          4   -1    0    0  501    0  0.00000000000E+00 -0.00000000000E+00 -0.67028341201E+02  0.67040371599E+02  0.12700000000E+01 0. -1.
         25    2    1    2    0    0  0.00000000000E+00  0.00000000000E+00 -0.87701584050E+01  0.12531239544E+03  0.12500512299E+03 0.  0.
    9000005    1    3    3    0    0  0.17183486521E+01  0.55567854446E+02  0.24230332461E+02  0.60653509222E+02  0.10000000000E+01 0.  0.
    9000005    1    3    3    0    0 -0.17183486521E+01 -0.55567854446E+02 -0.33000490866E+02  0.64658886220E+02  0.10000000000E+01 0.  0.
<mgrwt>
<rscale>  0 0.12500512E+03</rscale>
<asrwt>0</asrwt>
<pdfrwt beam="2">  1        4 0.10314043E-01 0.12500512E+03</pdfrwt>
<pdfrwt beam="1">  1       -4 0.89647874E-02 0.12500512E+03</pdfrwt>
<totfact> 0.10444872E+04</totfact>
</mgrwt>
</event>
<event>
 5    1  0.3321169E-002  0.1250011E+03  0.7818608E-02  0.1235068E+00
          4   -1    0    0  501    0  0.00000000000E+00  0.00000000000E+00  0.52686961337E+02  0.52702265557E+02  0.12700000000E+01 0. -1.
         -4   -1    0    0    0  501 -0.00000000000E+00 -0.00000000000E+00 -0.74110472099E+02  0.74121353029E+02  0.12700000000E+01 0. -1.
         25    2    1    2    0    0  0.00000000000E+00  0.00000000000E+00 -0.21423510763E+02  0.12682361859E+03  0.12500105367E+03 0.  0.
    9000005    1    3    3    0    0 -0.32820609896E+02 -0.34621643279E+02 -0.51666952123E+02  0.70330111325E+02  0.10000000000E+01 0.  0.
    9000005    1    3    3    0    0  0.32820609896E+02  0.34621643279E+02  0.30243441361E+02  0.56493507261E+02  0.10000000000E+01 0.  0.
<mgrwt>
<rscale>  0 0.12500105E+03</rscale>
<asrwt>0</asrwt>
<pdfrwt beam="1">  1        4 0.81077006E-02 0.12500105E+03</pdfrwt>
<pdfrwt beam="2">  1       -4 0.11403625E-01 0.12500105E+03</pdfrwt>
<totfact> 0.10412732E+04</totfact>
</mgrwt>
</event>
<event>
 5    1  0.3321169E-002  0.1250002E+03  0.7818608E-02  0.1235069E+00
          4   -1    0    0  501    0  0.00000000000E+00  0.00000000000E+00  0.20446811166E+01  0.24069941563E+01  0.12700000000E+01 0.  1.
         -4   -1    0    0    0  501 -0.00000000000E+00 -0.00000000000E+00 -0.17546013060E+04  0.17546017656E+04  0.12700000000E+01 0.  1.
         25    2    1    2    0    0  0.00000000000E+00  0.00000000000E+00 -0.17525566249E+04  0.17570087598E+04  0.12500023403E+03 0.  0.
    9000005    1    3    3    0    0  0.60548805346E+02  0.98083841298E+01 -0.10443067776E+04  0.10461070729E+04  0.10000000000E+01 0.  0.
    9000005    1    3    3    0    0 -0.60548805346E+02 -0.98083841298E+01 -0.70824984730E+03  0.71090168689E+03  0.10000000000E+01 0.  0.
<mgrwt>
<rscale>  0 0.12500023E+03</rscale>
<asrwt>0</asrwt>
<pdfrwt beam="1">  1        4 0.34247332E-03 0.12500023E+03</pdfrwt>
<pdfrwt beam="2">  1       -4 0.26996546E+00 0.12500023E+03</pdfrwt>
<totfact> 0.13377658E+03</totfact>
</mgrwt>
</event>
<event>
 5    1  0.3321169E-002  0.1250017E+03  0.7818608E-02  0.1235067E+00
         -4   -1    0    0    0  501 -0.00000000000E+00  0.00000000000E+00  0.35864740493E+03  0.35864965351E+03  0.12700000000E+01 0.  1.
          4   -1    0    0  501    0  0.00000000000E+00 -0.00000000000E+00 -0.10852600344E+02  0.10926657047E+02  0.12700000000E+01 0.  1.
         25    2    1    2    0    0  0.00000000000E+00  0.00000000000E+00  0.34779480459E+03  0.36957631056E+03  0.12500169290E+03 0.  0.
    9000005    1    3    3    0    0  0.51006819060E+02  0.52299938311E+00  0.67157974215E+02  0.84339567343E+02  0.10000000000E+01 0.  0.
    9000005    1    3    3    0    0 -0.51006819060E+02 -0.52299938311E+00  0.28063683037E+03  0.28523674322E+03  0.10000000000E+01 0.  0.
<mgrwt>
<rscale>  0 0.12500169E+03</rscale>
<asrwt>0</asrwt>
<pdfrwt beam="2">  1        4 0.16755006E-02 0.12500169E+03</pdfrwt>
<pdfrwt beam="1">  1       -4 0.55182390E-01 0.12500169E+03</pdfrwt>
<totfact> 0.67620756E+03</totfact>
</mgrwt>
</event>
<event>
 5    1  0.3321169E-002  0.1250003E+03  0.7818608E-02  0.1235069E+00
         -4   -1    0    0    0  501 -0.00000000000E+00  0.00000000000E+00  0.54357609448E+02  0.54372443433E+02  0.12700000000E+01 0. -1.
          4   -1    0    0  501    0  0.00000000000E+00 -0.00000000000E+00 -0.71832100872E+02  0.71843326870E+02  0.12700000000E+01 0. -1.
         25    2    1    2    0    0  0.00000000000E+00  0.00000000000E+00 -0.17474491425E+02  0.12621577030E+03  0.12500025129E+03 0.  0.
    9000005    1    3    3    0    0 -0.38254318644E+01 -0.93102726468E+01 -0.71013168319E+02  0.71729946190E+02  0.10000000000E+01 0.  0.
    9000005    1    3    3    0    0  0.38254318644E+01  0.93102726468E+01  0.53538676894E+02  0.54485824113E+02  0.10000000000E+01 0.  0.
<mgrwt>
<rscale>  0 0.12500025E+03</rscale>
<asrwt>0</asrwt>
<pdfrwt beam="2">  1        4 0.11053097E-01 0.12500025E+03</pdfrwt>
<pdfrwt beam="1">  1       -4 0.83647138E-02 0.12500025E+03</pdfrwt>
<totfact> 0.10426175E+04</totfact>
</mgrwt>
</event>
<event>
 5    1  0.3321169E-002  0.1250002E+03  0.7818608E-02  0.1235069E+00
         -4   -1    0    0    0  501 -0.00000000000E+00  0.00000000000E+00  0.15504398679E+02  0.15556325993E+02  0.12700000000E+01 0.  1.
          4   -1    0    0  501    0  0.00000000000E+00 -0.00000000000E+00 -0.25147069331E+03  0.25147390022E+03  0.12700000000E+01 0.  1.
         25    2    1    2    0    0  0.00000000000E+00  0.00000000000E+00 -0.23596629463E+03  0.26703022622E+03  0.12500019805E+03 0.  0.
    9000005    1    3    3    0    0 -0.34752426141E+02 -0.17502333649E+02 -0.22244497853E+03  0.22582478004E+03  0.10000000000E+01 0.  0.
    9000005    1    3    3    0    0  0.34752426141E+02  0.17502333649E+02 -0.13521316102E+02  0.41205446181E+02  0.10000000000E+01 0.  0.
<mgrwt>
<rscale>  0 0.12500020E+03</rscale>
<asrwt>0</asrwt>
<pdfrwt beam="2">  1        4 0.38692037E-01 0.12500020E+03</pdfrwt>
<pdfrwt beam="1">  1       -4 0.23895334E-02 0.12500020E+03</pdfrwt>
<totfact> 0.79929130E+03</totfact>
</mgrwt>
</event>
<event>
 5    1  0.3321169E-002  0.1250044E+03  0.7818608E-02  0.1235062E+00
          4   -1    0    0  501    0  0.00000000000E+00  0.00000000000E+00  0.18652974914E+02  0.18696159315E+02  0.12700000000E+01 0.  1.
         -4   -1    0    0    0  501 -0.00000000000E+00 -0.00000000000E+00 -0.20914447760E+03  0.20914833351E+03  0.12700000000E+01 0.  1.
         25    2    1    2    0    0  0.00000000000E+00  0.00000000000E+00 -0.19049150269E+03  0.22784449283E+03  0.12500440119E+03 0.  0.
    9000005    1    3    3    0    0  0.11718287096E+02 -0.18447200878E+02 -0.20196132066E+03  0.20314278849E+03  0.10000000000E+01 0.  0.
    9000005    1    3    3    0    0 -0.11718287096E+02  0.18447200878E+02  0.11469817975E+02  0.24701704335E+02  0.10000000000E+01 0.  0.
<mgrwt>
<rscale>  0 0.12500440E+03</rscale>
<asrwt>0</asrwt>
<pdfrwt beam="1">  1        4 0.28733071E-02 0.12500440E+03</pdfrwt>
<pdfrwt beam="2">  1       -4 0.32179690E-01 0.12500440E+03</pdfrwt>
<totfact> 0.85633270E+03</totfact>
</mgrwt>
</event>
<event>
 5    1  0.3321169E-002  0.1250016E+03  0.7818608E-02  0.1235067E+00
          4   -1    0    0  501    0  0.00000000000E+00  0.00000000000E+00  0.21678539823E+02  0.21715708344E+02  0.12700000000E+01 0. -1.
         -4   -1    0    0    0  501 -0.00000000000E+00 -0.00000000000E+00 -0.18000066521E+03  0.18000514541E+03  0.12700000000E+01 0. -1.
         25    2    1    2    0    0  0.00000000000E+00  0.00000000000E+00 -0.15832212538E+03  0.20172085376E+03  0.12500162981E+03 0.  0.
    9000005    1    3    3    0    0 -0.17779611581E+01 -0.57720571987E+02 -0.11770649774E+03  0.13111310075E+03  0.10000000000E+01 0.  0.
    9000005    1    3    3    0    0  0.17779611581E+01  0.57720571987E+02 -0.40615627641E+02  0.70607753010E+02  0.10000000000E+01 0.  0.
<mgrwt>
<rscale>  0 0.12500163E+03</rscale>
<asrwt>0</asrwt>
<pdfrwt beam="1">  1        4 0.33383638E-02 0.12500163E+03</pdfrwt>
<pdfrwt beam="2">  1       -4 0.27695613E-01 0.12500163E+03</pdfrwt>
<totfact> 0.89842804E+03</totfact>
</mgrwt>
</event>
<event>
 5    1  0.3321169E-002  0.1250002E+03  0.7818608E-02  0.1235069E+00
         -4   -1    0    0    0  501 -0.00000000000E+00  0.00000000000E+00  0.52820540213E+02  0.52835805742E+02  0.12700000000E+01 0. -1.
          4   -1    0    0  501    0  0.00000000000E+00 -0.00000000000E+00 -0.73922121490E+02  0.73933030139E+02  0.12700000000E+01 0. -1.
         25    2    1    2    0    0  0.00000000000E+00  0.00000000000E+00 -0.21101581277E+02  0.12676883588E+03  0.12500024407E+03 0.  0.
    9000005    1    3    3    0    0  0.19914299108E+02 -0.48838426477E+02 -0.44543597647E+02  0.69042764292E+02  0.10000000000E+01 0.  0.
    9000005    1    3    3    0    0 -0.19914299108E+02  0.48838426477E+02  0.23442016370E+02  0.57726071590E+02  0.10000000000E+01 0.  0.
<mgrwt>
<rscale>  0 0.12500024E+03</rscale>
<asrwt>0</asrwt>
<pdfrwt beam="2">  1        4 0.11374647E-01 0.12500024E+03</pdfrwt>
<pdfrwt beam="1">  1       -4 0.81282504E-02 0.12500024E+03</pdfrwt>
<totfact> 0.10414114E+04</totfact>
</mgrwt>
</event>
<event>
 5    1  0.3321169E-002  0.1249999E+03  0.7818608E-02  0.1235069E+00
          4   -1    0    0  501    0  0.00000000000E+00  0.00000000000E+00  0.47827012866E+02  0.47843871705E+02  0.12700000000E+01 0. -1.
         -4   -1    0    0    0  501 -0.00000000000E+00 -0.00000000000E+00 -0.81638197021E+02  0.81648074765E+02  0.12700000000E+01 0. -1.
         25    2    1    2    0    0  0.00000000000E+00  0.00000000000E+00 -0.33811184155E+02  0.12949194647E+03  0.12499987211E+03 0.  0.
    9000005    1    3    3    0    0 -0.62004524748E+02 -0.27537690486E+01 -0.24454270704E+02  0.66716982013E+02  0.10000000000E+01 0.  0.
    9000005    1    3    3    0    0  0.62004524748E+02  0.27537690486E+01 -0.93569134510E+01  0.62774964457E+02  0.10000000000E+01 0.  0.
<mgrwt>
<rscale>  0 0.12499987E+03</rscale>
<asrwt>0</asrwt>
<pdfrwt beam="1">  1        4 0.73600586E-02 0.12499987E+03</pdfrwt>
<pdfrwt beam="2">  1       -4 0.12561779E-01 0.12499987E+03</pdfrwt>
<totfact> 0.10355418E+04</totfact>
</mgrwt>
</event>
<event>
 5    1  0.3321169E-002  0.1250018E+03  0.7818608E-02  0.1235066E+00
          4   -1    0    0  501    0  0.00000000000E+00  0.00000000000E+00  0.36956790126E+01  0.39078054409E+01  0.12700000000E+01 0.  1.
         -4   -1    0    0    0  501 -0.00000000000E+00 -0.00000000000E+00 -0.10273063442E+04  0.10273071292E+04  0.12700000000E+01 0.  1.
         25    2    1    2    0    0  0.00000000000E+00  0.00000000000E+00 -0.10236106651E+04  0.10312149346E+04  0.12500179026E+03 0.  0.
    9000005    1    3    3    0    0 -0.49110480799E+02  0.38645117644E+02 -0.50950947841E+03  0.51332854297E+03  0.10000000000E+01 0.  0.
    9000005    1    3    3    0    0  0.49110480799E+02 -0.38645117644E+02 -0.51410118673E+03  0.51788639164E+03  0.10000000000E+01 0.  0.
<mgrwt>
<rscale>  0 0.12500179E+03</rscale>
<asrwt>0</asrwt>
<pdfrwt beam="1">  1        4 0.58494463E-03 0.12500179E+03</pdfrwt>
<pdfrwt beam="2">  1       -4 0.15806329E+00 0.12500179E+03</pdfrwt>
<totfact> 0.29587524E+03</totfact>
</mgrwt>
</event>
<event>
 5    1  0.3321169E-002  0.1249955E+03  0.7818608E-02  0.1235076E+00
         -4   -1    0    0    0  501 -0.00000000000E+00  0.00000000000E+00  0.17351060523E+03  0.17351525301E+03  0.12700000000E+01 0. -1.
          4   -1    0    0  501    0  0.00000000000E+00 -0.00000000000E+00 -0.22488557371E+02  0.22524389284E+02  0.12700000000E+01 0. -1.
         25    2    1    2    0    0  0.00000000000E+00  0.00000000000E+00  0.15102204786E+03  0.19603964229E+03  0.12499552957E+03 0.  0.
    9000005    1    3    3    0    0  0.40507589543E+02  0.26901503138E+02  0.13955323286E+02  0.50599473611E+02  0.10000000000E+01 0.  0.
    9000005    1    3    3    0    0 -0.40507589543E+02 -0.26901503138E+02  0.13706672457E+03  0.14544016868E+03  0.10000000000E+01 0.  0.
<mgrwt>
<rscale>  0 0.12499553E+03</rscale>
<asrwt>0</asrwt>
<pdfrwt beam="2">  1        4 0.34628919E-02 0.12499553E+03</pdfrwt>
<pdfrwt beam="1">  1       -4 0.26697053E-01 0.12499553E+03</pdfrwt>
<totfact> 0.90816015E+03</totfact>
</mgrwt>
</event>
<event>
 5    1  0.3321169E-002  0.1250039E+03  0.7818608E-02  0.1235063E+00
          4   -1    0    0  501    0  0.00000000000E+00  0.00000000000E+00  0.70919382731E+02  0.70930753182E+02  0.12700000000E+01 0.  1.
         -4   -1    0    0    0  501 -0.00000000000E+00 -0.00000000000E+00 -0.55060516644E+02  0.55075161308E+02  0.12700000000E+01 0.  1.
         25    2    1    2    0    0  0.00000000000E+00  0.00000000000E+00  0.15858866086E+02  0.12600591449E+03  0.12500394735E+03 0.  0.
    9000005    1    3    3    0    0 -0.45817773041E+02  0.18680266408E+02  0.46409703393E+02  0.67846011295E+02  0.10000000000E+01 0.  0.
    9000005    1    3    3    0    0  0.45817773041E+02 -0.18680266408E+02 -0.30550837307E+02  0.58159903195E+02  0.10000000000E+01 0.  0.
<mgrwt>
<rscale>  0 0.12500395E+03</rscale>
<asrwt>0</asrwt>
<pdfrwt beam="1">  1        4 0.10912675E-01 0.12500395E+03</pdfrwt>
<pdfrwt beam="2">  1       -4 0.84728498E-02 0.12500395E+03</pdfrwt>
<totfact> 0.10429898E+04</totfact>
</mgrwt>
</event>
<event>
 5    1  0.3321169E-002  0.1250036E+03  0.7818608E-02  0.1235064E+00
          4   -1    0    0  501    0  0.00000000000E+00  0.00000000000E+00  0.21561331080E+02  0.21598701302E+02  0.12700000000E+01 0. -1.
         -4   -1    0    0    0  501 -0.00000000000E+00 -0.00000000000E+00 -0.18098322126E+03  0.18098767714E+03  0.12700000000E+01 0. -1.
         25    2    1    2    0    0  0.00000000000E+00  0.00000000000E+00 -0.15942189018E+03  0.20258637845E+03  0.12500360660E+03 0.  0.
    9000005    1    3    3    0    0 -0.49208828451E+02  0.32426051407E+02 -0.46006304976E+02  0.74769898388E+02  0.10000000000E+01 0.  0.
    9000005    1    3    3    0    0  0.49208828451E+02 -0.32426051407E+02 -0.11341558520E+03  0.12781648006E+03  0.10000000000E+01 0.  0.
<mgrwt>
<rscale>  0 0.12500361E+03</rscale>
<asrwt>0</asrwt>
<pdfrwt beam="1">  1        4 0.33203454E-02 0.12500361E+03</pdfrwt>
<pdfrwt beam="2">  1       -4 0.27846789E-01 0.12500361E+03</pdfrwt>
<totfact> 0.89693882E+03</totfact>
</mgrwt>
</event>
<event>
 5    1  0.3321169E-002  0.1250011E+03  0.7818608E-02  0.1235068E+00
          4   -1    0    0  501    0  0.00000000000E+00  0.00000000000E+00  0.10940140690E+02  0.11013608778E+02  0.12700000000E+01 0. -1.
         -4   -1    0    0    0  501 -0.00000000000E+00 -0.00000000000E+00 -0.35579350766E+03  0.35579577428E+03  0.12700000000E+01 0. -1.
         25    2    1    2    0    0  0.00000000000E+00  0.00000000000E+00 -0.34485336697E+03  0.36680938306E+03  0.12500111514E+03 0.  0.
    9000005    1    3    3    0    0 -0.75769286234E+01  0.57028950575E+02 -0.10081118064E+03  0.11607585965E+03  0.10000000000E+01 0.  0.
    9000005    1    3    3    0    0  0.75769286234E+01 -0.57028950575E+02 -0.24404218633E+03  0.25073352341E+03  0.10000000000E+01 0.  0.
<mgrwt>
<rscale>  0 0.12500112E+03</rscale>
<asrwt>0</asrwt>
<pdfrwt beam="1">  1        4 0.16889246E-02 0.12500112E+03</pdfrwt>
<pdfrwt beam="2">  1       -4 0.54743280E-01 0.12500112E+03</pdfrwt>
<totfact> 0.67912391E+03</totfact>
</mgrwt>
</event>
<event>
 5    1  0.3321169E-002  0.1249988E+03  0.7818608E-02  0.1235071E+00
          4   -1    0    0  501    0  0.00000000000E+00  0.00000000000E+00  0.10471050803E+04  0.10471058505E+04  0.12700000000E+01 0.  1.
         -4   -1    0    0    0  501 -0.00000000000E+00 -0.00000000000E+00 -0.36215684483E+01  0.38377933797E+01  0.12700000000E+01 0.  1.
         25    2    1    2    0    0  0.00000000000E+00  0.00000000000E+00  0.10434835118E+04  0.10509436438E+04  0.12499881217E+03 0.  0.
    9000005    1    3    3    0    0  0.35477365539E+01  0.52976093811E+02  0.79882675170E+03  0.80058992761E+03  0.10000000000E+01 0.  0.
    9000005    1    3    3    0    0 -0.35477365539E+01 -0.52976093811E+02  0.24465676014E+03  0.25035371624E+03  0.10000000000E+01 0.  0.
<mgrwt>
<rscale>  0 0.12499881E+03</rscale>
<asrwt>0</asrwt>
<pdfrwt beam="1">  1        4 0.16110972E+00 0.12499881E+03</pdfrwt>
<pdfrwt beam="2">  1       -4 0.57385651E-03 0.12499881E+03</pdfrwt>
<totfact> 0.28966082E+03</totfact>
</mgrwt>
</event>
<event>
 5    1  0.3321169E-002  0.1250065E+03  0.7818608E-02  0.1235059E+00
          4   -1    0    0  501    0  0.00000000000E+00  0.00000000000E+00  0.29901744936E+03  0.29902014635E+03  0.12700000000E+01 0.  1.
         -4   -1    0    0    0  501 -0.00000000000E+00 -0.00000000000E+00 -0.13031357086E+02  0.13093096177E+02  0.12700000000E+01 0.  1.
         25    2    1    2    0    0  0.00000000000E+00  0.00000000000E+00  0.28598609228E+03  0.31211324253E+03  0.12500652457E+03 0.  0.
    9000005    1    3    3    0    0 -0.20725299660E+02  0.68953702924E+01  0.28918930325E+03  0.29001471909E+03  0.10000000000E+01 0.  0.
    9000005    1    3    3    0    0  0.20725299660E+02 -0.68953702924E+01 -0.32032109715E+01  0.22098523435E+02  0.10000000000E+01 0.  0.
<mgrwt>
<rscale>  0 0.12500652E+03</rscale>
<asrwt>0</asrwt>
<pdfrwt beam="1">  1        4 0.46007641E-01 0.12500652E+03</pdfrwt>
<pdfrwt beam="2">  1       -4 0.20097808E-02 0.12500652E+03</pdfrwt>
<totfact> 0.74093345E+03</totfact>
</mgrwt>
</event>
<event>
 5    1  0.3321169E-002  0.1250103E+03  0.7818608E-02  0.1235053E+00
          4   -1    0    0  501    0  0.00000000000E+00  0.00000000000E+00  0.35121897875E+03  0.35122127489E+03  0.12700000000E+01 0. -1.
         -4   -1    0    0    0  501 -0.00000000000E+00 -0.00000000000E+00 -0.11085227156E+02  0.11157739964E+02  0.12700000000E+01 0. -1.
         25    2    1    2    0    0  0.00000000000E+00  0.00000000000E+00  0.34013375160E+03  0.36237901485E+03  0.12501032530E+03 0.  0.
    9000005    1    3    3    0    0  0.21835676929E+02  0.44532786477E+01  0.33932427157E+03  0.34005674491E+03  0.10000000000E+01 0.  0.
    9000005    1    3    3    0    0 -0.21835676929E+02 -0.44532786477E+01  0.80948002166E+00  0.22322269947E+02  0.10000000000E+01 0.  0.
<mgrwt>
<rscale>  0 0.12501033E+03</rscale>
<asrwt>0</asrwt>
<pdfrwt beam="1">  1        4 0.54039445E-01 0.12501033E+03</pdfrwt>
<pdfrwt beam="2">  1       -4 0.17111741E-02 0.12501033E+03</pdfrwt>
<totfact> 0.68368227E+03</totfact>
</mgrwt>
</event>
<event>
 5    1  0.3321169E-002  0.1250010E+03  0.7818608E-02  0.1235068E+00
         -4   -1    0    0    0  501 -0.00000000000E+00  0.00000000000E+00  0.27331722527E+02  0.27361212625E+02  0.12700000000E+01 0. -1.
          4   -1    0    0  501    0  0.00000000000E+00 -0.00000000000E+00 -0.14281298980E+03  0.14281863658E+03  0.12700000000E+01 0. -1.
         25    2    1    2    0    0  0.00000000000E+00  0.00000000000E+00 -0.11548126727E+03  0.17017984921E+03  0.12500103194E+03 0.  0.
    9000005    1    3    3    0    0  0.37551024607E+02  0.48963780988E+02 -0.44278104498E+02  0.75954472124E+02  0.10000000000E+01 0.  0.
    9000005    1    3    3    0    0 -0.37551024607E+02 -0.48963780988E+02 -0.71203162774E+02  0.94225377085E+02  0.10000000000E+01 0.  0.
<mgrwt>
<rscale>  0 0.12500103E+03</rscale>
<asrwt>0</asrwt>
<pdfrwt beam="2">  1        4 0.21973932E-01 0.12500103E+03</pdfrwt>
<pdfrwt beam="1">  1       -4 0.42075833E-02 0.12500103E+03</pdfrwt>
<totfact> 0.95412916E+03</totfact>
</mgrwt>
</event>
<event>
 5    1  0.3321169E-002  0.1249972E+03  0.7818608E-02  0.1235074E+00
         -4   -1    0    0    0  501 -0.00000000000E+00  0.00000000000E+00  0.57851794987E+01  0.59229386146E+01  0.12700000000E+01 0. -1.
          4   -1    0    0  501    0  0.00000000000E+00 -0.00000000000E+00 -0.66710405518E+03  0.66710526406E+03  0.12700000000E+01 0. -1.
         25    2    1    2    0    0  0.00000000000E+00  0.00000000000E+00 -0.66131887568E+03  0.67302820267E+03  0.12499722503E+03 0.  0.
    9000005    1    3    3    0    0  0.27972728983E+02  0.49143288166E+02 -0.18743785795E+03  0.19578428673E+03  0.10000000000E+01 0.  0.
    9000005    1    3    3    0    0 -0.27972728983E+02 -0.49143288166E+02 -0.47388101773E+03  0.47724391594E+03  0.10000000000E+01 0.  0.
<mgrwt>
<rscale>  0 0.12499723E+03</rscale>
<asrwt>0</asrwt>
<pdfrwt beam="2">  1        4 0.10264202E+00 0.12499723E+03</pdfrwt>
<pdfrwt beam="1">  1       -4 0.90071799E-03 0.12499723E+03</pdfrwt>
<totfact> 0.44551977E+03</totfact>
</mgrwt>
</event>
<event>
 4    1  0.3321169E-002  0.1250968E+03  0.7818608E-02  0.1234918E+00
         -4   -1    0    0    0  501 -0.00000000000E+00  0.00000000000E+00  0.12889437119E+03  0.12890062771E+03  0.12700000000E+01 0.  1.
          4   -1    0    0  501    0  0.00000000000E+00 -0.00000000000E+00 -0.30332477921E+02  0.30359053293E+02  0.12700000000E+01 0.  1.
    9000005    1    1    2    0    0  0.45032712283E+02  0.42309580135E+02  0.36986934584E+02  0.72021379303E+02  0.10000000000E+01 0.  0.
    9000005    1    1    2    0    0 -0.45032712283E+02 -0.42309580135E+02  0.61574958684E+02  0.87238301701E+02  0.10000000000E+01 0.  0.
<mgrwt>
<rscale>  0 0.12509676E+03</rscale>
<asrwt>0</asrwt>
<pdfrwt beam="2">  1        4 0.46690607E-02 0.12509676E+03</pdfrwt>
<pdfrwt beam="1">  1       -4 0.19832428E-01 0.12509676E+03</pdfrwt>
<totfact> 0.97273967E+03</totfact>
</mgrwt>
</event>
<event>
 5    1  0.3321169E-002  0.1249996E+03  0.7818608E-02  0.1235070E+00
          4   -1    0    0  501    0  0.00000000000E+00  0.00000000000E+00  0.45024440645E+03  0.45024619759E+03  0.12700000000E+01 0. -1.
         -4   -1    0    0    0  501 -0.00000000000E+00 -0.00000000000E+00 -0.86274872981E+01  0.87204608295E+01  0.12700000000E+01 0. -1.
         25    2    1    2    0    0  0.00000000000E+00  0.00000000000E+00  0.44161691916E+03  0.45896665842E+03  0.12499956102E+03 0.  0.
    9000005    1    3    3    0    0 -0.23305385199E+02  0.35997635367E+02  0.38771151049E+03  0.39007715403E+03  0.10000000000E+01 0.  0.
    9000005    1    3    3    0    0  0.23305385199E+02 -0.35997635367E+02  0.53905408670E+02  0.68889504390E+02  0.10000000000E+01 0.  0.
<mgrwt>
<rscale>  0 0.12499956E+03</rscale>
<asrwt>0</asrwt>
<pdfrwt beam="1">  1        4 0.69275679E-01 0.12499956E+03</pdfrwt>
<pdfrwt beam="2">  1       -4 0.13345950E-02 0.12499956E+03</pdfrwt>
<totfact> 0.59195369E+03</totfact>
</mgrwt>
</event>
<event>
 5    1  0.3321169E-002  0.1250007E+03  0.7818608E-02  0.1235068E+00
         -4   -1    0    0    0  501 -0.00000000000E+00  0.00000000000E+00  0.34379440527E+02  0.34402889863E+02  0.12700000000E+01 0. -1.
          4   -1    0    0  501    0  0.00000000000E+00 -0.00000000000E+00 -0.11355715464E+03  0.11356425613E+03  0.12700000000E+01 0. -1.
         25    2    1    2    0    0  0.00000000000E+00  0.00000000000E+00 -0.79177714112E+02  0.14796714599E+03  0.12500066352E+03 0.  0.
    9000005    1    3    3    0    0  0.39712561670E+02 -0.35789828756E+02 -0.12810856589E+01  0.53484956551E+02  0.10000000000E+01 0.  0.
    9000005    1    3    3    0    0 -0.39712561670E+02  0.35789828756E+02 -0.77896628453E+02  0.94482189439E+02  0.10000000000E+01 0.  0.
<mgrwt>
<rscale>  0 0.12500066E+03</rscale>
<asrwt>0</asrwt>
<pdfrwt beam="2">  1        4 0.17472681E-01 0.12500066E+03</pdfrwt>
<pdfrwt beam="1">  1       -4 0.52914948E-02 0.12500066E+03</pdfrwt>
<totfact> 0.99708981E+03</totfact>
</mgrwt>
</event>
<event>
 5    1  0.3321169E-002  0.1249996E+03  0.7818608E-02  0.1235070E+00
         -4   -1    0    0    0  501 -0.00000000000E+00  0.00000000000E+00  0.28896384513E+02  0.28924279384E+02  0.12700000000E+01 0.  1.
          4   -1    0    0  501    0  0.00000000000E+00 -0.00000000000E+00 -0.13508441243E+03  0.13509038227E+03  0.12700000000E+01 0.  1.
         25    2    1    2    0    0  0.00000000000E+00  0.00000000000E+00 -0.10618802792E+03  0.16401466165E+03  0.12499964786E+03 0.  0.
    9000005    1    3    3    0    0  0.45412149831E+02 -0.34013806729E+02 -0.18726822607E+02  0.59756976877E+02  0.10000000000E+01 0.  0.
    9000005    1    3    3    0    0 -0.45412149831E+02  0.34013806729E+02 -0.87461205311E+02  0.10425768478E+03  0.10000000000E+01 0.  0.
<mgrwt>
<rscale>  0 0.12499965E+03</rscale>
<asrwt>0</asrwt>
<pdfrwt beam="2">  1        4 0.20784822E-01 0.12499965E+03</pdfrwt>
<pdfrwt beam="1">  1       -4 0.44482027E-02 0.12499965E+03</pdfrwt>
<totfact> 0.96575090E+03</totfact>
</mgrwt>
</event>
<event>
 5    1  0.3321169E-002  0.1250026E+03  0.7818608E-02  0.1235065E+00
          4   -1    0    0  501    0  0.00000000000E+00  0.00000000000E+00  0.14301634196E+03  0.14302198072E+03  0.12700000000E+01 0. -1.
         -4   -1    0    0    0  501 -0.00000000000E+00 -0.00000000000E+00 -0.27293483454E+02  0.27323014824E+02  0.12700000000E+01 0. -1.
         25    2    1    2    0    0  0.00000000000E+00  0.00000000000E+00  0.11572285851E+03  0.17034499554E+03  0.12500255007E+03 0.  0.
    9000005    1    3    3    0    0 -0.56678470404E+02  0.23778031764E+02  0.73252798574E+02  0.95628532880E+02  0.10000000000E+01 0.  0.
    9000005    1    3    3    0    0  0.56678470404E+02 -0.23778031764E+02  0.42470059936E+02  0.74716462663E+02  0.10000000000E+01 0.  0.
<mgrwt>
<rscale>  0 0.12500255E+03</rscale>
<asrwt>0</asrwt>
<pdfrwt beam="1">  1        4 0.22005220E-01 0.12500255E+03</pdfrwt>
<pdfrwt beam="2">  1       -4 0.42017028E-02 0.12500255E+03</pdfrwt>
<totfact> 0.95378913E+03</totfact>
</mgrwt>
</event>
<event>
 5    1  0.3321169E-002  0.1249993E+03  0.7818608E-02  0.1235070E+00
          4   -1    0    0  501    0  0.00000000000E+00  0.00000000000E+00  0.57971515829E+02  0.57985425302E+02  0.12700000000E+01 0.  1.
         -4   -1    0    0    0  501 -0.00000000000E+00 -0.00000000000E+00 -0.67353482631E+02  0.67365454964E+02  0.12700000000E+01 0.  1.
         25    2    1    2    0    0  0.00000000000E+00  0.00000000000E+00 -0.93819668021E+01  0.12535088027E+03  0.12499928753E+03 0.  0.
    9000005    1    3    3    0    0 -0.37602509446E+02  0.49417738071E+02  0.23390071130E+01  0.62149275997E+02  0.10000000000E+01 0.  0.
    9000005    1    3    3    0    0  0.37602509446E+02 -0.49417738071E+02 -0.11720973915E+02  0.63201604269E+02  0.10000000000E+01 0.  0.
<mgrwt>
<rscale>  0 0.12499929E+03</rscale>
<asrwt>0</asrwt>
<pdfrwt beam="1">  1        4 0.89206856E-02 0.12499929E+03</pdfrwt>
<pdfrwt beam="2">  1       -4 0.10364065E-01 0.12499929E+03</pdfrwt>
<totfact> 0.10445414E+04</totfact>
</mgrwt>
</event>
<event>
 5    1  0.3321169E-002  0.1249969E+03  0.7818608E-02  0.1235074E+00
          4   -1    0    0  501    0  0.00000000000E+00  0.00000000000E+00  0.43735608619E+01  0.45542216254E+01  0.12700000000E+01 0.  1.
         -4   -1    0    0    0  501 -0.00000000000E+00 -0.00000000000E+00 -0.87485277064E+03  0.87485369245E+03  0.12700000000E+01 0.  1.
         25    2    1    2    0    0  0.00000000000E+00  0.00000000000E+00 -0.87047920978E+03  0.87940791408E+03  0.12499689870E+03 0.  0.
    9000005    1    3    3    0    0  0.37778400567E+02 -0.25644278864E+02 -0.13507946225E+03  0.14259136618E+03  0.10000000000E+01 0.  0.
    9000005    1    3    3    0    0 -0.37778400567E+02  0.25644278864E+02 -0.73539974753E+03  0.73681654790E+03  0.10000000000E+01 0.  0.
<mgrwt>
<rscale>  0 0.12499690E+03</rscale>
<asrwt>0</asrwt>
<pdfrwt beam="1">  1        4 0.68682410E-03 0.12499690E+03</pdfrwt>
<pdfrwt beam="2">  1       -4 0.13460657E+00 0.12499690E+03</pdfrwt>
<totfact> 0.34955601E+03</totfact>
</mgrwt>
</event>
<event>
 5    1  0.3321169E-002  0.1249860E+03  0.7818608E-02  0.1235091E+00
         -4   -1    0    0    0  501 -0.00000000000E+00  0.00000000000E+00  0.17475139436E+03  0.17475600914E+03  0.12700000000E+01 0.  1.
          4   -1    0    0  501    0  0.00000000000E+00 -0.00000000000E+00 -0.22325217402E+02  0.22361311054E+02  0.12700000000E+01 0.  1.
         25    2    1    2    0    0  0.00000000000E+00  0.00000000000E+00  0.15242617696E+03  0.19711732019E+03  0.12498599321E+03 0.  0.
    9000005    1    3    3    0    0  0.18870053458E+02 -0.53931786089E+02  0.36325533885E+02  0.67714554420E+02  0.10000000000E+01 0.  0.
    9000005    1    3    3    0    0 -0.18870053458E+02  0.53931786089E+02  0.11610064307E+03  0.12940276577E+03  0.10000000000E+01 0.  0.
<mgrwt>
<rscale>  0 0.12498599E+03</rscale>
<asrwt>0</asrwt>
<pdfrwt beam="2">  1        4 0.34377802E-02 0.12498599E+03</pdfrwt>
<pdfrwt beam="1">  1       -4 0.26887961E-01 0.12498599E+03</pdfrwt>
<totfact> 0.90651878E+03</totfact>
</mgrwt>
</event>
<event>
 5    1  0.3321169E-002  0.1250005E+03  0.7818608E-02  0.1235069E+00
         -4   -1    0    0    0  501 -0.00000000000E+00  0.00000000000E+00  0.10620420041E+03  0.10621179352E+03  0.12700000000E+01 0. -1.
          4   -1    0    0  501    0  0.00000000000E+00 -0.00000000000E+00 -0.36760961580E+02  0.36782892713E+02  0.12700000000E+01 0. -1.
         25    2    1    2    0    0  0.00000000000E+00  0.00000000000E+00  0.69443238825E+02  0.14299468624E+03  0.12500046749E+03 0.  0.
    9000005    1    3    3    0    0  0.92558220814E+01 -0.51474042393E+02 -0.44081347892E+01  0.52494561004E+02  0.10000000000E+01 0.  0.
    9000005    1    3    3    0    0 -0.92558220814E+01  0.51474042393E+02  0.73851373614E+02  0.90500125234E+02  0.10000000000E+01 0.  0.
<mgrwt>
<rscale>  0 0.12500047E+03</rscale>
<asrwt>0</asrwt>
<pdfrwt beam="2">  1        4 0.56578038E-02 0.12500047E+03</pdfrwt>
<pdfrwt beam="1">  1       -4 0.16341378E-01 0.12500047E+03</pdfrwt>
<totfact> 0.10071786E+04</totfact>
</mgrwt>
</event>
<event>
 5    1  0.3321169E-002  0.1250001E+03  0.7818608E-02  0.1235069E+00
         -4   -1    0    0    0  501 -0.00000000000E+00  0.00000000000E+00  0.27161449322E+02  0.27191124090E+02  0.12700000000E+01 0. -1.
          4   -1    0    0  501    0  0.00000000000E+00 -0.00000000000E+00 -0.14370520030E+03  0.14371081203E+03  0.12700000000E+01 0. -1.
         25    2    1    2    0    0  0.00000000000E+00  0.00000000000E+00 -0.11654375098E+03  0.17090193612E+03  0.12500010351E+03 0.  0.
    9000005    1    3    3    0    0 -0.55515153553E+02 -0.63147951016E+01 -0.20003363496E+02  0.59354388737E+02  0.10000000000E+01 0.  0.
    9000005    1    3    3    0    0  0.55515153553E+02  0.63147951016E+01 -0.96540387487E+02  0.11154754738E+03  0.10000000000E+01 0.  0.
<mgrwt>
<rscale>  0 0.12500010E+03</rscale>
<asrwt>0</asrwt>
<pdfrwt beam="2">  1        4 0.22111206E-01 0.12500010E+03</pdfrwt>
<pdfrwt beam="1">  1       -4 0.41813989E-02 0.12500010E+03</pdfrwt>
<totfact> 0.95280573E+03</totfact>
</mgrwt>
</event>
<event>
 5    1  0.3321169E-002  0.1250022E+03  0.7818608E-02  0.1235066E+00
         -4   -1    0    0    0  501 -0.00000000000E+00  0.00000000000E+00  0.47833484470E+02  0.47850341029E+02  0.12700000000E+01 0.  1.
          4   -1    0    0  501    0  0.00000000000E+00 -0.00000000000E+00 -0.81630255557E+02  0.81640134262E+02  0.12700000000E+01 0.  1.
         25    2    1    2    0    0  0.00000000000E+00  0.00000000000E+00 -0.33796771087E+02  0.12949047529E+03  0.12500224580E+03 0.  0.
    9000005    1    3    3    0    0  0.32964956587E+02 -0.53085923840E+02 -0.17691844963E+02  0.64952329065E+02  0.10000000000E+01 0.  0.
    9000005    1    3    3    0    0 -0.32964956587E+02  0.53085923840E+02 -0.16104926124E+02  0.64538146226E+02  0.10000000000E+01 0.  0.
<mgrwt>
<rscale>  0 0.12500225E+03</rscale>
<asrwt>0</asrwt>
<pdfrwt beam="2">  1        4 0.12560557E-01 0.12500225E+03</pdfrwt>
<pdfrwt beam="1">  1       -4 0.73610542E-02 0.12500225E+03</pdfrwt>
<totfact> 0.10354894E+04</totfact>
</mgrwt>
</event>
<event>
 5    1  0.3321169E-002  0.1250003E+03  0.7818608E-02  0.1235069E+00
          4   -1    0    0  501    0  0.00000000000E+00  0.00000000000E+00  0.19605077187E+02  0.19646168876E+02  0.12700000000E+01 0. -1.
         -4   -1    0    0    0  501 -0.00000000000E+00 -0.00000000000E+00 -0.19899615037E+03  0.19900020292E+03  0.12700000000E+01 0. -1.
         25    2    1    2    0    0  0.00000000000E+00  0.00000000000E+00 -0.17939107318E+03  0.21864637180E+03  0.12500031505E+03 0.  0.
    9000005    1    3    3    0    0 -0.34775900580E+02  0.59394130538E+01  0.52873678882E+00  0.35297584211E+02  0.10000000000E+01 0.  0.
    9000005    1    3    3    0    0  0.34775900580E+02 -0.59394130538E+01 -0.17991980997E+03  0.18334878759E+03  0.10000000000E+01 0.  0.
<mgrwt>
<rscale>  0 0.12500032E+03</rscale>
<asrwt>0</asrwt>
<pdfrwt beam="1">  1        4 0.30196385E-02 0.12500032E+03</pdfrwt>
<pdfrwt beam="2">  1       -4 0.30618264E-01 0.12500032E+03</pdfrwt>
<totfact> 0.87082385E+03</totfact>
</mgrwt>
</event>
<event>
 5    1  0.3321169E-002  0.1250006E+03  0.7818608E-02  0.1235068E+00
          4   -1    0    0  501    0  0.00000000000E+00  0.00000000000E+00  0.11588364015E+03  0.11589059907E+03  0.12700000000E+01 0. -1.
         -4   -1    0    0    0  501 -0.00000000000E+00 -0.00000000000E+00 -0.33688748400E+02  0.33712678161E+02  0.12700000000E+01 0. -1.
         25    2    1    2    0    0  0.00000000000E+00  0.00000000000E+00  0.82194891746E+02  0.14960327723E+03  0.12500056132E+03 0.  0.
    9000005    1    3    3    0    0 -0.48095694349E+02  0.78863313040E+01 -0.57148523749E+01  0.49082069781E+02  0.10000000000E+01 0.  0.
    9000005    1    3    3    0    0  0.48095694349E+02 -0.78863313040E+01  0.87909744121E+02  0.10052120745E+03  0.10000000000E+01 0.  0.
<mgrwt>
<rscale>  0 0.12500056E+03</rscale>
<asrwt>0</asrwt>
<pdfrwt beam="1">  1        4 0.17830628E-01 0.12500056E+03</pdfrwt>
<pdfrwt beam="2">  1       -4 0.51852604E-02 0.12500056E+03</pdfrwt>
<totfact> 0.99381582E+03</totfact>
</mgrwt>
</event>
<event>
 5    1  0.3321169E-002  0.1250059E+03  0.7818608E-02  0.1235060E+00
          4   -1    0    0  501    0  0.00000000000E+00  0.00000000000E+00  0.81470776457E+00  0.15088567664E+01  0.12700000000E+01 0. -1.
         -4   -1    0    0    0  501 -0.00000000000E+00 -0.00000000000E+00 -0.33619120592E+04  0.33619122991E+04  0.12700000000E+01 0. -1.
         25    2    1    2    0    0  0.00000000000E+00  0.00000000000E+00 -0.33610973515E+04  0.33634211559E+04  0.12500586290E+03 0.  0.
    9000005    1    3    3    0    0 -0.42161723737E+02 -0.44587175134E+01 -0.29159244553E+04  0.29162328302E+04  0.10000000000E+01 0.  0.
    9000005    1    3    3    0    0  0.42161723737E+02  0.44587175134E+01 -0.44517289618E+03  0.44718832566E+03  0.10000000000E+01 0.  0.
<mgrwt>
<rscale>  0 0.12500586E+03</rscale>
<asrwt>0</asrwt>
<pdfrwt beam="1">  1        4 0.17875688E-03 0.12500586E+03</pdfrwt>
<pdfrwt beam="2">  1       -4 0.51726286E+00 0.12500586E+03</pdfrwt>
<totfact> 0.80529194E+01</totfact>
</mgrwt>
</event>
<event>
 5    1  0.3321169E-002  0.1250007E+03  0.7818608E-02  0.1235068E+00
          4   -1    0    0  501    0  0.00000000000E+00  0.00000000000E+00  0.26202048380E+02  0.26232808452E+02  0.12700000000E+01 0.  1.
         -4   -1    0    0    0  501 -0.00000000000E+00 -0.00000000000E+00 -0.14896260635E+03  0.14896802003E+03  0.12700000000E+01 0.  1.
         25    2    1    2    0    0  0.00000000000E+00  0.00000000000E+00 -0.12276055797E+03  0.17520082848E+03  0.12500070282E+03 0.  0.
    9000005    1    3    3    0    0  0.49343546867E+02 -0.32040321196E+02 -0.90911340183E+02  0.10829238003E+03  0.10000000000E+01 0.  0.
    9000005    1    3    3    0    0 -0.49343546867E+02  0.32040321196E+02 -0.31849217791E+02  0.66908448447E+02  0.10000000000E+01 0.  0.
<mgrwt>
<rscale>  0 0.12500070E+03</rscale>
<asrwt>0</asrwt>
<pdfrwt beam="1">  1        4 0.40338670E-02 0.12500070E+03</pdfrwt>
<pdfrwt beam="2">  1       -4 0.22920106E-01 0.12500070E+03</pdfrwt>
<totfact> 0.94486583E+03</totfact>
</mgrwt>
</event>
<event>
 5    1  0.3321169E-002  0.1249988E+03  0.7818608E-02  0.1235071E+00
          4   -1    0    0  501    0  0.00000000000E+00  0.00000000000E+00  0.76048214293E+02  0.76058818010E+02  0.12700000000E+01 0.  1.
         -4   -1    0    0    0  501 -0.00000000000E+00 -0.00000000000E+00 -0.51342455307E+02  0.51358160179E+02  0.12700000000E+01 0.  1.
         25    2    1    2    0    0  0.00000000000E+00  0.00000000000E+00  0.24705758986E+02  0.12741697819E+03  0.12499884721E+03 0.  0.
    9000005    1    3    3    0    0  0.21244593738E+02  0.41496532916E+02 -0.30068087192E+02  0.55483194524E+02  0.10000000000E+01 0.  0.
    9000005    1    3    3    0    0 -0.21244593738E+02 -0.41496532916E+02  0.54773846178E+02  0.71933783665E+02  0.10000000000E+01 0.  0.
<mgrwt>
<rscale>  0 0.12499885E+03</rscale>
<asrwt>0</asrwt>
<pdfrwt beam="1">  1        4 0.11701749E-01 0.12499885E+03</pdfrwt>
<pdfrwt beam="2">  1       -4 0.79008630E-02 0.12499885E+03</pdfrwt>
<totfact> 0.10400370E+04</totfact>
</mgrwt>
</event>
<event>
 5    1  0.3321169E-002  0.1249989E+03  0.7818608E-02  0.1235071E+00
         -4   -1    0    0    0  501 -0.00000000000E+00  0.00000000000E+00  0.19281837269E+01  0.23088509014E+01  0.12700000000E+01 0.  1.
          4   -1    0    0  501    0  0.00000000000E+00 -0.00000000000E+00 -0.18434468604E+04  0.18434472979E+04  0.12700000000E+01 0.  1.
         25    2    1    2    0    0  0.00000000000E+00  0.00000000000E+00 -0.18415186767E+04  0.18457561488E+04  0.12499889674E+03 0.  0.
    9000005    1    3    3    0    0 -0.42361955204E+02  0.26654827012E+00 -0.15991322740E+04  0.15996936070E+04  0.10000000000E+01 0.  0.
    9000005    1    3    3    0    0  0.42361955204E+02 -0.26654827012E+00 -0.24238640263E+03  0.24606254180E+03  0.10000000000E+01 0.  0.
<mgrwt>
<rscale>  0 0.12499890E+03</rscale>
<asrwt>0</asrwt>
<pdfrwt beam="2">  1        4 0.28363524E+00 0.12499890E+03</pdfrwt>
<pdfrwt beam="1">  1       -4 0.32596087E-03 0.12499890E+03</pdfrwt>
<totfact> 0.12012055E+03</totfact>
</mgrwt>
</event>
<event>
 5    1  0.3321169E-002  0.1249825E+03  0.7818608E-02  0.1235097E+00
         -4   -1    0    0    0  501 -0.00000000000E+00  0.00000000000E+00  0.10216146563E+04  0.10216154457E+04  0.12700000000E+01 0. -1.
          4   -1    0    0  501    0  0.00000000000E+00 -0.00000000000E+00 -0.37162315231E+01  0.39272479847E+01  0.12700000000E+01 0. -1.
         25    2    1    2    0    0  0.00000000000E+00  0.00000000000E+00  0.10178984248E+04  0.10255426937E+04  0.12498245229E+03 0.  0.
    9000005    1    3    3    0    0  0.40956018522E+02  0.44735677498E+02  0.38573639847E+03  0.39047694606E+03  0.10000000000E+01 0.  0.
    9000005    1    3    3    0    0 -0.40956018522E+02 -0.44735677498E+02  0.63216202635E+03  0.63506574766E+03  0.10000000000E+01 0.  0.
<mgrwt>
<rscale>  0 0.12498245E+03</rscale>
<asrwt>0</asrwt>
<pdfrwt beam="2">  1        4 0.58802038E-03 0.12498245E+03</pdfrwt>
<pdfrwt beam="1">  1       -4 0.15718786E+00 0.12498245E+03</pdfrwt>
<totfact> 0.29782249E+03</totfact>
</mgrwt>
</event>
<event>
 5    1  0.3321169E-002  0.1250043E+03  0.7818608E-02  0.1235063E+00
          4   -1    0    0  501    0  0.00000000000E+00  0.00000000000E+00  0.63781981728E+01  0.65034077169E+01  0.12700000000E+01 0. -1.
         -4   -1    0    0    0  501 -0.00000000000E+00 -0.00000000000E+00 -0.60640085840E+03  0.60640218830E+03  0.12700000000E+01 0. -1.
         25    2    1    2    0    0  0.00000000000E+00  0.00000000000E+00 -0.60002266023E+03  0.61290559601E+03  0.12500430727E+03 0.  0.
    9000005    1    3    3    0    0  0.18391416638E+02 -0.59661137665E+02 -0.31372562459E+03  0.31987882562E+03  0.10000000000E+01 0.  0.
    9000005    1    3    3    0    0 -0.18391416638E+02  0.59661137665E+02 -0.28629703564E+03  0.29302677039E+03  0.10000000000E+01 0.  0.
<mgrwt>
<rscale>  0 0.12500431E+03</rscale>
<asrwt>0</asrwt>
<pdfrwt beam="1">  1        4 0.99099554E-03 0.12500431E+03</pdfrwt>
<pdfrwt beam="2">  1       -4 0.93302128E-01 0.12500431E+03</pdfrwt>
<totfact> 0.48058455E+03</totfact>
</mgrwt>
</event>
<event>
 5    1  0.3321169E-002  0.1250005E+03  0.7818608E-02  0.1235069E+00
          4   -1    0    0  501    0  0.00000000000E+00  0.00000000000E+00  0.85449542742E+03  0.85449637119E+03  0.12700000000E+01 0. -1.
         -4   -1    0    0    0  501 -0.00000000000E+00 -0.00000000000E+00 -0.44822754064E+01  0.46587222303E+01  0.12700000000E+01 0. -1.
         25    2    1    2    0    0  0.00000000000E+00  0.00000000000E+00  0.85001315201E+03  0.85915509342E+03  0.12500046383E+03 0.  0.
    9000005    1    3    3    0    0 -0.20317923294E+02  0.56581876730E+02  0.54224521647E+03  0.54556869555E+03  0.10000000000E+01 0.  0.
    9000005    1    3    3    0    0  0.20317923294E+02 -0.56581876730E+02  0.30776793554E+03  0.31358639787E+03  0.10000000000E+01 0.  0.
<mgrwt>
<rscale>  0 0.12500046E+03</rscale>
<asrwt>0</asrwt>
<pdfrwt beam="1">  1        4 0.13147449E+00 0.12500046E+03</pdfrwt>
<pdfrwt beam="2">  1       -4 0.70322621E-03 0.12500046E+03</pdfrwt>
<totfact> 0.35755225E+03</totfact>
</mgrwt>
</event>
<event>
 5    1  0.3321169E-002  0.1249988E+03  0.7818608E-02  0.1235071E+00
         -4   -1    0    0    0  501 -0.00000000000E+00  0.00000000000E+00  0.21229704628E+03  0.21230084493E+03  0.12700000000E+01 0. -1.
          4   -1    0    0  501    0  0.00000000000E+00 -0.00000000000E+00 -0.18373683006E+02  0.18417522287E+02  0.12700000000E+01 0. -1.
         25    2    1    2    0    0  0.00000000000E+00  0.00000000000E+00  0.19392336327E+03  0.23071836722E+03  0.12499877659E+03 0.  0.
    9000005    1    3    3    0    0 -0.51253403503E+02  0.35652981519E+02  0.92034119775E+02  0.11121747014E+03  0.10000000000E+01 0.  0.
    9000005    1    3    3    0    0  0.51253403503E+02 -0.35652981519E+02  0.10188924350E+03  0.11950089708E+03  0.10000000000E+01 0.  0.
<mgrwt>
<rscale>  0 0.12499878E+03</rscale>
<asrwt>0</asrwt>
<pdfrwt beam="2">  1        4 0.28303849E-02 0.12499878E+03</pdfrwt>
<pdfrwt beam="1">  1       -4 0.32664749E-01 0.12499878E+03</pdfrwt>
<totfact> 0.85201737E+03</totfact>
</mgrwt>
</event>
<event>
 5    1  0.3321169E-002  0.1250017E+03  0.7818608E-02  0.1235067E+00
         -4   -1    0    0    0  501 -0.00000000000E+00  0.00000000000E+00  0.10527061021E+03  0.10527827067E+03  0.12700000000E+01 0. -1.
          4   -1    0    0  501    0  0.00000000000E+00 -0.00000000000E+00 -0.37087873977E+02  0.37109611910E+02  0.12700000000E+01 0. -1.
         25    2    1    2    0    0  0.00000000000E+00  0.00000000000E+00  0.68182736236E+02  0.14238788258E+03  0.12500169432E+03 0.  0.
    9000005    1    3    3    0    0  0.31903930977E+02 -0.35944780771E+02  0.79590295301E+02  0.92981198006E+02  0.10000000000E+01 0.  0.
    9000005    1    3    3    0    0 -0.31903930977E+02  0.35944780771E+02 -0.11407559065E+02  0.49406684571E+02  0.10000000000E+01 0.  0.
<mgrwt>
<rscale>  0 0.12500169E+03</rscale>
<asrwt>0</asrwt>
<pdfrwt beam="2">  1        4 0.57080883E-02 0.12500169E+03</pdfrwt>
<pdfrwt beam="1">  1       -4 0.16197740E-01 0.12500169E+03</pdfrwt>
<totfact> 0.10083948E+04</totfact>
</mgrwt>
</event>
<event>
 5    1  0.3321169E-002  0.1249735E+03  0.7818608E-02  0.1235111E+00
         -4   -1    0    0    0  501 -0.00000000000E+00  0.00000000000E+00  0.75270165106E+01  0.76334053706E+01  0.12700000000E+01 0.  1.
          4   -1    0    0  501    0  0.00000000000E+00 -0.00000000000E+00 -0.51499601025E+03  0.51499757618E+03  0.12700000000E+01 0.  1.
         25    2    1    2    0    0  0.00000000000E+00  0.00000000000E+00 -0.50746899374E+03  0.52263098156E+03  0.12497345027E+03 0.  0.
    9000005    1    3    3    0    0 -0.26886375405E+02 -0.20641364434E+02 -0.47322231619E+03  0.47443577400E+03  0.10000000000E+01 0.  0.
    9000005    1    3    3    0    0  0.26886375405E+02  0.20641364434E+02 -0.34246677549E+02  0.48195207555E+02  0.10000000000E+01 0.  0.
<mgrwt>
<rscale>  0 0.12497345E+03</rscale>
<asrwt>0</asrwt>
<pdfrwt beam="2">  1        4 0.79238432E-01 0.12497345E+03</pdfrwt>
<pdfrwt beam="1">  1       -4 0.11663072E-02 0.12497345E+03</pdfrwt>
<totfact> 0.54181876E+03</totfact>
</mgrwt>
</event>
<event>
 5    1  0.3321169E-002  0.1249979E+03  0.7818608E-02  0.1235072E+00
         -4   -1    0    0    0  501 -0.00000000000E+00  0.00000000000E+00  0.20816511288E+03  0.20816898693E+03  0.12700000000E+01 0. -1.
          4   -1    0    0  501    0  0.00000000000E+00 -0.00000000000E+00 -0.18738992217E+02  0.18781978844E+02  0.12700000000E+01 0. -1.
         25    2    1    2    0    0  0.00000000000E+00  0.00000000000E+00  0.18942612067E+03  0.22695096578E+03  0.12499794269E+03 0.  0.
    9000005    1    3    3    0    0  0.35777382529E+02 -0.33200720799E+02  0.23861016850E+02  0.54338357422E+02  0.10000000000E+01 0.  0.
    9000005    1    3    3    0    0 -0.35777382529E+02  0.33200720799E+02  0.16556510382E+03  0.17261260836E+03  0.10000000000E+01 0.  0.
<mgrwt>
<rscale>  0 0.12499794E+03</rscale>
<asrwt>0</asrwt>
<pdfrwt beam="2">  1        4 0.28865264E-02 0.12499794E+03</pdfrwt>
<pdfrwt beam="1">  1       -4 0.32029008E-01 0.12499794E+03</pdfrwt>
<totfact> 0.85783925E+03</totfact>
</mgrwt>
</event>
<event>
 5    1  0.3321169E-002  0.1250012E+03  0.7818608E-02  0.1235067E+00
         -4   -1    0    0    0  501 -0.00000000000E+00  0.00000000000E+00  0.28278139645E+01  0.30999083563E+01  0.12700000000E+01 0.  1.
          4   -1    0    0  501    0  0.00000000000E+00 -0.00000000000E+00 -0.13177128668E+04  0.13177134788E+04  0.12700000000E+01 0.  1.
         25    2    1    2    0    0  0.00000000000E+00  0.00000000000E+00 -0.13148850529E+04  0.13208133872E+04  0.12500120616E+03 0.  0.
    9000005    1    3    3    0    0  0.41452922423E+02  0.13258617696E+02 -0.18357846462E+03  0.18866952163E+03  0.10000000000E+01 0.  0.
    9000005    1    3    3    0    0 -0.41452922423E+02 -0.13258617696E+02 -0.11313065882E+04  0.11321438656E+04  0.10000000000E+01 0.  0.
<mgrwt>
<rscale>  0 0.12500121E+03</rscale>
<asrwt>0</asrwt>
<pdfrwt beam="2">  1        4 0.20274557E+00 0.12500121E+03</pdfrwt>
<pdfrwt beam="1">  1       -4 0.45602677E-03 0.12500121E+03</pdfrwt>
<totfact> 0.21742053E+03</totfact>
</mgrwt>
</event>
<event>
 5    1  0.3321169E-002  0.1249975E+03  0.7818608E-02  0.1235073E+00
          4   -1    0    0  501    0  0.00000000000E+00  0.00000000000E+00  0.11011756471E+03  0.11012488800E+03  0.12700000000E+01 0. -1.
         -4   -1    0    0    0  501 -0.00000000000E+00 -0.00000000000E+00 -0.35452178910E+02  0.35474919161E+02  0.12700000000E+01 0. -1.
         25    2    1    2    0    0  0.00000000000E+00  0.00000000000E+00  0.74665385797E+02  0.14559980716E+03  0.12499753601E+03 0.  0.
    9000005    1    3    3    0    0  0.17995407222E+02 -0.12230379890E+02 -0.30903169433E+02  0.37807707605E+02  0.10000000000E+01 0.  0.
    9000005    1    3    3    0    0 -0.17995407222E+02  0.12230379890E+02  0.10556855523E+03  0.10779209956E+03  0.10000000000E+01 0.  0.
<mgrwt>
<rscale>  0 0.12499754E+03</rscale>
<asrwt>0</asrwt>
<pdfrwt beam="1">  1        4 0.16943476E-01 0.12499754E+03</pdfrwt>
<pdfrwt beam="2">  1       -4 0.54564940E-02 0.12499754E+03</pdfrwt>
<totfact> 0.10019372E+04</totfact>
</mgrwt>
</event>
<event>
 5    1  0.3321169E-002  0.1249997E+03  0.7818608E-02  0.1235070E+00
         -4   -1    0    0    0  501 -0.00000000000E+00  0.00000000000E+00  0.21295538856E+03  0.21295917547E+03  0.12700000000E+01 0. -1.
          4   -1    0    0  501    0  0.00000000000E+00 -0.00000000000E+00 -0.18317004947E+02  0.18360979555E+02  0.12700000000E+01 0. -1.
         25    2    1    2    0    0  0.00000000000E+00  0.00000000000E+00  0.19463838362E+03  0.23132015503E+03  0.12499965498E+03 0.  0.
    9000005    1    3    3    0    0 -0.31189880415E+02  0.20586476116E+02  0.19000683159E+03  0.19364970357E+03  0.10000000000E+01 0.  0.
    9000005    1    3    3    0    0  0.31189880415E+02 -0.20586476116E+02  0.46315520231E+01  0.37670451462E+02  0.10000000000E+01 0.  0.
<mgrwt>
<rscale>  0 0.12499965E+03</rscale>
<asrwt>0</asrwt>
<pdfrwt beam="2">  1        4 0.28216745E-02 0.12499965E+03</pdfrwt>
<pdfrwt beam="1">  1       -4 0.32766044E-01 0.12499965E+03</pdfrwt>
<totfact> 0.85107949E+03</totfact>
</mgrwt>
</event>
<event>
 5    1  0.3321169E-002  0.1250022E+03  0.7818608E-02  0.1235066E+00
          4   -1    0    0  501    0  0.00000000000E+00  0.00000000000E+00  0.89217855927E+02  0.89226894579E+02  0.12700000000E+01 0. -1.
         -4   -1    0    0    0  501 -0.00000000000E+00 -0.00000000000E+00 -0.43764349736E+02  0.43782772957E+02  0.12700000000E+01 0. -1.
         25    2    1    2    0    0  0.00000000000E+00  0.00000000000E+00  0.45453506192E+02  0.13300966754E+03  0.12500220171E+03 0.  0.
    9000005    1    3    3    0    0 -0.43281087917E+02 -0.44913099825E+02  0.26840753866E+02  0.67910714731E+02  0.10000000000E+01 0.  0.
    9000005    1    3    3    0    0  0.43281087917E+02  0.44913099825E+02  0.18612752325E+02  0.65098952805E+02  0.10000000000E+01 0.  0.
<mgrwt>
<rscale>  0 0.12500220E+03</rscale>
<asrwt>0</asrwt>
<pdfrwt beam="1">  1        4 0.13727936E-01 0.12500220E+03</pdfrwt>
<pdfrwt beam="2">  1       -4 0.67350894E-02 0.12500220E+03</pdfrwt>
<totfact> 0.10279684E+04</totfact>
</mgrwt>
</event>
<event>
 5    1  0.3321169E-002  0.1250018E+03  0.7818608E-02  0.1235066E+00
         -4   -1    0    0    0  501 -0.00000000000E+00  0.00000000000E+00  0.79482861873E+02  0.79493007438E+02  0.12700000000E+01 0. -1.
          4   -1    0    0  501    0  0.00000000000E+00 -0.00000000000E+00 -0.49125765443E+02  0.49142178731E+02  0.12700000000E+01 0. -1.
         25    2    1    2    0    0  0.00000000000E+00  0.00000000000E+00  0.30357096430E+02  0.12863518617E+03  0.12500183125E+03 0.  0.
    9000005    1    3    3    0    0 -0.92814237750E+01  0.58411266207E+02  0.35947943712E+02  0.69219040042E+02  0.10000000000E+01 0.  0.
    9000005    1    3    3    0    0  0.92814237750E+01 -0.58411266207E+02 -0.55908472815E+01  0.59416146127E+02  0.10000000000E+01 0.  0.
<mgrwt>
<rscale>  0 0.12500183E+03</rscale>
<asrwt>0</asrwt>
<pdfrwt beam="2">  1        4 0.75598531E-02 0.12500183E+03</pdfrwt>
<pdfrwt beam="1">  1       -4 0.12230175E-01 0.12500183E+03</pdfrwt>
<totfact> 0.10373364E+04</totfact>
</mgrwt>
</event>
<event>
 5    1  0.3321169E-002  0.1249990E+03  0.7818608E-02  0.1235071E+00
          4   -1    0    0  501    0  0.00000000000E+00  0.00000000000E+00  0.77010640215E+03  0.77010744934E+03  0.12700000000E+01 0. -1.
         -4   -1    0    0    0  501 -0.00000000000E+00 -0.00000000000E+00 -0.49917088088E+01  0.51507336207E+01  0.12700000000E+01 0. -1.
         25    2    1    2    0    0  0.00000000000E+00  0.00000000000E+00  0.76511469334E+03  0.77525818296E+03  0.12499902513E+03 0.  0.
    9000005    1    3    3    0    0 -0.21642373933E+02 -0.99555372513E+01  0.24244531261E+02  0.34004446290E+02  0.10000000000E+01 0.  0.
    9000005    1    3    3    0    0  0.21642373933E+02  0.99555372513E+01  0.74087016208E+03  0.74125373667E+03  0.10000000000E+01 0.  0.
<mgrwt>
<rscale>  0 0.12499903E+03</rscale>
<asrwt>0</asrwt>
<pdfrwt beam="1">  1        4 0.11849015E+00 0.12499903E+03</pdfrwt>
<pdfrwt beam="2">  1       -4 0.78026893E-03 0.12499903E+03</pdfrwt>
<totfact> 0.39394256E+03</totfact>
</mgrwt>
</event>
<event>
 5    1  0.3321169E-002  0.1249995E+03  0.7818608E-02  0.1235070E+00
         -4   -1    0    0    0  501 -0.00000000000E+00  0.00000000000E+00  0.16142616204E+01  0.20539572973E+01  0.12700000000E+01 0.  1.
          4   -1    0    0  501    0  0.00000000000E+00 -0.00000000000E+00 -0.21293233452E+04  0.21293237240E+04  0.12700000000E+01 0.  1.
         25    2    1    2    0    0  0.00000000000E+00  0.00000000000E+00 -0.21277090836E+04  0.21313776813E+04  0.12499950284E+03 0.  0.
    9000005    1    3    3    0    0 -0.27220746557E+02  0.25002953663E+02 -0.20465859759E+03  0.20797177285E+03  0.10000000000E+01 0.  0.
    9000005    1    3    3    0    0  0.27220746557E+02 -0.25002953663E+02 -0.19230504860E+04  0.19234059084E+04  0.10000000000E+01 0.  0.
<mgrwt>
<rscale>  0 0.12499950E+03</rscale>
<asrwt>0</asrwt>
<pdfrwt beam="2">  1        4 0.32762008E+00 0.12499950E+03</pdfrwt>
<pdfrwt beam="1">  1       -4 0.28220152E-03 0.12499950E+03</pdfrwt>
<totfact> 0.82426866E+02</totfact>
</mgrwt>
</event>
<event>
 5    1  0.3321169E-002  0.1249983E+03  0.7818608E-02  0.1235072E+00
          4   -1    0    0  501    0  0.00000000000E+00  0.00000000000E+00  0.50299288612E+02  0.50315319088E+02  0.12700000000E+01 0.  1.
         -4   -1    0    0    0  501 -0.00000000000E+00 -0.00000000000E+00 -0.77624442724E+02  0.77634831153E+02  0.12700000000E+01 0.  1.
         25    2    1    2    0    0  0.00000000000E+00  0.00000000000E+00 -0.27325154112E+02  0.12795015024E+03  0.12499830759E+03 0.  0.
    9000005    1    3    3    0    0 -0.58748873328E+01 -0.23395094667E+02 -0.72672005256E+02  0.76577183962E+02  0.10000000000E+01 0.  0.
    9000005    1    3    3    0    0  0.58748873328E+01  0.23395094667E+02  0.45346851144E+02  0.51372966279E+02  0.10000000000E+01 0.  0.
<mgrwt>
<rscale>  0 0.12499831E+03</rscale>
<asrwt>0</asrwt>
<pdfrwt beam="1">  1        4 0.77403843E-02 0.12499831E+03</pdfrwt>
<pdfrwt beam="2">  1       -4 0.11944254E-01 0.12499831E+03</pdfrwt>
<totfact> 0.10388961E+04</totfact>
</mgrwt>
</event>
<event>
 5    1  0.3321169E-002  0.1249993E+03  0.7818608E-02  0.1235070E+00
         -4   -1    0    0    0  501 -0.00000000000E+00  0.00000000000E+00  0.87768654160E+03  0.87768746043E+03  0.12700000000E+01 0. -1.
          4   -1    0    0  501    0  0.00000000000E+00 -0.00000000000E+00 -0.43590337050E+01  0.45402725515E+01  0.12700000000E+01 0. -1.
         25    2    1    2    0    0  0.00000000000E+00  0.00000000000E+00  0.87332750789E+03  0.88222773298E+03  0.12499934722E+03 0.  0.
    9000005    1    3    3    0    0  0.90942230019E+01  0.39090797809E+02  0.98592038570E+02  0.10645273803E+03  0.10000000000E+01 0.  0.
    9000005    1    3    3    0    0 -0.90942230019E+01 -0.39090797809E+02  0.77473546932E+03  0.77577499495E+03  0.10000000000E+01 0.  0.
<mgrwt>
<rscale>  0 0.12499935E+03</rscale>
<asrwt>0</asrwt>
<pdfrwt beam="2">  1        4 0.68463203E-03 0.12499935E+03</pdfrwt>
<pdfrwt beam="1">  1       -4 0.13504284E+00 0.12499935E+03</pdfrwt>
<totfact> 0.34844039E+03</totfact>
</mgrwt>
</event>
<event>
 5    1  0.3321169E-002  0.1250009E+03  0.7818608E-02  0.1235068E+00
          4   -1    0    0  501    0  0.00000000000E+00  0.00000000000E+00  0.18932246967E+02  0.18974795788E+02  0.12700000000E+01 0.  1.
         -4   -1    0    0    0  501 -0.00000000000E+00 -0.00000000000E+00 -0.20605483308E+03  0.20605874680E+03  0.12700000000E+01 0.  1.
         25    2    1    2    0    0  0.00000000000E+00  0.00000000000E+00 -0.18712258611E+03  0.22503354259E+03  0.12500093223E+03 0.  0.
    9000005    1    3    3    0    0 -0.55142870344E+01  0.33423054822E+02 -0.18810125284E+03  0.19112977077E+03  0.10000000000E+01 0.  0.
    9000005    1    3    3    0    0  0.55142870344E+01 -0.33423054822E+02  0.97866672883E+00  0.33903771821E+02  0.10000000000E+01 0.  0.
<mgrwt>
<rscale>  0 0.12500093E+03</rscale>
<asrwt>0</asrwt>
<pdfrwt beam="1">  1        4 0.29162276E-02 0.12500093E+03</pdfrwt>
<pdfrwt beam="2">  1       -4 0.31704316E-01 0.12500093E+03</pdfrwt>
<totfact> 0.86076280E+03</totfact>
</mgrwt>
</event>
<event>
 5    1  0.3321169E-002  0.1250045E+03  0.7818608E-02  0.1235062E+00
         -4   -1    0    0    0  501 -0.00000000000E+00  0.00000000000E+00  0.14912039830E+02  0.14966022581E+02  0.12700000000E+01 0.  1.
          4   -1    0    0  501    0  0.00000000000E+00 -0.00000000000E+00 -0.26144296192E+03  0.26144604652E+03  0.12700000000E+01 0.  1.
         25    2    1    2    0    0  0.00000000000E+00  0.00000000000E+00 -0.24653092209E+03  0.27641206910E+03  0.12500454550E+03 0.  0.
    9000005    1    3    3    0    0  0.11078443798E+02  0.13668250970E+02 -0.25586435349E+03  0.25647050589E+03  0.10000000000E+01 0.  0.
    9000005    1    3    3    0    0 -0.11078443798E+02 -0.13668250970E+02  0.93334314004E+01  0.19941563210E+02  0.10000000000E+01 0.  0.
<mgrwt>
<rscale>  0 0.12500455E+03</rscale>
<asrwt>0</asrwt>
<pdfrwt beam="2">  1        4 0.40226380E-01 0.12500455E+03</pdfrwt>
<pdfrwt beam="1">  1       -4 0.22985500E-02 0.12500455E+03</pdfrwt>
<totfact> 0.78648309E+03</totfact>
</mgrwt>
</event>
<event>
 5    1  0.3321169E-002  0.1249994E+03  0.7818608E-02  0.1235070E+00
         -4   -1    0    0    0  501 -0.00000000000E+00  0.00000000000E+00  0.11396744621E+03  0.11397452213E+03  0.12700000000E+01 0.  1.
          4   -1    0    0  501    0  0.00000000000E+00 -0.00000000000E+00 -0.34254904827E+02  0.34278439356E+02  0.12700000000E+01 0.  1.
         25    2    1    2    0    0  0.00000000000E+00  0.00000000000E+00  0.79712541383E+02  0.14825296149E+03  0.12499940535E+03 0.  0.
    9000005    1    3    3    0    0  0.53401882803E+02  0.32194277221E+02  0.44743555160E+02  0.76754272201E+02  0.10000000000E+01 0.  0.
    9000005    1    3    3    0    0 -0.53401882803E+02 -0.32194277221E+02  0.34968986223E+02  0.71498689289E+02  0.10000000000E+01 0.  0.
<mgrwt>
<rscale>  0 0.12499941E+03</rscale>
<asrwt>0</asrwt>
<pdfrwt beam="2">  1        4 0.52723400E-02 0.12499941E+03</pdfrwt>
<pdfrwt beam="1">  1       -4 0.17535808E-01 0.12499941E+03</pdfrwt>
<totfact> 0.99654424E+03</totfact>
</mgrwt>
</event>
<event>
 5    1  0.3321169E-002  0.1249992E+03  0.7818608E-02  0.1235071E+00
         -4   -1    0    0    0  501 -0.00000000000E+00  0.00000000000E+00  0.11066589404E+04  0.11066596692E+04  0.12700000000E+01 0.  1.
          4   -1    0    0  501    0  0.00000000000E+00 -0.00000000000E+00 -0.34147307036E+01  0.36432520882E+01  0.12700000000E+01 0.  1.
         25    2    1    2    0    0  0.00000000000E+00  0.00000000000E+00  0.11032442097E+04  0.11103029213E+04  0.12499916250E+03 0.  0.
    9000005    1    3    3    0    0  0.18676183591E+02 -0.51864725840E+02  0.81308233564E+03  0.81494946724E+03  0.10000000000E+01 0.  0.
    9000005    1    3    3    0    0 -0.18676183591E+02  0.51864725840E+02  0.29016187410E+03  0.29535345401E+03  0.10000000000E+01 0.  0.
<mgrwt>
<rscale>  0 0.12499916E+03</rscale>
<asrwt>0</asrwt>
<pdfrwt beam="2">  1        4 0.54297749E-03 0.12499916E+03</pdfrwt>
<pdfrwt beam="1">  1       -4 0.17027296E+00 0.12499916E+03</pdfrwt>
<totfact> 0.27184276E+03</totfact>
</mgrwt>
</event>
<event>
 5    1  0.3321169E-002  0.1250010E+03  0.7818608E-02  0.1235068E+00
         -4   -1    0    0    0  501 -0.00000000000E+00  0.00000000000E+00  0.11007588161E+03  0.11008320768E+03  0.12700000000E+01 0.  1.
          4   -1    0    0  501    0  0.00000000000E+00 -0.00000000000E+00 -0.35467551950E+02  0.35490282351E+02  0.12700000000E+01 0.  1.
         25    2    1    2    0    0  0.00000000000E+00  0.00000000000E+00  0.74608329661E+02  0.14557349003E+03  0.12500095257E+03 0.  0.
    9000005    1    3    3    0    0  0.38779276318E+02 -0.32274302887E+02  0.80249296371E+02  0.94796690168E+02  0.10000000000E+01 0.  0.
    9000005    1    3    3    0    0 -0.38779276318E+02  0.32274302887E+02 -0.56409667107E+01  0.50776799861E+02  0.10000000000E+01 0.  0.
<mgrwt>
<rscale>  0 0.12500095E+03</rscale>
<asrwt>0</asrwt>
<pdfrwt beam="2">  1        4 0.54588585E-02 0.12500095E+03</pdfrwt>
<pdfrwt beam="1">  1       -4 0.16937063E-01 0.12500095E+03</pdfrwt>
<totfact> 0.10019135E+04</totfact>
</mgrwt>
</event>
<event>
 5    1  0.3321169E-002  0.1250192E+03  0.7818608E-02  0.1235039E+00
         -4   -1    0    0    0  501 -0.00000000000E+00  0.00000000000E+00  0.73847636205E+02  0.73858555855E+02  0.12700000000E+01 0. -1.
          4   -1    0    0  501    0  0.00000000000E+00 -0.00000000000E+00 -0.52889831512E+02  0.52905077047E+02  0.12700000000E+01 0. -1.
         25    2    1    2    0    0  0.00000000000E+00  0.00000000000E+00  0.20957804693E+02  0.12676363290E+03  0.12501915473E+03 0.  0.
    9000005    1    3    3    0    0 -0.30335963394E+02  0.50125052883E+02 -0.11588412168E+02  0.59733431997E+02  0.10000000000E+01 0.  0.
    9000005    1    3    3    0    0  0.30335963394E+02 -0.50125052883E+02  0.32546216861E+02  0.67030200906E+02  0.10000000000E+01 0.  0.
<mgrwt>
<rscale>  0 0.12501915E+03</rscale>
<asrwt>0</asrwt>
<pdfrwt beam="2">  1        4 0.81389099E-02 0.12501915E+03</pdfrwt>
<pdfrwt beam="1">  1       -4 0.11363187E-01 0.12501915E+03</pdfrwt>
<totfact> 0.10409784E+04</totfact>
</mgrwt>
</event>
<event>
 5    1  0.3321169E-002  0.1250009E+03  0.7818608E-02  0.1235068E+00
         -4   -1    0    0    0  501 -0.00000000000E+00  0.00000000000E+00  0.15785252294E+02  0.15836258712E+02  0.12700000000E+01 0. -1.
          4   -1    0    0  501    0  0.00000000000E+00 -0.00000000000E+00 -0.24701380504E+03  0.24701706982E+03  0.12700000000E+01 0. -1.
         25    2    1    2    0    0  0.00000000000E+00  0.00000000000E+00 -0.23122855275E+03  0.26285332853E+03  0.12500091485E+03 0.  0.
    9000005    1    3    3    0    0 -0.35343774538E+02 -0.44590550675E+02 -0.61273485067E+02  0.83623797930E+02  0.10000000000E+01 0.  0.
    9000005    1    3    3    0    0  0.35343774538E+02  0.44590550675E+02 -0.16995506768E+03  0.17922953060E+03  0.10000000000E+01 0.  0.
<mgrwt>
<rscale>  0 0.12500091E+03</rscale>
<asrwt>0</asrwt>
<pdfrwt beam="2">  1        4 0.38006296E-01 0.12500091E+03</pdfrwt>
<pdfrwt beam="1">  1       -4 0.24326752E-02 0.12500091E+03</pdfrwt>
<totfact> 0.80505659E+03</totfact>
</mgrwt>
</event>
<event>
 5    1  0.3321169E-002  0.1249976E+03  0.7818608E-02  0.1235073E+00
         -4   -1    0    0    0  501 -0.00000000000E+00  0.00000000000E+00  0.68638099264E+03  0.68638216757E+03  0.12700000000E+01 0. -1.
          4   -1    0    0  501    0  0.00000000000E+00 -0.00000000000E+00 -0.56188092376E+01  0.57605483462E+01  0.12700000000E+01 0. -1.
         25    2    1    2    0    0  0.00000000000E+00  0.00000000000E+00  0.68076218340E+03  0.69214271592E+03  0.12499755535E+03 0.  0.
    9000005    1    3    3    0    0  0.32751925928E+02 -0.52940767366E+02  0.37054955727E+03  0.37574377958E+03  0.10000000000E+01 0.  0.
    9000005    1    3    3    0    0 -0.32751925928E+02  0.52940767366E+02  0.31021262613E+03  0.31639893634E+03  0.10000000000E+01 0.  0.
<mgrwt>
<rscale>  0 0.12499756E+03</rscale>
<asrwt>0</asrwt>
<pdfrwt beam="2">  1        4 0.87542553E-03 0.12499756E+03</pdfrwt>
<pdfrwt beam="1">  1       -4 0.10560808E+00 0.12499756E+03</pdfrwt>
<totfact> 0.43507047E+03</totfact>
</mgrwt>
</event>
<event>
 5    1  0.3321169E-002  0.1250007E+03  0.7818608E-02  0.1235068E+00
          4   -1    0    0  501    0  0.00000000000E+00  0.00000000000E+00  0.44640732851E+03  0.44640913504E+03  0.12700000000E+01 0.  1.
         -4   -1    0    0    0  501 -0.00000000000E+00 -0.00000000000E+00 -0.87026010667E+01  0.87947805729E+01  0.12700000000E+01 0.  1.
         25    2    1    2    0    0  0.00000000000E+00  0.00000000000E+00  0.43770472744E+03  0.45520391561E+03  0.12500070545E+03 0.  0.
    9000005    1    3    3    0    0  0.40851827957E+02  0.29593308071E+02  0.35318083505E+03  0.35676650344E+03  0.10000000000E+01 0.  0.
    9000005    1    3    3    0    0 -0.40851827957E+02 -0.29593308071E+02  0.84523892388E+02  0.98437412169E+02  0.10000000000E+01 0.  0.
<mgrwt>
<rscale>  0 0.12500071E+03</rscale>
<asrwt>0</asrwt>
<pdfrwt beam="1">  1        4 0.68685310E-01 0.12500071E+03</pdfrwt>
<pdfrwt beam="2">  1       -4 0.13460908E-02 0.12500071E+03</pdfrwt>
<totfact> 0.59514674E+03</totfact>
</mgrwt>
</event>
<event>
 5    1  0.3321169E-002  0.1249975E+03  0.7818608E-02  0.1235073E+00
         -4   -1    0    0    0  501 -0.00000000000E+00  0.00000000000E+00  0.59931439811E+03  0.59931574373E+03  0.12700000000E+01 0. -1.
          4   -1    0    0  501    0  0.00000000000E+00 -0.00000000000E+00 -0.64543733303E+01  0.65781331004E+01  0.12700000000E+01 0. -1.
         25    2    1    2    0    0  0.00000000000E+00  0.00000000000E+00  0.59286002478E+03  0.60589387683E+03  0.12499752397E+03 0.  0.
    9000005    1    3    3    0    0 -0.23749449953E+02  0.13187076430E+02  0.23638943387E+02  0.36024089195E+02  0.10000000000E+01 0.  0.
    9000005    1    3    3    0    0  0.23749449953E+02 -0.13187076430E+02  0.56922108139E+03  0.56986978764E+03  0.10000000000E+01 0.  0.
<mgrwt>
<rscale>  0 0.12499752E+03</rscale>
<asrwt>0</asrwt>
<pdfrwt beam="2">  1        4 0.10026038E-02 0.12499752E+03</pdfrwt>
<pdfrwt beam="1">  1       -4 0.92211855E-01 0.12499752E+03</pdfrwt>
<totfact> 0.48500299E+03</totfact>
</mgrwt>
</event>
<event>
 5    1  0.3321169E-002  0.1249936E+03  0.7818608E-02  0.1235079E+00
          4   -1    0    0  501    0  0.00000000000E+00  0.00000000000E+00  0.10291080631E+03  0.10291864241E+03  0.12700000000E+01 0.  1.
         -4   -1    0    0    0  501 -0.00000000000E+00 -0.00000000000E+00 -0.37933824594E+02  0.37955078031E+02  0.12700000000E+01 0.  1.
         25    2    1    2    0    0  0.00000000000E+00  0.00000000000E+00  0.64976981716E+02  0.14087372044E+03  0.12499358767E+03 0.  0.
    9000005    1    3    3    0    0  0.50253281399E+02 -0.20304162387E+02 -0.25624703027E+01  0.54269858630E+02  0.10000000000E+01 0.  0.
    9000005    1    3    3    0    0 -0.50253281399E+02  0.20304162387E+02  0.67539452019E+02  0.86603861812E+02  0.10000000000E+01 0.  0.
<mgrwt>
<rscale>  0 0.12499359E+03</rscale>
<asrwt>0</asrwt>
<pdfrwt beam="1">  1        4 0.15834669E-01 0.12499359E+03</pdfrwt>
<pdfrwt beam="2">  1       -4 0.58382106E-02 0.12499359E+03</pdfrwt>
<totfact> 0.10116971E+04</totfact>
</mgrwt>
</event>
<event>
 5    1  0.3321169E-002  0.1250086E+03  0.7818608E-02  0.1235056E+00
         -4   -1    0    0    0  501 -0.00000000000E+00  0.00000000000E+00  0.74008928743E+02  0.74019824599E+02  0.12700000000E+01 0.  1.
          4   -1    0    0  501    0  0.00000000000E+00 -0.00000000000E+00 -0.52765644127E+02  0.52780925533E+02  0.12700000000E+01 0.  1.
         25    2    1    2    0    0  0.00000000000E+00  0.00000000000E+00  0.21243284616E+02  0.12680075013E+03  0.12500861207E+03 0.  0.
    9000005    1    3    3    0    0  0.27308575561E+02  0.52736542556E+02 -0.91224317860E+01  0.60092595064E+02  0.10000000000E+01 0.  0.
    9000005    1    3    3    0    0 -0.27308575561E+02 -0.52736542556E+02  0.30365716402E+02  0.66708155067E+02  0.10000000000E+01 0.  0.
<mgrwt>
<rscale>  0 0.12500861E+03</rscale>
<asrwt>0</asrwt>
<pdfrwt beam="2">  1        4 0.81198050E-02 0.12500861E+03</pdfrwt>
<pdfrwt beam="1">  1       -4 0.11388003E-01 0.12500861E+03</pdfrwt>
<totfact> 0.10411453E+04</totfact>
</mgrwt>
</event>
<event>
 5    1  0.3321169E-002  0.1249980E+03  0.7818608E-02  0.1235072E+00
         -4   -1    0    0    0  501 -0.00000000000E+00  0.00000000000E+00  0.31041768541E+02  0.31067737191E+02  0.12700000000E+01 0.  1.
          4   -1    0    0  501    0  0.00000000000E+00 -0.00000000000E+00 -0.12575262367E+03  0.12575903650E+03  0.12700000000E+01 0.  1.
         25    2    1    2    0    0  0.00000000000E+00  0.00000000000E+00 -0.94710855133E+02  0.15682677369E+03  0.12499796345E+03 0.  0.
    9000005    1    3    3    0    0  0.48014437569E+02 -0.38296656732E+02 -0.32880696113E+02  0.69671804259E+02  0.10000000000E+01 0.  0.
    9000005    1    3    3    0    0 -0.48014437569E+02  0.38296656732E+02 -0.61830159020E+02  0.87154969430E+02  0.10000000000E+01 0.  0.
<mgrwt>
<rscale>  0 0.12499796E+03</rscale>
<asrwt>0</asrwt>
<pdfrwt beam="2">  1        4 0.19349048E-01 0.12499796E+03</pdfrwt>
<pdfrwt beam="1">  1       -4 0.47781477E-02 0.12499796E+03</pdfrwt>
<totfact> 0.97962555E+03</totfact>
</mgrwt>
</event>
<event>
 5    1  0.3321169E-002  0.1249968E+03  0.7818608E-02  0.1235074E+00
         -4   -1    0    0    0  501 -0.00000000000E+00  0.00000000000E+00  0.26483808447E+02  0.26514241642E+02  0.12700000000E+01 0.  1.
          4   -1    0    0  501    0  0.00000000000E+00 -0.00000000000E+00 -0.14737026535E+03  0.14737573752E+03  0.12700000000E+01 0.  1.
         25    2    1    2    0    0  0.00000000000E+00  0.00000000000E+00 -0.12088645690E+03  0.17388997916E+03  0.12499675752E+03 0.  0.
    9000005    1    3    3    0    0 -0.44327290612E+02 -0.43513213142E+02 -0.69953988423E+02  0.93556768367E+02  0.10000000000E+01 0.  0.
    9000005    1    3    3    0    0  0.44327290612E+02  0.43513213142E+02 -0.50932468478E+02  0.80333210793E+02  0.10000000000E+01 0.  0.
<mgrwt>
<rscale>  0 0.12499676E+03</rscale>
<asrwt>0</asrwt>
<pdfrwt beam="2">  1        4 0.22675110E-01 0.12499676E+03</pdfrwt>
<pdfrwt beam="1">  1       -4 0.40771941E-02 0.12499676E+03</pdfrwt>
<totfact> 0.94735424E+03</totfact>
</mgrwt>
</event>
<event>
 5    1  0.3321169E-002  0.1249978E+03  0.7818608E-02  0.1235073E+00
         -4   -1    0    0    0  501 -0.00000000000E+00  0.00000000000E+00  0.25728469551E+02  0.25759795135E+02  0.12700000000E+01 0. -1.
          4   -1    0    0  501    0  0.00000000000E+00 -0.00000000000E+00 -0.15169421373E+03  0.15169952993E+03  0.12700000000E+01 0. -1.
         25    2    1    2    0    0  0.00000000000E+00  0.00000000000E+00 -0.12596574418E+03  0.17745932506E+03  0.12499777336E+03 0.  0.
    9000005    1    3    3    0    0 -0.27467303141E+02 -0.88843022916E+01 -0.14166713395E+03  0.14458201967E+03  0.10000000000E+01 0.  0.
    9000005    1    3    3    0    0  0.27467303141E+02  0.88843022916E+01  0.15701389772E+02  0.32877305392E+02  0.10000000000E+01 0.  0.
<mgrwt>
<rscale>  0 0.12499777E+03</rscale>
<asrwt>0</asrwt>
<pdfrwt beam="2">  1        4 0.23340390E-01 0.12499777E+03</pdfrwt>
<pdfrwt beam="1">  1       -4 0.39610448E-02 0.12499777E+03</pdfrwt>
<totfact> 0.94081040E+03</totfact>
</mgrwt>
</event>
<event>
 5    1  0.3321169E-002  0.1249970E+03  0.7818608E-02  0.1235074E+00
          4   -1    0    0  501    0  0.00000000000E+00  0.00000000000E+00  0.25900956915E+02  0.25932074139E+02  0.12700000000E+01 0.  1.
         -4   -1    0    0    0  501 -0.00000000000E+00 -0.00000000000E+00 -0.15068321757E+03  0.15068856943E+03  0.12700000000E+01 0.  1.
         25    2    1    2    0    0  0.00000000000E+00  0.00000000000E+00 -0.12478226065E+03  0.17662064357E+03  0.12499695661E+03 0.  0.
    9000005    1    3    3    0    0  0.61621083888E+02  0.87641925073E+01 -0.70269884587E+02  0.93876651676E+02  0.10000000000E+01 0.  0.
    9000005    1    3    3    0    0 -0.61621083888E+02 -0.87641925073E+01 -0.54512376063E+02  0.82743991890E+02  0.10000000000E+01 0.  0.
<mgrwt>
<rscale>  0 0.12499696E+03</rscale>
<asrwt>0</asrwt>
<pdfrwt beam="1">  1        4 0.39875680E-02 0.12499696E+03</pdfrwt>
<pdfrwt beam="2">  1       -4 0.23184838E-01 0.12499696E+03</pdfrwt>
<totfact> 0.94235292E+03</totfact>
</mgrwt>
</event>
<event>
 5    1  0.3321169E-002  0.1249784E+03  0.7818608E-02  0.1235103E+00
          4   -1    0    0  501    0  0.00000000000E+00  0.00000000000E+00  0.34504316204E+02  0.34527680732E+02  0.12700000000E+01 0.  1.
         -4   -1    0    0    0  501 -0.00000000000E+00 -0.00000000000E+00 -0.11310612302E+03  0.11311325283E+03  0.12700000000E+01 0.  1.
         25    2    1    2    0    0  0.00000000000E+00  0.00000000000E+00 -0.78601806818E+02  0.14764093356E+03  0.12497840304E+03 0.  0.
    9000005    1    3    3    0    0 -0.26291402776E+02 -0.56391046536E+02 -0.32544314944E+02  0.70223360960E+02  0.10000000000E+01 0.  0.
    9000005    1    3    3    0    0  0.26291402776E+02  0.56391046536E+02 -0.46057491873E+02  0.77417572599E+02  0.10000000000E+01 0.  0.
<mgrwt>
<rscale>  0 0.12497840E+03</rscale>
<asrwt>0</asrwt>
<pdfrwt beam="1">  1        4 0.53107021E-02 0.12497840E+03</pdfrwt>
<pdfrwt beam="2">  1       -4 0.17403288E-01 0.12497840E+03</pdfrwt>
<totfact> 0.99824562E+03</totfact>
</mgrwt>
</event>
<event>
 5    1  0.3321169E-002  0.1249983E+03  0.7818608E-02  0.1235072E+00
         -4   -1    0    0    0  501 -0.00000000000E+00  0.00000000000E+00  0.71450347582E+02  0.71461633550E+02  0.12700000000E+01 0. -1.
          4   -1    0    0  501    0  0.00000000000E+00 -0.00000000000E+00 -0.54646396470E+02  0.54661152084E+02  0.12700000000E+01 0. -1.
         25    2    1    2    0    0  0.00000000000E+00  0.00000000000E+00  0.16803951112E+02  0.12612278563E+03  0.12499833712E+03 0.  0.
    9000005    1    3    3    0    0 -0.52045006925E+02  0.18424677635E+02  0.37939789879E+02  0.66996859238E+02  0.10000000000E+01 0.  0.
    9000005    1    3    3    0    0  0.52045006925E+02 -0.18424677635E+02 -0.21135838767E+02  0.59125926396E+02  0.10000000000E+01 0.  0.
<mgrwt>
<rscale>  0 0.12499834E+03</rscale>
<asrwt>0</asrwt>
<pdfrwt beam="2">  1        4 0.84091411E-02 0.12499834E+03</pdfrwt>
<pdfrwt beam="1">  1       -4 0.10994364E-01 0.12499834E+03</pdfrwt>
<totfact> 0.10428659E+04</totfact>
</mgrwt>
</event>
<event>
 5    1  0.3321169E-002  0.1249981E+03  0.7818608E-02  0.1235072E+00
         -4   -1    0    0    0  501 -0.00000000000E+00  0.00000000000E+00  0.17500831148E+02  0.17546851309E+02  0.12700000000E+01 0. -1.
          4   -1    0    0  501    0  0.00000000000E+00 -0.00000000000E+00 -0.22285608995E+03  0.22285970862E+03  0.12700000000E+01 0. -1.
         25    2    1    2    0    0  0.00000000000E+00  0.00000000000E+00 -0.20535525880E+03  0.24040655993E+03  0.12499812695E+03 0.  0.
    9000005    1    3    3    0    0 -0.35938132819E+02  0.33274691971E+02 -0.17732419846E+03  0.18396637159E+03  0.10000000000E+01 0.  0.
    9000005    1    3    3    0    0  0.35938132819E+02 -0.33274691971E+02 -0.28031060342E+02  0.56440188343E+02  0.10000000000E+01 0.  0.
<mgrwt>
<rscale>  0 0.12499813E+03</rscale>
<asrwt>0</asrwt>
<pdfrwt beam="2">  1        4 0.34289369E-01 0.12499813E+03</pdfrwt>
<pdfrwt beam="1">  1       -4 0.26962541E-02 0.12499813E+03</pdfrwt>
<totfact> 0.83740352E+03</totfact>
</mgrwt>
</event>
<event>
 5    1  0.3321169E-002  0.1250039E+03  0.7818608E-02  0.1235063E+00
         -4   -1    0    0    0  501 -0.00000000000E+00  0.00000000000E+00  0.44730187911E+02  0.44748213490E+02  0.12700000000E+01 0.  1.
          4   -1    0    0  501    0  0.00000000000E+00 -0.00000000000E+00 -0.87294356445E+02  0.87303594240E+02  0.12700000000E+01 0.  1.
         25    2    1    2    0    0  0.00000000000E+00  0.00000000000E+00 -0.42564168534E+02  0.13205180773E+03  0.12500388587E+03 0.  0.
    9000005    1    3    3    0    0 -0.39729978875E+02  0.22608922774E+02  0.23733387935E+02  0.51516097613E+02  0.10000000000E+01 0.  0.
    9000005    1    3    3    0    0  0.39729978875E+02 -0.22608922774E+02 -0.66297556469E+02  0.80535710117E+02  0.10000000000E+01 0.  0.
<mgrwt>
<rscale>  0 0.12500389E+03</rscale>
<asrwt>0</asrwt>
<pdfrwt beam="2">  1        4 0.13431998E-01 0.12500389E+03</pdfrwt>
<pdfrwt beam="1">  1       -4 0.68836645E-02 0.12500389E+03</pdfrwt>
<totfact> 0.10299690E+04</totfact>
</mgrwt>
</event>
<event>
 5    1  0.3321169E-002  0.1249998E+03  0.7818608E-02  0.1235070E+00
          4   -1    0    0  501    0  0.00000000000E+00  0.00000000000E+00  0.50218973747E+02  0.50235029852E+02  0.12700000000E+01 0.  1.
         -4   -1    0    0    0  501 -0.00000000000E+00 -0.00000000000E+00 -0.77750429415E+02  0.77760801013E+02  0.12700000000E+01 0.  1.
         25    2    1    2    0    0  0.00000000000E+00  0.00000000000E+00 -0.27531455668E+02  0.12799583086E+03  0.12499980667E+03 0.  0.
    9000005    1    3    3    0    0 -0.53895542073E+02 -0.30568275661E+02 -0.54413646038E+01  0.62207374008E+02  0.10000000000E+01 0.  0.
    9000005    1    3    3    0    0  0.53895542073E+02  0.30568275661E+02 -0.22090091064E+02  0.65788456856E+02  0.10000000000E+01 0.  0.
<mgrwt>
<rscale>  0 0.12499981E+03</rscale>
<asrwt>0</asrwt>
<pdfrwt beam="1">  1        4 0.77280289E-02 0.12499981E+03</pdfrwt>
<pdfrwt beam="2">  1       -4 0.11963637E-01 0.12499981E+03</pdfrwt>
<totfact> 0.10387623E+04</totfact>
</mgrwt>
</event>
<event>
 5    1  0.3321169E-002  0.1250010E+03  0.7818608E-02  0.1235068E+00
          4   -1    0    0  501    0  0.00000000000E+00  0.00000000000E+00  0.62739706194E+03  0.62739834733E+03  0.12700000000E+01 0. -1.
         -4   -1    0    0    0  501 -0.00000000000E+00 -0.00000000000E+00 -0.61601531431E+01  0.62897048219E+01  0.12700000000E+01 0. -1.
         25    2    1    2    0    0  0.00000000000E+00  0.00000000000E+00  0.62123690879E+03  0.63368805215E+03  0.12500100234E+03 0.  0.
    9000005    1    3    3    0    0  0.52156350467E+02 -0.19360466464E+02  0.45491574184E+03  0.45830606011E+03  0.10000000000E+01 0.  0.
    9000005    1    3    3    0    0 -0.52156350467E+02  0.19360466464E+02  0.16632116695E+03  0.17538199204E+03  0.10000000000E+01 0.  0.
<mgrwt>
<rscale>  0 0.12500100E+03</rscale>
<asrwt>0</asrwt>
<pdfrwt beam="1">  1        4 0.96532690E-01 0.12500100E+03</pdfrwt>
<pdfrwt beam="2">  1       -4 0.95778025E-03 0.12500100E+03</pdfrwt>
<totfact> 0.46806878E+03</totfact>
</mgrwt>
</event>
<event>
 5    1  0.3321169E-002  0.1250007E+03  0.7818608E-02  0.1235068E+00
         -4   -1    0    0    0  501 -0.00000000000E+00  0.00000000000E+00  0.23257317323E+02  0.23291966621E+02  0.12700000000E+01 0.  1.
          4   -1    0    0  501    0  0.00000000000E+00 -0.00000000000E+00 -0.16779764414E+03  0.16780245016E+03  0.12700000000E+01 0.  1.
         25    2    1    2    0    0  0.00000000000E+00  0.00000000000E+00 -0.14454032682E+03  0.19109441678E+03  0.12500068019E+03 0.  0.
    9000005    1    3    3    0    0 -0.30631340750E+02  0.35733082332E+02 -0.94209899223E+01  0.48009241404E+02  0.10000000000E+01 0.  0.
    9000005    1    3    3    0    0  0.30631340750E+02 -0.35733082332E+02 -0.13511933690E+03  0.14308517538E+03  0.10000000000E+01 0.  0.
<mgrwt>
<rscale>  0 0.12500068E+03</rscale>
<asrwt>0</asrwt>
<pdfrwt beam="2">  1        4 0.25818056E-01 0.12500068E+03</pdfrwt>
<pdfrwt beam="1">  1       -4 0.35810839E-02 0.12500068E+03</pdfrwt>
<totfact> 0.91655842E+03</totfact>
</mgrwt>
</event>
<event>
 5    1  0.3321169E-002  0.1250020E+03  0.7818608E-02  0.1235066E+00
         -4   -1    0    0    0  501 -0.00000000000E+00  0.00000000000E+00  0.18892782570E+02  0.18935420070E+02  0.12700000000E+01 0. -1.
          4   -1    0    0  501    0  0.00000000000E+00 -0.00000000000E+00 -0.20648777623E+03  0.20649168175E+03  0.12700000000E+01 0. -1.
         25    2    1    2    0    0  0.00000000000E+00  0.00000000000E+00 -0.18759499366E+03  0.22542710182E+03  0.12500198634E+03 0.  0.
    9000005    1    3    3    0    0 -0.53465835177E+02 -0.30406376865E+02 -0.73859585937E+02  0.96121702649E+02  0.10000000000E+01 0.  0.
    9000005    1    3    3    0    0  0.53465835177E+02  0.30406376865E+02 -0.11373540772E+03  0.12930539917E+03  0.10000000000E+01 0.  0.
<mgrwt>
<rscale>  0 0.12500199E+03</rscale>
<asrwt>0</asrwt>
<pdfrwt beam="2">  1        4 0.31770929E-01 0.12500199E+03</pdfrwt>
<pdfrwt beam="1">  1       -4 0.29101623E-02 0.12500199E+03</pdfrwt>
<totfact> 0.86012939E+03</totfact>
</mgrwt>
</event>
<event>
 5    1  0.3321169E-002  0.1250072E+03  0.7818608E-02  0.1235058E+00
          4   -1    0    0  501    0  0.00000000000E+00  0.00000000000E+00  0.19973150734E+02  0.20013486709E+02  0.12700000000E+01 0.  1.
         -4   -1    0    0    0  501 -0.00000000000E+00 -0.00000000000E+00 -0.19535780444E+03  0.19536193247E+03  0.12700000000E+01 0.  1.
         25    2    1    2    0    0  0.00000000000E+00  0.00000000000E+00 -0.17538465371E+03  0.21537541918E+03  0.12500717751E+03 0.  0.
    9000005    1    3    3    0    0  0.47546141911E+02 -0.38393508874E+02 -0.11022232270E+03  0.12603435069E+03  0.10000000000E+01 0.  0.
    9000005    1    3    3    0    0 -0.47546141911E+02  0.38393508874E+02 -0.65162331015E+02  0.89341068482E+02  0.10000000000E+01 0.  0.
<mgrwt>
<rscale>  0 0.12500718E+03</rscale>
<asrwt>0</asrwt>
<pdfrwt beam="1">  1        4 0.30762129E-02 0.12500718E+03</pdfrwt>
<pdfrwt beam="2">  1       -4 0.30058466E-01 0.12500718E+03</pdfrwt>
<totfact> 0.87591412E+03</totfact>
</mgrwt>
</event>
<event>
 5    1  0.3321169E-002  0.1249976E+03  0.7818608E-02  0.1235073E+00
          4   -1    0    0  501    0  0.00000000000E+00  0.00000000000E+00  0.37189830591E+03  0.37190047437E+03  0.12700000000E+01 0. -1.
         -4   -1    0    0    0  501 -0.00000000000E+00 -0.00000000000E+00 -0.10462548744E+02  0.10539346575E+02  0.12700000000E+01 0. -1.
         25    2    1    2    0    0  0.00000000000E+00  0.00000000000E+00  0.36143575716E+03  0.38243982095E+03  0.12499764033E+03 0.  0.
    9000005    1    3    3    0    0  0.47915360808E+02  0.22986128958E+02  0.28130577642E+03  0.28628339766E+03  0.10000000000E+01 0.  0.
    9000005    1    3    3    0    0 -0.47915360808E+02 -0.22986128958E+02  0.80129980742E+02  0.96156423288E+02  0.10000000000E+01 0.  0.
<mgrwt>
<rscale>  0 0.12499764E+03</rscale>
<asrwt>0</asrwt>
<pdfrwt beam="1">  1        4 0.57221195E-01 0.12499764E+03</pdfrwt>
<pdfrwt beam="2">  1       -4 0.16156973E-02 0.12499764E+03</pdfrwt>
<totfact> 0.66300728E+03</totfact>
</mgrwt>
</event>
<event>
 5    1  0.3321169E-002  0.1249996E+03  0.7818608E-02  0.1235070E+00
          4   -1    0    0  501    0  0.00000000000E+00  0.00000000000E+00  0.38109095769E+02  0.38130251512E+02  0.12700000000E+01 0. -1.
         -4   -1    0    0    0  501 -0.00000000000E+00 -0.00000000000E+00 -0.10244751010E+03  0.10245538164E+03  0.12700000000E+01 0. -1.
         25    2    1    2    0    0  0.00000000000E+00  0.00000000000E+00 -0.64338414333E+02  0.14058563315E+03  0.12499955475E+03 0.  0.
    9000005    1    3    3    0    0  0.47540314406E+02 -0.30697630969E+02 -0.23533598266E+01  0.56647721432E+02  0.10000000000E+01 0.  0.
    9000005    1    3    3    0    0 -0.47540314406E+02  0.30697630969E+02 -0.61985054506E+02  0.83937911715E+02  0.10000000000E+01 0.  0.
<mgrwt>
<rscale>  0 0.12499955E+03</rscale>
<asrwt>0</asrwt>
<pdfrwt beam="1">  1        4 0.58651707E-02 0.12499955E+03</pdfrwt>
<pdfrwt beam="2">  1       -4 0.15763388E-01 0.12499955E+03</pdfrwt>
<totfact> 0.10121564E+04</totfact>
</mgrwt>
</event>
<event>
 5    1  0.3321169E-002  0.1250006E+03  0.7818608E-02  0.1235068E+00
          4   -1    0    0  501    0  0.00000000000E+00  0.00000000000E+00  0.43815439148E+03  0.43815623204E+03  0.12700000000E+01 0. -1.
         -4   -1    0    0    0  501 -0.00000000000E+00 -0.00000000000E+00 -0.88682183987E+01  0.89586939655E+01  0.12700000000E+01 0. -1.
         25    2    1    2    0    0  0.00000000000E+00  0.00000000000E+00  0.42928617308E+03  0.44711492600E+03  0.12500055462E+03 0.  0.
    9000005    1    3    3    0    0  0.43597556909E+02 -0.17028216034E+02  0.66532604575E+02  0.81352901492E+02  0.10000000000E+01 0.  0.
    9000005    1    3    3    0    0 -0.43597556909E+02  0.17028216034E+02  0.36275356851E+03  0.36576202451E+03  0.10000000000E+01 0.  0.
<mgrwt>
<rscale>  0 0.12500055E+03</rscale>
<asrwt>0</asrwt>
<pdfrwt beam="1">  1        4 0.67415472E-01 0.12500055E+03</pdfrwt>
<pdfrwt beam="2">  1       -4 0.13714425E-02 0.12500055E+03</pdfrwt>
<totfact> 0.60213807E+03</totfact>
</mgrwt>
</event>
<event>
 5    1  0.3321169E-002  0.1250168E+03  0.7818608E-02  0.1235043E+00
          4   -1    0    0  501    0  0.00000000000E+00  0.00000000000E+00  0.13105893836E+02  0.13167283442E+02  0.12700000000E+01 0. -1.
         -4   -1    0    0    0  501 -0.00000000000E+00 -0.00000000000E+00 -0.29737374923E+03  0.29737646113E+03  0.12700000000E+01 0. -1.
         25    2    1    2    0    0  0.00000000000E+00  0.00000000000E+00 -0.28426785540E+03  0.31054374457E+03  0.12501681359E+03 0.  0.
    9000005    1    3    3    0    0  0.56785443034E+02  0.17400303940E+02 -0.93778885781E+02  0.11100827238E+03  0.10000000000E+01 0.  0.
    9000005    1    3    3    0    0 -0.56785443034E+02 -0.17400303940E+02 -0.19048896961E+03  0.19953547219E+03  0.10000000000E+01 0.  0.
<mgrwt>
<rscale>  0 0.12501681E+03</rscale>
<asrwt>0</asrwt>
<pdfrwt beam="1">  1        4 0.20212225E-02 0.12501681E+03</pdfrwt>
<pdfrwt beam="2">  1       -4 0.45754734E-01 0.12501681E+03</pdfrwt>
<totfact> 0.74267299E+03</totfact>
</mgrwt>
</event>
<event>
 5    1  0.3321169E-002  0.1250013E+03  0.7818608E-02  0.1235067E+00
          4   -1    0    0  501    0  0.00000000000E+00  0.00000000000E+00  0.18743436457E+03  0.18743866710E+03  0.12700000000E+01 0. -1.
         -4   -1    0    0    0  501 -0.00000000000E+00 -0.00000000000E+00 -0.20817160400E+02  0.20855864095E+02  0.12700000000E+01 0. -1.
         25    2    1    2    0    0  0.00000000000E+00  0.00000000000E+00  0.16661720417E+03  0.20829453119E+03  0.12500127598E+03 0.  0.
    9000005    1    3    3    0    0 -0.49166376668E+01  0.59426606929E+02  0.52150517258E+02  0.79223553236E+02  0.10000000000E+01 0.  0.
    9000005    1    3    3    0    0  0.49166376668E+01 -0.59426606929E+02  0.11446668691E+03  0.12907097795E+03  0.10000000000E+01 0.  0.
<mgrwt>
<rscale>  0 0.12500128E+03</rscale>
<asrwt>0</asrwt>
<pdfrwt beam="1">  1        4 0.28839364E-01 0.12500128E+03</pdfrwt>
<pdfrwt beam="2">  1       -4 0.32059482E-02 0.12500128E+03</pdfrwt>
<totfact> 0.88752633E+03</totfact>
</mgrwt>
</event>
<event>
 5    1  0.3321169E-002  0.1249995E+03  0.7818608E-02  0.1235070E+00
         -4   -1    0    0    0  501 -0.00000000000E+00  0.00000000000E+00  0.75660929614E+02  0.75671587601E+02  0.12700000000E+01 0.  1.
          4   -1    0    0  501    0  0.00000000000E+00 -0.00000000000E+00 -0.51605829449E+02  0.51621454194E+02  0.12700000000E+01 0.  1.
         25    2    1    2    0    0  0.00000000000E+00  0.00000000000E+00  0.24055100165E+02  0.12729304179E+03  0.12499948258E+03 0.  0.
    9000005    1    3    3    0    0 -0.19107831352E+02  0.45211703485E+00 -0.48561227916E+02  0.52196805319E+02  0.10000000000E+01 0.  0.
    9000005    1    3    3    0    0  0.19107831352E+02 -0.45211703485E+00  0.72616328081E+02  0.75096236476E+02  0.10000000000E+01 0.  0.
<mgrwt>
<rscale>  0 0.12499948E+03</rscale>
<asrwt>0</asrwt>
<pdfrwt beam="2">  1        4 0.79413802E-02 0.12499948E+03</pdfrwt>
<pdfrwt beam="1">  1       -4 0.11642165E-01 0.12499948E+03</pdfrwt>
<totfact> 0.10402907E+04</totfact>
</mgrwt>
</event>
<event>
 5    1  0.3321169E-002  0.1249976E+03  0.7818608E-02  0.1235073E+00
          4   -1    0    0  501    0  0.00000000000E+00  0.00000000000E+00  0.28918456754E+02  0.28946330355E+02  0.12700000000E+01 0. -1.
         -4   -1    0    0    0  501 -0.00000000000E+00 -0.00000000000E+00 -0.13497706312E+03  0.13498303771E+03  0.12700000000E+01 0. -1.
         25    2    1    2    0    0  0.00000000000E+00  0.00000000000E+00 -0.10605860636E+03  0.16392936806E+03  0.12499763889E+03 0.  0.
    9000005    1    3    3    0    0  0.46884513915E+02  0.37442204035E+02 -0.75933944093E+02  0.96783470456E+02  0.10000000000E+01 0.  0.
    9000005    1    3    3    0    0 -0.46884513915E+02 -0.37442204035E+02 -0.30124662272E+02  0.67145897604E+02  0.10000000000E+01 0.  0.
<mgrwt>
<rscale>  0 0.12499764E+03</rscale>
<asrwt>0</asrwt>
<pdfrwt beam="1">  1        4 0.44515971E-02 0.12499764E+03</pdfrwt>
<pdfrwt beam="2">  1       -4 0.20768305E-01 0.12499764E+03</pdfrwt>
<totfact> 0.96595662E+03</totfact>
</mgrwt>
</event>
<event>
 5    1  0.3321169E-002  0.1249857E+03  0.7818608E-02  0.1235092E+00
         -4   -1    0    0    0  501 -0.00000000000E+00  0.00000000000E+00  0.25697011889E+03  0.25697325718E+03  0.12700000000E+01 0. -1.
          4   -1    0    0  501    0  0.00000000000E+00 -0.00000000000E+00 -0.15167925920E+02  0.15221001173E+02  0.12700000000E+01 0. -1.
         25    2    1    2    0    0  0.00000000000E+00  0.00000000000E+00  0.24180219297E+03  0.27219425835E+03  0.12498565418E+03 0.  0.
    9000005    1    3    3    0    0  0.20996320496E+02 -0.36054214835E+02  0.19601565436E+02  0.46108277449E+02  0.10000000000E+01 0.  0.
    9000005    1    3    3    0    0 -0.20996320496E+02  0.36054214835E+02  0.22220062754E+03  0.22608598090E+03  0.10000000000E+01 0.  0.
<mgrwt>
<rscale>  0 0.12498565E+03</rscale>
<asrwt>0</asrwt>
<pdfrwt beam="2">  1        4 0.23378513E-02 0.12498565E+03</pdfrwt>
<pdfrwt beam="1">  1       -4 0.39538187E-01 0.12498565E+03</pdfrwt>
<totfact> 0.79249888E+03</totfact>
</mgrwt>
</event>
<event>
 5    1  0.3321169E-002  0.1250091E+03  0.7818608E-02  0.1235055E+00
          4   -1    0    0  501    0  0.00000000000E+00  0.00000000000E+00  0.27088001787E+03  0.27088299500E+03  0.12700000000E+01 0. -1.
         -4   -1    0    0    0  501 -0.00000000000E+00 -0.00000000000E+00 -0.14391672841E+02  0.14447600049E+02  0.12700000000E+01 0. -1.
         25    2    1    2    0    0  0.00000000000E+00  0.00000000000E+00  0.25648834502E+03  0.28533059505E+03  0.12500910901E+03 0.  0.
    9000005    1    3    3    0    0 -0.26124858643E+02  0.28418740824E+02  0.16061198975E+02  0.41822185280E+02  0.10000000000E+01 0.  0.
    9000005    1    3    3    0    0  0.26124858643E+02 -0.28418740824E+02  0.24042714605E+03  0.24350840977E+03  0.10000000000E+01 0.  0.
<mgrwt>
<rscale>  0 0.12500911E+03</rscale>
<asrwt>0</asrwt>
<pdfrwt beam="1">  1        4 0.41678377E-01 0.12500911E+03</pdfrwt>
<pdfrwt beam="2">  1       -4 0.22186348E-02 0.12500911E+03</pdfrwt>
<totfact> 0.77460897E+03</totfact>
</mgrwt>
</event>
<event>
 5    1  0.3321169E-002  0.1250044E+03  0.7818608E-02  0.1235062E+00
         -4   -1    0    0    0  501 -0.00000000000E+00  0.00000000000E+00  0.12259563249E+03  0.12260221044E+03  0.12700000000E+01 0. -1.
          4   -1    0    0  501    0  0.00000000000E+00 -0.00000000000E+00 -0.31845037589E+02  0.31870351725E+02  0.12700000000E+01 0. -1.
         25    2    1    2    0    0  0.00000000000E+00  0.00000000000E+00  0.90750594902E+02  0.15447256217E+03  0.12500440787E+03 0.  0.
    9000005    1    3    3    0    0 -0.15928456008E+02  0.54304880656E+02  0.12615687375E+02  0.57990441814E+02  0.10000000000E+01 0.  0.
    9000005    1    3    3    0    0  0.15928456008E+02 -0.54304880656E+02  0.78134907527E+02  0.96482120355E+02  0.10000000000E+01 0.  0.
<mgrwt>
<rscale>  0 0.12500441E+03</rscale>
<asrwt>0</asrwt>
<pdfrwt beam="2">  1        4 0.49016898E-02 0.12500441E+03</pdfrwt>
<pdfrwt beam="1">  1       -4 0.18863320E-01 0.12500441E+03</pdfrwt>
<totfact> 0.98409384E+03</totfact>
</mgrwt>
</event>
<event>
 5    1  0.3321169E-002  0.1249997E+03  0.7818608E-02  0.1235070E+00
          4   -1    0    0  501    0  0.00000000000E+00  0.00000000000E+00  0.57988886936E+02  0.58002792244E+02  0.12700000000E+01 0. -1.
         -4   -1    0    0    0  501 -0.00000000000E+00 -0.00000000000E+00 -0.67333761516E+02  0.67345737355E+02  0.12700000000E+01 0. -1.
         25    2    1    2    0    0  0.00000000000E+00  0.00000000000E+00 -0.93448745800E+01  0.12534852960E+03  0.12499970877E+03 0.  0.
    9000005    1    3    3    0    0 -0.57677517234E+02 -0.20603943976E+02 -0.17117278246E+02  0.63602041761E+02  0.10000000000E+01 0.  0.
    9000005    1    3    3    0    0  0.57677517234E+02  0.20603943976E+02  0.77724036663E+01  0.61746487838E+02  0.10000000000E+01 0.  0.
<mgrwt>
<rscale>  0 0.12499971E+03</rscale>
<asrwt>0</asrwt>
<pdfrwt beam="1">  1        4 0.89233581E-02 0.12499971E+03</pdfrwt>
<pdfrwt beam="2">  1       -4 0.10361031E-01 0.12499971E+03</pdfrwt>
<totfact> 0.10445366E+04</totfact>
</mgrwt>
</event>
<event>
 5    1  0.3321169E-002  0.1250010E+03  0.7818608E-02  0.1235068E+00
          4   -1    0    0  501    0  0.00000000000E+00  0.00000000000E+00  0.18583287540E+03  0.18583721500E+03  0.12700000000E+01 0. -1.
         -4   -1    0    0    0  501 -0.00000000000E+00 -0.00000000000E+00 -0.20996781885E+02  0.21035155086E+02  0.12700000000E+01 0. -1.
         25    2    1    2    0    0  0.00000000000E+00  0.00000000000E+00  0.16483609351E+03  0.20687237009E+03  0.12500095912E+03 0.  0.
    9000005    1    3    3    0    0  0.25751067490E+02 -0.12284812051E+02 -0.95968251927E+01  0.30118650995E+02  0.10000000000E+01 0.  0.
    9000005    1    3    3    0    0 -0.25751067490E+02  0.12284812051E+02  0.17443291871E+03  0.17675371909E+03  0.10000000000E+01 0.  0.
<mgrwt>
<rscale>  0 0.12500096E+03</rscale>
<asrwt>0</asrwt>
<pdfrwt beam="1">  1        4 0.28592957E-01 0.12500096E+03</pdfrwt>
<pdfrwt beam="2">  1       -4 0.32335599E-02 0.12500096E+03</pdfrwt>
<totfact> 0.88987317E+03</totfact>
</mgrwt>
</event>
<event>
 5    1  0.3321169E-002  0.1249484E+03  0.7818608E-02  0.1235150E+00
         -4   -1    0    0    0  501 -0.00000000000E+00  0.00000000000E+00  0.87943381873E+02  0.87952551499E+02  0.12700000000E+01 0. -1.
          4   -1    0    0  501    0  0.00000000000E+00 -0.00000000000E+00 -0.44360526280E+02  0.44378702007E+02  0.12700000000E+01 0. -1.
         25    2    1    2    0    0  0.00000000000E+00  0.00000000000E+00  0.43582855593E+02  0.13233125351E+03  0.12494837075E+03 0.  0.
    9000005    1    3    3    0    0 -0.23612103266E+02  0.45585103974E+02 -0.15899153330E+02  0.53752359963E+02  0.10000000000E+01 0.  0.
    9000005    1    3    3    0    0  0.23612103266E+02 -0.45585103974E+02  0.59482008923E+02  0.78578893543E+02  0.10000000000E+01 0.  0.
<mgrwt>
<rscale>  0 0.12494837E+03</rscale>
<asrwt>0</asrwt>
<pdfrwt beam="2">  1        4 0.68268000E-02 0.12494837E+03</pdfrwt>
<pdfrwt beam="1">  1       -4 0.13531854E-01 0.12494837E+03</pdfrwt>
<totfact> 0.10306632E+04</totfact>
</mgrwt>
</event>
<event>
 5    1  0.3321169E-002  0.1249740E+03  0.7818608E-02  0.1235110E+00
          4   -1    0    0  501    0  0.00000000000E+00  0.00000000000E+00  0.30974025627E+03  0.30974285990E+03  0.12700000000E+01 0.  1.
         -4   -1    0    0    0  501 -0.00000000000E+00 -0.00000000000E+00 -0.12571469726E+02  0.12635456108E+02  0.12700000000E+01 0.  1.
         25    2    1    2    0    0  0.00000000000E+00  0.00000000000E+00  0.29716878655E+03  0.32237831601E+03  0.12497396101E+03 0.  0.
    9000005    1    3    3    0    0  0.19610708706E+02 -0.56957102610E+02  0.10581250935E+03  0.12176197505E+03  0.10000000000E+01 0.  0.
    9000005    1    3    3    0    0 -0.19610708706E+02  0.56957102610E+02  0.19135627720E+03  0.20061634096E+03  0.10000000000E+01 0.  0.
<mgrwt>
<rscale>  0 0.12497396E+03</rscale>
<asrwt>0</asrwt>
<pdfrwt beam="1">  1        4 0.47657464E-01 0.12497396E+03</pdfrwt>
<pdfrwt beam="2">  1       -4 0.19391948E-02 0.12497396E+03</pdfrwt>
<totfact> 0.72916222E+03</totfact>
</mgrwt>
</event>
<event>
 5    1  0.3321169E-002  0.1250010E+03  0.7818608E-02  0.1235068E+00
         -4   -1    0    0    0  501 -0.00000000000E+00  0.00000000000E+00  0.53423096386E+02  0.53438189785E+02  0.12700000000E+01 0. -1.
          4   -1    0    0  501    0  0.00000000000E+00 -0.00000000000E+00 -0.73089315213E+02  0.73100348141E+02  0.12700000000E+01 0. -1.
         25    2    1    2    0    0  0.00000000000E+00  0.00000000000E+00 -0.19666218827E+02  0.12653853793E+03  0.12500096567E+03 0.  0.
    9000005    1    3    3    0    0 -0.27584839359E+02  0.55390694345E+02 -0.18673105436E+02  0.64643153149E+02  0.10000000000E+01 0.  0.
    9000005    1    3    3    0    0  0.27584839359E+02 -0.55390694345E+02 -0.99311339077E+00  0.61895384777E+02  0.10000000000E+01 0.  0.
<mgrwt>
<rscale>  0 0.12500097E+03</rscale>
<asrwt>0</asrwt>
<pdfrwt beam="2">  1        4 0.11246520E-01 0.12500097E+03</pdfrwt>
<pdfrwt beam="1">  1       -4 0.82209476E-02 0.12500097E+03</pdfrwt>
<totfact> 0.10418961E+04</totfact>
</mgrwt>
</event>
<event>
 5    1  0.3321169E-002  0.1249982E+03  0.7818608E-02  0.1235072E+00
         -4   -1    0    0    0  501 -0.00000000000E+00  0.00000000000E+00  0.13175339132E+03  0.13175951208E+03  0.12700000000E+01 0. -1.
          4   -1    0    0  501    0  0.00000000000E+00 -0.00000000000E+00 -0.29626907451E+02  0.29654115146E+02  0.12700000000E+01 0. -1.
         25    2    1    2    0    0  0.00000000000E+00  0.00000000000E+00  0.10212648387E+03  0.16141362723E+03  0.12499816138E+03 0.  0.
    9000005    1    3    3    0    0 -0.47876771627E+02  0.35100250031E+02  0.76266387957E+02  0.96652856894E+02  0.10000000000E+01 0.  0.
    9000005    1    3    3    0    0  0.47876771627E+02 -0.35100250031E+02  0.25860095910E+02  0.64760770333E+02  0.10000000000E+01 0.  0.
<mgrwt>
<rscale>  0 0.12499816E+03</rscale>
<asrwt>0</asrwt>
<pdfrwt beam="2">  1        4 0.45605496E-02 0.12499816E+03</pdfrwt>
<pdfrwt beam="1">  1       -4 0.20272316E-01 0.12499816E+03</pdfrwt>
<totfact> 0.97074950E+03</totfact>
</mgrwt>
</event>
<event>
 5    1  0.3321169E-002  0.1249990E+03  0.7818608E-02  0.1235071E+00
         -4   -1    0    0    0  501 -0.00000000000E+00  0.00000000000E+00  0.25483277765E+02  0.25514904382E+02  0.12700000000E+01 0.  1.
          4   -1    0    0  501    0  0.00000000000E+00 -0.00000000000E+00 -0.15315492411E+03  0.15316018961E+03  0.12700000000E+01 0.  1.
         25    2    1    2    0    0  0.00000000000E+00  0.00000000000E+00 -0.12767164635E+03  0.17867509399E+03  0.12499895972E+03 0.  0.
    9000005    1    3    3    0    0 -0.45656354585E+02  0.13036825455E+02 -0.57600793251E+01  0.47839732919E+02  0.10000000000E+01 0.  0.
    9000005    1    3    3    0    0  0.45656354585E+02 -0.13036825455E+02 -0.12191156702E+03  0.13083536107E+03  0.10000000000E+01 0.  0.
<mgrwt>
<rscale>  0 0.12499896E+03</rscale>
<asrwt>0</asrwt>
<pdfrwt beam="2">  1        4 0.23565133E-01 0.12499896E+03</pdfrwt>
<pdfrwt beam="1">  1       -4 0.39233422E-02 0.12499896E+03</pdfrwt>
<totfact> 0.93858225E+03</totfact>
</mgrwt>
</event>
<event>
 5    1  0.3321169E-002  0.1249790E+03  0.7818608E-02  0.1235102E+00
         -4   -1    0    0    0  501 -0.00000000000E+00  0.00000000000E+00  0.43895564524E+02  0.43913932697E+02  0.12700000000E+01 0.  1.
          4   -1    0    0  501    0  0.00000000000E+00 -0.00000000000E+00 -0.88918216838E+02  0.88927285945E+02  0.12700000000E+01 0.  1.
         25    2    1    2    0    0  0.00000000000E+00  0.00000000000E+00 -0.45022652314E+02  0.13284121864E+03  0.12497899883E+03 0.  0.
    9000005    1    3    3    0    0  0.48895826365E+02 -0.38560914948E+02 -0.17071608929E+02  0.64576975997E+02  0.10000000000E+01 0.  0.
    9000005    1    3    3    0    0 -0.48895826365E+02  0.38560914948E+02 -0.27951043385E+02  0.68264242645E+02  0.10000000000E+01 0.  0.
<mgrwt>
<rscale>  0 0.12497900E+03</rscale>
<asrwt>0</asrwt>
<pdfrwt beam="2">  1        4 0.13681836E-01 0.12497900E+03</pdfrwt>
<pdfrwt beam="1">  1       -4 0.67552743E-02 0.12497900E+03</pdfrwt>
<totfact> 0.10288649E+04</totfact>
</mgrwt>
</event>
<event>
 5    1  0.3321169E-002  0.1249976E+03  0.7818608E-02  0.1235073E+00
          4   -1    0    0  501    0  0.00000000000E+00  0.00000000000E+00  0.32718103935E+03  0.32718350419E+03  0.12700000000E+01 0. -1.
         -4   -1    0    0    0  501 -0.00000000000E+00 -0.00000000000E+00 -0.11902356034E+02  0.11969919764E+02  0.12700000000E+01 0. -1.
         25    2    1    2    0    0  0.00000000000E+00  0.00000000000E+00  0.31527868332E+03  0.33915342395E+03  0.12499758727E+03 0.  0.
    9000005    1    3    3    0    0 -0.25170330835E+02 -0.71455352208E+01  0.36623292777E+01  0.26438927430E+02  0.10000000000E+01 0.  0.
    9000005    1    3    3    0    0  0.25170330835E+02  0.71455352208E+01  0.31161635404E+03  0.31271449652E+03  0.10000000000E+01 0.  0.
<mgrwt>
<rscale>  0 0.12499759E+03</rscale>
<asrwt>0</asrwt>
<pdfrwt beam="1">  1        4 0.50340925E-01 0.12499759E+03</pdfrwt>
<pdfrwt beam="2">  1       -4 0.18365188E-02 0.12499759E+03</pdfrwt>
<totfact> 0.70938322E+03</totfact>
</mgrwt>
</event>
<event>
 5    1  0.3321169E-002  0.1249485E+03  0.7818608E-02  0.1235150E+00
         -4   -1    0    0    0  501 -0.00000000000E+00  0.00000000000E+00  0.13034073399E+02  0.13095799684E+02  0.12700000000E+01 0. -1.
          4   -1    0    0  501    0  0.00000000000E+00 -0.00000000000E+00 -0.29867778605E+03  0.29868048610E+03  0.12700000000E+01 0. -1.
         25    2    1    2    0    0  0.00000000000E+00  0.00000000000E+00 -0.28564371265E+03  0.31177628579E+03  0.12494847659E+03 0.  0.
    9000005    1    3    3    0    0 -0.10895626324E+02 -0.47778033318E+02 -0.23948057009E+03  0.24444508298E+03  0.10000000000E+01 0.  0.
    9000005    1    3    3    0    0  0.10895626324E+02  0.47778033318E+02 -0.46163142555E+02  0.67331202806E+02  0.10000000000E+01 0.  0.
<mgrwt>
<rscale>  0 0.12494848E+03</rscale>
<asrwt>0</asrwt>
<pdfrwt beam="2">  1        4 0.45955380E-01 0.12494848E+03</pdfrwt>
<pdfrwt beam="1">  1       -4 0.20101982E-02 0.12494848E+03</pdfrwt>
<totfact> 0.74229803E+03</totfact>
</mgrwt>
</event>
<event>
 5    1  0.3321169E-002  0.1249930E+03  0.7818608E-02  0.1235080E+00
          4   -1    0    0  501    0  0.00000000000E+00  0.00000000000E+00  0.12692177502E+04  0.12692183856E+04  0.12700000000E+01 0.  1.
         -4   -1    0    0    0  501 -0.00000000000E+00 -0.00000000000E+00 -0.29456439286E+01  0.32077590549E+01  0.12700000000E+01 0.  1.
         25    2    1    2    0    0  0.00000000000E+00  0.00000000000E+00  0.12662721063E+04  0.12724261446E+04  0.12499298563E+03 0.  0.
    9000005    1    3    3    0    0  0.15662860219E+02 -0.45372081487E+02  0.10404447716E+04  0.10415518584E+04  0.10000000000E+01 0.  0.
    9000005    1    3    3    0    0 -0.15662860219E+02  0.45372081487E+02  0.22582733466E+03  0.23087428624E+03  0.10000000000E+01 0.  0.
<mgrwt>
<rscale>  0 0.12499299E+03</rscale>
<asrwt>0</asrwt>
<pdfrwt beam="1">  1        4 0.19528414E+00 0.12499299E+03</pdfrwt>
<pdfrwt beam="2">  1       -4 0.47338839E-03 0.12499299E+03</pdfrwt>
<totfact> 0.22892365E+03</totfact>
</mgrwt>
</event>
<event>
 5    1  0.3321169E-002  0.1250017E+03  0.7818608E-02  0.1235067E+00
          4   -1    0    0  501    0  0.00000000000E+00  0.00000000000E+00  0.15347102605E+03  0.15347628069E+03  0.12700000000E+01 0. -1.
         -4   -1    0    0    0  501 -0.00000000000E+00 -0.00000000000E+00 -0.25431851523E+02  0.25463542014E+02  0.12700000000E+01 0. -1.
         25    2    1    2    0    0  0.00000000000E+00  0.00000000000E+00  0.12803917452E+03  0.17893982271E+03  0.12500171974E+03 0.  0.
    9000005    1    3    3    0    0  0.35045316074E+02 -0.28042845802E+02  0.17735431103E+01  0.44930177326E+02  0.10000000000E+01 0.  0.
    9000005    1    3    3    0    0 -0.35045316074E+02  0.28042845802E+02  0.12626563141E+03  0.13400964538E+03  0.10000000000E+01 0.  0.
<mgrwt>
<rscale>  0 0.12500172E+03</rscale>
<asrwt>0</asrwt>
<pdfrwt beam="1">  1        4 0.23613769E-01 0.12500172E+03</pdfrwt>
<pdfrwt beam="2">  1       -4 0.39154345E-02 0.12500172E+03</pdfrwt>
<totfact> 0.93804570E+03</totfact>
</mgrwt>
</event>
<event>
 5    1  0.3321169E-002  0.1249997E+03  0.7818608E-02  0.1235070E+00
         -4   -1    0    0    0  501 -0.00000000000E+00  0.00000000000E+00  0.24439336824E+02  0.24472312608E+02  0.12700000000E+01 0.  1.
          4   -1    0    0  501    0  0.00000000000E+00 -0.00000000000E+00 -0.15969063049E+03  0.15969568048E+03  0.12700000000E+01 0.  1.
         25    2    1    2    0    0  0.00000000000E+00  0.00000000000E+00 -0.13525129366E+03  0.18416799309E+03  0.12499974897E+03 0.  0.
    9000005    1    3    3    0    0  0.60956968807E+02 -0.24461879077E+01 -0.47667455119E+02  0.77426882664E+02  0.10000000000E+01 0.  0.
    9000005    1    3    3    0    0 -0.60956968807E+02  0.24461879077E+01 -0.87583838543E+02  0.10674111043E+03  0.10000000000E+01 0.  0.
<mgrwt>
<rscale>  0 0.12499975E+03</rscale>
<asrwt>0</asrwt>
<pdfrwt beam="2">  1        4 0.24570714E-01 0.12499975E+03</pdfrwt>
<pdfrwt beam="1">  1       -4 0.37628231E-02 0.12499975E+03</pdfrwt>
<totfact> 0.92872608E+03</totfact>
</mgrwt>
</event>
<event>
 5    1  0.3321169E-002  0.1250052E+03  0.7818608E-02  0.1235061E+00
         -4   -1    0    0    0  501 -0.00000000000E+00  0.00000000000E+00  0.23266222941E+02  0.23300858996E+02  0.12700000000E+01 0.  1.
          4   -1    0    0  501    0  0.00000000000E+00 -0.00000000000E+00 -0.16774560669E+03  0.16775041420E+03  0.12700000000E+01 0.  1.
         25    2    1    2    0    0  0.00000000000E+00  0.00000000000E+00 -0.14447938375E+03  0.19105127320E+03  0.12500518654E+03 0.  0.
    9000005    1    3    3    0    0 -0.29532343968E+01  0.49401210146E+02 -0.13914226276E+02  0.51417962330E+02  0.10000000000E+01 0.  0.
    9000005    1    3    3    0    0  0.29532343968E+01 -0.49401210146E+02 -0.13056515748E+03  0.13963331087E+03  0.10000000000E+01 0.  0.
<mgrwt>
<rscale>  0 0.12500519E+03</rscale>
<asrwt>0</asrwt>
<pdfrwt beam="2">  1        4 0.25810050E-01 0.12500519E+03</pdfrwt>
<pdfrwt beam="1">  1       -4 0.35824532E-02 0.12500519E+03</pdfrwt>
<totfact> 0.91654071E+03</totfact>
</mgrwt>
</event>
<event>
 5    1  0.3321169E-002  0.1250018E+03  0.7818608E-02  0.1235066E+00
          4   -1    0    0  501    0  0.00000000000E+00  0.00000000000E+00  0.50844708972E+01  0.52406816641E+01  0.12700000000E+01 0.  1.
         -4   -1    0    0    0  501 -0.00000000000E+00 -0.00000000000E+00 -0.75651232349E+03  0.75651338950E+03  0.12700000000E+01 0.  1.
         25    2    1    2    0    0  0.00000000000E+00  0.00000000000E+00 -0.75142785260E+03  0.76175407117E+03  0.12500178912E+03 0.  0.
    9000005    1    3    3    0    0 -0.17641441945E+01  0.23705463393E+02 -0.72791553243E+03  0.72830425205E+03  0.10000000000E+01 0.  0.
    9000005    1    3    3    0    0  0.17641441945E+01 -0.23705463393E+02 -0.23512320164E+02  0.33449819116E+02  0.10000000000E+01 0.  0.
<mgrwt>
<rscale>  0 0.12500179E+03</rscale>
<asrwt>0</asrwt>
<pdfrwt beam="1">  1        4 0.79432511E-03 0.12500179E+03</pdfrwt>
<pdfrwt beam="2">  1       -4 0.11639852E+00 0.12500179E+03</pdfrwt>
<totfact> 0.40016614E+03</totfact>
</mgrwt>
</event>
<event>
 5    1  0.3321169E-002  0.1250014E+03  0.7818608E-02  0.1235067E+00
         -4   -1    0    0    0  501 -0.00000000000E+00  0.00000000000E+00  0.37914838228E+02  0.37936102302E+02  0.12700000000E+01 0. -1.
          4   -1    0    0  501    0  0.00000000000E+00 -0.00000000000E+00 -0.10297516213E+03  0.10298299333E+03  0.12700000000E+01 0. -1.
         25    2    1    2    0    0  0.00000000000E+00  0.00000000000E+00 -0.65060323902E+02  0.14091909563E+03  0.12500138307E+03 0.  0.
    9000005    1    3    3    0    0  0.11840285928E+02 -0.57191285713E+02 -0.57594182271E+02  0.82031246266E+02  0.10000000000E+01 0.  0.
    9000005    1    3    3    0    0 -0.11840285928E+02  0.57191285713E+02 -0.74661416304E+01  0.58887849369E+02  0.10000000000E+01 0.  0.
<mgrwt>
<rscale>  0 0.12500138E+03</rscale>
<asrwt>0</asrwt>
<pdfrwt beam="2">  1        4 0.15844571E-01 0.12500138E+03</pdfrwt>
<pdfrwt beam="1">  1       -4 0.58352902E-02 0.12500138E+03</pdfrwt>
<totfact> 0.10114257E+04</totfact>
</mgrwt>
</event>
<event>
 4    1  0.3321169E-002  0.1249372E+03  0.7818608E-02  0.1235168E+00
         -4   -1    0    0    0  501 -0.00000000000E+00  0.00000000000E+00  0.18272323894E+02  0.18316405774E+02  0.12700000000E+01 0. -1.
          4   -1    0    0  501    0  0.00000000000E+00 -0.00000000000E+00 -0.21326147529E+03  0.21326525677E+03  0.12700000000E+01 0. -1.
    9000005    1    1    2    0    0 -0.55834562529E+02  0.10475609948E+02 -0.49369586922E+02  0.75270132785E+02  0.10000000000E+01 0.  0.
    9000005    1    1    2    0    0  0.55834562529E+02 -0.10475609948E+02 -0.14561956448E+03  0.15631152976E+03  0.10000000000E+01 0.  0.
<mgrwt>
<rscale>  0 0.12493717E+03</rscale>
<asrwt>0</asrwt>
<pdfrwt beam="2">  1        4 0.32813138E-01 0.12493717E+03</pdfrwt>
<pdfrwt beam="1">  1       -4 0.28148087E-02 0.12493717E+03</pdfrwt>
<totfact> 0.85186661E+03</totfact>
</mgrwt>
</event>
<event>
 5    1  0.3321169E-002  0.1250053E+03  0.7818608E-02  0.1235061E+00
         -4   -1    0    0    0  501 -0.00000000000E+00  0.00000000000E+00  0.27654533419E+03  0.27654825034E+03  0.12700000000E+01 0.  1.
          4   -1    0    0  501    0  0.00000000000E+00 -0.00000000000E+00 -0.14094833555E+02  0.14151933894E+02  0.12700000000E+01 0.  1.
         25    2    1    2    0    0  0.00000000000E+00  0.00000000000E+00  0.26245050064E+03  0.29070018423E+03  0.12500532719E+03 0.  0.
    9000005    1    3    3    0    0  0.39430800734E+02  0.34009789803E+02  0.50864787714E+02  0.72798904375E+02  0.10000000000E+01 0.  0.
    9000005    1    3    3    0    0 -0.39430800734E+02 -0.34009789803E+02  0.21158571293E+03  0.21790127986E+03  0.10000000000E+01 0.  0.
<mgrwt>
<rscale>  0 0.12500533E+03</rscale>
<asrwt>0</asrwt>
<pdfrwt beam="2">  1        4 0.21730527E-02 0.12500533E+03</pdfrwt>
<pdfrwt beam="1">  1       -4 0.42550050E-01 0.12500533E+03</pdfrwt>
<totfact> 0.76771313E+03</totfact>
</mgrwt>
</event>
<event>
 5    1  0.3321169E-002  0.1249995E+03  0.7818608E-02  0.1235070E+00
          4   -1    0    0  501    0  0.00000000000E+00  0.00000000000E+00  0.62354441993E+03  0.62354571326E+03  0.12700000000E+01 0. -1.
         -4   -1    0    0    0  501 -0.00000000000E+00 -0.00000000000E+00 -0.61988625720E+01  0.63276217638E+01  0.12700000000E+01 0. -1.
         25    2    1    2    0    0  0.00000000000E+00  0.00000000000E+00  0.61734555736E+03  0.62987333503E+03  0.12499952394E+03 0.  0.
    9000005    1    3    3    0    0 -0.37005119019E+02 -0.82508297270E+00  0.54956924015E+02  0.66267058881E+02  0.10000000000E+01 0.  0.
    9000005    1    3    3    0    0  0.37005119019E+02  0.82508297270E+00  0.56238863335E+03  0.56360627615E+03  0.10000000000E+01 0.  0.
<mgrwt>
<rscale>  0 0.12499952E+03</rscale>
<asrwt>0</asrwt>
<pdfrwt beam="1">  1        4 0.95939966E-01 0.12499952E+03</pdfrwt>
<pdfrwt beam="2">  1       -4 0.96367469E-03 0.12499952E+03</pdfrwt>
<totfact> 0.47035100E+03</totfact>
</mgrwt>
</event>
<event>
 5    1  0.3321169E-002  0.1250012E+03  0.7818608E-02  0.1235067E+00
          4   -1    0    0  501    0  0.00000000000E+00  0.00000000000E+00  0.61409232328E+02  0.61422363314E+02  0.12700000000E+01 0. -1.
         -4   -1    0    0    0  501 -0.00000000000E+00 -0.00000000000E+00 -0.63585127618E+02  0.63597809351E+02  0.12700000000E+01 0. -1.
         25    2    1    2    0    0  0.00000000000E+00  0.00000000000E+00 -0.21758952899E+01  0.12502017267E+03  0.12500123621E+03 0.  0.
    9000005    1    3    3    0    0 -0.76379559432E+01 -0.37177868766E+02  0.48566274807E+02  0.61645886688E+02  0.10000000000E+01 0.  0.
    9000005    1    3    3    0    0  0.76379559432E+01  0.37177868766E+02 -0.50742170097E+02  0.63374285977E+02  0.10000000000E+01 0.  0.
<mgrwt>
<rscale>  0 0.12500124E+03</rscale>
<asrwt>0</asrwt>
<pdfrwt beam="1">  1        4 0.94495598E-02 0.12500124E+03</pdfrwt>
<pdfrwt beam="2">  1       -4 0.97843129E-02 0.12500124E+03</pdfrwt>
<totfact> 0.10452132E+04</totfact>
</mgrwt>
</event>
<event>
 5    1  0.3321169E-002  0.1249996E+03  0.7818608E-02  0.1235070E+00
         -4   -1    0    0    0  501 -0.00000000000E+00  0.00000000000E+00  0.26121593379E+02  0.26152448082E+02  0.12700000000E+01 0.  1.
          4   -1    0    0  501    0  0.00000000000E+00 -0.00000000000E+00 -0.14941826725E+03  0.14942366442E+03  0.12700000000E+01 0.  1.
         25    2    1    2    0    0  0.00000000000E+00  0.00000000000E+00 -0.12329667388E+03  0.17557611250E+03  0.12499960597E+03 0.  0.
    9000005    1    3    3    0    0  0.28155692607E+02 -0.36075408617E+02 -0.12142362453E+03  0.12976468984E+03  0.10000000000E+01 0.  0.
    9000005    1    3    3    0    0 -0.28155692607E+02  0.36075408617E+02 -0.18730493404E+01  0.45811422668E+02  0.10000000000E+01 0.  0.
<mgrwt>
<rscale>  0 0.12499961E+03</rscale>
<asrwt>0</asrwt>
<pdfrwt beam="2">  1        4 0.22990214E-01 0.12499961E+03</pdfrwt>
<pdfrwt beam="1">  1       -4 0.40214954E-02 0.12499961E+03</pdfrwt>
<totfact> 0.94420267E+03</totfact>
</mgrwt>
</event>
<event>
 5    1  0.3321169E-002  0.1249990E+03  0.7818608E-02  0.1235071E+00
          4   -1    0    0  501    0  0.00000000000E+00  0.00000000000E+00  0.21105771670E+03  0.21106153766E+03  0.12700000000E+01 0. -1.
         -4   -1    0    0    0  501 -0.00000000000E+00 -0.00000000000E+00 -0.18481889123E+02  0.18525472344E+02  0.12700000000E+01 0. -1.
         25    2    1    2    0    0  0.00000000000E+00  0.00000000000E+00  0.19257582758E+03  0.22958701000E+03  0.12499898318E+03 0.  0.
    9000005    1    3    3    0    0  0.34265739777E+02 -0.40285120038E+02  0.15743010720E+03  0.16607910908E+03  0.10000000000E+01 0.  0.
    9000005    1    3    3    0    0 -0.34265739777E+02  0.40285120038E+02  0.35145720375E+02  0.63507900923E+02  0.10000000000E+01 0.  0.
<mgrwt>
<rscale>  0 0.12499898E+03</rscale>
<asrwt>0</asrwt>
<pdfrwt beam="1">  1        4 0.32474063E-01 0.12499898E+03</pdfrwt>
<pdfrwt beam="2">  1       -4 0.28470141E-02 0.12499898E+03</pdfrwt>
<totfact> 0.85374989E+03</totfact>
</mgrwt>
</event>
<event>
 5    1  0.3321169E-002  0.1249954E+03  0.7818608E-02  0.1235076E+00
         -4   -1    0    0    0  501 -0.00000000000E+00  0.00000000000E+00  0.26519359301E+04  0.26519362342E+04  0.12700000000E+01 0.  1.
          4   -1    0    0  501    0  0.00000000000E+00 -0.00000000000E+00 -0.11987444058E+01  0.17463928969E+01  0.12700000000E+01 0.  1.
         25    2    1    2    0    0  0.00000000000E+00  0.00000000000E+00  0.26507371857E+04  0.26536826271E+04  0.12499543082E+03 0.  0.
    9000005    1    3    3    0    0 -0.44149730562E+02 -0.28539850046E+02  0.20425744810E+04  0.20432511427E+04  0.10000000000E+01 0.  0.
    9000005    1    3    3    0    0  0.44149730562E+02  0.28539850046E+02  0.60816270473E+03  0.61043148442E+03  0.10000000000E+01 0.  0.
<mgrwt>
<rscale>  0 0.12499543E+03</rscale>
<asrwt>0</asrwt>
<pdfrwt beam="2">  1        4 0.22657362E-03 0.12499543E+03</pdfrwt>
<pdfrwt beam="1">  1       -4 0.40803013E+00 0.12499543E+03</pdfrwt>
<totfact> 0.35718455E+02</totfact>
</mgrwt>
</event>
<event>
 5    1  0.3321169E-002  0.1249552E+03  0.7818608E-02  0.1235139E+00
         -4   -1    0    0    0  501 -0.00000000000E+00  0.00000000000E+00  0.13528720745E+03  0.13529316834E+03  0.12700000000E+01 0.  1.
          4   -1    0    0  501    0  0.00000000000E+00 -0.00000000000E+00 -0.28832470194E+02  0.28860426842E+02  0.12700000000E+01 0.  1.
         25    2    1    2    0    0  0.00000000000E+00  0.00000000000E+00  0.10645473725E+03  0.16415359518E+03  0.12495515886E+03 0.  0.
    9000005    1    3    3    0    0 -0.36751667463E+02  0.12187444415E+02 -0.11173806508E+02  0.40312191884E+02  0.10000000000E+01 0.  0.
    9000005    1    3    3    0    0  0.36751667463E+02 -0.12187444415E+02  0.11762854376E+03  0.12384140329E+03  0.10000000000E+01 0.  0.
<mgrwt>
<rscale>  0 0.12495516E+03</rscale>
<asrwt>0</asrwt>
<pdfrwt beam="2">  1        4 0.44383737E-02 0.12495516E+03</pdfrwt>
<pdfrwt beam="1">  1       -4 0.20816026E-01 0.12495516E+03</pdfrwt>
<totfact> 0.96645259E+03</totfact>
</mgrwt>
</event>
<event>
 5    1  0.3321169E-002  0.1250012E+03  0.7818608E-02  0.1235067E+00
          4   -1    0    0  501    0  0.00000000000E+00  0.00000000000E+00  0.32606909824E+03  0.32607157148E+03  0.12700000000E+01 0.  1.
         -4   -1    0    0    0  501 -0.00000000000E+00 -0.00000000000E+00 -0.11943863714E+02  0.12011193963E+02  0.12700000000E+01 0.  1.
         25    2    1    2    0    0  0.00000000000E+00  0.00000000000E+00  0.31412523453E+03  0.33808276544E+03  0.12500117329E+03 0.  0.
    9000005    1    3    3    0    0  0.37970812341E+02  0.32539025158E+02  0.25843248092E+03  0.26322788215E+03  0.10000000000E+01 0.  0.
    9000005    1    3    3    0    0 -0.37970812341E+02 -0.32539025158E+02  0.55692753607E+02  0.74854883290E+02  0.10000000000E+01 0.  0.
<mgrwt>
<rscale>  0 0.12500117E+03</rscale>
<asrwt>0</asrwt>
<pdfrwt beam="1">  1        4 0.50169843E-01 0.12500117E+03</pdfrwt>
<pdfrwt beam="2">  1       -4 0.18428871E-02 0.12500117E+03</pdfrwt>
<totfact> 0.71053961E+03</totfact>
</mgrwt>
</event>
<event>
 5    1  0.3321169E-002  0.1250011E+03  0.7818608E-02  0.1235068E+00
          4   -1    0    0  501    0  0.00000000000E+00  0.00000000000E+00  0.81592897012E+01  0.82575364624E+01  0.12700000000E+01 0. -1.
         -4   -1    0    0    0  501 -0.00000000000E+00 -0.00000000000E+00 -0.47579323036E+03  0.47579492532E+03  0.12700000000E+01 0. -1.
         25    2    1    2    0    0  0.00000000000E+00  0.00000000000E+00 -0.46763394066E+03  0.48405246178E+03  0.12500113319E+03 0.  0.
    9000005    1    3    3    0    0  0.34141981186E+02  0.35168306150E+02 -0.83698439590E+02  0.96999553744E+02  0.10000000000E+01 0.  0.
    9000005    1    3    3    0    0 -0.34141981186E+02 -0.35168306150E+02 -0.38393550107E+03  0.38705290803E+03  0.10000000000E+01 0.  0.
<mgrwt>
<rscale>  0 0.12500113E+03</rscale>
<asrwt>0</asrwt>
<pdfrwt beam="1">  1        4 0.12629635E-02 0.12500113E+03</pdfrwt>
<pdfrwt beam="2">  1       -4 0.73206625E-01 0.12500113E+03</pdfrwt>
<totfact> 0.57121868E+03</totfact>
</mgrwt>
</event>
<event>
 5    1  0.3321169E-002  0.1249997E+03  0.7818608E-02  0.1235070E+00
          4   -1    0    0  501    0  0.00000000000E+00  0.00000000000E+00  0.12734432462E+04  0.12734438795E+04  0.12700000000E+01 0. -1.
         -4   -1    0    0    0  501 -0.00000000000E+00 -0.00000000000E+00 -0.29353411888E+01  0.31983007824E+01  0.12700000000E+01 0. -1.
         25    2    1    2    0    0  0.00000000000E+00  0.00000000000E+00  0.12705079050E+04  0.12766421803E+04  0.12499967894E+03 0.  0.
    9000005    1    3    3    0    0  0.51379699756E+00 -0.56525138749E+02  0.36313980524E+03  0.36751445339E+03  0.10000000000E+01 0.  0.
    9000005    1    3    3    0    0 -0.51379699756E+00  0.56525138749E+02  0.90736809977E+03  0.90912772688E+03  0.10000000000E+01 0.  0.
<mgrwt>
<rscale>  0 0.12499968E+03</rscale>
<asrwt>0</asrwt>
<pdfrwt beam="1">  1        4 0.19593395E+00 0.12499968E+03</pdfrwt>
<pdfrwt beam="2">  1       -4 0.47186895E-03 0.12499968E+03</pdfrwt>
<totfact> 0.22786869E+03</totfact>
</mgrwt>
</event>
<event>
 5    1  0.3321169E-002  0.1250009E+03  0.7818608E-02  0.1235068E+00
          4   -1    0    0  501    0  0.00000000000E+00  0.00000000000E+00  0.20015596266E+02  0.20055846875E+02  0.12700000000E+01 0. -1.
         -4   -1    0    0    0  501 -0.00000000000E+00 -0.00000000000E+00 -0.19492473288E+03  0.19492887008E+03  0.12700000000E+01 0. -1.
         25    2    1    2    0    0  0.00000000000E+00  0.00000000000E+00 -0.17490913662E+03  0.21498471695E+03  0.12500088980E+03 0.  0.
    9000005    1    3    3    0    0 -0.14136217806E+02 -0.60799941557E+02 -0.82341021611E+02  0.10333203466E+03  0.10000000000E+01 0.  0.
    9000005    1    3    3    0    0  0.14136217806E+02  0.60799941557E+02 -0.92568115007E+02  0.11165268229E+03  0.10000000000E+01 0.  0.
<mgrwt>
<rscale>  0 0.12500089E+03</rscale>
<asrwt>0</asrwt>
<pdfrwt beam="1">  1        4 0.30827371E-02 0.12500089E+03</pdfrwt>
<pdfrwt beam="2">  1       -4 0.29991834E-01 0.12500089E+03</pdfrwt>
<totfact> 0.87666484E+03</totfact>
</mgrwt>
</event>
<event>
 5    1  0.3321169E-002  0.1249942E+03  0.7818608E-02  0.1235078E+00
         -4   -1    0    0    0  501 -0.00000000000E+00  0.00000000000E+00  0.24615702033E+02  0.24648441869E+02  0.12700000000E+01 0. -1.
          4   -1    0    0  501    0  0.00000000000E+00 -0.00000000000E+00 -0.15853399094E+03  0.15853907778E+03  0.12700000000E+01 0. -1.
         25    2    1    2    0    0  0.00000000000E+00  0.00000000000E+00 -0.13391828891E+03  0.18318751965E+03  0.12499423687E+03 0.  0.
    9000005    1    3    3    0    0  0.93531179432E+01 -0.42541483433E+02 -0.13262624780E+03  0.13959935614E+03  0.10000000000E+01 0.  0.
    9000005    1    3    3    0    0 -0.93531179432E+01  0.42541483433E+02 -0.12920411027E+01  0.43588163509E+02  0.10000000000E+01 0.  0.
<mgrwt>
<rscale>  0 0.12499424E+03</rscale>
<asrwt>0</asrwt>
<pdfrwt beam="2">  1        4 0.24392754E-01 0.12499424E+03</pdfrwt>
<pdfrwt beam="1">  1       -4 0.37899409E-02 0.12499424E+03</pdfrwt>
<totfact> 0.93058387E+03</totfact>
</mgrwt>
</event>
<event>
 5    1  0.3321169E-002  0.1249987E+03  0.7818608E-02  0.1235071E+00
          4   -1    0    0  501    0  0.00000000000E+00  0.00000000000E+00  0.36196249115E+02  0.36218522195E+02  0.12700000000E+01 0.  1.
         -4   -1    0    0    0  501 -0.00000000000E+00 -0.00000000000E+00 -0.10785711843E+03  0.10786459519E+03  0.12700000000E+01 0.  1.
         25    2    1    2    0    0  0.00000000000E+00  0.00000000000E+00 -0.71660869317E+02  0.14408311739E+03  0.12499865809E+03 0.  0.
    9000005    1    3    3    0    0  0.16551231031E+02  0.35400417691E+02 -0.92040839400E+02  0.99998244678E+02  0.10000000000E+01 0.  0.
    9000005    1    3    3    0    0 -0.16551231031E+02 -0.35400417691E+02  0.20379970083E+02  0.44084872711E+02  0.10000000000E+01 0.  0.
<mgrwt>
<rscale>  0 0.12499866E+03</rscale>
<asrwt>0</asrwt>
<pdfrwt beam="1">  1        4 0.55709422E-02 0.12499866E+03</pdfrwt>
<pdfrwt beam="2">  1       -4 0.16595691E-01 0.12499866E+03</pdfrwt>
<totfact> 0.10049954E+04</totfact>
</mgrwt>
</event>
<event>
 5    1  0.3321169E-002  0.1250087E+03  0.7818608E-02  0.1235056E+00
          4   -1    0    0  501    0  0.00000000000E+00  0.00000000000E+00  0.35732130354E+03  0.35732356047E+03  0.12700000000E+01 0.  1.
         -4   -1    0    0    0  501 -0.00000000000E+00 -0.00000000000E+00 -0.10894375088E+02  0.10968149733E+02  0.12700000000E+01 0.  1.
         25    2    1    2    0    0  0.00000000000E+00  0.00000000000E+00  0.34642692845E+03  0.36829171020E+03  0.12500866788E+03 0.  0.
    9000005    1    3    3    0    0  0.60053903134E+02 -0.11950500124E+02  0.13635668777E+03  0.14947719570E+03  0.10000000000E+01 0.  0.
    9000005    1    3    3    0    0 -0.60053903134E+02  0.11950500124E+02  0.21007024068E+03  0.21881451450E+03  0.10000000000E+01 0.  0.
<mgrwt>
<rscale>  0 0.12500867E+03</rscale>
<asrwt>0</asrwt>
<pdfrwt beam="1">  1        4 0.54978345E-01 0.12500867E+03</pdfrwt>
<pdfrwt beam="2">  1       -4 0.16819066E-02 0.12500867E+03</pdfrwt>
<totfact> 0.67745057E+03</totfact>
</mgrwt>
</event>
<event>
 5    1  0.3321169E-002  0.1250062E+03  0.7818608E-02  0.1235060E+00
         -4   -1    0    0    0  501 -0.00000000000E+00  0.00000000000E+00  0.36209990568E+03  0.36210213282E+03  0.12700000000E+01 0. -1.
          4   -1    0    0  501    0  0.00000000000E+00 -0.00000000000E+00 -0.10749196021E+02  0.10823960232E+02  0.12700000000E+01 0. -1.
         25    2    1    2    0    0  0.00000000000E+00  0.00000000000E+00  0.35135070966E+03  0.37292609305E+03  0.12500619865E+03 0.  0.
    9000005    1    3    3    0    0  0.43803894668E+02  0.28505009593E+02  0.73443892198E+02  0.90146115064E+02  0.10000000000E+01 0.  0.
    9000005    1    3    3    0    0 -0.43803894668E+02 -0.28505009593E+02  0.27790681746E+03  0.28277997799E+03  0.10000000000E+01 0.  0.
<mgrwt>
<rscale>  0 0.12500620E+03</rscale>
<asrwt>0</asrwt>
<pdfrwt beam="2">  1        4 0.16596449E-02 0.12500620E+03</pdfrwt>
<pdfrwt beam="1">  1       -4 0.55713600E-01 0.12500620E+03</pdfrwt>
<totfact> 0.67264701E+03</totfact>
</mgrwt>
</event>
<event>
 5    1  0.3321169E-002  0.1250046E+03  0.7818608E-02  0.1235062E+00
         -4   -1    0    0    0  501 -0.00000000000E+00  0.00000000000E+00  0.92673541887E+03  0.92673628908E+03  0.12700000000E+01 0.  1.
          4   -1    0    0  501    0  0.00000000000E+00 -0.00000000000E+00 -0.41188261699E+01  0.43101773766E+01  0.12700000000E+01 0.  1.
         25    2    1    2    0    0  0.00000000000E+00  0.00000000000E+00  0.92261659270E+03  0.93104646645E+03  0.12500458218E+03 0.  0.
    9000005    1    3    3    0    0 -0.13044682105E+02 -0.52369053150E+02  0.69599491202E+03  0.69808495115E+03  0.10000000000E+01 0.  0.
    9000005    1    3    3    0    0  0.13044682105E+02  0.52369053150E+02  0.22662168068E+03  0.23296151531E+03  0.10000000000E+01 0.  0.
<mgrwt>
<rscale>  0 0.12500458E+03</rscale>
<asrwt>0</asrwt>
<pdfrwt beam="2">  1        4 0.64845241E-03 0.12500458E+03</pdfrwt>
<pdfrwt beam="1">  1       -4 0.14258934E+00 0.12500458E+03</pdfrwt>
<totfact> 0.32995329E+03</totfact>
</mgrwt>
</event>
<event>
 5    1  0.3321169E-002  0.1249993E+03  0.7818608E-02  0.1235070E+00
          4   -1    0    0  501    0  0.00000000000E+00  0.00000000000E+00  0.68373766237E+02  0.68385559948E+02  0.12700000000E+01 0.  1.
         -4   -1    0    0    0  501 -0.00000000000E+00 -0.00000000000E+00 -0.57106445733E+02  0.57120565861E+02  0.12700000000E+01 0.  1.
         25    2    1    2    0    0  0.00000000000E+00  0.00000000000E+00  0.11267320504E+02  0.12550612581E+03  0.12499934042E+03 0.  0.
    9000005    1    3    3    0    0 -0.16886660013E+02  0.27056646180E+02 -0.48324216087E+02  0.57908991092E+02  0.10000000000E+01 0.  0.
    9000005    1    3    3    0    0  0.16886660013E+02 -0.27056646180E+02  0.59591536590E+02  0.67597134718E+02  0.10000000000E+01 0.  0.
<mgrwt>
<rscale>  0 0.12499934E+03</rscale>
<asrwt>0</asrwt>
<pdfrwt beam="1">  1        4 0.10521034E-01 0.12499934E+03</pdfrwt>
<pdfrwt beam="2">  1       -4 0.87876004E-02 0.12499934E+03</pdfrwt>
<totfact> 0.10441974E+04</totfact>
</mgrwt>
</event>
<event>
 5    1  0.3321169E-002  0.1249786E+03  0.7818608E-02  0.1235103E+00
         -4   -1    0    0    0  501 -0.00000000000E+00  0.00000000000E+00  0.41496164003E+02  0.41515593781E+02  0.12700000000E+01 0. -1.
          4   -1    0    0  501    0  0.00000000000E+00 -0.00000000000E+00 -0.94057246232E+02  0.94065819875E+02  0.12700000000E+01 0. -1.
         25    2    1    2    0    0  0.00000000000E+00  0.00000000000E+00 -0.52561082229E+02  0.13558141366E+03  0.12497860762E+03 0.  0.
    9000005    1    3    3    0    0 -0.14842665742E+02  0.20989695825E+02 -0.88059516018E+02  0.91740669381E+02  0.10000000000E+01 0.  0.
    9000005    1    3    3    0    0  0.14842665742E+02 -0.20989695825E+02  0.35498433789E+02  0.43840744275E+02  0.10000000000E+01 0.  0.
<mgrwt>
<rscale>  0 0.12497861E+03</rscale>
<asrwt>0</asrwt>
<pdfrwt beam="2">  1        4 0.14472500E-01 0.12497861E+03</pdfrwt>
<pdfrwt beam="1">  1       -4 0.63861794E-02 0.12497861E+03</pdfrwt>
<totfact> 0.10230765E+04</totfact>
</mgrwt>
</event>
<event>
 5    1  0.3321169E-002  0.1249987E+03  0.7818608E-02  0.1235071E+00
         -4   -1    0    0    0  501 -0.00000000000E+00  0.00000000000E+00  0.70533897845E+02  0.70545330428E+02  0.12700000000E+01 0. -1.
          4   -1    0    0  501    0  0.00000000000E+00 -0.00000000000E+00 -0.55356856537E+02  0.55371422825E+02  0.12700000000E+01 0. -1.
         25    2    1    2    0    0  0.00000000000E+00  0.00000000000E+00  0.15177041308E+02  0.12591675325E+03  0.12499874466E+03 0.  0.
    9000005    1    3    3    0    0  0.49513369792E+02 -0.36093278320E+02 -0.47847253673E+01  0.61467000292E+02  0.10000000000E+01 0.  0.
    9000005    1    3    3    0    0 -0.49513369792E+02  0.36093278320E+02  0.19961766675E+02  0.64449752962E+02  0.10000000000E+01 0.  0.
<mgrwt>
<rscale>  0 0.12499874E+03</rscale>
<asrwt>0</asrwt>
<pdfrwt beam="2">  1        4 0.85184394E-02 0.12499874E+03</pdfrwt>
<pdfrwt beam="1">  1       -4 0.10853369E-01 0.12499874E+03</pdfrwt>
<totfact> 0.10433078E+04</totfact>
</mgrwt>
</event>
<event>
 5    1  0.3321169E-002  0.1249990E+03  0.7818608E-02  0.1235071E+00
          4   -1    0    0  501    0  0.00000000000E+00  0.00000000000E+00  0.57231722898E+02  0.57245812125E+02  0.12700000000E+01 0.  1.
         -4   -1    0    0    0  501 -0.00000000000E+00 -0.00000000000E+00 -0.68223789787E+02  0.68235609420E+02  0.12700000000E+01 0.  1.
         25    2    1    2    0    0  0.00000000000E+00  0.00000000000E+00 -0.10992066889E+02  0.12548142154E+03  0.12499904647E+03 0.  0.
    9000005    1    3    3    0    0  0.43242507839E+01  0.17711592650E+02 -0.65499524723E+02  0.67996966093E+02  0.10000000000E+01 0.  0.
    9000005    1    3    3    0    0 -0.43242507839E+01 -0.17711592650E+02  0.54507457834E+02  0.57484455451E+02  0.10000000000E+01 0.  0.
<mgrwt>
<rscale>  0 0.12499905E+03</rscale>
<asrwt>0</asrwt>
<pdfrwt beam="1">  1        4 0.88068734E-02 0.12499905E+03</pdfrwt>
<pdfrwt beam="2">  1       -4 0.10497961E-01 0.12499905E+03</pdfrwt>
<totfact> 0.10442589E+04</totfact>
</mgrwt>
</event>
<event>
 5    1  0.3321169E-002  0.1249939E+03  0.7818608E-02  0.1235079E+00
          4   -1    0    0  501    0  0.00000000000E+00  0.00000000000E+00  0.10364698570E+03  0.10365476615E+03  0.12700000000E+01 0. -1.
         -4   -1    0    0    0  501 -0.00000000000E+00 -0.00000000000E+00 -0.37664417933E+02  0.37685823306E+02  0.12700000000E+01 0. -1.
         25    2    1    2    0    0  0.00000000000E+00  0.00000000000E+00  0.65982567769E+02  0.14134058945E+03  0.12499385176E+03 0.  0.
    9000005    1    3    3    0    0 -0.29626733626E+02  0.45246766985E+02  0.68387643129E+02  0.87194512446E+02  0.10000000000E+01 0.  0.
    9000005    1    3    3    0    0  0.29626733626E+02 -0.45246766985E+02 -0.24050753597E+01  0.54146077009E+02  0.10000000000E+01 0.  0.
<mgrwt>
<rscale>  0 0.12499385E+03</rscale>
<asrwt>0</asrwt>
<pdfrwt beam="1">  1        4 0.15947935E-01 0.12499385E+03</pdfrwt>
<pdfrwt beam="2">  1       -4 0.57967710E-02 0.12499385E+03</pdfrwt>
<totfact> 0.10107276E+04</totfact>
</mgrwt>
</event>
<event>
 5    1  0.3321169E-002  0.1250131E+03  0.7818608E-02  0.1235049E+00
         -4   -1    0    0    0  501 -0.00000000000E+00  0.00000000000E+00  0.44071151480E+02  0.44089446501E+02  0.12700000000E+01 0. -1.
          4   -1    0    0  501    0  0.00000000000E+00 -0.00000000000E+00 -0.88612423513E+02  0.88621523914E+02  0.12700000000E+01 0. -1.
         25    2    1    2    0    0  0.00000000000E+00  0.00000000000E+00 -0.44541272033E+02  0.13271097041E+03  0.12501310633E+03 0.  0.
    9000005    1    3    3    0    0  0.30496979694E+02 -0.19399117262E+02  0.31855999185E+02  0.48189171035E+02  0.10000000000E+01 0.  0.
    9000005    1    3    3    0    0 -0.30496979694E+02  0.19399117262E+02 -0.76397271217E+02  0.84521799380E+02  0.10000000000E+01 0.  0.
<mgrwt>
<rscale>  0 0.12501311E+03</rscale>
<asrwt>0</asrwt>
<pdfrwt beam="2">  1        4 0.13634788E-01 0.12501311E+03</pdfrwt>
<pdfrwt beam="1">  1       -4 0.67822845E-02 0.12501311E+03</pdfrwt>
<totfact> 0.10283506E+04</totfact>
</mgrwt>
</event>
<event>
 5    1  0.3321169E-002  0.1250048E+03  0.7818608E-02  0.1235062E+00
          4   -1    0    0  501    0  0.00000000000E+00  0.00000000000E+00  0.47441620014E+01  0.49112089241E+01  0.12700000000E+01 0.  1.
         -4   -1    0    0    0  501 -0.00000000000E+00 -0.00000000000E+00 -0.80902913548E+03  0.80903013229E+03  0.12700000000E+01 0.  1.
         25    2    1    2    0    0  0.00000000000E+00  0.00000000000E+00 -0.80428497348E+03  0.81394134121E+03  0.12500475341E+03 0.  0.
    9000005    1    3    3    0    0 -0.27135784326E+02 -0.37842639026E+02 -0.67352562594E+03  0.67513419771E+03  0.10000000000E+01 0.  0.
    9000005    1    3    3    0    0  0.27135784326E+02  0.37842639026E+02 -0.13075934754E+03  0.13880714350E+03  0.10000000000E+01 0.  0.
<mgrwt>
<rscale>  0 0.12500475E+03</rscale>
<asrwt>0</asrwt>
<pdfrwt beam="1">  1        4 0.74279816E-03 0.12500475E+03</pdfrwt>
<pdfrwt beam="2">  1       -4 0.12447884E+00 0.12500475E+03</pdfrwt>
<totfact> 0.37645998E+03</totfact>
</mgrwt>
</event>
<event>
 5    1  0.3321169E-002  0.1250026E+03  0.7818608E-02  0.1235065E+00
          4   -1    0    0  501    0  0.00000000000E+00  0.00000000000E+00  0.92412912653E+02  0.92421638835E+02  0.12700000000E+01 0.  1.
         -4   -1    0    0    0  501 -0.00000000000E+00 -0.00000000000E+00 -0.42251042995E+02  0.42270125788E+02  0.12700000000E+01 0.  1.
         25    2    1    2    0    0  0.00000000000E+00  0.00000000000E+00  0.50161869658E+02  0.13469176462E+03  0.12500263313E+03 0.  0.
    9000005    1    3    3    0    0  0.23506042019E+02 -0.56422507877E+02  0.11057498714E+02  0.62123278120E+02  0.10000000000E+01 0.  0.
    9000005    1    3    3    0    0 -0.23506042019E+02  0.56422507877E+02  0.39104370944E+02  0.72568486504E+02  0.10000000000E+01 0.  0.
<mgrwt>
<rscale>  0 0.12500263E+03</rscale>
<asrwt>0</asrwt>
<pdfrwt beam="1">  1        4 0.14219510E-01 0.12500263E+03</pdfrwt>
<pdfrwt beam="2">  1       -4 0.65022997E-02 0.12500263E+03</pdfrwt>
<totfact> 0.10243963E+04</totfact>
</mgrwt>
</event>
<event>
 5    1  0.3321169E-002  0.1250049E+03  0.7818608E-02  0.1235062E+00
         -4   -1    0    0    0  501 -0.00000000000E+00  0.00000000000E+00  0.13492735959E+03  0.13493333638E+03  0.12700000000E+01 0. -1.
          4   -1    0    0  501    0  0.00000000000E+00 -0.00000000000E+00 -0.28932505411E+02  0.28960365491E+02  0.12700000000E+01 0. -1.
         25    2    1    2    0    0  0.00000000000E+00  0.00000000000E+00  0.10599485418E+03  0.16389370187E+03  0.12500494550E+03 0.  0.
    9000005    1    3    3    0    0  0.37709008406E+02 -0.38061931745E+02  0.10820019214E+02  0.54669486726E+02  0.10000000000E+01 0.  0.
    9000005    1    3    3    0    0 -0.37709008406E+02  0.38061931745E+02  0.95174834968E+02  0.10922421515E+03  0.10000000000E+01 0.  0.
<mgrwt>
<rscale>  0 0.12500495E+03</rscale>
<asrwt>0</asrwt>
<pdfrwt beam="2">  1        4 0.44537575E-02 0.12500495E+03</pdfrwt>
<pdfrwt beam="1">  1       -4 0.20760658E-01 0.12500495E+03</pdfrwt>
<totfact> 0.96586586E+03</totfact>
</mgrwt>
</event>
<event>
 5    1  0.3321169E-002  0.1249993E+03  0.7818608E-02  0.1235070E+00
          4   -1    0    0  501    0  0.00000000000E+00  0.00000000000E+00  0.90099638123E+03  0.90099727630E+03  0.12700000000E+01 0.  1.
         -4   -1    0    0    0  501 -0.00000000000E+00 -0.00000000000E+00 -0.42415077929E+01  0.44275600908E+01  0.12700000000E+01 0.  1.
         25    2    1    2    0    0  0.00000000000E+00  0.00000000000E+00  0.89675487344E+03  0.90542483639E+03  0.12499932524E+03 0.  0.
    9000005    1    3    3    0    0 -0.29449555665E+02  0.42649953986E+02  0.19548777499E+03  0.20224432026E+03  0.10000000000E+01 0.  0.
    9000005    1    3    3    0    0  0.29449555665E+02 -0.42649953986E+02  0.70126709845E+03  0.70318051613E+03  0.10000000000E+01 0.  0.
<mgrwt>
<rscale>  0 0.12499933E+03</rscale>
<asrwt>0</asrwt>
<pdfrwt beam="1">  1        4 0.13862931E+00 0.12499933E+03</pdfrwt>
<pdfrwt beam="2">  1       -4 0.66691972E-03 0.12499933E+03</pdfrwt>
<totfact> 0.33953518E+03</totfact>
</mgrwt>
</event>
<event>
 5    1  0.3321169E-002  0.1249965E+03  0.7818608E-02  0.1235075E+00
          4   -1    0    0  501    0  0.00000000000E+00  0.00000000000E+00  0.26854887606E+03  0.26855187903E+03  0.12700000000E+01 0. -1.
         -4   -1    0    0    0  501 -0.00000000000E+00 -0.00000000000E+00 -0.14514143628E+02  0.14569600724E+02  0.12700000000E+01 0. -1.
         25    2    1    2    0    0  0.00000000000E+00  0.00000000000E+00  0.25403473243E+03  0.28312147976E+03  0.12499650803E+03 0.  0.
    9000005    1    3    3    0    0 -0.46372515791E+02 -0.21700701320E+02  0.45863933456E+02  0.68744680162E+02  0.10000000000E+01 0.  0.
    9000005    1    3    3    0    0  0.46372515791E+02  0.21700701320E+02  0.20817079898E+03  0.21437679960E+03  0.10000000000E+01 0.  0.
<mgrwt>
<rscale>  0 0.12499651E+03</rscale>
<asrwt>0</asrwt>
<pdfrwt beam="1">  1        4 0.41319706E-01 0.12499651E+03</pdfrwt>
<pdfrwt beam="2">  1       -4 0.22374423E-02 0.12499651E+03</pdfrwt>
<totfact> 0.77772068E+03</totfact>
</mgrwt>
</event>
<event>
 5    1  0.3321169E-002  0.1250215E+03  0.7818608E-02  0.1235036E+00
          4   -1    0    0  501    0  0.00000000000E+00  0.00000000000E+00  0.37909037354E+02  0.37930304680E+02  0.12700000000E+01 0. -1.
         -4   -1    0    0    0  501 -0.00000000000E+00 -0.00000000000E+00 -0.10302406431E+03  0.10303189180E+03  0.12700000000E+01 0. -1.
         25    2    1    2    0    0  0.00000000000E+00  0.00000000000E+00 -0.65115026961E+02  0.14096219648E+03  0.12502149455E+03 0.  0.
    9000005    1    3    3    0    0 -0.70518003087E+01  0.57955558305E+02 -0.57719265850E+02  0.82104130690E+02  0.10000000000E+01 0.  0.
    9000005    1    3    3    0    0  0.70518003087E+01 -0.57955558305E+02 -0.73957611105E+01  0.58858065790E+02  0.10000000000E+01 0.  0.
<mgrwt>
<rscale>  0 0.12502149E+03</rscale>
<asrwt>0</asrwt>
<pdfrwt beam="1">  1        4 0.58343977E-02 0.12502149E+03</pdfrwt>
<pdfrwt beam="2">  1       -4 0.15852094E-01 0.12502149E+03</pdfrwt>
<totfact> 0.10108787E+04</totfact>
</mgrwt>
</event>
<event>
 5    1  0.3321169E-002  0.1250000E+03  0.7818608E-02  0.1235069E+00
         -4   -1    0    0    0  501 -0.00000000000E+00  0.00000000000E+00  0.29173030010E+01  0.31817537302E+01  0.12700000000E+01 0. -1.
          4   -1    0    0  501    0  0.00000000000E+00 -0.00000000000E+00 -0.12806714582E+04  0.12806720879E+04  0.12700000000E+01 0. -1.
         25    2    1    2    0    0  0.00000000000E+00  0.00000000000E+00 -0.12777541552E+04  0.12838538416E+04  0.12500002225E+03 0.  0.
    9000005    1    3    3    0    0 -0.36052248665E+01  0.57907457480E+02 -0.87732407882E+03  0.87924104235E+03  0.10000000000E+01 0.  0.
    9000005    1    3    3    0    0  0.36052248665E+01 -0.57907457480E+02 -0.40043007637E+03  0.40461279928E+03  0.10000000000E+01 0.  0.
<mgrwt>
<rscale>  0 0.12500002E+03</rscale>
<asrwt>0</asrwt>
<pdfrwt beam="2">  1        4 0.19704634E+00 0.12500002E+03</pdfrwt>
<pdfrwt beam="1">  1       -4 0.46920767E-03 0.12500002E+03</pdfrwt>
<totfact> 0.22612886E+03</totfact>
</mgrwt>
</event>
<event>
 5    1  0.3321169E-002  0.1250279E+03  0.7818608E-02  0.1235026E+00
          4   -1    0    0  501    0  0.00000000000E+00  0.00000000000E+00  0.19070370966E+03  0.19070793843E+03  0.12700000000E+01 0.  1.
         -4   -1    0    0    0  501 -0.00000000000E+00 -0.00000000000E+00 -0.20468340116E+02  0.20507702141E+02  0.12700000000E+01 0.  1.
         25    2    1    2    0    0  0.00000000000E+00  0.00000000000E+00  0.17023536955E+03  0.21121564057E+03  0.12502786000E+03 0.  0.
    9000005    1    3    3    0    0  0.39503614500E+02 -0.38480027516E+02  0.35411107016E+02  0.65545362737E+02  0.10000000000E+01 0.  0.
    9000005    1    3    3    0    0 -0.39503614500E+02  0.38480027516E+02  0.13482426253E+03  0.14567027783E+03  0.10000000000E+01 0.  0.
<mgrwt>
<rscale>  0 0.12502786E+03</rscale>
<asrwt>0</asrwt>
<pdfrwt beam="1">  1        4 0.29342385E-01 0.12502786E+03</pdfrwt>
<pdfrwt beam="2">  1       -4 0.31523286E-02 0.12502786E+03</pdfrwt>
<totfact> 0.88222779E+03</totfact>
</mgrwt>
</event>
<event>
 5    1  0.3321169E-002  0.1249976E+03  0.7818608E-02  0.1235073E+00
         -4   -1    0    0    0  501 -0.00000000000E+00  0.00000000000E+00  0.58196107725E+02  0.58209963531E+02  0.12700000000E+01 0. -1.
          4   -1    0    0  501    0  0.00000000000E+00 -0.00000000000E+00 -0.67091785096E+02  0.67103804120E+02  0.12700000000E+01 0. -1.
         25    2    1    2    0    0  0.00000000000E+00  0.00000000000E+00 -0.88956773711E+01  0.12531376765E+03  0.12499762913E+03 0.  0.
    9000005    1    3    3    0    0 -0.34840200862E+02  0.50909808475E+02 -0.14445704977E+02  0.63366604670E+02  0.10000000000E+01 0.  0.
    9000005    1    3    3    0    0  0.34840200862E+02 -0.50909808475E+02  0.55500276061E+01  0.61947162982E+02  0.10000000000E+01 0.  0.
<mgrwt>
<rscale>  0 0.12499763E+03</rscale>
<asrwt>0</asrwt>
<pdfrwt beam="2">  1        4 0.10323803E-01 0.12499763E+03</pdfrwt>
<pdfrwt beam="1">  1       -4 0.89552377E-02 0.12499763E+03</pdfrwt>
<totfact> 0.10446611E+04</totfact>
</mgrwt>
</event>
<event>
 5    1  0.3321169E-002  0.1249967E+03  0.7818608E-02  0.1235075E+00
         -4   -1    0    0    0  501 -0.00000000000E+00  0.00000000000E+00  0.14477737262E+02  0.14533333280E+02  0.12700000000E+01 0.  1.
          4   -1    0    0  501    0  0.00000000000E+00 -0.00000000000E+00 -0.26922225203E+03  0.26922524750E+03  0.12700000000E+01 0.  1.
         25    2    1    2    0    0  0.00000000000E+00  0.00000000000E+00 -0.25474451477E+03  0.28375858078E+03  0.12499665739E+03 0.  0.
    9000005    1    3    3    0    0  0.13880822497E+02  0.60464287736E+02 -0.11031849858E+03  0.12656926347E+03  0.10000000000E+01 0.  0.
    9000005    1    3    3    0    0 -0.13880822497E+02 -0.60464287736E+02 -0.14442601619E+03  0.15718931731E+03  0.10000000000E+01 0.  0.
<mgrwt>
<rscale>  0 0.12499666E+03</rscale>
<asrwt>0</asrwt>
<pdfrwt beam="2">  1        4 0.41423311E-01 0.12499666E+03</pdfrwt>
<pdfrwt beam="1">  1       -4 0.22318514E-02 0.12499666E+03</pdfrwt>
<totfact> 0.77688142E+03</totfact>
</mgrwt>
</event>
<event>
 5    1  0.3321169E-002  0.1250006E+03  0.7818608E-02  0.1235068E+00
          4   -1    0    0  501    0  0.00000000000E+00  0.00000000000E+00  0.40068516724E+02  0.40088638446E+02  0.12700000000E+01 0.  1.
         -4   -1    0    0    0  501 -0.00000000000E+00 -0.00000000000E+00 -0.97441413220E+02  0.97449689124E+02  0.12700000000E+01 0.  1.
         25    2    1    2    0    0  0.00000000000E+00  0.00000000000E+00 -0.57372896496E+02  0.13753832757E+03  0.12500056919E+03 0.  0.
    9000005    1    3    3    0    0  0.45346882490E+02  0.39274082543E+02 -0.94235554891E+01  0.60733818496E+02  0.10000000000E+01 0.  0.
    9000005    1    3    3    0    0 -0.45346882490E+02 -0.39274082543E+02 -0.47949341007E+02  0.76804509074E+02  0.10000000000E+01 0.  0.
<mgrwt>
<rscale>  0 0.12500057E+03</rscale>
<asrwt>0</asrwt>
<pdfrwt beam="1">  1        4 0.61665717E-02 0.12500057E+03</pdfrwt>
<pdfrwt beam="2">  1       -4 0.14993171E-01 0.12500057E+03</pdfrwt>
<totfact> 0.10184711E+04</totfact>
</mgrwt>
</event>
<event>
 5    1  0.3321169E-002  0.1250001E+03  0.7818608E-02  0.1235069E+00
         -4   -1    0    0    0  501 -0.00000000000E+00  0.00000000000E+00  0.37960158668E+03  0.37960371114E+03  0.12700000000E+01 0.  1.
          4   -1    0    0  501    0  0.00000000000E+00 -0.00000000000E+00 -0.10249067775E+02  0.10327453232E+02  0.12700000000E+01 0.  1.
         25    2    1    2    0    0  0.00000000000E+00  0.00000000000E+00  0.36935251890E+03  0.38993116437E+03  0.12500011890E+03 0.  0.
    9000005    1    3    3    0    0  0.28453131646E+02 -0.49351747540E+02  0.26482124997E+03  0.27088091502E+03  0.10000000000E+01 0.  0.
    9000005    1    3    3    0    0 -0.28453131646E+02  0.49351747540E+02  0.10453126893E+03  0.11905024935E+03  0.10000000000E+01 0.  0.
<mgrwt>
<rscale>  0 0.12500012E+03</rscale>
<asrwt>0</asrwt>
<pdfrwt beam="2">  1        4 0.15829728E-02 0.12500012E+03</pdfrwt>
<pdfrwt beam="1">  1       -4 0.58406435E-01 0.12500012E+03</pdfrwt>
<totfact> 0.65543823E+03</totfact>
</mgrwt>
</event>
<event>
 5    1  0.3321169E-002  0.1250179E+03  0.7818608E-02  0.1235041E+00
         -4   -1    0    0    0  501 -0.00000000000E+00  0.00000000000E+00  0.81269091546E+02  0.81279014147E+02  0.12700000000E+01 0. -1.
          4   -1    0    0  501    0  0.00000000000E+00 -0.00000000000E+00 -0.48058127962E+02  0.48074905754E+02  0.12700000000E+01 0. -1.
         25    2    1    2    0    0  0.00000000000E+00  0.00000000000E+00  0.33210963584E+02  0.12935391990E+03  0.12501787269E+03 0.  0.
    9000005    1    3    3    0    0 -0.32413883624E+02  0.90376948265E+01 -0.37890296337E+02  0.50685445010E+02  0.10000000000E+01 0.  0.
    9000005    1    3    3    0    0  0.32413883624E+02 -0.90376948265E+01  0.71101259921E+02  0.78668474891E+02  0.10000000000E+01 0.  0.
<mgrwt>
<rscale>  0 0.12501787E+03</rscale>
<asrwt>0</asrwt>
<pdfrwt beam="2">  1        4 0.73956121E-02 0.12501787E+03</pdfrwt>
<pdfrwt beam="1">  1       -4 0.12504991E-01 0.12501787E+03</pdfrwt>
<totfact> 0.10354170E+04</totfact>
</mgrwt>
</event>
<event>
 5    1  0.3321169E-002  0.1249986E+03  0.7818608E-02  0.1235071E+00
         -4   -1    0    0    0  501 -0.00000000000E+00  0.00000000000E+00  0.45872809874E+02  0.45890386637E+02  0.12700000000E+01 0.  1.
          4   -1    0    0  501    0  0.00000000000E+00 -0.00000000000E+00 -0.85113396923E+02  0.85122871402E+02  0.12700000000E+01 0.  1.
         25    2    1    2    0    0  0.00000000000E+00  0.00000000000E+00 -0.39240587049E+02  0.13101325804E+03  0.12499860043E+03 0.  0.
    9000005    1    3    3    0    0 -0.37872512626E+02  0.32208222000E+02 -0.59303225898E+02  0.77392308267E+02  0.10000000000E+01 0.  0.
    9000005    1    3    3    0    0  0.37872512626E+02 -0.32208222000E+02  0.20062638848E+02  0.53620949773E+02  0.10000000000E+01 0.  0.
<mgrwt>
<rscale>  0 0.12499860E+03</rscale>
<asrwt>0</asrwt>
<pdfrwt beam="2">  1        4 0.13096450E-01 0.12499860E+03</pdfrwt>
<pdfrwt beam="1">  1       -4 0.70594363E-02 0.12499860E+03</pdfrwt>
<totfact> 0.10323131E+04</totfact>
</mgrwt>
</event>
<event>
 5    1  0.3321169E-002  0.1250002E+03  0.7818608E-02  0.1235069E+00
          4   -1    0    0  501    0  0.00000000000E+00  0.00000000000E+00  0.52752697309E+02  0.52767982464E+02  0.12700000000E+01 0.  1.
         -4   -1    0    0    0  501 -0.00000000000E+00 -0.00000000000E+00 -0.74017074849E+02  0.74027969507E+02  0.12700000000E+01 0.  1.
         25    2    1    2    0    0  0.00000000000E+00  0.00000000000E+00 -0.21264377541E+02  0.12679595197E+03  0.12500015874E+03 0.  0.
    9000005    1    3    3    0    0  0.34073707442E+02  0.41848867678E+02  0.21331050422E+02  0.58037565222E+02  0.10000000000E+01 0.  0.
    9000005    1    3    3    0    0 -0.34073707442E+02 -0.41848867678E+02 -0.42595427963E+02  0.68758386748E+02  0.10000000000E+01 0.  0.
<mgrwt>
<rscale>  0 0.12500016E+03</rscale>
<asrwt>0</asrwt>
<pdfrwt beam="1">  1        4 0.81178134E-02 0.12500016E+03</pdfrwt>
<pdfrwt beam="2">  1       -4 0.11389256E-01 0.12500016E+03</pdfrwt>
<totfact> 0.10413545E+04</totfact>
</mgrwt>
</event>
<event>
 5    1  0.3321169E-002  0.1250084E+03  0.7818608E-02  0.1235056E+00
          4   -1    0    0  501    0  0.00000000000E+00  0.00000000000E+00  0.13173741367E+01  0.18298564468E+01  0.12700000000E+01 0.  1.
         -4   -1    0    0    0  501 -0.00000000000E+00 -0.00000000000E+00 -0.24821633502E+04  0.24821636751E+04  0.12700000000E+01 0.  1.
         25    2    1    2    0    0  0.00000000000E+00  0.00000000000E+00 -0.24808459761E+04  0.24839935316E+04  0.12500843094E+03 0.  0.
    9000005    1    3    3    0    0 -0.32328632040E+02  0.50784908746E+02 -0.15738287848E+04  0.15749800923E+04  0.10000000000E+01 0.  0.
    9000005    1    3    3    0    0  0.32328632040E+02 -0.50784908746E+02 -0.90701719131E+03  0.90901343925E+03  0.10000000000E+01 0.  0.
<mgrwt>
<rscale>  0 0.12500843E+03</rscale>
<asrwt>0</asrwt>
<pdfrwt beam="1">  1        4 0.24212164E-03 0.12500843E+03</pdfrwt>
<pdfrwt beam="2">  1       -4 0.38190760E+00 0.12500843E+03</pdfrwt>
<totfact> 0.47955963E+02</totfact>
</mgrwt>
</event>
<event>
 5    1  0.3321169E-002  0.1250060E+03  0.7818608E-02  0.1235060E+00
         -4   -1    0    0    0  501 -0.00000000000E+00  0.00000000000E+00  0.67496412026E+02  0.67508359011E+02  0.12700000000E+01 0. -1.
          4   -1    0    0  501    0  0.00000000000E+00 -0.00000000000E+00 -0.57854959851E+02  0.57868897340E+02  0.12700000000E+01 0. -1.
         25    2    1    2    0    0  0.00000000000E+00  0.00000000000E+00  0.96414521750E+01  0.12537725635E+03  0.12500599510E+03 0.  0.
    9000005    1    3    3    0    0 -0.77311693991E+01  0.10096390038E+02  0.66190002817E+02  0.67407896756E+02  0.10000000000E+01 0.  0.
    9000005    1    3    3    0    0  0.77311693991E+01 -0.10096390038E+02 -0.56548550642E+02  0.57969359595E+02  0.10000000000E+01 0.  0.
<mgrwt>
<rscale>  0 0.12500600E+03</rscale>
<asrwt>0</asrwt>
<pdfrwt beam="2">  1        4 0.89027542E-02 0.12500600E+03</pdfrwt>
<pdfrwt beam="1">  1       -4 0.10386054E-01 0.12500600E+03</pdfrwt>
<totfact> 0.10443259E+04</totfact>
</mgrwt>
</event>
<event>
 5    1  0.3321169E-002  0.1249992E+03  0.7818608E-02  0.1235070E+00
          4   -1    0    0  501    0  0.00000000000E+00  0.00000000000E+00  0.51159292057E+02  0.51175053139E+02  0.12700000000E+01 0.  1.
         -4   -1    0    0    0  501 -0.00000000000E+00 -0.00000000000E+00 -0.76320907204E+02  0.76331473040E+02  0.12700000000E+01 0.  1.
         25    2    1    2    0    0  0.00000000000E+00  0.00000000000E+00 -0.25161615147E+02  0.12750652618E+03  0.12499922936E+03 0.  0.
    9000005    1    3    3    0    0  0.63926450166E+01 -0.43991667838E+02  0.32221354111E+02  0.54912188175E+02  0.10000000000E+01 0.  0.
    9000005    1    3    3    0    0 -0.63926450166E+01  0.43991667838E+02 -0.57382969258E+02  0.72594338004E+02  0.10000000000E+01 0.  0.
<mgrwt>
<rscale>  0 0.12499923E+03</rscale>
<asrwt>0</asrwt>
<pdfrwt beam="1">  1        4 0.78726854E-02 0.12499923E+03</pdfrwt>
<pdfrwt beam="2">  1       -4 0.11743703E-01 0.12499923E+03</pdfrwt>
<totfact> 0.10398340E+04</totfact>
</mgrwt>
</event>
<event>
 5    1  0.3321169E-002  0.1250089E+03  0.7818608E-02  0.1235055E+00
          4   -1    0    0  501    0  0.00000000000E+00  0.00000000000E+00  0.91344557053E+02  0.91353385286E+02  0.12700000000E+01 0.  1.
         -4   -1    0    0    0  501 -0.00000000000E+00 -0.00000000000E+00 -0.42749648843E+02  0.42768509165E+02  0.12700000000E+01 0.  1.
         25    2    1    2    0    0  0.00000000000E+00  0.00000000000E+00  0.48594908210E+02  0.13412189445E+03  0.12500886955E+03 0.  0.
    9000005    1    3    3    0    0  0.75415169583E+01 -0.35441781822E+02 -0.30334180740E+02  0.47266868924E+02  0.10000000000E+01 0.  0.
    9000005    1    3    3    0    0 -0.75415169583E+01  0.35441781822E+02  0.78929088950E+02  0.86855025527E+02  0.10000000000E+01 0.  0.
<mgrwt>
<rscale>  0 0.12500887E+03</rscale>
<asrwt>0</asrwt>
<pdfrwt beam="1">  1        4 0.14055139E-01 0.12500887E+03</pdfrwt>
<pdfrwt beam="2">  1       -4 0.65789990E-02 0.12500887E+03</pdfrwt>
<totfact> 0.10254561E+04</totfact>
</mgrwt>
</event>
<event>
 5    1  0.3321169E-002  0.1250014E+03  0.7818608E-02  0.1235067E+00
          4   -1    0    0  501    0  0.00000000000E+00  0.00000000000E+00  0.11778590545E+04  0.11778597392E+04  0.12700000000E+01 0. -1.
         -4   -1    0    0    0  501 -0.00000000000E+00 -0.00000000000E+00 -0.31941793737E+01  0.34373946342E+01  0.12700000000E+01 0. -1.
         25    2    1    2    0    0  0.00000000000E+00  0.00000000000E+00  0.11746648751E+04  0.11812971338E+04  0.12500139795E+03 0.  0.
    9000005    1    3    3    0    0  0.17037238309E+02 -0.58854401100E+02  0.70354747567E+03  0.70621112887E+03  0.10000000000E+01 0.  0.
    9000005    1    3    3    0    0 -0.17037238309E+02  0.58854401100E+02  0.47111739947E+03  0.47508600495E+03  0.10000000000E+01 0.  0.
<mgrwt>
<rscale>  0 0.12500140E+03</rscale>
<asrwt>0</asrwt>
<pdfrwt beam="1">  1        4 0.18122806E+00 0.12500140E+03</pdfrwt>
<pdfrwt beam="2">  1       -4 0.51017314E-03 0.12500140E+03</pdfrwt>
<totfact> 0.25206804E+03</totfact>
</mgrwt>
</event>
<event>
 5    1  0.3321169E-002  0.1250001E+03  0.7818608E-02  0.1235069E+00
          4   -1    0    0  501    0  0.00000000000E+00  0.00000000000E+00  0.10071594455E+02  0.10151350396E+02  0.12700000000E+01 0. -1.
         -4   -1    0    0    0  501 -0.00000000000E+00 -0.00000000000E+00 -0.38623819897E+03  0.38624028692E+03  0.12700000000E+01 0. -1.
         25    2    1    2    0    0  0.00000000000E+00  0.00000000000E+00 -0.37616660451E+03  0.39639163732E+03  0.12500006314E+03 0.  0.
    9000005    1    3    3    0    0 -0.48080166416E+02  0.30426242420E+02 -0.10613575952E+03  0.12042947346E+03  0.10000000000E+01 0.  0.
    9000005    1    3    3    0    0  0.48080166416E+02 -0.30426242420E+02 -0.27003084500E+03  0.27596216385E+03  0.10000000000E+01 0.  0.
<mgrwt>
<rscale>  0 0.12500006E+03</rscale>
<asrwt>0</asrwt>
<pdfrwt beam="1">  1        4 0.15557721E-02 0.12500006E+03</pdfrwt>
<pdfrwt beam="2">  1       -4 0.59427546E-01 0.12500006E+03</pdfrwt>
<totfact> 0.64905168E+03</totfact>
</mgrwt>
</event>
<event>
 5    1  0.3321169E-002  0.1250065E+03  0.7818608E-02  0.1235059E+00
         -4   -1    0    0    0  501 -0.00000000000E+00  0.00000000000E+00  0.37287633716E+02  0.37309255261E+02  0.12700000000E+01 0.  1.
          4   -1    0    0  501    0  0.00000000000E+00 -0.00000000000E+00 -0.10471505777E+03  0.10472275886E+03  0.12700000000E+01 0.  1.
         25    2    1    2    0    0  0.00000000000E+00  0.00000000000E+00 -0.67427424053E+02  0.14203201412E+03  0.12500654191E+03 0.  0.
    9000005    1    3    3    0    0  0.26418491348E+02 -0.56021758009E+02 -0.24256294430E+02  0.66526249518E+02  0.10000000000E+01 0.  0.
    9000005    1    3    3    0    0 -0.26418491348E+02  0.56021758009E+02 -0.43171129623E+02  0.75505764604E+02  0.10000000000E+01 0.  0.
<mgrwt>
<rscale>  0 0.12500654E+03</rscale>
<asrwt>0</asrwt>
<pdfrwt beam="2">  1        4 0.16112264E-01 0.12500654E+03</pdfrwt>
<pdfrwt beam="1">  1       -4 0.57388147E-02 0.12500654E+03</pdfrwt>
<totfact> 0.10090157E+04</totfact>
</mgrwt>
</event>
<event>
 5    1  0.3321169E-002  0.1250006E+03  0.7818608E-02  0.1235068E+00
          4   -1    0    0  501    0  0.00000000000E+00  0.00000000000E+00  0.99575806617E+03  0.99575887605E+03  0.12700000000E+01 0.  1.
         -4   -1    0    0    0  501 -0.00000000000E+00 -0.00000000000E+00 -0.38193094423E+01  0.40249254175E+01  0.12700000000E+01 0.  1.
         25    2    1    2    0    0  0.00000000000E+00  0.00000000000E+00  0.99193875673E+03  0.99978380147E+03  0.12500061035E+03 0.  0.
    9000005    1    3    3    0    0 -0.32444954226E+02  0.52450694335E+02  0.57656431228E+03  0.57985442707E+03  0.10000000000E+01 0.  0.
    9000005    1    3    3    0    0  0.32444954226E+02 -0.52450694335E+02  0.41537444444E+03  0.41992937441E+03  0.10000000000E+01 0.  0.
<mgrwt>
<rscale>  0 0.12500061E+03</rscale>
<asrwt>0</asrwt>
<pdfrwt beam="1">  1        4 0.15320942E+00 0.12500061E+03</pdfrwt>
<pdfrwt beam="2">  1       -4 0.60346500E-03 0.12500061E+03</pdfrwt>
<totfact> 0.30611214E+03</totfact>
</mgrwt>
</event>
<event>
 5    1  0.3321169E-002  0.1249974E+03  0.7818608E-02  0.1235073E+00
         -4   -1    0    0    0  501 -0.00000000000E+00  0.00000000000E+00  0.11569987567E+02  0.11639480757E+02  0.12700000000E+01 0.  1.
          4   -1    0    0  501    0  0.00000000000E+00 -0.00000000000E+00 -0.33652370259E+03  0.33652609900E+03  0.12700000000E+01 0.  1.
         25    2    1    2    0    0  0.00000000000E+00  0.00000000000E+00 -0.32495371502E+03  0.34816557975E+03  0.12499741604E+03 0.  0.
    9000005    1    3    3    0    0 -0.35970258750E+02  0.29940221421E+02 -0.27782034330E+03  0.28173643627E+03  0.10000000000E+01 0.  0.
    9000005    1    3    3    0    0  0.35970258750E+02 -0.29940221421E+02 -0.47133371728E+02  0.66429143482E+02  0.10000000000E+01 0.  0.
<mgrwt>
<rscale>  0 0.12499742E+03</rscale>
<asrwt>0</asrwt>
<pdfrwt beam="2">  1        4 0.51778400E-01 0.12499742E+03</pdfrwt>
<pdfrwt beam="1">  1       -4 0.17855283E-02 0.12499742E+03</pdfrwt>
<totfact> 0.69930839E+03</totfact>
</mgrwt>
</event>
<event>
 5    1  0.3321169E-002  0.1250023E+03  0.7818608E-02  0.1235066E+00
          4   -1    0    0  501    0  0.00000000000E+00  0.00000000000E+00  0.17726345671E+02  0.17771781871E+02  0.12700000000E+01 0. -1.
         -4   -1    0    0    0  501 -0.00000000000E+00 -0.00000000000E+00 -0.22004289774E+03  0.22004656268E+03  0.12700000000E+01 0. -1.
         25    2    1    2    0    0  0.00000000000E+00  0.00000000000E+00 -0.20231655207E+03  0.23781834455E+03  0.12500231103E+03 0.  0.
    9000005    1    3    3    0    0 -0.21516839436E+02 -0.49978207386E+01  0.10060439753E+02  0.24293312650E+02  0.10000000000E+01 0.  0.
    9000005    1    3    3    0    0  0.21516839436E+02  0.49978207386E+01 -0.21237699182E+03  0.21352503190E+03  0.10000000000E+01 0.  0.
<mgrwt>
<rscale>  0 0.12500231E+03</rscale>
<asrwt>0</asrwt>
<pdfrwt beam="1">  1        4 0.27309073E-02 0.12500231E+03</pdfrwt>
<pdfrwt beam="2">  1       -4 0.33856529E-01 0.12500231E+03</pdfrwt>
<totfact> 0.84119029E+03</totfact>
</mgrwt>
</event>
<event>
 5    1  0.3321169E-002  0.1250052E+03  0.7818608E-02  0.1235061E+00
          4   -1    0    0  501    0  0.00000000000E+00  0.00000000000E+00  0.36263832520E+02  0.36286064116E+02  0.12700000000E+01 0. -1.
         -4   -1    0    0    0  501 -0.00000000000E+00 -0.00000000000E+00 -0.10766743444E+03  0.10767492437E+03  0.12700000000E+01 0. -1.
         25    2    1    2    0    0  0.00000000000E+00  0.00000000000E+00 -0.71403601915E+02  0.14396098849E+03  0.12500516725E+03 0.  0.
    9000005    1    3    3    0    0 -0.34460802851E+02  0.15758053478E+02  0.21530316622E+02  0.43593780707E+02  0.10000000000E+01 0.  0.
    9000005    1    3    3    0    0  0.34460802851E+02 -0.15758053478E+02 -0.92933918537E+02  0.10036720778E+03  0.10000000000E+01 0.  0.
<mgrwt>
<rscale>  0 0.12500517E+03</rscale>
<asrwt>0</asrwt>
<pdfrwt beam="1">  1        4 0.55813375E-02 0.12500517E+03</pdfrwt>
<pdfrwt beam="2">  1       -4 0.16566507E-01 0.12500517E+03</pdfrwt>
<totfact> 0.10050972E+04</totfact>
</mgrwt>
</event>
<event>
 5    1  0.3321169E-002  0.1250038E+03  0.7818608E-02  0.1235063E+00
          4   -1    0    0  501    0  0.00000000000E+00  0.00000000000E+00  0.68332482903E+01  0.69502649012E+01  0.12700000000E+01 0.  1.
         -4   -1    0    0    0  501 -0.00000000000E+00 -0.00000000000E+00 -0.56671729194E+03  0.56671871496E+03  0.12700000000E+01 0.  1.
         25    2    1    2    0    0  0.00000000000E+00  0.00000000000E+00 -0.55988404365E+03  0.57366897986E+03  0.12500382442E+03 0.  0.
    9000005    1    3    3    0    0 -0.14272542153E+02  0.51754289346E+01 -0.55814812300E+03  0.55835545823E+03  0.10000000000E+01 0.  0.
    9000005    1    3    3    0    0  0.14272542153E+02 -0.51754289346E+01 -0.17359206464E+01  0.15313521628E+02  0.10000000000E+01 0.  0.
<mgrwt>
<rscale>  0 0.12500382E+03</rscale>
<asrwt>0</asrwt>
<pdfrwt beam="1">  1        4 0.10603802E-02 0.12500382E+03</pdfrwt>
<pdfrwt beam="2">  1       -4 0.87196350E-01 0.12500382E+03</pdfrwt>
<totfact> 0.50568803E+03</totfact>
</mgrwt>
</event>
<event>
 5    1  0.3321169E-002  0.1249919E+03  0.7818608E-02  0.1235082E+00
          4   -1    0    0  501    0  0.00000000000E+00  0.00000000000E+00  0.13826222618E+02  0.13884427676E+02  0.12700000000E+01 0.  1.
         -4   -1    0    0    0  501 -0.00000000000E+00 -0.00000000000E+00 -0.28183517324E+03  0.28183803465E+03  0.12700000000E+01 0.  1.
         25    2    1    2    0    0  0.00000000000E+00  0.00000000000E+00 -0.26800895062E+03  0.29572246233E+03  0.12499190818E+03 0.  0.
    9000005    1    3    3    0    0 -0.15193579868E+02 -0.60557051426E+02 -0.14014812962E+03  0.15342913538E+03  0.10000000000E+01 0.  0.
    9000005    1    3    3    0    0  0.15193579868E+02  0.60557051426E+02 -0.12786082100E+03  0.14229332695E+03  0.10000000000E+01 0.  0.
<mgrwt>
<rscale>  0 0.12499191E+03</rscale>
<asrwt>0</asrwt>
<pdfrwt beam="1">  1        4 0.21318088E-02 0.12499191E+03</pdfrwt>
<pdfrwt beam="2">  1       -4 0.43363951E-01 0.12499191E+03</pdfrwt>
<totfact> 0.76152241E+03</totfact>
</mgrwt>
</event>
<event>
 5    1  0.3321169E-002  0.1249991E+03  0.7818608E-02  0.1235071E+00
         -4   -1    0    0    0  501 -0.00000000000E+00  0.00000000000E+00  0.24451135950E+02  0.24484095843E+02  0.12700000000E+01 0.  1.
          4   -1    0    0  501    0  0.00000000000E+00 -0.00000000000E+00 -0.15961209520E+03  0.15961714768E+03  0.12700000000E+01 0.  1.
         25    2    1    2    0    0  0.00000000000E+00  0.00000000000E+00 -0.13516095925E+03  0.18410124352E+03  0.12499913184E+03 0.  0.
    9000005    1    3    3    0    0  0.48602213053E+02 -0.33525638688E+02 -0.37430725409E+02  0.69915683274E+02  0.10000000000E+01 0.  0.
    9000005    1    3    3    0    0 -0.48602213053E+02  0.33525638688E+02 -0.97730233837E+02  0.11418556025E+03  0.10000000000E+01 0.  0.
<mgrwt>
<rscale>  0 0.12499913E+03</rscale>
<asrwt>0</asrwt>
<pdfrwt beam="2">  1        4 0.24558630E-01 0.12499913E+03</pdfrwt>
<pdfrwt beam="1">  1       -4 0.37646373E-02 0.12499913E+03</pdfrwt>
<totfact> 0.92885740E+03</totfact>
</mgrwt>
</event>
<event>
 5    1  0.3321169E-002  0.1249978E+03  0.7818608E-02  0.1235073E+00
          4   -1    0    0  501    0  0.00000000000E+00  0.00000000000E+00  0.91464691344E+01  0.92342188423E+01  0.12700000000E+01 0. -1.
         -4   -1    0    0    0  501 -0.00000000000E+00 -0.00000000000E+00 -0.42493463592E+03  0.42493653374E+03  0.12700000000E+01 0. -1.
         25    2    1    2    0    0  0.00000000000E+00  0.00000000000E+00 -0.41578816678E+03  0.43417075258E+03  0.12499777101E+03 0.  0.
    9000005    1    3    3    0    0 -0.14111010000E+02  0.59853014712E+02 -0.24651115428E+03  0.25406741852E+03  0.10000000000E+01 0.  0.
    9000005    1    3    3    0    0  0.14111010000E+02 -0.59853014712E+02 -0.16927701251E+03  0.18010333405E+03  0.10000000000E+01 0.  0.
<mgrwt>
<rscale>  0 0.12499777E+03</rscale>
<asrwt>0</asrwt>
<pdfrwt beam="1">  1        4 0.14140454E-02 0.12499777E+03</pdfrwt>
<pdfrwt beam="2">  1       -4 0.65381440E-01 0.12499777E+03</pdfrwt>
<totfact> 0.61362771E+03</totfact>
</mgrwt>
</event>
<event>
 5    1  0.3321169E-002  0.1250004E+03  0.7818608E-02  0.1235069E+00
          4   -1    0    0  501    0  0.00000000000E+00  0.00000000000E+00  0.37992414272E+02  0.38013634951E+02  0.12700000000E+01 0.  1.
         -4   -1    0    0    0  501 -0.00000000000E+00 -0.00000000000E+00 -0.10276341903E+03  0.10277126637E+03  0.12700000000E+01 0.  1.
         25    2    1    2    0    0  0.00000000000E+00  0.00000000000E+00 -0.64771004762E+02  0.14078490132E+03  0.12500042153E+03 0.  0.
    9000005    1    3    3    0    0 -0.51077461552E+02  0.21920370498E+02 -0.21527082884E+00  0.55591870475E+02  0.10000000000E+01 0.  0.
    9000005    1    3    3    0    0  0.51077461552E+02 -0.21920370498E+02 -0.64555733933E+02  0.85193030847E+02  0.10000000000E+01 0.  0.
<mgrwt>
<rscale>  0 0.12500042E+03</rscale>
<asrwt>0</asrwt>
<pdfrwt beam="1">  1        4 0.58472229E-02 0.12500042E+03</pdfrwt>
<pdfrwt beam="2">  1       -4 0.15811993E-01 0.12500042E+03</pdfrwt>
<totfact> 0.10117248E+04</totfact>
</mgrwt>
</event>
<event>
 5    1  0.3321169E-002  0.1249994E+03  0.7818608E-02  0.1235070E+00
         -4   -1    0    0    0  501 -0.00000000000E+00  0.00000000000E+00  0.58712854291E+03  0.58712991645E+03  0.12700000000E+01 0. -1.
          4   -1    0    0  501    0  0.00000000000E+00 -0.00000000000E+00 -0.65910766588E+01  0.67123164051E+01  0.12700000000E+01 0. -1.
         25    2    1    2    0    0  0.00000000000E+00  0.00000000000E+00  0.58053746625E+03  0.59384223286E+03  0.12499939124E+03 0.  0.
    9000005    1    3    3    0    0 -0.47986643275E+02 -0.23055133990E+02  0.44573950571E+03  0.44890863668E+03  0.10000000000E+01 0.  0.
    9000005    1    3    3    0    0  0.47986643275E+02  0.23055133990E+02  0.13479796054E+03  0.14493359618E+03  0.10000000000E+01 0.  0.
<mgrwt>
<rscale>  0 0.12499939E+03</rscale>
<asrwt>0</asrwt>
<pdfrwt beam="2">  1        4 0.10234432E-02 0.12499939E+03</pdfrwt>
<pdfrwt beam="1">  1       -4 0.90336936E-01 0.12499939E+03</pdfrwt>
<totfact> 0.49259270E+03</totfact>
</mgrwt>
</event>
<event>
 5    1  0.3321169E-002  0.1249987E+03  0.7818608E-02  0.1235071E+00
          4   -1    0    0  501    0  0.00000000000E+00  0.00000000000E+00  0.55376552086E+02  0.55391113195E+02  0.12700000000E+01 0. -1.
         -4   -1    0    0    0  501 -0.00000000000E+00 -0.00000000000E+00 -0.70508807774E+02  0.70520244424E+02  0.12700000000E+01 0. -1.
         25    2    1    2    0    0  0.00000000000E+00  0.00000000000E+00 -0.15132255687E+02  0.12591135762E+03  0.12499873925E+03 0.  0.
    9000005    1    3    3    0    0 -0.42428976176E+01 -0.50440025706E+02  0.29348023399E+02  0.58519269056E+02  0.10000000000E+01 0.  0.
    9000005    1    3    3    0    0  0.42428976176E+01  0.50440025706E+02 -0.44480279086E+02  0.67392088564E+02  0.10000000000E+01 0.  0.
<mgrwt>
<rscale>  0 0.12499874E+03</rscale>
<asrwt>0</asrwt>
<pdfrwt beam="1">  1        4 0.85214694E-02 0.12499874E+03</pdfrwt>
<pdfrwt beam="2">  1       -4 0.10849509E-01 0.12499874E+03</pdfrwt>
<totfact> 0.10433197E+04</totfact>
</mgrwt>
</event>
<event>
 5    1  0.3321169E-002  0.1250042E+03  0.7818608E-02  0.1235063E+00
         -4   -1    0    0    0  501 -0.00000000000E+00  0.00000000000E+00  0.16264725825E+03  0.16265221646E+03  0.12700000000E+01 0.  1.
          4   -1    0    0  501    0  0.00000000000E+00 -0.00000000000E+00 -0.23996188790E+02  0.24029772709E+02  0.12700000000E+01 0.  1.
         25    2    1    2    0    0  0.00000000000E+00  0.00000000000E+00  0.13865106946E+03  0.18668198916E+03  0.12500418399E+03 0.  0.
    9000005    1    3    3    0    0 -0.26075813370E+02 -0.56350187230E+02  0.79908700985E+02  0.10120124573E+03  0.10000000000E+01 0.  0.
    9000005    1    3    3    0    0  0.26075813370E+02  0.56350187230E+02  0.58742368480E+02  0.85480743436E+02  0.10000000000E+01 0.  0.
<mgrwt>
<rscale>  0 0.12500418E+03</rscale>
<asrwt>0</asrwt>
<pdfrwt beam="2">  1        4 0.36946860E-02 0.12500418E+03</pdfrwt>
<pdfrwt beam="1">  1       -4 0.25025621E-01 0.12500418E+03</pdfrwt>
<totfact> 0.92419198E+03</totfact>
</mgrwt>
</event>
<event>
 4    1  0.3321169E-002  0.1250693E+03  0.7818608E-02  0.1234961E+00
          4   -1    0    0  501    0  0.00000000000E+00  0.00000000000E+00  0.93089321431E+01  0.93951645885E+01  0.12700000000E+01 0. -1.
         -4   -1    0    0    0  501 -0.00000000000E+00 -0.00000000000E+00 -0.41806524578E+03  0.41806717478E+03  0.12700000000E+01 0. -1.
    9000005    1    1    2    0    0  0.38895607018E+02 -0.37647556900E+02 -0.97418080647E+02  0.11145173495E+03  0.10000000000E+01 0.  0.
    9000005    1    1    2    0    0 -0.38895607018E+02  0.37647556900E+02 -0.31133823299E+03  0.31601060442E+03  0.10000000000E+01 0.  0.
<mgrwt>
<rscale>  0 0.12506929E+03</rscale>
<asrwt>0</asrwt>
<pdfrwt beam="1">  1        4 0.14389254E-02 0.12506929E+03</pdfrwt>
<pdfrwt beam="2">  1       -4 0.64324497E-01 0.12506929E+03</pdfrwt>
<totfact> 0.61872111E+03</totfact>
</mgrwt>
</event>
<event>
 5    1  0.3321169E-002  0.1249988E+03  0.7818608E-02  0.1235071E+00
         -4   -1    0    0    0  501 -0.00000000000E+00  0.00000000000E+00  0.75376303897E+03  0.75376410887E+03  0.12700000000E+01 0. -1.
          4   -1    0    0  501    0  0.00000000000E+00 -0.00000000000E+00 -0.51033330682E+01  0.52589835905E+01  0.12700000000E+01 0. -1.
         25    2    1    2    0    0  0.00000000000E+00  0.00000000000E+00  0.74865970590E+03  0.75902309246E+03  0.12499879857E+03 0.  0.
    9000005    1    3    3    0    0 -0.73891117855E+01  0.16369142049E+02  0.10875432540E+02  0.21019581759E+02  0.10000000000E+01 0.  0.
    9000005    1    3    3    0    0  0.73891117855E+01 -0.16369142049E+02  0.73778427336E+03  0.73800351070E+03  0.10000000000E+01 0.  0.
<mgrwt>
<rscale>  0 0.12499880E+03</rscale>
<asrwt>0</asrwt>
<pdfrwt beam="2">  1        4 0.79718421E-03 0.12499880E+03</pdfrwt>
<pdfrwt beam="1">  1       -4 0.11597551E+00 0.12499880E+03</pdfrwt>
<totfact> 0.40147319E+03</totfact>
</mgrwt>
</event>
<event>
 5    1  0.3321169E-002  0.1250446E+03  0.7818608E-02  0.1235000E+00
         -4   -1    0    0    0  501 -0.00000000000E+00  0.00000000000E+00  0.21891564233E+02  0.21928371681E+02  0.12700000000E+01 0.  1.
          4   -1    0    0  501    0  0.00000000000E+00 -0.00000000000E+00 -0.17837471824E+03  0.17837923928E+03  0.12700000000E+01 0.  1.
         25    2    1    2    0    0  0.00000000000E+00  0.00000000000E+00 -0.15648315401E+03  0.20030761097E+03  0.12504463812E+03 0.  0.
    9000005    1    3    3    0    0  0.59402181342E+02 -0.16308670105E+02 -0.61179504670E+02  0.86824671957E+02  0.10000000000E+01 0.  0.
    9000005    1    3    3    0    0 -0.59402181342E+02  0.16308670105E+02 -0.95303649338E+02  0.11348293901E+03  0.10000000000E+01 0.  0.
<mgrwt>
<rscale>  0 0.12504464E+03</rscale>
<asrwt>0</asrwt>
<pdfrwt beam="2">  1        4 0.27445443E-01 0.12504464E+03</pdfrwt>
<pdfrwt beam="1">  1       -4 0.33711122E-02 0.12504464E+03</pdfrwt>
<totfact> 0.89993731E+03</totfact>
</mgrwt>
</event>
<event>
 5    1  0.3321169E-002  0.1250059E+03  0.7818608E-02  0.1235060E+00
         -4   -1    0    0    0  501 -0.00000000000E+00  0.00000000000E+00  0.17629790696E+04  0.17629795271E+04  0.12700000000E+01 0.  1.
          4   -1    0    0  501    0  0.00000000000E+00 -0.00000000000E+00 -0.20334555421E+01  0.23974656289E+01  0.12700000000E+01 0.  1.
         25    2    1    2    0    0  0.00000000000E+00  0.00000000000E+00  0.17609456141E+04  0.17653769927E+04  0.12500588210E+03 0.  0.
    9000005    1    3    3    0    0 -0.17498005276E+02 -0.55059666484E+02  0.12170089379E+04  0.12183798677E+04  0.10000000000E+01 0.  0.
    9000005    1    3    3    0    0  0.17498005276E+02  0.55059666484E+02  0.54393667619E+03  0.54699712501E+03  0.10000000000E+01 0.  0.
<mgrwt>
<rscale>  0 0.12500588E+03</rscale>
<asrwt>0</asrwt>
<pdfrwt beam="2">  1        4 0.34087516E-03 0.12500588E+03</pdfrwt>
<pdfrwt beam="1">  1       -4 0.27125568E+00 0.12500588E+03</pdfrwt>
<totfact> 0.13242813E+03</totfact>
</mgrwt>
</event>
<event>
 5    1  0.3321169E-002  0.1249995E+03  0.7818608E-02  0.1235070E+00
          4   -1    0    0  501    0  0.00000000000E+00  0.00000000000E+00  0.29921757550E+02  0.29948697382E+02  0.12700000000E+01 0. -1.
         -4   -1    0    0    0  501 -0.00000000000E+00 -0.00000000000E+00 -0.13045908934E+03  0.13046527083E+03  0.12700000000E+01 0. -1.
         25    2    1    2    0    0  0.00000000000E+00  0.00000000000E+00 -0.10053733179E+03  0.16041396821E+03  0.12499954445E+03 0.  0.
    9000005    1    3    3    0    0  0.50209042042E+02  0.81840313316E+01 -0.36912579741E+01  0.51015210056E+02  0.10000000000E+01 0.  0.
    9000005    1    3    3    0    0 -0.50209042042E+02 -0.81840313316E+01 -0.96846073819E+02  0.10939875816E+03  0.10000000000E+01 0.  0.
<mgrwt>
<rscale>  0 0.12499954E+03</rscale>
<asrwt>0</asrwt>
<pdfrwt beam="1">  1        4 0.46058952E-02 0.12499954E+03</pdfrwt>
<pdfrwt beam="2">  1       -4 0.20073177E-01 0.12499954E+03</pdfrwt>
<totfact> 0.97264030E+03</totfact>
</mgrwt>
</event>
<event>
 5    1  0.3321169E-002  0.1250015E+03  0.7818608E-02  0.1235067E+00
          4   -1    0    0  501    0  0.00000000000E+00  0.00000000000E+00  0.23588193487E+02  0.23622357460E+02  0.12700000000E+01 0.  1.
         -4   -1    0    0    0  501 -0.00000000000E+00 -0.00000000000E+00 -0.16544951853E+03  0.16545439276E+03  0.12700000000E+01 0.  1.
         25    2    1    2    0    0  0.00000000000E+00  0.00000000000E+00 -0.14186132505E+03  0.18907675022E+03  0.12500152771E+03 0.  0.
    9000005    1    3    3    0    0 -0.26560890121E+02  0.49798442194E+02 -0.11151728860E+03  0.12498988513E+03  0.10000000000E+01 0.  0.
    9000005    1    3    3    0    0  0.26560890121E+02 -0.49798442194E+02 -0.30344036452E+02  0.64086865090E+02  0.10000000000E+01 0.  0.
<mgrwt>
<rscale>  0 0.12500153E+03</rscale>
<asrwt>0</asrwt>
<pdfrwt beam="1">  1        4 0.36319559E-02 0.12500153E+03</pdfrwt>
<pdfrwt beam="2">  1       -4 0.25456774E-01 0.12500153E+03</pdfrwt>
<totfact> 0.92005057E+03</totfact>
</mgrwt>
</event>
<event>
 5    1  0.3321169E-002  0.1249990E+03  0.7818608E-02  0.1235071E+00
          4   -1    0    0  501    0  0.00000000000E+00  0.00000000000E+00  0.16050049637E+03  0.16050552089E+03  0.12700000000E+01 0. -1.
         -4   -1    0    0    0  501 -0.00000000000E+00 -0.00000000000E+00 -0.24315577655E+02  0.24348721048E+02  0.12700000000E+01 0. -1.
         25    2    1    2    0    0  0.00000000000E+00  0.00000000000E+00  0.13618491872E+03  0.18485424194E+03  0.12499903470E+03 0.  0.
    9000005    1    3    3    0    0  0.23399230130E+02  0.51136032247E+01 -0.17265448722E+02  0.29542657771E+02  0.10000000000E+01 0.  0.
    9000005    1    3    3    0    0 -0.23399230130E+02 -0.51136032247E+01  0.15345036744E+03  0.15531158416E+03  0.10000000000E+01 0.  0.
<mgrwt>
<rscale>  0 0.12499903E+03</rscale>
<asrwt>0</asrwt>
<pdfrwt beam="1">  1        4 0.24695319E-01 0.12499903E+03</pdfrwt>
<pdfrwt beam="2">  1       -4 0.37437943E-02 0.12499903E+03</pdfrwt>
<totfact> 0.92752457E+03</totfact>
</mgrwt>
</event>
<event>
 5    1  0.3321169E-002  0.1249993E+03  0.7818608E-02  0.1235070E+00
          4   -1    0    0  501    0  0.00000000000E+00  0.00000000000E+00  0.45531007635E+03  0.45531184756E+03  0.12700000000E+01 0.  1.
         -4   -1    0    0    0  501 -0.00000000000E+00 -0.00000000000E+00 -0.85304282683E+01  0.86244481818E+01  0.12700000000E+01 0.  1.
         25    2    1    2    0    0  0.00000000000E+00  0.00000000000E+00  0.44677964808E+03  0.46393629574E+03  0.12499933025E+03 0.  0.
    9000005    1    3    3    0    0 -0.24015157503E+02  0.57342300993E+02  0.19981636662E+03  0.20926645130E+03  0.10000000000E+01 0.  0.
    9000005    1    3    3    0    0  0.24015157503E+02 -0.57342300993E+02  0.24696328146E+03  0.25466984443E+03  0.10000000000E+01 0.  0.
<mgrwt>
<rscale>  0 0.12499933E+03</rscale>
<asrwt>0</asrwt>
<pdfrwt beam="1">  1        4 0.70055081E-01 0.12499933E+03</pdfrwt>
<pdfrwt beam="2">  1       -4 0.13197420E-02 0.12499933E+03</pdfrwt>
<totfact> 0.58776085E+03</totfact>
</mgrwt>
</event>
<event>
 5    1  0.3321169E-002  0.1249992E+03  0.7818608E-02  0.1235071E+00
          4   -1    0    0  501    0  0.00000000000E+00  0.00000000000E+00  0.33162343360E+02  0.33186652695E+02  0.12700000000E+01 0. -1.
         -4   -1    0    0    0  501 -0.00000000000E+00 -0.00000000000E+00 -0.11771929720E+03  0.11772614762E+03  0.12700000000E+01 0. -1.
         25    2    1    2    0    0  0.00000000000E+00  0.00000000000E+00 -0.84556953841E+02  0.15091280031E+03  0.12499917942E+03 0.  0.
    9000005    1    3    3    0    0  0.57336699641E+01 -0.14305091506E+02 -0.11539492976E+03  0.11642379666E+03  0.10000000000E+01 0.  0.
    9000005    1    3    3    0    0 -0.57336699641E+01  0.14305091506E+02  0.30837975920E+02  0.34489003654E+02  0.10000000000E+01 0.  0.
<mgrwt>
<rscale>  0 0.12499918E+03</rscale>
<asrwt>0</asrwt>
<pdfrwt beam="1">  1        4 0.51042959E-02 0.12499918E+03</pdfrwt>
<pdfrwt beam="2">  1       -4 0.18113058E-01 0.12499918E+03</pdfrwt>
<totfact> 0.99123886E+03</totfact>
</mgrwt>
</event>
<event>
 5    1  0.3321169E-002  0.1249968E+03  0.7818608E-02  0.1235074E+00
         -4   -1    0    0    0  501 -0.00000000000E+00  0.00000000000E+00  0.11085427947E+02  0.11157939450E+02  0.12700000000E+01 0.  1.
          4   -1    0    0  501    0  0.00000000000E+00 -0.00000000000E+00 -0.35113683369E+03  0.35113913037E+03  0.12700000000E+01 0.  1.
         25    2    1    2    0    0  0.00000000000E+00  0.00000000000E+00 -0.34005140575E+03  0.36229706982E+03  0.12499683296E+03 0.  0.
    9000005    1    3    3    0    0  0.16057658017E+02  0.28066873848E+02 -0.15034378180E+02  0.35673944496E+02  0.10000000000E+01 0.  0.
    9000005    1    3    3    0    0 -0.16057658017E+02 -0.28066873848E+02 -0.32501702757E+03  0.32662312532E+03  0.10000000000E+01 0.  0.
<mgrwt>
<rscale>  0 0.12499683E+03</rscale>
<asrwt>0</asrwt>
<pdfrwt beam="2">  1        4 0.54026797E-01 0.12499683E+03</pdfrwt>
<pdfrwt beam="1">  1       -4 0.17112052E-02 0.12499683E+03</pdfrwt>
<totfact> 0.68397376E+03</totfact>
</mgrwt>
</event>
<event>
 5    1  0.3321169E-002  0.1249949E+03  0.7818608E-02  0.1235077E+00
          4   -1    0    0  501    0  0.00000000000E+00  0.00000000000E+00  0.36482499359E+02  0.36504597785E+02  0.12700000000E+01 0. -1.
         -4   -1    0    0    0  501 -0.00000000000E+00 -0.00000000000E+00 -0.10700492647E+03  0.10701246277E+03  0.12700000000E+01 0. -1.
         25    2    1    2    0    0  0.00000000000E+00  0.00000000000E+00 -0.70522427113E+02  0.14351706056E+03  0.12499493568E+03 0.  0.
    9000005    1    3    3    0    0  0.41878417515E+02 -0.35560754004E+02 -0.69448628200E+02  0.88557783609E+02  0.10000000000E+01 0.  0.
    9000005    1    3    3    0    0 -0.41878417515E+02  0.35560754004E+02 -0.10737989131E+01  0.54959276951E+02  0.10000000000E+01 0.  0.
<mgrwt>
<rscale>  0 0.12499494E+03</rscale>
<asrwt>0</asrwt>
<pdfrwt beam="1">  1        4 0.56149718E-02 0.12499494E+03</pdfrwt>
<pdfrwt beam="2">  1       -4 0.16464576E-01 0.12499494E+03</pdfrwt>
<totfact> 0.10062353E+04</totfact>
</mgrwt>
</event>
<event>
 5    1  0.3321169E-002  0.1249976E+03  0.7818608E-02  0.1235073E+00
         -4   -1    0    0    0  501 -0.00000000000E+00  0.00000000000E+00  0.28482367658E+02  0.28510667607E+02  0.12700000000E+01 0. -1.
          4   -1    0    0  501    0  0.00000000000E+00 -0.00000000000E+00 -0.13704156882E+03  0.13704745340E+03  0.12700000000E+01 0. -1.
         25    2    1    2    0    0  0.00000000000E+00  0.00000000000E+00 -0.10855920116E+03  0.16555812101E+03  0.12499756508E+03 0.  0.
    9000005    1    3    3    0    0  0.26731254863E+02 -0.42951826332E+02 -0.10286654459E+03  0.11463832417E+03  0.10000000000E+01 0.  0.
    9000005    1    3    3    0    0 -0.26731254863E+02  0.42951826332E+02 -0.56926565706E+01  0.50919796843E+02  0.10000000000E+01 0.  0.
<mgrwt>
<rscale>  0 0.12499757E+03</rscale>
<asrwt>0</asrwt>
<pdfrwt beam="2">  1        4 0.21085947E-01 0.12499757E+03</pdfrwt>
<pdfrwt beam="1">  1       -4 0.43845324E-02 0.12499757E+03</pdfrwt>
<totfact> 0.96287064E+03</totfact>
</mgrwt>
</event>
<event>
 5    1  0.3321169E-002  0.1250014E+03  0.7818608E-02  0.1235067E+00
         -4   -1    0    0    0  501 -0.00000000000E+00  0.00000000000E+00  0.55909806487E+02  0.55924228751E+02  0.12700000000E+01 0. -1.
          4   -1    0    0  501    0  0.00000000000E+00 -0.00000000000E+00 -0.69839317174E+02  0.69850863441E+02  0.12700000000E+01 0. -1.
         25    2    1    2    0    0  0.00000000000E+00  0.00000000000E+00 -0.13929510687E+02  0.12577509219E+03  0.12500137018E+03 0.  0.
    9000005    1    3    3    0    0  0.33530296531E+01  0.56342625587E+02  0.20026672662E+02  0.59898262778E+02  0.10000000000E+01 0.  0.
    9000005    1    3    3    0    0 -0.33530296531E+01 -0.56342625587E+02 -0.33956183349E+02  0.65876829414E+02  0.10000000000E+01 0.  0.
<mgrwt>
<rscale>  0 0.12500137E+03</rscale>
<asrwt>0</asrwt>
<pdfrwt beam="2">  1        4 0.10746508E-01 0.12500137E+03</pdfrwt>
<pdfrwt beam="1">  1       -4 0.86035063E-02 0.12500137E+03</pdfrwt>
<totfact> 0.10435570E+04</totfact>
</mgrwt>
</event>
<event>
 5    1  0.3321169E-002  0.1249941E+03  0.7818608E-02  0.1235078E+00
          4   -1    0    0  501    0  0.00000000000E+00  0.00000000000E+00  0.59670024476E+02  0.59683538107E+02  0.12700000000E+01 0. -1.
         -4   -1    0    0    0  501 -0.00000000000E+00 -0.00000000000E+00 -0.65430927881E+02  0.65443251932E+02  0.12700000000E+01 0. -1.
         25    2    1    2    0    0  0.00000000000E+00  0.00000000000E+00 -0.57609034052E+01  0.12512679004E+03  0.12499410217E+03 0.  0.
    9000005    1    3    3    0    0 -0.56286324014E+02 -0.23382076820E+02 -0.16679481800E+02  0.63198709643E+02  0.10000000000E+01 0.  0.
    9000005    1    3    3    0    0  0.56286324014E+02  0.23382076820E+02  0.10918578394E+02  0.61928080396E+02  0.10000000000E+01 0.  0.
<mgrwt>
<rscale>  0 0.12499410E+03</rscale>
<asrwt>0</asrwt>
<pdfrwt beam="1">  1        4 0.91819912E-02 0.12499410E+03</pdfrwt>
<pdfrwt beam="2">  1       -4 0.10068284E-01 0.12499410E+03</pdfrwt>
<totfact> 0.10451502E+04</totfact>
</mgrwt>
</event>
<event>
 5    1  0.3321169E-002  0.1249862E+03  0.7818608E-02  0.1235091E+00
          4   -1    0    0  501    0  0.00000000000E+00  0.00000000000E+00  0.64828981150E+01  0.66061235206E+01  0.12700000000E+01 0.  1.
         -4   -1    0    0    0  501 -0.00000000000E+00 -0.00000000000E+00 -0.59661824207E+03  0.59661959377E+03  0.12700000000E+01 0.  1.
         25    2    1    2    0    0  0.00000000000E+00  0.00000000000E+00 -0.59013534395E+03  0.60322571729E+03  0.12498616650E+03 0.  0.
    9000005    1    3    3    0    0 -0.61317718544E+02  0.12823174539E+01 -0.35275778035E+03  0.35805105577E+03  0.10000000000E+01 0.  0.
    9000005    1    3    3    0    0  0.61317718544E+02 -0.12823174539E+01 -0.23737756360E+03  0.24517466151E+03  0.10000000000E+01 0.  0.
<mgrwt>
<rscale>  0 0.12498617E+03</rscale>
<asrwt>0</asrwt>
<pdfrwt beam="1">  1        4 0.10069523E-02 0.12498617E+03</pdfrwt>
<pdfrwt beam="2">  1       -4 0.91796961E-01 0.12498617E+03</pdfrwt>
<totfact> 0.48679405E+03</totfact>
</mgrwt>
</event>
<event>
 5    1  0.3321169E-002  0.1250008E+03  0.7818608E-02  0.1235068E+00
         -4   -1    0    0    0  501 -0.00000000000E+00  0.00000000000E+00  0.17112739246E+02  0.17159800246E+02  0.12700000000E+01 0. -1.
          4   -1    0    0  501    0  0.00000000000E+00 -0.00000000000E+00 -0.22790623266E+03  0.22790977115E+03  0.12700000000E+01 0. -1.
         25    2    1    2    0    0  0.00000000000E+00  0.00000000000E+00 -0.21079349341E+03  0.24506957140E+03  0.12500079183E+03 0.  0.
    9000005    1    3    3    0    0 -0.49780049416E+02 -0.29662392842E+02 -0.59527193537E+02  0.83080669468E+02  0.10000000000E+01 0.  0.
    9000005    1    3    3    0    0  0.49780049416E+02  0.29662392842E+02 -0.15126629988E+03  0.16198890193E+03  0.10000000000E+01 0.  0.
<mgrwt>
<rscale>  0 0.12500079E+03</rscale>
<asrwt>0</asrwt>
<pdfrwt beam="2">  1        4 0.35066387E-01 0.12500079E+03</pdfrwt>
<pdfrwt beam="1">  1       -4 0.26366216E-02 0.12500079E+03</pdfrwt>
<totfact> 0.83046627E+03</totfact>
</mgrwt>
</event>
<event>
 5    1  0.3321169E-002  0.1250050E+03  0.7818608E-02  0.1235062E+00
          4   -1    0    0  501    0  0.00000000000E+00  0.00000000000E+00  0.11388270939E+03  0.11388979057E+03  0.12700000000E+01 0. -1.
         -4   -1    0    0    0  501 -0.00000000000E+00 -0.00000000000E+00 -0.34283463741E+02  0.34306978679E+02  0.12700000000E+01 0. -1.
         25    2    1    2    0    0  0.00000000000E+00  0.00000000000E+00  0.79599245645E+02  0.14819676925E+03  0.12500496994E+03 0.  0.
    9000005    1    3    3    0    0 -0.44003061281E+02  0.28893761750E+02  0.79729921428E+02  0.95545691902E+02  0.10000000000E+01 0.  0.
    9000005    1    3    3    0    0  0.44003061281E+02 -0.28893761750E+02 -0.13067578247E+00  0.52651077352E+02  0.10000000000E+01 0.  0.
<mgrwt>
<rscale>  0 0.12500497E+03</rscale>
<asrwt>0</asrwt>
<pdfrwt beam="1">  1        4 0.17522770E-01 0.12500497E+03</pdfrwt>
<pdfrwt beam="2">  1       -4 0.52767326E-02 0.12500497E+03</pdfrwt>
<totfact> 0.99653217E+03</totfact>
</mgrwt>
</event>
<event>
 5    1  0.3321169E-002  0.1249984E+03  0.7818608E-02  0.1235072E+00
          4   -1    0    0  501    0  0.00000000000E+00  0.00000000000E+00  0.21645675536E+03  0.21646048101E+03  0.12700000000E+01 0.  1.
         -4   -1    0    0    0  501 -0.00000000000E+00 -0.00000000000E+00 -0.18019624590E+02  0.18064323136E+02  0.12700000000E+01 0.  1.
         25    2    1    2    0    0  0.00000000000E+00  0.00000000000E+00  0.19843713077E+03  0.23452480415E+03  0.12499835556E+03 0.  0.
    9000005    1    3    3    0    0  0.41211057745E+02 -0.13482975945E+02  0.18364871614E+03  0.18870080249E+03  0.10000000000E+01 0.  0.
    9000005    1    3    3    0    0 -0.41211057745E+02  0.13482975945E+02  0.14788414629E+02  0.45824001659E+02  0.10000000000E+01 0.  0.
<mgrwt>
<rscale>  0 0.12499836E+03</rscale>
<asrwt>0</asrwt>
<pdfrwt beam="1">  1        4 0.33304765E-01 0.12499836E+03</pdfrwt>
<pdfrwt beam="2">  1       -4 0.27759748E-02 0.12499836E+03</pdfrwt>
<totfact> 0.84622719E+03</totfact>
</mgrwt>
</event>
<event>
 5    1  0.3321169E-002  0.1250017E+03  0.7818608E-02  0.1235067E+00
         -4   -1    0    0    0  501 -0.00000000000E+00  0.00000000000E+00  0.22989002346E+04  0.22989005854E+04  0.12700000000E+01 0.  1.
          4   -1    0    0  501    0  0.00000000000E+00 -0.00000000000E+00 -0.14615284944E+01  0.19362245583E+01  0.12700000000E+01 0.  1.
         25    2    1    2    0    0  0.00000000000E+00  0.00000000000E+00  0.22974387061E+04  0.23008368100E+04  0.12500167094E+03 0.  0.
    9000005    1    3    3    0    0  0.17851087258E+02  0.59465000352E+02  0.10177786533E+04  0.10196710914E+04  0.10000000000E+01 0.  0.
    9000005    1    3    3    0    0 -0.17851087258E+02 -0.59465000352E+02  0.12796600529E+04  0.12811657186E+04  0.10000000000E+01 0.  0.
<mgrwt>
<rscale>  0 0.12500167E+03</rscale>
<asrwt>0</asrwt>
<pdfrwt beam="2">  1        4 0.26139193E-03 0.12500167E+03</pdfrwt>
<pdfrwt beam="1">  1       -4 0.35371441E+00 0.12500167E+03</pdfrwt>
<totfact> 0.64277399E+02</totfact>
</mgrwt>
</event>
<event>
 5    1  0.3321169E-002  0.1249999E+03  0.7818608E-02  0.1235069E+00
         -4   -1    0    0    0  501 -0.00000000000E+00  0.00000000000E+00  0.42749962086E+02  0.42768822270E+02  0.12700000000E+01 0.  1.
          4   -1    0    0  501    0  0.00000000000E+00 -0.00000000000E+00 -0.91330825660E+02  0.91339655220E+02  0.12700000000E+01 0.  1.
         25    2    1    2    0    0  0.00000000000E+00  0.00000000000E+00 -0.48580863574E+02  0.13410847749E+03  0.12499993372E+03 0.  0.
    9000005    1    3    3    0    0 -0.44814830952E+02 -0.23994399294E+02  0.14705723264E+02  0.52927861920E+02  0.10000000000E+01 0.  0.
    9000005    1    3    3    0    0  0.44814830952E+02  0.23994399294E+02 -0.63286586837E+02  0.81180615570E+02  0.10000000000E+01 0.  0.
<mgrwt>
<rscale>  0 0.12499993E+03</rscale>
<asrwt>0</asrwt>
<pdfrwt beam="2">  1        4 0.14053026E-01 0.12499993E+03</pdfrwt>
<pdfrwt beam="1">  1       -4 0.65790472E-02 0.12499993E+03</pdfrwt>
<totfact> 0.10256912E+04</totfact>
</mgrwt>
</event>
<event>
 5    1  0.3321169E-002  0.1249988E+03  0.7818608E-02  0.1235071E+00
         -4   -1    0    0    0  501 -0.00000000000E+00  0.00000000000E+00  0.14613224894E+03  0.14613776746E+03  0.12700000000E+01 0. -1.
          4   -1    0    0  501    0  0.00000000000E+00 -0.00000000000E+00 -0.26709290038E+02  0.26739466605E+02  0.12700000000E+01 0. -1.
         25    2    1    2    0    0  0.00000000000E+00  0.00000000000E+00  0.11942295890E+03  0.17287723407E+03  0.12499877978E+03 0.  0.
    9000005    1    3    3    0    0 -0.38481106114E+02 -0.46829012862E+02  0.38672041626E+02  0.71904650593E+02  0.10000000000E+01 0.  0.
    9000005    1    3    3    0    0  0.38481106114E+02  0.46829012862E+02  0.80750917273E+02  0.10097258348E+03  0.10000000000E+01 0.  0.
<mgrwt>
<rscale>  0 0.12499878E+03</rscale>
<asrwt>0</asrwt>
<pdfrwt beam="2">  1        4 0.41118673E-02 0.12499878E+03</pdfrwt>
<pdfrwt beam="1">  1       -4 0.22484630E-01 0.12499878E+03</pdfrwt>
<totfact> 0.94917662E+03</totfact>
</mgrwt>
</event>
<event>
 5    1  0.3321169E-002  0.1250025E+03  0.7818608E-02  0.1235065E+00
          4   -1    0    0  501    0  0.00000000000E+00  0.00000000000E+00  0.40646284935E+01  0.42584157606E+01  0.12700000000E+01 0.  1.
         -4   -1    0    0    0  501 -0.00000000000E+00 -0.00000000000E+00 -0.93850164090E+03  0.93850250019E+03  0.12700000000E+01 0.  1.
         25    2    1    2    0    0  0.00000000000E+00  0.00000000000E+00 -0.93443701240E+03  0.94276091595E+03  0.12500245797E+03 0.  0.
    9000005    1    3    3    0    0  0.17166692876E+02  0.14869337310E+02 -0.28124051226E+02  0.36162892496E+02  0.10000000000E+01 0.  0.
    9000005    1    3    3    0    0 -0.17166692876E+02 -0.14869337310E+02 -0.90631296118E+03  0.90659802346E+03  0.10000000000E+01 0.  0.
<mgrwt>
<rscale>  0 0.12500246E+03</rscale>
<asrwt>0</asrwt>
<pdfrwt beam="1">  1        4 0.64030102E-03 0.12500246E+03</pdfrwt>
<pdfrwt beam="2">  1       -4 0.14439967E+00 0.12500246E+03</pdfrwt>
<totfact> 0.32572682E+03</totfact>
</mgrwt>
</event>
<event>
 5    1  0.3321169E-002  0.1249976E+03  0.7818608E-02  0.1235073E+00
         -4   -1    0    0    0  501 -0.00000000000E+00  0.00000000000E+00  0.32914168052E+03  0.32914413067E+03  0.12700000000E+01 0. -1.
          4   -1    0    0  501    0  0.00000000000E+00 -0.00000000000E+00 -0.11831049352E+02  0.11899017975E+02  0.12700000000E+01 0. -1.
         25    2    1    2    0    0  0.00000000000E+00  0.00000000000E+00  0.31731063117E+03  0.34104314865E+03  0.12499757032E+03 0.  0.
    9000005    1    3    3    0    0 -0.80290573882E+01  0.61878156619E+02  0.16799828405E+03  0.17921438411E+03  0.10000000000E+01 0.  0.
    9000005    1    3    3    0    0  0.80290573882E+01 -0.61878156619E+02  0.14931234712E+03  0.16182876454E+03  0.10000000000E+01 0.  0.
<mgrwt>
<rscale>  0 0.12499757E+03</rscale>
<asrwt>0</asrwt>
<pdfrwt beam="2">  1        4 0.18255784E-02 0.12499757E+03</pdfrwt>
<pdfrwt beam="1">  1       -4 0.50642594E-01 0.12499757E+03</pdfrwt>
<totfact> 0.70725096E+03</totfact>
</mgrwt>
</event>
<event>
 5    1  0.3321169E-002  0.1249999E+03  0.7818608E-02  0.1235069E+00
         -4   -1    0    0    0  501 -0.00000000000E+00  0.00000000000E+00  0.41874540727E+02  0.41893795019E+02  0.12700000000E+01 0. -1.
          4   -1    0    0  501    0  0.00000000000E+00 -0.00000000000E+00 -0.93239479128E+02  0.93248127960E+02  0.12700000000E+01 0. -1.
         25    2    1    2    0    0  0.00000000000E+00  0.00000000000E+00 -0.51364938402E+02  0.13514192298E+03  0.12499992980E+03 0.  0.
    9000005    1    3    3    0    0  0.95231983961E+01 -0.26227337430E+01  0.41030503671E+02  0.42214597849E+02  0.10000000000E+01 0.  0.
    9000005    1    3    3    0    0 -0.95231983961E+01  0.26227337430E+01 -0.92395442073E+02  0.92927325130E+02  0.10000000000E+01 0.  0.
<mgrwt>
<rscale>  0 0.12499993E+03</rscale>
<asrwt>0</asrwt>
<pdfrwt beam="2">  1        4 0.14346682E-01 0.12499993E+03</pdfrwt>
<pdfrwt beam="1">  1       -4 0.64443834E-02 0.12499993E+03</pdfrwt>
<totfact> 0.10235097E+04</totfact>
</mgrwt>
</event>
<event>
 5    1  0.3321169E-002  0.1250003E+03  0.7818608E-02  0.1235069E+00
          4   -1    0    0  501    0  0.00000000000E+00  0.00000000000E+00  0.13422776824E+02  0.13482723673E+02  0.12700000000E+01 0. -1.
         -4   -1    0    0    0  501 -0.00000000000E+00 -0.00000000000E+00 -0.29030839217E+03  0.29031117006E+03  0.12700000000E+01 0. -1.
         25    2    1    2    0    0  0.00000000000E+00  0.00000000000E+00 -0.27688561535E+03  0.30379389374E+03  0.12500034355E+03 0.  0.
    9000005    1    3    3    0    0 -0.10945973980E+02  0.16615651798E+02 -0.28241640673E+03  0.28311821033E+03  0.10000000000E+01 0.  0.
    9000005    1    3    3    0    0  0.10945973980E+02 -0.16615651798E+02  0.55307913827E+01  0.20675683407E+02  0.10000000000E+01 0.  0.
<mgrwt>
<rscale>  0 0.12500034E+03</rscale>
<asrwt>0</asrwt>
<pdfrwt beam="1">  1        4 0.20698678E-02 0.12500034E+03</pdfrwt>
<pdfrwt beam="2">  1       -4 0.44667650E-01 0.12500034E+03</pdfrwt>
<totfact> 0.75124820E+03</totfact>
</mgrwt>
</event>
<event>
 5    1  0.3321169E-002  0.1249962E+03  0.7818608E-02  0.1235075E+00
          4   -1    0    0  501    0  0.00000000000E+00  0.00000000000E+00  0.54375927255E+02  0.54390756244E+02  0.12700000000E+01 0.  1.
         -4   -1    0    0    0  501 -0.00000000000E+00 -0.00000000000E+00 -0.71803297962E+02  0.71814528462E+02  0.12700000000E+01 0.  1.
         25    2    1    2    0    0  0.00000000000E+00  0.00000000000E+00 -0.17427370707E+02  0.12620528471E+03  0.12499624250E+03 0.  0.
    9000005    1    3    3    0    0 -0.29608348663E+02  0.53899054189E+02 -0.19922998234E+02  0.64650508208E+02  0.10000000000E+01 0.  0.
    9000005    1    3    3    0    0  0.29608348663E+02 -0.53899054189E+02  0.24956275273E+01  0.61554776498E+02  0.10000000000E+01 0.  0.
<mgrwt>
<rscale>  0 0.12499624E+03</rscale>
<asrwt>0</asrwt>
<pdfrwt beam="1">  1        4 0.83675318E-02 0.12499624E+03</pdfrwt>
<pdfrwt beam="2">  1       -4 0.11048666E-01 0.12499624E+03</pdfrwt>
<totfact> 0.10427348E+04</totfact>
</mgrwt>
</event>
<event>
 5    1  0.3321169E-002  0.1249914E+03  0.7818608E-02  0.1235083E+00
          4   -1    0    0  501    0  0.00000000000E+00  0.00000000000E+00  0.12505845844E+03  0.12506490686E+03  0.12700000000E+01 0.  1.
         -4   -1    0    0    0  501 -0.00000000000E+00 -0.00000000000E+00 -0.31210917326E+02  0.31236745355E+02  0.12700000000E+01 0.  1.
         25    2    1    2    0    0  0.00000000000E+00  0.00000000000E+00  0.93847541113E+02  0.15630165221E+03  0.12499138175E+03 0.  0.
    9000005    1    3    3    0    0 -0.69425000380E+00  0.62452370328E+02  0.49403052485E+02  0.79639450887E+02  0.10000000000E+01 0.  0.
    9000005    1    3    3    0    0  0.69425000380E+00 -0.62452370328E+02  0.44444488627E+02  0.76662201325E+02  0.10000000000E+01 0.  0.
<mgrwt>
<rscale>  0 0.12499138E+03</rscale>
<asrwt>0</asrwt>
<pdfrwt beam="1">  1        4 0.19242245E-01 0.12499138E+03</pdfrwt>
<pdfrwt beam="2">  1       -4 0.48041625E-02 0.12499138E+03</pdfrwt>
<totfact> 0.98079579E+03</totfact>
</mgrwt>
</event>
<event>
 5    1  0.3321169E-002  0.1250009E+03  0.7818608E-02  0.1235068E+00
          4   -1    0    0  501    0  0.00000000000E+00  0.00000000000E+00  0.26223304162E+03  0.26223611692E+03  0.12700000000E+01 0. -1.
         -4   -1    0    0    0  501 -0.00000000000E+00 -0.00000000000E+00 -0.14866087316E+02  0.14920236328E+02  0.12700000000E+01 0. -1.
         25    2    1    2    0    0  0.00000000000E+00  0.00000000000E+00  0.24736695430E+03  0.27715635325E+03  0.12500093625E+03 0.  0.
    9000005    1    3    3    0    0  0.35652553775E+02 -0.10917959801E+02  0.12489632503E+02  0.39335700795E+02  0.10000000000E+01 0.  0.
    9000005    1    3    3    0    0 -0.35652553775E+02  0.10917959801E+02  0.23487732180E+03  0.23782065245E+03  0.10000000000E+01 0.  0.
<mgrwt>
<rscale>  0 0.12500094E+03</rscale>
<asrwt>0</asrwt>
<pdfrwt beam="1">  1        4 0.40347941E-01 0.12500094E+03</pdfrwt>
<pdfrwt beam="2">  1       -4 0.22914926E-02 0.12500094E+03</pdfrwt>
<totfact> 0.78555038E+03</totfact>
</mgrwt>
</event>
<event>
 5    1  0.3321169E-002  0.1249821E+03  0.7818608E-02  0.1235097E+00
         -4   -1    0    0    0  501 -0.00000000000E+00  0.00000000000E+00  0.28963400191E+03  0.28963678627E+03  0.12700000000E+01 0. -1.
          4   -1    0    0  501    0  0.00000000000E+00 -0.00000000000E+00 -0.13450233982E+02  0.13510059000E+02  0.12700000000E+01 0. -1.
         25    2    1    2    0    0  0.00000000000E+00  0.00000000000E+00  0.27618376792E+03  0.30314684527E+03  0.12498214325E+03 0.  0.
    9000005    1    3    3    0    0 -0.60362960658E+02  0.10329472394E+02  0.10801649490E+03  0.12417305742E+03  0.10000000000E+01 0.  0.
    9000005    1    3    3    0    0  0.60362960658E+02 -0.10329472394E+02  0.16816727303E+03  0.17897378785E+03  0.10000000000E+01 0.  0.
<mgrwt>
<rscale>  0 0.12498214E+03</rscale>
<asrwt>0</asrwt>
<pdfrwt beam="2">  1        4 0.20740830E-02 0.12498214E+03</pdfrwt>
<pdfrwt beam="1">  1       -4 0.44563892E-01 0.12498214E+03</pdfrwt>
<totfact> 0.75235606E+03</totfact>
</mgrwt>
</event>
<event>
 5    1  0.3321169E-002  0.1249971E+03  0.7818608E-02  0.1235074E+00
         -4   -1    0    0    0  501 -0.00000000000E+00  0.00000000000E+00  0.10712053916E+03  0.10712806733E+03  0.12700000000E+01 0. -1.
          4   -1    0    0  501    0  0.00000000000E+00 -0.00000000000E+00 -0.36444356622E+02  0.36466478163E+02  0.12700000000E+01 0. -1.
         25    2    1    2    0    0  0.00000000000E+00  0.00000000000E+00  0.70676182540E+02  0.14359454549E+03  0.12499708284E+03 0.  0.
    9000005    1    3    3    0    0  0.59583752820E+02  0.18421818917E+02  0.39858033678E+02  0.74021955263E+02  0.10000000000E+01 0.  0.
    9000005    1    3    3    0    0 -0.59583752820E+02 -0.18421818917E+02  0.30818148862E+02  0.69572590232E+02  0.10000000000E+01 0.  0.
<mgrwt>
<rscale>  0 0.12499708E+03</rscale>
<asrwt>0</asrwt>
<pdfrwt beam="2">  1        4 0.56091049E-02 0.12499708E+03</pdfrwt>
<pdfrwt beam="1">  1       -4 0.16482363E-01 0.12499708E+03</pdfrwt>
<totfact> 0.10060284E+04</totfact>
</mgrwt>
</event>
<event>
 5    1  0.3321169E-002  0.1249989E+03  0.7818608E-02  0.1235071E+00
          4   -1    0    0  501    0  0.00000000000E+00  0.00000000000E+00  0.63203032352E+03  0.63203159948E+03  0.12700000000E+01 0.  1.
         -4   -1    0    0    0  501 -0.00000000000E+00 -0.00000000000E+00 -0.61138266251E+01  0.62443395168E+01  0.12700000000E+01 0.  1.
         25    2    1    2    0    0  0.00000000000E+00  0.00000000000E+00  0.62591649689E+03  0.63827593900E+03  0.12499885289E+03 0.  0.
    9000005    1    3    3    0    0  0.38753969453E+01 -0.14292409306E+00  0.63144033899E+03  0.63145303930E+03  0.10000000000E+01 0.  0.
    9000005    1    3    3    0    0 -0.38753969453E+01  0.14292409306E+00 -0.55238421022E+01  0.68228997025E+01  0.10000000000E+01 0.  0.
<mgrwt>
<rscale>  0 0.12499885E+03</rscale>
<asrwt>0</asrwt>
<pdfrwt beam="1">  1        4 0.97245564E-01 0.12499885E+03</pdfrwt>
<pdfrwt beam="2">  1       -4 0.95072639E-03 0.12499885E+03</pdfrwt>
<totfact> 0.46538490E+03</totfact>
</mgrwt>
</event>
<event>
 5    1  0.3321169E-002  0.1249986E+03  0.7818608E-02  0.1235071E+00
          4   -1    0    0  501    0  0.00000000000E+00  0.00000000000E+00  0.44863135037E+02  0.44881107221E+02  0.12700000000E+01 0. -1.
         -4   -1    0    0    0  501 -0.00000000000E+00 -0.00000000000E+00 -0.87028398289E+02  0.87037664311E+02  0.12700000000E+01 0. -1.
         25    2    1    2    0    0  0.00000000000E+00  0.00000000000E+00 -0.42165263252E+02  0.13191877153E+03  0.12499861142E+03 0.  0.
    9000005    1    3    3    0    0 -0.47394098368E+02  0.34580795734E+01 -0.63912701367E+02  0.79649182485E+02  0.10000000000E+01 0.  0.
    9000005    1    3    3    0    0  0.47394098368E+02 -0.34580795734E+01  0.21747438116E+02  0.52269589046E+02  0.10000000000E+01 0.  0.
<mgrwt>
<rscale>  0 0.12499861E+03</rscale>
<asrwt>0</asrwt>
<pdfrwt beam="1">  1        4 0.69041160E-02 0.12499861E+03</pdfrwt>
<pdfrwt beam="2">  1       -4 0.13391080E-01 0.12499861E+03</pdfrwt>
<totfact> 0.10303755E+04</totfact>
</mgrwt>
</event>
<event>
 5    1  0.3321169E-002  0.1250008E+03  0.7818608E-02  0.1235068E+00
         -4   -1    0    0    0  501 -0.00000000000E+00  0.00000000000E+00  0.35344125253E+01  0.37556586505E+01  0.12700000000E+01 0. -1.
          4   -1    0    0  501    0  0.00000000000E+00 -0.00000000000E+00 -0.10714547847E+04  0.10714555374E+04  0.12700000000E+01 0. -1.
         25    2    1    2    0    0  0.00000000000E+00  0.00000000000E+00 -0.10679203722E+04  0.10752111960E+04  0.12500077895E+03 0.  0.
    9000005    1    3    3    0    0 -0.21423980958E+02  0.55432217701E+02 -0.36770567869E+03  0.37247843409E+03  0.10000000000E+01 0.  0.
    9000005    1    3    3    0    0  0.21423980958E+02 -0.55432217701E+02 -0.70021469347E+03  0.70273276192E+03  0.10000000000E+01 0.  0.
<mgrwt>
<rscale>  0 0.12500078E+03</rscale>
<asrwt>0</asrwt>
<pdfrwt beam="2">  1        4 0.16485602E+00 0.12500078E+03</pdfrwt>
<pdfrwt beam="1">  1       -4 0.56083346E-03 0.12500078E+03</pdfrwt>
<totfact> 0.28220022E+03</totfact>
</mgrwt>
</event>
<event>
 5    1  0.3321169E-002  0.1249993E+03  0.7818608E-02  0.1235070E+00
         -4   -1    0    0    0  501 -0.00000000000E+00  0.00000000000E+00  0.31569586301E+02  0.31595121130E+02  0.12700000000E+01 0. -1.
          4   -1    0    0  501    0  0.00000000000E+00 -0.00000000000E+00 -0.12365447155E+03  0.12366099318E+03  0.12700000000E+01 0. -1.
         25    2    1    2    0    0  0.00000000000E+00  0.00000000000E+00 -0.92084885247E+02  0.15525611431E+03  0.12499933975E+03 0.  0.
    9000005    1    3    3    0    0  0.11340521309E+02 -0.22801257334E+02 -0.11692349153E+03  0.11966874124E+03  0.10000000000E+01 0.  0.
    9000005    1    3    3    0    0 -0.11340521309E+02  0.22801257334E+02  0.24838606282E+02  0.35587373064E+02  0.10000000000E+01 0.  0.
<mgrwt>
<rscale>  0 0.12499934E+03</rscale>
<asrwt>0</asrwt>
<pdfrwt beam="2">  1        4 0.19026231E-01 0.12499934E+03</pdfrwt>
<pdfrwt beam="1">  1       -4 0.48593254E-02 0.12499934E+03</pdfrwt>
<totfact> 0.98266703E+03</totfact>
</mgrwt>
</event>
<event>
 5    1  0.3321169E-002  0.1250009E+03  0.7818608E-02  0.1235068E+00
          4   -1    0    0  501    0  0.00000000000E+00  0.00000000000E+00  0.28753843970E+02  0.28781876990E+02  0.12700000000E+01 0. -1.
         -4   -1    0    0    0  501 -0.00000000000E+00 -0.00000000000E+00 -0.13575615832E+03  0.13576209862E+03  0.12700000000E+01 0. -1.
         25    2    1    2    0    0  0.00000000000E+00  0.00000000000E+00 -0.10700231435E+03  0.16454397561E+03  0.12500089853E+03 0.  0.
    9000005    1    3    3    0    0 -0.23430304616E+02  0.53443321211E+02 -0.82939540254E+02  0.10141565507E+03  0.10000000000E+01 0.  0.
    9000005    1    3    3    0    0  0.23430304616E+02 -0.53443321211E+02 -0.24062774095E+02  0.63128320535E+02  0.10000000000E+01 0.  0.
<mgrwt>
<rscale>  0 0.12500090E+03</rscale>
<asrwt>0</asrwt>
<pdfrwt beam="1">  1        4 0.44262817E-02 0.12500090E+03</pdfrwt>
<pdfrwt beam="2">  1       -4 0.20888176E-01 0.12500090E+03</pdfrwt>
<totfact> 0.96471878E+03</totfact>
</mgrwt>
</event>
<event>
 5    1  0.3321169E-002  0.1250030E+03  0.7818608E-02  0.1235065E+00
          4   -1    0    0  501    0  0.00000000000E+00  0.00000000000E+00  0.83890624866E+02  0.83900237428E+02  0.12700000000E+01 0. -1.
         -4   -1    0    0    0  501 -0.00000000000E+00 -0.00000000000E+00 -0.46544879242E+02  0.46562202307E+02  0.12700000000E+01 0. -1.
         25    2    1    2    0    0  0.00000000000E+00  0.00000000000E+00  0.37345745625E+02  0.13046243973E+03  0.12500297383E+03 0.  0.
    9000005    1    3    3    0    0  0.33433898728E+02  0.42284367032E+02  0.51670865784E+02  0.74677115975E+02  0.10000000000E+01 0.  0.
    9000005    1    3    3    0    0 -0.33433898728E+02 -0.42284367032E+02 -0.14325120160E+02  0.55785323760E+02  0.10000000000E+01 0.  0.
<mgrwt>
<rscale>  0 0.12500297E+03</rscale>
<asrwt>0</asrwt>
<pdfrwt beam="1">  1        4 0.12908322E-01 0.12500297E+03</pdfrwt>
<pdfrwt beam="2">  1       -4 0.71628227E-02 0.12500297E+03</pdfrwt>
<totfact> 0.10333931E+04</totfact>
</mgrwt>
</event>
<event>
 5    1  0.3321169E-002  0.1250024E+03  0.7818608E-02  0.1235065E+00
         -4   -1    0    0    0  501 -0.00000000000E+00  0.00000000000E+00  0.12461013660E+02  0.12525564316E+02  0.12700000000E+01 0. -1.
          4   -1    0    0  501    0  0.00000000000E+00 -0.00000000000E+00 -0.31261420617E+03  0.31261678586E+03  0.12700000000E+01 0. -1.
         25    2    1    2    0    0  0.00000000000E+00  0.00000000000E+00 -0.30015319251E+03  0.32514235017E+03  0.12500243558E+03 0.  0.
    9000005    1    3    3    0    0  0.19425400404E+02  0.36031141976E+02 -0.27290230327E+03  0.27595698307E+03  0.10000000000E+01 0.  0.
    9000005    1    3    3    0    0 -0.19425400404E+02 -0.36031141976E+02 -0.27250889240E+02  0.49185367105E+02  0.10000000000E+01 0.  0.
<mgrwt>
<rscale>  0 0.12500244E+03</rscale>
<asrwt>0</asrwt>
<pdfrwt beam="2">  1        4 0.48099651E-01 0.12500244E+03</pdfrwt>
<pdfrwt beam="1">  1       -4 0.19222431E-02 0.12500244E+03</pdfrwt>
<totfact> 0.72544744E+03</totfact>
</mgrwt>
</event>
<event>
 5    1  0.3321169E-002  0.1249996E+03  0.7818608E-02  0.1235070E+00
         -4   -1    0    0    0  501 -0.00000000000E+00  0.00000000000E+00  0.28553288506E+02  0.28581518233E+02  0.12700000000E+01 0. -1.
          4   -1    0    0  501    0  0.00000000000E+00 -0.00000000000E+00 -0.13670594636E+03  0.13671184539E+03  0.12700000000E+01 0. -1.
         25    2    1    2    0    0  0.00000000000E+00  0.00000000000E+00 -0.10815265785E+03  0.16529336362E+03  0.12499959463E+03 0.  0.
    9000005    1    3    3    0    0  0.43234243285E+02  0.42856260996E+02 -0.35405134354E+02  0.70429982519E+02  0.10000000000E+01 0.  0.
    9000005    1    3    3    0    0 -0.43234243285E+02 -0.42856260996E+02 -0.72747523497E+02  0.94863381101E+02  0.10000000000E+01 0.  0.
<mgrwt>
<rscale>  0 0.12499959E+03</rscale>
<asrwt>0</asrwt>
<pdfrwt beam="2">  1        4 0.21034309E-01 0.12499959E+03</pdfrwt>
<pdfrwt beam="1">  1       -4 0.43954390E-02 0.12499959E+03</pdfrwt>
<totfact> 0.96332740E+03</totfact>
</mgrwt>
</event>
<event>
 4    1  0.3321169E-002  0.1250726E+03  0.7818608E-02  0.1234956E+00
          4   -1    0    0  501    0  0.00000000000E+00  0.00000000000E+00  0.10629453630E+03  0.10630212296E+03  0.12700000000E+01 0.  1.
         -4   -1    0    0    0  501 -0.00000000000E+00 -0.00000000000E+00 -0.36772147383E+02  0.36794071848E+02  0.12700000000E+01 0.  1.
    9000005    1    1    2    0    0 -0.15489645788E+02  0.59717973294E+02  0.46407718725E+02  0.77206488187E+02  0.10000000000E+01 0.  0.
    9000005    1    1    2    0    0  0.15489645788E+02 -0.59717973294E+02  0.23114670188E+02  0.65889706623E+02  0.10000000000E+01 0.  0.
<mgrwt>
<rscale>  0 0.12507261E+03</rscale>
<asrwt>0</asrwt>
<pdfrwt beam="1">  1        4 0.16355275E-01 0.12507261E+03</pdfrwt>
<pdfrwt beam="2">  1       -4 0.56595236E-02 0.12507261E+03</pdfrwt>
<totfact> 0.10053363E+04</totfact>
</mgrwt>
</event>
<event>
 5    1  0.3321169E-002  0.1249937E+03  0.7818608E-02  0.1235079E+00
         -4   -1    0    0    0  501 -0.00000000000E+00  0.00000000000E+00  0.16098070151E+03  0.16098571104E+03  0.12700000000E+01 0. -1.
          4   -1    0    0  501    0  0.00000000000E+00 -0.00000000000E+00 -0.24240876398E+02  0.24274121787E+02  0.12700000000E+01 0. -1.
         25    2    1    2    0    0  0.00000000000E+00  0.00000000000E+00  0.13673982511E+03  0.18525983283E+03  0.12499370339E+03 0.  0.
    9000005    1    3    3    0    0  0.43486711888E+02 -0.28732148412E+02  0.11946070739E+03  0.13033990591E+03  0.10000000000E+01 0.  0.
    9000005    1    3    3    0    0 -0.43486711888E+02  0.28732148412E+02  0.17279117726E+02  0.54919926917E+02  0.10000000000E+01 0.  0.
<mgrwt>
<rscale>  0 0.12499370E+03</rscale>
<asrwt>0</asrwt>
<pdfrwt beam="2">  1        4 0.37323083E-02 0.12499370E+03</pdfrwt>
<pdfrwt beam="1">  1       -4 0.24769204E-01 0.12499370E+03</pdfrwt>
<totfact> 0.92691772E+03</totfact>
</mgrwt>
</event>
<event>
 5    1  0.3321169E-002  0.1250010E+03  0.7818608E-02  0.1235068E+00
          4   -1    0    0  501    0  0.00000000000E+00  0.00000000000E+00  0.15956240765E+03  0.15956746171E+03  0.12700000000E+01 0. -1.
         -4   -1    0    0    0  501 -0.00000000000E+00 -0.00000000000E+00 -0.24459498524E+02  0.24492447163E+02  0.12700000000E+01 0. -1.
         25    2    1    2    0    0  0.00000000000E+00  0.00000000000E+00  0.13510290913E+03  0.18405990887E+03  0.12500101599E+03 0.  0.
    9000005    1    3    3    0    0  0.39298369716E+02  0.24094369168E+02  0.54207841948E+01  0.46425051311E+02  0.10000000000E+01 0.  0.
    9000005    1    3    3    0    0 -0.39298369716E+02 -0.24094369168E+02  0.12968212494E+03  0.13763485756E+03  0.10000000000E+01 0.  0.
<mgrwt>
<rscale>  0 0.12500102E+03</rscale>
<asrwt>0</asrwt>
<pdfrwt beam="1">  1        4 0.24550986E-01 0.12500102E+03</pdfrwt>
<pdfrwt beam="2">  1       -4 0.37659231E-02 0.12500102E+03</pdfrwt>
<totfact> 0.92889154E+03</totfact>
</mgrwt>
</event>
<event>
 5    1  0.3321169E-002  0.1249987E+03  0.7818608E-02  0.1235071E+00
         -4   -1    0    0    0  501 -0.00000000000E+00  0.00000000000E+00  0.62565919945E+03  0.62566048841E+03  0.12700000000E+01 0.  1.
          4   -1    0    0  501    0  0.00000000000E+00 -0.00000000000E+00 -0.61773886610E+01  0.63065862929E+01  0.12700000000E+01 0.  1.
         25    2    1    2    0    0  0.00000000000E+00  0.00000000000E+00  0.61948181079E+03  0.63196707471E+03  0.12499867843E+03 0.  0.
    9000005    1    3    3    0    0  0.67645518093E+01  0.59652206329E+02  0.22202294493E+03  0.22999854990E+03  0.10000000000E+01 0.  0.
    9000005    1    3    3    0    0 -0.67645518093E+01 -0.59652206329E+02  0.39745886586E+03  0.40196852481E+03  0.10000000000E+01 0.  0.
<mgrwt>
<rscale>  0 0.12499868E+03</rscale>
<asrwt>0</asrwt>
<pdfrwt beam="2">  1        4 0.96040472E-03 0.12499868E+03</pdfrwt>
<pdfrwt beam="1">  1       -4 0.96265319E-01 0.12499868E+03</pdfrwt>
<totfact> 0.46911342E+03</totfact>
</mgrwt>
</event>
<event>
 5    1  0.3321169E-002  0.1249922E+03  0.7818608E-02  0.1235081E+00
          4   -1    0    0  501    0  0.00000000000E+00  0.00000000000E+00  0.30723847553E+03  0.30724110035E+03  0.12700000000E+01 0.  1.
         -4   -1    0    0    0  501 -0.00000000000E+00 -0.00000000000E+00 -0.12678080417E+02  0.12741531425E+02  0.12700000000E+01 0.  1.
         25    2    1    2    0    0  0.00000000000E+00  0.00000000000E+00  0.29456039511E+03  0.31998263178E+03  0.12499223284E+03 0.  0.
    9000005    1    3    3    0    0  0.55199022793E+02  0.36729950769E+01  0.72892269498E+02  0.91513419577E+02  0.10000000000E+01 0.  0.
    9000005    1    3    3    0    0 -0.55199022793E+02 -0.36729950769E+01  0.22166812561E+03  0.22846921220E+03  0.10000000000E+01 0.  0.
<mgrwt>
<rscale>  0 0.12499223E+03</rscale>
<asrwt>0</asrwt>
<pdfrwt beam="1">  1        4 0.47272535E-01 0.12499223E+03</pdfrwt>
<pdfrwt beam="2">  1       -4 0.19555569E-02 0.12499223E+03</pdfrwt>
<totfact> 0.73170791E+03</totfact>
</mgrwt>
</event>
<event>
 5    1  0.3321169E-002  0.1249988E+03  0.7818608E-02  0.1235071E+00
         -4   -1    0    0    0  501 -0.00000000000E+00  0.00000000000E+00  0.35879423681E+02  0.35901893316E+02  0.12700000000E+01 0.  1.
          4   -1    0    0  501    0  0.00000000000E+00 -0.00000000000E+00 -0.10880929578E+03  0.10881670712E+03  0.12700000000E+01 0.  1.
         25    2    1    2    0    0  0.00000000000E+00  0.00000000000E+00 -0.72929872104E+02  0.14471860044E+03  0.12499882827E+03 0.  0.
    9000005    1    3    3    0    0 -0.21897303998E+02  0.19054114541E+02 -0.10053650568E+03  0.10464769552E+03  0.10000000000E+01 0.  0.
    9000005    1    3    3    0    0  0.21897303998E+02 -0.19054114541E+02  0.27606633578E+02  0.40070904917E+02  0.10000000000E+01 0.  0.
<mgrwt>
<rscale>  0 0.12499883E+03</rscale>
<asrwt>0</asrwt>
<pdfrwt beam="2">  1        4 0.16742190E-01 0.12499883E+03</pdfrwt>
<pdfrwt beam="1">  1       -4 0.55222099E-02 0.12499883E+03</pdfrwt>
<totfact> 0.10036974E+04</totfact>
</mgrwt>
</event>
<event>
 5    1  0.3321169E-002  0.1250010E+03  0.7818608E-02  0.1235068E+00
         -4   -1    0    0    0  501 -0.00000000000E+00  0.00000000000E+00  0.51463852219E+03  0.51464008921E+03  0.12700000000E+01 0. -1.
          4   -1    0    0  501    0  0.00000000000E+00 -0.00000000000E+00 -0.75356834890E+01  0.76419516909E+01  0.12700000000E+01 0. -1.
         25    2    1    2    0    0  0.00000000000E+00  0.00000000000E+00  0.50710283870E+03  0.52228204090E+03  0.12500096491E+03 0.  0.
    9000005    1    3    3    0    0  0.44695410095E+02  0.43617584358E+02  0.24408153330E+03  0.25194635986E+03  0.10000000000E+01 0.  0.
    9000005    1    3    3    0    0 -0.44695410095E+02 -0.43617584358E+02  0.26302130540E+03  0.27033568104E+03  0.10000000000E+01 0.  0.
<mgrwt>
<rscale>  0 0.12500096E+03</rscale>
<asrwt>0</asrwt>
<pdfrwt beam="2">  1        4 0.11676311E-02 0.12500096E+03</pdfrwt>
<pdfrwt beam="1">  1       -4 0.79183442E-01 0.12500096E+03</pdfrwt>
<totfact> 0.54174926E+03</totfact>
</mgrwt>
</event>
<event>
 5    1  0.3321169E-002  0.1249982E+03  0.7818608E-02  0.1235072E+00
         -4   -1    0    0    0  501 -0.00000000000E+00  0.00000000000E+00  0.10716851701E+03  0.10717604181E+03  0.12700000000E+01 0.  1.
          4   -1    0    0  501    0  0.00000000000E+00 -0.00000000000E+00 -0.36428684450E+02  0.36450815502E+02  0.12700000000E+01 0.  1.
         25    2    1    2    0    0  0.00000000000E+00  0.00000000000E+00  0.70739832563E+02  0.14362685732E+03  0.12499820091E+03 0.  0.
    9000005    1    3    3    0    0 -0.59680518572E+02  0.11022160263E+02  0.52485673053E+02  0.80243368509E+02  0.10000000000E+01 0.  0.
    9000005    1    3    3    0    0  0.59680518572E+02 -0.11022160263E+02  0.18254159510E+02  0.63383488807E+02  0.10000000000E+01 0.  0.
<mgrwt>
<rscale>  0 0.12499820E+03</rscale>
<asrwt>0</asrwt>
<pdfrwt beam="2">  1        4 0.56066943E-02 0.12499820E+03</pdfrwt>
<pdfrwt beam="1">  1       -4 0.16489745E-01 0.12499820E+03</pdfrwt>
<totfact> 0.10059370E+04</totfact>
</mgrwt>
</event>
<event>
 5    1  0.3321169E-002  0.1249997E+03  0.7818608E-02  0.1235070E+00
          4   -1    0    0  501    0  0.00000000000E+00  0.00000000000E+00  0.19372751814E+02  0.19414335241E+02  0.12700000000E+01 0. -1.
         -4   -1    0    0    0  501 -0.00000000000E+00 -0.00000000000E+00 -0.20137548830E+03  0.20137949297E+03  0.12700000000E+01 0. -1.
         25    2    1    2    0    0  0.00000000000E+00  0.00000000000E+00 -0.18200273649E+03  0.22079382821E+03  0.12499967395E+03 0.  0.
    9000005    1    3    3    0    0  0.47292645008E+02  0.22603324310E+02 -0.15110223982E+03  0.15993871145E+03  0.10000000000E+01 0.  0.
    9000005    1    3    3    0    0 -0.47292645008E+02 -0.22603324310E+02 -0.30900496666E+02  0.60855116760E+02  0.10000000000E+01 0.  0.
<mgrwt>
<rscale>  0 0.12499967E+03</rscale>
<asrwt>0</asrwt>
<pdfrwt beam="1">  1        4 0.29839303E-02 0.12499967E+03</pdfrwt>
<pdfrwt beam="2">  1       -4 0.30984350E-01 0.12499967E+03</pdfrwt>
<totfact> 0.86743525E+03</totfact>
</mgrwt>
</event>
<event>
 5    1  0.3321169E-002  0.1250012E+03  0.7818608E-02  0.1235067E+00
          4   -1    0    0  501    0  0.00000000000E+00  0.00000000000E+00  0.56437064167E+01  0.57848355308E+01  0.12700000000E+01 0.  1.
         -4   -1    0    0    0  501 -0.00000000000E+00 -0.00000000000E+00 -0.68346705047E+03  0.68346823041E+03  0.12700000000E+01 0.  1.
         25    2    1    2    0    0  0.00000000000E+00  0.00000000000E+00 -0.67782334405E+03  0.68925306594E+03  0.12500121265E+03 0.  0.
    9000005    1    3    3    0    0 -0.41552964090E+02  0.44012871469E+02 -0.25321524650E+03  0.26035119116E+03  0.10000000000E+01 0.  0.
    9000005    1    3    3    0    0  0.41552964090E+02 -0.44012871469E+02 -0.42460809756E+03  0.42890187478E+03  0.10000000000E+01 0.  0.
<mgrwt>
<rscale>  0 0.12500121E+03</rscale>
<asrwt>0</asrwt>
<pdfrwt beam="1">  1        4 0.87920991E-03 0.12500121E+03</pdfrwt>
<pdfrwt beam="2">  1       -4 0.10515966E+00 0.12500121E+03</pdfrwt>
<totfact> 0.43658974E+03</totfact>
</mgrwt>
</event>
<event>
 5    1  0.3321169E-002  0.1249929E+03  0.7818608E-02  0.1235080E+00
         -4   -1    0    0    0  501 -0.00000000000E+00  0.00000000000E+00  0.16404391174E+03  0.16404882773E+03  0.12700000000E+01 0.  1.
          4   -1    0    0  501    0  0.00000000000E+00 -0.00000000000E+00 -0.23787285942E+02  0.23821164381E+02  0.12700000000E+01 0.  1.
         25    2    1    2    0    0  0.00000000000E+00  0.00000000000E+00  0.14025662580E+03  0.18786999211E+03  0.12499285121E+03 0.  0.
    9000005    1    3    3    0    0  0.59445208719E+02 -0.68504471227E+01  0.97189056561E+02  0.11413752311E+03  0.10000000000E+01 0.  0.
    9000005    1    3    3    0    0 -0.59445208719E+02  0.68504471227E+01  0.43067569237E+02  0.73732469004E+02  0.10000000000E+01 0.  0.
<mgrwt>
<rscale>  0 0.12499285E+03</rscale>
<asrwt>0</asrwt>
<pdfrwt beam="2">  1        4 0.36625667E-02 0.12499285E+03</pdfrwt>
<pdfrwt beam="1">  1       -4 0.25240509E-01 0.12499285E+03</pdfrwt>
<totfact> 0.92234027E+03</totfact>
</mgrwt>
</event>
<event>
 5    1  0.3321169E-002  0.1250001E+03  0.7818608E-02  0.1235069E+00
          4   -1    0    0  501    0  0.00000000000E+00  0.00000000000E+00  0.23139551352E+02  0.23174376729E+02  0.12700000000E+01 0. -1.
         -4   -1    0    0    0  501 -0.00000000000E+00 -0.00000000000E+00 -0.16864883897E+03  0.16865362073E+03  0.12700000000E+01 0. -1.
         25    2    1    2    0    0  0.00000000000E+00  0.00000000000E+00 -0.14550928762E+03  0.19182799746E+03  0.12500011131E+03 0.  0.
    9000005    1    3    3    0    0  0.25491820254E+02 -0.35184570439E+02 -0.38251415362E+01  0.43628185896E+02  0.10000000000E+01 0.  0.
    9000005    1    3    3    0    0 -0.25491820254E+02  0.35184570439E+02 -0.14168414608E+03  0.14819981156E+03  0.10000000000E+01 0.  0.
<mgrwt>
<rscale>  0 0.12500011E+03</rscale>
<asrwt>0</asrwt>
<pdfrwt beam="1">  1        4 0.35629778E-02 0.12500011E+03</pdfrwt>
<pdfrwt beam="2">  1       -4 0.25949021E-01 0.12500011E+03</pdfrwt>
<totfact> 0.91529991E+03</totfact>
</mgrwt>
</event>
<event>
 5    1  0.3321169E-002  0.1250001E+03  0.7818608E-02  0.1235069E+00
          4   -1    0    0  501    0  0.00000000000E+00  0.00000000000E+00  0.18713259923E+02  0.18756305525E+02  0.12700000000E+01 0.  1.
         -4   -1    0    0    0  501 -0.00000000000E+00 -0.00000000000E+00 -0.20845788714E+03  0.20846175575E+03  0.12700000000E+01 0.  1.
         25    2    1    2    0    0  0.00000000000E+00  0.00000000000E+00 -0.18974462721E+03  0.22721806127E+03  0.12500009525E+03 0.  0.
    9000005    1    3    3    0    0  0.32877595307E+02  0.47960379414E+02 -0.53257440869E+02  0.78857398351E+02  0.10000000000E+01 0.  0.
    9000005    1    3    3    0    0 -0.32877595307E+02 -0.47960379414E+02 -0.13648718634E+03  0.14836066292E+03  0.10000000000E+01 0.  0.
<mgrwt>
<rscale>  0 0.12500010E+03</rscale>
<asrwt>0</asrwt>
<pdfrwt beam="1">  1        4 0.28825720E-02 0.12500010E+03</pdfrwt>
<pdfrwt beam="2">  1       -4 0.32074051E-01 0.12500010E+03</pdfrwt>
<totfact> 0.85738423E+03</totfact>
</mgrwt>
</event>
<event>
 5    1  0.3321169E-002  0.1250035E+03  0.7818608E-02  0.1235064E+00
          4   -1    0    0  501    0  0.00000000000E+00  0.00000000000E+00  0.67564789495E+03  0.67564908854E+03  0.12700000000E+01 0.  1.
         -4   -1    0    0    0  501 -0.00000000000E+00 -0.00000000000E+00 -0.57108582847E+01  0.58503677105E+01  0.12700000000E+01 0.  1.
         25    2    1    2    0    0  0.00000000000E+00  0.00000000000E+00  0.66993703666E+03  0.68149945625E+03  0.12500350307E+03 0.  0.
    9000005    1    3    3    0    0 -0.30980889163E+02  0.42843233036E+02  0.51661479514E+03  0.51931416760E+03  0.10000000000E+01 0.  0.
    9000005    1    3    3    0    0  0.30980889163E+02 -0.42843233036E+02  0.15332224152E+03  0.16218528865E+03  0.10000000000E+01 0.  0.
<mgrwt>
<rscale>  0 0.12500350E+03</rscale>
<asrwt>0</asrwt>
<pdfrwt beam="1">  1        4 0.10395661E+00 0.12500350E+03</pdfrwt>
<pdfrwt beam="2">  1       -4 0.88941724E-03 0.12500350E+03</pdfrwt>
<totfact> 0.44078110E+03</totfact>
</mgrwt>
</event>
<event>
 5    1  0.3321169E-002  0.1249919E+03  0.7818608E-02  0.1235082E+00
          4   -1    0    0  501    0  0.00000000000E+00  0.00000000000E+00  0.93637173890E+01  0.94494498962E+01  0.12700000000E+01 0. -1.
         -4   -1    0    0    0  501 -0.00000000000E+00 -0.00000000000E+00 -0.41512708246E+03  0.41512902511E+03  0.12700000000E+01 0. -1.
         25    2    1    2    0    0  0.00000000000E+00  0.00000000000E+00 -0.40576336507E+03  0.42457847501E+03  0.12499189177E+03 0.  0.
    9000005    1    3    3    0    0  0.38387265908E+02 -0.37350296885E+02 -0.93541346669E+02  0.10779429669E+03  0.10000000000E+01 0.  0.
    9000005    1    3    3    0    0 -0.38387265908E+02  0.37350296885E+02 -0.31222201840E+03  0.31678417832E+03  0.10000000000E+01 0.  0.
<mgrwt>
<rscale>  0 0.12499189E+03</rscale>
<asrwt>0</asrwt>
<pdfrwt beam="1">  1        4 0.14473165E-02 0.12499189E+03</pdfrwt>
<pdfrwt beam="2">  1       -4 0.63872435E-01 0.12499189E+03</pdfrwt>
<totfact> 0.62241648E+03</totfact>
</mgrwt>
</event>
<event>
 5    1  0.3321169E-002  0.1250023E+03  0.7818608E-02  0.1235066E+00
          4   -1    0    0  501    0  0.00000000000E+00  0.00000000000E+00  0.15288961017E+03  0.15289488480E+03  0.12700000000E+01 0.  1.
         -4   -1    0    0    0  501 -0.00000000000E+00 -0.00000000000E+00 -0.25528904141E+02  0.25560474304E+02  0.12700000000E+01 0.  1.
         25    2    1    2    0    0  0.00000000000E+00  0.00000000000E+00  0.12736070603E+03  0.17845535910E+03  0.12500226299E+03 0.  0.
    9000005    1    3    3    0    0  0.50968121616E+02  0.36116926836E+02  0.66237984975E+02  0.91053020151E+02  0.10000000000E+01 0.  0.
    9000005    1    3    3    0    0 -0.50968121616E+02 -0.36116926836E+02  0.61122721051E+02  0.87402338949E+02  0.10000000000E+01 0.  0.
<mgrwt>
<rscale>  0 0.12500226E+03</rscale>
<asrwt>0</asrwt>
<pdfrwt beam="1">  1        4 0.23524313E-01 0.12500226E+03</pdfrwt>
<pdfrwt beam="2">  1       -4 0.39303579E-02 0.12500226E+03</pdfrwt>
<totfact> 0.93891019E+03</totfact>
</mgrwt>
</event>
<event>
 5    1  0.3321169E-002  0.1250159E+03  0.7818608E-02  0.1235044E+00
         -4   -1    0    0    0  501 -0.00000000000E+00  0.00000000000E+00  0.60444422342E+02  0.60457762878E+02  0.12700000000E+01 0. -1.
          4   -1    0    0  501    0  0.00000000000E+00 -0.00000000000E+00 -0.64615194067E+02  0.64627673673E+02  0.12700000000E+01 0. -1.
         25    2    1    2    0    0  0.00000000000E+00  0.00000000000E+00 -0.41707717258E+01  0.12508543655E+03  0.12501588339E+03 0.  0.
    9000005    1    3    3    0    0  0.31035017319E+02  0.53769489440E+02 -0.92944260219E+01  0.62783092069E+02  0.10000000000E+01 0.  0.
    9000005    1    3    3    0    0 -0.31035017319E+02 -0.53769489440E+02  0.51236542961E+01  0.62302344482E+02  0.10000000000E+01 0.  0.
<mgrwt>
<rscale>  0 0.12501588E+03</rscale>
<asrwt>0</asrwt>
<pdfrwt beam="2">  1        4 0.99427852E-02 0.12501588E+03</pdfrwt>
<pdfrwt beam="1">  1       -4 0.93011281E-02 0.12501588E+03</pdfrwt>
<totfact> 0.10447256E+04</totfact>
</mgrwt>
</event>
<event>
 5    1  0.3321169E-002  0.1249994E+03  0.7818608E-02  0.1235070E+00
          4   -1    0    0  501    0  0.00000000000E+00  0.00000000000E+00  0.10283173402E+02  0.10361300846E+02  0.12700000000E+01 0.  1.
         -4   -1    0    0    0  501 -0.00000000000E+00 -0.00000000000E+00 -0.37834769498E+03  0.37834982648E+03  0.12700000000E+01 0.  1.
         25    2    1    2    0    0  0.00000000000E+00  0.00000000000E+00 -0.36806452158E+03  0.38871112733E+03  0.12499939385E+03 0.  0.
    9000005    1    3    3    0    0  0.44938293848E+02 -0.30862670556E+02 -0.27903142700E+03  0.28430879680E+03  0.10000000000E+01 0.  0.
    9000005    1    3    3    0    0 -0.44938293848E+02  0.30862670556E+02 -0.89033094586E+02  0.10440233053E+03  0.10000000000E+01 0.  0.
<mgrwt>
<rscale>  0 0.12499939E+03</rscale>
<asrwt>0</asrwt>
<pdfrwt beam="1">  1        4 0.15882007E-02 0.12499939E+03</pdfrwt>
<pdfrwt beam="2">  1       -4 0.58213501E-01 0.12499939E+03</pdfrwt>
<totfact> 0.65666626E+03</totfact>
</mgrwt>
</event>
<event>
 5    1  0.3321169E-002  0.1249970E+03  0.7818608E-02  0.1235074E+00
          4   -1    0    0  501    0  0.00000000000E+00  0.00000000000E+00  0.93427158102E+01  0.94286392820E+01  0.12700000000E+01 0. -1.
         -4   -1    0    0    0  501 -0.00000000000E+00 -0.00000000000E+00 -0.41608598954E+03  0.41608792772E+03  0.12700000000E+01 0. -1.
         25    2    1    2    0    0  0.00000000000E+00  0.00000000000E+00 -0.40674327373E+03  0.42551656700E+03  0.12499703223E+03 0.  0.
    9000005    1    3    3    0    0  0.61642413024E+02  0.38985592571E+01 -0.23568095193E+03  0.24364214937E+03  0.10000000000E+01 0.  0.
    9000005    1    3    3    0    0 -0.61642413024E+02 -0.38985592571E+01 -0.17106232180E+03  0.18187441763E+03  0.10000000000E+01 0.  0.
<mgrwt>
<rscale>  0 0.12499703E+03</rscale>
<asrwt>0</asrwt>
<pdfrwt beam="1">  1        4 0.14440998E-02 0.12499703E+03</pdfrwt>
<pdfrwt beam="2">  1       -4 0.64019973E-01 0.12499703E+03</pdfrwt>
<totfact> 0.62148574E+03</totfact>
</mgrwt>
</event>
<event>
 5    1  0.3321169E-002  0.1249990E+03  0.7818608E-02  0.1235071E+00
          4   -1    0    0  501    0  0.00000000000E+00  0.00000000000E+00  0.14960076791E+02  0.15013886824E+02  0.12700000000E+01 0. -1.
         -4   -1    0    0    0  501 -0.00000000000E+00 -0.00000000000E+00 -0.26058348965E+03  0.26058658442E+03  0.12700000000E+01 0. -1.
         25    2    1    2    0    0  0.00000000000E+00  0.00000000000E+00 -0.24562341286E+03  0.27560047125E+03  0.12499903521E+03 0.  0.
    9000005    1    3    3    0    0 -0.57861660268E+02  0.19450597711E+02 -0.15230131598E+03  0.16408226087E+03  0.10000000000E+01 0.  0.
    9000005    1    3    3    0    0  0.57861660268E+02 -0.19450597711E+02 -0.93322096879E+02  0.11151821038E+03  0.10000000000E+01 0.  0.
<mgrwt>
<rscale>  0 0.12499904E+03</rscale>
<asrwt>0</asrwt>
<pdfrwt beam="1">  1        4 0.23059278E-02 0.12499904E+03</pdfrwt>
<pdfrwt beam="2">  1       -4 0.40094142E-01 0.12499904E+03</pdfrwt>
<totfact> 0.78766781E+03</totfact>
</mgrwt>
</event>
<event>
 5    1  0.3321169E-002  0.1249979E+03  0.7818608E-02  0.1235073E+00
         -4   -1    0    0    0  501 -0.00000000000E+00  0.00000000000E+00  0.27948819257E+02  0.27977658906E+02  0.12700000000E+01 0. -1.
          4   -1    0    0  501    0  0.00000000000E+00 -0.00000000000E+00 -0.13965583268E+03  0.13966160711E+03  0.12700000000E+01 0. -1.
         25    2    1    2    0    0  0.00000000000E+00  0.00000000000E+00 -0.11170701342E+03  0.16763926602E+03  0.12499786664E+03 0.  0.
    9000005    1    3    3    0    0  0.74916785844E+01 -0.55604663033E+02 -0.92755809099E+02  0.10840961175E+03  0.10000000000E+01 0.  0.
    9000005    1    3    3    0    0 -0.74916785844E+01  0.55604663033E+02 -0.18951204323E+02  0.59229654265E+02  0.10000000000E+01 0.  0.
<mgrwt>
<rscale>  0 0.12499787E+03</rscale>
<asrwt>0</asrwt>
<pdfrwt beam="2">  1        4 0.21488175E-01 0.12499787E+03</pdfrwt>
<pdfrwt beam="1">  1       -4 0.43024811E-02 0.12499787E+03</pdfrwt>
<totfact> 0.95894474E+03</totfact>
</mgrwt>
</event>
<event>
 5    1  0.3321169E-002  0.1250072E+03  0.7818608E-02  0.1235058E+00
          4   -1    0    0  501    0  0.00000000000E+00  0.00000000000E+00  0.63272526272E+01  0.64534506900E+01  0.12700000000E+01 0.  1.
         -4   -1    0    0    0  501 -0.00000000000E+00 -0.00000000000E+00 -0.61121713015E+03  0.61121844957E+03  0.12700000000E+01 0.  1.
         25    2    1    2    0    0  0.00000000000E+00  0.00000000000E+00 -0.60488987753E+03  0.61767190026E+03  0.12500724953E+03 0.  0.
    9000005    1    3    3    0    0  0.39903132545E+02 -0.48085988049E+02 -0.29707555222E+03  0.30357767698E+03  0.10000000000E+01 0.  0.
    9000005    1    3    3    0    0 -0.39903132545E+02  0.48085988049E+02 -0.30781432531E+03  0.31409422328E+03  0.10000000000E+01 0.  0.
<mgrwt>
<rscale>  0 0.12500725E+03</rscale>
<asrwt>0</asrwt>
<pdfrwt beam="1">  1        4 0.98323300E-03 0.12500725E+03</pdfrwt>
<pdfrwt beam="2">  1       -4 0.94043167E-01 0.12500725E+03</pdfrwt>
<totfact> 0.47763205E+03</totfact>
</mgrwt>
</event>
<event>
 5    1  0.3321169E-002  0.1249997E+03  0.7818608E-02  0.1235070E+00
          4   -1    0    0  501    0  0.00000000000E+00  0.00000000000E+00  0.87921373444E+02  0.87930545365E+02  0.12700000000E+01 0.  1.
         -4   -1    0    0    0  501 -0.00000000000E+00 -0.00000000000E+00 -0.44408091032E+02  0.44426247299E+02  0.12700000000E+01 0.  1.
         25    2    1    2    0    0  0.00000000000E+00  0.00000000000E+00  0.43513282412E+02  0.13235679266E+03  0.12499965927E+03 0.  0.
    9000005    1    3    3    0    0 -0.37117536638E+02  0.28353873768E+02  0.65716116609E+02  0.80630401623E+02  0.10000000000E+01 0.  0.
    9000005    1    3    3    0    0  0.37117536638E+02 -0.28353873768E+02 -0.22202834197E+02  0.51726391041E+02  0.10000000000E+01 0.  0.
<mgrwt>
<rscale>  0 0.12499966E+03</rscale>
<asrwt>0</asrwt>
<pdfrwt beam="1">  1        4 0.13528467E-01 0.12499966E+03</pdfrwt>
<pdfrwt beam="2">  1       -4 0.68341162E-02 0.12499966E+03</pdfrwt>
<totfact> 0.10294168E+04</totfact>
</mgrwt>
</event>
<event>
 5    1  0.3321169E-002  0.1249959E+03  0.7818608E-02  0.1235076E+00
          4   -1    0    0  501    0  0.00000000000E+00  0.00000000000E+00  0.38427465142E+03  0.38427675005E+03  0.12700000000E+01 0. -1.
         -4   -1    0    0    0  501 -0.00000000000E+00 -0.00000000000E+00 -0.10122790511E+02  0.10202146232E+02  0.12700000000E+01 0. -1.
         25    2    1    2    0    0  0.00000000000E+00  0.00000000000E+00  0.37415186091E+03  0.39447889628E+03  0.12499593828E+03 0.  0.
    9000005    1    3    3    0    0  0.38480718116E+02 -0.21596287657E+02  0.47434124748E+02  0.64793221080E+02  0.10000000000E+01 0.  0.
    9000005    1    3    3    0    0 -0.38480718116E+02  0.21596287657E+02  0.32671773616E+03  0.32968567520E+03  0.10000000000E+01 0.  0.
<mgrwt>
<rscale>  0 0.12499594E+03</rscale>
<asrwt>0</asrwt>
<pdfrwt beam="1">  1        4 0.59125440E-01 0.12499594E+03</pdfrwt>
<pdfrwt beam="2">  1       -4 0.15636182E-02 0.12499594E+03</pdfrwt>
<totfact> 0.65099169E+03</totfact>
</mgrwt>
</event>
<event>
 5    1  0.3321169E-002  0.1250005E+03  0.7818608E-02  0.1235068E+00
         -4   -1    0    0    0  501 -0.00000000000E+00  0.00000000000E+00  0.79275935199E+03  0.79276036925E+03  0.12700000000E+01 0.  1.
          4   -1    0    0  501    0  0.00000000000E+00 -0.00000000000E+00 -0.48445804520E+01  0.50082791212E+01  0.12700000000E+01 0.  1.
         25    2    1    2    0    0  0.00000000000E+00  0.00000000000E+00  0.78791477153E+03  0.79776864838E+03  0.12500051652E+03 0.  0.
    9000005    1    3    3    0    0 -0.58565817463E+02 -0.13440261186E+02  0.28439905283E+03  0.29067923360E+03  0.10000000000E+01 0.  0.
    9000005    1    3    3    0    0  0.58565817463E+02  0.13440261186E+02  0.50351571870E+03  0.50708941477E+03  0.10000000000E+01 0.  0.
<mgrwt>
<rscale>  0 0.12500052E+03</rscale>
<asrwt>0</asrwt>
<pdfrwt beam="2">  1        4 0.75799056E-03 0.12500052E+03</pdfrwt>
<pdfrwt beam="1">  1       -4 0.12197564E+00 0.12500052E+03</pdfrwt>
<totfact> 0.38364100E+03</totfact>
</mgrwt>
</event>
<event>
 5    1  0.3321169E-002  0.1249995E+03  0.7818608E-02  0.1235070E+00
          4   -1    0    0  501    0  0.00000000000E+00  0.00000000000E+00  0.33218931267E+02  0.33243199222E+02  0.12700000000E+01 0.  1.
         -4   -1    0    0    0  501 -0.00000000000E+00 -0.00000000000E+00 -0.11751942403E+03  0.11752628610E+03  0.12700000000E+01 0.  1.
         25    2    1    2    0    0  0.00000000000E+00  0.00000000000E+00 -0.84300492762E+02  0.15076948532E+03  0.12499945849E+03 0.  0.
    9000005    1    3    3    0    0  0.13500041752E+02  0.31368227329E+02  0.20974738150E+02  0.40089355863E+02  0.10000000000E+01 0.  0.
    9000005    1    3    3    0    0 -0.13500041752E+02 -0.31368227329E+02 -0.10527523091E+03  0.11068012946E+03  0.10000000000E+01 0.  0.
<mgrwt>
<rscale>  0 0.12499946E+03</rscale>
<asrwt>0</asrwt>
<pdfrwt beam="1">  1        4 0.51129995E-02 0.12499946E+03</pdfrwt>
<pdfrwt beam="2">  1       -4 0.18082306E-01 0.12499946E+03</pdfrwt>
<totfact> 0.99151742E+03</totfact>
</mgrwt>
</event>
<event>
 5    1  0.3321169E-002  0.1249945E+03  0.7818608E-02  0.1235078E+00
         -4   -1    0    0    0  501 -0.00000000000E+00  0.00000000000E+00  0.75432746960E+02  0.75443437183E+02  0.12700000000E+01 0.  1.
          4   -1    0    0  501    0  0.00000000000E+00 -0.00000000000E+00 -0.51757797119E+02  0.51773376002E+02  0.12700000000E+01 0.  1.
         25    2    1    2    0    0  0.00000000000E+00  0.00000000000E+00  0.23674949841E+02  0.12721681318E+03  0.12499445710E+03 0.  0.
    9000005    1    3    3    0    0  0.11479482924E+02 -0.17117990615E+02  0.71878705498E+02  0.74782032835E+02  0.10000000000E+01 0.  0.
    9000005    1    3    3    0    0 -0.11479482924E+02  0.17117990615E+02 -0.48203755657E+02  0.52434780350E+02  0.10000000000E+01 0.  0.
<mgrwt>
<rscale>  0 0.12499446E+03</rscale>
<asrwt>0</asrwt>
<pdfrwt beam="2">  1        4 0.79647587E-02 0.12499446E+03</pdfrwt>
<pdfrwt beam="1">  1       -4 0.11607059E-01 0.12499446E+03</pdfrwt>
<totfact> 0.10405741E+04</totfact>
</mgrwt>
</event>
<event>
 5    1  0.3321169E-002  0.1249996E+03  0.7818608E-02  0.1235070E+00
         -4   -1    0    0    0  501 -0.00000000000E+00  0.00000000000E+00  0.17632419379E+03  0.17632876741E+03  0.12700000000E+01 0. -1.
          4   -1    0    0  501    0  0.00000000000E+00 -0.00000000000E+00 -0.22130569071E+02  0.22166979663E+02  0.12700000000E+01 0. -1.
         25    2    1    2    0    0  0.00000000000E+00  0.00000000000E+00  0.15419362472E+03  0.19849574707E+03  0.12499955081E+03 0.  0.
    9000005    1    3    3    0    0 -0.17588591216E+02 -0.84471238863E+01 -0.17177222600E+02  0.26014792315E+02  0.10000000000E+01 0.  0.
    9000005    1    3    3    0    0  0.17588591216E+02  0.84471238863E+01  0.17137084732E+03  0.17248095476E+03  0.10000000000E+01 0.  0.
<mgrwt>
<rscale>  0 0.12499955E+03</rscale>
<asrwt>0</asrwt>
<pdfrwt beam="2">  1        4 0.34078554E-02 0.12499955E+03</pdfrwt>
<pdfrwt beam="1">  1       -4 0.27129953E-01 0.12499955E+03</pdfrwt>
<totfact> 0.90390642E+03</totfact>
</mgrwt>
</event>
<event>
 5    1  0.3321169E-002  0.1250005E+03  0.7818608E-02  0.1235068E+00
         -4   -1    0    0    0  501 -0.00000000000E+00  0.00000000000E+00  0.55880314297E+02  0.55894744171E+02  0.12700000000E+01 0. -1.
          4   -1    0    0  501    0  0.00000000000E+00 -0.00000000000E+00 -0.69875227258E+02  0.69886767592E+02  0.12700000000E+01 0. -1.
         25    2    1    2    0    0  0.00000000000E+00  0.00000000000E+00 -0.13994912962E+02  0.12578151176E+03  0.12500052445E+03 0.  0.
    9000005    1    3    3    0    0 -0.19984633248E+02 -0.27878027884E+01 -0.66511938763E+02  0.69512555761E+02  0.10000000000E+01 0.  0.
    9000005    1    3    3    0    0  0.19984633248E+02  0.27878027884E+01  0.52517025801E+02  0.56268956001E+02  0.10000000000E+01 0.  0.
<mgrwt>
<rscale>  0 0.12500052E+03</rscale>
<asrwt>0</asrwt>
<pdfrwt beam="2">  1        4 0.10752033E-01 0.12500052E+03</pdfrwt>
<pdfrwt beam="1">  1       -4 0.85989692E-02 0.12500052E+03</pdfrwt>
<totfact> 0.10435628E+04</totfact>
</mgrwt>
</event>
<event>
 5    1  0.3321169E-002  0.1250051E+03  0.7818608E-02  0.1235061E+00
         -4   -1    0    0    0  501 -0.00000000000E+00  0.00000000000E+00  0.74225607164E+01  0.75304254586E+01  0.12700000000E+01 0.  1.
          4   -1    0    0  501    0  0.00000000000E+00 -0.00000000000E+00 -0.52240487371E+03  0.52240641743E+03  0.12700000000E+01 0.  1.
         25    2    1    2    0    0  0.00000000000E+00  0.00000000000E+00 -0.51498231299E+03  0.52993684289E+03  0.12500509893E+03 0.  0.
    9000005    1    3    3    0    0 -0.23296178655E+02  0.57962901631E+02 -0.26502568983E+03  0.27229033434E+03  0.10000000000E+01 0.  0.
    9000005    1    3    3    0    0  0.23296178655E+02 -0.57962901631E+02 -0.24995662316E+03  0.25764650855E+03  0.10000000000E+01 0.  0.
<mgrwt>
<rscale>  0 0.12500510E+03</rscale>
<asrwt>0</asrwt>
<pdfrwt beam="2">  1        4 0.80378368E-01 0.12500510E+03</pdfrwt>
<pdfrwt beam="1">  1       -4 0.11503489E-02 0.12500510E+03</pdfrwt>
<totfact> 0.53608222E+03</totfact>
</mgrwt>
</event>
<event>
 5    1  0.3321169E-002  0.1250026E+03  0.7818608E-02  0.1235065E+00
          4   -1    0    0  501    0  0.00000000000E+00  0.00000000000E+00  0.20867512290E+01  0.24428325140E+01  0.12700000000E+01 0.  1.
         -4   -1    0    0    0  501 -0.00000000000E+00 -0.00000000000E+00 -0.17244869564E+04  0.17244874241E+04  0.12700000000E+01 0.  1.
         25    2    1    2    0    0  0.00000000000E+00  0.00000000000E+00 -0.17224002052E+04  0.17269302566E+04  0.12500257697E+03 0.  0.
    9000005    1    3    3    0    0 -0.30003383805E+02 -0.94507309906E+01 -0.16072047408E+04  0.16075128610E+04  0.10000000000E+01 0.  0.
    9000005    1    3    3    0    0  0.30003383805E+02  0.94507309906E+01 -0.11519546434E+03  0.11941739555E+03  0.10000000000E+01 0.  0.
<mgrwt>
<rscale>  0 0.12500258E+03</rscale>
<asrwt>0</asrwt>
<pdfrwt beam="1">  1        4 0.34846687E-03 0.12500258E+03</pdfrwt>
<pdfrwt beam="2">  1       -4 0.26533206E+00 0.12500258E+03</pdfrwt>
<totfact> 0.13862816E+03</totfact>
</mgrwt>
</event>
<event>
 5    1  0.3321169E-002  0.1249988E+03  0.7818608E-02  0.1235071E+00
         -4   -1    0    0    0  501 -0.00000000000E+00  0.00000000000E+00  0.22018633197E+03  0.22018999452E+03  0.12700000000E+01 0. -1.
          4   -1    0    0  501    0  0.00000000000E+00 -0.00000000000E+00 -0.17713779844E+02  0.17759248193E+02  0.12700000000E+01 0. -1.
         25    2    1    2    0    0  0.00000000000E+00  0.00000000000E+00  0.20247255212E+03  0.23794924271E+03  0.12499883097E+03 0.  0.
    9000005    1    3    3    0    0 -0.24353460117E+02  0.79787933255E+01  0.20973253975E+03  0.21129479500E+03  0.10000000000E+01 0.  0.
    9000005    1    3    3    0    0  0.24353460117E+02 -0.79787933255E+01 -0.72599876266E+01  0.26654447714E+02  0.10000000000E+01 0.  0.
<mgrwt>
<rscale>  0 0.12499883E+03</rscale>
<asrwt>0</asrwt>
<pdfrwt beam="2">  1        4 0.27289763E-02 0.12499883E+03</pdfrwt>
<pdfrwt beam="1">  1       -4 0.33878598E-01 0.12499883E+03</pdfrwt>
<totfact> 0.84105935E+03</totfact>
</mgrwt>
</event>
<event>
 5    1  0.3321169E-002  0.1250015E+03  0.7818608E-02  0.1235067E+00
         -4   -1    0    0    0  501 -0.00000000000E+00  0.00000000000E+00  0.38277617256E+03  0.38277827940E+03  0.12700000000E+01 0.  1.
          4   -1    0    0  501    0  0.00000000000E+00 -0.00000000000E+00 -0.10163647012E+02  0.10242686200E+02  0.12700000000E+01 0.  1.
         25    2    1    2    0    0  0.00000000000E+00  0.00000000000E+00  0.37261252555E+03  0.39302096560E+03  0.12500154081E+03 0.  0.
    9000005    1    3    3    0    0  0.15020934276E+02 -0.56137734454E+02  0.11404103149E+03  0.12799777560E+03  0.10000000000E+01 0.  0.
    9000005    1    3    3    0    0 -0.15020934276E+02  0.56137734454E+02  0.25857149406E+03  0.26502319000E+03  0.10000000000E+01 0.  0.
<mgrwt>
<rscale>  0 0.12500154E+03</rscale>
<asrwt>0</asrwt>
<pdfrwt beam="2">  1        4 0.15698803E-02 0.12500154E+03</pdfrwt>
<pdfrwt beam="1">  1       -4 0.58894871E-01 0.12500154E+03</pdfrwt>
<totfact> 0.65235055E+03</totfact>
</mgrwt>
</event>
<event>
 5    1  0.3321169E-002  0.1249995E+03  0.7818608E-02  0.1235070E+00
          4   -1    0    0  501    0  0.00000000000E+00  0.00000000000E+00  0.14530703343E+02  0.14586097478E+02  0.12700000000E+01 0.  1.
         -4   -1    0    0    0  501 -0.00000000000E+00 -0.00000000000E+00 -0.26825663895E+03  0.26825964520E+03  0.12700000000E+01 0.  1.
         25    2    1    2    0    0  0.00000000000E+00  0.00000000000E+00 -0.25372593561E+03  0.28284574267E+03  0.12499945500E+03 0.  0.
    9000005    1    3    3    0    0  0.43936074843E+02  0.17924631471E+02 -0.21887603682E+03  0.22396292233E+03  0.10000000000E+01 0.  0.
    9000005    1    3    3    0    0 -0.43936074843E+02 -0.17924631471E+02 -0.34849898791E+02  0.58882820345E+02  0.10000000000E+01 0.  0.
<mgrwt>
<rscale>  0 0.12499945E+03</rscale>
<asrwt>0</asrwt>
<pdfrwt beam="1">  1        4 0.22399854E-02 0.12499945E+03</pdfrwt>
<pdfrwt beam="2">  1       -4 0.41274741E-01 0.12499945E+03</pdfrwt>
<totfact> 0.77803231E+03</totfact>
</mgrwt>
</event>
<event>
 5    1  0.3321169E-002  0.1250035E+03  0.7818608E-02  0.1235064E+00
         -4   -1    0    0    0  501 -0.00000000000E+00  0.00000000000E+00  0.89752908624E+01  0.90646977923E+01  0.12700000000E+01 0. -1.
          4   -1    0    0  501    0  0.00000000000E+00 -0.00000000000E+00 -0.43299936017E+03  0.43300122264E+03  0.12700000000E+01 0. -1.
         25    2    1    2    0    0  0.00000000000E+00  0.00000000000E+00 -0.42402406931E+03  0.44206592043E+03  0.12500346657E+03 0.  0.
    9000005    1    3    3    0    0  0.51842916706E+02 -0.31088270333E+02 -0.15595119729E+03  0.16726011031E+03  0.10000000000E+01 0.  0.
    9000005    1    3    3    0    0 -0.51842916706E+02  0.31088270333E+02 -0.26807287202E+03  0.27480581012E+03  0.10000000000E+01 0.  0.
<mgrwt>
<rscale>  0 0.12500347E+03</rscale>
<asrwt>0</asrwt>
<pdfrwt beam="2">  1        4 0.66622291E-01 0.12500347E+03</pdfrwt>
<pdfrwt beam="1">  1       -4 0.13878350E-02 0.12500347E+03</pdfrwt>
<totfact> 0.60652685E+03</totfact>
</mgrwt>
</event>
<event>
 5    1  0.3321169E-002  0.1249625E+03  0.7818608E-02  0.1235128E+00
         -4   -1    0    0    0  501 -0.00000000000E+00  0.00000000000E+00  0.94253912497E+02  0.94262468252E+02  0.12700000000E+01 0.  1.
          4   -1    0    0  501    0  0.00000000000E+00 -0.00000000000E+00 -0.41398870282E+02  0.41418345702E+02  0.12700000000E+01 0.  1.
         25    2    1    2    0    0  0.00000000000E+00  0.00000000000E+00  0.52855042214E+02  0.13568081395E+03  0.12496250553E+03 0.  0.
    9000005    1    3    3    0    0 -0.50285426495E+02 -0.21822452361E+02 -0.61105808093E+01  0.55165050010E+02  0.10000000000E+01 0.  0.
    9000005    1    3    3    0    0  0.50285426495E+02  0.21822452361E+02  0.58965623023E+02  0.80515763943E+02  0.10000000000E+01 0.  0.
<mgrwt>
<rscale>  0 0.12496251E+03</rscale>
<asrwt>0</asrwt>
<pdfrwt beam="2">  1        4 0.63712132E-02 0.12496251E+03</pdfrwt>
<pdfrwt beam="1">  1       -4 0.14502758E-01 0.12496251E+03</pdfrwt>
<totfact> 0.10232390E+04</totfact>
</mgrwt>
</event>
<event>
 4    1  0.3321169E-002  0.1249148E+03  0.7818608E-02  0.1235202E+00
          4   -1    0    0  501    0  0.00000000000E+00  0.00000000000E+00  0.53457560176E+02  0.53472643847E+02  0.12700000000E+01 0. -1.
         -4   -1    0    0    0  501 -0.00000000000E+00 -0.00000000000E+00 -0.72941550176E+02  0.72952605451E+02  0.12700000000E+01 0. -1.
    9000005    1    1    2    0    0 -0.39629522179E+02  0.43001881757E+02  0.12438021521E+02  0.59794357946E+02  0.10000000000E+01 0.  0.
    9000005    1    1    2    0    0  0.39629522179E+02 -0.43001881757E+02 -0.31922011521E+02  0.66630891352E+02  0.10000000000E+01 0.  0.
<mgrwt>
<rscale>  0 0.12491484E+03</rscale>
<asrwt>0</asrwt>
<pdfrwt beam="1">  1        4 0.82262507E-02 0.12491484E+03</pdfrwt>
<pdfrwt beam="2">  1       -4 0.11223788E-01 0.12491484E+03</pdfrwt>
<totfact> 0.10441715E+04</totfact>
</mgrwt>
</event>
<event>
 5    1  0.3321169E-002  0.1249862E+03  0.7818608E-02  0.1235091E+00
         -4   -1    0    0    0  501 -0.00000000000E+00  0.00000000000E+00  0.20276662506E+02  0.20316395900E+02  0.12700000000E+01 0. -1.
          4   -1    0    0  501    0  0.00000000000E+00 -0.00000000000E+00 -0.19237481211E+03  0.19237900414E+03  0.12700000000E+01 0. -1.
         25    2    1    2    0    0  0.00000000000E+00  0.00000000000E+00 -0.17209814960E+03  0.21269540004E+03  0.12498623965E+03 0.  0.
    9000005    1    3    3    0    0 -0.38178765309E+02  0.49464593318E+02 -0.85775136459E+02  0.10612604839E+03  0.10000000000E+01 0.  0.
    9000005    1    3    3    0    0  0.38178765309E+02 -0.49464593318E+02 -0.86323013145E+02  0.10656935165E+03  0.10000000000E+01 0.  0.
<mgrwt>
<rscale>  0 0.12498624E+03</rscale>
<asrwt>0</asrwt>
<pdfrwt beam="2">  1        4 0.29599503E-01 0.12498624E+03</pdfrwt>
<pdfrwt beam="1">  1       -4 0.31228655E-02 0.12498624E+03</pdfrwt>
<totfact> 0.88064653E+03</totfact>
</mgrwt>
</event>
<event>
 5    1  0.3321169E-002  0.1249847E+03  0.7818608E-02  0.1235093E+00
         -4   -1    0    0    0  501 -0.00000000000E+00  0.00000000000E+00  0.26535216716E+02  0.26565591019E+02  0.12700000000E+01 0. -1.
          4   -1    0    0  501    0  0.00000000000E+00 -0.00000000000E+00 -0.14705675453E+03  0.14706223836E+03  0.12700000000E+01 0. -1.
         25    2    1    2    0    0  0.00000000000E+00  0.00000000000E+00 -0.12052153781E+03  0.17362782938E+03  0.12498472730E+03 0.  0.
    9000005    1    3    3    0    0 -0.14262198805E+02  0.51141420015E+02 -0.10602913111E+03  0.11858343813E+03  0.10000000000E+01 0.  0.
    9000005    1    3    3    0    0  0.14262198805E+02 -0.51141420015E+02 -0.14492406704E+02  0.55044391249E+02  0.10000000000E+01 0.  0.
<mgrwt>
<rscale>  0 0.12498473E+03</rscale>
<asrwt>0</asrwt>
<pdfrwt beam="2">  1        4 0.22626874E-01 0.12498473E+03</pdfrwt>
<pdfrwt beam="1">  1       -4 0.40850994E-02 0.12498473E+03</pdfrwt>
<totfact> 0.94809237E+03</totfact>
</mgrwt>
</event>
<event>
 5    1  0.3321169E-002  0.1250012E+03  0.7818608E-02  0.1235067E+00
         -4   -1    0    0    0  501 -0.00000000000E+00  0.00000000000E+00  0.35103083986E+03  0.35103313723E+03  0.12700000000E+01 0. -1.
          4   -1    0    0  501    0  0.00000000000E+00 -0.00000000000E+00 -0.11089579559E+02  0.11162064092E+02  0.12700000000E+01 0. -1.
         25    2    1    2    0    0  0.00000000000E+00  0.00000000000E+00  0.33994126030E+03  0.36219520133E+03  0.12500121362E+03 0.  0.
    9000005    1    3    3    0    0 -0.53147022216E+02 -0.32830824699E+02  0.17486808797E+03  0.18569414964E+03  0.10000000000E+01 0.  0.
    9000005    1    3    3    0    0  0.53147022216E+02  0.32830824699E+02  0.16507317234E+03  0.17650105169E+03  0.10000000000E+01 0.  0.
<mgrwt>
<rscale>  0 0.12500121E+03</rscale>
<asrwt>0</asrwt>
<pdfrwt beam="2">  1        4 0.17118417E-02 0.12500121E+03</pdfrwt>
<pdfrwt beam="1">  1       -4 0.54010494E-01 0.12500121E+03</pdfrwt>
<totfact> 0.68401611E+03</totfact>
</mgrwt>
</event>
<event>
 5    1  0.3321169E-002  0.1250009E+03  0.7818608E-02  0.1235068E+00
          4   -1    0    0  501    0  0.00000000000E+00  0.00000000000E+00  0.22172336382E+02  0.22208678499E+02  0.12700000000E+01 0. -1.
         -4   -1    0    0    0  501 -0.00000000000E+00 -0.00000000000E+00 -0.17599638708E+03  0.17600096922E+03  0.12700000000E+01 0. -1.
         25    2    1    2    0    0  0.00000000000E+00  0.00000000000E+00 -0.15382405070E+03  0.19820964771E+03  0.12500090349E+03 0.  0.
    9000005    1    3    3    0    0 -0.51377372579E+01  0.43709255709E+02 -0.14726290614E+03  0.15370185068E+03  0.10000000000E+01 0.  0.
    9000005    1    3    3    0    0  0.51377372579E+01 -0.43709255709E+02 -0.65611445585E+01  0.44507797033E+02  0.10000000000E+01 0.  0.
<mgrwt>
<rscale>  0 0.12500090E+03</rscale>
<asrwt>0</asrwt>
<pdfrwt beam="1">  1        4 0.34142768E-02 0.12500090E+03</pdfrwt>
<pdfrwt beam="2">  1       -4 0.27079514E-01 0.12500090E+03</pdfrwt>
<totfact> 0.90436330E+03</totfact>
</mgrwt>
</event>
<event>
 5    1  0.3321169E-002  0.1249969E+03  0.7818608E-02  0.1235074E+00
         -4   -1    0    0    0  501 -0.00000000000E+00  0.00000000000E+00  0.30164002353E+03  0.30164269707E+03  0.12700000000E+01 0. -1.
          4   -1    0    0  501    0  0.00000000000E+00 -0.00000000000E+00 -0.12915521691E+02  0.12977811855E+02  0.12700000000E+01 0. -1.
         25    2    1    2    0    0  0.00000000000E+00  0.00000000000E+00  0.28872450184E+03  0.31462050893E+03  0.12499690666E+03 0.  0.
    9000005    1    3    3    0    0 -0.17990606508E+02  0.55775977721E+02  0.89769170271E+02  0.10721065966E+03  0.10000000000E+01 0.  0.
    9000005    1    3    3    0    0  0.17990606508E+02 -0.55775977721E+02  0.19895533157E+03  0.20740984927E+03  0.10000000000E+01 0.  0.
<mgrwt>
<rscale>  0 0.12499691E+03</rscale>
<asrwt>0</asrwt>
<pdfrwt beam="2">  1        4 0.19920008E-02 0.12499691E+03</pdfrwt>
<pdfrwt beam="1">  1       -4 0.46411149E-01 0.12499691E+03</pdfrwt>
<totfact> 0.73805610E+03</totfact>
</mgrwt>
</event>
<event>
 5    1  0.3321169E-002  0.1249921E+03  0.7818608E-02  0.1235082E+00
          4   -1    0    0  501    0  0.00000000000E+00  0.00000000000E+00  0.34426887118E+02  0.34450304159E+02  0.12700000000E+01 0.  1.
         -4   -1    0    0    0  501 -0.00000000000E+00 -0.00000000000E+00 -0.11338518905E+03  0.11339230131E+03  0.12700000000E+01 0.  1.
         25    2    1    2    0    0  0.00000000000E+00  0.00000000000E+00 -0.78958301937E+02  0.14784260547E+03  0.12499208994E+03 0.  0.
    9000005    1    3    3    0    0  0.41672310688E+01  0.53569781646E+02 -0.17462492245E+01  0.53769291484E+02  0.10000000000E+01 0.  0.
    9000005    1    3    3    0    0 -0.41672310688E+01 -0.53569781646E+02 -0.77212052712E+02  0.94073313987E+02  0.10000000000E+01 0.  0.
<mgrwt>
<rscale>  0 0.12499209E+03</rscale>
<asrwt>0</asrwt>
<pdfrwt beam="1">  1        4 0.52987926E-02 0.12499209E+03</pdfrwt>
<pdfrwt beam="2">  1       -4 0.17446223E-01 0.12499209E+03</pdfrwt>
<totfact> 0.99753254E+03</totfact>
</mgrwt>
</event>
<event>
 5    1  0.3321169E-002  0.1249920E+03  0.7818608E-02  0.1235082E+00
         -4   -1    0    0    0  501 -0.00000000000E+00  0.00000000000E+00  0.58768236389E+02  0.58781957336E+02  0.12700000000E+01 0. -1.
          4   -1    0    0  501    0  0.00000000000E+00 -0.00000000000E+00 -0.66432657615E+02  0.66444795867E+02  0.12700000000E+01 0. -1.
         25    2    1    2    0    0  0.00000000000E+00  0.00000000000E+00 -0.76644212258E+01  0.12522675320E+03  0.12499198520E+03 0.  0.
    9000005    1    3    3    0    0 -0.31233298216E+02  0.40153119686E+02  0.32525855712E+02  0.60388105019E+02  0.10000000000E+01 0.  0.
    9000005    1    3    3    0    0  0.31233298216E+02 -0.40153119686E+02 -0.40190276938E+02  0.64838648184E+02  0.10000000000E+01 0.  0.
<mgrwt>
<rscale>  0 0.12499199E+03</rscale>
<asrwt>0</asrwt>
<pdfrwt beam="2">  1        4 0.10222398E-01 0.12499199E+03</pdfrwt>
<pdfrwt beam="1">  1       -4 0.90432563E-02 0.12499199E+03</pdfrwt>
<totfact> 0.10449832E+04</totfact>
</mgrwt>
</event>
<event>
 5    1  0.3321169E-002  0.1250036E+03  0.7818608E-02  0.1235064E+00
          4   -1    0    0  501    0  0.00000000000E+00  0.00000000000E+00  0.10983379555E+03  0.10984113776E+03  0.12700000000E+01 0. -1.
         -4   -1    0    0    0  501 -0.00000000000E+00 -0.00000000000E+00 -0.35547302543E+02  0.35569981980E+02  0.12700000000E+01 0. -1.
         25    2    1    2    0    0  0.00000000000E+00  0.00000000000E+00  0.74286493003E+02  0.14541111974E+03  0.12500364275E+03 0.  0.
    9000005    1    3    3    0    0 -0.21899718198E+02  0.37567598246E+02 -0.15068061891E+02  0.46032255912E+02  0.10000000000E+01 0.  0.
    9000005    1    3    3    0    0  0.21899718198E+02 -0.37567598246E+02  0.89354554894E+02  0.99378863826E+02  0.10000000000E+01 0.  0.
<mgrwt>
<rscale>  0 0.12500364E+03</rscale>
<asrwt>0</asrwt>
<pdfrwt beam="1">  1        4 0.16899816E-01 0.12500364E+03</pdfrwt>
<pdfrwt beam="2">  1       -4 0.54711252E-02 0.12500364E+03</pdfrwt>
<totfact> 0.10021820E+04</totfact>
</mgrwt>
</event>
<event>
 5    1  0.3321169E-002  0.1249922E+03  0.7818608E-02  0.1235081E+00
          4   -1    0    0  501    0  0.00000000000E+00  0.00000000000E+00  0.29007355505E+02  0.29035143764E+02  0.12700000000E+01 0. -1.
         -4   -1    0    0    0  501 -0.00000000000E+00 -0.00000000000E+00 -0.13455212480E+03  0.13455811826E+03  0.12700000000E+01 0. -1.
         25    2    1    2    0    0  0.00000000000E+00  0.00000000000E+00 -0.10554476930E+03  0.16359326202E+03  0.12499222797E+03 0.  0.
    9000005    1    3    3    0    0 -0.15510171398E+02 -0.58443814634E+02 -0.73405391923E+02  0.95108340586E+02  0.10000000000E+01 0.  0.
    9000005    1    3    3    0    0  0.15510171398E+02  0.58443814634E+02 -0.32139377374E+02  0.68484921433E+02  0.10000000000E+01 0.  0.
<mgrwt>
<rscale>  0 0.12499223E+03</rscale>
<asrwt>0</asrwt>
<pdfrwt beam="1">  1        4 0.44652687E-02 0.12499223E+03</pdfrwt>
<pdfrwt beam="2">  1       -4 0.20702925E-01 0.12499223E+03</pdfrwt>
<totfact> 0.96671351E+03</totfact>
</mgrwt>
</event>
<event>
 5    1  0.3321169E-002  0.1249945E+03  0.7818608E-02  0.1235078E+00
         -4   -1    0    0    0  501 -0.00000000000E+00  0.00000000000E+00  0.43504281223E+02  0.43522814531E+02  0.12700000000E+01 0.  1.
          4   -1    0    0  501    0  0.00000000000E+00 -0.00000000000E+00 -0.89739894135E+02  0.89748880212E+02  0.12700000000E+01 0.  1.
         25    2    1    2    0    0  0.00000000000E+00  0.00000000000E+00 -0.46235612912E+02  0.13327169474E+03  0.12499445075E+03 0.  0.
    9000005    1    3    3    0    0  0.14102917092E+02  0.40408128139E+01  0.41647391949E+02  0.44167020444E+02  0.10000000000E+01 0.  0.
    9000005    1    3    3    0    0 -0.14102917092E+02 -0.40408128139E+01 -0.87883004861E+02  0.89104674300E+02  0.10000000000E+01 0.  0.
<mgrwt>
<rscale>  0 0.12499445E+03</rscale>
<asrwt>0</asrwt>
<pdfrwt beam="2">  1        4 0.13808254E-01 0.12499445E+03</pdfrwt>
<pdfrwt beam="1">  1       -4 0.66950832E-02 0.12499445E+03</pdfrwt>
<totfact> 0.10275915E+04</totfact>
</mgrwt>
</event>
<event>
 5    1  0.3321169E-002  0.1250013E+03  0.7818608E-02  0.1235067E+00
          4   -1    0    0  501    0  0.00000000000E+00  0.00000000000E+00  0.68883833048E+02  0.68895539444E+02  0.12700000000E+01 0. -1.
         -4   -1    0    0    0  501 -0.00000000000E+00 -0.00000000000E+00 -0.56685321371E+02  0.56699546374E+02  0.12700000000E+01 0. -1.
         25    2    1    2    0    0  0.00000000000E+00  0.00000000000E+00  0.12198511676E+02  0.12559508582E+03  0.12500128757E+03 0.  0.
    9000005    1    3    3    0    0 -0.42926739429E+02  0.45379597983E+02  0.42691747413E+01  0.62619794986E+02  0.10000000000E+01 0.  0.
    9000005    1    3    3    0    0  0.42926739429E+02 -0.45379597983E+02  0.79293369349E+01  0.62975290832E+02  0.10000000000E+01 0.  0.
<mgrwt>
<rscale>  0 0.12500129E+03</rscale>
<asrwt>0</asrwt>
<pdfrwt beam="1">  1        4 0.10599507E-01 0.12500129E+03</pdfrwt>
<pdfrwt beam="2">  1       -4 0.87228134E-02 0.12500129E+03</pdfrwt>
<totfact> 0.10439552E+04</totfact>
</mgrwt>
</event>
<event>
 5    1  0.3321169E-002  0.1249940E+03  0.7818608E-02  0.1235079E+00
          4   -1    0    0  501    0  0.00000000000E+00  0.00000000000E+00  0.11243550069E+02  0.11315048305E+02  0.12700000000E+01 0. -1.
         -4   -1    0    0    0  501 -0.00000000000E+00 -0.00000000000E+00 -0.34621445258E+03  0.34621678191E+03  0.12700000000E+01 0. -1.
         25    2    1    2    0    0  0.00000000000E+00  0.00000000000E+00 -0.33497090251E+03  0.35753183022E+03  0.12499401621E+03 0.  0.
    9000005    1    3    3    0    0  0.25902433303E+02 -0.11605615906E+02 -0.82448642591E+01  0.29573707212E+02  0.10000000000E+01 0.  0.
    9000005    1    3    3    0    0 -0.25902433303E+02  0.11605615906E+02 -0.32672603825E+03  0.32795812300E+03  0.10000000000E+01 0.  0.
<mgrwt>
<rscale>  0 0.12499402E+03</rscale>
<asrwt>0</asrwt>
<pdfrwt beam="1">  1        4 0.17354562E-02 0.12499402E+03</pdfrwt>
<pdfrwt beam="2">  1       -4 0.53269433E-01 0.12499402E+03</pdfrwt>
<totfact> 0.68912959E+03</totfact>
</mgrwt>
</event>
<event>
 5    1  0.3321169E-002  0.1249711E+03  0.7818608E-02  0.1235114E+00
          4   -1    0    0  501    0  0.00000000000E+00  0.00000000000E+00  0.15221335422E+04  0.15221340720E+04  0.12700000000E+01 0. -1.
         -4   -1    0    0    0  501 -0.00000000000E+00 -0.00000000000E+00 -0.24073560116E+01  0.27218124414E+01  0.12700000000E+01 0. -1.
         25    2    1    2    0    0  0.00000000000E+00  0.00000000000E+00  0.15197261862E+04  0.15248558845E+04  0.12497114617E+03 0.  0.
    9000005    1    3    3    0    0  0.50546396687E+02 -0.18122214259E+02  0.37015525691E+03  0.37403110444E+03  0.10000000000E+01 0.  0.
    9000005    1    3    3    0    0 -0.50546396687E+02  0.18122214259E+02  0.11495709293E+04  0.11508247800E+04  0.10000000000E+01 0.  0.
<mgrwt>
<rscale>  0 0.12497115E+03</rscale>
<asrwt>0</asrwt>
<pdfrwt beam="1">  1        4 0.23419811E+00 0.12497115E+03</pdfrwt>
<pdfrwt beam="2">  1       -4 0.39459304E-03 0.12497115E+03</pdfrwt>
<totfact> 0.17458014E+03</totfact>
</mgrwt>
</event>
<event>
 5    1  0.3321169E-002  0.1249997E+03  0.7818608E-02  0.1235070E+00
          4   -1    0    0  501    0  0.00000000000E+00  0.00000000000E+00  0.90639756979E+02  0.90648653853E+02  0.12700000000E+01 0.  1.
         -4   -1    0    0    0  501 -0.00000000000E+00 -0.00000000000E+00 -0.43075852440E+02  0.43094570000E+02  0.12700000000E+01 0.  1.
         25    2    1    2    0    0  0.00000000000E+00  0.00000000000E+00  0.47563904539E+02  0.13374322385E+03  0.12499969965E+03 0.  0.
    9000005    1    3    3    0    0 -0.14880002547E+02  0.41479333115E+02  0.71190224146E+02  0.83731699884E+02  0.10000000000E+01 0.  0.
    9000005    1    3    3    0    0  0.14880002547E+02 -0.41479333115E+02 -0.23626319607E+02  0.50011523968E+02  0.10000000000E+01 0.  0.
<mgrwt>
<rscale>  0 0.12499970E+03</rscale>
<asrwt>0</asrwt>
<pdfrwt beam="1">  1        4 0.13946702E-01 0.12499970E+03</pdfrwt>
<pdfrwt beam="2">  1       -4 0.66291784E-02 0.12499970E+03</pdfrwt>
<totfact> 0.10264698E+04</totfact>
</mgrwt>
</event>
<event>
 5    1  0.3321169E-002  0.1250051E+03  0.7818608E-02  0.1235061E+00
         -4   -1    0    0    0  501 -0.00000000000E+00  0.00000000000E+00  0.20168448749E+02  0.20208394913E+02  0.12700000000E+01 0. -1.
          4   -1    0    0  501    0  0.00000000000E+00 -0.00000000000E+00 -0.19346349580E+03  0.19346766424E+03  0.12700000000E+01 0. -1.
         25    2    1    2    0    0  0.00000000000E+00  0.00000000000E+00 -0.17329504705E+03  0.21367605916E+03  0.12500513959E+03 0.  0.
    9000005    1    3    3    0    0 -0.36046271234E+02 -0.46530359168E+02 -0.50744778637E+02  0.77720271185E+02  0.10000000000E+01 0.  0.
    9000005    1    3    3    0    0  0.36046271234E+02  0.46530359168E+02 -0.12255026842E+03  0.13595578797E+03  0.10000000000E+01 0.  0.
<mgrwt>
<rscale>  0 0.12500514E+03</rscale>
<asrwt>0</asrwt>
<pdfrwt beam="2">  1        4 0.29767007E-01 0.12500514E+03</pdfrwt>
<pdfrwt beam="1">  1       -4 0.31062318E-02 0.12500514E+03</pdfrwt>
<totfact> 0.87868937E+03</totfact>
</mgrwt>
</event>
<event>
 4    1  0.3321169E-002  0.1250708E+03  0.7818608E-02  0.1234959E+00
         -4   -1    0    0    0  501 -0.00000000000E+00  0.00000000000E+00  0.99164466725E+01  0.99974404028E+01  0.12700000000E+01 0. -1.
          4   -1    0    0  501    0  0.00000000000E+00 -0.00000000000E+00 -0.39267660727E+03  0.39267866099E+03  0.12700000000E+01 0. -1.
    9000005    1    1    2    0    0  0.14680524967E+02  0.60777528102E+02 -0.18977097143E+03  0.19980852667E+03  0.10000000000E+01 0.  0.
    9000005    1    1    2    0    0 -0.14680524967E+02 -0.60777528102E+02 -0.19298918917E+03  0.20286757472E+03  0.10000000000E+01 0.  0.
<mgrwt>
<rscale>  0 0.12507079E+03</rscale>
<asrwt>0</asrwt>
<pdfrwt beam="2">  1        4 0.60418162E-01 0.12507079E+03</pdfrwt>
<pdfrwt beam="1">  1       -4 0.15319957E-02 0.12507079E+03</pdfrwt>
<totfact> 0.64192989E+03</totfact>
</mgrwt>
</event>
<event>
 5    1  0.3321169E-002  0.1250065E+03  0.7818608E-02  0.1235059E+00
         -4   -1    0    0    0  501 -0.00000000000E+00  0.00000000000E+00  0.19292167624E+03  0.19292585639E+03  0.12700000000E+01 0. -1.
          4   -1    0    0  501    0  0.00000000000E+00 -0.00000000000E+00 -0.20225647302E+02  0.20265480719E+02  0.12700000000E+01 0. -1.
         25    2    1    2    0    0  0.00000000000E+00  0.00000000000E+00  0.17269602894E+03  0.21319133711E+03  0.12500651106E+03 0.  0.
    9000005    1    3    3    0    0 -0.58901058012E+02 -0.88446432864E+01  0.11862075204E+03  0.13273825810E+03  0.10000000000E+01 0.  0.
    9000005    1    3    3    0    0  0.58901058012E+02  0.88446432864E+01  0.54075276903E+02  0.80453079009E+02  0.10000000000E+01 0.  0.
<mgrwt>
<rscale>  0 0.12500651E+03</rscale>
<asrwt>0</asrwt>
<pdfrwt beam="2">  1        4 0.31150237E-02 0.12500651E+03</pdfrwt>
<pdfrwt beam="1">  1       -4 0.29683644E-01 0.12500651E+03</pdfrwt>
<totfact> 0.87944532E+03</totfact>
</mgrwt>
</event>
<event>
 5    1  0.3321169E-002  0.1250039E+03  0.7818608E-02  0.1235063E+00
          4   -1    0    0  501    0  0.00000000000E+00  0.00000000000E+00  0.10718877641E+02  0.10793851856E+02  0.12700000000E+01 0. -1.
         -4   -1    0    0    0  501 -0.00000000000E+00 -0.00000000000E+00 -0.36310393475E+03  0.36310615573E+03  0.12700000000E+01 0. -1.
         25    2    1    2    0    0  0.00000000000E+00  0.00000000000E+00 -0.35238505711E+03  0.37390000759E+03  0.12500394874E+03 0.  0.
    9000005    1    3    3    0    0  0.29961776913E+02 -0.11244744308E+02 -0.33674956056E+03  0.33826826468E+03  0.10000000000E+01 0.  0.
    9000005    1    3    3    0    0 -0.29961776913E+02  0.11244744308E+02 -0.15635496543E+02  0.35631742906E+02  0.10000000000E+01 0.  0.
<mgrwt>
<rscale>  0 0.12500395E+03</rscale>
<asrwt>0</asrwt>
<pdfrwt beam="1">  1        4 0.16549965E-02 0.12500395E+03</pdfrwt>
<pdfrwt beam="2">  1       -4 0.55868073E-01 0.12500395E+03</pdfrwt>
<totfact> 0.67167029E+03</totfact>
</mgrwt>
</event>
<event>
 5    1  0.3321169E-002  0.1250174E+03  0.7818608E-02  0.1235042E+00
          4   -1    0    0  501    0  0.00000000000E+00  0.00000000000E+00  0.38931455775E+02  0.38952164879E+02  0.12700000000E+01 0.  1.
         -4   -1    0    0    0  501 -0.00000000000E+00 -0.00000000000E+00 -0.10031312705E+03  0.10032116605E+03  0.12700000000E+01 0.  1.
         25    2    1    2    0    0  0.00000000000E+00  0.00000000000E+00 -0.61381671274E+02  0.13927333093E+03  0.12501740335E+03 0.  0.
    9000005    1    3    3    0    0  0.33042625796E+02  0.46630351509E+02 -0.25048912295E+01  0.57214327589E+02  0.10000000000E+01 0.  0.
    9000005    1    3    3    0    0 -0.33042625796E+02 -0.46630351509E+02 -0.58876780044E+02  0.82059003344E+02  0.10000000000E+01 0.  0.
<mgrwt>
<rscale>  0 0.12501740E+03</rscale>
<asrwt>0</asrwt>
<pdfrwt beam="1">  1        4 0.59916662E-02 0.12501740E+03</pdfrwt>
<pdfrwt beam="2">  1       -4 0.15435000E-01 0.12501740E+03</pdfrwt>
<totfact> 0.10144690E+04</totfact>
</mgrwt>
</event>
<event>
 5    1  0.3321169E-002  0.1250014E+03  0.7818608E-02  0.1235067E+00
         -4   -1    0    0    0  501 -0.00000000000E+00  0.00000000000E+00  0.99372745407E+03  0.99372826561E+03  0.12700000000E+01 0.  1.
          4   -1    0    0  501    0  0.00000000000E+00 -0.00000000000E+00 -0.38275871131E+01  0.40327810638E+01  0.12700000000E+01 0.  1.
         25    2    1    2    0    0  0.00000000000E+00  0.00000000000E+00  0.98989986696E+03  0.99776104668E+03  0.12500143863E+03 0.  0.
    9000005    1    3    3    0    0 -0.41065399107E+01 -0.55935285672E+02  0.71495786141E+03  0.71715504840E+03  0.10000000000E+01 0.  0.
    9000005    1    3    3    0    0  0.41065399107E+01  0.55935285672E+02  0.27494200555E+03  0.28060599828E+03  0.10000000000E+01 0.  0.
<mgrwt>
<rscale>  0 0.12500144E+03</rscale>
<asrwt>0</asrwt>
<pdfrwt beam="2">  1        4 0.60470694E-03 0.12500144E+03</pdfrwt>
<pdfrwt beam="1">  1       -4 0.15289679E+00 0.12500144E+03</pdfrwt>
<totfact> 0.30677604E+03</totfact>
</mgrwt>
</event>
<event>
 5    1  0.3321169E-002  0.1249970E+03  0.7818608E-02  0.1235074E+00
          4   -1    0    0  501    0  0.00000000000E+00  0.00000000000E+00  0.49106785391E+02  0.49123205020E+02  0.12700000000E+01 0.  1.
         -4   -1    0    0    0  501 -0.00000000000E+00 -0.00000000000E+00 -0.79507414770E+02  0.79517557202E+02  0.12700000000E+01 0.  1.
         25    2    1    2    0    0  0.00000000000E+00  0.00000000000E+00 -0.30400629379E+02  0.12864076222E+03  0.12499698972E+03 0.  0.
    9000005    1    3    3    0    0 -0.34858426363E+02  0.76471676490E+01  0.37592946825E+02  0.51844177229E+02  0.10000000000E+01 0.  0.
    9000005    1    3    3    0    0  0.34858426363E+02 -0.76471676490E+01 -0.67993576204E+02  0.76796584993E+02  0.10000000000E+01 0.  0.
<mgrwt>
<rscale>  0 0.12499699E+03</rscale>
<asrwt>0</asrwt>
<pdfrwt beam="1">  1        4 0.75569333E-02 0.12499699E+03</pdfrwt>
<pdfrwt beam="2">  1       -4 0.12233953E-01 0.12499699E+03</pdfrwt>
<totfact> 0.10374378E+04</totfact>
</mgrwt>
</event>
<event>
 5    1  0.3321169E-002  0.1250013E+03  0.7818608E-02  0.1235067E+00
         -4   -1    0    0    0  501 -0.00000000000E+00  0.00000000000E+00  0.29232001976E+03  0.29232277854E+03  0.12700000000E+01 0.  1.
          4   -1    0    0  501    0  0.00000000000E+00 -0.00000000000E+00 -0.13330200247E+02  0.13390561550E+02  0.12700000000E+01 0.  1.
         25    2    1    2    0    0  0.00000000000E+00  0.00000000000E+00  0.27898981951E+03  0.30571334009E+03  0.12500130766E+03 0.  0.
    9000005    1    3    3    0    0 -0.45609756006E+02 -0.42137140632E+02  0.15670931998E+03  0.16856630574E+03  0.10000000000E+01 0.  0.
    9000005    1    3    3    0    0  0.45609756006E+02  0.42137140632E+02  0.12228049954E+03  0.13714703435E+03  0.10000000000E+01 0.  0.
<mgrwt>
<rscale>  0 0.12500131E+03</rscale>
<asrwt>0</asrwt>
<pdfrwt beam="2">  1        4 0.20556556E-02 0.12500131E+03</pdfrwt>
<pdfrwt beam="1">  1       -4 0.44977162E-01 0.12500131E+03</pdfrwt>
<totfact> 0.74885540E+03</totfact>
</mgrwt>
</event>
<event>
 5    1  0.3321169E-002  0.1249978E+03  0.7818608E-02  0.1235073E+00
          4   -1    0    0  501    0  0.00000000000E+00  0.00000000000E+00  0.18562544350E+01  0.22491288374E+01  0.12700000000E+01 0. -1.
         -4   -1    0    0    0  501 -0.00000000000E+00 -0.00000000000E+00 -0.19025296661E+04  0.19025300900E+04  0.12700000000E+01 0. -1.
         25    2    1    2    0    0  0.00000000000E+00  0.00000000000E+00 -0.19006734117E+04  0.19047792188E+04  0.12499781854E+03 0.  0.
    9000005    1    3    3    0    0  0.52206903838E+02  0.18013275096E+01 -0.42769658103E+03  0.43087605064E+03  0.10000000000E+01 0.  0.
    9000005    1    3    3    0    0 -0.52206903838E+02 -0.18013275096E+01 -0.14729768307E+04  0.14739031682E+04  0.10000000000E+01 0.  0.
<mgrwt>
<rscale>  0 0.12499782E+03</rscale>
<asrwt>0</asrwt>
<pdfrwt beam="1">  1        4 0.31583284E-03 0.12499782E+03</pdfrwt>
<pdfrwt beam="2">  1       -4 0.29272571E+00 0.12499782E+03</pdfrwt>
<totfact> 0.11156390E+03</totfact>
</mgrwt>
</event>
<event>
 5    1  0.3321169E-002  0.1249983E+03  0.7818608E-02  0.1235072E+00
          4   -1    0    0  501    0  0.00000000000E+00  0.00000000000E+00  0.27730028299E+02  0.27759095257E+02  0.12700000000E+01 0. -1.
         -4   -1    0    0    0  501 -0.00000000000E+00 -0.00000000000E+00 -0.14075755701E+03  0.14076328625E+03  0.12700000000E+01 0. -1.
         25    2    1    2    0    0  0.00000000000E+00  0.00000000000E+00 -0.11302752871E+03  0.16852238150E+03  0.12499828327E+03 0.  0.
    9000005    1    3    3    0    0 -0.18580295508E+02  0.56133324918E+02 -0.29249317313E+02  0.65974996103E+02  0.10000000000E+01 0.  0.
    9000005    1    3    3    0    0  0.18580295508E+02 -0.56133324918E+02 -0.83778211396E+02  0.10254738540E+03  0.10000000000E+01 0.  0.
<mgrwt>
<rscale>  0 0.12499828E+03</rscale>
<asrwt>0</asrwt>
<pdfrwt beam="1">  1        4 0.42688349E-02 0.12499828E+03</pdfrwt>
<pdfrwt beam="2">  1       -4 0.21657685E-01 0.12499828E+03</pdfrwt>
<totfact> 0.95728127E+03</totfact>
</mgrwt>
</event>
<event>
 5    1  0.3321169E-002  0.1250014E+03  0.7818608E-02  0.1235067E+00
          4   -1    0    0  501    0  0.00000000000E+00  0.00000000000E+00  0.85613046166E+02  0.85622465357E+02  0.12700000000E+01 0.  1.
         -4   -1    0    0    0  501 -0.00000000000E+00 -0.00000000000E+00 -0.45607059756E+02  0.45624738899E+02  0.12700000000E+01 0.  1.
         25    2    1    2    0    0  0.00000000000E+00  0.00000000000E+00  0.40005986410E+02  0.13124720426E+03  0.12500139870E+03 0.  0.
    9000005    1    3    3    0    0 -0.50208332667E+01  0.19930314813E+02 -0.41961997620E+02  0.46735804899E+02  0.10000000000E+01 0.  0.
    9000005    1    3    3    0    0  0.50208332667E+01 -0.19930314813E+02  0.81967984030E+02  0.84511399357E+02  0.10000000000E+01 0.  0.
<mgrwt>
<rscale>  0 0.12500140E+03</rscale>
<asrwt>0</asrwt>
<pdfrwt beam="1">  1        4 0.13173322E-01 0.12500140E+03</pdfrwt>
<pdfrwt beam="2">  1       -4 0.70185554E-02 0.12500140E+03</pdfrwt>
<totfact> 0.10317467E+04</totfact>
</mgrwt>
</event>
<event>
 5    1  0.3321169E-002  0.1249995E+03  0.7818608E-02  0.1235070E+00
         -4   -1    0    0    0  501 -0.00000000000E+00  0.00000000000E+00  0.16777586664E+02  0.16825585109E+02  0.12700000000E+01 0. -1.
          4   -1    0    0  501    0  0.00000000000E+00 -0.00000000000E+00 -0.23244132522E+03  0.23244479467E+03  0.12700000000E+01 0. -1.
         25    2    1    2    0    0  0.00000000000E+00  0.00000000000E+00 -0.21566373855E+03  0.24927037978E+03  0.12499949643E+03 0.  0.
    9000005    1    3    3    0    0 -0.42452316087E+02 -0.30919414766E+02 -0.40294232802E+02  0.66202979901E+02  0.10000000000E+01 0.  0.
    9000005    1    3    3    0    0  0.42452316087E+02  0.30919414766E+02 -0.17536950575E+03  0.18306739988E+03  0.10000000000E+01 0.  0.
<mgrwt>
<rscale>  0 0.12499950E+03</rscale>
<asrwt>0</asrwt>
<pdfrwt beam="2">  1        4 0.35764161E-01 0.12499950E+03</pdfrwt>
<pdfrwt beam="1">  1       -4 0.25851264E-02 0.12499950E+03</pdfrwt>
<totfact> 0.82436721E+03</totfact>
</mgrwt>
</event>
<event>
 5    1  0.3321169E-002  0.1250019E+03  0.7818608E-02  0.1235066E+00
         -4   -1    0    0    0  501 -0.00000000000E+00  0.00000000000E+00  0.20684300579E+02  0.20723252410E+02  0.12700000000E+01 0.  1.
          4   -1    0    0  501    0  0.00000000000E+00 -0.00000000000E+00 -0.18863809244E+03  0.18864236751E+03  0.12700000000E+01 0.  1.
         25    2    1    2    0    0  0.00000000000E+00  0.00000000000E+00 -0.16795379187E+03  0.20936561992E+03  0.12500194640E+03 0.  0.
    9000005    1    3    3    0    0  0.31443997788E+02 -0.95066239987E+01 -0.17301901238E+03  0.17611268989E+03  0.10000000000E+01 0.  0.
    9000005    1    3    3    0    0 -0.31443997788E+02  0.95066239987E+01  0.50652205136E+01  0.33252930030E+02  0.10000000000E+01 0.  0.
<mgrwt>
<rscale>  0 0.12500195E+03</rscale>
<asrwt>0</asrwt>
<pdfrwt beam="2">  1        4 0.29024569E-01 0.12500195E+03</pdfrwt>
<pdfrwt beam="1">  1       -4 0.31855253E-02 0.12500195E+03</pdfrwt>
<totfact> 0.88575734E+03</totfact>
</mgrwt>
</event>
<event>
 5    1  0.3321169E-002  0.1250170E+03  0.7818608E-02  0.1235043E+00
         -4   -1    0    0    0  501 -0.00000000000E+00  0.00000000000E+00  0.42863987969E+03  0.42864176111E+03  0.12700000000E+01 0. -1.
          4   -1    0    0  501    0  0.00000000000E+00 -0.00000000000E+00 -0.90694551544E+01  0.91579428256E+01  0.12700000000E+01 0. -1.
         25    2    1    2    0    0  0.00000000000E+00  0.00000000000E+00  0.41957042454E+03  0.43779970393E+03  0.12501695731E+03 0.  0.
    9000005    1    3    3    0    0 -0.16660379152E+02 -0.55384104937E+01 -0.27374381191E+00  0.17587414817E+02  0.10000000000E+01 0.  0.
    9000005    1    3    3    0    0  0.16660379152E+02  0.55384104937E+01  0.41984416835E+03  0.42021228911E+03  0.10000000000E+01 0.  0.
<mgrwt>
<rscale>  0 0.12501696E+03</rscale>
<asrwt>0</asrwt>
<pdfrwt beam="2">  1        4 0.14022521E-02 0.12501696E+03</pdfrwt>
<pdfrwt beam="1">  1       -4 0.65951557E-01 0.12501696E+03</pdfrwt>
<totfact> 0.61012490E+03</totfact>
</mgrwt>
</event>
<event>
 5    1  0.3321169E-002  0.1250002E+03  0.7818608E-02  0.1235069E+00
         -4   -1    0    0    0  501 -0.00000000000E+00  0.00000000000E+00  0.49235944794E+02  0.49252321364E+02  0.12700000000E+01 0.  1.
          4   -1    0    0  501    0  0.00000000000E+00 -0.00000000000E+00 -0.79303001101E+02  0.79313169673E+02  0.12700000000E+01 0.  1.
         25    2    1    2    0    0  0.00000000000E+00  0.00000000000E+00 -0.30067056307E+02  0.12856549104E+03  0.12500023044E+03 0.  0.
    9000005    1    3    3    0    0 -0.60107358778E+02  0.11643364868E+02 -0.21543180205E+01  0.61270740251E+02  0.10000000000E+01 0.  0.
    9000005    1    3    3    0    0  0.60107358778E+02 -0.11643364868E+02 -0.27912738287E+02  0.67294750786E+02  0.10000000000E+01 0.  0.
<mgrwt>
<rscale>  0 0.12500023E+03</rscale>
<asrwt>0</asrwt>
<pdfrwt beam="2">  1        4 0.12202504E-01 0.12500023E+03</pdfrwt>
<pdfrwt beam="1">  1       -4 0.75768027E-02 0.12500023E+03</pdfrwt>
<totfact> 0.10375239E+04</totfact>
</mgrwt>
</event>
<event>
 5    1  0.3321169E-002  0.1250011E+03  0.7818608E-02  0.1235068E+00
         -4   -1    0    0    0  501 -0.00000000000E+00  0.00000000000E+00  0.58423669834E+02  0.58437471684E+02  0.12700000000E+01 0.  1.
          4   -1    0    0  501    0  0.00000000000E+00 -0.00000000000E+00 -0.66834201049E+02  0.66846266387E+02  0.12700000000E+01 0.  1.
         25    2    1    2    0    0  0.00000000000E+00  0.00000000000E+00 -0.84105312148E+01  0.12528373807E+03  0.12500111195E+03 0.  0.
    9000005    1    3    3    0    0 -0.11605546641E+02 -0.52729786363E+02 -0.35743863243E+02  0.64759113971E+02  0.10000000000E+01 0.  0.
    9000005    1    3    3    0    0  0.11605546641E+02  0.52729786363E+02  0.27333332028E+02  0.60524624100E+02  0.10000000000E+01 0.  0.
<mgrwt>
<rscale>  0 0.12500111E+03</rscale>
<asrwt>0</asrwt>
<pdfrwt beam="2">  1        4 0.10284175E-01 0.12500111E+03</pdfrwt>
<pdfrwt beam="1">  1       -4 0.89902467E-02 0.12500111E+03</pdfrwt>
<totfact> 0.10446440E+04</totfact>
</mgrwt>
</event>
<event>
 5    1  0.3321169E-002  0.1250020E+03  0.7818608E-02  0.1235066E+00
          4   -1    0    0  501    0  0.00000000000E+00  0.00000000000E+00  0.13503527763E+03  0.13504124964E+03  0.12700000000E+01 0. -1.
         -4   -1    0    0    0  501 -0.00000000000E+00 -0.00000000000E+00 -0.28908001436E+02  0.28935885109E+02  0.12700000000E+01 0. -1.
         25    2    1    2    0    0  0.00000000000E+00  0.00000000000E+00  0.10612727620E+03  0.16397713475E+03  0.12500200786E+03 0.  0.
    9000005    1    3    3    0    0 -0.10045488141E+02  0.55762792202E+02  0.87645692630E+02  0.10437034187E+03  0.10000000000E+01 0.  0.
    9000005    1    3    3    0    0  0.10045488141E+02 -0.55762792202E+02  0.18481583567E+02  0.59606792879E+02  0.10000000000E+01 0.  0.
<mgrwt>
<rscale>  0 0.12500201E+03</rscale>
<asrwt>0</asrwt>
<pdfrwt beam="1">  1        4 0.20777262E-01 0.12500201E+03</pdfrwt>
<pdfrwt beam="2">  1       -4 0.44499891E-02 0.12500201E+03</pdfrwt>
<totfact> 0.96577101E+03</totfact>
</mgrwt>
</event>
<event>
 5    1  0.3321169E-002  0.1249936E+03  0.7818608E-02  0.1235079E+00
          4   -1    0    0  501    0  0.00000000000E+00  0.00000000000E+00  0.58567797838E+02  0.58581565732E+02  0.12700000000E+01 0.  1.
         -4   -1    0    0    0  501 -0.00000000000E+00 -0.00000000000E+00 -0.66661746116E+02  0.66673842662E+02  0.12700000000E+01 0.  1.
         25    2    1    2    0    0  0.00000000000E+00  0.00000000000E+00 -0.80939482783E+01  0.12525540839E+03  0.12499362117E+03 0.  0.
    9000005    1    3    3    0    0  0.59524439354E+02 -0.63014860946E+01  0.13934512636E+02  0.61465748591E+02  0.10000000000E+01 0.  0.
    9000005    1    3    3    0    0 -0.59524439354E+02  0.63014860946E+01 -0.22028460914E+02  0.63789659802E+02  0.10000000000E+01 0.  0.
<mgrwt>
<rscale>  0 0.12499362E+03</rscale>
<asrwt>0</asrwt>
<pdfrwt beam="1">  1        4 0.90124200E-02 0.12499362E+03</pdfrwt>
<pdfrwt beam="2">  1       -4 0.10257643E-01 0.12499362E+03</pdfrwt>
<totfact> 0.10448824E+04</totfact>
</mgrwt>
</event>
<event>
 5    1  0.3321169E-002  0.1250035E+03  0.7818608E-02  0.1235064E+00
          4   -1    0    0  501    0  0.00000000000E+00  0.00000000000E+00  0.69012074946E+02  0.69023759593E+02  0.12700000000E+01 0.  1.
         -4   -1    0    0    0  501 -0.00000000000E+00 -0.00000000000E+00 -0.56582014813E+02  0.56596265781E+02  0.12700000000E+01 0.  1.
         25    2    1    2    0    0  0.00000000000E+00  0.00000000000E+00  0.12430060133E+02  0.12562002537E+03  0.12500353747E+03 0.  0.
    9000005    1    3    3    0    0  0.25043845123E+01  0.31705652877E+02  0.60275789204E+02  0.68159306997E+02  0.10000000000E+01 0.  0.
    9000005    1    3    3    0    0 -0.25043845123E+01 -0.31705652877E+02 -0.47845729070E+02  0.57460718377E+02  0.10000000000E+01 0.  0.
<mgrwt>
<rscale>  0 0.12500354E+03</rscale>
<asrwt>0</asrwt>
<pdfrwt beam="1">  1        4 0.10619237E-01 0.12500354E+03</pdfrwt>
<pdfrwt beam="2">  1       -4 0.87069204E-02 0.12500354E+03</pdfrwt>
<totfact> 0.10438473E+04</totfact>
</mgrwt>
</event>
<event>
 4    1  0.3321169E-002  0.1250908E+03  0.7818608E-02  0.1234928E+00
          4   -1    0    0  501    0  0.00000000000E+00  0.00000000000E+00  0.17646826051E+03  0.17647283040E+03  0.12700000000E+01 0.  1.
         -4   -1    0    0    0  501 -0.00000000000E+00 -0.00000000000E+00 -0.22144812029E+02  0.22181199242E+02  0.12700000000E+01 0.  1.
    9000005    1    1    2    0    0 -0.61127613526E+02 -0.11967375991E+02  0.68302439267E+02  0.92444720960E+02  0.10000000000E+01 0.  0.
    9000005    1    1    2    0    0  0.61127613526E+02  0.11967375991E+02  0.86021009217E+02  0.10620930868E+03  0.10000000000E+01 0.  0.
<mgrwt>
<rscale>  0 0.12509075E+03</rscale>
<asrwt>0</asrwt>
<pdfrwt beam="1">  1        4 0.27152113E-01 0.12509075E+03</pdfrwt>
<pdfrwt beam="2">  1       -4 0.34100448E-02 0.12509075E+03</pdfrwt>
<totfact> 0.90179665E+03</totfact>
</mgrwt>
</event>
<event>
 5    1  0.3321169E-002  0.1249968E+03  0.7818608E-02  0.1235074E+00
          4   -1    0    0  501    0  0.00000000000E+00  0.00000000000E+00  0.12184932709E+03  0.12185594533E+03  0.12700000000E+01 0. -1.
         -4   -1    0    0    0  501 -0.00000000000E+00 -0.00000000000E+00 -0.32036341482E+02  0.32061504574E+02  0.12700000000E+01 0. -1.
         25    2    1    2    0    0  0.00000000000E+00  0.00000000000E+00  0.89812985606E+02  0.15391744990E+03  0.12499683596E+03 0.  0.
    9000005    1    3    3    0    0  0.90188633095E+01  0.30359069245E+02 -0.21428163292E+02  0.38251524975E+02  0.10000000000E+01 0.  0.
    9000005    1    3    3    0    0 -0.90188633095E+01 -0.30359069245E+02  0.11124114890E+03  0.11566592493E+03  0.10000000000E+01 0.  0.
<mgrwt>
<rscale>  0 0.12499684E+03</rscale>
<asrwt>0</asrwt>
<pdfrwt beam="1">  1        4 0.18748495E-01 0.12499684E+03</pdfrwt>
<pdfrwt beam="2">  1       -4 0.49311126E-02 0.12499684E+03</pdfrwt>
<totfact> 0.98535449E+03</totfact>
</mgrwt>
</event>
<event>
 5    1  0.3321169E-002  0.1250003E+03  0.7818608E-02  0.1235069E+00
         -4   -1    0    0    0  501 -0.00000000000E+00  0.00000000000E+00  0.31139705414E+02  0.31165592458E+02  0.12700000000E+01 0. -1.
          4   -1    0    0  501    0  0.00000000000E+00 -0.00000000000E+00 -0.12536219087E+03  0.12536862366E+03  0.12700000000E+01 0. -1.
         25    2    1    2    0    0  0.00000000000E+00  0.00000000000E+00 -0.94222485453E+02  0.15653421612E+03  0.12500033621E+03 0.  0.
    9000005    1    3    3    0    0  0.42546226668E+02  0.64855840142E+01  0.96295516874E+01  0.44113177956E+02  0.10000000000E+01 0.  0.
    9000005    1    3    3    0    0 -0.42546226668E+02 -0.64855840142E+01 -0.10385203714E+03  0.11242103816E+03  0.10000000000E+01 0.  0.
<mgrwt>
<rscale>  0 0.12500034E+03</rscale>
<asrwt>0</asrwt>
<pdfrwt beam="2">  1        4 0.19288977E-01 0.12500034E+03</pdfrwt>
<pdfrwt beam="1">  1       -4 0.47932101E-02 0.12500034E+03</pdfrwt>
<totfact> 0.98014411E+03</totfact>
</mgrwt>
</event>
<event>
 5    1  0.3321169E-002  0.1249963E+03  0.7818608E-02  0.1235075E+00
          4   -1    0    0  501    0  0.00000000000E+00  0.00000000000E+00  0.35897927228E+03  0.35898151878E+03  0.12700000000E+01 0.  1.
         -4   -1    0    0    0  501 -0.00000000000E+00 -0.00000000000E+00 -0.10841559042E+02  0.10915690655E+02  0.12700000000E+01 0.  1.
         25    2    1    2    0    0  0.00000000000E+00  0.00000000000E+00  0.34813771324E+03  0.36989720944E+03  0.12499631263E+03 0.  0.
    9000005    1    3    3    0    0  0.23286307724E+02 -0.56846486034E+02  0.14016693529E+03  0.15304099076E+03  0.10000000000E+01 0.  0.
    9000005    1    3    3    0    0 -0.23286307724E+02  0.56846486034E+02  0.20797077794E+03  0.21685621868E+03  0.10000000000E+01 0.  0.
<mgrwt>
<rscale>  0 0.12499631E+03</rscale>
<asrwt>0</asrwt>
<pdfrwt beam="1">  1        4 0.55233452E-01 0.12499631E+03</pdfrwt>
<pdfrwt beam="2">  1       -4 0.16738075E-02 0.12499631E+03</pdfrwt>
<totfact> 0.67595203E+03</totfact>
</mgrwt>
</event>
<event>
 5    1  0.3321169E-002  0.1250006E+03  0.7818608E-02  0.1235068E+00
         -4   -1    0    0    0  501 -0.00000000000E+00  0.00000000000E+00  0.54957563836E+01  0.56405884646E+01  0.12700000000E+01 0.  1.
          4   -1    0    0  501    0  0.00000000000E+00 -0.00000000000E+00 -0.70139260777E+03  0.70139375755E+03  0.12700000000E+01 0.  1.
         25    2    1    2    0    0  0.00000000000E+00  0.00000000000E+00 -0.69589685138E+03  0.70703434602E+03  0.12500055472E+03 0.  0.
    9000005    1    3    3    0    0  0.53578591881E+02  0.29088370692E+02 -0.42560316209E+03  0.42994866019E+03  0.10000000000E+01 0.  0.
    9000005    1    3    3    0    0 -0.53578591881E+02 -0.29088370692E+02 -0.27029368929E+03  0.27708568583E+03  0.10000000000E+01 0.  0.
<mgrwt>
<rscale>  0 0.12500055E+03</rscale>
<asrwt>0</asrwt>
<pdfrwt beam="2">  1        4 0.10791771E+00 0.12500055E+03</pdfrwt>
<pdfrwt beam="1">  1       -4 0.85673091E-03 0.12500055E+03</pdfrwt>
<totfact> 0.42717460E+03</totfact>
</mgrwt>
</event>
<event>
 5    1  0.3321169E-002  0.1249998E+03  0.7818608E-02  0.1235070E+00
         -4   -1    0    0    0  501 -0.00000000000E+00  0.00000000000E+00  0.11779831842E+03  0.11780516425E+03  0.12700000000E+01 0.  1.
          4   -1    0    0  501    0  0.00000000000E+00 -0.00000000000E+00 -0.33140426333E+02  0.33164751733E+02  0.12700000000E+01 0.  1.
         25    2    1    2    0    0  0.00000000000E+00  0.00000000000E+00  0.84657892089E+02  0.15096991598E+03  0.12499982735E+03 0.  0.
    9000005    1    3    3    0    0  0.23802433134E+02 -0.37883440078E+02  0.95022886375E+02  0.10503361267E+03  0.10000000000E+01 0.  0.
    9000005    1    3    3    0    0 -0.23802433134E+02  0.37883440078E+02 -0.10364994286E+02  0.45936303310E+02  0.10000000000E+01 0.  0.
<mgrwt>
<rscale>  0 0.12499983E+03</rscale>
<asrwt>0</asrwt>
<pdfrwt beam="2">  1        4 0.51009249E-02 0.12499983E+03</pdfrwt>
<pdfrwt beam="1">  1       -4 0.18125216E-01 0.12499983E+03</pdfrwt>
<totfact> 0.99111095E+03</totfact>
</mgrwt>
</event>
<event>
 5    1  0.3321169E-002  0.1250040E+03  0.7818608E-02  0.1235063E+00
          4   -1    0    0  501    0  0.00000000000E+00  0.00000000000E+00  0.76251419471E+02  0.76261994934E+02  0.12700000000E+01 0.  1.
         -4   -1    0    0    0  501 -0.00000000000E+00 -0.00000000000E+00 -0.51209794802E+02  0.51225540345E+02  0.12700000000E+01 0.  1.
         25    2    1    2    0    0  0.00000000000E+00  0.00000000000E+00  0.25041624669E+02  0.12748753528E+03  0.12500395468E+03 0.  0.
    9000005    1    3    3    0    0  0.16365486120E+01  0.50755297616E+02  0.49668637108E+02  0.71040495772E+02  0.10000000000E+01 0.  0.
    9000005    1    3    3    0    0 -0.16365486120E+01 -0.50755297616E+02 -0.24627012438E+02  0.56447039507E+02  0.10000000000E+01 0.  0.
<mgrwt>
<rscale>  0 0.12500395E+03</rscale>
<asrwt>0</asrwt>
<pdfrwt beam="1">  1        4 0.11733012E-01 0.12500395E+03</pdfrwt>
<pdfrwt beam="2">  1       -4 0.78804547E-02 0.12500395E+03</pdfrwt>
<totfact> 0.10397642E+04</totfact>
</mgrwt>
</event>
<event>
 5    1  0.3321169E-002  0.1250052E+03  0.7818608E-02  0.1235061E+00
         -4   -1    0    0    0  501 -0.00000000000E+00  0.00000000000E+00  0.40251461738E+01  0.42207465833E+01  0.12700000000E+01 0.  1.
          4   -1    0    0  501    0  0.00000000000E+00 -0.00000000000E+00 -0.94732469390E+03  0.94732554520E+03  0.12700000000E+01 0.  1.
         25    2    1    2    0    0  0.00000000000E+00  0.00000000000E+00 -0.94329954773E+03  0.95154629178E+03  0.12500523449E+03 0.  0.
    9000005    1    3    3    0    0 -0.29481496782E+02  0.29342665552E+02 -0.11661251802E+03  0.12381288315E+03  0.10000000000E+01 0.  0.
    9000005    1    3    3    0    0  0.29481496782E+02 -0.29342665552E+02 -0.82668702971E+03  0.82773340863E+03  0.10000000000E+01 0.  0.
<mgrwt>
<rscale>  0 0.12500523E+03</rscale>
<asrwt>0</asrwt>
<pdfrwt beam="2">  1        4 0.14575720E+00 0.12500523E+03</pdfrwt>
<pdfrwt beam="1">  1       -4 0.63436568E-03 0.12500523E+03</pdfrwt>
<totfact> 0.32257488E+03</totfact>
</mgrwt>
</event>
<event>
 5    1  0.3321169E-002  0.1249992E+03  0.7818608E-02  0.1235071E+00
          4   -1    0    0  501    0  0.00000000000E+00  0.00000000000E+00  0.67645791817E+02  0.67657712424E+02  0.12700000000E+01 0.  1.
         -4   -1    0    0    0  501 -0.00000000000E+00 -0.00000000000E+00 -0.57720894693E+02  0.57734864546E+02  0.12700000000E+01 0.  1.
         25    2    1    2    0    0  0.00000000000E+00  0.00000000000E+00  0.99248971237E+01  0.12539257697E+03  0.12499917910E+03 0.  0.
    9000005    1    3    3    0    0  0.27007066740E+02 -0.56190888734E+02  0.92655950256E+01  0.63036885090E+02  0.10000000000E+01 0.  0.
    9000005    1    3    3    0    0 -0.27007066740E+02  0.56190888734E+02  0.65930209810E+00  0.62355691881E+02  0.10000000000E+01 0.  0.
<mgrwt>
<rscale>  0 0.12499918E+03</rscale>
<asrwt>0</asrwt>
<pdfrwt beam="1">  1        4 0.10409036E-01 0.12499918E+03</pdfrwt>
<pdfrwt beam="2">  1       -4 0.88821293E-02 0.12499918E+03</pdfrwt>
<totfact> 0.10444525E+04</totfact>
</mgrwt>
</event>
<event>
 5    1  0.3321169E-002  0.1249964E+03  0.7818608E-02  0.1235075E+00
         -4   -1    0    0    0  501 -0.00000000000E+00  0.00000000000E+00  0.22629225425E+03  0.22629581798E+03  0.12700000000E+01 0.  1.
          4   -1    0    0  501    0  0.00000000000E+00 -0.00000000000E+00 -0.17233913755E+02  0.17280644760E+02  0.12700000000E+01 0.  1.
         25    2    1    2    0    0  0.00000000000E+00  0.00000000000E+00  0.20905834049E+03  0.24357646274E+03  0.12499641382E+03 0.  0.
    9000005    1    3    3    0    0 -0.31725074971E+02 -0.41761245363E+02  0.38316212833E+02  0.64958557266E+02  0.10000000000E+01 0.  0.
    9000005    1    3    3    0    0  0.31725074971E+02  0.41761245363E+02  0.17074212766E+03  0.17861790547E+03  0.10000000000E+01 0.  0.
<mgrwt>
<rscale>  0 0.12499641E+03</rscale>
<asrwt>0</asrwt>
<pdfrwt beam="2">  1        4 0.26552401E-02 0.12499641E+03</pdfrwt>
<pdfrwt beam="1">  1       -4 0.34818062E-01 0.12499641E+03</pdfrwt>
<totfact> 0.83274238E+03</totfact>
</mgrwt>
</event>
<event>
 5    1  0.3321169E-002  0.1249605E+03  0.7818608E-02  0.1235131E+00
          4   -1    0    0  501    0  0.00000000000E+00  0.00000000000E+00  0.54736081021E+01  0.56190110923E+01  0.12700000000E+01 0.  1.
         -4   -1    0    0    0  501 -0.00000000000E+00 -0.00000000000E+00 -0.70370567363E+03  0.70370681963E+03  0.12700000000E+01 0.  1.
         25    2    1    2    0    0  0.00000000000E+00  0.00000000000E+00 -0.69823206553E+03  0.70932583073E+03  0.12496046096E+03 0.  0.
    9000005    1    3    3    0    0  0.57273076511E+02 -0.23307599452E+02 -0.29855789072E+03  0.30489549619E+03  0.10000000000E+01 0.  0.
    9000005    1    3    3    0    0 -0.57273076511E+02  0.23307599452E+02 -0.39967417481E+03  0.40443033453E+03  0.10000000000E+01 0.  0.
<mgrwt>
<rscale>  0 0.12496046E+03</rscale>
<asrwt>0</asrwt>
<pdfrwt beam="1">  1        4 0.85336711E-03 0.12496046E+03</pdfrwt>
<pdfrwt beam="2">  1       -4 0.10827361E+00 0.12496046E+03</pdfrwt>
<totfact> 0.42635841E+03</totfact>
</mgrwt>
</event>
<event>
 5    1  0.3321169E-002  0.1250006E+03  0.7818608E-02  0.1235068E+00
          4   -1    0    0  501    0  0.00000000000E+00  0.00000000000E+00  0.55474184356E+01  0.56909358896E+01  0.12700000000E+01 0. -1.
         -4   -1    0    0    0  501 -0.00000000000E+00 -0.00000000000E+00 -0.69502692104E+03  0.69502808136E+03  0.12700000000E+01 0. -1.
         25    2    1    2    0    0  0.00000000000E+00  0.00000000000E+00 -0.68947950261E+03  0.70071901725E+03  0.12500062646E+03 0.  0.
    9000005    1    3    3    0    0 -0.59566036775E+02 -0.18270796704E+02 -0.37183019471E+03  0.37701542202E+03  0.10000000000E+01 0.  0.
    9000005    1    3    3    0    0  0.59566036775E+02  0.18270796704E+02 -0.31764930790E+03  0.32370359522E+03  0.10000000000E+01 0.  0.
<mgrwt>
<rscale>  0 0.12500063E+03</rscale>
<asrwt>0</asrwt>
<pdfrwt beam="1">  1        4 0.86457860E-03 0.12500063E+03</pdfrwt>
<pdfrwt beam="2">  1       -4 0.10693828E+00 0.12500063E+03</pdfrwt>
<totfact> 0.43048194E+03</totfact>
</mgrwt>
</event>
<event>
 5    1  0.3321169E-002  0.1249983E+03  0.7818608E-02  0.1235072E+00
         -4   -1    0    0    0  501 -0.00000000000E+00  0.00000000000E+00  0.80789211343E+02  0.80799192876E+02  0.12700000000E+01 0.  1.
          4   -1    0    0  501    0  0.00000000000E+00 -0.00000000000E+00 -0.48328535080E+02  0.48345219029E+02  0.12700000000E+01 0.  1.
         25    2    1    2    0    0  0.00000000000E+00  0.00000000000E+00  0.32460676263E+02  0.12914441191E+03  0.12499833448E+03 0.  0.
    9000005    1    3    3    0    0  0.56335381299E+01  0.24064384755E+02  0.75530233099E+02  0.79477339397E+02  0.10000000000E+01 0.  0.
    9000005    1    3    3    0    0 -0.56335381299E+01 -0.24064384755E+02 -0.43069556836E+02  0.49667072508E+02  0.10000000000E+01 0.  0.
<mgrwt>
<rscale>  0 0.12499833E+03</rscale>
<asrwt>0</asrwt>
<pdfrwt beam="2">  1        4 0.74372105E-02 0.12499833E+03</pdfrwt>
<pdfrwt beam="1">  1       -4 0.12431161E-01 0.12499833E+03</pdfrwt>
<totfact> 0.10363234E+04</totfact>
</mgrwt>
</event>
<event>
 5    1  0.3321169E-002  0.1249985E+03  0.7818608E-02  0.1235072E+00
         -4   -1    0    0    0  501 -0.00000000000E+00  0.00000000000E+00  0.11398974502E+04  0.11398981577E+04  0.12700000000E+01 0.  1.
          4   -1    0    0  501    0  0.00000000000E+00 -0.00000000000E+00 -0.33083572164E+01  0.35437448372E+01  0.12700000000E+01 0.  1.
         25    2    1    2    0    0  0.00000000000E+00  0.00000000000E+00  0.11365890930E+04  0.11434419025E+04  0.12499847252E+03 0.  0.
    9000005    1    3    3    0    0 -0.31871920992E+02 -0.26920544264E+01  0.10593867259E+04  0.10598699455E+04  0.10000000000E+01 0.  0.
    9000005    1    3    3    0    0  0.31871920992E+02  0.26920544264E+01  0.77202367121E+02  0.83571956982E+02  0.10000000000E+01 0.  0.
<mgrwt>
<rscale>  0 0.12499847E+03</rscale>
<asrwt>0</asrwt>
<pdfrwt beam="2">  1        4 0.52713966E-03 0.12499847E+03</pdfrwt>
<pdfrwt beam="1">  1       -4 0.17538685E+00 0.12499847E+03</pdfrwt>
<totfact> 0.26243800E+03</totfact>
</mgrwt>
</event>
<event>
 5    1  0.3321169E-002  0.1250011E+03  0.7818608E-02  0.1235068E+00
          4   -1    0    0  501    0  0.00000000000E+00  0.00000000000E+00  0.59001175524E+02  0.59014842313E+02  0.12700000000E+01 0.  1.
         -4   -1    0    0    0  501 -0.00000000000E+00 -0.00000000000E+00 -0.66180059516E+02  0.66192244089E+02  0.12700000000E+01 0.  1.
         25    2    1    2    0    0  0.00000000000E+00  0.00000000000E+00 -0.71788839916E+01  0.12520708640E+03  0.12500111243E+03 0.  0.
    9000005    1    3    3    0    0 -0.60078005812E+02 -0.13865342219E+02 -0.13789788923E+02  0.63188391146E+02  0.10000000000E+01 0.  0.
    9000005    1    3    3    0    0  0.60078005812E+02  0.13865342219E+02  0.66109049310E+01  0.62018695255E+02  0.10000000000E+01 0.  0.
<mgrwt>
<rscale>  0 0.12500111E+03</rscale>
<asrwt>0</asrwt>
<pdfrwt beam="1">  1        4 0.90790925E-02 0.12500111E+03</pdfrwt>
<pdfrwt beam="2">  1       -4 0.10183536E-01 0.12500111E+03</pdfrwt>
<totfact> 0.10448104E+04</totfact>
</mgrwt>
</event>
<event>
 5    1  0.3321169E-002  0.1249982E+03  0.7818608E-02  0.1235072E+00
         -4   -1    0    0    0  501 -0.00000000000E+00  0.00000000000E+00  0.23511841336E+03  0.23512184331E+03  0.12700000000E+01 0. -1.
          4   -1    0    0  501    0  0.00000000000E+00 -0.00000000000E+00 -0.16585664236E+02  0.16634216488E+02  0.12700000000E+01 0. -1.
         25    2    1    2    0    0  0.00000000000E+00  0.00000000000E+00  0.21853274912E+03  0.25175605979E+03  0.12499820481E+03 0.  0.
    9000005    1    3    3    0    0 -0.48069837227E+01 -0.44117155925E+02  0.20653669026E+02  0.48959213470E+02  0.10000000000E+01 0.  0.
    9000005    1    3    3    0    0  0.48069837227E+01  0.44117155925E+02  0.19787908010E+03  0.20279684632E+03  0.10000000000E+01 0.  0.
<mgrwt>
<rscale>  0 0.12499820E+03</rscale>
<asrwt>0</asrwt>
<pdfrwt beam="2">  1        4 0.25556394E-02 0.12499820E+03</pdfrwt>
<pdfrwt beam="1">  1       -4 0.36176061E-01 0.12499820E+03</pdfrwt>
<totfact> 0.82080365E+03</totfact>
</mgrwt>
</event>
<event>
 5    1  0.3321169E-002  0.1249983E+03  0.7818608E-02  0.1235072E+00
          4   -1    0    0  501    0  0.00000000000E+00  0.00000000000E+00  0.94677036715E+03  0.94677121894E+03  0.12700000000E+01 0.  1.
         -4   -1    0    0    0  501 -0.00000000000E+00 -0.00000000000E+00 -0.40271515833E+01  0.42226591000E+01  0.12700000000E+01 0.  1.
         25    2    1    2    0    0  0.00000000000E+00  0.00000000000E+00  0.94274321557E+03  0.95099387804E+03  0.12499834228E+03 0.  0.
    9000005    1    3    3    0    0  0.42307359439E+02 -0.39471632735E+02  0.65096417185E+03  0.65353138830E+03  0.10000000000E+01 0.  0.
    9000005    1    3    3    0    0 -0.42307359439E+02  0.39471632735E+02  0.29177904371E+03  0.29746248974E+03  0.10000000000E+01 0.  0.
<mgrwt>
<rscale>  0 0.12499834E+03</rscale>
<asrwt>0</asrwt>
<pdfrwt beam="1">  1        4 0.14567222E+00 0.12499834E+03</pdfrwt>
<pdfrwt beam="2">  1       -4 0.63466577E-03 0.12499834E+03</pdfrwt>
<totfact> 0.32281845E+03</totfact>
</mgrwt>
</event>
<event>
 5    1  0.3321169E-002  0.1250038E+03  0.7818608E-02  0.1235063E+00
          4   -1    0    0  501    0  0.00000000000E+00  0.00000000000E+00  0.22785760347E+04  0.22785763886E+04  0.12700000000E+01 0.  1.
         -4   -1    0    0    0  501 -0.00000000000E+00 -0.00000000000E+00 -0.14788481934E+01  0.19493311620E+01  0.12700000000E+01 0.  1.
         25    2    1    2    0    0  0.00000000000E+00  0.00000000000E+00  0.22770971865E+04  0.22805257198E+04  0.12500384723E+03 0.  0.
    9000005    1    3    3    0    0  0.38130306657E+01 -0.60243158359E+02  0.84341112613E+03  0.84556910126E+03  0.10000000000E+01 0.  0.
    9000005    1    3    3    0    0 -0.38130306657E+01  0.60243158359E+02  0.14336860603E+04  0.14349566185E+04  0.10000000000E+01 0.  0.
<mgrwt>
<rscale>  0 0.12500385E+03</rscale>
<asrwt>0</asrwt>
<pdfrwt beam="1">  1        4 0.35058524E+00 0.12500385E+03</pdfrwt>
<pdfrwt beam="2">  1       -4 0.26373418E-03 0.12500385E+03</pdfrwt>
<totfact> 0.66292356E+02</totfact>
</mgrwt>
</event>
<event>
 5    1  0.3321169E-002  0.1249994E+03  0.7818608E-02  0.1235070E+00
         -4   -1    0    0    0  501 -0.00000000000E+00  0.00000000000E+00  0.18800604893E+03  0.18801033837E+03  0.12700000000E+01 0. -1.
          4   -1    0    0  501    0  0.00000000000E+00 -0.00000000000E+00 -0.20753105543E+02  0.20791928474E+02  0.12700000000E+01 0. -1.
         25    2    1    2    0    0  0.00000000000E+00  0.00000000000E+00  0.16725294339E+03  0.20880226685E+03  0.12499935827E+03 0.  0.
    9000005    1    3    3    0    0 -0.16751017364E+02  0.48347413576E+02  0.14355594664E+03  0.15240531093E+03  0.10000000000E+01 0.  0.
    9000005    1    3    3    0    0  0.16751017364E+02 -0.48347413576E+02  0.23696996745E+02  0.56396955919E+02  0.10000000000E+01 0.  0.
<mgrwt>
<rscale>  0 0.12499936E+03</rscale>
<asrwt>0</asrwt>
<pdfrwt beam="2">  1        4 0.31961017E-02 0.12499936E+03</pdfrwt>
<pdfrwt beam="1">  1       -4 0.28927325E-01 0.12499936E+03</pdfrwt>
<totfact> 0.88673132E+03</totfact>
</mgrwt>
</event>
<event>
 5    1  0.3321169E-002  0.1250122E+03  0.7818608E-02  0.1235050E+00
         -4   -1    0    0    0  501 -0.00000000000E+00  0.00000000000E+00  0.13891166323E+04  0.13891172128E+04  0.12700000000E+01 0. -1.
          4   -1    0    0  501    0  0.00000000000E+00 -0.00000000000E+00 -0.26686109488E+01  0.29553991940E+01  0.12700000000E+01 0. -1.
         25    2    1    2    0    0  0.00000000000E+00  0.00000000000E+00  0.13864480214E+04  0.13920726120E+04  0.12501216457E+03 0.  0.
    9000005    1    3    3    0    0  0.48534520800E+02  0.30560537023E+02  0.41674412508E+03  0.42067352177E+03  0.10000000000E+01 0.  0.
    9000005    1    3    3    0    0 -0.48534520800E+02 -0.30560537023E+02  0.96970389627E+03  0.97139909027E+03  0.10000000000E+01 0.  0.
<mgrwt>
<rscale>  0 0.12501216E+03</rscale>
<asrwt>0</asrwt>
<pdfrwt beam="2">  1        4 0.43266018E-03 0.12501216E+03</pdfrwt>
<pdfrwt beam="1">  1       -4 0.21373267E+00 0.12501216E+03</pdfrwt>
<totfact> 0.20146287E+03</totfact>
</mgrwt>
</event>
<event>
 4    1  0.3321169E-002  0.1205689E+03  0.7818608E-02  0.1242162E+00
          4   -1    0    0  501    0  0.00000000000E+00  0.00000000000E+00  0.31981782548E+03  0.31982034706E+03  0.12700000000E+01 0. -1.
         -4   -1    0    0    0  501 -0.00000000000E+00 -0.00000000000E+00 -0.11325327944E+02  0.11396313134E+02  0.12700000000E+01 0. -1.
    9000005    1    1    2    0    0  0.14199648142E+02 -0.33114042746E+02  0.21499323538E+02  0.41968925968E+02  0.10000000000E+01 0.  0.
    9000005    1    1    2    0    0 -0.14199648142E+02  0.33114042746E+02  0.28699317400E+03  0.28924773423E+03  0.10000000000E+01 0.  0.
<mgrwt>
<rscale>  0 0.12056888E+03</rscale>
<asrwt>0</asrwt>
<pdfrwt beam="1">  1        4 0.49208392E-01 0.12056888E+03</pdfrwt>
<pdfrwt beam="2">  1       -4 0.17480127E-02 0.12056888E+03</pdfrwt>
<totfact> 0.79376312E+03</totfact>
</mgrwt>
</event>
<event>
 5    1  0.3321169E-002  0.1250010E+03  0.7818608E-02  0.1235068E+00
          4   -1    0    0  501    0  0.00000000000E+00  0.00000000000E+00  0.15977490807E+03  0.15977995540E+03  0.12700000000E+01 0.  1.
         -4   -1    0    0    0  501 -0.00000000000E+00 -0.00000000000E+00 -0.24426907357E+02  0.24459899898E+02  0.12700000000E+01 0.  1.
         25    2    1    2    0    0  0.00000000000E+00  0.00000000000E+00  0.13534800071E+03  0.18423985530E+03  0.12500097193E+03 0.  0.
    9000005    1    3    3    0    0 -0.56927727559E+02  0.11657983826E+02  0.10156220485E+03  0.11701519647E+03  0.10000000000E+01 0.  0.
    9000005    1    3    3    0    0  0.56927727559E+02 -0.11657983826E+02  0.33785795859E+02  0.67224658822E+02  0.10000000000E+01 0.  0.
<mgrwt>
<rscale>  0 0.12500097E+03</rscale>
<asrwt>0</asrwt>
<pdfrwt beam="1">  1        4 0.24583680E-01 0.12500097E+03</pdfrwt>
<pdfrwt beam="2">  1       -4 0.37609120E-02 0.12500097E+03</pdfrwt>
<totfact> 0.92857313E+03</totfact>
</mgrwt>
</event>
<event>
 5    1  0.3321169E-002  0.1249810E+03  0.7818608E-02  0.1235099E+00
          4   -1    0    0  501    0  0.00000000000E+00  0.00000000000E+00  0.23161737111E+02  0.23196529180E+02  0.12700000000E+01 0. -1.
         -4   -1    0    0    0  501 -0.00000000000E+00 -0.00000000000E+00 -0.16843591086E+03  0.16844069867E+03  0.12700000000E+01 0. -1.
         25    2    1    2    0    0  0.00000000000E+00  0.00000000000E+00 -0.14527417375E+03  0.19163722785E+03  0.12498096470E+03 0.  0.
    9000005    1    3    3    0    0 -0.20907435333E+02  0.28667794268E+02 -0.15149709497E+03  0.15559991345E+03  0.10000000000E+01 0.  0.
    9000005    1    3    3    0    0  0.20907435333E+02 -0.28667794268E+02  0.62229212231E+01  0.36037314397E+02  0.10000000000E+01 0.  0.
<mgrwt>
<rscale>  0 0.12498096E+03</rscale>
<asrwt>0</asrwt>
<pdfrwt beam="1">  1        4 0.35663889E-02 0.12498096E+03</pdfrwt>
<pdfrwt beam="2">  1       -4 0.25916261E-01 0.12498096E+03</pdfrwt>
<totfact> 0.91602267E+03</totfact>
</mgrwt>
</event>
<event>
 5    1  0.3321169E-002  0.1249994E+03  0.7818608E-02  0.1235070E+00
          4   -1    0    0  501    0  0.00000000000E+00  0.00000000000E+00  0.67720400712E+01  0.68900962784E+01  0.12700000000E+01 0. -1.
         -4   -1    0    0    0  501 -0.00000000000E+00 -0.00000000000E+00 -0.57171147035E+03  0.57171288094E+03  0.12700000000E+01 0. -1.
         25    2    1    2    0    0  0.00000000000E+00  0.00000000000E+00 -0.56493943028E+03  0.57860297722E+03  0.12499938144E+03 0.  0.
    9000005    1    3    3    0    0 -0.44530148573E+01  0.18814646629E+02 -0.55754128586E+03  0.55787732138E+03  0.10000000000E+01 0.  0.
    9000005    1    3    3    0    0  0.44530148573E+01 -0.18814646629E+02 -0.73981444194E+01  0.20725655839E+02  0.10000000000E+01 0.  0.
<mgrwt>
<rscale>  0 0.12499938E+03</rscale>
<asrwt>0</asrwt>
<pdfrwt beam="1">  1        4 0.10510425E-02 0.12499938E+03</pdfrwt>
<pdfrwt beam="2">  1       -4 0.87964763E-01 0.12499938E+03</pdfrwt>
<totfact> 0.50247417E+03</totfact>
</mgrwt>
</event>
<event>
 5    1  0.3321169E-002  0.1249994E+03  0.7818608E-02  0.1235070E+00
         -4   -1    0    0    0  501 -0.00000000000E+00  0.00000000000E+00  0.52241581381E+03  0.52241735750E+03  0.12700000000E+01 0.  1.
          4   -1    0    0  501    0  0.00000000000E+00 -0.00000000000E+00 -0.74217218064E+01  0.75295985664E+01  0.12700000000E+01 0.  1.
         25    2    1    2    0    0  0.00000000000E+00  0.00000000000E+00  0.51499409200E+03  0.52994695606E+03  0.12499944579E+03 0.  0.
    9000005    1    3    3    0    0  0.47403420612E+02 -0.40069855951E+02  0.22676723242E+03  0.23511072996E+03  0.10000000000E+01 0.  0.
    9000005    1    3    3    0    0 -0.47403420612E+02  0.40069855951E+02  0.28822685958E+03  0.29483622610E+03  0.10000000000E+01 0.  0.
<mgrwt>
<rscale>  0 0.12499945E+03</rscale>
<asrwt>0</asrwt>
<pdfrwt beam="2">  1        4 0.11502200E-02 0.12499945E+03</pdfrwt>
<pdfrwt beam="1">  1       -4 0.80380105E-01 0.12499945E+03</pdfrwt>
<totfact> 0.53614119E+03</totfact>
</mgrwt>
</event>
<event>
 5    1  0.3321169E-002  0.1249995E+03  0.7818608E-02  0.1235070E+00
          4   -1    0    0  501    0  0.00000000000E+00  0.00000000000E+00  0.39979144259E+02  0.39999310940E+02  0.12700000000E+01 0.  1.
         -4   -1    0    0    0  501 -0.00000000000E+00 -0.00000000000E+00 -0.97657448236E+02  0.97665705834E+02  0.12700000000E+01 0.  1.
         25    2    1    2    0    0  0.00000000000E+00  0.00000000000E+00 -0.57678303978E+02  0.13766501677E+03  0.12499948037E+03 0.  0.
    9000005    1    3    3    0    0 -0.96422337952E+01 -0.16950547062E+02 -0.94225977211E+02  0.96228002680E+02  0.10000000000E+01 0.  0.
    9000005    1    3    3    0    0  0.96422337952E+01  0.16950547062E+02  0.36547673234E+02  0.41437014094E+02  0.10000000000E+01 0.  0.
<mgrwt>
<rscale>  0 0.12499948E+03</rscale>
<asrwt>0</asrwt>
<pdfrwt beam="1">  1        4 0.61528241E-02 0.12499948E+03</pdfrwt>
<pdfrwt beam="2">  1       -4 0.15026409E-01 0.12499948E+03</pdfrwt>
<totfact> 0.10182319E+04</totfact>
</mgrwt>
</event>
<event>
 5    1  0.3321169E-002  0.1249982E+03  0.7818608E-02  0.1235072E+00
          4   -1    0    0  501    0  0.00000000000E+00  0.00000000000E+00  0.44256533206E+03  0.44256715427E+03  0.12700000000E+01 0. -1.
         -4   -1    0    0    0  501 -0.00000000000E+00 -0.00000000000E+00 -0.87785929796E+01  0.88699827904E+01  0.12700000000E+01 0. -1.
         25    2    1    2    0    0  0.00000000000E+00  0.00000000000E+00  0.43378673908E+03  0.45143713706E+03  0.12499821486E+03 0.  0.
    9000005    1    3    3    0    0  0.30399872471E+02  0.37704486297E+02  0.74277986004E+02  0.88679195632E+02  0.10000000000E+01 0.  0.
    9000005    1    3    3    0    0 -0.30399872471E+02 -0.37704486297E+02  0.35950875307E+03  0.36275794143E+03  0.10000000000E+01 0.  0.
<mgrwt>
<rscale>  0 0.12499821E+03</rscale>
<asrwt>0</asrwt>
<pdfrwt beam="1">  1        4 0.68094144E-01 0.12499821E+03</pdfrwt>
<pdfrwt beam="2">  1       -4 0.13577229E-02 0.12499821E+03</pdfrwt>
<totfact> 0.59841848E+03</totfact>
</mgrwt>
</event>
<event>
 5    1  0.3321169E-002  0.1250206E+03  0.7818608E-02  0.1235037E+00
          4   -1    0    0  501    0  0.00000000000E+00  0.00000000000E+00  0.27506112495E+03  0.27506405683E+03  0.12700000000E+01 0.  1.
         -4   -1    0    0    0  501 -0.00000000000E+00 -0.00000000000E+00 -0.14174669647E+02  0.14231449666E+02  0.12700000000E+01 0.  1.
         25    2    1    2    0    0  0.00000000000E+00  0.00000000000E+00  0.26088645531E+03  0.28929550650E+03  0.12502058837E+03 0.  0.
    9000005    1    3    3    0    0  0.46108621519E+02  0.63039767106E+01  0.33897388206E+02  0.57582792811E+02  0.10000000000E+01 0.  0.
    9000005    1    3    3    0    0 -0.46108621519E+02 -0.63039767106E+01  0.22698906710E+03  0.23171271369E+03  0.10000000000E+01 0.  0.
<mgrwt>
<rscale>  0 0.12502059E+03</rscale>
<asrwt>0</asrwt>
<pdfrwt beam="1">  1        4 0.42321686E-01 0.12502059E+03</pdfrwt>
<pdfrwt beam="2">  1       -4 0.21853118E-02 0.12502059E+03</pdfrwt>
<totfact> 0.76926326E+03</totfact>
</mgrwt>
</event>
<event>
 5    1  0.3321169E-002  0.1249924E+03  0.7818608E-02  0.1235081E+00
          4   -1    0    0  501    0  0.00000000000E+00  0.00000000000E+00  0.95484591262E+03  0.95484675721E+03  0.12700000000E+01 0.  1.
         -4   -1    0    0    0  501 -0.00000000000E+00 -0.00000000000E+00 -0.39910316528E+01  0.41882255973E+01  0.12700000000E+01 0.  1.
         25    2    1    2    0    0  0.00000000000E+00  0.00000000000E+00  0.95085488097E+03  0.95903498280E+03  0.12499237409E+03 0.  0.
    9000005    1    3    3    0    0 -0.22704867519E+02  0.56365150307E+02  0.36364937535E+03  0.36869283878E+03  0.10000000000E+01 0.  0.
    9000005    1    3    3    0    0  0.22704867519E+02 -0.56365150307E+02  0.58720550562E+03  0.59034214402E+03  0.10000000000E+01 0.  0.
<mgrwt>
<rscale>  0 0.12499237E+03</rscale>
<asrwt>0</asrwt>
<pdfrwt beam="1">  1        4 0.14691451E+00 0.12499237E+03</pdfrwt>
<pdfrwt beam="2">  1       -4 0.62923899E-03 0.12499237E+03</pdfrwt>
<totfact> 0.32002692E+03</totfact>
</mgrwt>
</event>
<event>
 5    1  0.3321169E-002  0.1250034E+03  0.7818608E-02  0.1235064E+00
          4   -1    0    0  501    0  0.00000000000E+00  0.00000000000E+00  0.92369293075E+02  0.92378023378E+02  0.12700000000E+01 0.  1.
         -4   -1    0    0    0  501 -0.00000000000E+00 -0.00000000000E+00 -0.42271530986E+02  0.42290604534E+02  0.12700000000E+01 0.  1.
         25    2    1    2    0    0  0.00000000000E+00  0.00000000000E+00  0.50097762089E+02  0.13466862791E+03  0.12500341426E+03 0.  0.
    9000005    1    3    3    0    0  0.49858789148E+02  0.35203438136E+02  0.10583784893E+02  0.61953187283E+02  0.10000000000E+01 0.  0.
    9000005    1    3    3    0    0 -0.49858789148E+02 -0.35203438136E+02  0.39513977197E+02  0.72715440628E+02  0.10000000000E+01 0.  0.
<mgrwt>
<rscale>  0 0.12500341E+03</rscale>
<asrwt>0</asrwt>
<pdfrwt beam="1">  1        4 0.14212799E-01 0.12500341E+03</pdfrwt>
<pdfrwt beam="2">  1       -4 0.65054512E-02 0.12500341E+03</pdfrwt>
<totfact> 0.10244271E+04</totfact>
</mgrwt>
</event>
<event>
 5    1  0.3321169E-002  0.1249911E+03  0.7818608E-02  0.1235083E+00
         -4   -1    0    0    0  501 -0.00000000000E+00  0.00000000000E+00  0.14127116631E+03  0.14127687472E+03  0.12700000000E+01 0. -1.
          4   -1    0    0  501    0  0.00000000000E+00 -0.00000000000E+00 -0.27625949606E+02  0.27655125956E+02  0.12700000000E+01 0. -1.
         25    2    1    2    0    0  0.00000000000E+00  0.00000000000E+00  0.11364521671E+03  0.16893200068E+03  0.12499114198E+03 0.  0.
    9000005    1    3    3    0    0 -0.63084012011E-01  0.25538242965E+02  0.13390243191E+03  0.13631972383E+03  0.10000000000E+01 0.  0.
    9000005    1    3    3    0    0  0.63084012011E-01 -0.25538242965E+02 -0.20257215205E+02  0.32612276848E+02  0.10000000000E+01 0.  0.
<mgrwt>
<rscale>  0 0.12499114E+03</rscale>
<asrwt>0</asrwt>
<pdfrwt beam="2">  1        4 0.42528295E-02 0.12499114E+03</pdfrwt>
<pdfrwt beam="1">  1       -4 0.21736709E-01 0.12499114E+03</pdfrwt>
<totfact> 0.95666899E+03</totfact>
</mgrwt>
</event>
<event>
 5    1  0.3321169E-002  0.1249943E+03  0.7818608E-02  0.1235078E+00
          4   -1    0    0  501    0  0.00000000000E+00  0.00000000000E+00  0.71002476446E+02  0.71013833592E+02  0.12700000000E+01 0. -1.
         -4   -1    0    0    0  501 -0.00000000000E+00 -0.00000000000E+00 -0.54987599321E+02  0.55002263399E+02  0.12700000000E+01 0. -1.
         25    2    1    2    0    0  0.00000000000E+00  0.00000000000E+00  0.16014877125E+02  0.12601609699E+03  0.12499432152E+03 0.  0.
    9000005    1    3    3    0    0 -0.44305747804E+02 -0.11649328951E+02 -0.34839256761E+02  0.57562834930E+02  0.10000000000E+01 0.  0.
    9000005    1    3    3    0    0  0.44305747804E+02  0.11649328951E+02  0.50854133886E+02  0.68453262061E+02  0.10000000000E+01 0.  0.
<mgrwt>
<rscale>  0 0.12499432E+03</rscale>
<asrwt>0</asrwt>
<pdfrwt beam="1">  1        4 0.10925460E-01 0.12499432E+03</pdfrwt>
<pdfrwt beam="2">  1       -4 0.84616323E-02 0.12499432E+03</pdfrwt>
<totfact> 0.10431941E+04</totfact>
</mgrwt>
</event>
<event>
 5    1  0.3321169E-002  0.1249985E+03  0.7818608E-02  0.1235072E+00
         -4   -1    0    0    0  501 -0.00000000000E+00  0.00000000000E+00  0.55687331076E+03  0.55687475893E+03  0.12700000000E+01 0. -1.
          4   -1    0    0  501    0  0.00000000000E+00 -0.00000000000E+00 -0.69554881003E+01  0.70704819293E+01  0.12700000000E+01 0. -1.
         25    2    1    2    0    0  0.00000000000E+00  0.00000000000E+00  0.54991782266E+03  0.56394524086E+03  0.12499849204E+03 0.  0.
    9000005    1    3    3    0    0 -0.42034661170E+02 -0.46208012698E+02  0.28285433783E+03  0.28967165828E+03  0.10000000000E+01 0.  0.
    9000005    1    3    3    0    0  0.42034661170E+02  0.46208012698E+02  0.26706348482E+03  0.27427358258E+03  0.10000000000E+01 0.  0.
<mgrwt>
<rscale>  0 0.12499849E+03</rscale>
<asrwt>0</asrwt>
<pdfrwt beam="2">  1        4 0.10790316E-02 0.12499849E+03</pdfrwt>
<pdfrwt beam="1">  1       -4 0.85681820E-01 0.12499849E+03</pdfrwt>
<totfact> 0.51227236E+03</totfact>
</mgrwt>
</event>
<event>
 5    1  0.3321169E-002  0.1249997E+03  0.7818608E-02  0.1235070E+00
          4   -1    0    0  501    0  0.00000000000E+00  0.00000000000E+00  0.11153795864E+03  0.11154518868E+03  0.12700000000E+01 0. -1.
         -4   -1    0    0    0  501 -0.00000000000E+00 -0.00000000000E+00 -0.35001664409E+02  0.35024697164E+02  0.12700000000E+01 0. -1.
         25    2    1    2    0    0  0.00000000000E+00  0.00000000000E+00  0.76536294235E+02  0.14656988585E+03  0.12499970841E+03 0.  0.
    9000005    1    3    3    0    0  0.25933768417E+02 -0.52516641062E+02  0.12721529951E+02  0.59944935207E+02  0.10000000000E+01 0.  0.
    9000005    1    3    3    0    0 -0.25933768417E+02  0.52516641062E+02  0.63814764284E+02  0.86624950640E+02  0.10000000000E+01 0.  0.
<mgrwt>
<rscale>  0 0.12499971E+03</rscale>
<asrwt>0</asrwt>
<pdfrwt beam="1">  1        4 0.17162014E-01 0.12499971E+03</pdfrwt>
<pdfrwt beam="2">  1       -4 0.53871994E-02 0.12499971E+03</pdfrwt>
<totfact> 0.99992545E+03</totfact>
</mgrwt>
</event>
<event>
 5    1  0.3321169E-002  0.1250019E+03  0.7818608E-02  0.1235066E+00
          4   -1    0    0  501    0  0.00000000000E+00  0.00000000000E+00  0.30695095825E+02  0.30721357518E+02  0.12700000000E+01 0.  1.
         -4   -1    0    0    0  501 -0.00000000000E+00 -0.00000000000E+00 -0.12717968481E+03  0.12718602568E+03  0.12700000000E+01 0.  1.
         25    2    1    2    0    0  0.00000000000E+00  0.00000000000E+00 -0.96484588989E+02  0.15790738320E+03  0.12500186302E+03 0.  0.
    9000005    1    3    3    0    0  0.38773474780E+02 -0.48225524402E+02 -0.59275444350E+02  0.85695168202E+02  0.10000000000E+01 0.  0.
    9000005    1    3    3    0    0 -0.38773474780E+02  0.48225524402E+02 -0.37209144640E+02  0.72212215000E+02  0.10000000000E+01 0.  0.
<mgrwt>
<rscale>  0 0.12500186E+03</rscale>
<asrwt>0</asrwt>
<pdfrwt beam="1">  1        4 0.47248304E-02 0.12500186E+03</pdfrwt>
<pdfrwt beam="2">  1       -4 0.19568613E-01 0.12500186E+03</pdfrwt>
<totfact> 0.97743654E+03</totfact>
</mgrwt>
</event>
<event>
 5    1  0.3321169E-002  0.1250006E+03  0.7818608E-02  0.1235068E+00
          4   -1    0    0  501    0  0.00000000000E+00  0.00000000000E+00  0.38216538296E+03  0.38216749316E+03  0.12700000000E+01 0.  1.
         -4   -1    0    0    0  501 -0.00000000000E+00 -0.00000000000E+00 -0.10179867663E+02  0.10258781879E+02  0.12700000000E+01 0.  1.
         25    2    1    2    0    0  0.00000000000E+00  0.00000000000E+00  0.37198551529E+03  0.39242627504E+03  0.12500063102E+03 0.  0.
    9000005    1    3    3    0    0 -0.41361545875E+02  0.39161574476E+02  0.26669919528E+03  0.27271572591E+03  0.10000000000E+01 0.  0.
    9000005    1    3    3    0    0  0.41361545875E+02 -0.39161574476E+02  0.10528632001E+03  0.11971054913E+03  0.10000000000E+01 0.  0.
<mgrwt>
<rscale>  0 0.12500063E+03</rscale>
<asrwt>0</asrwt>
<pdfrwt beam="1">  1        4 0.58800902E-01 0.12500063E+03</pdfrwt>
<pdfrwt beam="2">  1       -4 0.15723663E-02 0.12500063E+03</pdfrwt>
<totfact> 0.65295218E+03</totfact>
</mgrwt>
</event>
<event>
 5    1  0.3321169E-002  0.1249974E+03  0.7818608E-02  0.1235073E+00
         -4   -1    0    0    0  501 -0.00000000000E+00  0.00000000000E+00  0.14821914184E+02  0.14876223986E+02  0.12700000000E+01 0. -1.
          4   -1    0    0  501    0  0.00000000000E+00 -0.00000000000E+00 -0.26299690977E+03  0.26299997614E+03  0.12700000000E+01 0. -1.
         25    2    1    2    0    0  0.00000000000E+00  0.00000000000E+00 -0.24817499559E+03  0.27787620013E+03  0.12499741662E+03 0.  0.
    9000005    1    3    3    0    0  0.18656843013E+02  0.45298716881E+02 -0.21033050712E+03  0.21596289906E+03  0.10000000000E+01 0.  0.
    9000005    1    3    3    0    0 -0.18656843013E+02 -0.45298716881E+02 -0.37844488468E+02  0.61913301072E+02  0.10000000000E+01 0.  0.
<mgrwt>
<rscale>  0 0.12499742E+03</rscale>
<asrwt>0</asrwt>
<pdfrwt beam="2">  1        4 0.40465473E-01 0.12499742E+03</pdfrwt>
<pdfrwt beam="1">  1       -4 0.22847082E-02 0.12499742E+03</pdfrwt>
<totfact> 0.78465059E+03</totfact>
</mgrwt>
</event>
<event>
 5    1  0.3321169E-002  0.1249998E+03  0.7818608E-02  0.1235070E+00
          4   -1    0    0  501    0  0.00000000000E+00  0.00000000000E+00  0.10029642718E+02  0.10109729623E+02  0.12700000000E+01 0.  1.
         -4   -1    0    0    0  501 -0.00000000000E+00 -0.00000000000E+00 -0.38783933763E+03  0.38784141697E+03  0.12700000000E+01 0.  1.
         25    2    1    2    0    0  0.00000000000E+00  0.00000000000E+00 -0.37780969491E+03  0.39795114659E+03  0.12499979800E+03 0.  0.
    9000005    1    3    3    0    0  0.22163015002E+02 -0.19915643456E+02 -0.14026003933E+02  0.32947850833E+02  0.10000000000E+01 0.  0.
    9000005    1    3    3    0    0 -0.22163015002E+02  0.19915643456E+02 -0.36378369098E+03  0.36500329576E+03  0.10000000000E+01 0.  0.
<mgrwt>
<rscale>  0 0.12499980E+03</rscale>
<asrwt>0</asrwt>
<pdfrwt beam="1">  1        4 0.15493427E-02 0.12499980E+03</pdfrwt>
<pdfrwt beam="2">  1       -4 0.59673899E-01 0.12499980E+03</pdfrwt>
<totfact> 0.64752841E+03</totfact>
</mgrwt>
</event>
<event>
 5    1  0.3321169E-002  0.1249971E+03  0.7818608E-02  0.1235074E+00
         -4   -1    0    0    0  501 -0.00000000000E+00  0.00000000000E+00  0.13009205727E+03  0.13009825619E+03  0.12700000000E+01 0. -1.
          4   -1    0    0  501    0  0.00000000000E+00 -0.00000000000E+00 -0.30005057665E+02  0.30031922774E+02  0.12700000000E+01 0. -1.
         25    2    1    2    0    0  0.00000000000E+00  0.00000000000E+00  0.10008699960E+03  0.16013017897E+03  0.12499706687E+03 0.  0.
    9000005    1    3    3    0    0 -0.19138224413E+02  0.45084982414E+02  0.99760618650E+02  0.11114003917E+03  0.10000000000E+01 0.  0.
    9000005    1    3    3    0    0  0.19138224413E+02 -0.45084982414E+02  0.32638095397E+00  0.48990139798E+02  0.10000000000E+01 0.  0.
<mgrwt>
<rscale>  0 0.12499707E+03</rscale>
<asrwt>0</asrwt>
<pdfrwt beam="2">  1        4 0.46187061E-02 0.12499707E+03</pdfrwt>
<pdfrwt beam="1">  1       -4 0.20016706E-01 0.12499707E+03</pdfrwt>
<totfact> 0.97324109E+03</totfact>
</mgrwt>
</event>
<event>
 5    1  0.3321169E-002  0.1249959E+03  0.7818608E-02  0.1235076E+00
          4   -1    0    0  501    0  0.00000000000E+00  0.00000000000E+00  0.53558180949E+02  0.53573236290E+02  0.12700000000E+01 0. -1.
         -4   -1    0    0    0  501 -0.00000000000E+00 -0.00000000000E+00 -0.72899072453E+02  0.72910134169E+02  0.12700000000E+01 0. -1.
         25    2    1    2    0    0  0.00000000000E+00  0.00000000000E+00 -0.19340891504E+02  0.12648337046E+03  0.12499589161E+03 0.  0.
    9000005    1    3    3    0    0  0.14247010685E+02  0.89083960175E+01  0.51234318022E+02  0.53928584037E+02  0.10000000000E+01 0.  0.
    9000005    1    3    3    0    0 -0.14247010685E+02 -0.89083960175E+01 -0.70575209526E+02  0.72554786421E+02  0.10000000000E+01 0.  0.
<mgrwt>
<rscale>  0 0.12499589E+03</rscale>
<asrwt>0</asrwt>
<pdfrwt beam="1">  1        4 0.82417291E-02 0.12499589E+03</pdfrwt>
<pdfrwt beam="2">  1       -4 0.11217251E-01 0.12499589E+03</pdfrwt>
<totfact> 0.10421357E+04</totfact>
</mgrwt>
</event>
<event>
 5    1  0.3321169E-002  0.1250093E+03  0.7818608E-02  0.1235055E+00
          4   -1    0    0  501    0  0.00000000000E+00  0.00000000000E+00  0.16085186972E+02  0.16135245270E+02  0.12700000000E+01 0. -1.
         -4   -1    0    0    0  501 -0.00000000000E+00 -0.00000000000E+00 -0.24245466910E+03  0.24245799527E+03  0.12700000000E+01 0. -1.
         25    2    1    2    0    0  0.00000000000E+00  0.00000000000E+00 -0.22636948213E+03  0.25859324053E+03  0.12500928610E+03 0.  0.
    9000005    1    3    3    0    0  0.42392711265E+02 -0.17709247245E+02 -0.20082743301E+03  0.20601800226E+03  0.10000000000E+01 0.  0.
    9000005    1    3    3    0    0 -0.42392711265E+02  0.17709247245E+02 -0.25542049117E+02  0.52575238273E+02  0.10000000000E+01 0.  0.
<mgrwt>
<rscale>  0 0.12500929E+03</rscale>
<asrwt>0</asrwt>
<pdfrwt beam="1">  1        4 0.24787508E-02 0.12500929E+03</pdfrwt>
<pdfrwt beam="2">  1       -4 0.37304822E-01 0.12500929E+03</pdfrwt>
<totfact> 0.81087123E+03</totfact>
</mgrwt>
</event>
<event>
 5    1  0.3321169E-002  0.1249981E+03  0.7818608E-02  0.1235072E+00
          4   -1    0    0  501    0  0.00000000000E+00  0.00000000000E+00  0.28311216190E+01  0.31029259774E+01  0.12700000000E+01 0.  1.
         -4   -1    0    0    0  501 -0.00000000000E+00 -0.00000000000E+00 -0.13162433711E+04  0.13162439838E+04  0.12700000000E+01 0.  1.
         25    2    1    2    0    0  0.00000000000E+00  0.00000000000E+00 -0.13134122495E+04  0.13193469097E+04  0.12499812489E+03 0.  0.
    9000005    1    3    3    0    0 -0.10317909029E+02  0.55938322541E+02 -0.92982767843E+03  0.93156645858E+03  0.10000000000E+01 0.  0.
    9000005    1    3    3    0    0  0.10317909029E+02 -0.55938322541E+02 -0.38358457102E+03  0.38778045116E+03  0.10000000000E+01 0.  0.
<mgrwt>
<rscale>  0 0.12499812E+03</rscale>
<asrwt>0</asrwt>
<pdfrwt beam="1">  1        4 0.45651338E-03 0.12499812E+03</pdfrwt>
<pdfrwt beam="2">  1       -4 0.20251947E+00 0.12499812E+03</pdfrwt>
<totfact> 0.21777416E+03</totfact>
</mgrwt>
</event>
<event>
 5    1  0.3321169E-002  0.1250017E+03  0.7818608E-02  0.1235067E+00
         -4   -1    0    0    0  501 -0.00000000000E+00  0.00000000000E+00  0.86965388205E+02  0.86974660940E+02  0.12700000000E+01 0. -1.
          4   -1    0    0  501    0  0.00000000000E+00 -0.00000000000E+00 -0.44897851534E+02  0.44915809827E+02  0.12700000000E+01 0. -1.
         25    2    1    2    0    0  0.00000000000E+00  0.00000000000E+00  0.42067536671E+02  0.13189047077E+03  0.12500167454E+03 0.  0.
    9000005    1    3    3    0    0  0.28547404234E+02  0.51351608797E+02  0.43500732951E+02  0.73111256191E+02  0.10000000000E+01 0.  0.
    9000005    1    3    3    0    0 -0.28547404234E+02 -0.51351608797E+02 -0.14331962805E+01  0.58779214575E+02  0.10000000000E+01 0.  0.
<mgrwt>
<rscale>  0 0.12500167E+03</rscale>
<asrwt>0</asrwt>
<pdfrwt beam="2">  1        4 0.69094565E-02 0.12500167E+03</pdfrwt>
<pdfrwt beam="1">  1       -4 0.13381385E-01 0.12500167E+03</pdfrwt>
<totfact> 0.10303647E+04</totfact>
</mgrwt>
</event>
<event>
 5    1  0.3321169E-002  0.1249980E+03  0.7818608E-02  0.1235072E+00
          4   -1    0    0  501    0  0.00000000000E+00  0.00000000000E+00  0.18794491164E+02  0.18837351144E+02  0.12700000000E+01 0. -1.
         -4   -1    0    0    0  501 -0.00000000000E+00 -0.00000000000E+00 -0.20755197858E+03  0.20755586408E+03  0.12700000000E+01 0. -1.
         25    2    1    2    0    0  0.00000000000E+00  0.00000000000E+00 -0.18875748742E+03  0.22639321522E+03  0.12499799535E+03 0.  0.
    9000005    1    3    3    0    0  0.34255827889E+01 -0.59372614943E+02 -0.59621045233E+02  0.84217047308E+02  0.10000000000E+01 0.  0.
    9000005    1    3    3    0    0 -0.34255827889E+01  0.59372614943E+02 -0.12913644219E+03  0.14217616792E+03  0.10000000000E+01 0.  0.
<mgrwt>
<rscale>  0 0.12499800E+03</rscale>
<asrwt>0</asrwt>
<pdfrwt beam="1">  1        4 0.28950561E-02 0.12499800E+03</pdfrwt>
<pdfrwt beam="2">  1       -4 0.31934668E-01 0.12499800E+03</pdfrwt>
<totfact> 0.85870359E+03</totfact>
</mgrwt>
</event>
<event>
 5    1  0.3321169E-002  0.1250025E+03  0.7818608E-02  0.1235065E+00
         -4   -1    0    0    0  501 -0.00000000000E+00  0.00000000000E+00  0.13552826134E+03  0.13553421163E+03  0.12700000000E+01 0.  1.
          4   -1    0    0  501    0  0.00000000000E+00 -0.00000000000E+00 -0.28802988726E+02  0.28830973961E+02  0.12700000000E+01 0.  1.
         25    2    1    2    0    0  0.00000000000E+00  0.00000000000E+00  0.10672527261E+03  0.16436518559E+03  0.12500252165E+03 0.  0.
    9000005    1    3    3    0    0  0.58049438982E+02  0.15466910439E+02  0.30723332538E+02  0.67482485482E+02  0.10000000000E+01 0.  0.
    9000005    1    3    3    0    0 -0.58049438982E+02 -0.15466910439E+02  0.76001940074E+02  0.96882700105E+02  0.10000000000E+01 0.  0.
<mgrwt>
<rscale>  0 0.12500252E+03</rscale>
<asrwt>0</asrwt>
<pdfrwt beam="2">  1        4 0.44338395E-02 0.12500252E+03</pdfrwt>
<pdfrwt beam="1">  1       -4 0.20853112E-01 0.12500252E+03</pdfrwt>
<totfact> 0.96502284E+03</totfact>
</mgrwt>
</event>
<event>
 5    1  0.3321169E-002  0.1249980E+03  0.7818608E-02  0.1235072E+00
          4   -1    0    0  501    0  0.00000000000E+00  0.00000000000E+00  0.21948110202E+04  0.21948113876E+04  0.12700000000E+01 0. -1.
         -4   -1    0    0    0  501 -0.00000000000E+00 -0.00000000000E+00 -0.15527274631E+01  0.20059567729E+01  0.12700000000E+01 0. -1.
         25    2    1    2    0    0  0.00000000000E+00  0.00000000000E+00  0.21932582927E+04  0.21968173444E+04  0.12499802411E+03 0.  0.
    9000005    1    3    3    0    0  0.55489657055E+02  0.28475351095E+02  0.11651007032E+04  0.11667692987E+04  0.10000000000E+01 0.  0.
    9000005    1    3    3    0    0 -0.55489657055E+02 -0.28475351095E+02  0.10281575895E+04  0.10300480457E+04  0.10000000000E+01 0.  0.
<mgrwt>
<rscale>  0 0.12499802E+03</rscale>
<asrwt>0</asrwt>
<pdfrwt beam="1">  1        4 0.33769698E+00 0.12499802E+03</pdfrwt>
<pdfrwt beam="2">  1       -4 0.27377413E-03 0.12499802E+03</pdfrwt>
<totfact> 0.75065668E+02</totfact>
</mgrwt>
</event>
<event>
 5    1  0.3321169E-002  0.1249982E+03  0.7818608E-02  0.1235072E+00
          4   -1    0    0  501    0  0.00000000000E+00  0.00000000000E+00  0.16122463962E+02  0.16172406878E+02  0.12700000000E+01 0.  1.
         -4   -1    0    0    0  501 -0.00000000000E+00 -0.00000000000E+00 -0.24185290997E+03  0.24185624441E+03  0.12700000000E+01 0.  1.
         25    2    1    2    0    0  0.00000000000E+00  0.00000000000E+00 -0.22573044600E+03  0.25802865129E+03  0.12499820251E+03 0.  0.
    9000005    1    3    3    0    0  0.51865497018E+02  0.12264936685E+02 -0.18022079837E+03  0.18793880551E+03  0.10000000000E+01 0.  0.
    9000005    1    3    3    0    0 -0.51865497018E+02 -0.12264936685E+02 -0.45509647639E+02  0.70089845777E+02  0.10000000000E+01 0.  0.
<mgrwt>
<rscale>  0 0.12499820E+03</rscale>
<asrwt>0</asrwt>
<pdfrwt beam="1">  1        4 0.24844775E-02 0.12499820E+03</pdfrwt>
<pdfrwt beam="2">  1       -4 0.37212236E-01 0.12499820E+03</pdfrwt>
<totfact> 0.81186760E+03</totfact>
</mgrwt>
</event>
<event>
 5    1  0.3321169E-002  0.1250009E+03  0.7818608E-02  0.1235068E+00
         -4   -1    0    0    0  501 -0.00000000000E+00  0.00000000000E+00  0.44580942868E+01  0.46354616459E+01  0.12700000000E+01 0.  1.
          4   -1    0    0  501    0  0.00000000000E+00 -0.00000000000E+00 -0.85895936495E+03  0.85896030382E+03  0.12700000000E+01 0.  1.
         25    2    1    2    0    0  0.00000000000E+00  0.00000000000E+00 -0.85450127067E+03  0.86359576547E+03  0.12500089825E+03 0.  0.
    9000005    1    3    3    0    0  0.19491657702E+02  0.24825603762E+01 -0.83709642211E+03  0.83732759882E+03  0.10000000000E+01 0.  0.
    9000005    1    3    3    0    0 -0.19491657702E+02 -0.24825603762E+01 -0.17404848552E+02  0.26268166649E+02  0.10000000000E+01 0.  0.
<mgrwt>
<rscale>  0 0.12500090E+03</rscale>
<asrwt>0</asrwt>
<pdfrwt beam="2">  1        4 0.13216118E+00 0.12500090E+03</pdfrwt>
<pdfrwt beam="1">  1       -4 0.69957721E-03 0.12500090E+03</pdfrwt>
<totfact> 0.35576677E+03</totfact>
</mgrwt>
</event>
<event>
 5    1  0.3321169E-002  0.1249991E+03  0.7818608E-02  0.1235071E+00
          4   -1    0    0  501    0  0.00000000000E+00  0.00000000000E+00  0.10392620459E+02  0.10469931232E+02  0.12700000000E+01 0.  1.
         -4   -1    0    0    0  501 -0.00000000000E+00 -0.00000000000E+00 -0.37439104465E+03  0.37439319867E+03  0.12700000000E+01 0.  1.
         25    2    1    2    0    0  0.00000000000E+00  0.00000000000E+00 -0.36399842419E+03  0.38486312991E+03  0.12499910379E+03 0.  0.
    9000005    1    3    3    0    0 -0.37359820877E+02 -0.29808868634E+02 -0.58041548282E+02  0.75194056894E+02  0.10000000000E+01 0.  0.
    9000005    1    3    3    0    0  0.37359820877E+02  0.29808868634E+02 -0.30595687591E+03  0.30966907301E+03  0.10000000000E+01 0.  0.
<mgrwt>
<rscale>  0 0.12499910E+03</rscale>
<asrwt>0</asrwt>
<pdfrwt beam="1">  1        4 0.16049777E-02 0.12499910E+03</pdfrwt>
<pdfrwt beam="2">  1       -4 0.57604725E-01 0.12499910E+03</pdfrwt>
<totfact> 0.66053410E+03</totfact>
</mgrwt>
</event>
<event>
 5    1  0.3321169E-002  0.1250051E+03  0.7818608E-02  0.1235061E+00
         -4   -1    0    0    0  501 -0.00000000000E+00  0.00000000000E+00  0.28025213764E+04  0.28025216641E+04  0.12700000000E+01 0. -1.
          4   -1    0    0  501    0  0.00000000000E+00 -0.00000000000E+00 -0.11043324701E+01  0.16829884743E+01  0.12700000000E+01 0. -1.
         25    2    1    2    0    0  0.00000000000E+00  0.00000000000E+00  0.28014170439E+04  0.28042046526E+04  0.12500511921E+03 0.  0.
    9000005    1    3    3    0    0 -0.13672417169E+02 -0.74052560357E+01  0.42871589391E+02  0.45615194673E+02  0.10000000000E+01 0.  0.
    9000005    1    3    3    0    0  0.13672417169E+02  0.74052560357E+01  0.27585454545E+04  0.27585894579E+04  0.10000000000E+01 0.  0.
<mgrwt>
<rscale>  0 0.12500512E+03</rscale>
<asrwt>0</asrwt>
<pdfrwt beam="2">  1        4 0.21443214E-03 0.12500512E+03</pdfrwt>
<pdfrwt beam="1">  1       -4 0.43120025E+00 0.12500512E+03</pdfrwt>
<totfact> 0.26955283E+02</totfact>
</mgrwt>
</event>
<event>
 5    1  0.3321169E-002  0.1250014E+03  0.7818608E-02  0.1235067E+00
         -4   -1    0    0    0  501 -0.00000000000E+00  0.00000000000E+00  0.19433532420E+02  0.19474986067E+02  0.12700000000E+01 0.  1.
          4   -1    0    0  501    0  0.00000000000E+00 -0.00000000000E+00 -0.20075269557E+03  0.20075671266E+03  0.12700000000E+01 0.  1.
         25    2    1    2    0    0  0.00000000000E+00  0.00000000000E+00 -0.18131916315E+03  0.22023169873E+03  0.12500144879E+03 0.  0.
    9000005    1    3    3    0    0  0.12243675524E+02  0.39767056681E+02 -0.85117760012E+01  0.42482663736E+02  0.10000000000E+01 0.  0.
    9000005    1    3    3    0    0 -0.12243675524E+02 -0.39767056681E+02 -0.17280738715E+03  0.17774903499E+03  0.10000000000E+01 0.  0.
<mgrwt>
<rscale>  0 0.12500145E+03</rscale>
<asrwt>0</asrwt>
<pdfrwt beam="2">  1        4 0.30888526E-01 0.12500145E+03</pdfrwt>
<pdfrwt beam="1">  1       -4 0.29932721E-02 0.12500145E+03</pdfrwt>
<totfact> 0.86828890E+03</totfact>
</mgrwt>
</event>
<event>
 5    1  0.3321169E-002  0.1250008E+03  0.7818608E-02  0.1235068E+00
          4   -1    0    0  501    0  0.00000000000E+00  0.00000000000E+00  0.24944405552E+02  0.24976714523E+02  0.12700000000E+01 0. -1.
         -4   -1    0    0    0  501 -0.00000000000E+00 -0.00000000000E+00 -0.15646405874E+03  0.15646921287E+03  0.12700000000E+01 0. -1.
         25    2    1    2    0    0  0.00000000000E+00  0.00000000000E+00 -0.13151965318E+03  0.18144592739E+03  0.12500082157E+03 0.  0.
    9000005    1    3    3    0    0  0.19027452969E+02  0.21243378774E+02 -0.14647448838E+03  0.14922835138E+03  0.10000000000E+01 0.  0.
    9000005    1    3    3    0    0 -0.19027452969E+02 -0.21243378774E+02  0.14954835201E+02  0.32217576012E+02  0.10000000000E+01 0.  0.
<mgrwt>
<rscale>  0 0.12500082E+03</rscale>
<asrwt>0</asrwt>
<pdfrwt beam="1">  1        4 0.38404827E-02 0.12500082E+03</pdfrwt>
<pdfrwt beam="2">  1       -4 0.24074275E-01 0.12500082E+03</pdfrwt>
<totfact> 0.93355658E+03</totfact>
</mgrwt>
</event>
<event>
 5    1  0.3321169E-002  0.1249966E+03  0.7818608E-02  0.1235075E+00
         -4   -1    0    0    0  501 -0.00000000000E+00  0.00000000000E+00  0.34494329787E+03  0.34494563578E+03  0.12700000000E+01 0. -1.
          4   -1    0    0  501    0  0.00000000000E+00 -0.00000000000E+00 -0.11285715731E+02  0.11356948514E+02  0.12700000000E+01 0. -1.
         25    2    1    2    0    0  0.00000000000E+00  0.00000000000E+00  0.33365758214E+03  0.35630258429E+03  0.12499659778E+03 0.  0.
    9000005    1    3    3    0    0 -0.32773241879E+02  0.25235341719E+02  0.33307073834E+02  0.53115619382E+02  0.10000000000E+01 0.  0.
    9000005    1    3    3    0    0  0.32773241879E+02 -0.25235341719E+02  0.30035050830E+03  0.30318696491E+03  0.10000000000E+01 0.  0.
<mgrwt>
<rscale>  0 0.12499660E+03</rscale>
<asrwt>0</asrwt>
<pdfrwt beam="2">  1        4 0.17419233E-02 0.12499660E+03</pdfrwt>
<pdfrwt beam="1">  1       -4 0.53073857E-01 0.12499660E+03</pdfrwt>
<totfact> 0.69041911E+03</totfact>
</mgrwt>
</event>
<event>
 5    1  0.3321169E-002  0.1250052E+03  0.7818608E-02  0.1235061E+00
          4   -1    0    0  501    0  0.00000000000E+00  0.00000000000E+00  0.77351818673E+01  0.78387459788E+01  0.12700000000E+01 0. -1.
         -4   -1    0    0    0  501 -0.00000000000E+00 -0.00000000000E+00 -0.50157683550E+03  0.50157844332E+03  0.12700000000E+01 0. -1.
         25    2    1    2    0    0  0.00000000000E+00  0.00000000000E+00 -0.49384165363E+03  0.50941718930E+03  0.12500517548E+03 0.  0.
    9000005    1    3    3    0    0  0.57163201638E+02 -0.25086696222E+02 -0.23497041573E+03  0.24312356985E+03  0.10000000000E+01 0.  0.
    9000005    1    3    3    0    0 -0.57163201638E+02  0.25086696222E+02 -0.25887123790E+03  0.26629361945E+03  0.10000000000E+01 0.  0.
<mgrwt>
<rscale>  0 0.12500518E+03</rscale>
<asrwt>0</asrwt>
<pdfrwt beam="1">  1        4 0.11981185E-02 0.12500518E+03</pdfrwt>
<pdfrwt beam="2">  1       -4 0.77173732E-01 0.12500518E+03</pdfrwt>
<totfact> 0.55134779E+03</totfact>
</mgrwt>
</event>
<event>
 5    1  0.3321169E-002  0.1249993E+03  0.7818608E-02  0.1235070E+00
          4   -1    0    0  501    0  0.00000000000E+00  0.00000000000E+00  0.87886783224E+02  0.87895958755E+02  0.12700000000E+01 0.  1.
         -4   -1    0    0    0  501 -0.00000000000E+00 -0.00000000000E+00 -0.44425319344E+02  0.44443468573E+02  0.12700000000E+01 0.  1.
         25    2    1    2    0    0  0.00000000000E+00  0.00000000000E+00  0.43461463880E+02  0.13233942733E+03  0.12499930073E+03 0.  0.
    9000005    1    3    3    0    0  0.59339532946E+02  0.16090807697E+02  0.33572899675E+02  0.70058788565E+02  0.10000000000E+01 0.  0.
    9000005    1    3    3    0    0 -0.59339532946E+02 -0.16090807697E+02  0.98885642054E+01  0.62280638763E+02  0.10000000000E+01 0.  0.
<mgrwt>
<rscale>  0 0.12499930E+03</rscale>
<asrwt>0</asrwt>
<pdfrwt beam="1">  1        4 0.13523145E-01 0.12499930E+03</pdfrwt>
<pdfrwt beam="2">  1       -4 0.68367665E-02 0.12499930E+03</pdfrwt>
<totfact> 0.10294621E+04</totfact>
</mgrwt>
</event>
<event>
 5    1  0.3321169E-002  0.1250004E+03  0.7818608E-02  0.1235069E+00
         -4   -1    0    0    0  501 -0.00000000000E+00  0.00000000000E+00  0.58062866699E+02  0.58076754294E+02  0.12700000000E+01 0. -1.
          4   -1    0    0  501    0  0.00000000000E+00 -0.00000000000E+00 -0.67248743587E+02  0.67260734563E+02  0.12700000000E+01 0. -1.
         25    2    1    2    0    0  0.00000000000E+00  0.00000000000E+00 -0.91858768874E+01  0.12533748886E+03  0.12500042311E+03 0.  0.
    9000005    1    3    3    0    0  0.32126151848E+02 -0.38420874517E+02  0.32884622372E+02  0.59922046191E+02  0.10000000000E+01 0.  0.
    9000005    1    3    3    0    0 -0.32126151848E+02  0.38420874517E+02 -0.42070499260E+02  0.65415442666E+02  0.10000000000E+01 0.  0.
<mgrwt>
<rscale>  0 0.12500042E+03</rscale>
<asrwt>0</asrwt>
<pdfrwt beam="2">  1        4 0.10347951E-01 0.12500042E+03</pdfrwt>
<pdfrwt beam="1">  1       -4 0.89347394E-02 0.12500042E+03</pdfrwt>
<totfact> 0.10445437E+04</totfact>
</mgrwt>
</event>
<event>
 5    1  0.3321169E-002  0.1249563E+03  0.7818608E-02  0.1235138E+00
         -4   -1    0    0    0  501 -0.00000000000E+00  0.00000000000E+00  0.25518221265E+02  0.25549804628E+02  0.12700000000E+01 0.  1.
          4   -1    0    0  501    0  0.00000000000E+00 -0.00000000000E+00 -0.15284110613E+03  0.15284638243E+03  0.12700000000E+01 0.  1.
         25    2    1    2    0    0  0.00000000000E+00  0.00000000000E+00 -0.12732288487E+03  0.17839618706E+03  0.12495632256E+03 0.  0.
    9000005    1    3    3    0    0  0.44719688105E+02 -0.14902002802E+02 -0.51339969125E+01  0.47426554967E+02  0.10000000000E+01 0.  0.
    9000005    1    3    3    0    0 -0.44719688105E+02  0.14902002802E+02 -0.12218888795E+03  0.13096963209E+03  0.10000000000E+01 0.  0.
<mgrwt>
<rscale>  0 0.12495632E+03</rscale>
<asrwt>0</asrwt>
<pdfrwt beam="2">  1        4 0.23516851E-01 0.12495632E+03</pdfrwt>
<pdfrwt beam="1">  1       -4 0.39287156E-02 0.12495632E+03</pdfrwt>
<totfact> 0.93998534E+03</totfact>
</mgrwt>
</event>
<event>
 5    1  0.3321169E-002  0.1250010E+03  0.7818608E-02  0.1235068E+00
          4   -1    0    0  501    0  0.00000000000E+00  0.00000000000E+00  0.41873267741E+02  0.41892522618E+02  0.12700000000E+01 0. -1.
         -4   -1    0    0    0  501 -0.00000000000E+00 -0.00000000000E+00 -0.93243900651E+02  0.93252549073E+02  0.12700000000E+01 0. -1.
         25    2    1    2    0    0  0.00000000000E+00  0.00000000000E+00 -0.51370632910E+02  0.13514507169E+03  0.12500099390E+03 0.  0.
    9000005    1    3    3    0    0  0.36380678947E+01 -0.52765602907E+02  0.10300445537E+02  0.53893817516E+02  0.10000000000E+01 0.  0.
    9000005    1    3    3    0    0 -0.36380678947E+01  0.52765602907E+02 -0.61671078448E+02  0.81251254175E+02  0.10000000000E+01 0.  0.
<mgrwt>
<rscale>  0 0.12500099E+03</rscale>
<asrwt>0</asrwt>
<pdfrwt beam="1">  1        4 0.64441876E-02 0.12500099E+03</pdfrwt>
<pdfrwt beam="2">  1       -4 0.14347362E-01 0.12500099E+03</pdfrwt>
<totfact> 0.10234785E+04</totfact>
</mgrwt>
</event>
<event>
 5    1  0.3321169E-002  0.1249825E+03  0.7818608E-02  0.1235097E+00
          4   -1    0    0  501    0  0.00000000000E+00  0.00000000000E+00  0.57101913001E+02  0.57116034250E+02  0.12700000000E+01 0.  1.
         -4   -1    0    0    0  501 -0.00000000000E+00 -0.00000000000E+00 -0.68360783941E+02  0.68372579892E+02  0.12700000000E+01 0.  1.
         25    2    1    2    0    0  0.00000000000E+00  0.00000000000E+00 -0.11258870940E+02  0.12548861414E+03  0.12498251919E+03 0.  0.
    9000005    1    3    3    0    0  0.41480076295E+02 -0.25856289560E+02  0.33451346148E+02  0.59237969229E+02  0.10000000000E+01 0.  0.
    9000005    1    3    3    0    0 -0.41480076295E+02  0.25856289560E+02 -0.44710217088E+02  0.66250644912E+02  0.10000000000E+01 0.  0.
<mgrwt>
<rscale>  0 0.12498252E+03</rscale>
<asrwt>0</asrwt>
<pdfrwt beam="1">  1        4 0.87869033E-02 0.12498252E+03</pdfrwt>
<pdfrwt beam="2">  1       -4 0.10519037E-01 0.12498252E+03</pdfrwt>
<totfact> 0.10446324E+04</totfact>
</mgrwt>
</event>
<event>
 5    1  0.3321169E-002  0.1250046E+03  0.7818608E-02  0.1235062E+00
          4   -1    0    0  501    0  0.00000000000E+00  0.00000000000E+00  0.25938079372E+02  0.25969152113E+02  0.12700000000E+01 0. -1.
         -4   -1    0    0    0  501 -0.00000000000E+00 -0.00000000000E+00 -0.15048612846E+03  0.15049148733E+03  0.12700000000E+01 0. -1.
         25    2    1    2    0    0  0.00000000000E+00  0.00000000000E+00 -0.12454804909E+03  0.17646063944E+03  0.12500456288E+03 0.  0.
    9000005    1    3    3    0    0  0.33035213948E+02 -0.34901288007E+02 -0.11867068414E+03  0.12803576274E+03  0.10000000000E+01 0.  0.
    9000005    1    3    3    0    0 -0.33035213948E+02  0.34901288007E+02 -0.58773649441E+01  0.48424876704E+02  0.10000000000E+01 0.  0.
<mgrwt>
<rscale>  0 0.12500456E+03</rscale>
<asrwt>0</asrwt>
<pdfrwt beam="1">  1        4 0.39932763E-02 0.12500456E+03</pdfrwt>
<pdfrwt beam="2">  1       -4 0.23154514E-01 0.12500456E+03</pdfrwt>
<totfact> 0.94248361E+03</totfact>
</mgrwt>
</event>
<event>
 5    1  0.3321169E-002  0.1250059E+03  0.7818608E-02  0.1235060E+00
          4   -1    0    0  501    0  0.00000000000E+00  0.00000000000E+00  0.76707601597E+02  0.76718114176E+02  0.12700000000E+01 0.  1.
         -4   -1    0    0    0  501 -0.00000000000E+00 -0.00000000000E+00 -0.50906750547E+02  0.50922589793E+02  0.12700000000E+01 0.  1.
         25    2    1    2    0    0  0.00000000000E+00  0.00000000000E+00  0.25800851050E+02  0.12764070397E+03  0.12500586144E+03 0.  0.
    9000005    1    3    3    0    0  0.55482845224E+02 -0.28357700903E+02  0.17809148267E+02  0.64812584246E+02  0.10000000000E+01 0.  0.
    9000005    1    3    3    0    0 -0.55482845224E+02  0.28357700903E+02  0.79917027836E+01  0.62828119724E+02  0.10000000000E+01 0.  0.
<mgrwt>
<rscale>  0 0.12500586E+03</rscale>
<asrwt>0</asrwt>
<pdfrwt beam="1">  1        4 0.11803197E-01 0.12500586E+03</pdfrwt>
<pdfrwt beam="2">  1       -4 0.78338349E-02 0.12500586E+03</pdfrwt>
<totfact> 0.10393879E+04</totfact>
</mgrwt>
</event>
<event>
 5    1  0.3321169E-002  0.1249988E+03  0.7818608E-02  0.1235071E+00
         -4   -1    0    0    0  501 -0.00000000000E+00  0.00000000000E+00  0.29624632581E+03  0.29624904802E+03  0.12700000000E+01 0. -1.
          4   -1    0    0  501    0  0.00000000000E+00 -0.00000000000E+00 -0.13152186131E+02  0.13213360663E+02  0.12700000000E+01 0. -1.
         25    2    1    2    0    0  0.00000000000E+00  0.00000000000E+00  0.28309413968E+03  0.30946240868E+03  0.12499876188E+03 0.  0.
    9000005    1    3    3    0    0  0.58639153093E+02 -0.18205400519E+02  0.17033216185E+03  0.18106361380E+03  0.10000000000E+01 0.  0.
    9000005    1    3    3    0    0 -0.58639153093E+02  0.18205400519E+02  0.11276197783E+03  0.12839879488E+03  0.10000000000E+01 0.  0.
<mgrwt>
<rscale>  0 0.12499876E+03</rscale>
<asrwt>0</asrwt>
<pdfrwt beam="2">  1        4 0.20283285E-02 0.12499876E+03</pdfrwt>
<pdfrwt beam="1">  1       -4 0.45581269E-01 0.12499876E+03</pdfrwt>
<totfact> 0.74429063E+03</totfact>
</mgrwt>
</event>
<event>
 5    1  0.3321169E-002  0.1250031E+03  0.7818608E-02  0.1235064E+00
         -4   -1    0    0    0  501 -0.00000000000E+00  0.00000000000E+00  0.68461390057E+03  0.68461507853E+03  0.12700000000E+01 0. -1.
          4   -1    0    0  501    0  0.00000000000E+00 -0.00000000000E+00 -0.56341893446E+01  0.57755510188E+01  0.12700000000E+01 0. -1.
         25    2    1    2    0    0  0.00000000000E+00  0.00000000000E+00  0.67897971122E+03  0.69039062955E+03  0.12500309243E+03 0.  0.
    9000005    1    3    3    0    0 -0.23733462838E+02 -0.56036192255E+02  0.41800786816E+03  0.42241556546E+03  0.10000000000E+01 0.  0.
    9000005    1    3    3    0    0  0.23733462838E+02  0.56036192255E+02  0.26097184307E+03  0.26797506409E+03  0.10000000000E+01 0.  0.
<mgrwt>
<rscale>  0 0.12500309E+03</rscale>
<asrwt>0</asrwt>
<pdfrwt beam="2">  1        4 0.87776268E-03 0.12500309E+03</pdfrwt>
<pdfrwt beam="1">  1       -4 0.10533621E+00 0.12500309E+03</pdfrwt>
<totfact> 0.43595871E+03</totfact>
</mgrwt>
</event>
<event>
 5    1  0.3321169E-002  0.1250042E+03  0.7818608E-02  0.1235063E+00
         -4   -1    0    0    0  501 -0.00000000000E+00  0.00000000000E+00  0.26964847021E+03  0.26965146093E+03  0.12700000000E+01 0.  1.
          4   -1    0    0  501    0  0.00000000000E+00 -0.00000000000E+00 -0.14456515662E+02  0.14512192980E+02  0.12700000000E+01 0.  1.
         25    2    1    2    0    0  0.00000000000E+00  0.00000000000E+00  0.25519195454E+03  0.28416365391E+03  0.12500419410E+03 0.  0.
    9000005    1    3    3    0    0  0.38960056826E+02  0.48483333740E+02  0.14142210403E+03  0.15449832098E+03  0.10000000000E+01 0.  0.
    9000005    1    3    3    0    0 -0.38960056826E+02 -0.48483333740E+02  0.11376985052E+03  0.12966533293E+03  0.10000000000E+01 0.  0.
<mgrwt>
<rscale>  0 0.12500419E+03</rscale>
<asrwt>0</asrwt>
<pdfrwt beam="2">  1        4 0.22285925E-02 0.12500419E+03</pdfrwt>
<pdfrwt beam="1">  1       -4 0.41488888E-01 0.12500419E+03</pdfrwt>
<totfact> 0.77622023E+03</totfact>
</mgrwt>
</event>
<event>
 5    1  0.3321169E-002  0.1250094E+03  0.7818608E-02  0.1235055E+00
         -4   -1    0    0    0  501 -0.00000000000E+00  0.00000000000E+00  0.18053321582E+02  0.18097936902E+02  0.12700000000E+01 0. -1.
          4   -1    0    0  501    0  0.00000000000E+00 -0.00000000000E+00 -0.21609208255E+03  0.21609581449E+03  0.12700000000E+01 0. -1.
         25    2    1    2    0    0  0.00000000000E+00  0.00000000000E+00 -0.19803876097E+03  0.23419375139E+03  0.12500944903E+03 0.  0.
    9000005    1    3    3    0    0 -0.11775020373E+02  0.21357109758E+02 -0.20681874657E+03  0.20825410242E+03  0.10000000000E+01 0.  0.
    9000005    1    3    3    0    0  0.11775020373E+02 -0.21357109758E+02  0.87799855975E+01  0.25939648978E+02  0.10000000000E+01 0.  0.
<mgrwt>
<rscale>  0 0.12500945E+03</rscale>
<asrwt>0</asrwt>
<pdfrwt beam="2">  1        4 0.33248653E-01 0.12500945E+03</pdfrwt>
<pdfrwt beam="1">  1       -4 0.27811533E-02 0.12500945E+03</pdfrwt>
<totfact> 0.84651934E+03</totfact>
</mgrwt>
</event>
<event>
 5    1  0.3321169E-002  0.1249995E+03  0.7818608E-02  0.1235070E+00
          4   -1    0    0  501    0  0.00000000000E+00  0.00000000000E+00  0.16374203603E+02  0.16423381005E+02  0.12700000000E+01 0. -1.
         -4   -1    0    0    0  501 -0.00000000000E+00 -0.00000000000E+00 -0.23815057899E+03  0.23815396527E+03  0.12700000000E+01 0. -1.
         25    2    1    2    0    0  0.00000000000E+00  0.00000000000E+00 -0.22177637539E+03  0.25457734627E+03  0.12499945822E+03 0.  0.
    9000005    1    3    3    0    0  0.29835608739E+02 -0.49365539580E+02 -0.15985610591E+03  0.16994732903E+03  0.10000000000E+01 0.  0.
    9000005    1    3    3    0    0 -0.29835608739E+02  0.49365539580E+02 -0.61920269475E+02  0.84630017244E+02  0.10000000000E+01 0.  0.
<mgrwt>
<rscale>  0 0.12499946E+03</rscale>
<asrwt>0</asrwt>
<pdfrwt beam="1">  1        4 0.25231518E-02 0.12499946E+03</pdfrwt>
<pdfrwt beam="2">  1       -4 0.36642591E-01 0.12499946E+03</pdfrwt>
<totfact> 0.81674114E+03</totfact>
</mgrwt>
</event>
<event>
 5    1  0.3321169E-002  0.1250024E+03  0.7818608E-02  0.1235066E+00
         -4   -1    0    0    0  501 -0.00000000000E+00  0.00000000000E+00  0.65970877207E+01  0.67182189898E+01  0.12700000000E+01 0. -1.
          4   -1    0    0  501    0  0.00000000000E+00 -0.00000000000E+00 -0.58663124467E+03  0.58663261938E+03  0.12700000000E+01 0. -1.
         25    2    1    2    0    0  0.00000000000E+00  0.00000000000E+00 -0.58003415695E+03  0.59335083837E+03  0.12500237665E+03 0.  0.
    9000005    1    3    3    0    0  0.10239965060E+02 -0.61137036313E+02 -0.25239970285E+03  0.25990229721E+03  0.10000000000E+01 0.  0.
    9000005    1    3    3    0    0 -0.10239965060E+02  0.61137036313E+02 -0.32763445410E+03  0.33344854116E+03  0.10000000000E+01 0.  0.
<mgrwt>
<rscale>  0 0.12500238E+03</rscale>
<asrwt>0</asrwt>
<pdfrwt beam="2">  1        4 0.90260344E-01 0.12500238E+03</pdfrwt>
<pdfrwt beam="1">  1       -4 0.10243606E-02 0.12500238E+03</pdfrwt>
<totfact> 0.49287480E+03</totfact>
</mgrwt>
</event>
<event>
 5    1  0.3321169E-002  0.1249984E+03  0.7818608E-02  0.1235072E+00
          4   -1    0    0  501    0  0.00000000000E+00  0.00000000000E+00  0.46758035447E+01  0.48452078169E+01  0.12700000000E+01 0.  1.
         -4   -1    0    0    0  501 -0.00000000000E+00 -0.00000000000E+00 -0.82036226529E+03  0.82036324833E+03  0.12700000000E+01 0.  1.
         25    2    1    2    0    0  0.00000000000E+00  0.00000000000E+00 -0.81568646175E+03  0.82520845615E+03  0.12499836888E+03 0.  0.
    9000005    1    3    3    0    0  0.20957787204E+02  0.22614772822E+02 -0.49003370779E+02  0.57904983741E+02  0.10000000000E+01 0.  0.
    9000005    1    3    3    0    0 -0.20957787204E+02 -0.22614772822E+02 -0.76668309097E+03  0.76730347241E+03  0.10000000000E+01 0.  0.
<mgrwt>
<rscale>  0 0.12499837E+03</rscale>
<asrwt>0</asrwt>
<pdfrwt beam="1">  1        4 0.73246176E-03 0.12499837E+03</pdfrwt>
<pdfrwt beam="2">  1       -4 0.12622257E+00 0.12499837E+03</pdfrwt>
<totfact> 0.37165176E+03</totfact>
</mgrwt>
</event>
<event>
 5    1  0.3321169E-002  0.1249984E+03  0.7818608E-02  0.1235072E+00
          4   -1    0    0  501    0  0.00000000000E+00  0.00000000000E+00  0.43722843510E+03  0.43723027956E+03  0.12700000000E+01 0.  1.
         -4   -1    0    0    0  501 -0.00000000000E+00 -0.00000000000E+00 -0.88868831244E+01  0.89771705824E+01  0.12700000000E+01 0.  1.
         25    2    1    2    0    0  0.00000000000E+00  0.00000000000E+00  0.42834155198E+03  0.44620745014E+03  0.12499841363E+03 0.  0.
    9000005    1    3    3    0    0  0.60747698878E+02  0.10270357791E+02  0.17683574379E+03  0.18726356680E+03  0.10000000000E+01 0.  0.
    9000005    1    3    3    0    0 -0.60747698878E+02 -0.10270357791E+02  0.25150580818E+03  0.25894388334E+03  0.10000000000E+01 0.  0.
<mgrwt>
<rscale>  0 0.12499841E+03</rscale>
<asrwt>0</asrwt>
<pdfrwt beam="1">  1        4 0.67272982E-01 0.12499841E+03</pdfrwt>
<pdfrwt beam="2">  1       -4 0.13743002E-02 0.12499841E+03</pdfrwt>
<totfact> 0.60295872E+03</totfact>
</mgrwt>
</event>
<event>
 5    1  0.3321169E-002  0.1250032E+03  0.7818608E-02  0.1235064E+00
         -4   -1    0    0    0  501 -0.00000000000E+00  0.00000000000E+00  0.17560632961E+03  0.17561092192E+03  0.12700000000E+01 0. -1.
          4   -1    0    0  501    0  0.00000000000E+00 -0.00000000000E+00 -0.22222500391E+02  0.22258760604E+02  0.12700000000E+01 0. -1.
         25    2    1    2    0    0  0.00000000000E+00  0.00000000000E+00  0.15338382922E+03  0.19786968253E+03  0.12500324875E+03 0.  0.
    9000005    1    3    3    0    0  0.59067492577E+02  0.81071590033E+01  0.47046197395E+02  0.75954192747E+02  0.10000000000E+01 0.  0.
    9000005    1    3    3    0    0 -0.59067492577E+02 -0.81071590033E+01  0.10633763182E+03  0.12191548978E+03  0.10000000000E+01 0.  0.
<mgrwt>
<rscale>  0 0.12500325E+03</rscale>
<asrwt>0</asrwt>
<pdfrwt beam="2">  1        4 0.34219886E-02 0.12500325E+03</pdfrwt>
<pdfrwt beam="1">  1       -4 0.27019502E-01 0.12500325E+03</pdfrwt>
<totfact> 0.90489177E+03</totfact>
</mgrwt>
</event>
<event>
 5    1  0.3321169E-002  0.1249993E+03  0.7818608E-02  0.1235070E+00
          4   -1    0    0  501    0  0.00000000000E+00  0.00000000000E+00  0.71051127562E+02  0.71062476933E+02  0.12700000000E+01 0. -1.
         -4   -1    0    0    0  501 -0.00000000000E+00 -0.00000000000E+00 -0.54954356853E+02  0.54969029800E+02  0.12700000000E+01 0. -1.
         25    2    1    2    0    0  0.00000000000E+00  0.00000000000E+00  0.16096770709E+02  0.12603150673E+03  0.12499933865E+03 0.  0.
    9000005    1    3    3    0    0  0.53648552087E+02  0.23070173949E+02  0.30476358743E+02  0.65880258874E+02  0.10000000000E+01 0.  0.
    9000005    1    3    3    0    0 -0.53648552087E+02 -0.23070173949E+02 -0.14379588033E+02  0.60151247860E+02  0.10000000000E+01 0.  0.
<mgrwt>
<rscale>  0 0.12499934E+03</rscale>
<asrwt>0</asrwt>
<pdfrwt beam="1">  1        4 0.10932944E-01 0.12499934E+03</pdfrwt>
<pdfrwt beam="2">  1       -4 0.84565182E-02 0.12499934E+03</pdfrwt>
<totfact> 0.10430422E+04</totfact>
</mgrwt>
</event>
<event>
 5    1  0.3321169E-002  0.1250076E+03  0.7818608E-02  0.1235057E+00
         -4   -1    0    0    0  501 -0.00000000000E+00  0.00000000000E+00  0.33245733853E+03  0.33245976425E+03  0.12700000000E+01 0. -1.
          4   -1    0    0  501    0  0.00000000000E+00 -0.00000000000E+00 -0.11714263009E+02  0.11782905323E+02  0.12700000000E+01 0. -1.
         25    2    1    2    0    0  0.00000000000E+00  0.00000000000E+00  0.32074307552E+03  0.34424266957E+03  0.12500758000E+03 0.  0.
    9000005    1    3    3    0    0 -0.96872554980E+01  0.58661554253E+02  0.10735133995E+03  0.12272054048E+03  0.10000000000E+01 0.  0.
    9000005    1    3    3    0    0  0.96872554980E+01 -0.58661554253E+02  0.21339173557E+03  0.22152212909E+03  0.10000000000E+01 0.  0.
<mgrwt>
<rscale>  0 0.12500758E+03</rscale>
<asrwt>0</asrwt>
<pdfrwt beam="2">  1        4 0.18076610E-02 0.12500758E+03</pdfrwt>
<pdfrwt beam="1">  1       -4 0.51152752E-01 0.12500758E+03</pdfrwt>
<totfact> 0.70350802E+03</totfact>
</mgrwt>
</event>
<event>
 5    1  0.3321169E-002  0.1249983E+03  0.7818608E-02  0.1235072E+00
         -4   -1    0    0    0  501 -0.00000000000E+00  0.00000000000E+00  0.58658440893E+02  0.58672187517E+02  0.12700000000E+01 0. -1.
          4   -1    0    0  501    0  0.00000000000E+00 -0.00000000000E+00 -0.66563752429E+02  0.66575866779E+02  0.12700000000E+01 0. -1.
         25    2    1    2    0    0  0.00000000000E+00  0.00000000000E+00 -0.79053115356E+01  0.12524805430E+03  0.12499832461E+03 0.  0.
    9000005    1    3    3    0    0  0.59021622179E+02  0.72272171230E+01  0.15304500725E+02  0.61408568575E+02  0.10000000000E+01 0.  0.
    9000005    1    3    3    0    0 -0.59021622179E+02 -0.72272171230E+01 -0.23209812260E+02  0.63839485721E+02  0.10000000000E+01 0.  0.
<mgrwt>
<rscale>  0 0.12499832E+03</rscale>
<asrwt>0</asrwt>
<pdfrwt beam="2">  1        4 0.10242567E-01 0.12499832E+03</pdfrwt>
<pdfrwt beam="1">  1       -4 0.90263648E-02 0.12499832E+03</pdfrwt>
<totfact> 0.10447873E+04</totfact>
</mgrwt>
</event>
<event>
 5    1  0.3321169E-002  0.1250034E+03  0.7818608E-02  0.1235064E+00
         -4   -1    0    0    0  501 -0.00000000000E+00  0.00000000000E+00  0.25218187996E+02  0.25250146649E+02  0.12700000000E+01 0.  1.
          4   -1    0    0  501    0  0.00000000000E+00 -0.00000000000E+00 -0.15477390865E+03  0.15477911907E+03  0.12700000000E+01 0.  1.
         25    2    1    2    0    0  0.00000000000E+00  0.00000000000E+00 -0.12955572066E+03  0.18002926572E+03  0.12500340699E+03 0.  0.
    9000005    1    3    3    0    0  0.12173829961E+02  0.92674319335E+01  0.22486249622E+02  0.27216150584E+02  0.10000000000E+01 0.  0.
    9000005    1    3    3    0    0 -0.12173829961E+02 -0.92674319335E+01 -0.15204197028E+03  0.15281311513E+03  0.10000000000E+01 0.  0.
<mgrwt>
<rscale>  0 0.12500341E+03</rscale>
<asrwt>0</asrwt>
<pdfrwt beam="2">  1        4 0.23814229E-01 0.12500341E+03</pdfrwt>
<pdfrwt beam="1">  1       -4 0.38825805E-02 0.12500341E+03</pdfrwt>
<totfact> 0.93604585E+03</totfact>
</mgrwt>
</event>
<event>
 5    1  0.3321169E-002  0.1249943E+03  0.7818608E-02  0.1235078E+00
         -4   -1    0    0    0  501 -0.00000000000E+00  0.00000000000E+00  0.86490532076E+01  0.87417973774E+01  0.12700000000E+01 0. -1.
          4   -1    0    0  501    0  0.00000000000E+00 -0.00000000000E+00 -0.44909606659E+03  0.44909786230E+03  0.12700000000E+01 0. -1.
         25    2    1    2    0    0  0.00000000000E+00  0.00000000000E+00 -0.44044701338E+03  0.45783965968E+03  0.12499432939E+03 0.  0.
    9000005    1    3    3    0    0  0.55023898505E+01 -0.57975952848E+01 -0.44723385722E+03  0.44730639549E+03  0.10000000000E+01 0.  0.
    9000005    1    3    3    0    0 -0.55023898505E+01  0.57975952848E+01  0.67868438389E+01  0.10533264188E+02  0.10000000000E+01 0.  0.
<mgrwt>
<rscale>  0 0.12499433E+03</rscale>
<asrwt>0</asrwt>
<pdfrwt beam="2">  1        4 0.69098957E-01 0.12499433E+03</pdfrwt>
<pdfrwt beam="1">  1       -4 0.13378962E-02 0.12499433E+03</pdfrwt>
<totfact> 0.59298024E+03</totfact>
</mgrwt>
</event>
<event>
 5    1  0.3321169E-002  0.1249983E+03  0.7818608E-02  0.1235072E+00
         -4   -1    0    0    0  501 -0.00000000000E+00  0.00000000000E+00  0.30779317162E+02  0.30805507056E+02  0.12700000000E+01 0. -1.
          4   -1    0    0  501    0  0.00000000000E+00 -0.00000000000E+00 -0.12682474725E+03  0.12683110586E+03  0.12700000000E+01 0. -1.
         25    2    1    2    0    0  0.00000000000E+00  0.00000000000E+00 -0.96045430085E+02  0.15763661292E+03  0.12499830836E+03 0.  0.
    9000005    1    3    3    0    0  0.59843388133E+02 -0.17865161812E+02 -0.50770998387E+02  0.80492790901E+02  0.10000000000E+01 0.  0.
    9000005    1    3    3    0    0 -0.59843388133E+02  0.17865161812E+02 -0.45274431698E+02  0.77143822017E+02  0.10000000000E+01 0.  0.
<mgrwt>
<rscale>  0 0.12499831E+03</rscale>
<asrwt>0</asrwt>
<pdfrwt beam="2">  1        4 0.19514003E-01 0.12499831E+03</pdfrwt>
<pdfrwt beam="1">  1       -4 0.47377834E-02 0.12499831E+03</pdfrwt>
<totfact> 0.97804092E+03</totfact>
</mgrwt>
</event>
<event>
 5    1  0.3321169E-002  0.1249501E+03  0.7818608E-02  0.1235147E+00
          4   -1    0    0  501    0  0.00000000000E+00  0.00000000000E+00  0.22571276793E+03  0.22571634081E+03  0.12700000000E+01 0.  1.
         -4   -1    0    0    0  501 -0.00000000000E+00 -0.00000000000E+00 -0.17265427096E+02  0.17312073036E+02  0.12700000000E+01 0.  1.
         25    2    1    2    0    0  0.00000000000E+00  0.00000000000E+00  0.20844734084E+03  0.24302841384E+03  0.12495005416E+03 0.  0.
    9000005    1    3    3    0    0 -0.28630323796E+02  0.94228316930E+01  0.21064303628E+03  0.21279091599E+03  0.10000000000E+01 0.  0.
    9000005    1    3    3    0    0  0.28630323796E+02 -0.94228316930E+01 -0.21956954398E+01  0.30237497851E+02  0.10000000000E+01 0.  0.
<mgrwt>
<rscale>  0 0.12495005E+03</rscale>
<asrwt>0</asrwt>
<pdfrwt beam="1">  1        4 0.34728902E-01 0.12495005E+03</pdfrwt>
<pdfrwt beam="2">  1       -4 0.26600827E-02 0.12495005E+03</pdfrwt>
<totfact> 0.83441249E+03</totfact>
</mgrwt>
</event>
<event>
 5    1  0.3321169E-002  0.1250007E+03  0.7818608E-02  0.1235068E+00
          4   -1    0    0  501    0  0.00000000000E+00  0.00000000000E+00  0.26600631433E+02  0.26630931126E+02  0.12700000000E+01 0. -1.
         -4   -1    0    0    0  501 -0.00000000000E+00 -0.00000000000E+00 -0.14673311353E+03  0.14673860946E+03  0.12700000000E+01 0. -1.
         25    2    1    2    0    0  0.00000000000E+00  0.00000000000E+00 -0.12013248209E+03  0.17336954058E+03  0.12500073739E+03 0.  0.
    9000005    1    3    3    0    0 -0.59674223647E+02 -0.14083596637E+01 -0.85726642460E+02  0.10446556214E+03  0.10000000000E+01 0.  0.
    9000005    1    3    3    0    0  0.59674223647E+02  0.14083596637E+01 -0.34405839634E+02  0.68903978446E+02  0.10000000000E+01 0.  0.
<mgrwt>
<rscale>  0 0.12500074E+03</rscale>
<asrwt>0</asrwt>
<pdfrwt beam="1">  1        4 0.40951584E-02 0.12500074E+03</pdfrwt>
<pdfrwt beam="2">  1       -4 0.22577078E-01 0.12500074E+03</pdfrwt>
<totfact> 0.94822738E+03</totfact>
</mgrwt>
</event>
<event>
 5    1  0.3321169E-002  0.1250018E+03  0.7818608E-02  0.1235066E+00
         -4   -1    0    0    0  501 -0.00000000000E+00  0.00000000000E+00  0.26219515571E+03  0.26219823145E+03  0.12700000000E+01 0.  1.
          4   -1    0    0  501    0  0.00000000000E+00 -0.00000000000E+00 -0.14868450889E+02  0.14922591325E+02  0.12700000000E+01 0.  1.
         25    2    1    2    0    0  0.00000000000E+00  0.00000000000E+00  0.24732670482E+03  0.27712082278E+03  0.12500180599E+03 0.  0.
    9000005    1    3    3    0    0  0.42851834434E+02  0.46607448675E+01  0.22397469537E+03  0.22808697118E+03  0.10000000000E+01 0.  0.
    9000005    1    3    3    0    0 -0.42851834434E+02 -0.46607448675E+01  0.23352009452E+02  0.49033851598E+02  0.10000000000E+01 0.  0.
<mgrwt>
<rscale>  0 0.12500181E+03</rscale>
<asrwt>0</asrwt>
<pdfrwt beam="2">  1        4 0.22918555E-02 0.12500181E+03</pdfrwt>
<pdfrwt beam="1">  1       -4 0.40342114E-01 0.12500181E+03</pdfrwt>
<totfact> 0.78558266E+03</totfact>
</mgrwt>
</event>
<event>
 5    1  0.3321169E-002  0.1249999E+03  0.7818608E-02  0.1235069E+00
          4   -1    0    0  501    0  0.00000000000E+00  0.00000000000E+00  0.51606411785E+03  0.51606568054E+03  0.12700000000E+01 0.  1.
         -4   -1    0    0    0  501 -0.00000000000E+00 -0.00000000000E+00 -0.75144393590E+01  0.76210037974E+01  0.12700000000E+01 0.  1.
         25    2    1    2    0    0  0.00000000000E+00  0.00000000000E+00  0.50854967849E+03  0.52368668433E+03  0.12499987144E+03 0.  0.
    9000005    1    3    3    0    0  0.43216022752E+01 -0.12058317165E+01 -0.68593398975E+01  0.82571678064E+01  0.10000000000E+01 0.  0.
    9000005    1    3    3    0    0 -0.43216022752E+01  0.12058317165E+01  0.51540901838E+03  0.51542951653E+03  0.10000000000E+01 0.  0.
<mgrwt>
<rscale>  0 0.12499987E+03</rscale>
<asrwt>0</asrwt>
<pdfrwt beam="1">  1        4 0.79402801E-01 0.12499987E+03</pdfrwt>
<pdfrwt beam="2">  1       -4 0.11643850E-02 0.12499987E+03</pdfrwt>
<totfact> 0.54072442E+03</totfact>
</mgrwt>
</event>
<event>
 5    1  0.3321169E-002  0.1250042E+03  0.7818608E-02  0.1235063E+00
         -4   -1    0    0    0  501 -0.00000000000E+00  0.00000000000E+00  0.17111122321E+03  0.17111593616E+03  0.12700000000E+01 0.  1.
          4   -1    0    0  501    0  0.00000000000E+00 -0.00000000000E+00 -0.22807561133E+02  0.22842892654E+02  0.12700000000E+01 0.  1.
         25    2    1    2    0    0  0.00000000000E+00  0.00000000000E+00  0.14830366208E+03  0.19395882882E+03  0.12500420429E+03 0.  0.
    9000005    1    3    3    0    0 -0.40706909708E+02 -0.39389368973E+02  0.11511390808E+03  0.12829959751E+03  0.10000000000E+01 0.  0.
    9000005    1    3    3    0    0  0.40706909708E+02  0.39389368973E+02  0.33189753997E+02  0.65659231312E+02  0.10000000000E+01 0.  0.
<mgrwt>
<rscale>  0 0.12500420E+03</rscale>
<asrwt>0</asrwt>
<pdfrwt beam="2">  1        4 0.35119359E-02 0.12500420E+03</pdfrwt>
<pdfrwt beam="1">  1       -4 0.26327884E-01 0.12500420E+03</pdfrwt>
<totfact> 0.91154436E+03</totfact>
</mgrwt>
</event>
<event>
 5    1  0.3321169E-002  0.1250030E+03  0.7818608E-02  0.1235065E+00
         -4   -1    0    0    0  501 -0.00000000000E+00  0.00000000000E+00  0.16801922439E+03  0.16802402407E+03  0.12700000000E+01 0. -1.
          4   -1    0    0  501    0  0.00000000000E+00 -0.00000000000E+00 -0.23227483375E+02  0.23262177111E+02  0.12700000000E+01 0. -1.
         25    2    1    2    0    0  0.00000000000E+00  0.00000000000E+00  0.14479174102E+03  0.19128620118E+03  0.12500304995E+03 0.  0.
    9000005    1    3    3    0    0 -0.53342826059E+02 -0.98957410289E+01  0.24931948156E+02  0.59715867417E+02  0.10000000000E+01 0.  0.
    9000005    1    3    3    0    0  0.53342826059E+02  0.98957410289E+01  0.11985979286E+03  0.13157033377E+03  0.10000000000E+01 0.  0.
<mgrwt>
<rscale>  0 0.12500305E+03</rscale>
<asrwt>0</asrwt>
<pdfrwt beam="2">  1        4 0.35764971E-02 0.12500305E+03</pdfrwt>
<pdfrwt beam="1">  1       -4 0.25852149E-01 0.12500305E+03</pdfrwt>
<totfact> 0.91617742E+03</totfact>
</mgrwt>
</event>
<event>
 5    1  0.3321169E-002  0.1250007E+03  0.7818608E-02  0.1235068E+00
         -4   -1    0    0    0  501 -0.00000000000E+00  0.00000000000E+00  0.11816342511E+02  0.11884395245E+02  0.12700000000E+01 0. -1.
          4   -1    0    0  501    0  0.00000000000E+00 -0.00000000000E+00 -0.32956565593E+03  0.32956810293E+03  0.12700000000E+01 0. -1.
         25    2    1    2    0    0  0.00000000000E+00  0.00000000000E+00 -0.31774931342E+03  0.34145249818E+03  0.12500072932E+03 0.  0.
    9000005    1    3    3    0    0  0.40266494312E+02  0.16401132577E+02 -0.36259165013E+02  0.56622564066E+02  0.10000000000E+01 0.  0.
    9000005    1    3    3    0    0 -0.40266494312E+02 -0.16401132577E+02 -0.28149014841E+03  0.28482993411E+03  0.10000000000E+01 0.  0.
<mgrwt>
<rscale>  0 0.12500073E+03</rscale>
<asrwt>0</asrwt>
<pdfrwt beam="2">  1        4 0.50707825E-01 0.12500073E+03</pdfrwt>
<pdfrwt beam="1">  1       -4 0.18233222E-02 0.12500073E+03</pdfrwt>
<totfact> 0.70674097E+03</totfact>
</mgrwt>
</event>
<event>
 5    1  0.3321169E-002  0.1249966E+03  0.7818608E-02  0.1235075E+00
         -4   -1    0    0    0  501 -0.00000000000E+00  0.00000000000E+00  0.15003621827E+04  0.15003627202E+04  0.12700000000E+01 0. -1.
          4   -1    0    0  501    0  0.00000000000E+00 -0.00000000000E+00 -0.24479432662E+01  0.27577755954E+01  0.12700000000E+01 0. -1.
         25    2    1    2    0    0  0.00000000000E+00  0.00000000000E+00  0.14979142394E+04  0.15031204958E+04  0.12499662472E+03 0.  0.
    9000005    1    3    3    0    0 -0.60686152701E+02 -0.79406175475E+01  0.59723985591E+03  0.60036847687E+03  0.10000000000E+01 0.  0.
    9000005    1    3    3    0    0  0.60686152701E+02  0.79406175475E+01  0.90067438349E+03  0.90275201889E+03  0.10000000000E+01 0.  0.
<mgrwt>
<rscale>  0 0.12499662E+03</rscale>
<asrwt>0</asrwt>
<pdfrwt beam="2">  1        4 0.40048052E-03 0.12499662E+03</pdfrwt>
<pdfrwt beam="1">  1       -4 0.23084925E+00 0.12499662E+03</pdfrwt>
<totfact> 0.17870435E+03</totfact>
</mgrwt>
</event>
<event>
 5    1  0.3321169E-002  0.1250060E+03  0.7818608E-02  0.1235060E+00
         -4   -1    0    0    0  501 -0.00000000000E+00  0.00000000000E+00  0.44756080065E+02  0.44774095220E+02  0.12700000000E+01 0. -1.
          4   -1    0    0  501    0  0.00000000000E+00 -0.00000000000E+00 -0.87246754663E+02  0.87255997497E+02  0.12700000000E+01 0. -1.
         25    2    1    2    0    0  0.00000000000E+00  0.00000000000E+00 -0.42490674598E+02  0.13203009272E+03  0.12500595168E+03 0.  0.
    9000005    1    3    3    0    0  0.43274222489E+02 -0.38324038558E+02  0.38429484997E+01  0.57940991678E+02  0.10000000000E+01 0.  0.
    9000005    1    3    3    0    0 -0.43274222489E+02  0.38324038558E+02 -0.46333623098E+02  0.74089101039E+02  0.10000000000E+01 0.  0.
<mgrwt>
<rscale>  0 0.12500595E+03</rscale>
<asrwt>0</asrwt>
<pdfrwt beam="2">  1        4 0.13424674E-01 0.12500595E+03</pdfrwt>
<pdfrwt beam="1">  1       -4 0.68876476E-02 0.12500595E+03</pdfrwt>
<totfact> 0.10299673E+04</totfact>
</mgrwt>
</event>
<event>
 5    1  0.3321169E-002  0.1249990E+03  0.7818608E-02  0.1235071E+00
         -4   -1    0    0    0  501 -0.00000000000E+00  0.00000000000E+00  0.25715229460E+03  0.25715543066E+03  0.12700000000E+01 0. -1.
          4   -1    0    0  501    0  0.00000000000E+00 -0.00000000000E+00 -0.15160400148E+02  0.15213501656E+02  0.12700000000E+01 0. -1.
         25    2    1    2    0    0  0.00000000000E+00  0.00000000000E+00  0.24199189445E+03  0.27236893232E+03  0.12499903324E+03 0.  0.
    9000005    1    3    3    0    0  0.49658430252E+02  0.13676665257E+02  0.43890675499E+02  0.67678669191E+02  0.10000000000E+01 0.  0.
    9000005    1    3    3    0    0 -0.49658430252E+02 -0.13676665257E+02  0.19810121895E+03  0.20469026312E+03  0.10000000000E+01 0.  0.
<mgrwt>
<rscale>  0 0.12499903E+03</rscale>
<asrwt>0</asrwt>
<pdfrwt beam="2">  1        4 0.23366954E-02 0.12499903E+03</pdfrwt>
<pdfrwt beam="1">  1       -4 0.39566214E-01 0.12499903E+03</pdfrwt>
<totfact> 0.79202637E+03</totfact>
</mgrwt>
</event>
<event>
 5    1  0.3321169E-002  0.1249991E+03  0.7818608E-02  0.1235071E+00
         -4   -1    0    0    0  501 -0.00000000000E+00  0.00000000000E+00  0.41710333480E+01  0.43600939428E+01  0.12700000000E+01 0.  1.
          4   -1    0    0  501    0  0.00000000000E+00 -0.00000000000E+00 -0.91556176274E+03  0.91556264356E+03  0.12700000000E+01 0.  1.
         25    2    1    2    0    0  0.00000000000E+00  0.00000000000E+00 -0.91139072939E+03  0.91992273750E+03  0.12499912544E+03 0.  0.
    9000005    1    3    3    0    0  0.40589974765E+02 -0.47514337158E+02 -0.45711200211E+03  0.46136486728E+03  0.10000000000E+01 0.  0.
    9000005    1    3    3    0    0 -0.40589974765E+02  0.47514337158E+02 -0.45427872728E+03  0.45855787022E+03  0.10000000000E+01 0.  0.
<mgrwt>
<rscale>  0 0.12499913E+03</rscale>
<asrwt>0</asrwt>
<pdfrwt beam="2">  1        4 0.14087011E+00 0.12499913E+03</pdfrwt>
<pdfrwt beam="1">  1       -4 0.65630904E-03 0.12499913E+03</pdfrwt>
<totfact> 0.33409122E+03</totfact>
</mgrwt>
</event>
<event>
 5    1  0.3321169E-002  0.1249994E+03  0.7818608E-02  0.1235070E+00
          4   -1    0    0  501    0  0.00000000000E+00  0.00000000000E+00  0.74534447028E+03  0.74534555226E+03  0.12700000000E+01 0. -1.
         -4   -1    0    0    0  501 -0.00000000000E+00 -0.00000000000E+00 -0.51627709079E+01  0.53166816199E+01  0.12700000000E+01 0. -1.
         25    2    1    2    0    0  0.00000000000E+00  0.00000000000E+00  0.74018169937E+03  0.75066223388E+03  0.12499936516E+03 0.  0.
    9000005    1    3    3    0    0  0.31760972350E+02 -0.46357036709E+02  0.53427658288E+03  0.53722453521E+03  0.10000000000E+01 0.  0.
    9000005    1    3    3    0    0 -0.31760972350E+02  0.46357036709E+02  0.20590511649E+03  0.21343769867E+03  0.10000000000E+01 0.  0.
<mgrwt>
<rscale>  0 0.12499937E+03</rscale>
<asrwt>0</asrwt>
<pdfrwt beam="1">  1        4 0.11468034E+00 0.12499937E+03</pdfrwt>
<pdfrwt beam="2">  1       -4 0.80619468E-03 0.12499937E+03</pdfrwt>
<totfact> 0.40543030E+03</totfact>
</mgrwt>
</event>
<event>
 5    1  0.3321169E-002  0.1250004E+03  0.7818608E-02  0.1235069E+00
          4   -1    0    0  501    0  0.00000000000E+00  0.00000000000E+00  0.36578876827E+02  0.36600917064E+02  0.12700000000E+01 0. -1.
         -4   -1    0    0    0  501 -0.00000000000E+00 -0.00000000000E+00 -0.10673246969E+03  0.10674002523E+03  0.12700000000E+01 0. -1.
         25    2    1    2    0    0  0.00000000000E+00  0.00000000000E+00 -0.70153592863E+02  0.14334094229E+03  0.12500039658E+03 0.  0.
    9000005    1    3    3    0    0  0.35829943823E+02 -0.43186357887E+02 -0.35381697429E+01  0.56234909327E+02  0.10000000000E+01 0.  0.
    9000005    1    3    3    0    0 -0.35829943823E+02  0.43186357887E+02 -0.66615423120E+02  0.87106032968E+02  0.10000000000E+01 0.  0.
<mgrwt>
<rscale>  0 0.12500040E+03</rscale>
<asrwt>0</asrwt>
<pdfrwt beam="1">  1        4 0.56297962E-02 0.12500040E+03</pdfrwt>
<pdfrwt beam="2">  1       -4 0.16422656E-01 0.12500040E+03</pdfrwt>
<totfact> 0.10064716E+04</totfact>
</mgrwt>
</event>
<event>
 5    1  0.3321169E-002  0.1250285E+03  0.7818608E-02  0.1235025E+00
          4   -1    0    0  501    0  0.00000000000E+00  0.00000000000E+00  0.62602049249E+02  0.62614930090E+02  0.12700000000E+01 0. -1.
         -4   -1    0    0    0  501 -0.00000000000E+00 -0.00000000000E+00 -0.62400812615E+02  0.62413734987E+02  0.12700000000E+01 0. -1.
         25    2    1    2    0    0  0.00000000000E+00  0.00000000000E+00  0.20123663445E+00  0.12502866508E+03  0.12502850313E+03 0.  0.
    9000005    1    3    3    0    0  0.14382847094E+02  0.29436381377E+02 -0.53131628962E+02  0.62428653960E+02  0.10000000000E+01 0.  0.
    9000005    1    3    3    0    0 -0.14382847094E+02 -0.29436381377E+02  0.53332865597E+02  0.62600011117E+02  0.10000000000E+01 0.  0.
<mgrwt>
<rscale>  0 0.12502850E+03</rscale>
<asrwt>0</asrwt>
<pdfrwt beam="1">  1        4 0.96330694E-02 0.12502850E+03</pdfrwt>
<pdfrwt beam="2">  1       -4 0.96021099E-02 0.12502850E+03</pdfrwt>
<totfact> 0.10445510E+04</totfact>
</mgrwt>
</event>
<event>
 5    1  0.3321169E-002  0.1249965E+03  0.7818608E-02  0.1235075E+00
         -4   -1    0    0    0  501 -0.00000000000E+00  0.00000000000E+00  0.19759444458E+01  0.23488840867E+01  0.12700000000E+01 0. -1.
          4   -1    0    0  501    0  0.00000000000E+00 -0.00000000000E+00 -0.18059569632E+04  0.18059574098E+04  0.12700000000E+01 0. -1.
         25    2    1    2    0    0  0.00000000000E+00  0.00000000000E+00 -0.18039810188E+04  0.18083062939E+04  0.12499654517E+03 0.  0.
    9000005    1    3    3    0    0  0.61296967983E+02  0.86430933319E+01 -0.77837491061E+03  0.78083322343E+03  0.10000000000E+01 0.  0.
    9000005    1    3    3    0    0 -0.61296967983E+02 -0.86430933319E+01 -0.10256061082E+04  0.10274730704E+04  0.10000000000E+01 0.  0.
<mgrwt>
<rscale>  0 0.12499655E+03</rscale>
<asrwt>0</asrwt>
<pdfrwt beam="2">  1        4 0.27786705E+00 0.12499655E+03</pdfrwt>
<pdfrwt beam="1">  1       -4 0.33271491E-03 0.12499655E+03</pdfrwt>
<totfact> 0.12577028E+03</totfact>
</mgrwt>
</event>
<event>
 5    1  0.3321169E-002  0.1250004E+03  0.7818608E-02  0.1235069E+00
         -4   -1    0    0    0  501 -0.00000000000E+00  0.00000000000E+00  0.91382176474E+01  0.92260458362E+01  0.12700000000E+01 0. -1.
          4   -1    0    0  501    0  0.00000000000E+00 -0.00000000000E+00 -0.42533249137E+03  0.42533438741E+03  0.12700000000E+01 0. -1.
         25    2    1    2    0    0  0.00000000000E+00  0.00000000000E+00 -0.41619427372E+03  0.43456043324E+03  0.12500038666E+03 0.  0.
    9000005    1    3    3    0    0 -0.37215395519E+02  0.42336056935E+01 -0.38200297459E+03  0.38383613909E+03  0.10000000000E+01 0.  0.
    9000005    1    3    3    0    0  0.37215395519E+02 -0.42336056935E+01 -0.34191299131E+02  0.50724294150E+02  0.10000000000E+01 0.  0.
<mgrwt>
<rscale>  0 0.12500039E+03</rscale>
<asrwt>0</asrwt>
<pdfrwt beam="2">  1        4 0.65442654E-01 0.12500039E+03</pdfrwt>
<pdfrwt beam="1">  1       -4 0.14127818E-02 0.12500039E+03</pdfrwt>
<totfact> 0.61324265E+03</totfact>
</mgrwt>
</event>
<event>
 5    1  0.3321169E-002  0.1250015E+03  0.7818608E-02  0.1235067E+00
         -4   -1    0    0    0  501 -0.00000000000E+00  0.00000000000E+00  0.53972834509E+01  0.55446883275E+01  0.12700000000E+01 0. -1.
          4   -1    0    0  501    0  0.00000000000E+00 -0.00000000000E+00 -0.71386243920E+03  0.71386356890E+03  0.12700000000E+01 0. -1.
         25    2    1    2    0    0  0.00000000000E+00  0.00000000000E+00 -0.70846515575E+03  0.71940825723E+03  0.12500145461E+03 0.  0.
    9000005    1    3    3    0    0 -0.40405970723E+02 -0.51202448586E+01 -0.62701210878E+03  0.62833434088E+03  0.10000000000E+01 0.  0.
    9000005    1    3    3    0    0  0.40405970723E+02  0.51202448586E+01 -0.81453046979E+02  0.91073916351E+02  0.10000000000E+01 0.  0.
<mgrwt>
<rscale>  0 0.12500145E+03</rscale>
<asrwt>0</asrwt>
<pdfrwt beam="2">  1        4 0.10983634E+00 0.12500145E+03</pdfrwt>
<pdfrwt beam="1">  1       -4 0.84177760E-03 0.12500145E+03</pdfrwt>
<totfact> 0.42080440E+03</totfact>
</mgrwt>
</event>
<event>
 5    1  0.3321169E-002  0.1249998E+03  0.7818608E-02  0.1235070E+00
          4   -1    0    0  501    0  0.00000000000E+00  0.00000000000E+00  0.11195545729E+04  0.11195552933E+04  0.12700000000E+01 0. -1.
         -4   -1    0    0    0  501 -0.00000000000E+00 -0.00000000000E+00 -0.33727879578E+01  0.36039698401E+01  0.12700000000E+01 0. -1.
         25    2    1    2    0    0  0.00000000000E+00  0.00000000000E+00  0.11161817850E+04  0.11231592631E+04  0.12499981274E+03 0.  0.
    9000005    1    3    3    0    0  0.57430406077E+02 -0.20912821931E+02  0.67512081654E+03  0.67788252270E+03  0.10000000000E+01 0.  0.
    9000005    1    3    3    0    0 -0.57430406077E+02  0.20912821931E+02  0.44106096845E+03  0.44527674041E+03  0.10000000000E+01 0.  0.
<mgrwt>
<rscale>  0 0.12499981E+03</rscale>
<asrwt>0</asrwt>
<pdfrwt beam="1">  1        4 0.17225737E+00 0.12499981E+03</pdfrwt>
<pdfrwt beam="2">  1       -4 0.53672795E-03 0.12499981E+03</pdfrwt>
<totfact> 0.26815324E+03</totfact>
</mgrwt>
</event>
<event>
 5    1  0.3321169E-002  0.1250013E+03  0.7818608E-02  0.1235067E+00
          4   -1    0    0  501    0  0.00000000000E+00  0.00000000000E+00  0.59283036274E+02  0.59296638100E+02  0.12700000000E+01 0. -1.
         -4   -1    0    0    0  501 -0.00000000000E+00 -0.00000000000E+00 -0.65865623675E+02  0.65877866405E+02  0.12700000000E+01 0. -1.
         25    2    1    2    0    0  0.00000000000E+00  0.00000000000E+00 -0.65825874008E+01  0.12517450450E+03  0.12500130448E+03 0.  0.
    9000005    1    3    3    0    0 -0.19395662172E+02 -0.25015172758E+02  0.50666396129E+02  0.59749763815E+02  0.10000000000E+01 0.  0.
    9000005    1    3    3    0    0  0.19395662172E+02  0.25015172758E+02 -0.57248983530E+02  0.65424740690E+02  0.10000000000E+01 0.  0.
<mgrwt>
<rscale>  0 0.12500130E+03</rscale>
<asrwt>0</asrwt>
<pdfrwt beam="1">  1        4 0.91224551E-02 0.12500130E+03</pdfrwt>
<pdfrwt beam="2">  1       -4 0.10135161E-01 0.12500130E+03</pdfrwt>
<totfact> 0.10448766E+04</totfact>
</mgrwt>
</event>
<event>
 5    1  0.3321169E-002  0.1249855E+03  0.7818608E-02  0.1235092E+00
         -4   -1    0    0    0  501 -0.00000000000E+00  0.00000000000E+00  0.23969199945E+03  0.23969536395E+03  0.12700000000E+01 0. -1.
          4   -1    0    0  501    0  0.00000000000E+00 -0.00000000000E+00 -0.16264946523E+02  0.16314453267E+02  0.12700000000E+01 0. -1.
         25    2    1    2    0    0  0.00000000000E+00  0.00000000000E+00  0.22342705292E+03  0.25600981722E+03  0.12498551329E+03 0.  0.
    9000005    1    3    3    0    0 -0.31443769264E+02  0.53805657428E+02  0.12100693163E+03  0.13611552777E+03  0.10000000000E+01 0.  0.
    9000005    1    3    3    0    0  0.31443769264E+02 -0.53805657428E+02  0.10242012129E+03  0.11989428945E+03  0.10000000000E+01 0.  0.
<mgrwt>
<rscale>  0 0.12498551E+03</rscale>
<asrwt>0</asrwt>
<pdfrwt beam="2">  1        4 0.25063666E-02 0.12498551E+03</pdfrwt>
<pdfrwt beam="1">  1       -4 0.36879757E-01 0.12498551E+03</pdfrwt>
<totfact> 0.81495593E+03</totfact>
</mgrwt>
</event>
<event>
 5    1  0.3321169E-002  0.1250002E+03  0.7818608E-02  0.1235069E+00
         -4   -1    0    0    0  501 -0.00000000000E+00  0.00000000000E+00  0.49588789795E+02  0.49605049877E+02  0.12700000000E+01 0. -1.
          4   -1    0    0  501    0  0.00000000000E+00 -0.00000000000E+00 -0.78738817640E+02  0.78749059063E+02  0.12700000000E+01 0. -1.
         25    2    1    2    0    0  0.00000000000E+00  0.00000000000E+00 -0.29150027845E+02  0.12835410894E+03  0.12500021263E+03 0.  0.
    9000005    1    3    3    0    0  0.36087341174E+02 -0.35451555809E+02  0.23099394682E+02  0.55620958612E+02  0.10000000000E+01 0.  0.
    9000005    1    3    3    0    0 -0.36087341174E+02  0.35451555809E+02 -0.52249422527E+02  0.72733150328E+02  0.10000000000E+01 0.  0.
<mgrwt>
<rscale>  0 0.12500021E+03</rscale>
<asrwt>0</asrwt>
<pdfrwt beam="2">  1        4 0.12115703E-01 0.12500021E+03</pdfrwt>
<pdfrwt beam="1">  1       -4 0.76310832E-02 0.12500021E+03</pdfrwt>
<totfact> 0.10379798E+04</totfact>
</mgrwt>
</event>
<event>
 5    1  0.3321169E-002  0.1249924E+03  0.7818608E-02  0.1235081E+00
         -4   -1    0    0    0  501 -0.00000000000E+00  0.00000000000E+00  0.40935117726E+01  0.42859933075E+01  0.12700000000E+01 0.  1.
          4   -1    0    0  501    0  0.00000000000E+00 -0.00000000000E+00 -0.93202789559E+03  0.93202876086E+03  0.12700000000E+01 0.  1.
         25    2    1    2    0    0  0.00000000000E+00  0.00000000000E+00 -0.92793438382E+03  0.93631475416E+03  0.12499239252E+03 0.  0.
    9000005    1    3    3    0    0 -0.41952721954E+02 -0.45351909814E+02 -0.39371641498E+03  0.39853537111E+03  0.10000000000E+01 0.  0.
    9000005    1    3    3    0    0  0.41952721954E+02  0.45351909814E+02 -0.53421796884E+03  0.53777938305E+03  0.10000000000E+01 0.  0.
<mgrwt>
<rscale>  0 0.12499239E+03</rscale>
<asrwt>0</asrwt>
<pdfrwt beam="2">  1        4 0.14340362E+00 0.12499239E+03</pdfrwt>
<pdfrwt beam="1">  1       -4 0.64464461E-03 0.12499239E+03</pdfrwt>
<totfact> 0.32812375E+03</totfact>
</mgrwt>
</event>
<event>
 5    1  0.3321169E-002  0.1249867E+03  0.7818608E-02  0.1235090E+00
          4   -1    0    0  501    0  0.00000000000E+00  0.00000000000E+00  0.45889875059E+02  0.45907445288E+02  0.12700000000E+01 0.  1.
         -4   -1    0    0    0  501 -0.00000000000E+00 -0.00000000000E+00 -0.85065580031E+02  0.85075059835E+02  0.12700000000E+01 0.  1.
         25    2    1    2    0    0  0.00000000000E+00  0.00000000000E+00 -0.39175704972E+02  0.13098250512E+03  0.12498672245E+03 0.  0.
    9000005    1    3    3    0    0 -0.10792645742E+02 -0.57712896392E+02  0.28191520781E+01  0.58789516332E+02  0.10000000000E+01 0.  0.
    9000005    1    3    3    0    0  0.10792645742E+02  0.57712896392E+02 -0.41994857050E+02  0.72192988792E+02  0.10000000000E+01 0.  0.
<mgrwt>
<rscale>  0 0.12498672E+03</rscale>
<asrwt>0</asrwt>
<pdfrwt beam="1">  1        4 0.70620616E-02 0.12498672E+03</pdfrwt>
<pdfrwt beam="2">  1       -4 0.13089093E-01 0.12498672E+03</pdfrwt>
<totfact> 0.10326557E+04</totfact>
</mgrwt>
</event>
<event>
 5    1  0.3321169E-002  0.1249993E+03  0.7818608E-02  0.1235070E+00
          4   -1    0    0  501    0  0.00000000000E+00  0.00000000000E+00  0.55828653853E+02  0.55843097076E+02  0.12700000000E+01 0.  1.
         -4   -1    0    0    0  501 -0.00000000000E+00 -0.00000000000E+00 -0.69938465764E+02  0.69949995664E+02  0.12700000000E+01 0.  1.
         25    2    1    2    0    0  0.00000000000E+00  0.00000000000E+00 -0.14109811910E+02  0.12579309274E+03  0.12499926155E+03 0.  0.
    9000005    1    3    3    0    0 -0.39470898675E+01  0.24571299174E+01 -0.69769101798E+02  0.69930998645E+02  0.10000000000E+01 0.  0.
    9000005    1    3    3    0    0  0.39470898675E+01 -0.24571299174E+01  0.55659289888E+02  0.55862094095E+02  0.10000000000E+01 0.  0.
<mgrwt>
<rscale>  0 0.12499926E+03</rscale>
<asrwt>0</asrwt>
<pdfrwt beam="1">  1        4 0.85910216E-02 0.12499926E+03</pdfrwt>
<pdfrwt beam="2">  1       -4 0.10761762E-01 0.12499926E+03</pdfrwt>
<totfact> 0.10435671E+04</totfact>
</mgrwt>
</event>
<event>
 5    1  0.3321169E-002  0.1250005E+03  0.7818608E-02  0.1235069E+00
         -4   -1    0    0    0  501 -0.00000000000E+00  0.00000000000E+00  0.13897695587E+02  0.13955602553E+02  0.12700000000E+01 0. -1.
          4   -1    0    0  501    0  0.00000000000E+00 -0.00000000000E+00 -0.28043010538E+03  0.28043298112E+03  0.12700000000E+01 0. -1.
         25    2    1    2    0    0  0.00000000000E+00  0.00000000000E+00 -0.26653240979E+03  0.29438858368E+03  0.12500045092E+03 0.  0.
    9000005    1    3    3    0    0 -0.39329312167E+02 -0.43646530308E+01 -0.19355455738E+02  0.44062213499E+02  0.10000000000E+01 0.  0.
    9000005    1    3    3    0    0  0.39329312167E+02  0.43646530308E+01 -0.24717695405E+03  0.25032637018E+03  0.10000000000E+01 0.  0.
<mgrwt>
<rscale>  0 0.12500045E+03</rscale>
<asrwt>0</asrwt>
<pdfrwt beam="2">  1        4 0.43147764E-01 0.12500045E+03</pdfrwt>
<pdfrwt beam="1">  1       -4 0.21427828E-02 0.12500045E+03</pdfrwt>
<totfact> 0.76307397E+03</totfact>
</mgrwt>
</event>
<event>
 5    1  0.3321169E-002  0.1250028E+03  0.7818608E-02  0.1235065E+00
         -4   -1    0    0    0  501 -0.00000000000E+00  0.00000000000E+00  0.32163982035E+02  0.32189045347E+02  0.12700000000E+01 0. -1.
          4   -1    0    0  501    0  0.00000000000E+00 -0.00000000000E+00 -0.12137778203E+03  0.12138442598E+03  0.12700000000E+01 0. -1.
         25    2    1    2    0    0  0.00000000000E+00  0.00000000000E+00 -0.89213799991E+02  0.15357347132E+03  0.12500283591E+03 0.  0.
    9000005    1    3    3    0    0  0.44170031469E+02  0.43476681402E+02 -0.54451777569E+02  0.82505815469E+02  0.10000000000E+01 0.  0.
    9000005    1    3    3    0    0 -0.44170031469E+02 -0.43476681402E+02 -0.34762022422E+02  0.71067655854E+02  0.10000000000E+01 0.  0.
<mgrwt>
<rscale>  0 0.12500284E+03</rscale>
<asrwt>0</asrwt>
<pdfrwt beam="2">  1        4 0.18675944E-01 0.12500284E+03</pdfrwt>
<pdfrwt beam="1">  1       -4 0.49507440E-02 0.12500284E+03</pdfrwt>
<totfact> 0.98589800E+03</totfact>
</mgrwt>
</event>
<event>
 5    1  0.3321169E-002  0.1250001E+03  0.7818608E-02  0.1235069E+00
         -4   -1    0    0    0  501 -0.00000000000E+00  0.00000000000E+00  0.24998992513E+03  0.24999315104E+03  0.12700000000E+01 0. -1.
          4   -1    0    0  501    0  0.00000000000E+00 -0.00000000000E+00 -0.15596520898E+02  0.15648142514E+02  0.12700000000E+01 0. -1.
         25    2    1    2    0    0  0.00000000000E+00  0.00000000000E+00  0.23439340423E+03  0.26564129355E+03  0.12500011557E+03 0.  0.
    9000005    1    3    3    0    0 -0.31812282088E+02  0.19361355088E+02  0.22384287461E+03  0.22692182768E+03  0.10000000000E+01 0.  0.
    9000005    1    3    3    0    0  0.31812282088E+02 -0.19361355088E+02  0.10550529622E+02  0.38719465877E+02  0.10000000000E+01 0.  0.
<mgrwt>
<rscale>  0 0.12500012E+03</rscale>
<asrwt>0</asrwt>
<pdfrwt beam="2">  1        4 0.24036838E-02 0.12500012E+03</pdfrwt>
<pdfrwt beam="1">  1       -4 0.38464207E-01 0.12500012E+03</pdfrwt>
<totfact> 0.80120640E+03</totfact>
</mgrwt>
</event>
<event>
 5    1  0.3321169E-002  0.1250002E+03  0.7818608E-02  0.1235069E+00
          4   -1    0    0  501    0  0.00000000000E+00  0.00000000000E+00  0.34266460010E+03  0.34266695356E+03  0.12700000000E+01 0. -1.
         -4   -1    0    0    0  501 -0.00000000000E+00 -0.00000000000E+00 -0.11361890743E+02  0.11432648917E+02  0.12700000000E+01 0. -1.
         25    2    1    2    0    0  0.00000000000E+00  0.00000000000E+00  0.33130270936E+03  0.35409960247E+03  0.12500017298E+03 0.  0.
    9000005    1    3    3    0    0  0.76504196456E+01  0.57408165888E+02  0.99154029974E+02  0.11483356692E+03  0.10000000000E+01 0.  0.
    9000005    1    3    3    0    0 -0.76504196456E+01 -0.57408165888E+02  0.23214867938E+03  0.23926603555E+03  0.10000000000E+01 0.  0.
<mgrwt>
<rscale>  0 0.12500017E+03</rscale>
<asrwt>0</asrwt>
<pdfrwt beam="1">  1        4 0.52723255E-01 0.12500017E+03</pdfrwt>
<pdfrwt beam="2">  1       -4 0.17536072E-02 0.12500017E+03</pdfrwt>
<totfact> 0.69275625E+03</totfact>
</mgrwt>
</event>
<event>
 5    1  0.3321169E-002  0.1250000E+03  0.7818608E-02  0.1235069E+00
          4   -1    0    0  501    0  0.00000000000E+00  0.00000000000E+00  0.90609312546E+01  0.91495013634E+01  0.12700000000E+01 0.  1.
         -4   -1    0    0    0  501 -0.00000000000E+00 -0.00000000000E+00 -0.42892297042E+03  0.42892485059E+03  0.12700000000E+01 0.  1.
         25    2    1    2    0    0  0.00000000000E+00  0.00000000000E+00 -0.41986203917E+03  0.43807435196E+03  0.12500002363E+03 0.  0.
    9000005    1    3    3    0    0 -0.21711008551E+02  0.11663395237E+02 -0.41118899611E+03  0.41192814082E+03  0.10000000000E+01 0.  0.
    9000005    1    3    3    0    0  0.21711008551E+02 -0.11663395237E+02 -0.86730430598E+01  0.26146211134E+02  0.10000000000E+01 0.  0.
<mgrwt>
<rscale>  0 0.12500002E+03</rscale>
<asrwt>0</asrwt>
<pdfrwt beam="1">  1        4 0.14009475E-02 0.12500002E+03</pdfrwt>
<pdfrwt beam="2">  1       -4 0.65995091E-01 0.12500002E+03</pdfrwt>
<totfact> 0.61010834E+03</totfact>
</mgrwt>
</event>
<event>
 5    1  0.3321169E-002  0.1249807E+03  0.7818608E-02  0.1235099E+00
          4   -1    0    0  501    0  0.00000000000E+00  0.00000000000E+00  0.42138241705E+02  0.42157375558E+02  0.12700000000E+01 0.  1.
         -4   -1    0    0    0  501 -0.00000000000E+00 -0.00000000000E+00 -0.92627737940E+02  0.92636443886E+02  0.12700000000E+01 0.  1.
         25    2    1    2    0    0  0.00000000000E+00  0.00000000000E+00 -0.50489496235E+02  0.13479381944E+03  0.12498073664E+03 0.  0.
    9000005    1    3    3    0    0 -0.21606843235E+02  0.50753365843E+02  0.64072165581E+01  0.55541086081E+02  0.10000000000E+01 0.  0.
    9000005    1    3    3    0    0  0.21606843235E+02 -0.50753365843E+02 -0.56896712793E+02  0.79252733364E+02  0.10000000000E+01 0.  0.
<mgrwt>
<rscale>  0 0.12498074E+03</rscale>
<asrwt>0</asrwt>
<pdfrwt beam="1">  1        4 0.64849480E-02 0.12498074E+03</pdfrwt>
<pdfrwt beam="2">  1       -4 0.14252563E-01 0.12498074E+03</pdfrwt>
<totfact> 0.10246870E+04</totfact>
</mgrwt>
</event>
<event>
 5    1  0.3321169E-002  0.1250015E+03  0.7818608E-02  0.1235067E+00
          4   -1    0    0  501    0  0.00000000000E+00  0.00000000000E+00  0.48204684906E+03  0.48204852203E+03  0.12700000000E+01 0.  1.
         -4   -1    0    0    0  501 -0.00000000000E+00 -0.00000000000E+00 -0.80522096941E+01  0.81517471107E+01  0.12700000000E+01 0.  1.
         25    2    1    2    0    0  0.00000000000E+00  0.00000000000E+00  0.47399463937E+03  0.49020026914E+03  0.12500154285E+03 0.  0.
    9000005    1    3    3    0    0 -0.39027272916E+02 -0.23669354580E+02  0.69607137987E+02  0.83243738721E+02  0.10000000000E+01 0.  0.
    9000005    1    3    3    0    0  0.39027272916E+02  0.23669354580E+02  0.40438750138E+03  0.40695653042E+03  0.10000000000E+01 0.  0.
<mgrwt>
<rscale>  0 0.12500154E+03</rscale>
<asrwt>0</asrwt>
<pdfrwt beam="1">  1        4 0.74168840E-01 0.12500154E+03</pdfrwt>
<pdfrwt beam="2">  1       -4 0.12465869E-02 0.12500154E+03</pdfrwt>
<totfact> 0.56630879E+03</totfact>
</mgrwt>
</event>
<event>
 5    1  0.3321169E-002  0.1250043E+03  0.7818608E-02  0.1235063E+00
         -4   -1    0    0    0  501 -0.00000000000E+00  0.00000000000E+00  0.10760897948E+04  0.10760905442E+04  0.12700000000E+01 0.  1.
          4   -1    0    0  501    0  0.00000000000E+00 -0.00000000000E+00 -0.35184456774E+01  0.37406363075E+01  0.12700000000E+01 0.  1.
         25    2    1    2    0    0  0.00000000000E+00  0.00000000000E+00  0.10725713491E+04  0.10798311806E+04  0.12500431790E+03 0.  0.
    9000005    1    3    3    0    0  0.43255937566E+01  0.48054088488E+02  0.87939394172E+03  0.88071710039E+03  0.10000000000E+01 0.  0.
    9000005    1    3    3    0    0 -0.43255937566E+01 -0.48054088488E+02  0.19317740742E+03  0.19911408017E+03  0.10000000000E+01 0.  0.
<mgrwt>
<rscale>  0 0.12500432E+03</rscale>
<asrwt>0</asrwt>
<pdfrwt beam="2">  1        4 0.55844772E-03 0.12500432E+03</pdfrwt>
<pdfrwt beam="1">  1       -4 0.16556968E+00 0.12500432E+03</pdfrwt>
<totfact> 0.28078604E+03</totfact>
</mgrwt>
</event>
<event>
 5    1  0.3321169E-002  0.1249650E+03  0.7818608E-02  0.1235124E+00
         -4   -1    0    0    0  501 -0.00000000000E+00  0.00000000000E+00  0.16405464750E+02  0.16454548723E+02  0.12700000000E+01 0. -1.
          4   -1    0    0  501    0  0.00000000000E+00 -0.00000000000E+00 -0.23756722065E+03  0.23757061525E+03  0.12700000000E+01 0. -1.
         25    2    1    2    0    0  0.00000000000E+00  0.00000000000E+00 -0.22116175590E+03  0.25402516397E+03  0.12496504174E+03 0.  0.
    9000005    1    3    3    0    0  0.10686397797E+02  0.55754647780E+02 -0.16360015852E+03  0.17317272220E+03  0.10000000000E+01 0.  0.
    9000005    1    3    3    0    0 -0.10686397797E+02 -0.55754647780E+02 -0.57561597389E+02  0.80852441774E+02  0.10000000000E+01 0.  0.
<mgrwt>
<rscale>  0 0.12496504E+03</rscale>
<asrwt>0</asrwt>
<pdfrwt beam="2">  1        4 0.36552837E-01 0.12496504E+03</pdfrwt>
<pdfrwt beam="1">  1       -4 0.25279546E-02 0.12496504E+03</pdfrwt>
<totfact> 0.81815603E+03</totfact>
</mgrwt>
</event>
<event>
 5    1  0.3321169E-002  0.1250064E+03  0.7818608E-02  0.1235059E+00
          4   -1    0    0  501    0  0.00000000000E+00  0.00000000000E+00  0.12093673293E+02  0.12160174083E+02  0.12700000000E+01 0.  1.
         -4   -1    0    0    0  501 -0.00000000000E+00 -0.00000000000E+00 -0.32207896850E+03  0.32208147238E+03  0.12700000000E+01 0.  1.
         25    2    1    2    0    0  0.00000000000E+00  0.00000000000E+00 -0.30998529521E+03  0.33424164647E+03  0.12500637978E+03 0.  0.
    9000005    1    3    3    0    0  0.84860594391E+01 -0.23836163351E+02 -0.22003635575E+01  0.25416874078E+02  0.10000000000E+01 0.  0.
    9000005    1    3    3    0    0 -0.84860594391E+01  0.23836163351E+02 -0.30778493165E+03  0.30882477239E+03  0.10000000000E+01 0.  0.
<mgrwt>
<rscale>  0 0.12500638E+03</rscale>
<asrwt>0</asrwt>
<pdfrwt beam="1">  1        4 0.18658734E-02 0.12500638E+03</pdfrwt>
<pdfrwt beam="2">  1       -4 0.49555912E-01 0.12500638E+03</pdfrwt>
<totfact> 0.71483585E+03</totfact>
</mgrwt>
</event>
<event>
 5    1  0.3321169E-002  0.1249707E+03  0.7818608E-02  0.1235115E+00
         -4   -1    0    0    0  501 -0.00000000000E+00  0.00000000000E+00  0.11173971206E+03  0.11174692905E+03  0.12700000000E+01 0.  1.
          4   -1    0    0  501    0  0.00000000000E+00 -0.00000000000E+00 -0.34922217808E+02  0.34945302926E+02  0.12700000000E+01 0.  1.
         25    2    1    2    0    0  0.00000000000E+00  0.00000000000E+00  0.76817494255E+02  0.14669223198E+03  0.12497073057E+03 0.  0.
    9000005    1    3    3    0    0  0.15596613195E+02  0.58830553454E+02  0.54972925312E+02  0.82020185810E+02  0.10000000000E+01 0.  0.
    9000005    1    3    3    0    0 -0.15596613195E+02 -0.58830553454E+02  0.21844568943E+02  0.64672046165E+02  0.10000000000E+01 0.  0.
<mgrwt>
<rscale>  0 0.12497073E+03</rscale>
<asrwt>0</asrwt>
<pdfrwt beam="2">  1        4 0.53749798E-02 0.12497073E+03</pdfrwt>
<pdfrwt beam="1">  1       -4 0.17193056E-01 0.12497073E+03</pdfrwt>
<totfact> 0.10003309E+04</totfact>
</mgrwt>
</event>
<event>
 5    1  0.3321169E-002  0.1249731E+03  0.7818608E-02  0.1235111E+00
         -4   -1    0    0    0  501 -0.00000000000E+00  0.00000000000E+00  0.38023325038E+02  0.38044528476E+02  0.12700000000E+01 0.  1.
          4   -1    0    0  501    0  0.00000000000E+00 -0.00000000000E+00 -0.10263505425E+03  0.10264291140E+03  0.12700000000E+01 0.  1.
         25    2    1    2    0    0  0.00000000000E+00  0.00000000000E+00 -0.64611729212E+02  0.14068743988E+03  0.12497311786E+03 0.  0.
    9000005    1    3    3    0    0  0.25838957296E+02 -0.26838941731E+02  0.24156441473E+02  0.44412995531E+02  0.10000000000E+01 0.  0.
    9000005    1    3    3    0    0 -0.25838957296E+02  0.26838941731E+02 -0.88768170686E+02  0.96274444347E+02  0.10000000000E+01 0.  0.
<mgrwt>
<rscale>  0 0.12497312E+03</rscale>
<asrwt>0</asrwt>
<pdfrwt beam="2">  1        4 0.15792244E-01 0.12497312E+03</pdfrwt>
<pdfrwt beam="1">  1       -4 0.58519778E-02 0.12497312E+03</pdfrwt>
<totfact> 0.10125489E+04</totfact>
</mgrwt>
</event>
<event>
 5    1  0.3321169E-002  0.1249997E+03  0.7818608E-02  0.1235070E+00
          4   -1    0    0  501    0  0.00000000000E+00  0.00000000000E+00  0.19169687992E+03  0.19170108677E+03  0.12700000000E+01 0. -1.
         -4   -1    0    0    0  501 -0.00000000000E+00 -0.00000000000E+00 -0.20352899937E+02  0.20392484788E+02  0.12700000000E+01 0. -1.
         25    2    1    2    0    0  0.00000000000E+00  0.00000000000E+00  0.17134397998E+03  0.21209357156E+03  0.12499969449E+03 0.  0.
    9000005    1    3    3    0    0 -0.38686342040E+02 -0.38592428910E+02  0.34228689516E+02  0.64487299646E+02  0.10000000000E+01 0.  0.
    9000005    1    3    3    0    0  0.38686342040E+02  0.38592428910E+02  0.13711529046E+03  0.14760627191E+03  0.10000000000E+01 0.  0.
<mgrwt>
<rscale>  0 0.12499969E+03</rscale>
<asrwt>0</asrwt>
<pdfrwt beam="1">  1        4 0.29495197E-01 0.12499969E+03</pdfrwt>
<pdfrwt beam="2">  1       -4 0.31345838E-02 0.12499969E+03</pdfrwt>
<totfact> 0.88135711E+03</totfact>
</mgrwt>
</event>
<event>
 5    1  0.3321169E-002  0.1250019E+03  0.7818608E-02  0.1235066E+00
         -4   -1    0    0    0  501 -0.00000000000E+00  0.00000000000E+00  0.46244762389E+03  0.46244936776E+03  0.12700000000E+01 0. -1.
          4   -1    0    0  501    0  0.00000000000E+00 -0.00000000000E+00 -0.83976554486E+01  0.84931452968E+01  0.12700000000E+01 0. -1.
         25    2    1    2    0    0  0.00000000000E+00  0.00000000000E+00  0.45404996844E+03  0.47094251305E+03  0.12500190703E+03 0.  0.
    9000005    1    3    3    0    0  0.10929336991E+02  0.61506539215E+02  0.22064867452E+03  0.22932366284E+03  0.10000000000E+01 0.  0.
    9000005    1    3    3    0    0 -0.10929336991E+02 -0.61506539215E+02  0.23340129392E+03  0.24161885021E+03  0.10000000000E+01 0.  0.
<mgrwt>
<rscale>  0 0.12500191E+03</rscale>
<asrwt>0</asrwt>
<pdfrwt beam="2">  1        4 0.12994261E-02 0.12500191E+03</pdfrwt>
<pdfrwt beam="1">  1       -4 0.71153289E-01 0.12500191E+03</pdfrwt>
<totfact> 0.58189070E+03</totfact>
</mgrwt>
</event>
<event>
 5    1  0.3321169E-002  0.1250029E+03  0.7818608E-02  0.1235065E+00
         -4   -1    0    0    0  501 -0.00000000000E+00  0.00000000000E+00  0.19774440594E+03  0.19774848414E+03  0.12700000000E+01 0.  1.
          4   -1    0    0  501    0  0.00000000000E+00 -0.00000000000E+00 -0.19730252049E+02  0.19771083579E+02  0.12700000000E+01 0.  1.
         25    2    1    2    0    0  0.00000000000E+00  0.00000000000E+00  0.17801415389E+03  0.21751956772E+03  0.12500289339E+03 0.  0.
    9000005    1    3    3    0    0  0.96242110812E+01  0.33888602439E+02 -0.81340323132E+00  0.35252296933E+02  0.10000000000E+01 0.  0.
    9000005    1    3    3    0    0 -0.96242110812E+01 -0.33888602439E+02  0.17882755712E+03  0.18226727079E+03  0.10000000000E+01 0.  0.
<mgrwt>
<rscale>  0 0.12500289E+03</rscale>
<asrwt>0</asrwt>
<pdfrwt beam="2">  1        4 0.30388780E-02 0.12500289E+03</pdfrwt>
<pdfrwt beam="1">  1       -4 0.30425670E-01 0.12500289E+03</pdfrwt>
<totfact> 0.87256733E+03</totfact>
</mgrwt>
</event>
<event>
 5    1  0.3321169E-002  0.1249983E+03  0.7818608E-02  0.1235072E+00
         -4   -1    0    0    0  501 -0.00000000000E+00  0.00000000000E+00  0.62939067070E+03  0.62939195202E+03  0.12700000000E+01 0. -1.
          4   -1    0    0  501    0  0.00000000000E+00 -0.00000000000E+00 -0.61399587135E+01  0.62699276713E+01  0.12700000000E+01 0. -1.
         25    2    1    2    0    0  0.00000000000E+00  0.00000000000E+00  0.62325071199E+03  0.63566187969E+03  0.12499830118E+03 0.  0.
    9000005    1    3    3    0    0  0.15957876070E+02 -0.18656033040E+02  0.19385337963E+02  0.31296848170E+02  0.10000000000E+01 0.  0.
    9000005    1    3    3    0    0 -0.15957876070E+02  0.18656033040E+02  0.60386537403E+03  0.60436503152E+03  0.10000000000E+01 0.  0.
<mgrwt>
<rscale>  0 0.12499830E+03</rscale>
<asrwt>0</asrwt>
<pdfrwt beam="2">  1        4 0.95470517E-03 0.12499830E+03</pdfrwt>
<pdfrwt beam="1">  1       -4 0.96839434E-01 0.12499830E+03</pdfrwt>
<totfact> 0.46692961E+03</totfact>
</mgrwt>
</event>
<event>
 5    1  0.3321169E-002  0.1249930E+03  0.7818608E-02  0.1235080E+00
         -4   -1    0    0    0  501 -0.00000000000E+00  0.00000000000E+00  0.38612390792E+01  0.40647345825E+01  0.12700000000E+01 0. -1.
          4   -1    0    0  501    0  0.00000000000E+00 -0.00000000000E+00 -0.98536961433E+03  0.98537043276E+03  0.12700000000E+01 0. -1.
         25    2    1    2    0    0  0.00000000000E+00  0.00000000000E+00 -0.98150837526E+03  0.98943516734E+03  0.12499303850E+03 0.  0.
    9000005    1    3    3    0    0  0.19496355333E+02 -0.31257693065E+00 -0.20798390932E+02  0.28526805657E+02  0.10000000000E+01 0.  0.
    9000005    1    3    3    0    0 -0.19496355333E+02  0.31257693065E+00 -0.96070998432E+03  0.96090836168E+03  0.10000000000E+01 0.  0.
<mgrwt>
<rscale>  0 0.12499304E+03</rscale>
<asrwt>0</asrwt>
<pdfrwt beam="2">  1        4 0.15161085E+00 0.12499304E+03</pdfrwt>
<pdfrwt beam="1">  1       -4 0.60975402E-03 0.12499304E+03</pdfrwt>
<totfact> 0.30960642E+03</totfact>
</mgrwt>
</event>
<event>
 5    1  0.3321169E-002  0.1249989E+03  0.7818608E-02  0.1235071E+00
          4   -1    0    0  501    0  0.00000000000E+00  0.00000000000E+00  0.31376976855E+03  0.31377233874E+03  0.12700000000E+01 0. -1.
         -4   -1    0    0    0  501 -0.00000000000E+00 -0.00000000000E+00 -0.12414171567E+02  0.12478964528E+02  0.12700000000E+01 0. -1.
         25    2    1    2    0    0  0.00000000000E+00  0.00000000000E+00  0.30135559698E+03  0.32625130327E+03  0.12499886819E+03 0.  0.
    9000005    1    3    3    0    0  0.36704344639E+02 -0.43915162110E+02  0.85196164410E+02  0.10264081454E+03  0.10000000000E+01 0.  0.
    9000005    1    3    3    0    0 -0.36704344639E+02  0.43915162110E+02  0.21615943257E+03  0.22361048873E+03  0.10000000000E+01 0.  0.
<mgrwt>
<rscale>  0 0.12499887E+03</rscale>
<asrwt>0</asrwt>
<pdfrwt beam="1">  1        4 0.48277452E-01 0.12499887E+03</pdfrwt>
<pdfrwt beam="2">  1       -4 0.19150544E-02 0.12499887E+03</pdfrwt>
<totfact> 0.72420549E+03</totfact>
</mgrwt>
</event>
<event>
 5    1  0.3321169E-002  0.1249978E+03  0.7818608E-02  0.1235073E+00
         -4   -1    0    0    0  501 -0.00000000000E+00  0.00000000000E+00  0.73815683906E+01  0.74900234917E+01  0.12700000000E+01 0.  1.
          4   -1    0    0  501    0  0.00000000000E+00 -0.00000000000E+00 -0.52520294920E+03  0.52520448470E+03  0.12700000000E+01 0.  1.
         25    2    1    2    0    0  0.00000000000E+00  0.00000000000E+00 -0.51782138081E+03  0.53269450819E+03  0.12499782652E+03 0.  0.
    9000005    1    3    3    0    0 -0.33286434637E+02 -0.21002824988E+02 -0.52056554209E+02  0.65268600601E+02  0.10000000000E+01 0.  0.
    9000005    1    3    3    0    0  0.33286434637E+02  0.21002824988E+02 -0.46576482660E+03  0.46742590759E+03  0.10000000000E+01 0.  0.
<mgrwt>
<rscale>  0 0.12499783E+03</rscale>
<asrwt>0</asrwt>
<pdfrwt beam="2">  1        4 0.80808886E-01 0.12499783E+03</pdfrwt>
<pdfrwt beam="1">  1       -4 0.11440871E-02 0.12499783E+03</pdfrwt>
<totfact> 0.53416567E+03</totfact>
</mgrwt>
</event>
<event>
 5    1  0.3321169E-002  0.1249989E+03  0.7818608E-02  0.1235071E+00
          4   -1    0    0  501    0  0.00000000000E+00  0.00000000000E+00  0.41303506784E+01  0.43211915864E+01  0.12700000000E+01 0.  1.
         -4   -1    0    0    0  501 -0.00000000000E+00 -0.00000000000E+00 -0.92418050271E+03  0.92418137532E+03  0.12700000000E+01 0.  1.
         25    2    1    2    0    0  0.00000000000E+00  0.00000000000E+00 -0.92005015203E+03  0.92850256690E+03  0.12499893799E+03 0.  0.
    9000005    1    3    3    0    0 -0.16019087897E+02 -0.22369104051E+02 -0.87680581609E+03  0.87723795354E+03  0.10000000000E+01 0.  0.
    9000005    1    3    3    0    0  0.16019087897E+02  0.22369104051E+02 -0.43244335937E+02  0.51264613368E+02  0.10000000000E+01 0.  0.
<mgrwt>
<rscale>  0 0.12499894E+03</rscale>
<asrwt>0</asrwt>
<pdfrwt beam="1">  1        4 0.65018649E-03 0.12499894E+03</pdfrwt>
<pdfrwt beam="2">  1       -4 0.14219620E+00 0.12499894E+03</pdfrwt>
<totfact> 0.33092523E+03</totfact>
</mgrwt>
</event>
<event>
 5    1  0.3321169E-002  0.1250000E+03  0.7818608E-02  0.1235069E+00
         -4   -1    0    0    0  501 -0.00000000000E+00  0.00000000000E+00  0.88083519806E+01  0.88994361964E+01  0.12700000000E+01 0.  1.
          4   -1    0    0  501    0  0.00000000000E+00 -0.00000000000E+00 -0.44109800477E+03  0.44109983304E+03  0.12700000000E+01 0.  1.
         25    2    1    2    0    0  0.00000000000E+00  0.00000000000E+00 -0.43228965279E+03  0.44999926924E+03  0.12499999363E+03 0.  0.
    9000005    1    3    3    0    0 -0.20624882555E+02 -0.46080765379E+02 -0.83558110958E+02  0.97630838495E+02  0.10000000000E+01 0.  0.
    9000005    1    3    3    0    0  0.20624882555E+02  0.46080765379E+02 -0.34873154183E+03  0.35236843074E+03  0.10000000000E+01 0.  0.
<mgrwt>
<rscale>  0 0.12499999E+03</rscale>
<asrwt>0</asrwt>
<pdfrwt beam="2">  1        4 0.67868362E-01 0.12499999E+03</pdfrwt>
<pdfrwt beam="1">  1       -4 0.13622785E-02 0.12499999E+03</pdfrwt>
<totfact> 0.59963874E+03</totfact>
</mgrwt>
</event>
<event>
 5    1  0.3321169E-002  0.1250114E+03  0.7818608E-02  0.1235051E+00
          4   -1    0    0  501    0  0.00000000000E+00  0.00000000000E+00  0.76588807512E+02  0.76599336395E+02  0.12700000000E+01 0.  1.
         -4   -1    0    0    0  501 -0.00000000000E+00 -0.00000000000E+00 -0.50990272343E+02  0.51006085653E+02  0.12700000000E+01 0.  1.
         25    2    1    2    0    0  0.00000000000E+00  0.00000000000E+00  0.25598535169E+02  0.12760542205E+03  0.12501143441E+03 0.  0.
    9000005    1    3    3    0    0 -0.13784610018E+02  0.59786096015E+02  0.24944559882E+02  0.66239141130E+02  0.10000000000E+01 0.  0.
    9000005    1    3    3    0    0  0.13784610018E+02 -0.59786096015E+02  0.65397528735E+00  0.61366280918E+02  0.10000000000E+01 0.  0.
<mgrwt>
<rscale>  0 0.12501143E+03</rscale>
<asrwt>0</asrwt>
<pdfrwt beam="1">  1        4 0.11784920E-01 0.12501143E+03</pdfrwt>
<pdfrwt beam="2">  1       -4 0.78466837E-02 0.12501143E+03</pdfrwt>
<totfact> 0.10393335E+04</totfact>
</mgrwt>
</event>
<event>
 5    1  0.3321169E-002  0.1249774E+03  0.7818608E-02  0.1235105E+00
          4   -1    0    0  501    0  0.00000000000E+00  0.00000000000E+00  0.52648696175E+02  0.52664011516E+02  0.12700000000E+01 0.  1.
         -4   -1    0    0    0  501 -0.00000000000E+00 -0.00000000000E+00 -0.74136221426E+02  0.74147098577E+02  0.12700000000E+01 0.  1.
         25    2    1    2    0    0  0.00000000000E+00  0.00000000000E+00 -0.21487525251E+02  0.12681111009E+03  0.12497737356E+03 0.  0.
    9000005    1    3    3    0    0  0.54772266159E+02  0.13547910303E+02 -0.37975747074E+02  0.68019882238E+02  0.10000000000E+01 0.  0.
    9000005    1    3    3    0    0 -0.54772266159E+02 -0.13547910303E+02  0.16488221823E+02  0.58791227855E+02  0.10000000000E+01 0.  0.
<mgrwt>
<rscale>  0 0.12497737E+03</rscale>
<asrwt>0</asrwt>
<pdfrwt beam="1">  1        4 0.81018142E-02 0.12497737E+03</pdfrwt>
<pdfrwt beam="2">  1       -4 0.11407587E-01 0.12497737E+03</pdfrwt>
<totfact> 0.10418572E+04</totfact>
</mgrwt>
</event>
<event>
 5    1  0.3321169E-002  0.1250239E+03  0.7818608E-02  0.1235032E+00
          4   -1    0    0  501    0  0.00000000000E+00  0.00000000000E+00  0.19083218492E+03  0.19083641084E+03  0.12700000000E+01 0.  1.
         -4   -1    0    0    0  501 -0.00000000000E+00 -0.00000000000E+00 -0.20453228311E+02  0.20492619363E+02  0.12700000000E+01 0.  1.
         25    2    1    2    0    0  0.00000000000E+00  0.00000000000E+00  0.17037895661E+03  0.21132903020E+03  0.12502387832E+03 0.  0.
    9000005    1    3    3    0    0  0.59860093841E+02  0.99858170960E+01  0.11047614231E+03  0.12605128083E+03  0.10000000000E+01 0.  0.
    9000005    1    3    3    0    0 -0.59860093841E+02 -0.99858170960E+01  0.59902814295E+02  0.85277749373E+02  0.10000000000E+01 0.  0.
<mgrwt>
<rscale>  0 0.12502388E+03</rscale>
<asrwt>0</asrwt>
<pdfrwt beam="1">  1        4 0.29362154E-01 0.12502388E+03</pdfrwt>
<pdfrwt beam="2">  1       -4 0.31500055E-02 0.12502388E+03</pdfrwt>
<totfact> 0.88212196E+03</totfact>
</mgrwt>
</event>
<event>
 5    1  0.3321169E-002  0.1250040E+03  0.7818608E-02  0.1235063E+00
          4   -1    0    0  501    0  0.00000000000E+00  0.00000000000E+00  0.10768315489E+03  0.10769064373E+03  0.12700000000E+01 0. -1.
         -4   -1    0    0    0  501 -0.00000000000E+00 -0.00000000000E+00 -0.36257843181E+02  0.36280078447E+02  0.12700000000E+01 0. -1.
         25    2    1    2    0    0  0.00000000000E+00  0.00000000000E+00  0.71425311707E+02  0.14397072218E+03  0.12500397470E+03 0.  0.
    9000005    1    3    3    0    0  0.26364963944E+02 -0.21788496745E+02  0.95952038005E+02  0.10187071960E+03  0.10000000000E+01 0.  0.
    9000005    1    3    3    0    0 -0.26364963944E+02  0.21788496745E+02 -0.24526726298E+02  0.42100002578E+02  0.10000000000E+01 0.  0.
<mgrwt>
<rscale>  0 0.12500397E+03</rscale>
<asrwt>0</asrwt>
<pdfrwt beam="1">  1        4 0.16568926E-01 0.12500397E+03</pdfrwt>
<pdfrwt beam="2">  1       -4 0.55804162E-02 0.12500397E+03</pdfrwt>
<totfact> 0.10051043E+04</totfact>
</mgrwt>
</event>
<event>
 5    1  0.3321169E-002  0.1249995E+03  0.7818608E-02  0.1235070E+00
         -4   -1    0    0    0  501 -0.00000000000E+00  0.00000000000E+00  0.28671023184E+03  0.28671304460E+03  0.12700000000E+01 0. -1.
          4   -1    0    0  501    0  0.00000000000E+00 -0.00000000000E+00 -0.13591792646E+02  0.13650997302E+02  0.12700000000E+01 0. -1.
         25    2    1    2    0    0  0.00000000000E+00  0.00000000000E+00  0.27311843920E+03  0.30036404190E+03  0.12499950335E+03 0.  0.
    9000005    1    3    3    0    0  0.47605382162E+02 -0.10525253938E+02  0.23049366139E+03  0.23559580073E+03  0.10000000000E+01 0.  0.
    9000005    1    3    3    0    0 -0.47605382162E+02  0.10525253938E+02  0.42624777810E+02  0.64768241172E+02  0.10000000000E+01 0.  0.
<mgrwt>
<rscale>  0 0.12499950E+03</rscale>
<asrwt>0</asrwt>
<pdfrwt beam="2">  1        4 0.20958157E-02 0.12499950E+03</pdfrwt>
<pdfrwt beam="1">  1       -4 0.44114036E-01 0.12499950E+03</pdfrwt>
<totfact> 0.75554029E+03</totfact>
</mgrwt>
</event>
<event>
 5    1  0.3321169E-002  0.1250014E+03  0.7818608E-02  0.1235067E+00
          4   -1    0    0  501    0  0.00000000000E+00  0.00000000000E+00  0.77000581135E+03  0.77000685868E+03  0.12700000000E+01 0.  1.
         -4   -1    0    0    0  501 -0.00000000000E+00 -0.00000000000E+00 -0.49925763148E+01  0.51515743476E+01  0.12700000000E+01 0.  1.
         25    2    1    2    0    0  0.00000000000E+00  0.00000000000E+00  0.76501323503E+03  0.77515843302E+03  0.12500138605E+03 0.  0.
    9000005    1    3    3    0    0  0.22967254519E+02 -0.22979258982E+02  0.71354815936E+03  0.71428811893E+03  0.10000000000E+01 0.  0.
    9000005    1    3    3    0    0 -0.22967254519E+02  0.22979258982E+02  0.51465075672E+02  0.60870314090E+02  0.10000000000E+01 0.  0.
<mgrwt>
<rscale>  0 0.12500139E+03</rscale>
<asrwt>0</asrwt>
<pdfrwt beam="1">  1        4 0.11847476E+00 0.12500139E+03</pdfrwt>
<pdfrwt beam="2">  1       -4 0.78039977E-03 0.12500139E+03</pdfrwt>
<totfact> 0.39396846E+03</totfact>
</mgrwt>
</event>
<event>
 5    1  0.3321169E-002  0.1250000E+03  0.7818608E-02  0.1235069E+00
         -4   -1    0    0    0  501 -0.00000000000E+00  0.00000000000E+00  0.28610228611E+02  0.28638402211E+02  0.12700000000E+01 0. -1.
          4   -1    0    0  501    0  0.00000000000E+00 -0.00000000000E+00 -0.13643503905E+03  0.13644094980E+03  0.12700000000E+01 0. -1.
         25    2    1    2    0    0  0.00000000000E+00  0.00000000000E+00 -0.10782481044E+03  0.16507935201E+03  0.12500001085E+03 0.  0.
    9000005    1    3    3    0    0 -0.21123073833E+02 -0.57880605475E+02 -0.40130777553E+02  0.73537936096E+02  0.10000000000E+01 0.  0.
    9000005    1    3    3    0    0  0.21123073833E+02  0.57880605475E+02 -0.67694032890E+02  0.91541415913E+02  0.10000000000E+01 0.  0.
<mgrwt>
<rscale>  0 0.12500001E+03</rscale>
<asrwt>0</asrwt>
<pdfrwt beam="2">  1        4 0.20992628E-01 0.12500001E+03</pdfrwt>
<pdfrwt beam="1">  1       -4 0.44041956E-02 0.12500001E+03</pdfrwt>
<totfact> 0.96372343E+03</totfact>
</mgrwt>
</event>
<event>
 5    1  0.3321169E-002  0.1249988E+03  0.7818608E-02  0.1235071E+00
         -4   -1    0    0    0  501 -0.00000000000E+00  0.00000000000E+00  0.15927588811E+03  0.15928095125E+03  0.12700000000E+01 0.  1.
          4   -1    0    0  501    0  0.00000000000E+00 -0.00000000000E+00 -0.24502675500E+02  0.24535566157E+02  0.12700000000E+01 0.  1.
         25    2    1    2    0    0  0.00000000000E+00  0.00000000000E+00  0.13477321261E+03  0.18381651741E+03  0.12499877294E+03 0.  0.
    9000005    1    3    3    0    0  0.11283388862E+02  0.56071274025E+02  0.10441024625E+03  0.11905377843E+03  0.10000000000E+01 0.  0.
    9000005    1    3    3    0    0 -0.11283388862E+02 -0.56071274025E+02  0.30362966356E+02  0.64762738986E+02  0.10000000000E+01 0.  0.
<mgrwt>
<rscale>  0 0.12499877E+03</rscale>
<asrwt>0</asrwt>
<pdfrwt beam="2">  1        4 0.37725618E-02 0.12499877E+03</pdfrwt>
<pdfrwt beam="1">  1       -4 0.24506903E-01 0.12499877E+03</pdfrwt>
<totfact> 0.92937049E+03</totfact>
</mgrwt>
</event>
<event>
 5    1  0.3321169E-002  0.1249993E+03  0.7818608E-02  0.1235070E+00
          4   -1    0    0  501    0  0.00000000000E+00  0.00000000000E+00  0.14148413946E+03  0.14148983928E+03  0.12700000000E+01 0.  1.
         -4   -1    0    0    0  501 -0.00000000000E+00 -0.00000000000E+00 -0.27587943478E+02  0.27617159980E+02  0.12700000000E+01 0.  1.
         25    2    1    2    0    0  0.00000000000E+00  0.00000000000E+00  0.11389619599E+03  0.16910699926E+03  0.12499933495E+03 0.  0.
    9000005    1    3    3    0    0  0.24282668482E+00 -0.17965159977E+02 -0.24025058693E+02  0.30016818335E+02  0.10000000000E+01 0.  0.
    9000005    1    3    3    0    0 -0.24282668482E+00  0.17965159977E+02  0.13792125468E+03  0.13909018093E+03  0.10000000000E+01 0.  0.
<mgrwt>
<rscale>  0 0.12499933E+03</rscale>
<asrwt>0</asrwt>
<pdfrwt beam="1">  1        4 0.21769476E-01 0.12499933E+03</pdfrwt>
<pdfrwt beam="2">  1       -4 0.42469849E-02 0.12499933E+03</pdfrwt>
<totfact> 0.95616624E+03</totfact>
</mgrwt>
</event>
<event>
 5    1  0.3321169E-002  0.1249890E+03  0.7818608E-02  0.1235087E+00
         -4   -1    0    0    0  501 -0.00000000000E+00  0.00000000000E+00  0.10710725141E+02  0.10785756025E+02  0.12700000000E+01 0.  1.
          4   -1    0    0  501    0  0.00000000000E+00 -0.00000000000E+00 -0.36329132280E+03  0.36329354264E+03  0.12700000000E+01 0.  1.
         25    2    1    2    0    0  0.00000000000E+00  0.00000000000E+00 -0.35258059766E+03  0.37407929866E+03  0.12498897488E+03 0.  0.
    9000005    1    3    3    0    0  0.34804689261E+02  0.48845893672E+02 -0.12382715195E+03  0.13759161051E+03  0.10000000000E+01 0.  0.
    9000005    1    3    3    0    0 -0.34804689261E+02 -0.48845893672E+02 -0.22875344571E+03  0.23648768815E+03  0.10000000000E+01 0.  0.
<mgrwt>
<rscale>  0 0.12498897E+03</rscale>
<asrwt>0</asrwt>
<pdfrwt beam="2">  1        4 0.55896906E-01 0.12498897E+03</pdfrwt>
<pdfrwt beam="1">  1       -4 0.16537465E-02 0.12498897E+03</pdfrwt>
<totfact> 0.67170687E+03</totfact>
</mgrwt>
</event>
<event>
 5    1  0.3321169E-002  0.1249982E+03  0.7818608E-02  0.1235072E+00
          4   -1    0    0  501    0  0.00000000000E+00  0.00000000000E+00  0.22690974041E+02  0.22726486814E+02  0.12700000000E+01 0. -1.
         -4   -1    0    0    0  501 -0.00000000000E+00 -0.00000000000E+00 -0.17197242842E+03  0.17197711777E+03  0.12700000000E+01 0. -1.
         25    2    1    2    0    0  0.00000000000E+00  0.00000000000E+00 -0.14928145438E+03  0.19470360458E+03  0.12499816405E+03 0.  0.
    9000005    1    3    3    0    0 -0.98272796081E+01  0.54771283466E+02 -0.30345693131E+02  0.63390299011E+02  0.10000000000E+01 0.  0.
    9000005    1    3    3    0    0  0.98272796081E+01 -0.54771283466E+02 -0.11893576125E+03  0.13131330557E+03  0.10000000000E+01 0.  0.
<mgrwt>
<rscale>  0 0.12499816E+03</rscale>
<asrwt>0</asrwt>
<pdfrwt beam="1">  1        4 0.34940117E-02 0.12499816E+03</pdfrwt>
<pdfrwt beam="2">  1       -4 0.26460388E-01 0.12499816E+03</pdfrwt>
<totfact> 0.91039025E+03</totfact>
</mgrwt>
</event>
<event>
 5    1  0.3321169E-002  0.1250125E+03  0.7818608E-02  0.1235050E+00
          4   -1    0    0  501    0  0.00000000000E+00  0.00000000000E+00  0.63238861333E+02  0.63251612491E+02  0.12700000000E+01 0.  1.
         -4   -1    0    0    0  501 -0.00000000000E+00 -0.00000000000E+00 -0.61756663776E+02  0.61769720905E+02  0.12700000000E+01 0.  1.
         25    2    1    2    0    0  0.00000000000E+00  0.00000000000E+00  0.14821975575E+01  0.12502133340E+03  0.12501254695E+03 0.  0.
    9000005    1    3    3    0    0 -0.20013742493E+02  0.21830951780E+02 -0.54298156877E+02  0.61858145660E+02  0.10000000000E+01 0.  0.
    9000005    1    3    3    0    0  0.20013742493E+02 -0.21830951780E+02  0.55780354435E+02  0.63163187737E+02  0.10000000000E+01 0.  0.
<mgrwt>
<rscale>  0 0.12501255E+03</rscale>
<asrwt>0</asrwt>
<pdfrwt beam="1">  1        4 0.97310408E-02 0.12501255E+03</pdfrwt>
<pdfrwt beam="2">  1       -4 0.95030105E-02 0.12501255E+03</pdfrwt>
<totfact> 0.10449436E+04</totfact>
</mgrwt>
</event>
<event>
 5    1  0.3321169E-002  0.1249973E+03  0.7818608E-02  0.1235074E+00
          4   -1    0    0  501    0  0.00000000000E+00  0.00000000000E+00  0.12294221196E+02  0.12359642989E+02  0.12700000000E+01 0.  1.
         -4   -1    0    0    0  501 -0.00000000000E+00 -0.00000000000E+00 -0.31680684071E+03  0.31680938625E+03  0.12700000000E+01 0.  1.
         25    2    1    2    0    0  0.00000000000E+00  0.00000000000E+00 -0.30451261951E+03  0.32916902924E+03  0.12499725746E+03 0.  0.
    9000005    1    3    3    0    0  0.23903882914E+02  0.56802483814E+02 -0.12499564322E+03  0.13936580861E+03  0.10000000000E+01 0.  0.
    9000005    1    3    3    0    0 -0.23903882914E+02 -0.56802483814E+02 -0.17951697629E+03  0.18980322063E+03  0.10000000000E+01 0.  0.
<mgrwt>
<rscale>  0 0.12499726E+03</rscale>
<asrwt>0</asrwt>
<pdfrwt beam="1">  1        4 0.18966471E-02 0.12499726E+03</pdfrwt>
<pdfrwt beam="2">  1       -4 0.48744736E-01 0.12499726E+03</pdfrwt>
<totfact> 0.72083083E+03</totfact>
</mgrwt>
</event>
<event>
 5    1  0.3321169E-002  0.1250010E+03  0.7818608E-02  0.1235068E+00
         -4   -1    0    0    0  501 -0.00000000000E+00  0.00000000000E+00  0.16184464039E+02  0.16234216218E+02  0.12700000000E+01 0. -1.
          4   -1    0    0  501    0  0.00000000000E+00 -0.00000000000E+00 -0.24093997300E+03  0.24094332007E+03  0.12700000000E+01 0. -1.
         25    2    1    2    0    0  0.00000000000E+00  0.00000000000E+00 -0.22475550896E+03  0.25717753629E+03  0.12500098546E+03 0.  0.
    9000005    1    3    3    0    0 -0.54242400587E+02  0.93469189926E+01 -0.51494281105E+02  0.75380792664E+02  0.10000000000E+01 0.  0.
    9000005    1    3    3    0    0  0.54242400587E+02 -0.93469189926E+01 -0.17326122785E+03  0.18179674363E+03  0.10000000000E+01 0.  0.
<mgrwt>
<rscale>  0 0.12500099E+03</rscale>
<asrwt>0</asrwt>
<pdfrwt beam="2">  1        4 0.37071770E-01 0.12500099E+03</pdfrwt>
<pdfrwt beam="1">  1       -4 0.24940023E-02 0.12500099E+03</pdfrwt>
<totfact> 0.81302009E+03</totfact>
</mgrwt>
</event>
<event>
 5    1  0.3321169E-002  0.1249956E+03  0.7818608E-02  0.1235076E+00
         -4   -1    0    0    0  501 -0.00000000000E+00  0.00000000000E+00  0.15913468026E+03  0.15913974790E+03  0.12700000000E+01 0. -1.
          4   -1    0    0  501    0  0.00000000000E+00 -0.00000000000E+00 -0.24523210537E+02  0.24556073689E+02  0.12700000000E+01 0. -1.
         25    2    1    2    0    0  0.00000000000E+00  0.00000000000E+00  0.13461146972E+03  0.18369582159E+03  0.12499562828E+03 0.  0.
    9000005    1    3    3    0    0 -0.23008955235E+02  0.69549500019E+01 -0.17464517942E+02  0.29728651793E+02  0.10000000000E+01 0.  0.
    9000005    1    3    3    0    0  0.23008955235E+02 -0.69549500019E+01  0.15207598766E+03  0.15396716979E+03  0.10000000000E+01 0.  0.
<mgrwt>
<rscale>  0 0.12499563E+03</rscale>
<asrwt>0</asrwt>
<pdfrwt beam="2">  1        4 0.37757193E-02 0.12499563E+03</pdfrwt>
<pdfrwt beam="1">  1       -4 0.24485177E-01 0.12499563E+03</pdfrwt>
<totfact> 0.92965050E+03</totfact>
</mgrwt>
</event>
<event>
 5    1  0.3321169E-002  0.1249985E+03  0.7818608E-02  0.1235072E+00
          4   -1    0    0  501    0  0.00000000000E+00  0.00000000000E+00  0.12781857159E+04  0.12781863469E+04  0.12700000000E+01 0. -1.
         -4   -1    0    0    0  501 -0.00000000000E+00 -0.00000000000E+00 -0.29234121851E+01  0.31873560836E+01  0.12700000000E+01 0. -1.
         25    2    1    2    0    0  0.00000000000E+00  0.00000000000E+00  0.12752623038E+04  0.12813737030E+04  0.12499849299E+03 0.  0.
    9000005    1    3    3    0    0  0.23314114983E+02  0.20199790710E+02  0.80515797689E+02  0.86228609983E+02  0.10000000000E+01 0.  0.
    9000005    1    3    3    0    0 -0.23314114983E+02 -0.20199790710E+02  0.11947465061E+04  0.11951450930E+04  0.10000000000E+01 0.  0.
<mgrwt>
<rscale>  0 0.12499849E+03</rscale>
<asrwt>0</asrwt>
<pdfrwt beam="1">  1        4 0.19666488E+00 0.12499849E+03</pdfrwt>
<pdfrwt beam="2">  1       -4 0.47010626E-03 0.12499849E+03</pdfrwt>
<totfact> 0.22673099E+03</totfact>
</mgrwt>
</event>
<event>
 5    1  0.3321169E-002  0.1249935E+03  0.7818608E-02  0.1235079E+00
          4   -1    0    0  501    0  0.00000000000E+00  0.00000000000E+00  0.11532165165E+02  0.11601884907E+02  0.12700000000E+01 0. -1.
         -4   -1    0    0    0  501 -0.00000000000E+00 -0.00000000000E+00 -0.33759988767E+03  0.33760227644E+03  0.12700000000E+01 0. -1.
         25    2    1    2    0    0  0.00000000000E+00  0.00000000000E+00 -0.32606772250E+03  0.34920416134E+03  0.12499354639E+03 0.  0.
    9000005    1    3    3    0    0 -0.88148643915E-01 -0.61399739199E+02 -0.13058381159E+03  0.14430200135E+03  0.10000000000E+01 0.  0.
    9000005    1    3    3    0    0  0.88148643915E-01  0.61399739199E+02 -0.19548391091E+03  0.20490215999E+03  0.10000000000E+01 0.  0.
<mgrwt>
<rscale>  0 0.12499355E+03</rscale>
<asrwt>0</asrwt>
<pdfrwt beam="1">  1        4 0.17797263E-02 0.12499355E+03</pdfrwt>
<pdfrwt beam="2">  1       -4 0.51943984E-01 0.12499355E+03</pdfrwt>
<totfact> 0.69822172E+03</totfact>
</mgrwt>
</event>
<event>
 5    1  0.3321169E-002  0.1249995E+03  0.7818608E-02  0.1235070E+00
          4   -1    0    0  501    0  0.00000000000E+00  0.00000000000E+00  0.15696701084E+03  0.15697214846E+03  0.12700000000E+01 0. -1.
         -4   -1    0    0    0  501 -0.00000000000E+00 -0.00000000000E+00 -0.24863845386E+02  0.24896258903E+02  0.12700000000E+01 0. -1.
         25    2    1    2    0    0  0.00000000000E+00  0.00000000000E+00  0.13210316545E+03  0.18186840736E+03  0.12499948509E+03 0.  0.
    9000005    1    3    3    0    0  0.70516581849E+01  0.26315029767E+02 -0.15775939475E+02  0.31497411657E+02  0.10000000000E+01 0.  0.
    9000005    1    3    3    0    0 -0.70516581849E+01 -0.26315029767E+02  0.14787910493E+03  0.15037099570E+03  0.10000000000E+01 0.  0.
<mgrwt>
<rscale>  0 0.12499949E+03</rscale>
<asrwt>0</asrwt>
<pdfrwt beam="1">  1        4 0.24151660E-01 0.12499949E+03</pdfrwt>
<pdfrwt beam="2">  1       -4 0.38280955E-02 0.12499949E+03</pdfrwt>
<totfact> 0.93282837E+03</totfact>
</mgrwt>
</event>
<event>
 5    1  0.3321169E-002  0.1250031E+03  0.7818608E-02  0.1235065E+00
          4   -1    0    0  501    0  0.00000000000E+00  0.00000000000E+00  0.26462585384E+02  0.26493042958E+02  0.12700000000E+01 0. -1.
         -4   -1    0    0    0  501 -0.00000000000E+00 -0.00000000000E+00 -0.14750318083E+03  0.14750864807E+03  0.12700000000E+01 0. -1.
         25    2    1    2    0    0  0.00000000000E+00  0.00000000000E+00 -0.12104059545E+03  0.17400169103E+03  0.12500305090E+03 0.  0.
    9000005    1    3    3    0    0  0.43656401459E+02  0.37268174995E+02 -0.26122840109E+02  0.63072981784E+02  0.10000000000E+01 0.  0.
    9000005    1    3    3    0    0 -0.43656401459E+02 -0.37268174995E+02 -0.94917755338E+02  0.11092870924E+03  0.10000000000E+01 0.  0.
<mgrwt>
<rscale>  0 0.12500305E+03</rscale>
<asrwt>0</asrwt>
<pdfrwt beam="1">  1        4 0.40739305E-02 0.12500305E+03</pdfrwt>
<pdfrwt beam="2">  1       -4 0.22695560E-01 0.12500305E+03</pdfrwt>
<totfact> 0.94701515E+03</totfact>
</mgrwt>
</event>
<event>
 5    1  0.3321169E-002  0.1250067E+03  0.7818608E-02  0.1235059E+00
         -4   -1    0    0    0  501 -0.00000000000E+00  0.00000000000E+00  0.14224430585E+02  0.14281012761E+02  0.12700000000E+01 0.  1.
          4   -1    0    0  501    0  0.00000000000E+00 -0.00000000000E+00 -0.27404178051E+03  0.27404472330E+03  0.12700000000E+01 0.  1.
         25    2    1    2    0    0  0.00000000000E+00  0.00000000000E+00 -0.25981734993E+03  0.28832573606E+03  0.12500669882E+03 0.  0.
    9000005    1    3    3    0    0 -0.52868452751E+02  0.16312024897E+02 -0.62881123782E+02  0.83762707577E+02  0.10000000000E+01 0.  0.
    9000005    1    3    3    0    0  0.52868452751E+02 -0.16312024897E+02 -0.19693622615E+03  0.20456302848E+03  0.10000000000E+01 0.  0.
<mgrwt>
<rscale>  0 0.12500670E+03</rscale>
<asrwt>0</asrwt>
<pdfrwt beam="2">  1        4 0.42164849E-01 0.12500670E+03</pdfrwt>
<pdfrwt beam="1">  1       -4 0.21929530E-02 0.12500670E+03</pdfrwt>
<totfact> 0.77075498E+03</totfact>
</mgrwt>
</event>
<event>
 5    1  0.3321169E-002  0.1249974E+03  0.7818608E-02  0.1235073E+00
         -4   -1    0    0    0  501 -0.00000000000E+00  0.00000000000E+00  0.48596587441E+02  0.48613179395E+02  0.12700000000E+01 0. -1.
          4   -1    0    0  501    0  0.00000000000E+00 -0.00000000000E+00 -0.80342533152E+02  0.80352570172E+02  0.12700000000E+01 0. -1.
         25    2    1    2    0    0  0.00000000000E+00  0.00000000000E+00 -0.31745945710E+02  0.12896574957E+03  0.12499743794E+03 0.  0.
    9000005    1    3    3    0    0  0.13814196582E+02  0.43814053497E+02  0.27834478305E+02  0.53723937807E+02  0.10000000000E+01 0.  0.
    9000005    1    3    3    0    0 -0.13814196582E+02 -0.43814053497E+02 -0.59580424016E+02  0.75241811760E+02  0.10000000000E+01 0.  0.
<mgrwt>
<rscale>  0 0.12499744E+03</rscale>
<asrwt>0</asrwt>
<pdfrwt beam="2">  1        4 0.12362438E-01 0.12499744E+03</pdfrwt>
<pdfrwt beam="1">  1       -4 0.74784464E-02 0.12499744E+03</pdfrwt>
<totfact> 0.10367282E+04</totfact>
</mgrwt>
</event>
<event>
 5    1  0.3321169E-002  0.1250021E+03  0.7818608E-02  0.1235066E+00
         -4   -1    0    0    0  501 -0.00000000000E+00  0.00000000000E+00  0.23651928594E+03  0.23652269557E+03  0.12700000000E+01 0. -1.
          4   -1    0    0  501    0  0.00000000000E+00 -0.00000000000E+00 -0.16488162035E+02  0.16537000553E+02  0.12700000000E+01 0. -1.
         25    2    1    2    0    0  0.00000000000E+00  0.00000000000E+00  0.22003112390E+03  0.25305969613E+03  0.12500205725E+03 0.  0.
    9000005    1    3    3    0    0 -0.46681542793E+02 -0.14865116226E+02  0.18855879310E+03  0.19482185856E+03  0.10000000000E+01 0.  0.
    9000005    1    3    3    0    0  0.46681542793E+02  0.14865116226E+02  0.31472330802E+02  0.58237837563E+02  0.10000000000E+01 0.  0.
<mgrwt>
<rscale>  0 0.12500206E+03</rscale>
<asrwt>0</asrwt>
<pdfrwt beam="2">  1        4 0.25406593E-02 0.12500206E+03</pdfrwt>
<pdfrwt beam="1">  1       -4 0.36391603E-01 0.12500206E+03</pdfrwt>
<totfact> 0.81886254E+03</totfact>
</mgrwt>
</event>
<event>
 5    1  0.3321169E-002  0.1249996E+03  0.7818608E-02  0.1235070E+00
          4   -1    0    0  501    0  0.00000000000E+00  0.00000000000E+00  0.26544979558E+03  0.26545283362E+03  0.12700000000E+01 0. -1.
         -4   -1    0    0    0  501 -0.00000000000E+00 -0.00000000000E+00 -0.14684957564E+02  0.14739772001E+02  0.12700000000E+01 0. -1.
         25    2    1    2    0    0  0.00000000000E+00  0.00000000000E+00  0.25076483802E+03  0.28019260562E+03  0.12499956902E+03 0.  0.
    9000005    1    3    3    0    0  0.18436434437E+02  0.59618164479E+02  0.13281524449E+03  0.14674848149E+03  0.10000000000E+01 0.  0.
    9000005    1    3    3    0    0 -0.18436434437E+02 -0.59618164479E+02  0.11794959353E+03  0.13344412413E+03  0.10000000000E+01 0.  0.
<mgrwt>
<rscale>  0 0.12499957E+03</rscale>
<asrwt>0</asrwt>
<pdfrwt beam="1">  1        4 0.40842879E-01 0.12499957E+03</pdfrwt>
<pdfrwt beam="2">  1       -4 0.22636745E-02 0.12499957E+03</pdfrwt>
<totfact> 0.78153322E+03</totfact>
</mgrwt>
</event>
<event>
 5    1  0.3321169E-002  0.1250036E+03  0.7818608E-02  0.1235064E+00
          4   -1    0    0  501    0  0.00000000000E+00  0.00000000000E+00  0.10538442977E+02  0.10614691723E+02  0.12700000000E+01 0. -1.
         -4   -1    0    0    0  501 -0.00000000000E+00 -0.00000000000E+00 -0.36927465429E+03  0.36927683816E+03  0.12700000000E+01 0. -1.
         25    2    1    2    0    0  0.00000000000E+00  0.00000000000E+00 -0.35873621132E+03  0.37989152989E+03  0.12500362063E+03 0.  0.
    9000005    1    3    3    0    0  0.46375636203E+01  0.23765061345E+02 -0.35445480299E+03  0.35528227158E+03  0.10000000000E+01 0.  0.
    9000005    1    3    3    0    0 -0.46375636203E+01 -0.23765061345E+02 -0.42814083262E+01  0.24609258305E+02  0.10000000000E+01 0.  0.
<mgrwt>
<rscale>  0 0.12500362E+03</rscale>
<asrwt>0</asrwt>
<pdfrwt beam="1">  1        4 0.16273325E-02 0.12500362E+03</pdfrwt>
<pdfrwt beam="2">  1       -4 0.56817509E-01 0.12500362E+03</pdfrwt>
<totfact> 0.66551319E+03</totfact>
</mgrwt>
</event>
<event>
 5    1  0.3321169E-002  0.1249991E+03  0.7818608E-02  0.1235071E+00
          4   -1    0    0  501    0  0.00000000000E+00  0.00000000000E+00  0.33521831179E+02  0.33545880009E+02  0.12700000000E+01 0. -1.
         -4   -1    0    0    0  501 -0.00000000000E+00 -0.00000000000E+00 -0.11645764958E+03  0.11646457421E+03  0.12700000000E+01 0. -1.
         25    2    1    2    0    0  0.00000000000E+00  0.00000000000E+00 -0.82935818402E+02  0.15001045422E+03  0.12499914560E+03 0.  0.
    9000005    1    3    3    0    0 -0.13095689247E+02  0.59693580801E+02 -0.25803334538E+02  0.66344801899E+02  0.10000000000E+01 0.  0.
    9000005    1    3    3    0    0  0.13095689247E+02 -0.59693580801E+02 -0.57132483864E+02  0.83665652320E+02  0.10000000000E+01 0.  0.
<mgrwt>
<rscale>  0 0.12499915E+03</rscale>
<asrwt>0</asrwt>
<pdfrwt beam="1">  1        4 0.51595874E-02 0.12499915E+03</pdfrwt>
<pdfrwt beam="2">  1       -4 0.17918944E-01 0.12499915E+03</pdfrwt>
<totfact> 0.99303524E+03</totfact>
</mgrwt>
</event>
<event>
 5    1  0.3321169E-002  0.1250003E+03  0.7818608E-02  0.1235069E+00
         -4   -1    0    0    0  501 -0.00000000000E+00  0.00000000000E+00  0.28351545392E+02  0.28379975795E+02  0.12700000000E+01 0. -1.
          4   -1    0    0  501    0  0.00000000000E+00 -0.00000000000E+00 -0.13767929299E+03  0.13768515032E+03  0.12700000000E+01 0. -1.
         25    2    1    2    0    0  0.00000000000E+00  0.00000000000E+00 -0.10932774760E+03  0.16606512611E+03  0.12500027886E+03 0.  0.
    9000005    1    3    3    0    0 -0.27509279531E+02  0.32195624613E+01 -0.12908628062E+03  0.13202800417E+03  0.10000000000E+01 0.  0.
    9000005    1    3    3    0    0  0.27509279531E+02 -0.32195624613E+01  0.19758533019E+02  0.34037121938E+02  0.10000000000E+01 0.  0.
<mgrwt>
<rscale>  0 0.12500028E+03</rscale>
<asrwt>0</asrwt>
<pdfrwt beam="2">  1        4 0.21184067E-01 0.12500028E+03</pdfrwt>
<pdfrwt beam="1">  1       -4 0.43644138E-02 0.12500028E+03</pdfrwt>
<totfact> 0.96185452E+03</totfact>
</mgrwt>
</event>
<event>
 5    1  0.3321169E-002  0.1250006E+03  0.7818608E-02  0.1235068E+00
          4   -1    0    0  501    0  0.00000000000E+00  0.00000000000E+00  0.37263837140E+01  0.39368560532E+01  0.12700000000E+01 0. -1.
         -4   -1    0    0    0  501 -0.00000000000E+00 -0.00000000000E+00 -0.10192762256E+04  0.10192770168E+04  0.12700000000E+01 0. -1.
         25    2    1    2    0    0  0.00000000000E+00  0.00000000000E+00 -0.10155498419E+04  0.10232138728E+04  0.12500059296E+03 0.  0.
    9000005    1    3    3    0    0 -0.25711427654E+02 -0.37307801132E+02 -0.86007635315E+03  0.86126957614E+03  0.10000000000E+01 0.  0.
    9000005    1    3    3    0    0  0.25711427654E+02  0.37307801132E+02 -0.15547348872E+03  0.16194429669E+03  0.10000000000E+01 0.  0.
<mgrwt>
<rscale>  0 0.12500059E+03</rscale>
<asrwt>0</asrwt>
<pdfrwt beam="1">  1        4 0.58954166E-03 0.12500059E+03</pdfrwt>
<pdfrwt beam="2">  1       -4 0.15682776E+00 0.12500059E+03</pdfrwt>
<totfact> 0.29845744E+03</totfact>
</mgrwt>
</event>
<event>
 5    1  0.3321169E-002  0.1250023E+03  0.7818608E-02  0.1235066E+00
         -4   -1    0    0    0  501 -0.00000000000E+00  0.00000000000E+00  0.23766833695E+03  0.23767173010E+03  0.12700000000E+01 0.  1.
          4   -1    0    0  501    0  0.00000000000E+00 -0.00000000000E+00 -0.16408276185E+02  0.16457351772E+02  0.12700000000E+01 0.  1.
         25    2    1    2    0    0  0.00000000000E+00  0.00000000000E+00  0.22126006076E+03  0.25412908187E+03  0.12500230303E+03 0.  0.
    9000005    1    3    3    0    0  0.22336270978E+02 -0.43410074237E+02  0.31315844842E+02  0.58008841435E+02  0.10000000000E+01 0.  0.
    9000005    1    3    3    0    0 -0.22336270978E+02  0.43410074237E+02  0.18994421592E+03  0.19612024043E+03  0.10000000000E+01 0.  0.
<mgrwt>
<rscale>  0 0.12500230E+03</rscale>
<asrwt>0</asrwt>
<pdfrwt beam="2">  1        4 0.25283862E-02 0.12500230E+03</pdfrwt>
<pdfrwt beam="1">  1       -4 0.36568396E-01 0.12500230E+03</pdfrwt>
<totfact> 0.81732893E+03</totfact>
</mgrwt>
</event>
<event>
 5    1  0.3321169E-002  0.1249999E+03  0.7818608E-02  0.1235070E+00
          4   -1    0    0  501    0  0.00000000000E+00  0.00000000000E+00  0.26147434331E+02  0.26178258576E+02  0.12700000000E+01 0.  1.
         -4   -1    0    0    0  501 -0.00000000000E+00 -0.00000000000E+00 -0.14927135815E+03  0.14927676063E+03  0.12700000000E+01 0.  1.
         25    2    1    2    0    0  0.00000000000E+00  0.00000000000E+00 -0.12312392382E+03  0.17545501920E+03  0.12499985259E+03 0.  0.
    9000005    1    3    3    0    0  0.32681678853E+02 -0.37590626657E+02 -0.11453142109E+03  0.12489833371E+03  0.10000000000E+01 0.  0.
    9000005    1    3    3    0    0 -0.32681678853E+02  0.37590626657E+02 -0.85925027214E+01  0.50556685494E+02  0.10000000000E+01 0.  0.
<mgrwt>
<rscale>  0 0.12499985E+03</rscale>
<asrwt>0</asrwt>
<pdfrwt beam="1">  1        4 0.40254690E-02 0.12499985E+03</pdfrwt>
<pdfrwt beam="2">  1       -4 0.22967611E-01 0.12499985E+03</pdfrwt>
<totfact> 0.94441883E+03</totfact>
</mgrwt>
</event>
<event>
 5    1  0.3321169E-002  0.1250011E+03  0.7818608E-02  0.1235068E+00
          4   -1    0    0  501    0  0.00000000000E+00  0.00000000000E+00  0.40484826839E+03  0.40485026037E+03  0.12700000000E+01 0. -1.
         -4   -1    0    0    0  501 -0.00000000000E+00 -0.00000000000E+00 -0.96050365371E+01  0.96886339016E+01  0.12700000000E+01 0. -1.
         25    2    1    2    0    0  0.00000000000E+00  0.00000000000E+00  0.39524323186E+03  0.41453889427E+03  0.12500113014E+03 0.  0.
    9000005    1    3    3    0    0  0.12728775135E+02 -0.92984621909E+01 -0.29198462804E+01  0.16062646664E+02  0.10000000000E+01 0.  0.
    9000005    1    3    3    0    0 -0.12728775135E+02  0.92984621909E+01  0.39816307814E+03  0.39847624761E+03  0.10000000000E+01 0.  0.
<mgrwt>
<rscale>  0 0.12500113E+03</rscale>
<asrwt>0</asrwt>
<pdfrwt beam="1">  1        4 0.62290933E-01 0.12500113E+03</pdfrwt>
<pdfrwt beam="2">  1       -4 0.14842817E-02 0.12500113E+03</pdfrwt>
<totfact> 0.63161320E+03</totfact>
</mgrwt>
</event>
<event>
 5    1  0.3321169E-002  0.1250011E+03  0.7818608E-02  0.1235068E+00
         -4   -1    0    0    0  501 -0.00000000000E+00  0.00000000000E+00  0.13338715109E+02  0.13399038053E+02  0.12700000000E+01 0.  1.
          4   -1    0    0  501    0  0.00000000000E+00 -0.00000000000E+00 -0.29213322219E+03  0.29213598273E+03  0.12700000000E+01 0.  1.
         25    2    1    2    0    0  0.00000000000E+00  0.00000000000E+00 -0.27879450708E+03  0.30553502078E+03  0.12500108699E+03 0.  0.
    9000005    1    3    3    0    0  0.39302435384E+02 -0.44398081017E+02 -0.91161247666E+02  0.10875313375E+03  0.10000000000E+01 0.  0.
    9000005    1    3    3    0    0 -0.39302435384E+02  0.44398081017E+02 -0.18763325941E+03  0.19678188703E+03  0.10000000000E+01 0.  0.
<mgrwt>
<rscale>  0 0.12500109E+03</rscale>
<asrwt>0</asrwt>
<pdfrwt beam="2">  1        4 0.44948420E-01 0.12500109E+03</pdfrwt>
<pdfrwt beam="1">  1       -4 0.20569628E-02 0.12500109E+03</pdfrwt>
<totfact> 0.74907935E+03</totfact>
</mgrwt>
</event>
<event>
 5    1  0.3321169E-002  0.1250027E+03  0.7818608E-02  0.1235065E+00
         -4   -1    0    0    0  501 -0.00000000000E+00  0.00000000000E+00  0.10997247393E+02  0.11070336500E+02  0.12700000000E+01 0. -1.
          4   -1    0    0  501    0  0.00000000000E+00 -0.00000000000E+00 -0.35396687065E+03  0.35396914896E+03  0.12700000000E+01 0. -1.
         25    2    1    2    0    0  0.00000000000E+00  0.00000000000E+00 -0.34296962326E+03  0.36503948546E+03  0.12500265385E+03 0.  0.
    9000005    1    3    3    0    0 -0.31584707617E+02  0.37598636807E+02 -0.28436554829E+03  0.28857584150E+03  0.10000000000E+01 0.  0.
    9000005    1    3    3    0    0  0.31584707617E+02 -0.37598636807E+02 -0.58604074970E+02  0.76463643963E+02  0.10000000000E+01 0.  0.
<mgrwt>
<rscale>  0 0.12500265E+03</rscale>
<asrwt>0</asrwt>
<pdfrwt beam="2">  1        4 0.54462230E-01 0.12500265E+03</pdfrwt>
<pdfrwt beam="1">  1       -4 0.16976820E-02 0.12500265E+03</pdfrwt>
<totfact> 0.68097120E+03</totfact>
</mgrwt>
</event>
<event>
 5    1  0.3321169E-002  0.1250016E+03  0.7818608E-02  0.1235067E+00
         -4   -1    0    0    0  501 -0.00000000000E+00  0.00000000000E+00  0.21437511123E+03  0.21437887306E+03  0.12700000000E+01 0.  1.
          4   -1    0    0  501    0  0.00000000000E+00 -0.00000000000E+00 -0.18195966324E+02  0.18240232741E+02  0.12700000000E+01 0.  1.
         25    2    1    2    0    0  0.00000000000E+00  0.00000000000E+00  0.19617914490E+03  0.23261910580E+03  0.12500156594E+03 0.  0.
    9000005    1    3    3    0    0  0.36446624133E+02  0.49390931734E+02  0.76266071388E+02  0.97904719974E+02  0.10000000000E+01 0.  0.
    9000005    1    3    3    0    0 -0.36446624133E+02 -0.49390931734E+02  0.11991307351E+03  0.13471438582E+03  0.10000000000E+01 0.  0.
<mgrwt>
<rscale>  0 0.12500157E+03</rscale>
<asrwt>0</asrwt>
<pdfrwt beam="2">  1        4 0.28030737E-02 0.12500157E+03</pdfrwt>
<pdfrwt beam="1">  1       -4 0.32984483E-01 0.12500157E+03</pdfrwt>
<totfact> 0.84906078E+03</totfact>
</mgrwt>
</event>
<event>
 5    1  0.3321169E-002  0.1250299E+03  0.7818608E-02  0.1235023E+00
         -4   -1    0    0    0  501 -0.00000000000E+00  0.00000000000E+00  0.18926580010E+01  0.22792661777E+01  0.12700000000E+01 0.  1.
          4   -1    0    0  501    0  0.00000000000E+00 -0.00000000000E+00 -0.18731454033E+04  0.18731458339E+04  0.12700000000E+01 0.  1.
         25    2    1    2    0    0  0.00000000000E+00  0.00000000000E+00 -0.18712527453E+04  0.18754251000E+04  0.12502987227E+03 0.  0.
    9000005    1    3    3    0    0  0.22604895923E+02  0.24631864308E+02 -0.17278392435E+04  0.17281629441E+04  0.10000000000E+01 0.  0.
    9000005    1    3    3    0    0 -0.22604895923E+02 -0.24631864308E+02 -0.14341350186E+03  0.14726215595E+03  0.10000000000E+01 0.  0.
<mgrwt>
<rscale>  0 0.12502987E+03</rscale>
<asrwt>0</asrwt>
<pdfrwt beam="2">  1        4 0.28820464E+00 0.12502987E+03</pdfrwt>
<pdfrwt beam="1">  1       -4 0.32095186E-03 0.12502987E+03</pdfrwt>
<totfact> 0.11568691E+03</totfact>
</mgrwt>
</event>
<event>
 5    1  0.3321169E-002  0.1249953E+03  0.7818608E-02  0.1235077E+00
          4   -1    0    0  501    0  0.00000000000E+00  0.00000000000E+00  0.53990421586E+02  0.54005356429E+02  0.12700000000E+01 0. -1.
         -4   -1    0    0    0  501 -0.00000000000E+00 -0.00000000000E+00 -0.72314795529E+02  0.72325946606E+02  0.12700000000E+01 0. -1.
         25    2    1    2    0    0  0.00000000000E+00  0.00000000000E+00 -0.18324373944E+02  0.12633130303E+03  0.12499526169E+03 0.  0.
    9000005    1    3    3    0    0  0.33366223872E+02 -0.30285683368E+02  0.34595223792E+02  0.56818632699E+02  0.10000000000E+01 0.  0.
    9000005    1    3    3    0    0 -0.33366223872E+02  0.30285683368E+02 -0.52919597736E+02  0.69512670335E+02  0.10000000000E+01 0.  0.
<mgrwt>
<rscale>  0 0.12499526E+03</rscale>
<asrwt>0</asrwt>
<pdfrwt beam="1">  1        4 0.83082253E-02 0.12499526E+03</pdfrwt>
<pdfrwt beam="2">  1       -4 0.11127360E-01 0.12499526E+03</pdfrwt>
<totfact> 0.10424824E+04</totfact>
</mgrwt>
</event>
<event>
 5    1  0.3321169E-002  0.1250114E+03  0.7818608E-02  0.1235051E+00
          4   -1    0    0  501    0  0.00000000000E+00  0.00000000000E+00  0.90247209248E+02  0.90256144816E+02  0.12700000000E+01 0.  1.
         -4   -1    0    0    0  501 -0.00000000000E+00 -0.00000000000E+00 -0.43271395748E+02  0.43290028760E+02  0.12700000000E+01 0.  1.
         25    2    1    2    0    0  0.00000000000E+00  0.00000000000E+00  0.46975813500E+02  0.13354617358E+03  0.12501141317E+03 0.  0.
    9000005    1    3    3    0    0  0.15707836459E+02  0.19793378057E+02  0.84552043321E+02  0.88252829818E+02  0.10000000000E+01 0.  0.
    9000005    1    3    3    0    0 -0.15707836459E+02 -0.19793378057E+02 -0.37576229822E+02  0.45293343757E+02  0.10000000000E+01 0.  0.
<mgrwt>
<rscale>  0 0.12501141E+03</rscale>
<asrwt>0</asrwt>
<pdfrwt beam="1">  1        4 0.13886307E-01 0.12501141E+03</pdfrwt>
<pdfrwt beam="2">  1       -4 0.66592585E-02 0.12501141E+03</pdfrwt>
<totfact> 0.10266162E+04</totfact>
</mgrwt>
</event>
<event>
 5    1  0.3321169E-002  0.1249987E+03  0.7818608E-02  0.1235071E+00
          4   -1    0    0  501    0  0.00000000000E+00  0.00000000000E+00  0.23773028382E+03  0.23773367609E+03  0.12700000000E+01 0. -1.
         -4   -1    0    0    0  501 -0.00000000000E+00 -0.00000000000E+00 -0.16403027684E+02  0.16452118927E+02  0.12700000000E+01 0. -1.
         25    2    1    2    0    0  0.00000000000E+00  0.00000000000E+00  0.22132725614E+03  0.25418579501E+03  0.12499865630E+03 0.  0.
    9000005    1    3    3    0    0  0.96172163213E+01  0.34735402430E+02  0.68525457497E+01  0.36701449767E+02  0.10000000000E+01 0.  0.
    9000005    1    3    3    0    0 -0.96172163213E+01 -0.34735402430E+02  0.21447471039E+03  0.21748434525E+03  0.10000000000E+01 0.  0.
<mgrwt>
<rscale>  0 0.12499866E+03</rscale>
<asrwt>0</asrwt>
<pdfrwt beam="1">  1        4 0.36577923E-01 0.12499866E+03</pdfrwt>
<pdfrwt beam="2">  1       -4 0.25275802E-02 0.12499866E+03</pdfrwt>
<totfact> 0.81731437E+03</totfact>
</mgrwt>
</event>
<event>
 5    1  0.3321169E-002  0.1250005E+03  0.7818608E-02  0.1235068E+00
         -4   -1    0    0    0  501 -0.00000000000E+00  0.00000000000E+00  0.41685339850E+03  0.41685533310E+03  0.12700000000E+01 0. -1.
          4   -1    0    0  501    0  0.00000000000E+00 -0.00000000000E+00 -0.93258817725E+01  0.94119589265E+01  0.12700000000E+01 0. -1.
         25    2    1    2    0    0  0.00000000000E+00  0.00000000000E+00  0.40752751672E+03  0.42626729203E+03  0.12500050947E+03 0.  0.
    9000005    1    3    3    0    0  0.80131364477E+01 -0.26648173368E+02  0.12950723349E+02  0.30709228822E+02  0.10000000000E+01 0.  0.
    9000005    1    3    3    0    0 -0.80131364477E+01  0.26648173368E+02  0.39457679337E+03  0.39555806321E+03  0.10000000000E+01 0.  0.
<mgrwt>
<rscale>  0 0.12500051E+03</rscale>
<asrwt>0</asrwt>
<pdfrwt beam="2">  1        4 0.14415209E-02 0.12500051E+03</pdfrwt>
<pdfrwt beam="1">  1       -4 0.64138077E-01 0.12500051E+03</pdfrwt>
<totfact> 0.62075094E+03</totfact>
</mgrwt>
</event>
<event>
 5    1  0.3321169E-002  0.1250010E+03  0.7818608E-02  0.1235068E+00
         -4   -1    0    0    0  501 -0.00000000000E+00  0.00000000000E+00  0.36257814174E+03  0.36258036594E+03  0.12700000000E+01 0.  1.
          4   -1    0    0  501    0  0.00000000000E+00 -0.00000000000E+00 -0.10734026502E+02  0.10808895640E+02  0.12700000000E+01 0.  1.
         25    2    1    2    0    0  0.00000000000E+00  0.00000000000E+00  0.35184411524E+03  0.37338926158E+03  0.12500103695E+03 0.  0.
    9000005    1    3    3    0    0  0.20297177492E+02 -0.11224529426E+02  0.34925946426E+03  0.35003019705E+03  0.10000000000E+01 0.  0.
    9000005    1    3    3    0    0 -0.20297177492E+02  0.11224529426E+02  0.25846509785E+01  0.23359064529E+02  0.10000000000E+01 0.  0.
<mgrwt>
<rscale>  0 0.12500104E+03</rscale>
<asrwt>0</asrwt>
<pdfrwt beam="2">  1        4 0.16573190E-02 0.12500104E+03</pdfrwt>
<pdfrwt beam="1">  1       -4 0.55787182E-01 0.12500104E+03</pdfrwt>
<totfact> 0.67224299E+03</totfact>
</mgrwt>
</event>
<event>
 5    1  0.3321169E-002  0.1249983E+03  0.7818608E-02  0.1235072E+00
          4   -1    0    0  501    0  0.00000000000E+00  0.00000000000E+00  0.40552527415E+02  0.40572409094E+02  0.12700000000E+01 0. -1.
         -4   -1    0    0    0  501 -0.00000000000E+00 -0.00000000000E+00 -0.96275341805E+02  0.96283717936E+02  0.12700000000E+01 0. -1.
         25    2    1    2    0    0  0.00000000000E+00  0.00000000000E+00 -0.55722814390E+02  0.13685612703E+03  0.12499826984E+03 0.  0.
    9000005    1    3    3    0    0  0.12445861269E+02 -0.60672771048E+02 -0.18763009770E+02  0.64723528527E+02  0.10000000000E+01 0.  0.
    9000005    1    3    3    0    0 -0.12445861269E+02  0.60672771048E+02 -0.36959804620E+02  0.72132598504E+02  0.10000000000E+01 0.  0.
<mgrwt>
<rscale>  0 0.12499827E+03</rscale>
<asrwt>0</asrwt>
<pdfrwt beam="1">  1        4 0.62410241E-02 0.12499827E+03</pdfrwt>
<pdfrwt beam="2">  1       -4 0.14813765E-01 0.12499827E+03</pdfrwt>
<totfact> 0.10199493E+04</totfact>
</mgrwt>
</event>
<event>
 5    1  0.3321169E-002  0.1250018E+03  0.7818608E-02  0.1235067E+00
         -4   -1    0    0    0  501 -0.00000000000E+00  0.00000000000E+00  0.34445503051E+02  0.34468907445E+02  0.12700000000E+01 0. -1.
          4   -1    0    0  501    0  0.00000000000E+00 -0.00000000000E+00 -0.11334148511E+03  0.11334860011E+03  0.12700000000E+01 0. -1.
         25    2    1    2    0    0  0.00000000000E+00  0.00000000000E+00 -0.78895982061E+02  0.14781750756E+03  0.12500175821E+03 0.  0.
    9000005    1    3    3    0    0 -0.28205383081E+01  0.14155212870E+02 -0.11134925075E+03  0.11228526676E+03  0.10000000000E+01 0.  0.
    9000005    1    3    3    0    0  0.28205383081E+01 -0.14155212870E+02  0.32453268689E+02  0.35532240801E+02  0.10000000000E+01 0.  0.
<mgrwt>
<rscale>  0 0.12500176E+03</rscale>
<asrwt>0</asrwt>
<pdfrwt beam="2">  1        4 0.17439499E-01 0.12500176E+03</pdfrwt>
<pdfrwt beam="1">  1       -4 0.53016558E-02 0.12500176E+03</pdfrwt>
<totfact> 0.99736590E+03</totfact>
</mgrwt>
</event>
<event>
 5    1  0.3321169E-002  0.1250015E+03  0.7818608E-02  0.1235067E+00
          4   -1    0    0  501    0  0.00000000000E+00  0.00000000000E+00  0.20866395096E+02  0.20905007637E+02  0.12700000000E+01 0.  1.
         -4   -1    0    0    0  501 -0.00000000000E+00 -0.00000000000E+00 -0.18699355985E+03  0.18699787252E+03  0.12700000000E+01 0.  1.
         25    2    1    2    0    0  0.00000000000E+00  0.00000000000E+00 -0.16612716476E+03  0.20790288016E+03  0.12500149082E+03 0.  0.
    9000005    1    3    3    0    0  0.44130936596E+02 -0.41234469067E+02 -0.10975383148E+03  0.12527858767E+03  0.10000000000E+01 0.  0.
    9000005    1    3    3    0    0 -0.44130936596E+02  0.41234469067E+02 -0.56373333279E+02  0.82624292488E+02  0.10000000000E+01 0.  0.
<mgrwt>
<rscale>  0 0.12500149E+03</rscale>
<asrwt>0</asrwt>
<pdfrwt beam="1">  1        4 0.32135167E-02 0.12500149E+03</pdfrwt>
<pdfrwt beam="2">  1       -4 0.28771541E-01 0.12500149E+03</pdfrwt>
<totfact> 0.88816557E+03</totfact>
</mgrwt>
</event>
<event>
 5    1  0.3321169E-002  0.1249999E+03  0.7818608E-02  0.1235069E+00
          4   -1    0    0  501    0  0.00000000000E+00  0.00000000000E+00  0.35388463743E+03  0.35388691628E+03  0.12700000000E+01 0. -1.
         -4   -1    0    0    0  501 -0.00000000000E+00 -0.00000000000E+00 -0.10999334588E+02  0.11072409918E+02  0.12700000000E+01 0. -1.
         25    2    1    2    0    0  0.00000000000E+00  0.00000000000E+00  0.34288530285E+03  0.36495932619E+03  0.12499991547E+03 0.  0.
    9000005    1    3    3    0    0 -0.12740990528E+02 -0.39813184756E+01 -0.68026112024E+01  0.15015300716E+02  0.10000000000E+01 0.  0.
    9000005    1    3    3    0    0  0.12740990528E+02  0.39813184756E+01  0.34968791405E+03  0.34994402548E+03  0.10000000000E+01 0.  0.
<mgrwt>
<rscale>  0 0.12499992E+03</rscale>
<asrwt>0</asrwt>
<pdfrwt beam="1">  1        4 0.54449591E-01 0.12499992E+03</pdfrwt>
<pdfrwt beam="2">  1       -4 0.16980017E-02 0.12499992E+03</pdfrwt>
<totfact> 0.68109726E+03</totfact>
</mgrwt>
</event>
<event>
 5    1  0.3321169E-002  0.1249977E+03  0.7818608E-02  0.1235073E+00
          4   -1    0    0  501    0  0.00000000000E+00  0.00000000000E+00  0.12923366777E+02  0.12985619310E+02  0.12700000000E+01 0. -1.
         -4   -1    0    0    0  501 -0.00000000000E+00 -0.00000000000E+00 -0.30146170613E+03  0.30146438125E+03  0.12700000000E+01 0. -1.
         25    2    1    2    0    0  0.00000000000E+00  0.00000000000E+00 -0.28853833935E+03  0.31445000056E+03  0.12499771828E+03 0.  0.
    9000005    1    3    3    0    0 -0.54788920204E+02  0.24640186223E+02 -0.18756042035E+03  0.19694891682E+03  0.10000000000E+01 0.  0.
    9000005    1    3    3    0    0  0.54788920204E+02 -0.24640186223E+02 -0.10097791900E+03  0.11750108374E+03  0.10000000000E+01 0.  0.
<mgrwt>
<rscale>  0 0.12499772E+03</rscale>
<asrwt>0</asrwt>
<pdfrwt beam="1">  1        4 0.19932049E-02 0.12499772E+03</pdfrwt>
<pdfrwt beam="2">  1       -4 0.46383713E-01 0.12499772E+03</pdfrwt>
<totfact> 0.73824860E+03</totfact>
</mgrwt>
</event>
<event>
 5    1  0.3321169E-002  0.1250007E+03  0.7818608E-02  0.1235068E+00
         -4   -1    0    0    0  501 -0.00000000000E+00  0.00000000000E+00  0.19308044497E+03  0.19308462168E+03  0.12700000000E+01 0. -1.
          4   -1    0    0  501    0  0.00000000000E+00 -0.00000000000E+00 -0.20207109768E+02  0.20246979655E+02  0.12700000000E+01 0. -1.
         25    2    1    2    0    0  0.00000000000E+00  0.00000000000E+00  0.17287333521E+03  0.21333160134E+03  0.12500072842E+03 0.  0.
    9000005    1    3    3    0    0 -0.61104601517E+02  0.12418209668E+02  0.93537464548E+02  0.11241993387E+03  0.10000000000E+01 0.  0.
    9000005    1    3    3    0    0  0.61104601517E+02 -0.12418209668E+02  0.79335870657E+02  0.10091166747E+03  0.10000000000E+01 0.  0.
<mgrwt>
<rscale>  0 0.12500073E+03</rscale>
<asrwt>0</asrwt>
<pdfrwt beam="2">  1        4 0.31121744E-02 0.12500073E+03</pdfrwt>
<pdfrwt beam="1">  1       -4 0.29708071E-01 0.12500073E+03</pdfrwt>
<totfact> 0.87933230E+03</totfact>
</mgrwt>
</event>
<event>
 5    1  0.3321169E-002  0.1250007E+03  0.7818608E-02  0.1235068E+00
         -4   -1    0    0    0  501 -0.00000000000E+00  0.00000000000E+00  0.65729302888E+02  0.65741571005E+02  0.12700000000E+01 0.  1.
          4   -1    0    0  501    0  0.00000000000E+00 -0.00000000000E+00 -0.59405418642E+02  0.59418992452E+02  0.12700000000E+01 0.  1.
         25    2    1    2    0    0  0.00000000000E+00  0.00000000000E+00  0.63238842458E+01  0.12516056346E+03  0.12500070053E+03 0.  0.
    9000005    1    3    3    0    0 -0.29103267371E+02 -0.54925907286E+02 -0.32835507772E+01  0.62254615641E+02  0.10000000000E+01 0.  0.
    9000005    1    3    3    0    0  0.29103267371E+02  0.54925907286E+02  0.96074350230E+01  0.62905947816E+02  0.10000000000E+01 0.  0.
<mgrwt>
<rscale>  0 0.12500070E+03</rscale>
<asrwt>0</asrwt>
<pdfrwt beam="2">  1        4 0.91412831E-02 0.12500070E+03</pdfrwt>
<pdfrwt beam="1">  1       -4 0.10114188E-01 0.12500070E+03</pdfrwt>
<totfact> 0.10449211E+04</totfact>
</mgrwt>
</event>
<event>
 5    1  0.3321169E-002  0.1250030E+03  0.7818608E-02  0.1235065E+00
         -4   -1    0    0    0  501 -0.00000000000E+00  0.00000000000E+00  0.37064269614E+01  0.39179715186E+01  0.12700000000E+01 0. -1.
          4   -1    0    0  501    0  0.00000000000E+00 -0.00000000000E+00 -0.10245077249E+04  0.10245085121E+04  0.12700000000E+01 0. -1.
         25    2    1    2    0    0  0.00000000000E+00  0.00000000000E+00 -0.10208012980E+04  0.10284264836E+04  0.12500296896E+03 0.  0.
    9000005    1    3    3    0    0 -0.47502214536E+02  0.23906436710E+02 -0.24034517173E+03  0.24616006921E+03  0.10000000000E+01 0.  0.
    9000005    1    3    3    0    0  0.47502214536E+02 -0.23906436710E+02 -0.78045612624E+03  0.78226641440E+03  0.10000000000E+01 0.  0.
<mgrwt>
<rscale>  0 0.12500297E+03</rscale>
<asrwt>0</asrwt>
<pdfrwt beam="2">  1        4 0.15763269E+00 0.12500297E+03</pdfrwt>
<pdfrwt beam="1">  1       -4 0.58655356E-03 0.12500297E+03</pdfrwt>
<totfact> 0.29676173E+03</totfact>
</mgrwt>
</event>
<event>
 5    1  0.3321169E-002  0.1249941E+03  0.7818608E-02  0.1235079E+00
          4   -1    0    0  501    0  0.00000000000E+00  0.00000000000E+00  0.44362810260E+02  0.44380985052E+02  0.12700000000E+01 0. -1.
         -4   -1    0    0    0  501 -0.00000000000E+00 -0.00000000000E+00 -0.88003256945E+02  0.88012420333E+02  0.12700000000E+01 0. -1.
         25    2    1    2    0    0  0.00000000000E+00  0.00000000000E+00 -0.43640446685E+02  0.13239340539E+03  0.12499410067E+03 0.  0.
    9000005    1    3    3    0    0  0.27068479530E+02 -0.46893377773E+02 -0.54862930357E+02  0.77088472487E+02  0.10000000000E+01 0.  0.
    9000005    1    3    3    0    0 -0.27068479530E+02  0.46893377773E+02  0.11222483672E+02  0.55304932898E+02  0.10000000000E+01 0.  0.
<mgrwt>
<rscale>  0 0.12499410E+03</rscale>
<asrwt>0</asrwt>
<pdfrwt beam="1">  1        4 0.68271507E-02 0.12499410E+03</pdfrwt>
<pdfrwt beam="2">  1       -4 0.13541066E-01 0.12499410E+03</pdfrwt>
<totfact> 0.10294679E+04</totfact>
</mgrwt>
</event>
<event>
 5    1  0.3321169E-002  0.1249973E+03  0.7818608E-02  0.1235074E+00
          4   -1    0    0  501    0  0.00000000000E+00  0.00000000000E+00  0.63054784749E+01  0.64321037614E+01  0.12700000000E+01 0. -1.
         -4   -1    0    0    0  501 -0.00000000000E+00 -0.00000000000E+00 -0.61318862954E+03  0.61318994471E+03  0.12700000000E+01 0. -1.
         25    2    1    2    0    0  0.00000000000E+00  0.00000000000E+00 -0.60688315106E+03  0.61962204847E+03  0.12499729561E+03 0.  0.
    9000005    1    3    3    0    0  0.27764417754E+02  0.72596229256E+01 -0.57861624718E+03  0.57932834086E+03  0.10000000000E+01 0.  0.
    9000005    1    3    3    0    0 -0.27764417754E+02 -0.72596229256E+01 -0.28266903879E+02  0.40293707612E+02  0.10000000000E+01 0.  0.
<mgrwt>
<rscale>  0 0.12499730E+03</rscale>
<asrwt>0</asrwt>
<pdfrwt beam="1">  1        4 0.97991567E-03 0.12499730E+03</pdfrwt>
<pdfrwt beam="2">  1       -4 0.94346507E-01 0.12499730E+03</pdfrwt>
<totfact> 0.47654824E+03</totfact>
</mgrwt>
</event>
<event>
 5    1  0.3321169E-002  0.1249994E+03  0.7818608E-02  0.1235070E+00
         -4   -1    0    0    0  501 -0.00000000000E+00  0.00000000000E+00  0.54859803502E+03  0.54859950503E+03  0.12700000000E+01 0. -1.
          4   -1    0    0  501    0  0.00000000000E+00 -0.00000000000E+00 -0.70622380554E+01  0.71755213296E+01  0.12700000000E+01 0. -1.
         25    2    1    2    0    0  0.00000000000E+00  0.00000000000E+00  0.54153579696E+03  0.55577502636E+03  0.12499944216E+03 0.  0.
    9000005    1    3    3    0    0 -0.16865733586E+02 -0.60080082701E+02  0.25592402910E+03  0.26342395103E+03  0.10000000000E+01 0.  0.
    9000005    1    3    3    0    0  0.16865733586E+02  0.60080082701E+02  0.28561176786E+03  0.29235107533E+03  0.10000000000E+01 0.  0.
<mgrwt>
<rscale>  0 0.12499944E+03</rscale>
<asrwt>0</asrwt>
<pdfrwt beam="2">  1        4 0.10953251E-02 0.12499944E+03</pdfrwt>
<pdfrwt beam="1">  1       -4 0.84408547E-01 0.12499944E+03</pdfrwt>
<totfact> 0.51784388E+03</totfact>
</mgrwt>
</event>
<event>
 5    1  0.3321169E-002  0.1249933E+03  0.7818608E-02  0.1235080E+00
          4   -1    0    0  501    0  0.00000000000E+00  0.00000000000E+00  0.78841753017E+01  0.79858074224E+01  0.12700000000E+01 0.  1.
         -4   -1    0    0    0  501 -0.00000000000E+00 -0.00000000000E+00 -0.49212669879E+03  0.49212833749E+03  0.12700000000E+01 0.  1.
         25    2    1    2    0    0  0.00000000000E+00  0.00000000000E+00 -0.48424252349E+03  0.50011414491E+03  0.12499334538E+03 0.  0.
    9000005    1    3    3    0    0 -0.14668553205E+02 -0.23712730935E+02 -0.18366565471E+02  0.33403454743E+02  0.10000000000E+01 0.  0.
    9000005    1    3    3    0    0  0.14668553205E+02  0.23712730935E+02 -0.46587595801E+03  0.46671069017E+03  0.10000000000E+01 0.  0.
<mgrwt>
<rscale>  0 0.12499335E+03</rscale>
<asrwt>0</asrwt>
<pdfrwt beam="1">  1        4 0.12208943E-02 0.12499335E+03</pdfrwt>
<pdfrwt beam="2">  1       -4 0.75719720E-01 0.12499335E+03</pdfrwt>
<totfact> 0.55863696E+03</totfact>
</mgrwt>
</event>
<event>
 4    1  0.3321169E-002  0.1249358E+03  0.7818608E-02  0.1235170E+00
         -4   -1    0    0    0  501 -0.00000000000E+00  0.00000000000E+00  0.29166827116E+03  0.29167103610E+03  0.12700000000E+01 0. -1.
          4   -1    0    0  501    0  0.00000000000E+00 -0.00000000000E+00 -0.13346051287E+02  0.13406341222E+02  0.12700000000E+01 0. -1.
    9000005    1    1    2    0    0  0.27516287847E+02  0.52291484602E+02  0.89735538910E+02  0.10744771939E+03  0.10000000000E+01 0.  0.
    9000005    1    1    2    0    0 -0.27516287847E+02 -0.52291484602E+02  0.18858668096E+03  0.19762965793E+03  0.10000000000E+01 0.  0.
<mgrwt>
<rscale>  0 0.12493578E+03</rscale>
<asrwt>0</asrwt>
<pdfrwt beam="2">  1        4 0.20580890E-02 0.12493578E+03</pdfrwt>
<pdfrwt beam="1">  1       -4 0.44876892E-01 0.12493578E+03</pdfrwt>
<totfact> 0.75073269E+03</totfact>
</mgrwt>
</event>
<event>
 5    1  0.3321169E-002  0.1249979E+03  0.7818608E-02  0.1235073E+00
         -4   -1    0    0    0  501 -0.00000000000E+00  0.00000000000E+00  0.13363716679E+03  0.13364320128E+03  0.12700000000E+01 0.  1.
          4   -1    0    0  501    0  0.00000000000E+00 -0.00000000000E+00 -0.29208768971E+02  0.29236365793E+02  0.12700000000E+01 0.  1.
         25    2    1    2    0    0  0.00000000000E+00  0.00000000000E+00  0.10442839782E+03  0.16287956707E+03  0.12499785237E+03 0.  0.
    9000005    1    3    3    0    0 -0.71220245096E+01  0.62075447128E+02  0.53537561120E+02  0.82288242295E+02  0.10000000000E+01 0.  0.
    9000005    1    3    3    0    0  0.71220245096E+01 -0.62075447128E+02  0.50890836703E+02  0.80591324779E+02  0.10000000000E+01 0.  0.
<mgrwt>
<rscale>  0 0.12499785E+03</rscale>
<asrwt>0</asrwt>
<pdfrwt beam="2">  1        4 0.44962438E-02 0.12499785E+03</pdfrwt>
<pdfrwt beam="1">  1       -4 0.20562151E-01 0.12499785E+03</pdfrwt>
<totfact> 0.96795153E+03</totfact>
</mgrwt>
</event>
<event>
 5    1  0.3321169E-002  0.1249970E+03  0.7818608E-02  0.1235074E+00
         -4   -1    0    0    0  501 -0.00000000000E+00  0.00000000000E+00  0.63187179902E+01  0.64450831678E+01  0.12700000000E+01 0.  1.
          4   -1    0    0  501    0  0.00000000000E+00 -0.00000000000E+00 -0.61192572405E+03  0.61192704194E+03  0.12700000000E+01 0.  1.
         25    2    1    2    0    0  0.00000000000E+00  0.00000000000E+00 -0.60560700606E+03  0.61837212511E+03  0.12499695724E+03 0.  0.
    9000005    1    3    3    0    0  0.56008556606E+02 -0.16287083050E+02 -0.19187016918E+03  0.20054273686E+03  0.10000000000E+01 0.  0.
    9000005    1    3    3    0    0 -0.56008556606E+02  0.16287083050E+02 -0.41373683688E+03  0.41782938825E+03  0.10000000000E+01 0.  0.
<mgrwt>
<rscale>  0 0.12499696E+03</rscale>
<asrwt>0</asrwt>
<pdfrwt beam="2">  1        4 0.94152194E-01 0.12499696E+03</pdfrwt>
<pdfrwt beam="1">  1       -4 0.98193272E-03 0.12499696E+03</pdfrwt>
<totfact> 0.47731273E+03</totfact>
</mgrwt>
</event>
<event>
 5    1  0.3321169E-002  0.1249959E+03  0.7818608E-02  0.1235076E+00
          4   -1    0    0  501    0  0.00000000000E+00  0.00000000000E+00  0.72894796577E+02  0.72905858942E+02  0.12700000000E+01 0.  1.
         -4   -1    0    0    0  501 -0.00000000000E+00 -0.00000000000E+00 -0.53561297150E+02  0.53576351616E+02  0.12700000000E+01 0.  1.
         25    2    1    2    0    0  0.00000000000E+00  0.00000000000E+00  0.19333499427E+02  0.12648221056E+03  0.12499586148E+03 0.  0.
    9000005    1    3    3    0    0  0.40630079623E+01 -0.31264565471E+01 -0.53353103714E+02  0.53608175124E+02  0.10000000000E+01 0.  0.
    9000005    1    3    3    0    0 -0.40630079623E+01  0.31264565471E+01  0.72686603140E+02  0.72874035433E+02  0.10000000000E+01 0.  0.
<mgrwt>
<rscale>  0 0.12499586E+03</rscale>
<asrwt>0</asrwt>
<pdfrwt beam="1">  1        4 0.11216593E-01 0.12499586E+03</pdfrwt>
<pdfrwt beam="2">  1       -4 0.82422085E-02 0.12499586E+03</pdfrwt>
<totfact> 0.10421389E+04</totfact>
</mgrwt>
</event>
<event>
 5    1  0.3321169E-002  0.1250016E+03  0.7818608E-02  0.1235067E+00
          4   -1    0    0  501    0  0.00000000000E+00  0.00000000000E+00  0.10569735847E+02  0.10645760464E+02  0.12700000000E+01 0. -1.
         -4   -1    0    0    0  501 -0.00000000000E+00 -0.00000000000E+00 -0.36817740885E+03  0.36817959923E+03  0.12700000000E+01 0. -1.
         25    2    1    2    0    0  0.00000000000E+00  0.00000000000E+00 -0.35760767301E+03  0.37882535970E+03  0.12500162141E+03 0.  0.
    9000005    1    3    3    0    0 -0.26852875526E+02  0.53906608975E+02 -0.22936540191E+03  0.23714233491E+03  0.10000000000E+01 0.  0.
    9000005    1    3    3    0    0  0.26852875526E+02 -0.53906608975E+02 -0.12824227110E+03  0.14168302479E+03  0.10000000000E+01 0.  0.
<mgrwt>
<rscale>  0 0.12500162E+03</rscale>
<asrwt>0</asrwt>
<pdfrwt beam="1">  1        4 0.16321300E-02 0.12500162E+03</pdfrwt>
<pdfrwt beam="2">  1       -4 0.56648685E-01 0.12500162E+03</pdfrwt>
<totfact> 0.66663252E+03</totfact>
</mgrwt>
</event>
<event>
 5    1  0.3321169E-002  0.1250002E+03  0.7818608E-02  0.1235069E+00
         -4   -1    0    0    0  501 -0.00000000000E+00  0.00000000000E+00  0.73283776164E+02  0.73294779820E+02  0.12700000000E+01 0.  1.
          4   -1    0    0  501    0  0.00000000000E+00 -0.00000000000E+00 -0.53280648949E+02  0.53295782689E+02  0.12700000000E+01 0.  1.
         25    2    1    2    0    0  0.00000000000E+00  0.00000000000E+00  0.20003127215E+02  0.12659056251E+03  0.12500018167E+03 0.  0.
    9000005    1    3    3    0    0  0.49111381486E+02  0.38122388933E+02  0.16407949355E+02  0.64307582223E+02  0.10000000000E+01 0.  0.
    9000005    1    3    3    0    0 -0.49111381486E+02 -0.38122388933E+02  0.35951778600E+01  0.62282980285E+02  0.10000000000E+01 0.  0.
<mgrwt>
<rscale>  0 0.12500018E+03</rscale>
<asrwt>0</asrwt>
<pdfrwt beam="2">  1        4 0.81990335E-02 0.12500018E+03</pdfrwt>
<pdfrwt beam="1">  1       -4 0.11276438E-01 0.12500018E+03</pdfrwt>
<totfact> 0.10418011E+04</totfact>
</mgrwt>
</event>
<event>
 5    1  0.3321169E-002  0.1249992E+03  0.7818608E-02  0.1235071E+00
          4   -1    0    0  501    0  0.00000000000E+00  0.00000000000E+00  0.15901771923E+02  0.15952405784E+02  0.12700000000E+01 0. -1.
         -4   -1    0    0    0  501 -0.00000000000E+00 -0.00000000000E+00 -0.24520276914E+03  0.24520605803E+03  0.12700000000E+01 0. -1.
         25    2    1    2    0    0  0.00000000000E+00  0.00000000000E+00 -0.22930099722E+03  0.26115846382E+03  0.12499918358E+03 0.  0.
    9000005    1    3    3    0    0 -0.27492102069E+02  0.55680000216E+02 -0.12929349553E+03  0.14343599996E+03  0.10000000000E+01 0.  0.
    9000005    1    3    3    0    0  0.27492102069E+02 -0.55680000216E+02 -0.10000750169E+03  0.11772246385E+03  0.10000000000E+01 0.  0.
<mgrwt>
<rscale>  0 0.12499918E+03</rscale>
<asrwt>0</asrwt>
<pdfrwt beam="1">  1        4 0.24505745E-02 0.12499918E+03</pdfrwt>
<pdfrwt beam="2">  1       -4 0.37727648E-01 0.12499918E+03</pdfrwt>
<totfact> 0.80745230E+03</totfact>
</mgrwt>
</event>
<event>
 5    1  0.3321169E-002  0.1249999E+03  0.7818608E-02  0.1235069E+00
         -4   -1    0    0    0  501 -0.00000000000E+00  0.00000000000E+00  0.18458350705E+02  0.18501989373E+02  0.12700000000E+01 0. -1.
          4   -1    0    0  501    0  0.00000000000E+00 -0.00000000000E+00 -0.21132925934E+03  0.21133307539E+03  0.12700000000E+01 0. -1.
         25    2    1    2    0    0  0.00000000000E+00  0.00000000000E+00 -0.19287090864E+03  0.22983506477E+03  0.12499987839E+03 0.  0.
    9000005    1    3    3    0    0  0.31165184147E+02  0.45889882040E+02 -0.43524438146E+02  0.70516144906E+02  0.10000000000E+01 0.  0.
    9000005    1    3    3    0    0 -0.31165184147E+02 -0.45889882040E+02 -0.14934647049E+03  0.15931891986E+03  0.10000000000E+01 0.  0.
<mgrwt>
<rscale>  0 0.12499988E+03</rscale>
<asrwt>0</asrwt>
<pdfrwt beam="2">  1        4 0.32515842E-01 0.12499988E+03</pdfrwt>
<pdfrwt beam="1">  1       -4 0.28433968E-02 0.12499988E+03</pdfrwt>
<totfact> 0.85335162E+03</totfact>
</mgrwt>
</event>
<event>
 5    1  0.3321169E-002  0.1249992E+03  0.7818608E-02  0.1235071E+00
         -4   -1    0    0    0  501 -0.00000000000E+00  0.00000000000E+00  0.25654527133E+01  0.28625945616E+01  0.12700000000E+01 0.  1.
          4   -1    0    0  501    0  0.00000000000E+00 -0.00000000000E+00 -0.14389678659E+04  0.14389684263E+04  0.12700000000E+01 0.  1.
         25    2    1    2    0    0  0.00000000000E+00  0.00000000000E+00 -0.14364024132E+04  0.14418310209E+04  0.12499920086E+03 0.  0.
    9000005    1    3    3    0    0  0.44218236213E+02  0.28234370610E+02 -0.32656929137E+03  0.33075812033E+03  0.10000000000E+01 0.  0.
    9000005    1    3    3    0    0 -0.44218236213E+02 -0.28234370610E+02 -0.11098331218E+04  0.11110729005E+04  0.10000000000E+01 0.  0.
<mgrwt>
<rscale>  0 0.12499920E+03</rscale>
<asrwt>0</asrwt>
<pdfrwt beam="2">  1        4 0.22140196E+00 0.12499920E+03</pdfrwt>
<pdfrwt beam="1">  1       -4 0.41758636E-03 0.12499920E+03</pdfrwt>
<totfact> 0.19101089E+03</totfact>
</mgrwt>
</event>
<event>
 5    1  0.3321169E-002  0.1249998E+03  0.7818608E-02  0.1235070E+00
         -4   -1    0    0    0  501 -0.00000000000E+00  0.00000000000E+00  0.37412129514E+02  0.37433679151E+02  0.12700000000E+01 0.  1.
          4   -1    0    0  501    0  0.00000000000E+00 -0.00000000000E+00 -0.10435555174E+03  0.10436327936E+03  0.12700000000E+01 0.  1.
         25    2    1    2    0    0  0.00000000000E+00  0.00000000000E+00 -0.66943422223E+02  0.14179695851E+03  0.12499982265E+03 0.  0.
    9000005    1    3    3    0    0  0.52072517887E+02  0.27126592634E+02 -0.91992242043E+01  0.59439253637E+02  0.10000000000E+01 0.  0.
    9000005    1    3    3    0    0 -0.52072517887E+02 -0.27126592634E+02 -0.57744198018E+02  0.82357704872E+02  0.10000000000E+01 0.  0.
<mgrwt>
<rscale>  0 0.12499982E+03</rscale>
<asrwt>0</asrwt>
<pdfrwt beam="2">  1        4 0.16056952E-01 0.12499982E+03</pdfrwt>
<pdfrwt beam="1">  1       -4 0.57579644E-02 0.12499982E+03</pdfrwt>
<totfact> 0.10096518E+04</totfact>
</mgrwt>
</event>
<event>
 5    1  0.3321169E-002  0.1250017E+03  0.7818608E-02  0.1235067E+00
          4   -1    0    0  501    0  0.00000000000E+00  0.00000000000E+00  0.25201925135E+02  0.25233904385E+02  0.12700000000E+01 0.  1.
         -4   -1    0    0    0  501 -0.00000000000E+00 -0.00000000000E+00 -0.15486939945E+03  0.15487460665E+03  0.12700000000E+01 0.  1.
         25    2    1    2    0    0  0.00000000000E+00  0.00000000000E+00 -0.12966747431E+03  0.18010851104E+03  0.12500168740E+03 0.  0.
    9000005    1    3    3    0    0  0.35144599621E+01  0.58121507661E+02 -0.97528443185E+02  0.11359250993E+03  0.10000000000E+01 0.  0.
    9000005    1    3    3    0    0 -0.35144599621E+01 -0.58121507661E+02 -0.32139031130E+02  0.66516001109E+02  0.10000000000E+01 0.  0.
<mgrwt>
<rscale>  0 0.12500169E+03</rscale>
<asrwt>0</asrwt>
<pdfrwt beam="1">  1        4 0.38800798E-02 0.12500169E+03</pdfrwt>
<pdfrwt beam="2">  1       -4 0.23828921E-01 0.12500169E+03</pdfrwt>
<totfact> 0.93593934E+03</totfact>
</mgrwt>
</event>
<event>
 5    1  0.3321169E-002  0.1249995E+03  0.7818608E-02  0.1235070E+00
          4   -1    0    0  501    0  0.00000000000E+00  0.00000000000E+00  0.41381922859E+03  0.41382117738E+03  0.12700000000E+01 0.  1.
         -4   -1    0    0    0  501 -0.00000000000E+00 -0.00000000000E+00 -0.93947341008E+01  0.94801861177E+01  0.12700000000E+01 0.  1.
         25    2    1    2    0    0  0.00000000000E+00  0.00000000000E+00  0.40442449449E+03  0.42330136350E+03  0.12499949039E+03 0.  0.
    9000005    1    3    3    0    0 -0.40953070175E+02 -0.45852627611E+02  0.16425999849E+03  0.17539089064E+03  0.10000000000E+01 0.  0.
    9000005    1    3    3    0    0  0.40953070175E+02  0.45852627611E+02  0.24016449599E+03  0.24791047286E+03  0.10000000000E+01 0.  0.
<mgrwt>
<rscale>  0 0.12499949E+03</rscale>
<asrwt>0</asrwt>
<pdfrwt beam="1">  1        4 0.63671218E-01 0.12499949E+03</pdfrwt>
<pdfrwt beam="2">  1       -4 0.14520669E-02 0.12499949E+03</pdfrwt>
<totfact> 0.62348611E+03</totfact>
</mgrwt>
</event>
<event>
 5    1  0.3321169E-002  0.1249938E+03  0.7818608E-02  0.1235079E+00
          4   -1    0    0  501    0  0.00000000000E+00  0.00000000000E+00  0.39703393947E+02  0.39723700620E+02  0.12700000000E+01 0.  1.
         -4   -1    0    0    0  501 -0.00000000000E+00 -0.00000000000E+00 -0.98326405057E+02  0.98334606479E+02  0.12700000000E+01 0.  1.
         25    2    1    2    0    0  0.00000000000E+00  0.00000000000E+00 -0.58623011110E+02  0.13805830710E+03  0.12499375475E+03 0.  0.
    9000005    1    3    3    0    0 -0.32913526706E+02 -0.51875971294E+02 -0.16696580005E+02  0.63672540563E+02  0.10000000000E+01 0.  0.
    9000005    1    3    3    0    0  0.32913526706E+02  0.51875971294E+02 -0.41926431104E+02  0.74385766535E+02  0.10000000000E+01 0.  0.
<mgrwt>
<rscale>  0 0.12499375E+03</rscale>
<asrwt>0</asrwt>
<pdfrwt beam="1">  1        4 0.61104074E-02 0.12499375E+03</pdfrwt>
<pdfrwt beam="2">  1       -4 0.15129332E-01 0.12499375E+03</pdfrwt>
<totfact> 0.10175420E+04</totfact>
</mgrwt>
</event>
<event>
 4    1  0.3321169E-002  0.1248641E+03  0.7818608E-02  0.1235282E+00
         -4   -1    0    0    0  501 -0.00000000000E+00  0.00000000000E+00  0.96135774122E+02  0.96144162413E+02  0.12700000000E+01 0.  1.
          4   -1    0    0  501    0  0.00000000000E+00 -0.00000000000E+00 -0.40524196583E+02  0.40544092155E+02  0.12700000000E+01 0.  1.
    9000005    1    1    2    0    0 -0.55457233800E+02 -0.17219388744E+02  0.52882364127E+02  0.78546524844E+02  0.10000000000E+01 0.  0.
    9000005    1    1    2    0    0  0.55457233800E+02  0.17219388744E+02  0.27292134122E+01  0.58141729724E+02  0.10000000000E+01 0.  0.
<mgrwt>
<rscale>  0 0.12486405E+03</rscale>
<asrwt>0</asrwt>
<pdfrwt beam="2">  1        4 0.62366675E-02 0.12486405E+03</pdfrwt>
<pdfrwt beam="1">  1       -4 0.14792295E-01 0.12486405E+03</pdfrwt>
<totfact> 0.10233946E+04</totfact>
</mgrwt>
</event>
<event>
 5    1  0.3321169E-002  0.1249908E+03  0.7818608E-02  0.1235084E+00
          4   -1    0    0  501    0  0.00000000000E+00  0.00000000000E+00  0.56756602261E+02  0.56770809403E+02  0.12700000000E+01 0.  1.
         -4   -1    0    0    0  501 -0.00000000000E+00 -0.00000000000E+00 -0.68785797234E+02  0.68797520312E+02  0.12700000000E+01 0.  1.
         25    2    1    2    0    0  0.00000000000E+00  0.00000000000E+00 -0.12029194973E+02  0.12556832972E+03  0.12499081525E+03 0.  0.
    9000005    1    3    3    0    0 -0.25926997148E+02 -0.17072036830E+02  0.48467076220E+02  0.57564929427E+02  0.10000000000E+01 0.  0.
    9000005    1    3    3    0    0  0.25926997148E+02  0.17072036830E+02 -0.60496271192E+02  0.68003400288E+02  0.10000000000E+01 0.  0.
<mgrwt>
<rscale>  0 0.12499082E+03</rscale>
<asrwt>0</asrwt>
<pdfrwt beam="1">  1        4 0.87337796E-02 0.12499082E+03</pdfrwt>
<pdfrwt beam="2">  1       -4 0.10584425E-01 0.12499082E+03</pdfrwt>
<totfact> 0.10442609E+04</totfact>
</mgrwt>
</event>
<event>
 5    1  0.3321169E-002  0.1249995E+03  0.7818608E-02  0.1235070E+00
          4   -1    0    0  501    0  0.00000000000E+00  0.00000000000E+00  0.39581009788E+02  0.39601379217E+02  0.12700000000E+01 0.  1.
         -4   -1    0    0    0  501 -0.00000000000E+00 -0.00000000000E+00 -0.98639357565E+02  0.98647532968E+02  0.12700000000E+01 0.  1.
         25    2    1    2    0    0  0.00000000000E+00  0.00000000000E+00 -0.59058347776E+02  0.13824891219E+03  0.12499949311E+03 0.  0.
    9000005    1    3    3    0    0 -0.29418744445E+02 -0.82062438186E+01 -0.89827891079E+02  0.94883375668E+02  0.10000000000E+01 0.  0.
    9000005    1    3    3    0    0  0.29418744445E+02  0.82062438186E+01  0.30769543303E+02  0.43365536517E+02  0.10000000000E+01 0.  0.
<mgrwt>
<rscale>  0 0.12499949E+03</rscale>
<asrwt>0</asrwt>
<pdfrwt beam="1">  1        4 0.60915819E-02 0.12499949E+03</pdfrwt>
<pdfrwt beam="2">  1       -4 0.15177481E-01 0.12499949E+03</pdfrwt>
<totfact> 0.10170124E+04</totfact>
</mgrwt>
</event>
<event>
 5    1  0.3321169E-002  0.1249581E+03  0.7818608E-02  0.1235135E+00
         -4   -1    0    0    0  501 -0.00000000000E+00  0.00000000000E+00  0.82785645741E+03  0.82785743155E+03  0.12700000000E+01 0. -1.
          4   -1    0    0  501    0  0.00000000000E+00 -0.00000000000E+00 -0.46288404103E+01  0.47999024515E+01  0.12700000000E+01 0. -1.
         25    2    1    2    0    0  0.00000000000E+00  0.00000000000E+00  0.82322761700E+03  0.83265733400E+03  0.12495809889E+03 0.  0.
    9000005    1    3    3    0    0 -0.57115752977E+02 -0.21792273490E+02  0.32588513803E+03  0.33157086062E+03  0.10000000000E+01 0.  0.
    9000005    1    3    3    0    0  0.57115752977E+02  0.21792273490E+02  0.49734247897E+03  0.50108647339E+03  0.10000000000E+01 0.  0.
<mgrwt>
<rscale>  0 0.12495810E+03</rscale>
<asrwt>0</asrwt>
<pdfrwt beam="2">  1        4 0.72536346E-03 0.12495810E+03</pdfrwt>
<pdfrwt beam="1">  1       -4 0.12737566E+00 0.12495810E+03</pdfrwt>
<totfact> 0.36881467E+03</totfact>
</mgrwt>
</event>
<event>
 5    1  0.3321169E-002  0.1250000E+03  0.7818608E-02  0.1235069E+00
         -4   -1    0    0    0  501 -0.00000000000E+00  0.00000000000E+00  0.21704635984E+03  0.21705007538E+03  0.12700000000E+01 0. -1.
          4   -1    0    0  501    0  0.00000000000E+00 -0.00000000000E+00 -0.17971040169E+02  0.18015859257E+02  0.12700000000E+01 0. -1.
         25    2    1    2    0    0  0.00000000000E+00  0.00000000000E+00  0.19907531967E+03  0.23506593463E+03  0.12500004289E+03 0.  0.
    9000005    1    3    3    0    0 -0.48238220435E+02  0.15909711809E+02  0.16799523827E+03  0.17550910211E+03  0.10000000000E+01 0.  0.
    9000005    1    3    3    0    0  0.48238220435E+02 -0.15909711809E+02  0.31080081403E+02  0.59556832527E+02  0.10000000000E+01 0.  0.
<mgrwt>
<rscale>  0 0.12500004E+03</rscale>
<asrwt>0</asrwt>
<pdfrwt beam="2">  1        4 0.27685086E-02 0.12500004E+03</pdfrwt>
<pdfrwt beam="1">  1       -4 0.33395484E-01 0.12500004E+03</pdfrwt>
<totfact> 0.84537656E+03</totfact>
</mgrwt>
</event>
<event>
 5    1  0.3321169E-002  0.1249964E+03  0.7818608E-02  0.1235075E+00
          4   -1    0    0  501    0  0.00000000000E+00  0.00000000000E+00  0.79024548825E+02  0.79034753222E+02  0.12700000000E+01 0. -1.
         -4   -1    0    0    0  501 -0.00000000000E+00 -0.00000000000E+00 -0.49406405335E+02  0.49422725422E+02  0.12700000000E+01 0. -1.
         25    2    1    2    0    0  0.00000000000E+00  0.00000000000E+00  0.29618143489E+02  0.12845747864E+03  0.12499635753E+03 0.  0.
    9000005    1    3    3    0    0  0.51052187600E+02  0.24997050217E+02 -0.11868218218E+02  0.58077818330E+02  0.10000000000E+01 0.  0.
    9000005    1    3    3    0    0 -0.51052187600E+02 -0.24997050217E+02  0.41486361707E+02  0.70379660315E+02  0.10000000000E+01 0.  0.
<mgrwt>
<rscale>  0 0.12499636E+03</rscale>
<asrwt>0</asrwt>
<pdfrwt beam="1">  1        4 0.12159663E-01 0.12499636E+03</pdfrwt>
<pdfrwt beam="2">  1       -4 0.76030258E-02 0.12499636E+03</pdfrwt>
<totfact> 0.10378473E+04</totfact>
</mgrwt>
</event>
<event>
 5    1  0.3321169E-002  0.1250007E+03  0.7818608E-02  0.1235068E+00
          4   -1    0    0  501    0  0.00000000000E+00  0.00000000000E+00  0.10568980728E+02  0.10645010739E+02  0.12700000000E+01 0.  1.
         -4   -1    0    0    0  501 -0.00000000000E+00 -0.00000000000E+00 -0.36819829546E+03  0.36820048571E+03  0.12700000000E+01 0.  1.
         25    2    1    2    0    0  0.00000000000E+00  0.00000000000E+00 -0.35762931473E+03  0.37884549645E+03  0.12500073371E+03 0.  0.
    9000005    1    3    3    0    0  0.29848369957E+01  0.51493415410E+02 -0.28574524016E+03  0.29036498301E+03  0.10000000000E+01 0.  0.
    9000005    1    3    3    0    0 -0.29848369957E+01 -0.51493415410E+02 -0.71884074569E+02  0.88480513443E+02  0.10000000000E+01 0.  0.
<mgrwt>
<rscale>  0 0.12500073E+03</rscale>
<asrwt>0</asrwt>
<pdfrwt beam="1">  1        4 0.16320143E-02 0.12500073E+03</pdfrwt>
<pdfrwt beam="2">  1       -4 0.56651899E-01 0.12500073E+03</pdfrwt>
<totfact> 0.66662498E+03</totfact>
</mgrwt>
</event>
<event>
 5    1  0.3321169E-002  0.1250023E+03  0.7818608E-02  0.1235066E+00
          4   -1    0    0  501    0  0.00000000000E+00  0.00000000000E+00  0.21557454168E+03  0.21557828258E+03  0.12700000000E+01 0. -1.
         -4   -1    0    0    0  501 -0.00000000000E+00 -0.00000000000E+00 -0.18094703318E+02  0.18139216857E+02  0.12700000000E+01 0. -1.
         25    2    1    2    0    0  0.00000000000E+00  0.00000000000E+00  0.19747983836E+03  0.23371749943E+03  0.12500233191E+03 0.  0.
    9000005    1    3    3    0    0  0.49189659671E+02 -0.37711266517E+02  0.11365467127E+03  0.12946098463E+03  0.10000000000E+01 0.  0.
    9000005    1    3    3    0    0 -0.49189659671E+02  0.37711266517E+02  0.83825167092E+02  0.10425651480E+03  0.10000000000E+01 0.  0.
<mgrwt>
<rscale>  0 0.12500233E+03</rscale>
<asrwt>0</asrwt>
<pdfrwt beam="1">  1        4 0.33169025E-01 0.12500233E+03</pdfrwt>
<pdfrwt beam="2">  1       -4 0.27875125E-02 0.12500233E+03</pdfrwt>
<totfact> 0.84737614E+03</totfact>
</mgrwt>
</event>
<event>
 5    1  0.3321169E-002  0.1249969E+03  0.7818608E-02  0.1235074E+00
          4   -1    0    0  501    0  0.00000000000E+00  0.00000000000E+00  0.93317785641E+01  0.94178018226E+01  0.12700000000E+01 0.  1.
         -4   -1    0    0    0  501 -0.00000000000E+00 -0.00000000000E+00 -0.41656846553E+03  0.41657040146E+03  0.12700000000E+01 0.  1.
         25    2    1    2    0    0  0.00000000000E+00  0.00000000000E+00 -0.40723668697E+03  0.42598820329E+03  0.12499692047E+03 0.  0.
    9000005    1    3    3    0    0  0.59243237468E+02  0.18516006313E+02 -0.17893596716E+03  0.18939821546E+03  0.10000000000E+01 0.  0.
    9000005    1    3    3    0    0 -0.59243237468E+02 -0.18516006313E+02 -0.22830071981E+03  0.23658998783E+03  0.10000000000E+01 0.  0.
<mgrwt>
<rscale>  0 0.12499692E+03</rscale>
<asrwt>0</asrwt>
<pdfrwt beam="1">  1        4 0.14424247E-02 0.12499692E+03</pdfrwt>
<pdfrwt beam="2">  1       -4 0.64094208E-01 0.12499692E+03</pdfrwt>
<totfact> 0.62105551E+03</totfact>
</mgrwt>
</event>
<event>
 5    1  0.3321169E-002  0.1250013E+03  0.7818608E-02  0.1235067E+00
         -4   -1    0    0    0  501 -0.00000000000E+00  0.00000000000E+00  0.83414929518E+02  0.83424596892E+02  0.12700000000E+01 0.  1.
          4   -1    0    0  501    0  0.00000000000E+00 -0.00000000000E+00 -0.46809162240E+02  0.46826387536E+02  0.12700000000E+01 0.  1.
         25    2    1    2    0    0  0.00000000000E+00  0.00000000000E+00  0.36605767278E+02  0.13025098443E+03  0.12500134698E+03 0.  0.
    9000005    1    3    3    0    0 -0.28043646656E+02  0.55108366949E+02  0.88697367992E+01  0.62474398408E+02  0.10000000000E+01 0.  0.
    9000005    1    3    3    0    0  0.28043646656E+02 -0.55108366949E+02  0.27736030479E+02  0.67776586019E+02  0.10000000000E+01 0.  0.
<mgrwt>
<rscale>  0 0.12500135E+03</rscale>
<asrwt>0</asrwt>
<pdfrwt beam="2">  1        4 0.72034783E-02 0.12500135E+03</pdfrwt>
<pdfrwt beam="1">  1       -4 0.12835135E-01 0.12500135E+03</pdfrwt>
<totfact> 0.10338827E+04</totfact>
</mgrwt>
</event>
<event>
 5    1  0.3321169E-002  0.1249979E+03  0.7818608E-02  0.1235073E+00
         -4   -1    0    0    0  501 -0.00000000000E+00  0.00000000000E+00  0.14642384336E+03  0.14642935089E+03  0.12700000000E+01 0. -1.
          4   -1    0    0  501    0  0.00000000000E+00 -0.00000000000E+00 -0.26655647244E+02  0.26685884471E+02  0.12700000000E+01 0. -1.
         25    2    1    2    0    0  0.00000000000E+00  0.00000000000E+00  0.11976819611E+03  0.17311523537E+03  0.12499785564E+03 0.  0.
    9000005    1    3    3    0    0 -0.14641540067E+01 -0.58303137670E+02  0.28800895379E+02  0.65052987508E+02  0.10000000000E+01 0.  0.
    9000005    1    3    3    0    0  0.14641540067E+01  0.58303137670E+02  0.90967300734E+02  0.10806224786E+03  0.10000000000E+01 0.  0.
<mgrwt>
<rscale>  0 0.12499786E+03</rscale>
<asrwt>0</asrwt>
<pdfrwt beam="2">  1        4 0.41036183E-02 0.12499786E+03</pdfrwt>
<pdfrwt beam="1">  1       -4 0.22529495E-01 0.12499786E+03</pdfrwt>
<totfact> 0.94875733E+03</totfact>
</mgrwt>
</event>
<event>
 5    1  0.3321169E-002  0.1249999E+03  0.7818608E-02  0.1235069E+00
          4   -1    0    0  501    0  0.00000000000E+00  0.00000000000E+00  0.59189741890E+02  0.59203365149E+02  0.12700000000E+01 0.  1.
         -4   -1    0    0    0  501 -0.00000000000E+00 -0.00000000000E+00 -0.65967947725E+02  0.65980171469E+02  0.12700000000E+01 0.  1.
         25    2    1    2    0    0  0.00000000000E+00  0.00000000000E+00 -0.67782058354E+01  0.12518353662E+03  0.12499989506E+03 0.  0.
    9000005    1    3    3    0    0 -0.22630595068E+02 -0.43592619833E+02  0.35304210746E+02  0.60496674565E+02  0.10000000000E+01 0.  0.
    9000005    1    3    3    0    0  0.22630595068E+02  0.43592619833E+02 -0.42082416582E+02  0.64686862053E+02  0.10000000000E+01 0.  0.
<mgrwt>
<rscale>  0 0.12499990E+03</rscale>
<asrwt>0</asrwt>
<pdfrwt beam="1">  1        4 0.91081023E-02 0.12499990E+03</pdfrwt>
<pdfrwt beam="2">  1       -4 0.10150903E-01 0.12499990E+03</pdfrwt>
<totfact> 0.10448902E+04</totfact>
</mgrwt>
</event>
<event>
 5    1  0.3321169E-002  0.1249993E+03  0.7818608E-02  0.1235070E+00
         -4   -1    0    0    0  501 -0.00000000000E+00  0.00000000000E+00  0.15838635948E+02  0.15889471001E+02  0.12700000000E+01 0. -1.
          4   -1    0    0  501    0  0.00000000000E+00 -0.00000000000E+00 -0.24617766478E+03  0.24618094064E+03  0.12700000000E+01 0. -1.
         25    2    1    2    0    0  0.00000000000E+00  0.00000000000E+00 -0.23033902883E+03  0.26207041164E+03  0.12499932982E+03 0.  0.
    9000005    1    3    3    0    0  0.10981140413E+02  0.46454847820E+02 -0.30613080959E+02  0.56716832215E+02  0.10000000000E+01 0.  0.
    9000005    1    3    3    0    0 -0.10981140413E+02 -0.46454847820E+02 -0.19972594787E+03  0.20535357943E+03  0.10000000000E+01 0.  0.
<mgrwt>
<rscale>  0 0.12499933E+03</rscale>
<asrwt>0</asrwt>
<pdfrwt beam="2">  1        4 0.37877647E-01 0.12499933E+03</pdfrwt>
<pdfrwt beam="1">  1       -4 0.24408758E-02 0.12499933E+03</pdfrwt>
<totfact> 0.80617587E+03</totfact>
</mgrwt>
</event>
<event>
 5    1  0.3321169E-002  0.1249973E+03  0.7818608E-02  0.1235074E+00
         -4   -1    0    0    0  501 -0.00000000000E+00  0.00000000000E+00  0.76561144932E+03  0.76561250266E+03  0.12700000000E+01 0.  1.
          4   -1    0    0  501    0  0.00000000000E+00 -0.00000000000E+00 -0.50218023588E+01  0.51799033708E+01  0.12700000000E+01 0.  1.
         25    2    1    2    0    0  0.00000000000E+00  0.00000000000E+00  0.76058964696E+03  0.77079240603E+03  0.12499728849E+03 0.  0.
    9000005    1    3    3    0    0  0.25619094251E+02  0.33534386960E+02  0.96088816628E+02  0.10495214995E+03  0.10000000000E+01 0.  0.
    9000005    1    3    3    0    0 -0.25619094251E+02 -0.33534386960E+02  0.66450083033E+03  0.66584025607E+03  0.10000000000E+01 0.  0.
<mgrwt>
<rscale>  0 0.12499729E+03</rscale>
<asrwt>0</asrwt>
<pdfrwt beam="2">  1        4 0.78482745E-03 0.12499729E+03</pdfrwt>
<pdfrwt beam="1">  1       -4 0.11779865E+00 0.12499729E+03</pdfrwt>
<totfact> 0.39601158E+03</totfact>
</mgrwt>
</event>
<event>
 5    1  0.3321169E-002  0.1250021E+03  0.7818608E-02  0.1235066E+00
          4   -1    0    0  501    0  0.00000000000E+00  0.00000000000E+00  0.77925015650E+02  0.77935364014E+02  0.12700000000E+01 0.  1.
         -4   -1    0    0    0  501 -0.00000000000E+00 -0.00000000000E+00 -0.50108301063E+02  0.50124392619E+02  0.12700000000E+01 0.  1.
         25    2    1    2    0    0  0.00000000000E+00  0.00000000000E+00  0.27816714586E+02  0.12805975663E+03  0.12500212662E+03 0.  0.
    9000005    1    3    3    0    0 -0.57111343344E+02 -0.16071794792E+02  0.34019507984E+02  0.68398355608E+02  0.10000000000E+01 0.  0.
    9000005    1    3    3    0    0  0.57111343344E+02  0.16071794792E+02 -0.62027933980E+01  0.59661401026E+02  0.10000000000E+01 0.  0.
<mgrwt>
<rscale>  0 0.12500213E+03</rscale>
<asrwt>0</asrwt>
<pdfrwt beam="1">  1        4 0.11990498E-01 0.12500213E+03</pdfrwt>
<pdfrwt beam="2">  1       -4 0.77110032E-02 0.12500213E+03</pdfrwt>
<totfact> 0.10385699E+04</totfact>
</mgrwt>
</event>
<event>
 5    1  0.3321169E-002  0.1249978E+03  0.7818608E-02  0.1235073E+00
          4   -1    0    0  501    0  0.00000000000E+00  0.00000000000E+00  0.43822210124E+02  0.43840609031E+02  0.12700000000E+01 0.  1.
         -4   -1    0    0    0  501 -0.00000000000E+00 -0.00000000000E+00 -0.89093835943E+02  0.89102887175E+02  0.12700000000E+01 0.  1.
         25    2    1    2    0    0  0.00000000000E+00  0.00000000000E+00 -0.45271625818E+02  0.13294349621E+03  0.12499781230E+03 0.  0.
    9000005    1    3    3    0    0 -0.38723176094E+02  0.57251211666E+01 -0.74444191337E+02  0.84114202148E+02  0.10000000000E+01 0.  0.
    9000005    1    3    3    0    0  0.38723176094E+02 -0.57251211666E+01  0.29172565519E+02  0.48829294058E+02  0.10000000000E+01 0.  0.
<mgrwt>
<rscale>  0 0.12499781E+03</rscale>
<asrwt>0</asrwt>
<pdfrwt beam="1">  1        4 0.67439900E-02 0.12499781E+03</pdfrwt>
<pdfrwt beam="2">  1       -4 0.13708856E-01 0.12499781E+03</pdfrwt>
<totfact> 0.10282108E+04</totfact>
</mgrwt>
</event>
<event>
 5    1  0.3321169E-002  0.1249997E+03  0.7818608E-02  0.1235070E+00
         -4   -1    0    0    0  501 -0.00000000000E+00  0.00000000000E+00  0.26152884642E+03  0.26153193000E+03  0.12700000000E+01 0.  1.
          4   -1    0    0  501    0  0.00000000000E+00 -0.00000000000E+00 -0.14905956883E+02  0.14959961584E+02  0.12700000000E+01 0.  1.
         25    2    1    2    0    0  0.00000000000E+00  0.00000000000E+00  0.24662288954E+03  0.27649189159E+03  0.12499966587E+03 0.  0.
    9000005    1    3    3    0    0  0.56401825054E+02 -0.14400233759E+02  0.73031902666E+02  0.93398026792E+02  0.10000000000E+01 0.  0.
    9000005    1    3    3    0    0 -0.56401825054E+02  0.14400233759E+02  0.17359098687E+03  0.18309386480E+03  0.10000000000E+01 0.  0.
<mgrwt>
<rscale>  0 0.12499967E+03</rscale>
<asrwt>0</asrwt>
<pdfrwt beam="2">  1        4 0.22976154E-02 0.12499967E+03</pdfrwt>
<pdfrwt beam="1">  1       -4 0.40239602E-01 0.12499967E+03</pdfrwt>
<totfact> 0.78646146E+03</totfact>
</mgrwt>
</event>
<event>
 5    1  0.3321169E-002  0.1249999E+03  0.7818608E-02  0.1235070E+00
          4   -1    0    0  501    0  0.00000000000E+00  0.00000000000E+00  0.35150123506E+03  0.35150352936E+03  0.12700000000E+01 0. -1.
         -4   -1    0    0    0  501 -0.00000000000E+00 -0.00000000000E+00 -0.11074399005E+02  0.11146982252E+02  0.12700000000E+01 0. -1.
         25    2    1    2    0    0  0.00000000000E+00  0.00000000000E+00  0.34042683606E+03  0.36265051161E+03  0.12499985145E+03 0.  0.
    9000005    1    3    3    0    0 -0.57774593785E+02  0.63227258713E+01  0.10358914876E+03  0.11878380483E+03  0.10000000000E+01 0.  0.
    9000005    1    3    3    0    0  0.57774593785E+02 -0.63227258713E+01  0.23683768730E+03  0.24386670678E+03  0.10000000000E+01 0.  0.
<mgrwt>
<rscale>  0 0.12499985E+03</rscale>
<asrwt>0</asrwt>
<pdfrwt beam="1">  1        4 0.54082869E-01 0.12499985E+03</pdfrwt>
<pdfrwt beam="2">  1       -4 0.17095136E-02 0.12499985E+03</pdfrwt>
<totfact> 0.68355131E+03</totfact>
</mgrwt>
</event>
<event>
 5    1  0.3321169E-002  0.1249919E+03  0.7818608E-02  0.1235082E+00
         -4   -1    0    0    0  501 -0.00000000000E+00  0.00000000000E+00  0.76939625033E+02  0.76950105914E+02  0.12700000000E+01 0.  1.
          4   -1    0    0  501    0  0.00000000000E+00 -0.00000000000E+00 -0.50741828597E+02  0.50757719308E+02  0.12700000000E+01 0.  1.
         25    2    1    2    0    0  0.00000000000E+00  0.00000000000E+00  0.26197796436E+02  0.12770782522E+03  0.12499185607E+03 0.  0.
    9000005    1    3    3    0    0 -0.18829819783E+02 -0.43136333178E+02  0.55094771974E+02  0.72468884715E+02  0.10000000000E+01 0.  0.
    9000005    1    3    3    0    0  0.18829819783E+02  0.43136333178E+02 -0.28896975538E+02  0.55238940507E+02  0.10000000000E+01 0.  0.
<mgrwt>
<rscale>  0 0.12499186E+03</rscale>
<asrwt>0</asrwt>
<pdfrwt beam="2">  1        4 0.78084637E-02 0.12499186E+03</pdfrwt>
<pdfrwt beam="1">  1       -4 0.11838894E-01 0.12499186E+03</pdfrwt>
<totfact> 0.10395713E+04</totfact>
</mgrwt>
</event>
<event>
 5    1  0.3321169E-002  0.1250008E+03  0.7818608E-02  0.1235068E+00
         -4   -1    0    0    0  501 -0.00000000000E+00  0.00000000000E+00  0.92404634902E+01  0.93273289592E+01  0.12700000000E+01 0.  1.
          4   -1    0    0  501    0  0.00000000000E+00 -0.00000000000E+00 -0.42067329487E+03  0.42067521191E+03  0.12700000000E+01 0.  1.
         25    2    1    2    0    0  0.00000000000E+00  0.00000000000E+00 -0.41143283138E+03  0.43000254087E+03  0.12500084167E+03 0.  0.
    9000005    1    3    3    0    0 -0.59967749902E+01  0.42947611413E+02 -0.50922507294E+02  0.66892154887E+02  0.10000000000E+01 0.  0.
    9000005    1    3    3    0    0  0.59967749902E+01 -0.42947611413E+02 -0.36051032409E+03  0.36311038598E+03  0.10000000000E+01 0.  0.
<mgrwt>
<rscale>  0 0.12500084E+03</rscale>
<asrwt>0</asrwt>
<pdfrwt beam="2">  1        4 0.64725783E-01 0.12500084E+03</pdfrwt>
<pdfrwt beam="1">  1       -4 0.14284395E-02 0.12500084E+03</pdfrwt>
<totfact> 0.61734622E+03</totfact>
</mgrwt>
</event>
<event>
 5    1  0.3321169E-002  0.1250035E+03  0.7818608E-02  0.1235064E+00
         -4   -1    0    0    0  501 -0.00000000000E+00  0.00000000000E+00  0.75066784348E+02  0.75077526680E+02  0.12700000000E+01 0.  1.
          4   -1    0    0  501    0  0.00000000000E+00 -0.00000000000E+00 -0.52017690764E+02  0.52033191834E+02  0.12700000000E+01 0.  1.
         25    2    1    2    0    0  0.00000000000E+00  0.00000000000E+00  0.23049093584E+02  0.12711071851E+03  0.12500349614E+03 0.  0.
    9000005    1    3    3    0    0 -0.10165239924E+02  0.17275031368E+02 -0.48665415569E+02  0.52641062717E+02  0.10000000000E+01 0.  0.
    9000005    1    3    3    0    0  0.10165239924E+02 -0.17275031368E+02  0.71714509153E+02  0.74469655797E+02  0.10000000000E+01 0.  0.
<mgrwt>
<rscale>  0 0.12500350E+03</rscale>
<asrwt>0</asrwt>
<pdfrwt beam="2">  1        4 0.80047404E-02 0.12500350E+03</pdfrwt>
<pdfrwt beam="1">  1       -4 0.11550755E-01 0.12500350E+03</pdfrwt>
<totfact> 0.10405920E+04</totfact>
</mgrwt>
</event>
<event>
 5    1  0.3321169E-002  0.1249938E+03  0.7818608E-02  0.1235079E+00
         -4   -1    0    0    0  501 -0.00000000000E+00  0.00000000000E+00  0.31515973914E+03  0.31516229799E+03  0.12700000000E+01 0. -1.
          4   -1    0    0  501    0  0.00000000000E+00 -0.00000000000E+00 -0.12358135014E+02  0.12423220236E+02  0.12700000000E+01 0. -1.
         25    2    1    2    0    0  0.00000000000E+00  0.00000000000E+00  0.30280160413E+03  0.32758551823E+03  0.12499384101E+03 0.  0.
    9000005    1    3    3    0    0  0.46550790498E+02 -0.20633568648E+02  0.24633593565E+03  0.25154545005E+03  0.10000000000E+01 0.  0.
    9000005    1    3    3    0    0 -0.46550790498E+02  0.20633568648E+02  0.56465668479E+02  0.76040068175E+02  0.10000000000E+01 0.  0.
<mgrwt>
<rscale>  0 0.12499384E+03</rscale>
<asrwt>0</asrwt>
<pdfrwt beam="2">  1        4 0.19064546E-02 0.12499384E+03</pdfrwt>
<pdfrwt beam="1">  1       -4 0.48491324E-01 0.12499384E+03</pdfrwt>
<totfact> 0.72272775E+03</totfact>
</mgrwt>
</event>
<event>
 5    1  0.3321169E-002  0.1250048E+03  0.7818608E-02  0.1235062E+00
         -4   -1    0    0    0  501 -0.00000000000E+00  0.00000000000E+00  0.96539270763E+01  0.97371047029E+01  0.12700000000E+01 0. -1.
          4   -1    0    0  501    0  0.00000000000E+00 -0.00000000000E+00 -0.40283910562E+03  0.40284110753E+03  0.12700000000E+01 0. -1.
         25    2    1    2    0    0  0.00000000000E+00  0.00000000000E+00 -0.39318517854E+03  0.41257821223E+03  0.12500478624E+03 0.  0.
    9000005    1    3    3    0    0 -0.49143844064E+02 -0.37048123418E+02 -0.23242517388E+03  0.24043739791E+03  0.10000000000E+01 0.  0.
    9000005    1    3    3    0    0  0.49143844064E+02  0.37048123418E+02 -0.16076000466E+03  0.17214081432E+03  0.10000000000E+01 0.  0.
<mgrwt>
<rscale>  0 0.12500479E+03</rscale>
<asrwt>0</asrwt>
<pdfrwt beam="2">  1        4 0.61981786E-01 0.12500479E+03</pdfrwt>
<pdfrwt beam="1">  1       -4 0.14917721E-02 0.12500479E+03</pdfrwt>
<totfact> 0.63340876E+03</totfact>
</mgrwt>
</event>
<event>
 5    1  0.3321169E-002  0.1250008E+03  0.7818608E-02  0.1235068E+00
          4   -1    0    0  501    0  0.00000000000E+00  0.00000000000E+00  0.31283003659E+03  0.31283261450E+03  0.12700000000E+01 0.  1.
         -4   -1    0    0    0  501 -0.00000000000E+00 -0.00000000000E+00 -0.12452044155E+02  0.12516641068E+02  0.12700000000E+01 0.  1.
         25    2    1    2    0    0  0.00000000000E+00  0.00000000000E+00  0.30037799244E+03  0.32534925557E+03  0.12500079903E+03 0.  0.
    9000005    1    3    3    0    0  0.51671539778E+02  0.34924282464E+02  0.16048442388E+03  0.17217985897E+03  0.10000000000E+01 0.  0.
    9000005    1    3    3    0    0 -0.51671539778E+02 -0.34924282464E+02  0.13989356856E+03  0.15316939660E+03  0.10000000000E+01 0.  0.
<mgrwt>
<rscale>  0 0.12500080E+03</rscale>
<asrwt>0</asrwt>
<pdfrwt beam="1">  1        4 0.48132862E-01 0.12500080E+03</pdfrwt>
<pdfrwt beam="2">  1       -4 0.19208665E-02 0.12500080E+03</pdfrwt>
<totfact> 0.72523103E+03</totfact>
</mgrwt>
</event>
<event>
 5    1  0.3321169E-002  0.1249988E+03  0.7818608E-02  0.1235071E+00
          4   -1    0    0  501    0  0.00000000000E+00  0.00000000000E+00  0.24107754200E+02  0.24141182915E+02  0.12700000000E+01 0.  1.
         -4   -1    0    0    0  501 -0.00000000000E+00 -0.00000000000E+00 -0.16188162559E+03  0.16188660724E+03  0.12700000000E+01 0.  1.
         25    2    1    2    0    0  0.00000000000E+00  0.00000000000E+00 -0.13777387139E+03  0.18602779016E+03  0.12499879628E+03 0.  0.
    9000005    1    3    3    0    0 -0.12436998085E+02  0.32750972691E+02 -0.14590040919E+03  0.15005077319E+03  0.10000000000E+01 0.  0.
    9000005    1    3    3    0    0  0.12436998085E+02 -0.32750972691E+02  0.81265377929E+01  0.35977016970E+02  0.10000000000E+01 0.  0.
<mgrwt>
<rscale>  0 0.12499880E+03</rscale>
<asrwt>0</asrwt>
<pdfrwt beam="1">  1        4 0.37118400E-02 0.12499880E+03</pdfrwt>
<pdfrwt beam="2">  1       -4 0.24907819E-01 0.12499880E+03</pdfrwt>
<totfact> 0.92545593E+03</totfact>
</mgrwt>
</event>
<event>
 5    1  0.3321169E-002  0.1250010E+03  0.7818608E-02  0.1235068E+00
         -4   -1    0    0    0  501 -0.00000000000E+00  0.00000000000E+00  0.12456014146E+02  0.12520590578E+02  0.12700000000E+01 0. -1.
          4   -1    0    0  501    0  0.00000000000E+00 -0.00000000000E+00 -0.31273167568E+03  0.31273425440E+03  0.12700000000E+01 0. -1.
         25    2    1    2    0    0  0.00000000000E+00  0.00000000000E+00 -0.30027566154E+03  0.32525484498E+03  0.12500096508E+03 0.  0.
    9000005    1    3    3    0    0 -0.13580088074E+02 -0.55825690367E+02 -0.86169234098E+02  0.10357153761E+03  0.10000000000E+01 0.  0.
    9000005    1    3    3    0    0  0.13580088074E+02  0.55825690367E+02 -0.21410642744E+03  0.22168330737E+03  0.10000000000E+01 0.  0.
<mgrwt>
<rscale>  0 0.12500097E+03</rscale>
<asrwt>0</asrwt>
<pdfrwt beam="2">  1        4 0.48117725E-01 0.12500097E+03</pdfrwt>
<pdfrwt beam="1">  1       -4 0.19214759E-02 0.12500097E+03</pdfrwt>
<totfact> 0.72533911E+03</totfact>
</mgrwt>
</event>
<event>
 5    1  0.3321169E-002  0.1250034E+03  0.7818608E-02  0.1235064E+00
          4   -1    0    0  501    0  0.00000000000E+00  0.00000000000E+00  0.12439096783E+02  0.12503760586E+02  0.12700000000E+01 0. -1.
         -4   -1    0    0    0  501 -0.00000000000E+00 -0.00000000000E+00 -0.31316693331E+03  0.31316950845E+03  0.12700000000E+01 0. -1.
         25    2    1    2    0    0  0.00000000000E+00  0.00000000000E+00 -0.30072783653E+03  0.32567326903E+03  0.12500338595E+03 0.  0.
    9000005    1    3    3    0    0 -0.47889638679E+02 -0.36022604619E+02 -0.10416703069E+03  0.12017826683E+03  0.10000000000E+01 0.  0.
    9000005    1    3    3    0    0  0.47889638679E+02  0.36022604619E+02 -0.19656080584E+03  0.20549500220E+03  0.10000000000E+01 0.  0.
<mgrwt>
<rscale>  0 0.12500339E+03</rscale>
<asrwt>0</asrwt>
<pdfrwt beam="1">  1        4 0.19188797E-02 0.12500339E+03</pdfrwt>
<pdfrwt beam="2">  1       -4 0.48184695E-01 0.12500339E+03</pdfrwt>
<totfact> 0.72480971E+03</totfact>
</mgrwt>
</event>
<event>
 5    1  0.3321169E-002  0.1250036E+03  0.7818608E-02  0.1235064E+00
          4   -1    0    0  501    0  0.00000000000E+00  0.00000000000E+00  0.27872003762E+03  0.27872293101E+03  0.12700000000E+01 0.  1.
         -4   -1    0    0    0  501 -0.00000000000E+00 -0.00000000000E+00 -0.13984020392E+02  0.14041571363E+02  0.12700000000E+01 0.  1.
         25    2    1    2    0    0  0.00000000000E+00  0.00000000000E+00  0.26473601723E+03  0.29276450237E+03  0.12500358008E+03 0.  0.
    9000005    1    3    3    0    0 -0.48110288308E+02  0.46929814890E+01  0.22513354398E+03  0.23026666398E+03  0.10000000000E+01 0.  0.
    9000005    1    3    3    0    0  0.48110288308E+02 -0.46929814890E+01  0.39602473251E+02  0.62497838394E+02  0.10000000000E+01 0.  0.
<mgrwt>
<rscale>  0 0.12500358E+03</rscale>
<asrwt>0</asrwt>
<pdfrwt beam="1">  1        4 0.42884654E-01 0.12500358E+03</pdfrwt>
<pdfrwt beam="2">  1       -4 0.21560374E-02 0.12500358E+03</pdfrwt>
<totfact> 0.76509419E+03</totfact>
</mgrwt>
</event>
<event>
 5    1  0.3321169E-002  0.1249958E+03  0.7818608E-02  0.1235076E+00
         -4   -1    0    0    0  501 -0.00000000000E+00  0.00000000000E+00  0.17532226610E+02  0.17578164577E+02  0.12700000000E+01 0.  1.
          4   -1    0    0  501    0  0.00000000000E+00 -0.00000000000E+00 -0.22244985659E+03  0.22245348187E+03  0.12700000000E+01 0.  1.
         25    2    1    2    0    0  0.00000000000E+00  0.00000000000E+00 -0.20491762998E+03  0.24003164645E+03  0.12499582481E+03 0.  0.
    9000005    1    3    3    0    0 -0.45561665315E+02 -0.28390050761E+02 -0.16388282092E+03  0.17245416586E+03  0.10000000000E+01 0.  0.
    9000005    1    3    3    0    0  0.45561665315E+02  0.28390050761E+02 -0.41034809057E+02  0.67577480589E+02  0.10000000000E+01 0.  0.
<mgrwt>
<rscale>  0 0.12499582E+03</rscale>
<asrwt>0</asrwt>
<pdfrwt beam="2">  1        4 0.34226865E-01 0.12499582E+03</pdfrwt>
<pdfrwt beam="1">  1       -4 0.27010783E-02 0.12499582E+03</pdfrwt>
<totfact> 0.83800455E+03</totfact>
</mgrwt>
</event>
<event>
 5    1  0.3321169E-002  0.1249983E+03  0.7818608E-02  0.1235072E+00
          4   -1    0    0  501    0  0.00000000000E+00  0.00000000000E+00  0.19615359770E+03  0.19615770898E+03  0.12700000000E+01 0. -1.
         -4   -1    0    0    0  501 -0.00000000000E+00 -0.00000000000E+00 -0.19889140775E+02  0.19929646780E+02  0.12700000000E+01 0. -1.
         25    2    1    2    0    0  0.00000000000E+00  0.00000000000E+00  0.17626445693E+03  0.21608735576E+03  0.12499834616E+03 0.  0.
    9000005    1    3    3    0    0  0.10080367646E+02 -0.41867008094E+02  0.98479199461E+01  0.44186442557E+02  0.10000000000E+01 0.  0.
    9000005    1    3    3    0    0 -0.10080367646E+02  0.41867008094E+02  0.16641653698E+03  0.17190091320E+03  0.10000000000E+01 0.  0.
<mgrwt>
<rscale>  0 0.12499835E+03</rscale>
<asrwt>0</asrwt>
<pdfrwt beam="1">  1        4 0.30180909E-01 0.12499835E+03</pdfrwt>
<pdfrwt beam="2">  1       -4 0.30632999E-02 0.12499835E+03</pdfrwt>
<totfact> 0.87494519E+03</totfact>
</mgrwt>
</event>
<event>
 5    1  0.3321169E-002  0.1249922E+03  0.7818608E-02  0.1235082E+00
         -4   -1    0    0    0  501 -0.00000000000E+00  0.00000000000E+00  0.81669375049E+02  0.81679249023E+02  0.12700000000E+01 0.  1.
          4   -1    0    0  501    0  0.00000000000E+00 -0.00000000000E+00 -0.47802860409E+02  0.47819727763E+02  0.12700000000E+01 0.  1.
         25    2    1    2    0    0  0.00000000000E+00  0.00000000000E+00  0.33866514640E+02  0.12949897679E+03  0.12499217645E+03 0.  0.
    9000005    1    3    3    0    0 -0.56931878432E+02  0.17865999409E+02 -0.22918991336E+01  0.59721734053E+02  0.10000000000E+01 0.  0.
    9000005    1    3    3    0    0  0.56931878432E+02 -0.17865999409E+02  0.36158413773E+02  0.69777242732E+02  0.10000000000E+01 0.  0.
<mgrwt>
<rscale>  0 0.12499218E+03</rscale>
<asrwt>0</asrwt>
<pdfrwt beam="2">  1        4 0.73563432E-02 0.12499218E+03</pdfrwt>
<pdfrwt beam="1">  1       -4 0.12566576E-01 0.12499218E+03</pdfrwt>
<totfact> 0.10357066E+04</totfact>
</mgrwt>
</event>
<event>
 5    1  0.3321169E-002  0.1250017E+03  0.7818608E-02  0.1235067E+00
          4   -1    0    0  501    0  0.00000000000E+00  0.00000000000E+00  0.55066609425E+02  0.55081252469E+02  0.12700000000E+01 0. -1.
         -4   -1    0    0    0  501 -0.00000000000E+00 -0.00000000000E+00 -0.70909021128E+02  0.70920393240E+02  0.12700000000E+01 0. -1.
         25    2    1    2    0    0  0.00000000000E+00  0.00000000000E+00 -0.15842411703E+02  0.12600164571E+03  0.12500173084E+03 0.  0.
    9000005    1    3    3    0    0 -0.22088466026E+02 -0.50618421424E+02  0.21557097377E+02  0.59294463200E+02  0.10000000000E+01 0.  0.
    9000005    1    3    3    0    0  0.22088466026E+02  0.50618421424E+02 -0.37399509080E+02  0.66707182509E+02  0.10000000000E+01 0.  0.
<mgrwt>
<rscale>  0 0.12500173E+03</rscale>
<asrwt>0</asrwt>
<pdfrwt beam="1">  1        4 0.84737873E-02 0.12500173E+03</pdfrwt>
<pdfrwt beam="2">  1       -4 0.10911081E-01 0.12500173E+03</pdfrwt>
<totfact> 0.10430513E+04</totfact>
</mgrwt>
</event>
<event>
 5    1  0.3321169E-002  0.1250016E+03  0.7818608E-02  0.1235067E+00
          4   -1    0    0  501    0  0.00000000000E+00  0.00000000000E+00  0.25912781158E+03  0.25913092374E+03  0.12700000000E+01 0. -1.
         -4   -1    0    0    0  501 -0.00000000000E+00 -0.00000000000E+00 -0.15045043290E+02  0.15098550513E+02  0.12700000000E+01 0. -1.
         25    2    1    2    0    0  0.00000000000E+00  0.00000000000E+00  0.24408276829E+03  0.27422947425E+03  0.12500162707E+03 0.  0.
    9000005    1    3    3    0    0 -0.50840709336E+02 -0.35001696242E+02  0.14347514208E+03  0.15619223047E+03  0.10000000000E+01 0.  0.
    9000005    1    3    3    0    0  0.50840709336E+02  0.35001696242E+02  0.10060762622E+03  0.11803724378E+03  0.10000000000E+01 0.  0.
<mgrwt>
<rscale>  0 0.12500163E+03</rscale>
<asrwt>0</asrwt>
<pdfrwt beam="1">  1        4 0.39870171E-01 0.12500163E+03</pdfrwt>
<pdfrwt beam="2">  1       -4 0.23189775E-02 0.12500163E+03</pdfrwt>
<totfact> 0.78946653E+03</totfact>
</mgrwt>
</event>
<event>
 5    1  0.3321169E-002  0.1250010E+03  0.7818608E-02  0.1235068E+00
         -4   -1    0    0    0  501 -0.00000000000E+00  0.00000000000E+00  0.74870435285E+02  0.74881205785E+02  0.12700000000E+01 0.  1.
          4   -1    0    0  501    0  0.00000000000E+00 -0.00000000000E+00 -0.52152063668E+02  0.52167524810E+02  0.12700000000E+01 0.  1.
         25    2    1    2    0    0  0.00000000000E+00  0.00000000000E+00  0.22718371617E+02  0.12704873060E+03  0.12500102214E+03 0.  0.
    9000005    1    3    3    0    0 -0.30884554844E+02  0.48713419588E+02  0.35804395866E+02  0.67895564945E+02  0.10000000000E+01 0.  0.
    9000005    1    3    3    0    0  0.30884554844E+02 -0.48713419588E+02 -0.13086024249E+02  0.59153165650E+02  0.10000000000E+01 0.  0.
<mgrwt>
<rscale>  0 0.12500102E+03</rscale>
<asrwt>0</asrwt>
<pdfrwt beam="2">  1        4 0.80254122E-02 0.12500102E+03</pdfrwt>
<pdfrwt beam="1">  1       -4 0.11520546E-01 0.12500102E+03</pdfrwt>
<totfact> 0.10407847E+04</totfact>
</mgrwt>
</event>
<event>
 5    1  0.3321169E-002  0.1250017E+03  0.7818608E-02  0.1235067E+00
          4   -1    0    0  501    0  0.00000000000E+00  0.00000000000E+00  0.30498465771E+02  0.30524896632E+02  0.12700000000E+01 0.  1.
         -4   -1    0    0    0  501 -0.00000000000E+00 -0.00000000000E+00 -0.12799869746E+03  0.12800499775E+03  0.12700000000E+01 0.  1.
         25    2    1    2    0    0  0.00000000000E+00  0.00000000000E+00 -0.97500231684E+02  0.15852989439E+03  0.12500172893E+03 0.  0.
    9000005    1    3    3    0    0 -0.45519861843E+02  0.20535731264E+02 -0.11016951401E+01  0.49959862019E+02  0.10000000000E+01 0.  0.
    9000005    1    3    3    0    0  0.45519861843E+02 -0.20535731264E+02 -0.96398536544E+02  0.10857003237E+03  0.10000000000E+01 0.  0.
<mgrwt>
<rscale>  0 0.12500173E+03</rscale>
<asrwt>0</asrwt>
<pdfrwt beam="1">  1        4 0.46945895E-02 0.12500173E+03</pdfrwt>
<pdfrwt beam="2">  1       -4 0.19694625E-01 0.12500173E+03</pdfrwt>
<totfact> 0.97623166E+03</totfact>
</mgrwt>
</event>
<event>
 5    1  0.3321169E-002  0.1249994E+03  0.7818608E-02  0.1235070E+00
          4   -1    0    0  501    0  0.00000000000E+00  0.00000000000E+00  0.88099176198E+02  0.88108329611E+02  0.12700000000E+01 0. -1.
         -4   -1    0    0    0  501 -0.00000000000E+00 -0.00000000000E+00 -0.44318242898E+02  0.44336435960E+02  0.12700000000E+01 0. -1.
         25    2    1    2    0    0  0.00000000000E+00  0.00000000000E+00  0.43780933300E+02  0.13244476557E+03  0.12499938322E+03 0.  0.
    9000005    1    3    3    0    0 -0.43317875895E+02  0.45041662866E+02  0.21734434294E+02  0.66170804740E+02  0.10000000000E+01 0.  0.
    9000005    1    3    3    0    0  0.43317875895E+02 -0.45041662866E+02  0.22046499005E+02  0.66273960831E+02  0.10000000000E+01 0.  0.
<mgrwt>
<rscale>  0 0.12499938E+03</rscale>
<asrwt>0</asrwt>
<pdfrwt beam="1">  1        4 0.13555823E-01 0.12499938E+03</pdfrwt>
<pdfrwt beam="2">  1       -4 0.68202948E-02 0.12499938E+03</pdfrwt>
<totfact> 0.10292358E+04</totfact>
</mgrwt>
</event>
<event>
 5    1  0.3321169E-002  0.1250025E+03  0.7818608E-02  0.1235065E+00
         -4   -1    0    0    0  501 -0.00000000000E+00  0.00000000000E+00  0.22368423451E+03  0.22368783978E+03  0.12700000000E+01 0.  1.
          4   -1    0    0  501    0  0.00000000000E+00 -0.00000000000E+00 -0.17437081048E+02  0.17483269015E+02  0.12700000000E+01 0.  1.
         25    2    1    2    0    0  0.00000000000E+00  0.00000000000E+00  0.20624715346E+03  0.24117110880E+03  0.12500246161E+03 0.  0.
    9000005    1    3    3    0    0  0.37792013059E+02  0.40492393347E+02  0.15895874836E+03  0.16833524245E+03  0.10000000000E+01 0.  0.
    9000005    1    3    3    0    0 -0.37792013059E+02 -0.40492393347E+02  0.47288405098E+02  0.72835866349E+02  0.10000000000E+01 0.  0.
<mgrwt>
<rscale>  0 0.12500246E+03</rscale>
<asrwt>0</asrwt>
<pdfrwt beam="2">  1        4 0.26864580E-02 0.12500246E+03</pdfrwt>
<pdfrwt beam="1">  1       -4 0.34416791E-01 0.12500246E+03</pdfrwt>
<totfact> 0.83618670E+03</totfact>
</mgrwt>
</event>
<event>
 5    1  0.3321169E-002  0.1249994E+03  0.7818608E-02  0.1235070E+00
          4   -1    0    0  501    0  0.00000000000E+00  0.00000000000E+00  0.58465660473E+01  0.59829118785E+01  0.12700000000E+01 0.  1.
         -4   -1    0    0    0  501 -0.00000000000E+00 -0.00000000000E+00 -0.66028345830E+03  0.66028467966E+03  0.12700000000E+01 0.  1.
         25    2    1    2    0    0  0.00000000000E+00  0.00000000000E+00 -0.65443689225E+03  0.66626759154E+03  0.12499943041E+03 0.  0.
    9000005    1    3    3    0    0 -0.51089596831E+02  0.35509632028E+02 -0.29607753923E+03  0.30254584795E+03  0.10000000000E+01 0.  0.
    9000005    1    3    3    0    0  0.51089596831E+02 -0.35509632028E+02 -0.35835935301E+03  0.36372174359E+03  0.10000000000E+01 0.  0.
<mgrwt>
<rscale>  0 0.12499943E+03</rscale>
<asrwt>0</asrwt>
<pdfrwt beam="1">  1        4 0.91005432E-03 0.12499943E+03</pdfrwt>
<pdfrwt beam="2">  1       -4 0.10159259E+00 0.12499943E+03</pdfrwt>
<totfact> 0.44928728E+03</totfact>
</mgrwt>
</event>
<event>
 5    1  0.3321169E-002  0.1250000E+03  0.7818608E-02  0.1235069E+00
         -4   -1    0    0    0  501 -0.00000000000E+00  0.00000000000E+00  0.11771891238E+03  0.11772576282E+03  0.12700000000E+01 0. -1.
          4   -1    0    0  501    0  0.00000000000E+00 -0.00000000000E+00 -0.33162888568E+02  0.33187197504E+02  0.12700000000E+01 0. -1.
         25    2    1    2    0    0  0.00000000000E+00  0.00000000000E+00  0.84556023811E+02  0.15091296032E+03  0.12500000172E+03 0.  0.
    9000005    1    3    3    0    0  0.35671905949E+00  0.27070653283E+02 -0.25721191058E+02  0.37356755576E+02  0.10000000000E+01 0.  0.
    9000005    1    3    3    0    0 -0.35671905949E+00 -0.27070653283E+02  0.11027721487E+03  0.11355620475E+03  0.10000000000E+01 0.  0.
<mgrwt>
<rscale>  0 0.12500000E+03</rscale>
<asrwt>0</asrwt>
<pdfrwt beam="2">  1        4 0.51043798E-02 0.12500000E+03</pdfrwt>
<pdfrwt beam="1">  1       -4 0.18112999E-01 0.12500000E+03</pdfrwt>
<totfact> 0.99122020E+03</totfact>
</mgrwt>
</event>
<event>
 5    1  0.3321169E-002  0.1250017E+03  0.7818608E-02  0.1235067E+00
         -4   -1    0    0    0  501 -0.00000000000E+00  0.00000000000E+00  0.18523891541E+03  0.18524326893E+03  0.12700000000E+01 0.  1.
          4   -1    0    0  501    0  0.00000000000E+00 -0.00000000000E+00 -0.21064482902E+02  0.21102732997E+02  0.12700000000E+01 0.  1.
         25    2    1    2    0    0  0.00000000000E+00  0.00000000000E+00  0.16417443251E+03  0.20634600192E+03  0.12500171287E+03 0.  0.
    9000005    1    3    3    0    0  0.30734053831E+02 -0.25172415549E+01  0.17181306403E+03  0.17456130024E+03  0.10000000000E+01 0.  0.
    9000005    1    3    3    0    0 -0.30734053831E+02  0.25172415549E+01 -0.76386315169E+01  0.31784701688E+02  0.10000000000E+01 0.  0.
<mgrwt>
<rscale>  0 0.12500171E+03</rscale>
<asrwt>0</asrwt>
<pdfrwt beam="2">  1        4 0.32439668E-02 0.12500171E+03</pdfrwt>
<pdfrwt beam="1">  1       -4 0.28501572E-01 0.12500171E+03</pdfrwt>
<totfact> 0.89072712E+03</totfact>
</mgrwt>
</event>
<event>
 5    1  0.3321169E-002  0.1250001E+03  0.7818608E-02  0.1235069E+00
          4   -1    0    0  501    0  0.00000000000E+00  0.00000000000E+00  0.28134710543E+02  0.28163359837E+02  0.12700000000E+01 0.  1.
         -4   -1    0    0    0  501 -0.00000000000E+00 -0.00000000000E+00 -0.13873901489E+03  0.13874482748E+03  0.12700000000E+01 0.  1.
         25    2    1    2    0    0  0.00000000000E+00  0.00000000000E+00 -0.11060430434E+03  0.16690818731E+03  0.12500012341E+03 0.  0.
    9000005    1    3    3    0    0 -0.29525560570E+02 -0.26785231657E+02 -0.11956222260E+03  0.12603702803E+03  0.10000000000E+01 0.  0.
    9000005    1    3    3    0    0  0.29525560570E+02  0.26785231657E+02  0.89579182533E+01  0.40871159286E+02  0.10000000000E+01 0.  0.
<mgrwt>
<rscale>  0 0.12500012E+03</rscale>
<asrwt>0</asrwt>
<pdfrwt beam="1">  1        4 0.43310680E-02 0.12500012E+03</pdfrwt>
<pdfrwt beam="2">  1       -4 0.21347114E-01 0.12500012E+03</pdfrwt>
<totfact> 0.96026962E+03</totfact>
</mgrwt>
</event>
<event>
 5    1  0.3321169E-002  0.1249985E+03  0.7818608E-02  0.1235072E+00
          4   -1    0    0  501    0  0.00000000000E+00  0.00000000000E+00  0.81097027136E+03  0.81097126578E+03  0.12700000000E+01 0.  1.
         -4   -1    0    0    0  501 -0.00000000000E+00 -0.00000000000E+00 -0.47319176201E+01  0.48993820389E+01  0.12700000000E+01 0.  1.
         25    2    1    2    0    0  0.00000000000E+00  0.00000000000E+00  0.80623835374E+03  0.81587064782E+03  0.12499852375E+03 0.  0.
    9000005    1    3    3    0    0  0.48611919944E+02 -0.39187263233E+02  0.38661030797E+03  0.39162136126E+03  0.10000000000E+01 0.  0.
    9000005    1    3    3    0    0 -0.48611919944E+02  0.39187263233E+02  0.41962804577E+03  0.42424928657E+03  0.10000000000E+01 0.  0.
<mgrwt>
<rscale>  0 0.12499852E+03</rscale>
<asrwt>0</asrwt>
<pdfrwt beam="1">  1        4 0.12477768E+00 0.12499852E+03</pdfrwt>
<pdfrwt beam="2">  1       -4 0.74094533E-03 0.12499852E+03</pdfrwt>
<totfact> 0.37567160E+03</totfact>
</mgrwt>
</event>
<event>
 5    1  0.3321169E-002  0.1250005E+03  0.7818608E-02  0.1235068E+00
          4   -1    0    0  501    0  0.00000000000E+00  0.00000000000E+00  0.51392692191E+03  0.51392849110E+03  0.12700000000E+01 0.  1.
         -4   -1    0    0    0  501 -0.00000000000E+00 -0.00000000000E+00 -0.75462088382E+01  0.76523308756E+01  0.12700000000E+01 0.  1.
         25    2    1    2    0    0  0.00000000000E+00  0.00000000000E+00  0.50638071307E+03  0.52158082197E+03  0.12500050912E+03 0.  0.
    9000005    1    3    3    0    0 -0.25133801941E+02 -0.36758274728E+02  0.43614020622E+03  0.43840866580E+03  0.10000000000E+01 0.  0.
    9000005    1    3    3    0    0  0.25133801941E+02  0.36758274728E+02  0.70240506847E+02  0.83172156177E+02  0.10000000000E+01 0.  0.
<mgrwt>
<rscale>  0 0.12500051E+03</rscale>
<asrwt>0</asrwt>
<pdfrwt beam="1">  1        4 0.79073980E-01 0.12500051E+03</pdfrwt>
<pdfrwt beam="2">  1       -4 0.11692389E-02 0.12500051E+03</pdfrwt>
<totfact> 0.54227378E+03</totfact>
</mgrwt>
</event>
<event>
 5    1  0.3321169E-002  0.1250061E+03  0.7818608E-02  0.1235060E+00
         -4   -1    0    0    0  501 -0.00000000000E+00  0.00000000000E+00  0.13340605032E+02  0.13400919469E+02  0.12700000000E+01 0. -1.
          4   -1    0    0  501    0  0.00000000000E+00 -0.00000000000E+00 -0.29211563912E+03  0.29211839982E+03  0.12700000000E+01 0. -1.
         25    2    1    2    0    0  0.00000000000E+00  0.00000000000E+00 -0.27877503408E+03  0.30551931929E+03  0.12500613918E+03 0.  0.
    9000005    1    3    3    0    0  0.39689059692E+02  0.23181021754E+02 -0.24287881552E+03  0.24719162659E+03  0.10000000000E+01 0.  0.
    9000005    1    3    3    0    0 -0.39689059692E+02 -0.23181021754E+02 -0.35896218568E+02  0.58327692704E+02  0.10000000000E+01 0.  0.
<mgrwt>
<rscale>  0 0.12500614E+03</rscale>
<asrwt>0</asrwt>
<pdfrwt beam="2">  1        4 0.44945715E-01 0.12500614E+03</pdfrwt>
<pdfrwt beam="1">  1       -4 0.20572529E-02 0.12500614E+03</pdfrwt>
<totfact> 0.74901478E+03</totfact>
</mgrwt>
</event>
<event>
 5    1  0.3321169E-002  0.1250005E+03  0.7818608E-02  0.1235069E+00
         -4   -1    0    0    0  501 -0.00000000000E+00  0.00000000000E+00  0.13562703586E+03  0.13563298182E+03  0.12700000000E+01 0. -1.
          4   -1    0    0  501    0  0.00000000000E+00 -0.00000000000E+00 -0.28781053518E+02  0.28809060061E+02  0.12700000000E+01 0. -1.
         25    2    1    2    0    0  0.00000000000E+00  0.00000000000E+00  0.10684598234E+03  0.16444204188E+03  0.12500048477E+03 0.  0.
    9000005    1    3    3    0    0 -0.37648751169E+02  0.49875134574E+02  0.52675582920E+02  0.81735393492E+02  0.10000000000E+01 0.  0.
    9000005    1    3    3    0    0  0.37648751169E+02 -0.49875134574E+02  0.54170399424E+02  0.82706648385E+02  0.10000000000E+01 0.  0.
<mgrwt>
<rscale>  0 0.12500048E+03</rscale>
<asrwt>0</asrwt>
<pdfrwt beam="2">  1        4 0.44304661E-02 0.12500048E+03</pdfrwt>
<pdfrwt beam="1">  1       -4 0.20868309E-01 0.12500048E+03</pdfrwt>
<totfact> 0.96492114E+03</totfact>
</mgrwt>
</event>
<event>
 5    1  0.3321169E-002  0.1249978E+03  0.7818608E-02  0.1235073E+00
          4   -1    0    0  501    0  0.00000000000E+00  0.00000000000E+00  0.16453671333E+03  0.16454161460E+03  0.12700000000E+01 0.  1.
         -4   -1    0    0    0  501 -0.00000000000E+00 -0.00000000000E+00 -0.23717829344E+02  0.23751806854E+02  0.12700000000E+01 0.  1.
         25    2    1    2    0    0  0.00000000000E+00  0.00000000000E+00  0.14081888399E+03  0.18829342145E+03  0.12499781788E+03 0.  0.
    9000005    1    3    3    0    0  0.27898062853E+02  0.81570850236E+01  0.15374164218E+03  0.15646831145E+03  0.10000000000E+01 0.  0.
    9000005    1    3    3    0    0 -0.27898062853E+02 -0.81570850236E+01 -0.12922758196E+02  0.31825109999E+02  0.10000000000E+01 0.  0.
<mgrwt>
<rscale>  0 0.12499782E+03</rscale>
<asrwt>0</asrwt>
<pdfrwt beam="1">  1        4 0.25316331E-01 0.12499782E+03</pdfrwt>
<pdfrwt beam="2">  1       -4 0.36518875E-02 0.12499782E+03</pdfrwt>
<totfact> 0.92149609E+03</totfact>
</mgrwt>
</event>
<event>
 5    1  0.3321169E-002  0.1250010E+03  0.7818608E-02  0.1235068E+00
          4   -1    0    0  501    0  0.00000000000E+00  0.00000000000E+00  0.14159921663E+02  0.14216760584E+02  0.12700000000E+01 0. -1.
         -4   -1    0    0    0  501 -0.00000000000E+00 -0.00000000000E+00 -0.27525997366E+03  0.27526290343E+03  0.12700000000E+01 0. -1.
         25    2    1    2    0    0  0.00000000000E+00  0.00000000000E+00 -0.26110005200E+03  0.28947966401E+03  0.12500095487E+03 0.  0.
    9000005    1    3    3    0    0 -0.53008701459E+02 -0.27144489653E+02 -0.86698164931E+02  0.10518705981E+03  0.10000000000E+01 0.  0.
    9000005    1    3    3    0    0  0.53008701459E+02  0.27144489653E+02 -0.17440188707E+03  0.18429260420E+03  0.10000000000E+01 0.  0.
<mgrwt>
<rscale>  0 0.12500095E+03</rscale>
<asrwt>0</asrwt>
<pdfrwt beam="1">  1        4 0.21830473E-02 0.12500095E+03</pdfrwt>
<pdfrwt beam="2">  1       -4 0.42352282E-01 0.12500095E+03</pdfrwt>
<totfact> 0.76936099E+03</totfact>
</mgrwt>
</event>
<event>
 5    1  0.3321169E-002  0.1249998E+03  0.7818608E-02  0.1235070E+00
          4   -1    0    0  501    0  0.00000000000E+00  0.00000000000E+00  0.11268475334E+02  0.11339816416E+02  0.12700000000E+01 0. -1.
         -4   -1    0    0    0  501 -0.00000000000E+00 -0.00000000000E+00 -0.34548531027E+03  0.34548764452E+03  0.12700000000E+01 0. -1.
         25    2    1    2    0    0  0.00000000000E+00  0.00000000000E+00 -0.33421683494E+03  0.35682746093E+03  0.12499977648E+03 0.  0.
    9000005    1    3    3    0    0  0.37556880983E+02  0.19718762081E+02 -0.36109839946E+02  0.55715971032E+02  0.10000000000E+01 0.  0.
    9000005    1    3    3    0    0 -0.37556880983E+02 -0.19718762081E+02 -0.29810699499E+03  0.30111148990E+03  0.10000000000E+01 0.  0.
<mgrwt>
<rscale>  0 0.12499978E+03</rscale>
<asrwt>0</asrwt>
<pdfrwt beam="1">  1        4 0.17392792E-02 0.12499978E+03</pdfrwt>
<pdfrwt beam="2">  1       -4 0.53157246E-01 0.12499978E+03</pdfrwt>
<totfact> 0.68980270E+03</totfact>
</mgrwt>
</event>
<event>
 5    1  0.3321169E-002  0.1250062E+03  0.7818608E-02  0.1235060E+00
          4   -1    0    0  501    0  0.00000000000E+00  0.00000000000E+00  0.28350854842E+02  0.28379285936E+02  0.12700000000E+01 0. -1.
         -4   -1    0    0    0  501 -0.00000000000E+00 -0.00000000000E+00 -0.13769566267E+03  0.13770151931E+03  0.12700000000E+01 0. -1.
         25    2    1    2    0    0  0.00000000000E+00  0.00000000000E+00 -0.10934480783E+03  0.16608080524E+03  0.12500618733E+03 0.  0.
    9000005    1    3    3    0    0  0.88832021767E+01 -0.32578443884E+02  0.15193388596E+02  0.37041940336E+02  0.10000000000E+01 0.  0.
    9000005    1    3    3    0    0 -0.88832021767E+01  0.32578443884E+02 -0.12453819643E+03  0.12903886491E+03  0.10000000000E+01 0.  0.
<mgrwt>
<rscale>  0 0.12500619E+03</rscale>
<asrwt>0</asrwt>
<pdfrwt beam="1">  1        4 0.43643076E-02 0.12500619E+03</pdfrwt>
<pdfrwt beam="2">  1       -4 0.21186585E-01 0.12500619E+03</pdfrwt>
<totfact> 0.96169730E+03</totfact>
</mgrwt>
</event>
<event>
 5    1  0.3321169E-002  0.1249930E+03  0.7818608E-02  0.1235080E+00
         -4   -1    0    0    0  501 -0.00000000000E+00  0.00000000000E+00  0.30357286039E+02  0.30383839712E+02  0.12700000000E+01 0.  1.
          4   -1    0    0  501    0  0.00000000000E+00 -0.00000000000E+00 -0.12857541931E+03  0.12858169135E+03  0.12700000000E+01 0.  1.
         25    2    1    2    0    0  0.00000000000E+00  0.00000000000E+00 -0.98218133270E+02  0.15896553106E+03  0.12499295325E+03 0.  0.
    9000005    1    3    3    0    0  0.55165105827E+01  0.37049683003E+02 -0.11272046409E+03  0.11878557961E+03  0.10000000000E+01 0.  0.
    9000005    1    3    3    0    0 -0.55165105827E+01 -0.37049683003E+02  0.14502330816E+02  0.40179951452E+02  0.10000000000E+01 0.  0.
<mgrwt>
<rscale>  0 0.12499295E+03</rscale>
<asrwt>0</asrwt>
<pdfrwt beam="2">  1        4 0.19783358E-01 0.12499295E+03</pdfrwt>
<pdfrwt beam="1">  1       -4 0.46728768E-02 0.12499295E+03</pdfrwt>
<totfact> 0.97558047E+03</totfact>
</mgrwt>
</event>
<event>
 5    1  0.3321169E-002  0.1250017E+03  0.7818608E-02  0.1235067E+00
          4   -1    0    0  501    0  0.00000000000E+00  0.00000000000E+00  0.84389473480E+02  0.84399029225E+02  0.12700000000E+01 0. -1.
         -4   -1    0    0    0  501 -0.00000000000E+00 -0.00000000000E+00 -0.46268745977E+02  0.46286172388E+02  0.12700000000E+01 0. -1.
         25    2    1    2    0    0  0.00000000000E+00  0.00000000000E+00  0.38120727502E+02  0.13068520161E+03  0.12500172821E+03 0.  0.
    9000005    1    3    3    0    0 -0.14712100114E+02  0.35589396396E+02 -0.32394328598E+02  0.50333324457E+02  0.10000000000E+01 0.  0.
    9000005    1    3    3    0    0  0.14712100114E+02 -0.35589396396E+02  0.70515056100E+02  0.80351877156E+02  0.10000000000E+01 0.  0.
<mgrwt>
<rscale>  0 0.12500173E+03</rscale>
<asrwt>0</asrwt>
<pdfrwt beam="1">  1        4 0.12985071E-01 0.12500173E+03</pdfrwt>
<pdfrwt beam="2">  1       -4 0.71203442E-02 0.12500173E+03</pdfrwt>
<totfact> 0.10329440E+04</totfact>
</mgrwt>
</event>
<event>
 5    1  0.3321169E-002  0.1249988E+03  0.7818608E-02  0.1235071E+00
         -4   -1    0    0    0  501 -0.00000000000E+00  0.00000000000E+00  0.10003212272E+03  0.10004018431E+03  0.12700000000E+01 0. -1.
          4   -1    0    0  501    0  0.00000000000E+00 -0.00000000000E+00 -0.39029233551E+02  0.39049890801E+02  0.12700000000E+01 0. -1.
         25    2    1    2    0    0  0.00000000000E+00  0.00000000000E+00  0.61002889174E+02  0.13909007511E+03  0.12499878602E+03 0.  0.
    9000005    1    3    3    0    0  0.17935203713E+02  0.33192820359E+02  0.85934449692E+02  0.93857149432E+02  0.10000000000E+01 0.  0.
    9000005    1    3    3    0    0 -0.17935203713E+02 -0.33192820359E+02 -0.24931560519E+02  0.45232925679E+02  0.10000000000E+01 0.  0.
<mgrwt>
<rscale>  0 0.12499879E+03</rscale>
<asrwt>0</asrwt>
<pdfrwt beam="2">  1        4 0.60067067E-02 0.12499879E+03</pdfrwt>
<pdfrwt beam="1">  1       -4 0.15391766E-01 0.12499879E+03</pdfrwt>
<totfact> 0.10152757E+04</totfact>
</mgrwt>
</event>
<event>
 5    1  0.3321169E-002  0.1249963E+03  0.7818608E-02  0.1235075E+00
         -4   -1    0    0    0  501 -0.00000000000E+00  0.00000000000E+00  0.82607670062E+03  0.82607767686E+03  0.12700000000E+01 0. -1.
          4   -1    0    0  501    0  0.00000000000E+00 -0.00000000000E+00 -0.46421204966E+01  0.48127105362E+01  0.12700000000E+01 0. -1.
         25    2    1    2    0    0  0.00000000000E+00  0.00000000000E+00  0.82143458012E+03  0.83089038739E+03  0.12499626573E+03 0.  0.
    9000005    1    3    3    0    0  0.34248118359E+02 -0.39173148319E+02  0.64075183564E+03  0.64286187011E+03  0.10000000000E+01 0.  0.
    9000005    1    3    3    0    0 -0.34248118359E+02  0.39173148319E+02  0.18068274448E+03  0.18802851729E+03  0.10000000000E+01 0.  0.
<mgrwt>
<rscale>  0 0.12499627E+03</rscale>
<asrwt>0</asrwt>
<pdfrwt beam="2">  1        4 0.72736974E-03 0.12499627E+03</pdfrwt>
<pdfrwt beam="1">  1       -4 0.12710193E+00 0.12499627E+03</pdfrwt>
<totfact> 0.36925323E+03</totfact>
</mgrwt>
</event>
<event>
 5    1  0.3321169E-002  0.1249979E+03  0.7818608E-02  0.1235073E+00
         -4   -1    0    0    0  501 -0.00000000000E+00  0.00000000000E+00  0.11662817553E+02  0.11731760877E+02  0.12700000000E+01 0.  1.
          4   -1    0    0  501    0  0.00000000000E+00 -0.00000000000E+00 -0.33386355283E+03  0.33386596833E+03  0.12700000000E+01 0.  1.
         25    2    1    2    0    0  0.00000000000E+00  0.00000000000E+00 -0.32220073528E+03  0.34559772921E+03  0.12499790646E+03 0.  0.
    9000005    1    3    3    0    0  0.47496999840E+02 -0.94221756906E+01 -0.27031551562E+03  0.27462013833E+03  0.10000000000E+01 0.  0.
    9000005    1    3    3    0    0 -0.47496999840E+02  0.94221756906E+01 -0.51885219659E+02  0.70977590883E+02  0.10000000000E+01 0.  0.
<mgrwt>
<rscale>  0 0.12499791E+03</rscale>
<asrwt>0</asrwt>
<pdfrwt beam="2">  1        4 0.51369105E-01 0.12499791E+03</pdfrwt>
<pdfrwt beam="1">  1       -4 0.17997690E-02 0.12499791E+03</pdfrwt>
<totfact> 0.70214847E+03</totfact>
</mgrwt>
</event>
<event>
 5    1  0.3321169E-002  0.1250045E+03  0.7818608E-02  0.1235062E+00
         -4   -1    0    0    0  501 -0.00000000000E+00  0.00000000000E+00  0.15639771661E+04  0.15639776818E+04  0.12700000000E+01 0.  1.
          4   -1    0    0  501    0  0.00000000000E+00 -0.00000000000E+00 -0.23358391819E+01  0.26587675122E+01  0.12700000000E+01 0.  1.
         25    2    1    2    0    0  0.00000000000E+00  0.00000000000E+00  0.15616413270E+04  0.15666364493E+04  0.12500452067E+03 0.  0.
    9000005    1    3    3    0    0  0.69425312087E+01 -0.62090072779E+02  0.79922560119E+03  0.80166447936E+03  0.10000000000E+01 0.  0.
    9000005    1    3    3    0    0 -0.69425312087E+01  0.62090072779E+02  0.76241572577E+03  0.76497196993E+03  0.10000000000E+01 0.  0.
<mgrwt>
<rscale>  0 0.12500452E+03</rscale>
<asrwt>0</asrwt>
<pdfrwt beam="2">  1        4 0.38424016E-03 0.12500452E+03</pdfrwt>
<pdfrwt beam="1">  1       -4 0.24063676E+00 0.12500452E+03</pdfrwt>
<totfact> 0.16655453E+03</totfact>
</mgrwt>
</event>
<event>
 5    1  0.3321169E-002  0.1250012E+03  0.7818608E-02  0.1235067E+00
         -4   -1    0    0    0  501 -0.00000000000E+00  0.00000000000E+00  0.68279513135E+02  0.68291323124E+02  0.12700000000E+01 0. -1.
          4   -1    0    0  501    0  0.00000000000E+00 -0.00000000000E+00 -0.57187011359E+02  0.57201111599E+02  0.12700000000E+01 0. -1.
         25    2    1    2    0    0  0.00000000000E+00  0.00000000000E+00  0.11092501776E+02  0.12549243472E+03  0.12500123030E+03 0.  0.
    9000005    1    3    3    0    0 -0.60042285728E+02 -0.55159209286E+00  0.22933272909E+02  0.64283087477E+02  0.10000000000E+01 0.  0.
    9000005    1    3    3    0    0  0.60042285728E+02  0.55159209286E+00 -0.11840771132E+02  0.61209347246E+02  0.10000000000E+01 0.  0.
<mgrwt>
<rscale>  0 0.12500123E+03</rscale>
<asrwt>0</asrwt>
<pdfrwt beam="2">  1        4 0.87999949E-02 0.12500123E+03</pdfrwt>
<pdfrwt beam="1">  1       -4 0.10506534E-01 0.12500123E+03</pdfrwt>
<totfact> 0.10441832E+04</totfact>
</mgrwt>
</event>
<event>
 5    1  0.3321169E-002  0.1250014E+03  0.7818608E-02  0.1235067E+00
         -4   -1    0    0    0  501 -0.00000000000E+00  0.00000000000E+00  0.17596123608E+04  0.17596128191E+04  0.12700000000E+01 0.  1.
          4   -1    0    0  501    0  0.00000000000E+00 -0.00000000000E+00 -0.20378700335E+01  0.24012110014E+01  0.12700000000E+01 0.  1.
         25    2    1    2    0    0  0.00000000000E+00  0.00000000000E+00  0.17575744908E+04  0.17620140301E+04  0.12500140687E+03 0.  0.
    9000005    1    3    3    0    0  0.12062632823E+02 -0.15028163669E+02  0.17167540587E+04  0.17168625020E+04  0.10000000000E+01 0.  0.
    9000005    1    3    3    0    0 -0.12062632823E+02  0.15028163669E+02  0.40820432042E+02  0.45151528058E+02  0.10000000000E+01 0.  0.
<mgrwt>
<rscale>  0 0.12500141E+03</rscale>
<asrwt>0</asrwt>
<pdfrwt beam="2">  1        4 0.34150189E-03 0.12500141E+03</pdfrwt>
<pdfrwt beam="1">  1       -4 0.27073848E+00 0.12500141E+03</pdfrwt>
<totfact> 0.13297400E+03</totfact>
</mgrwt>
</event>
<event>
 5    1  0.3321169E-002  0.1249992E+03  0.7818608E-02  0.1235071E+00
          4   -1    0    0  501    0  0.00000000000E+00  0.00000000000E+00  0.58915307340E+02  0.58928994043E+02  0.12700000000E+01 0. -1.
         -4   -1    0    0    0  501 -0.00000000000E+00 -0.00000000000E+00 -0.66274452794E+02  0.66286620016E+02  0.12700000000E+01 0. -1.
         25    2    1    2    0    0  0.00000000000E+00  0.00000000000E+00 -0.73591454541E+01  0.12521561406E+03  0.12499917193E+03 0.  0.
    9000005    1    3    3    0    0  0.58574681193E+01 -0.31213457437E+02  0.50233768001E+02  0.59439223628E+02  0.10000000000E+01 0.  0.
    9000005    1    3    3    0    0 -0.58574681193E+01  0.31213457437E+02 -0.57592913455E+02  0.65776390431E+02  0.10000000000E+01 0.  0.
<mgrwt>
<rscale>  0 0.12499917E+03</rscale>
<asrwt>0</asrwt>
<pdfrwt beam="1">  1        4 0.90658822E-02 0.12499917E+03</pdfrwt>
<pdfrwt beam="2">  1       -4 0.10198058E-01 0.12499917E+03</pdfrwt>
<totfact> 0.10448377E+04</totfact>
</mgrwt>
</event>
<event>
 5    1  0.3321169E-002  0.1249942E+03  0.7818608E-02  0.1235078E+00
          4   -1    0    0  501    0  0.00000000000E+00  0.00000000000E+00  0.76707169347E+02  0.76717681985E+02  0.12700000000E+01 0. -1.
         -4   -1    0    0    0  501 -0.00000000000E+00 -0.00000000000E+00 -0.50897553530E+02  0.50913395638E+02  0.12700000000E+01 0. -1.
         25    2    1    2    0    0  0.00000000000E+00  0.00000000000E+00  0.25809615816E+02  0.12763107762E+03  0.12499422269E+03 0.  0.
    9000005    1    3    3    0    0 -0.19291311778E+02 -0.34943243179E+02  0.61999281266E+02  0.73743446024E+02  0.10000000000E+01 0.  0.
    9000005    1    3    3    0    0  0.19291311778E+02  0.34943243179E+02 -0.36189665450E+02  0.53887631599E+02  0.10000000000E+01 0.  0.
<mgrwt>
<rscale>  0 0.12499422E+03</rscale>
<asrwt>0</asrwt>
<pdfrwt beam="1">  1        4 0.11803130E-01 0.12499422E+03</pdfrwt>
<pdfrwt beam="2">  1       -4 0.78324202E-02 0.12499422E+03</pdfrwt>
<totfact> 0.10396819E+04</totfact>
</mgrwt>
</event>
<event>
 5    1  0.3321169E-002  0.1250003E+03  0.7818608E-02  0.1235069E+00
          4   -1    0    0  501    0  0.00000000000E+00  0.00000000000E+00  0.13839096232E+03  0.13839678953E+03  0.12700000000E+01 0. -1.
         -4   -1    0    0    0  501 -0.00000000000E+00 -0.00000000000E+00 -0.28205608848E+02  0.28234186201E+02  0.12700000000E+01 0. -1.
         25    2    1    2    0    0  0.00000000000E+00  0.00000000000E+00  0.11018535348E+03  0.16663097573E+03  0.12500027981E+03 0.  0.
    9000005    1    3    3    0    0  0.85344878320E+01 -0.73205358365E+01  0.13703796558E+03  0.13750211540E+03  0.10000000000E+01 0.  0.
    9000005    1    3    3    0    0 -0.85344878320E+01  0.73205358365E+01 -0.26852612108E+02  0.29128860336E+02  0.10000000000E+01 0.  0.
<mgrwt>
<rscale>  0 0.12500028E+03</rscale>
<asrwt>0</asrwt>
<pdfrwt beam="1">  1        4 0.21293563E-01 0.12500028E+03</pdfrwt>
<pdfrwt beam="2">  1       -4 0.43419710E-02 0.12500028E+03</pdfrwt>
<totfact> 0.96078797E+03</totfact>
</mgrwt>
</event>
<event>
 5    1  0.3321169E-002  0.1249983E+03  0.7818608E-02  0.1235072E+00
         -4   -1    0    0    0  501 -0.00000000000E+00  0.00000000000E+00  0.34229032804E+03  0.34229268407E+03  0.12700000000E+01 0. -1.
          4   -1    0    0  501    0  0.00000000000E+00 -0.00000000000E+00 -0.11374049951E+02  0.11444732950E+02  0.12700000000E+01 0. -1.
         25    2    1    2    0    0  0.00000000000E+00  0.00000000000E+00  0.33091627808E+03  0.35373741702E+03  0.12499830838E+03 0.  0.
    9000005    1    3    3    0    0  0.17468008914E+01  0.46680374072E+02  0.28292733459E+03  0.28675945546E+03  0.10000000000E+01 0.  0.
    9000005    1    3    3    0    0 -0.17468008914E+01 -0.46680374072E+02  0.47988943494E+02  0.66977961559E+02  0.10000000000E+01 0.  0.
<mgrwt>
<rscale>  0 0.12499831E+03</rscale>
<asrwt>0</asrwt>
<pdfrwt beam="2">  1        4 0.17554722E-02 0.12499831E+03</pdfrwt>
<pdfrwt beam="1">  1       -4 0.52665670E-01 0.12499831E+03</pdfrwt>
<totfact> 0.69317934E+03</totfact>
</mgrwt>
</event>
<event>
 5    1  0.3321169E-002  0.1250002E+03  0.7818608E-02  0.1235069E+00
         -4   -1    0    0    0  501 -0.00000000000E+00  0.00000000000E+00  0.18602395399E+03  0.18602828913E+03  0.12700000000E+01 0.  1.
          4   -1    0    0  501    0  0.00000000000E+00 -0.00000000000E+00 -0.20974920292E+02  0.21013333416E+02  0.12700000000E+01 0.  1.
         25    2    1    2    0    0  0.00000000000E+00  0.00000000000E+00  0.16504903370E+03  0.20704162255E+03  0.12500019977E+03 0.  0.
    9000005    1    3    3    0    0  0.32566536650E+02 -0.37888309501E+02  0.14470111865E+03  0.15308663248E+03  0.10000000000E+01 0.  0.
    9000005    1    3    3    0    0 -0.32566536650E+02  0.37888309501E+02  0.20347915047E+02  0.53954990066E+02  0.10000000000E+01 0.  0.
<mgrwt>
<rscale>  0 0.12500020E+03</rscale>
<asrwt>0</asrwt>
<pdfrwt beam="2">  1        4 0.32301993E-02 0.12500020E+03</pdfrwt>
<pdfrwt beam="1">  1       -4 0.28622357E-01 0.12500020E+03</pdfrwt>
<totfact> 0.88960917E+03</totfact>
</mgrwt>
</event>
<event>
 5    1  0.3321169E-002  0.1249981E+03  0.7818608E-02  0.1235072E+00
          4   -1    0    0  501    0  0.00000000000E+00  0.00000000000E+00  0.89029633364E+01  0.89930893562E+01  0.12700000000E+01 0.  1.
         -4   -1    0    0    0  501 -0.00000000000E+00 -0.00000000000E+00 -0.43644479824E+03  0.43644664601E+03  0.12700000000E+01 0.  1.
         25    2    1    2    0    0  0.00000000000E+00  0.00000000000E+00 -0.42754183491E+03  0.44543973537E+03  0.12499814898E+03 0.  0.
    9000005    1    3    3    0    0 -0.10681010889E+02 -0.32189731947E+02 -0.26730249448E+02  0.43194549100E+02  0.10000000000E+01 0.  0.
    9000005    1    3    3    0    0  0.10681010889E+02  0.32189731947E+02 -0.40081158546E+03  0.40224518627E+03  0.10000000000E+01 0.  0.
<mgrwt>
<rscale>  0 0.12499815E+03</rscale>
<asrwt>0</asrwt>
<pdfrwt beam="1">  1        4 0.13767619E-02 0.12499815E+03</pdfrwt>
<pdfrwt beam="2">  1       -4 0.67152412E-01 0.12499815E+03</pdfrwt>
<totfact> 0.60363365E+03</totfact>
</mgrwt>
</event>
<event>
 5    1  0.3321169E-002  0.1250020E+03  0.7818608E-02  0.1235066E+00
          4   -1    0    0  501    0  0.00000000000E+00  0.00000000000E+00  0.22293047393E+02  0.22329193045E+02  0.12700000000E+01 0. -1.
         -4   -1    0    0    0  501 -0.00000000000E+00 -0.00000000000E+00 -0.17504796824E+03  0.17505257521E+03  0.12700000000E+01 0. -1.
         25    2    1    2    0    0  0.00000000000E+00  0.00000000000E+00 -0.15275492085E+03  0.19738176825E+03  0.12500198636E+03 0.  0.
    9000005    1    3    3    0    0  0.32494503671E+02 -0.36625584612E+02 -0.13769683176E+03  0.14614630920E+03  0.10000000000E+01 0.  0.
    9000005    1    3    3    0    0 -0.32494503671E+02  0.36625584612E+02 -0.15058089093E+02  0.51235459050E+02  0.10000000000E+01 0.  0.
<mgrwt>
<rscale>  0 0.12500199E+03</rscale>
<asrwt>0</asrwt>
<pdfrwt beam="1">  1        4 0.34328345E-02 0.12500199E+03</pdfrwt>
<pdfrwt beam="2">  1       -4 0.26933591E-01 0.12500199E+03</pdfrwt>
<totfact> 0.90574511E+03</totfact>
</mgrwt>
</event>
<event>
 5    1  0.3321169E-002  0.1250015E+03  0.7818608E-02  0.1235067E+00
          4   -1    0    0  501    0  0.00000000000E+00  0.00000000000E+00  0.58825825830E+02  0.58839533348E+02  0.12700000000E+01 0.  1.
         -4   -1    0    0    0  501 -0.00000000000E+00 -0.00000000000E+00 -0.66377726044E+02  0.66389874339E+02  0.12700000000E+01 0.  1.
         25    2    1    2    0    0  0.00000000000E+00  0.00000000000E+00 -0.75519002137E+01  0.12522940769E+03  0.12500149340E+03 0.  0.
    9000005    1    3    3    0    0  0.30587828429E+02  0.42409159685E+02  0.30509119631E+02  0.60547158925E+02  0.10000000000E+01 0.  0.
    9000005    1    3    3    0    0 -0.30587828429E+02 -0.42409159685E+02 -0.38061019845E+02  0.64682248761E+02  0.10000000000E+01 0.  0.
<mgrwt>
<rscale>  0 0.12500149E+03</rscale>
<asrwt>0</asrwt>
<pdfrwt beam="1">  1        4 0.90521160E-02 0.12500149E+03</pdfrwt>
<pdfrwt beam="2">  1       -4 0.10213947E-01 0.12500149E+03</pdfrwt>
<totfact> 0.10447529E+04</totfact>
</mgrwt>
</event>
<event>
 5    1  0.3321169E-002  0.1250001E+03  0.7818608E-02  0.1235069E+00
         -4   -1    0    0    0  501 -0.00000000000E+00  0.00000000000E+00  0.12596803314E+02  0.12660661663E+02  0.12700000000E+01 0. -1.
          4   -1    0    0  501    0  0.00000000000E+00 -0.00000000000E+00 -0.30924983508E+03  0.30925244283E+03  0.12700000000E+01 0. -1.
         25    2    1    2    0    0  0.00000000000E+00  0.00000000000E+00 -0.29665303176E+03  0.32191310449E+03  0.12500010236E+03 0.  0.
    9000005    1    3    3    0    0 -0.40898901985E+02  0.38773892240E+02 -0.21786548343E+03  0.22503889391E+03  0.10000000000E+01 0.  0.
    9000005    1    3    3    0    0  0.40898901985E+02 -0.38773892240E+02 -0.78787548338E+02  0.96874210583E+02  0.10000000000E+01 0.  0.
<mgrwt>
<rscale>  0 0.12500010E+03</rscale>
<asrwt>0</asrwt>
<pdfrwt beam="2">  1        4 0.47582005E-01 0.12500010E+03</pdfrwt>
<pdfrwt beam="1">  1       -4 0.19430828E-02 0.12500010E+03</pdfrwt>
<totfact> 0.72929000E+03</totfact>
</mgrwt>
</event>
<event>
 5    1  0.3321169E-002  0.1250001E+03  0.7818608E-02  0.1235069E+00
         -4   -1    0    0    0  501 -0.00000000000E+00  0.00000000000E+00  0.93206551652E+01  0.94067801457E+01  0.12700000000E+01 0. -1.
          4   -1    0    0  501    0  0.00000000000E+00 -0.00000000000E+00 -0.41708223265E+03  0.41708416619E+03  0.12700000000E+01 0. -1.
         25    2    1    2    0    0  0.00000000000E+00  0.00000000000E+00 -0.40776157748E+03  0.42649094634E+03  0.12500009296E+03 0.  0.
    9000005    1    3    3    0    0 -0.97432854564E+01 -0.53430897624E+02 -0.30934533852E+03  0.31407854256E+03  0.10000000000E+01 0.  0.
    9000005    1    3    3    0    0  0.97432854564E+01  0.53430897624E+02 -0.98416238967E+02  0.11241240378E+03  0.10000000000E+01 0.  0.
<mgrwt>
<rscale>  0 0.12500009E+03</rscale>
<asrwt>0</asrwt>
<pdfrwt beam="2">  1        4 0.64173257E-01 0.12500009E+03</pdfrwt>
<pdfrwt beam="1">  1       -4 0.14407210E-02 0.12500009E+03</pdfrwt>
<totfact> 0.62055238E+03</totfact>
</mgrwt>
</event>
<event>
 5    1  0.3321169E-002  0.1249927E+03  0.7818608E-02  0.1235081E+00
         -4   -1    0    0    0  501 -0.00000000000E+00  0.00000000000E+00  0.12774425672E+02  0.12837400486E+02  0.12700000000E+01 0.  1.
          4   -1    0    0  501    0  0.00000000000E+00 -0.00000000000E+00 -0.30493470751E+03  0.30493735216E+03  0.12700000000E+01 0.  1.
         25    2    1    2    0    0  0.00000000000E+00  0.00000000000E+00 -0.29216028183E+03  0.31777475264E+03  0.12499265233E+03 0.  0.
    9000005    1    3    3    0    0 -0.41671599445E+02 -0.27502639179E+02 -0.50551678641E+02  0.71059056957E+02  0.10000000000E+01 0.  0.
    9000005    1    3    3    0    0  0.41671599445E+02  0.27502639179E+02 -0.24160860319E+03  0.24671569569E+03  0.10000000000E+01 0.  0.
<mgrwt>
<rscale>  0 0.12499265E+03</rscale>
<asrwt>0</asrwt>
<pdfrwt beam="2">  1        4 0.46918074E-01 0.12499265E+03</pdfrwt>
<pdfrwt beam="1">  1       -4 0.19703441E-02 0.12499265E+03</pdfrwt>
<totfact> 0.73433536E+03</totfact>
</mgrwt>
</event>
<event>
 5    1  0.3321169E-002  0.1249971E+03  0.7818608E-02  0.1235074E+00
         -4   -1    0    0    0  501 -0.00000000000E+00  0.00000000000E+00  0.79846535337E+02  0.79856634698E+02  0.12700000000E+01 0. -1.
          4   -1    0    0  501    0  0.00000000000E+00 -0.00000000000E+00 -0.48898288404E+02  0.48914778021E+02  0.12700000000E+01 0. -1.
         25    2    1    2    0    0  0.00000000000E+00  0.00000000000E+00  0.30948246933E+02  0.12877141272E+03  0.12499713095E+03 0.  0.
    9000005    1    3    3    0    0  0.11582876301E+02  0.50435464654E+02  0.51562891589E+02  0.73059091887E+02  0.10000000000E+01 0.  0.
    9000005    1    3    3    0    0 -0.11582876301E+02 -0.50435464654E+02 -0.20614644656E+02  0.55712320833E+02  0.10000000000E+01 0.  0.
<mgrwt>
<rscale>  0 0.12499713E+03</rscale>
<asrwt>0</asrwt>
<pdfrwt beam="2">  1        4 0.75248590E-02 0.12499713E+03</pdfrwt>
<pdfrwt beam="1">  1       -4 0.12286128E-01 0.12499713E+03</pdfrwt>
<totfact> 0.10371533E+04</totfact>
</mgrwt>
</event>
<event>
 5    1  0.3321169E-002  0.1249982E+03  0.7818608E-02  0.1235072E+00
         -4   -1    0    0    0  501 -0.00000000000E+00  0.00000000000E+00  0.61506496836E+02  0.61519607062E+02  0.12700000000E+01 0. -1.
          4   -1    0    0  501    0  0.00000000000E+00 -0.00000000000E+00 -0.63481489005E+02  0.63494191437E+02  0.12700000000E+01 0. -1.
         25    2    1    2    0    0  0.00000000000E+00  0.00000000000E+00 -0.19749921683E+01  0.12501379850E+03  0.12499819687E+03 0.  0.
    9000005    1    3    3    0    0 -0.61586499610E+02 -0.56146788179E+01 -0.99728120554E+01  0.62648851009E+02  0.10000000000E+01 0.  0.
    9000005    1    3    3    0    0  0.61586499610E+02  0.56146788179E+01  0.79978198871E+01  0.62364947490E+02  0.10000000000E+01 0.  0.
<mgrwt>
<rscale>  0 0.12499820E+03</rscale>
<asrwt>0</asrwt>
<pdfrwt beam="2">  1        4 0.97683685E-02 0.12499820E+03</pdfrwt>
<pdfrwt beam="1">  1       -4 0.94645236E-02 0.12499820E+03</pdfrwt>
<totfact> 0.10452989E+04</totfact>
</mgrwt>
</event>
<event>
 5    1  0.3321169E-002  0.1250002E+03  0.7818608E-02  0.1235069E+00
         -4   -1    0    0    0  501 -0.00000000000E+00  0.00000000000E+00  0.69944311618E+03  0.69944426917E+03  0.12700000000E+01 0.  1.
          4   -1    0    0  501    0  0.00000000000E+00 -0.00000000000E+00 -0.55114449190E+01  0.56558752722E+01  0.12700000000E+01 0.  1.
         25    2    1    2    0    0  0.00000000000E+00  0.00000000000E+00  0.69393167126E+03  0.70510014444E+03  0.12500019724E+03 0.  0.
    9000005    1    3    3    0    0  0.35949755696E+02  0.14913214424E+02  0.62275809052E+03  0.62397390026E+03  0.10000000000E+01 0.  0.
    9000005    1    3    3    0    0 -0.35949755696E+02 -0.14913214424E+02  0.71173580743E+02  0.81126244181E+02  0.10000000000E+01 0.  0.
<mgrwt>
<rscale>  0 0.12500020E+03</rscale>
<asrwt>0</asrwt>
<pdfrwt beam="2">  1        4 0.85911289E-03 0.12500020E+03</pdfrwt>
<pdfrwt beam="1">  1       -4 0.10761789E+00 0.12500020E+03</pdfrwt>
<totfact> 0.42818625E+03</totfact>
</mgrwt>
</event>
<event>
 5    1  0.3321169E-002  0.1249972E+03  0.7818608E-02  0.1235074E+00
          4   -1    0    0  501    0  0.00000000000E+00  0.00000000000E+00  0.50387500257E+01  0.51963354224E+01  0.12700000000E+01 0.  1.
         -4   -1    0    0    0  501 -0.00000000000E+00 -0.00000000000E+00 -0.76311358192E+03  0.76311463870E+03  0.12700000000E+01 0.  1.
         25    2    1    2    0    0  0.00000000000E+00  0.00000000000E+00 -0.75807483189E+03  0.76831097413E+03  0.12499720884E+03 0.  0.
    9000005    1    3    3    0    0 -0.38005471116E+02 -0.38182764024E+02 -0.57367651202E+03  0.57620142289E+03  0.10000000000E+01 0.  0.
    9000005    1    3    3    0    0  0.38005471116E+02  0.38182764024E+02 -0.18439831987E+03  0.19210955123E+03  0.10000000000E+01 0.  0.
<mgrwt>
<rscale>  0 0.12499721E+03</rscale>
<asrwt>0</asrwt>
<pdfrwt beam="1">  1        4 0.78739616E-03 0.12499721E+03</pdfrwt>
<pdfrwt beam="2">  1       -4 0.11741420E+00 0.12499721E+03</pdfrwt>
<totfact> 0.39715706E+03</totfact>
</mgrwt>
</event>
<event>
 5    1  0.3321169E-002  0.1250017E+03  0.7818608E-02  0.1235067E+00
          4   -1    0    0  501    0  0.00000000000E+00  0.00000000000E+00  0.48314883392E+02  0.48331572054E+02  0.12700000000E+01 0. -1.
         -4   -1    0    0    0  501 -0.00000000000E+00 -0.00000000000E+00 -0.80816353566E+02  0.80826331747E+02  0.12700000000E+01 0. -1.
         25    2    1    2    0    0  0.00000000000E+00  0.00000000000E+00 -0.32501470174E+02  0.12915790380E+03  0.12500167419E+03 0.  0.
    9000005    1    3    3    0    0 -0.58538364066E+02  0.17673676220E+02 -0.29279972766E+01  0.61226400079E+02  0.10000000000E+01 0.  0.
    9000005    1    3    3    0    0  0.58538364066E+02 -0.17673676220E+02 -0.29573472898E+02  0.67931503721E+02  0.10000000000E+01 0.  0.
<mgrwt>
<rscale>  0 0.12500167E+03</rscale>
<asrwt>0</asrwt>
<pdfrwt beam="1">  1        4 0.74351103E-02 0.12500167E+03</pdfrwt>
<pdfrwt beam="2">  1       -4 0.12435336E-01 0.12500167E+03</pdfrwt>
<totfact> 0.10362163E+04</totfact>
</mgrwt>
</event>
<event>
 5    1  0.3321169E-002  0.1249611E+03  0.7818608E-02  0.1235130E+00
          4   -1    0    0  501    0  0.00000000000E+00  0.00000000000E+00  0.95295212956E+02  0.95303675230E+02  0.12700000000E+01 0.  1.
         -4   -1    0    0    0  501 -0.00000000000E+00 -0.00000000000E+00 -0.40945395260E+02  0.40965086269E+02  0.12700000000E+01 0.  1.
         25    2    1    2    0    0  0.00000000000E+00  0.00000000000E+00  0.54349817696E+02  0.13626876150E+03  0.12496108465E+03 0.  0.
    9000005    1    3    3    0    0  0.39587686482E+02  0.44191493031E+02  0.58407072614E+01  0.59625387535E+02  0.10000000000E+01 0.  0.
    9000005    1    3    3    0    0 -0.39587686482E+02 -0.44191493031E+02  0.48509110434E+02  0.76643373963E+02  0.10000000000E+01 0.  0.
<mgrwt>
<rscale>  0 0.12496108E+03</rscale>
<asrwt>0</asrwt>
<pdfrwt beam="1">  1        4 0.14662968E-01 0.12496108E+03</pdfrwt>
<pdfrwt beam="2">  1       -4 0.63014572E-02 0.12496108E+03</pdfrwt>
<totfact> 0.10220363E+04</totfact>
</mgrwt>
</event>
<event>
 5    1  0.3321169E-002  0.1249991E+03  0.7818608E-02  0.1235071E+00
          4   -1    0    0  501    0  0.00000000000E+00  0.00000000000E+00  0.18791587607E+02  0.18834454194E+02  0.12700000000E+01 0.  1.
         -4   -1    0    0    0  501 -0.00000000000E+00 -0.00000000000E+00 -0.20758777010E+03  0.20759165493E+03  0.12700000000E+01 0.  1.
         25    2    1    2    0    0  0.00000000000E+00  0.00000000000E+00 -0.18879618249E+03  0.22642610912E+03  0.12499913747E+03 0.  0.
    9000005    1    3    3    0    0 -0.28180943455E+02 -0.42338003820E+02 -0.16017349142E+03  0.16805719114E+03  0.10000000000E+01 0.  0.
    9000005    1    3    3    0    0  0.28180943455E+02  0.42338003820E+02 -0.28622691072E+02  0.58368917976E+02  0.10000000000E+01 0.  0.
<mgrwt>
<rscale>  0 0.12499914E+03</rscale>
<asrwt>0</asrwt>
<pdfrwt beam="1">  1        4 0.28946099E-02 0.12499914E+03</pdfrwt>
<pdfrwt beam="2">  1       -4 0.31940175E-01 0.12499914E+03</pdfrwt>
<totfact> 0.85863063E+03</totfact>
</mgrwt>
</event>
<event>
 5    1  0.3321169E-002  0.1250055E+03  0.7818608E-02  0.1235061E+00
          4   -1    0    0  501    0  0.00000000000E+00  0.00000000000E+00  0.14533258294E+02  0.14588642728E+02  0.12700000000E+01 0.  1.
         -4   -1    0    0    0  501 -0.00000000000E+00 -0.00000000000E+00 -0.26823569069E+03  0.26823869717E+03  0.12700000000E+01 0.  1.
         25    2    1    2    0    0  0.00000000000E+00  0.00000000000E+00 -0.25370243240E+03  0.28282733990E+03  0.12500551984E+03 0.  0.
    9000005    1    3    3    0    0  0.26377432478E+01 -0.19780006269E+02 -0.26084484387E+03  0.26160894272E+03  0.10000000000E+01 0.  0.
    9000005    1    3    3    0    0 -0.26377432478E+01  0.19780006269E+02  0.71424114701E+01  0.21218397183E+02  0.10000000000E+01 0.  0.
<mgrwt>
<rscale>  0 0.12500552E+03</rscale>
<asrwt>0</asrwt>
<pdfrwt beam="1">  1        4 0.22403777E-02 0.12500552E+03</pdfrwt>
<pdfrwt beam="2">  1       -4 0.41271518E-01 0.12500552E+03</pdfrwt>
<totfact> 0.77795166E+03</totfact>
</mgrwt>
</event>
<event>
 5    1  0.3321169E-002  0.1250028E+03  0.7818608E-02  0.1235065E+00
          4   -1    0    0  501    0  0.00000000000E+00  0.00000000000E+00  0.13248342759E+02  0.13309075319E+02  0.12700000000E+01 0.  1.
         -4   -1    0    0    0  501 -0.00000000000E+00 -0.00000000000E+00 -0.29412485397E+03  0.29412759582E+03  0.12700000000E+01 0.  1.
         25    2    1    2    0    0  0.00000000000E+00  0.00000000000E+00 -0.28087651121E+03  0.30743667114E+03  0.12500276881E+03 0.  0.
    9000005    1    3    3    0    0  0.11066321836E+02  0.15753126788E+01 -0.29165831063E+03  0.29187414282E+03  0.10000000000E+01 0.  0.
    9000005    1    3    3    0    0 -0.11066321836E+02 -0.15753126788E+01  0.10781799417E+02  0.15562528319E+02  0.10000000000E+01 0.  0.
<mgrwt>
<rscale>  0 0.12500277E+03</rscale>
<asrwt>0</asrwt>
<pdfrwt beam="1">  1        4 0.20430894E-02 0.12500277E+03</pdfrwt>
<pdfrwt beam="2">  1       -4 0.45254856E-01 0.12500277E+03</pdfrwt>
<totfact> 0.74670780E+03</totfact>
</mgrwt>
</event>
<event>
 5    1  0.3321169E-002  0.1249508E+03  0.7818608E-02  0.1235146E+00
         -4   -1    0    0    0  501 -0.00000000000E+00  0.00000000000E+00  0.10092041296E+03  0.10092840359E+03  0.12700000000E+01 0.  1.
          4   -1    0    0  501    0  0.00000000000E+00 -0.00000000000E+00 -0.38655833377E+02  0.38676690061E+02  0.12700000000E+01 0.  1.
         25    2    1    2    0    0  0.00000000000E+00  0.00000000000E+00  0.62264579583E+02  0.13960509365E+03  0.12495080754E+03 0.  0.
    9000005    1    3    3    0    0  0.31835005097E+02 -0.37420169917E+01  0.91036714578E+02  0.96520224004E+02  0.10000000000E+01 0.  0.
    9000005    1    3    3    0    0 -0.31835005097E+02  0.37420169917E+01 -0.28772134995E+02  0.43084869651E+02  0.10000000000E+01 0.  0.
<mgrwt>
<rscale>  0 0.12495081E+03</rscale>
<asrwt>0</asrwt>
<pdfrwt beam="2">  1        4 0.59492704E-02 0.12495081E+03</pdfrwt>
<pdfrwt beam="1">  1       -4 0.15528436E-01 0.12495081E+03</pdfrwt>
<totfact> 0.10153025E+04</totfact>
</mgrwt>
</event>
<event>
 5    1  0.3321169E-002  0.1249966E+03  0.7818608E-02  0.1235075E+00
          4   -1    0    0  501    0  0.00000000000E+00  0.00000000000E+00  0.38726197813E+02  0.38747016622E+02  0.12700000000E+01 0. -1.
         -4   -1    0    0    0  501 -0.00000000000E+00 -0.00000000000E+00 -0.10081092246E+03  0.10081892178E+03  0.12700000000E+01 0. -1.
         25    2    1    2    0    0  0.00000000000E+00  0.00000000000E+00 -0.62084724651E+02  0.13956593840E+03  0.12499655246E+03 0.  0.
    9000005    1    3    3    0    0 -0.43866986552E+02 -0.42669094025E+02 -0.16915784353E+02  0.63498880733E+02  0.10000000000E+01 0.  0.
    9000005    1    3    3    0    0  0.43866986552E+02  0.42669094025E+02 -0.45168940299E+02  0.76067057665E+02  0.10000000000E+01 0.  0.
<mgrwt>
<rscale>  0 0.12499655E+03</rscale>
<asrwt>0</asrwt>
<pdfrwt beam="1">  1        4 0.59600934E-02 0.12499655E+03</pdfrwt>
<pdfrwt beam="2">  1       -4 0.15511589E-01 0.12499655E+03</pdfrwt>
<totfact> 0.10143378E+04</totfact>
</mgrwt>
</event>
<event>
 5    1  0.3321169E-002  0.1250031E+03  0.7818608E-02  0.1235064E+00
          4   -1    0    0  501    0  0.00000000000E+00  0.00000000000E+00  0.33580905536E+03  0.33581145686E+03  0.12700000000E+01 0.  1.
         -4   -1    0    0    0  501 -0.00000000000E+00 -0.00000000000E+00 -0.11595819956E+02  0.11665159255E+02  0.12700000000E+01 0.  1.
         25    2    1    2    0    0  0.00000000000E+00  0.00000000000E+00  0.32421323540E+03  0.34747661612E+03  0.12500310692E+03 0.  0.
    9000005    1    3    3    0    0 -0.22416068583E+02 -0.40940068631E+02  0.46592462468E+02  0.65957766101E+02  0.10000000000E+01 0.  0.
    9000005    1    3    3    0    0  0.22416068583E+02  0.40940068631E+02  0.27762077293E+03  0.28151885002E+03  0.10000000000E+01 0.  0.
<mgrwt>
<rscale>  0 0.12500311E+03</rscale>
<asrwt>0</asrwt>
<pdfrwt beam="1">  1        4 0.51668454E-01 0.12500311E+03</pdfrwt>
<pdfrwt beam="2">  1       -4 0.17894907E-02 0.12500311E+03</pdfrwt>
<totfact> 0.69998235E+03</totfact>
</mgrwt>
</event>
<event>
 5    1  0.3321169E-002  0.1249996E+03  0.7818608E-02  0.1235070E+00
          4   -1    0    0  501    0  0.00000000000E+00  0.00000000000E+00  0.10574822032E+02  0.10650810346E+02  0.12700000000E+01 0.  1.
         -4   -1    0    0    0  501 -0.00000000000E+00 -0.00000000000E+00 -0.36798994562E+03  0.36799213711E+03  0.12700000000E+01 0.  1.
         25    2    1    2    0    0  0.00000000000E+00  0.00000000000E+00 -0.35741512359E+03  0.37864294746E+03  0.12499964437E+03 0.  0.
    9000005    1    3    3    0    0 -0.10581539419E+02 -0.68524535030E+01  0.66979010036E+01  0.14310379916E+02  0.10000000000E+01 0.  0.
    9000005    1    3    3    0    0  0.10581539419E+02  0.68524535030E+01 -0.36411302459E+03  0.36433256754E+03  0.10000000000E+01 0.  0.
<mgrwt>
<rscale>  0 0.12499964E+03</rscale>
<asrwt>0</asrwt>
<pdfrwt beam="1">  1        4 0.16329098E-02 0.12499964E+03</pdfrwt>
<pdfrwt beam="2">  1       -4 0.56619842E-01 0.12499964E+03</pdfrwt>
<totfact> 0.66684841E+03</totfact>
</mgrwt>
</event>
<event>
 5    1  0.3321169E-002  0.1249996E+03  0.7818608E-02  0.1235070E+00
          4   -1    0    0  501    0  0.00000000000E+00  0.00000000000E+00  0.17045719567E+03  0.17046192670E+03  0.12700000000E+01 0.  1.
         -4   -1    0    0    0  501 -0.00000000000E+00 -0.00000000000E+00 -0.22893511066E+02  0.22928710145E+02  0.12700000000E+01 0.  1.
         25    2    1    2    0    0  0.00000000000E+00  0.00000000000E+00  0.14756368460E+03  0.19339063685E+03  0.12499958963E+03 0.  0.
    9000005    1    3    3    0    0 -0.27385417346E+02 -0.54574537030E+02  0.53205407868E+02  0.80994793670E+02  0.10000000000E+01 0.  0.
    9000005    1    3    3    0    0  0.27385417346E+02  0.54574537030E+02  0.94358276735E+02  0.11239584318E+03  0.10000000000E+01 0.  0.
<mgrwt>
<rscale>  0 0.12499959E+03</rscale>
<asrwt>0</asrwt>
<pdfrwt beam="1">  1        4 0.26227256E-01 0.12499959E+03</pdfrwt>
<pdfrwt beam="2">  1       -4 0.35251501E-02 0.12499959E+03</pdfrwt>
<totfact> 0.91261517E+03</totfact>
</mgrwt>
</event>
<event>
 5    1  0.3321169E-002  0.1249970E+03  0.7818608E-02  0.1235074E+00
         -4   -1    0    0    0  501 -0.00000000000E+00  0.00000000000E+00  0.18645497590E+02  0.18688699269E+02  0.12700000000E+01 0. -1.
          4   -1    0    0  501    0  0.00000000000E+00 -0.00000000000E+00 -0.20920323214E+03  0.20920708697E+03  0.12700000000E+01 0. -1.
         25    2    1    2    0    0  0.00000000000E+00  0.00000000000E+00 -0.19055773455E+03  0.22789578624E+03  0.12499695672E+03 0.  0.
    9000005    1    3    3    0    0  0.32201134284E+01 -0.43894909655E+01  0.18221277104E+02  0.19043416204E+02  0.10000000000E+01 0.  0.
    9000005    1    3    3    0    0 -0.32201134284E+01  0.43894909655E+01 -0.20877901166E+03  0.20885237004E+03  0.10000000000E+01 0.  0.
<mgrwt>
<rscale>  0 0.12499696E+03</rscale>
<asrwt>0</asrwt>
<pdfrwt beam="2">  1        4 0.32188731E-01 0.12499696E+03</pdfrwt>
<pdfrwt beam="1">  1       -4 0.28721580E-02 0.12499696E+03</pdfrwt>
<totfact> 0.85639568E+03</totfact>
</mgrwt>
</event>
<event>
 5    1  0.3321169E-002  0.1249960E+03  0.7818608E-02  0.1235076E+00
          4   -1    0    0  501    0  0.00000000000E+00  0.00000000000E+00  0.61494659191E+02  0.61507771940E+02  0.12700000000E+01 0. -1.
         -4   -1    0    0    0  501 -0.00000000000E+00 -0.00000000000E+00 -0.63491441870E+02  0.63504142311E+02  0.12700000000E+01 0. -1.
         25    2    1    2    0    0  0.00000000000E+00  0.00000000000E+00 -0.19967826785E+01  0.12501191425E+03  0.12499596619E+03 0.  0.
    9000005    1    3    3    0    0 -0.51310296313E+02 -0.34273082982E+02 -0.10879285774E+02  0.62663782074E+02  0.10000000000E+01 0.  0.
    9000005    1    3    3    0    0  0.51310296313E+02  0.34273082982E+02  0.88825030956E+01  0.62348132178E+02  0.10000000000E+01 0.  0.
<mgrwt>
<rscale>  0 0.12499597E+03</rscale>
<asrwt>0</asrwt>
<pdfrwt beam="1">  1        4 0.94627024E-02 0.12499597E+03</pdfrwt>
<pdfrwt beam="2">  1       -4 0.97698998E-02 0.12499597E+03</pdfrwt>
<totfact> 0.10453557E+04</totfact>
</mgrwt>
</event>
<event>
 5    1  0.3321169E-002  0.1250011E+03  0.7818608E-02  0.1235068E+00
          4   -1    0    0  501    0  0.00000000000E+00  0.00000000000E+00  0.51892932173E+02  0.51908470499E+02  0.12700000000E+01 0.  1.
         -4   -1    0    0    0  501 -0.00000000000E+00 -0.00000000000E+00 -0.75244348714E+02  0.75255065700E+02  0.12700000000E+01 0.  1.
         25    2    1    2    0    0  0.00000000000E+00  0.00000000000E+00 -0.23351416541E+02  0.12716353620E+03  0.12500110513E+03 0.  0.
    9000005    1    3    3    0    0 -0.53111128008E+02  0.22746600017E+02 -0.35901945906E+02  0.68030503823E+02  0.10000000000E+01 0.  0.
    9000005    1    3    3    0    0  0.53111128008E+02 -0.22746600017E+02  0.12550529365E+02  0.59133032376E+02  0.10000000000E+01 0.  0.
<mgrwt>
<rscale>  0 0.12500111E+03</rscale>
<asrwt>0</asrwt>
<pdfrwt beam="1">  1        4 0.79855477E-02 0.12500111E+03</pdfrwt>
<pdfrwt beam="2">  1       -4 0.11578073E-01 0.12500111E+03</pdfrwt>
<totfact> 0.10405335E+04</totfact>
</mgrwt>
</event>
<event>
 5    1  0.3321169E-002  0.1250012E+03  0.7818608E-02  0.1235067E+00
          4   -1    0    0  501    0  0.00000000000E+00  0.00000000000E+00  0.14124002261E+03  0.14124573228E+03  0.12700000000E+01 0. -1.
         -4   -1    0    0    0  501 -0.00000000000E+00 -0.00000000000E+00 -0.27636491520E+02  0.27665656753E+02  0.12700000000E+01 0. -1.
         25    2    1    2    0    0  0.00000000000E+00  0.00000000000E+00  0.11360353109E+03  0.16891138903E+03  0.12500118027E+03 0.  0.
    9000005    1    3    3    0    0 -0.62069000728E+02 -0.26901624276E+01  0.65919234409E+02  0.90587765677E+02  0.10000000000E+01 0.  0.
    9000005    1    3    3    0    0  0.62069000728E+02  0.26901624276E+01  0.47684296678E+02  0.78323623352E+02  0.10000000000E+01 0.  0.
<mgrwt>
<rscale>  0 0.12500118E+03</rscale>
<asrwt>0</asrwt>
<pdfrwt beam="1">  1        4 0.21731917E-01 0.12500118E+03</pdfrwt>
<pdfrwt beam="2">  1       -4 0.42544506E-02 0.12500118E+03</pdfrwt>
<totfact> 0.95649187E+03</totfact>
</mgrwt>
</event>
<event>
 5    1  0.3321169E-002  0.1249998E+03  0.7818608E-02  0.1235070E+00
         -4   -1    0    0    0  501 -0.00000000000E+00  0.00000000000E+00  0.81010651922E+01  0.82000095883E+01  0.12700000000E+01 0.  1.
          4   -1    0    0  501    0  0.00000000000E+00 -0.00000000000E+00 -0.47916180750E+03  0.47916349054E+03  0.12700000000E+01 0.  1.
         25    2    1    2    0    0  0.00000000000E+00  0.00000000000E+00 -0.47106074230E+03  0.48736350012E+03  0.12499983326E+03 0.  0.
    9000005    1    3    3    0    0  0.25310513306E+02 -0.41614616538E+02 -0.82882009539E+02  0.96139616697E+02  0.10000000000E+01 0.  0.
    9000005    1    3    3    0    0 -0.25310513306E+02  0.41614616538E+02 -0.38817873276E+03  0.39122388343E+03  0.10000000000E+01 0.  0.
<mgrwt>
<rscale>  0 0.12499983E+03</rscale>
<asrwt>0</asrwt>
<pdfrwt beam="2">  1        4 0.73724920E-01 0.12499983E+03</pdfrwt>
<pdfrwt beam="1">  1       -4 0.12540587E-02 0.12499983E+03</pdfrwt>
<totfact> 0.56858526E+03</totfact>
</mgrwt>
</event>
<event>
 5    1  0.3321169E-002  0.1250042E+03  0.7818608E-02  0.1235063E+00
          4   -1    0    0  501    0  0.00000000000E+00  0.00000000000E+00  0.10327761639E+04  0.10327769447E+04  0.12700000000E+01 0. -1.
         -4   -1    0    0    0  501 -0.00000000000E+00 -0.00000000000E+00 -0.36751278817E+01  0.38883756180E+01  0.12700000000E+01 0. -1.
         25    2    1    2    0    0  0.00000000000E+00  0.00000000000E+00  0.10291010360E+04  0.10366653203E+04  0.12500417646E+03 0.  0.
    9000005    1    3    3    0    0  0.10339796307E+02  0.48087930659E+02  0.83425259167E+03  0.83570194877E+03  0.10000000000E+01 0.  0.
    9000005    1    3    3    0    0 -0.10339796307E+02 -0.48087930659E+02  0.19484844430E+03  0.20096337156E+03  0.10000000000E+01 0.  0.
<mgrwt>
<rscale>  0 0.12500418E+03</rscale>
<asrwt>0</asrwt>
<pdfrwt beam="1">  1        4 0.15890519E+00 0.12500418E+03</pdfrwt>
<pdfrwt beam="2">  1       -4 0.58186771E-03 0.12500418E+03</pdfrwt>
<totfact> 0.29412110E+03</totfact>
</mgrwt>
</event>
<event>
 5    1  0.3321169E-002  0.1250014E+03  0.7818608E-02  0.1235067E+00
         -4   -1    0    0    0  501 -0.00000000000E+00  0.00000000000E+00  0.33222180342E+02  0.33246445925E+02  0.12700000000E+01 0. -1.
          4   -1    0    0  501    0  0.00000000000E+00 -0.00000000000E+00 -0.11751160628E+03  0.11751846881E+03  0.12700000000E+01 0. -1.
         25    2    1    2    0    0  0.00000000000E+00  0.00000000000E+00 -0.84289425943E+02  0.15076491474E+03  0.12500140875E+03 0.  0.
    9000005    1    3    3    0    0  0.27836700243E+02  0.12484470545E+02 -0.10792552641E+03  0.11215909742E+03  0.10000000000E+01 0.  0.
    9000005    1    3    3    0    0 -0.27836700243E+02 -0.12484470545E+02  0.23636100462E+02  0.38605817311E+02  0.10000000000E+01 0.  0.
<mgrwt>
<rscale>  0 0.12500141E+03</rscale>
<asrwt>0</asrwt>
<pdfrwt beam="2">  1        4 0.18081103E-01 0.12500141E+03</pdfrwt>
<pdfrwt beam="1">  1       -4 0.51134992E-02 0.12500141E+03</pdfrwt>
<totfact> 0.99148299E+03</totfact>
</mgrwt>
</event>
<event>
 5    1  0.3321169E-002  0.1249990E+03  0.7818608E-02  0.1235071E+00
         -4   -1    0    0    0  501 -0.00000000000E+00  0.00000000000E+00  0.94500320323E+02  0.94508853772E+02  0.12700000000E+01 0.  1.
          4   -1    0    0  501    0  0.00000000000E+00 -0.00000000000E+00 -0.41315050735E+02  0.41334565648E+02  0.12700000000E+01 0.  1.
         25    2    1    2    0    0  0.00000000000E+00  0.00000000000E+00  0.53185269588E+02  0.13584341942E+03  0.12499904679E+03 0.  0.
    9000005    1    3    3    0    0 -0.18407811472E+02 -0.55148869337E+02  0.51492033070E+02  0.77670295365E+02  0.10000000000E+01 0.  0.
    9000005    1    3    3    0    0  0.18407811472E+02  0.55148869337E+02  0.16932365183E+01  0.58173124055E+02  0.10000000000E+01 0.  0.
<mgrwt>
<rscale>  0 0.12499905E+03</rscale>
<asrwt>0</asrwt>
<pdfrwt beam="2">  1        4 0.63583193E-02 0.12499905E+03</pdfrwt>
<pdfrwt beam="1">  1       -4 0.14540668E-01 0.12499905E+03</pdfrwt>
<totfact> 0.10220544E+04</totfact>
</mgrwt>
</event>
<event>
 5    1  0.3321169E-002  0.1249984E+03  0.7818608E-02  0.1235072E+00
          4   -1    0    0  501    0  0.00000000000E+00  0.00000000000E+00  0.15373119752E+02  0.15425489000E+02  0.12700000000E+01 0. -1.
         -4   -1    0    0    0  501 -0.00000000000E+00 -0.00000000000E+00 -0.25360349333E+03  0.25360667328E+03  0.12700000000E+01 0. -1.
         25    2    1    2    0    0  0.00000000000E+00  0.00000000000E+00 -0.23823037358E+03  0.26903216228E+03  0.12499837376E+03 0.  0.
    9000005    1    3    3    0    0 -0.41530727215E+02  0.23354094181E+02 -0.32089017986E+02  0.57453634292E+02  0.10000000000E+01 0.  0.
    9000005    1    3    3    0    0  0.41530727215E+02 -0.23354094181E+02 -0.20614135559E+03  0.21157852798E+03  0.10000000000E+01 0.  0.
<mgrwt>
<rscale>  0 0.12499837E+03</rscale>
<asrwt>0</asrwt>
<pdfrwt beam="1">  1        4 0.23693685E-02 0.12499837E+03</pdfrwt>
<pdfrwt beam="2">  1       -4 0.39020192E-01 0.12499837E+03</pdfrwt>
<totfact> 0.79657883E+03</totfact>
</mgrwt>
</event>
<event>
 5    1  0.3321169E-002  0.1249953E+03  0.7818608E-02  0.1235077E+00
          4   -1    0    0  501    0  0.00000000000E+00  0.00000000000E+00  0.14615220259E+04  0.14615225777E+04  0.12700000000E+01 0. -1.
         -4   -1    0    0    0  501 -0.00000000000E+00 -0.00000000000E+00 -0.25210649506E+01  0.28228830095E+01  0.12700000000E+01 0. -1.
         25    2    1    2    0    0  0.00000000000E+00  0.00000000000E+00  0.14590009610E+04  0.14643454607E+04  0.12499529677E+03 0.  0.
    9000005    1    3    3    0    0  0.37768814747E+02 -0.49469401120E+02  0.79499155309E+03  0.79742477670E+03  0.10000000000E+01 0.  0.
    9000005    1    3    3    0    0 -0.37768814747E+02  0.49469401120E+02  0.66400940791E+03  0.66692068405E+03  0.10000000000E+01 0.  0.
<mgrwt>
<rscale>  0 0.12499530E+03</rscale>
<asrwt>0</asrwt>
<pdfrwt beam="1">  1        4 0.22487306E+00 0.12499530E+03</pdfrwt>
<pdfrwt beam="2">  1       -4 0.41111489E-03 0.12499530E+03</pdfrwt>
<totfact> 0.18642699E+03</totfact>
</mgrwt>
</event>
<event>
 5    1  0.3321169E-002  0.1250042E+03  0.7818608E-02  0.1235063E+00
          4   -1    0    0  501    0  0.00000000000E+00  0.00000000000E+00  0.64204556168E+03  0.64204681774E+03  0.12700000000E+01 0.  1.
         -4   -1    0    0    0  501 -0.00000000000E+00 -0.00000000000E+00 -0.60169319947E+01  0.61495016569E+01  0.12700000000E+01 0.  1.
         25    2    1    2    0    0  0.00000000000E+00  0.00000000000E+00  0.63602862969E+03  0.64819631940E+03  0.12500420274E+03 0.  0.
    9000005    1    3    3    0    0  0.41017891162E+02  0.27372518551E+01  0.73939486972E+02  0.84605009762E+02  0.10000000000E+01 0.  0.
    9000005    1    3    3    0    0 -0.41017891162E+02 -0.27372518551E+01  0.56208914271E+03  0.56359130964E+03  0.10000000000E+01 0.  0.
<mgrwt>
<rscale>  0 0.12500420E+03</rscale>
<asrwt>0</asrwt>
<pdfrwt beam="1">  1        4 0.98786518E-01 0.12500420E+03</pdfrwt>
<pdfrwt beam="2">  1       -4 0.93597629E-03 0.12500420E+03</pdfrwt>
<totfact> 0.45955724E+03</totfact>
</mgrwt>
</event>
<event>
 4    1  0.3321169E-002  0.1247126E+03  0.7818608E-02  0.1235519E+00
         -4   -1    0    0    0  501 -0.00000000000E+00  0.00000000000E+00  0.32946204222E+02  0.32970672918E+02  0.12700000000E+01 0.  1.
          4   -1    0    0  501    0  0.00000000000E+00 -0.00000000000E+00 -0.11794823209E+03  0.11795506922E+03  0.12700000000E+01 0.  1.
    9000005    1    1    2    0    0  0.69497927974E+01  0.54245628134E+02 -0.78734402314E+02  0.95869671426E+02  0.10000000000E+01 0.  0.
    9000005    1    1    2    0    0 -0.69497927974E+01 -0.54245628134E+02 -0.62676255557E+01  0.55056070707E+02  0.10000000000E+01 0.  0.
<mgrwt>
<rscale>  0 0.12471261E+03</rscale>
<asrwt>0</asrwt>
<pdfrwt beam="2">  1        4 0.18148290E-01 0.12471261E+03</pdfrwt>
<pdfrwt beam="1">  1       -4 0.50710550E-02 0.12471261E+03</pdfrwt>
<totfact> 0.99763247E+03</totfact>
</mgrwt>
</event>
<event>
 5    1  0.3321169E-002  0.1250006E+03  0.7818608E-02  0.1235068E+00
          4   -1    0    0  501    0  0.00000000000E+00  0.00000000000E+00  0.16324468454E+02  0.16373795232E+02  0.12700000000E+01 0. -1.
         -4   -1    0    0    0  501 -0.00000000000E+00 -0.00000000000E+00 -0.23887843518E+03  0.23888181114E+03  0.12700000000E+01 0. -1.
         25    2    1    2    0    0  0.00000000000E+00  0.00000000000E+00 -0.22255396672E+03  0.25525560637E+03  0.12500062591E+03 0.  0.
    9000005    1    3    3    0    0  0.11865386444E+02 -0.45706119355E+02 -0.19486213718E+03  0.20050458661E+03  0.10000000000E+01 0.  0.
    9000005    1    3    3    0    0 -0.11865386444E+02  0.45706119355E+02 -0.27691829539E+02  0.54751019764E+02  0.10000000000E+01 0.  0.
<mgrwt>
<rscale>  0 0.12500063E+03</rscale>
<asrwt>0</asrwt>
<pdfrwt beam="1">  1        4 0.25155109E-02 0.12500063E+03</pdfrwt>
<pdfrwt beam="2">  1       -4 0.36754580E-01 0.12500063E+03</pdfrwt>
<totfact> 0.81575378E+03</totfact>
</mgrwt>
</event>
<event>
 5    1  0.3321169E-002  0.1249987E+03  0.7818608E-02  0.1235071E+00
          4   -1    0    0  501    0  0.00000000000E+00  0.00000000000E+00  0.30197046720E+02  0.30223741174E+02  0.12700000000E+01 0. -1.
         -4   -1    0    0    0  501 -0.00000000000E+00 -0.00000000000E+00 -0.12926906400E+03  0.12927530239E+03  0.12700000000E+01 0. -1.
         25    2    1    2    0    0  0.00000000000E+00  0.00000000000E+00 -0.99072017280E+02  0.15949904356E+03  0.12499872115E+03 0.  0.
    9000005    1    3    3    0    0 -0.50989142725E+02  0.34089763802E+02 -0.34268381349E+02  0.70266112972E+02  0.10000000000E+01 0.  0.
    9000005    1    3    3    0    0  0.50989142725E+02 -0.34089763802E+02 -0.64803635931E+02  0.89232930590E+02  0.10000000000E+01 0.  0.
<mgrwt>
<rscale>  0 0.12499872E+03</rscale>
<asrwt>0</asrwt>
<pdfrwt beam="1">  1        4 0.46482328E-02 0.12499872E+03</pdfrwt>
<pdfrwt beam="2">  1       -4 0.19890081E-01 0.12499872E+03</pdfrwt>
<totfact> 0.97442253E+03</totfact>
</mgrwt>
</event>
<event>
 5    1  0.3321169E-002  0.1250054E+03  0.7818608E-02  0.1235061E+00
          4   -1    0    0  501    0  0.00000000000E+00  0.00000000000E+00  0.14685673882E+02  0.14740485656E+02  0.12700000000E+01 0.  1.
         -4   -1    0    0    0  501 -0.00000000000E+00 -0.00000000000E+00 -0.26546155068E+03  0.26546458858E+03  0.12700000000E+01 0.  1.
         25    2    1    2    0    0  0.00000000000E+00  0.00000000000E+00 -0.25077587680E+03  0.28020507424E+03  0.12500537286E+03 0.  0.
    9000005    1    3    3    0    0 -0.53797516170E+01  0.48599423548E+02 -0.38147793301E+02  0.62024993595E+02  0.10000000000E+01 0.  0.
    9000005    1    3    3    0    0  0.53797516170E+01 -0.48599423548E+02 -0.21262808350E+03  0.21818008064E+03  0.10000000000E+01 0.  0.
<mgrwt>
<rscale>  0 0.12500537E+03</rscale>
<asrwt>0</asrwt>
<pdfrwt beam="1">  1        4 0.22637846E-02 0.12500537E+03</pdfrwt>
<pdfrwt beam="2">  1       -4 0.40844685E-01 0.12500537E+03</pdfrwt>
<totfact> 0.78141591E+03</totfact>
</mgrwt>
</event>
<event>
 5    1  0.3321169E-002  0.1250128E+03  0.7818608E-02  0.1235049E+00
         -4   -1    0    0    0  501 -0.00000000000E+00  0.00000000000E+00  0.41236450781E+01  0.43147825821E+01  0.12700000000E+01 0.  1.
          4   -1    0    0  501    0  0.00000000000E+00 -0.00000000000E+00 -0.92582158157E+03  0.92582245263E+03  0.12700000000E+01 0.  1.
         25    2    1    2    0    0  0.00000000000E+00  0.00000000000E+00 -0.92169793649E+03  0.93013723522E+03  0.12501276015E+03 0.  0.
    9000005    1    3    3    0    0  0.53733463620E+02  0.26168893768E+02 -0.32488170866E+03  0.33033501289E+03  0.10000000000E+01 0.  0.
    9000005    1    3    3    0    0 -0.53733463620E+02 -0.26168893768E+02 -0.59681622783E+03  0.59980222233E+03  0.10000000000E+01 0.  0.
<mgrwt>
<rscale>  0 0.12501276E+03</rscale>
<asrwt>0</asrwt>
<pdfrwt beam="2">  1        4 0.14244870E+00 0.12501276E+03</pdfrwt>
<pdfrwt beam="1">  1       -4 0.64917756E-03 0.12501276E+03</pdfrwt>
<totfact> 0.33022682E+03</totfact>
</mgrwt>
</event>
<event>
 5    1  0.3321169E-002  0.1249933E+03  0.7818608E-02  0.1235080E+00
          4   -1    0    0  501    0  0.00000000000E+00  0.00000000000E+00  0.43533902854E+02  0.43552423557E+02  0.12700000000E+01 0.  1.
         -4   -1    0    0    0  501 -0.00000000000E+00 -0.00000000000E+00 -0.89677234780E+02  0.89686227135E+02  0.12700000000E+01 0.  1.
         25    2    1    2    0    0  0.00000000000E+00  0.00000000000E+00 -0.46143331926E+02  0.13323865069E+03  0.12499332365E+03 0.  0.
    9000005    1    3    3    0    0 -0.39549991105E+02  0.44620251516E+02 -0.43004494493E+02  0.73522480837E+02  0.10000000000E+01 0.  0.
    9000005    1    3    3    0    0  0.39549991105E+02 -0.44620251516E+02 -0.31388374329E+01  0.59716169855E+02  0.10000000000E+01 0.  0.
<mgrwt>
<rscale>  0 0.12499332E+03</rscale>
<asrwt>0</asrwt>
<pdfrwt beam="1">  1        4 0.66996399E-02 0.12499332E+03</pdfrwt>
<pdfrwt beam="2">  1       -4 0.13798614E-01 0.12499332E+03</pdfrwt>
<totfact> 0.10276878E+04</totfact>
</mgrwt>
</event>
<event>
 5    1  0.3321169E-002  0.1249995E+03  0.7818608E-02  0.1235070E+00
          4   -1    0    0  501    0  0.00000000000E+00  0.00000000000E+00  0.10192760272E+04  0.10192768184E+04  0.12700000000E+01 0. -1.
         -4   -1    0    0    0  501 -0.00000000000E+00 -0.00000000000E+00 -0.37263180333E+01  0.39367938840E+01  0.12700000000E+01 0. -1.
         25    2    1    2    0    0  0.00000000000E+00  0.00000000000E+00  0.10155497092E+04  0.10232136123E+04  0.12499953829E+03 0.  0.
    9000005    1    3    3    0    0 -0.21557339342E+02 -0.52108158472E+02  0.72821942110E+03  0.73040023571E+03  0.10000000000E+01 0.  0.
    9000005    1    3    3    0    0  0.21557339342E+02  0.52108158472E+02  0.28733028806E+03  0.29281337657E+03  0.10000000000E+01 0.  0.
<mgrwt>
<rscale>  0 0.12499954E+03</rscale>
<asrwt>0</asrwt>
<pdfrwt beam="1">  1        4 0.15682816E+00 0.12499954E+03</pdfrwt>
<pdfrwt beam="2">  1       -4 0.58953019E-03 0.12499954E+03</pdfrwt>
<totfact> 0.29846348E+03</totfact>
</mgrwt>
</event>
<event>
 5    1  0.3321169E-002  0.1249987E+03  0.7818608E-02  0.1235071E+00
         -4   -1    0    0    0  501 -0.00000000000E+00  0.00000000000E+00  0.66894647654E+02  0.66906702091E+02  0.12700000000E+01 0. -1.
          4   -1    0    0  501    0  0.00000000000E+00 -0.00000000000E+00 -0.58368589318E+02  0.58382404190E+02  0.12700000000E+01 0. -1.
         25    2    1    2    0    0  0.00000000000E+00  0.00000000000E+00  0.85260583354E+01  0.12528910628E+03  0.12499866592E+03 0.  0.
    9000005    1    3    3    0    0  0.28010188333E+02  0.55791750250E+02  0.14499845804E+01  0.62453122433E+02  0.10000000000E+01 0.  0.
    9000005    1    3    3    0    0 -0.28010188333E+02 -0.55791750250E+02  0.70760737550E+01  0.62835983848E+02  0.10000000000E+01 0.  0.
<mgrwt>
<rscale>  0 0.12499867E+03</rscale>
<asrwt>0</asrwt>
<pdfrwt beam="2">  1        4 0.89817730E-02 0.12499867E+03</pdfrwt>
<pdfrwt beam="1">  1       -4 0.10293474E-01 0.12499867E+03</pdfrwt>
<totfact> 0.10446901E+04</totfact>
</mgrwt>
</event>
<event>
 5    1  0.3321169E-002  0.1249997E+03  0.7818608E-02  0.1235070E+00
          4   -1    0    0  501    0  0.00000000000E+00  0.00000000000E+00  0.68455449118E+03  0.68455566925E+03  0.12700000000E+01 0. -1.
         -4   -1    0    0    0  501 -0.00000000000E+00 -0.00000000000E+00 -0.56343772281E+01  0.57757343039E+01  0.12700000000E+01 0. -1.
         25    2    1    2    0    0  0.00000000000E+00  0.00000000000E+00  0.67892011396E+03  0.69033140355E+03  0.12499970239E+03 0.  0.
    9000005    1    3    3    0    0 -0.16167238453E+02 -0.51421866492E+02  0.16484921251E+03  0.17344120277E+03  0.10000000000E+01 0.  0.
    9000005    1    3    3    0    0  0.16167238453E+02  0.51421866492E+02  0.51407090144E+03  0.51689020078E+03  0.10000000000E+01 0.  0.
<mgrwt>
<rscale>  0 0.12499970E+03</rscale>
<asrwt>0</asrwt>
<pdfrwt beam="1">  1        4 0.10532696E+00 0.12499970E+03</pdfrwt>
<pdfrwt beam="2">  1       -4 0.87779214E-03 0.12499970E+03</pdfrwt>
<totfact> 0.43602329E+03</totfact>
</mgrwt>
</event>
<event>
 5    1  0.3321169E-002  0.1249999E+03  0.7818608E-02  0.1235070E+00
          4   -1    0    0  501    0  0.00000000000E+00  0.00000000000E+00  0.28446314855E+02  0.28474650636E+02  0.12700000000E+01 0.  1.
         -4   -1    0    0    0  501 -0.00000000000E+00 -0.00000000000E+00 -0.13722011419E+03  0.13722599111E+03  0.12700000000E+01 0.  1.
         25    2    1    2    0    0  0.00000000000E+00  0.00000000000E+00 -0.10877379933E+03  0.16570064175E+03  0.12499985302E+03 0.  0.
    9000005    1    3    3    0    0 -0.43369117688E+02 -0.42146504153E+02 -0.75263948129E+02  0.96555010586E+02  0.10000000000E+01 0.  0.
    9000005    1    3    3    0    0  0.43369117688E+02  0.42146504153E+02 -0.33509851201E+02  0.69145631163E+02  0.10000000000E+01 0.  0.
<mgrwt>
<rscale>  0 0.12499985E+03</rscale>
<asrwt>0</asrwt>
<pdfrwt beam="1">  1        4 0.43789880E-02 0.12499985E+03</pdfrwt>
<pdfrwt beam="2">  1       -4 0.21113418E-01 0.12499985E+03</pdfrwt>
<totfact> 0.96255184E+03</totfact>
</mgrwt>
</event>
<event>
 5    1  0.3321169E-002  0.1249992E+03  0.7818608E-02  0.1235070E+00
         -4   -1    0    0    0  501 -0.00000000000E+00  0.00000000000E+00  0.69223998030E+02  0.69235646912E+02  0.12700000000E+01 0. -1.
          4   -1    0    0  501    0  0.00000000000E+00 -0.00000000000E+00 -0.56404902689E+02  0.56419198393E+02  0.12700000000E+01 0. -1.
         25    2    1    2    0    0  0.00000000000E+00  0.00000000000E+00  0.12819095342E+02  0.12565484530E+03  0.12499924377E+03 0.  0.
    9000005    1    3    3    0    0 -0.55796651740E+02 -0.94725985713E+01 -0.20228611199E+02  0.60109842622E+02  0.10000000000E+01 0.  0.
    9000005    1    3    3    0    0  0.55796651740E+02  0.94725985713E+01  0.33047706540E+02  0.65545002682E+02  0.10000000000E+01 0.  0.
<mgrwt>
<rscale>  0 0.12499924E+03</rscale>
<asrwt>0</asrwt>
<pdfrwt beam="2">  1        4 0.86796731E-02 0.12499924E+03</pdfrwt>
<pdfrwt beam="1">  1       -4 0.10651842E-01 0.12499924E+03</pdfrwt>
<totfact> 0.10438716E+04</totfact>
</mgrwt>
</event>
<event>
 5    1  0.3321169E-002  0.1249955E+03  0.7818608E-02  0.1235076E+00
         -4   -1    0    0    0  501 -0.00000000000E+00  0.00000000000E+00  0.56544762189E+01  0.57953430710E+01  0.12700000000E+01 0.  1.
          4   -1    0    0  501    0  0.00000000000E+00 -0.00000000000E+00 -0.68213495676E+03  0.68213613900E+03  0.12700000000E+01 0.  1.
         25    2    1    2    0    0  0.00000000000E+00  0.00000000000E+00 -0.67648048054E+03  0.68793148207E+03  0.12499553382E+03 0.  0.
    9000005    1    3    3    0    0 -0.31449777876E+01  0.32520490190E+02 -0.63140951204E+03  0.63225504748E+03  0.10000000000E+01 0.  0.
    9000005    1    3    3    0    0  0.31449777876E+01 -0.32520490190E+02 -0.45070968494E+02  0.55676434589E+02  0.10000000000E+01 0.  0.
<mgrwt>
<rscale>  0 0.12499553E+03</rscale>
<asrwt>0</asrwt>
<pdfrwt beam="2">  1        4 0.10495470E+00 0.12499553E+03</pdfrwt>
<pdfrwt beam="1">  1       -4 0.88084681E-03 0.12499553E+03</pdfrwt>
<totfact> 0.43735771E+03</totfact>
</mgrwt>
</event>
<event>
 5    1  0.3321169E-002  0.1250049E+03  0.7818608E-02  0.1235062E+00
          4   -1    0    0  501    0  0.00000000000E+00  0.00000000000E+00  0.94602805884E+03  0.94602891130E+03  0.12700000000E+01 0. -1.
         -4   -1    0    0    0  501 -0.00000000000E+00 -0.00000000000E+00 -0.40309051403E+01  0.42262390195E+01  0.12700000000E+01 0. -1.
         25    2    1    2    0    0  0.00000000000E+00  0.00000000000E+00  0.94199715370E+03  0.95025515032E+03  0.12500485242E+03 0.  0.
    9000005    1    3    3    0    0  0.38465976015E+02 -0.23123501347E+02  0.14041213671E+03  0.14741402837E+03  0.10000000000E+01 0.  0.
    9000005    1    3    3    0    0 -0.38465976015E+02  0.23123501347E+02  0.80158501700E+03  0.80284112195E+03  0.10000000000E+01 0.  0.
<mgrwt>
<rscale>  0 0.12500485E+03</rscale>
<asrwt>0</asrwt>
<pdfrwt beam="1">  1        4 0.14555780E+00 0.12500485E+03</pdfrwt>
<pdfrwt beam="2">  1       -4 0.63523080E-03 0.12500485E+03</pdfrwt>
<totfact> 0.32303506E+03</totfact>
</mgrwt>
</event>
<event>
 5    1  0.3321169E-002  0.1249982E+03  0.7818608E-02  0.1235072E+00
          4   -1    0    0  501    0  0.00000000000E+00  0.00000000000E+00  0.23181255147E+02  0.23216017966E+02  0.12700000000E+01 0. -1.
         -4   -1    0    0    0  501 -0.00000000000E+00 -0.00000000000E+00 -0.16834081132E+03  0.16834560183E+03  0.12700000000E+01 0. -1.
         25    2    1    2    0    0  0.00000000000E+00  0.00000000000E+00 -0.14515955617E+03  0.19156161980E+03  0.12499822971E+03 0.  0.
    9000005    1    3    3    0    0  0.48276419745E+02 -0.39613363433E+02 -0.69048972135E+02  0.93105272777E+02  0.10000000000E+01 0.  0.
    9000005    1    3    3    0    0 -0.48276419745E+02  0.39613363433E+02 -0.76110584039E+02  0.98456347021E+02  0.10000000000E+01 0.  0.
<mgrwt>
<rscale>  0 0.12499823E+03</rscale>
<asrwt>0</asrwt>
<pdfrwt beam="1">  1        4 0.35693896E-02 0.12499823E+03</pdfrwt>
<pdfrwt beam="2">  1       -4 0.25901628E-01 0.12499823E+03</pdfrwt>
<totfact> 0.91579937E+03</totfact>
</mgrwt>
</event>
<event>
 5    1  0.3321169E-002  0.1250178E+03  0.7818608E-02  0.1235041E+00
          4   -1    0    0  501    0  0.00000000000E+00  0.00000000000E+00  0.25297111324E+02  0.25328970396E+02  0.12700000000E+01 0. -1.
         -4   -1    0    0    0  501 -0.00000000000E+00 -0.00000000000E+00 -0.15432713148E+03  0.15433235698E+03  0.12700000000E+01 0. -1.
         25    2    1    2    0    0  0.00000000000E+00  0.00000000000E+00 -0.12903002016E+03  0.17966132737E+03  0.12501778455E+03 0.  0.
    9000005    1    3    3    0    0 -0.23087178544E+02  0.18047448114E+02 -0.14384989005E+03  0.14680776227E+03  0.10000000000E+01 0.  0.
    9000005    1    3    3    0    0  0.23087178544E+02 -0.18047448114E+02  0.14819869890E+02  0.32853565105E+02  0.10000000000E+01 0.  0.
<mgrwt>
<rscale>  0 0.12501778E+03</rscale>
<asrwt>0</asrwt>
<pdfrwt beam="1">  1        4 0.38947160E-02 0.12501778E+03</pdfrwt>
<pdfrwt beam="2">  1       -4 0.23745488E-01 0.12501778E+03</pdfrwt>
<totfact> 0.93640654E+03</totfact>
</mgrwt>
</event>
<event>
 5    1  0.3321169E-002  0.1250142E+03  0.7818608E-02  0.1235047E+00
          4   -1    0    0  501    0  0.00000000000E+00  0.00000000000E+00  0.15229476694E+03  0.15230006217E+03  0.12700000000E+01 0.  1.
         -4   -1    0    0    0  501 -0.00000000000E+00 -0.00000000000E+00 -0.25633649350E+02  0.25665090668E+02  0.12700000000E+01 0.  1.
         25    2    1    2    0    0  0.00000000000E+00  0.00000000000E+00  0.12666111759E+03  0.17796515284E+03  0.12501422685E+03 0.  0.
    9000005    1    3    3    0    0  0.69194115655E+01  0.32323966898E+02  0.13883856150E+03  0.14272302985E+03  0.10000000000E+01 0.  0.
    9000005    1    3    3    0    0 -0.69194115655E+01 -0.32323966898E+02 -0.12177443906E+02  0.35242122985E+02  0.10000000000E+01 0.  0.
<mgrwt>
<rscale>  0 0.12501423E+03</rscale>
<asrwt>0</asrwt>
<pdfrwt beam="1">  1        4 0.23432790E-01 0.12501423E+03</pdfrwt>
<pdfrwt beam="2">  1       -4 0.39464643E-02 0.12501423E+03</pdfrwt>
<totfact> 0.93954589E+03</totfact>
</mgrwt>
</event>
<event>
 5    1  0.3321169E-002  0.1249982E+03  0.7818608E-02  0.1235072E+00
          4   -1    0    0  501    0  0.00000000000E+00  0.00000000000E+00  0.32309668785E+01  0.34716058201E+01  0.12700000000E+01 0.  1.
         -4   -1    0    0    0  501 -0.00000000000E+00 -0.00000000000E+00 -0.11653225758E+04  0.11653232679E+04  0.12700000000E+01 0.  1.
         25    2    1    2    0    0  0.00000000000E+00  0.00000000000E+00 -0.11620916090E+04  0.11687948737E+04  0.12499819666E+03 0.  0.
    9000005    1    3    3    0    0  0.33364245828E+02  0.47834165791E+02 -0.37115752460E+03  0.37571290686E+03  0.10000000000E+01 0.  0.
    9000005    1    3    3    0    0 -0.33364245828E+02 -0.47834165791E+02 -0.79093408436E+03  0.79308196683E+03  0.10000000000E+01 0.  0.
<mgrwt>
<rscale>  0 0.12499820E+03</rscale>
<asrwt>0</asrwt>
<pdfrwt beam="1">  1        4 0.51563668E-03 0.12499820E+03</pdfrwt>
<pdfrwt beam="2">  1       -4 0.17929864E+00 0.12499820E+03</pdfrwt>
<totfact> 0.25545523E+03</totfact>
</mgrwt>
</event>
<event>
 5    1  0.3321169E-002  0.1250049E+03  0.7818608E-02  0.1235062E+00
          4   -1    0    0  501    0  0.00000000000E+00  0.00000000000E+00  0.77873655570E+01  0.78902447566E+01  0.12700000000E+01 0.  1.
         -4   -1    0    0    0  501 -0.00000000000E+00 -0.00000000000E+00 -0.49825765190E+03  0.49825927044E+03  0.12700000000E+01 0.  1.
         25    2    1    2    0    0  0.00000000000E+00  0.00000000000E+00 -0.49047028635E+03  0.50614951520E+03  0.12500491969E+03 0.  0.
    9000005    1    3    3    0    0 -0.41155518545E+02  0.36169685764E+02 -0.12352574453E+03  0.13513560758E+03  0.10000000000E+01 0.  0.
    9000005    1    3    3    0    0  0.41155518545E+02 -0.36169685764E+02 -0.36694454182E+03  0.37101390761E+03  0.10000000000E+01 0.  0.
<mgrwt>
<rscale>  0 0.12500492E+03</rscale>
<asrwt>0</asrwt>
<pdfrwt beam="1">  1        4 0.12060949E-02 0.12500492E+03</pdfrwt>
<pdfrwt beam="2">  1       -4 0.76663037E-01 0.12500492E+03</pdfrwt>
<totfact> 0.55384397E+03</totfact>
</mgrwt>
</event>
<event>
 5    1  0.3321169E-002  0.1250001E+03  0.7818608E-02  0.1235069E+00
          4   -1    0    0  501    0  0.00000000000E+00  0.00000000000E+00  0.37531945277E+02  0.37553426159E+02  0.12700000000E+01 0.  1.
         -4   -1    0    0    0  501 -0.00000000000E+00 -0.00000000000E+00 -0.10402299572E+03  0.10403074804E+03  0.12700000000E+01 0.  1.
         25    2    1    2    0    0  0.00000000000E+00  0.00000000000E+00 -0.66491050442E+02  0.14158417420E+03  0.12500007438E+03 0.  0.
    9000005    1    3    3    0    0  0.57928394084E+02  0.47288317353E+01 -0.72385614360E+01  0.58578643398E+02  0.10000000000E+01 0.  0.
    9000005    1    3    3    0    0 -0.57928394084E+02 -0.47288317353E+01 -0.59252489006E+02  0.83005530805E+02  0.10000000000E+01 0.  0.
<mgrwt>
<rscale>  0 0.12500007E+03</rscale>
<asrwt>0</asrwt>
<pdfrwt beam="1">  1        4 0.57763942E-02 0.12500007E+03</pdfrwt>
<pdfrwt beam="2">  1       -4 0.16005786E-01 0.12500007E+03</pdfrwt>
<totfact> 0.10100841E+04</totfact>
</mgrwt>
</event>
<event>
 5    1  0.3321169E-002  0.1250000E+03  0.7818608E-02  0.1235069E+00
          4   -1    0    0  501    0  0.00000000000E+00  0.00000000000E+00  0.52756418763E+01  0.54263521086E+01  0.12700000000E+01 0. -1.
         -4   -1    0    0    0  501 -0.00000000000E+00 -0.00000000000E+00 -0.72985311684E+03  0.72985422179E+03  0.12700000000E+01 0. -1.
         25    2    1    2    0    0  0.00000000000E+00  0.00000000000E+00 -0.72457747497E+03  0.73528057390E+03  0.12500002050E+03 0.  0.
    9000005    1    3    3    0    0  0.44920107123E+02 -0.44497400798E+01 -0.61649662293E+03  0.61814779971E+03  0.10000000000E+01 0.  0.
    9000005    1    3    3    0    0 -0.44920107123E+02  0.44497400798E+01 -0.10808085204E+03  0.11713277419E+03  0.10000000000E+01 0.  0.
<mgrwt>
<rscale>  0 0.12500002E+03</rscale>
<asrwt>0</asrwt>
<pdfrwt beam="1">  1        4 0.82331588E-03 0.12500002E+03</pdfrwt>
<pdfrwt beam="2">  1       -4 0.11229669E+00 0.12500002E+03</pdfrwt>
<totfact> 0.41288263E+03</totfact>
</mgrwt>
</event>
<event>
 5    1  0.3321169E-002  0.1250007E+03  0.7818608E-02  0.1235068E+00
          4   -1    0    0  501    0  0.00000000000E+00  0.00000000000E+00  0.51905055375E+02  0.51920590072E+02  0.12700000000E+01 0.  1.
         -4   -1    0    0    0  501 -0.00000000000E+00 -0.00000000000E+00 -0.75226311500E+02  0.75237031055E+02  0.12700000000E+01 0.  1.
         25    2    1    2    0    0  0.00000000000E+00  0.00000000000E+00 -0.23321256126E+02  0.12715762113E+03  0.12500071849E+03 0.  0.
    9000005    1    3    3    0    0  0.58360231437E+02  0.10595613135E+02 -0.31675268640E+02  0.67249581965E+02  0.10000000000E+01 0.  0.
    9000005    1    3    3    0    0 -0.58360231437E+02 -0.10595613135E+02  0.83540125144E+01  0.59908039162E+02  0.10000000000E+01 0.  0.
<mgrwt>
<rscale>  0 0.12500072E+03</rscale>
<asrwt>0</asrwt>
<pdfrwt beam="1">  1        4 0.79874127E-02 0.12500072E+03</pdfrwt>
<pdfrwt beam="2">  1       -4 0.11575298E-01 0.12500072E+03</pdfrwt>
<totfact> 0.10405554E+04</totfact>
</mgrwt>
</event>
<event>
 5    1  0.3321169E-002  0.1250008E+03  0.7818608E-02  0.1235068E+00
         -4   -1    0    0    0  501 -0.00000000000E+00  0.00000000000E+00  0.55453009201E+02  0.55467550239E+02  0.12700000000E+01 0.  1.
          4   -1    0    0  501    0  0.00000000000E+00 -0.00000000000E+00 -0.70413888128E+02  0.70425340193E+02  0.12700000000E+01 0.  1.
         25    2    1    2    0    0  0.00000000000E+00  0.00000000000E+00 -0.14960878927E+02  0.12589289043E+03  0.12500076785E+03 0.  0.
    9000005    1    3    3    0    0 -0.22116555149E+02 -0.18502226919E+02 -0.63318200122E+02  0.69582101717E+02  0.10000000000E+01 0.  0.
    9000005    1    3    3    0    0  0.22116555149E+02  0.18502226919E+02  0.48357321195E+02  0.56310788715E+02  0.10000000000E+01 0.  0.
<mgrwt>
<rscale>  0 0.12500077E+03</rscale>
<asrwt>0</asrwt>
<pdfrwt beam="2">  1        4 0.10834905E-01 0.12500077E+03</pdfrwt>
<pdfrwt beam="1">  1       -4 0.85332316E-02 0.12500077E+03</pdfrwt>
<totfact> 0.10433125E+04</totfact>
</mgrwt>
</event>
<event>
 5    1  0.3321169E-002  0.1250025E+03  0.7818608E-02  0.1235065E+00
          4   -1    0    0  501    0  0.00000000000E+00  0.00000000000E+00  0.57627740660E+02  0.57641733090E+02  0.12700000000E+01 0.  1.
         -4   -1    0    0    0  501 -0.00000000000E+00 -0.00000000000E+00 -0.67758683284E+02  0.67770584034E+02  0.12700000000E+01 0.  1.
         25    2    1    2    0    0  0.00000000000E+00  0.00000000000E+00 -0.10130942624E+02  0.12541231712E+03  0.12500245313E+03 0.  0.
    9000005    1    3    3    0    0 -0.23092516134E+02 -0.18682285068E+02 -0.60228578444E+02  0.67162294021E+02  0.10000000000E+01 0.  0.
    9000005    1    3    3    0    0  0.23092516134E+02  0.18682285068E+02  0.50097635820E+02  0.58250023103E+02  0.10000000000E+01 0.  0.
<mgrwt>
<rscale>  0 0.12500245E+03</rscale>
<asrwt>0</asrwt>
<pdfrwt beam="1">  1        4 0.88677980E-02 0.12500245E+03</pdfrwt>
<pdfrwt beam="2">  1       -4 0.10426405E-01 0.12500245E+03</pdfrwt>
<totfact> 0.10443316E+04</totfact>
</mgrwt>
</event>
<event>
 5    1  0.3321169E-002  0.1249997E+03  0.7818608E-02  0.1235070E+00
         -4   -1    0    0    0  501 -0.00000000000E+00  0.00000000000E+00  0.90965063155E+01  0.91847333738E+01  0.12700000000E+01 0.  1.
          4   -1    0    0  501    0  0.00000000000E+00 -0.00000000000E+00 -0.42725965927E+03  0.42726154676E+03  0.12700000000E+01 0.  1.
         25    2    1    2    0    0  0.00000000000E+00  0.00000000000E+00 -0.41816315295E+03  0.43644628013E+03  0.12499973181E+03 0.  0.
    9000005    1    3    3    0    0  0.13965410981E+02  0.86770647521E+01  0.14263683825E+01  0.16533562331E+02  0.10000000000E+01 0.  0.
    9000005    1    3    3    0    0 -0.13965410981E+02 -0.86770647521E+01 -0.41958952134E+03  0.41991271780E+03  0.10000000000E+01 0.  0.
<mgrwt>
<rscale>  0 0.12499973E+03</rscale>
<asrwt>0</asrwt>
<pdfrwt beam="2">  1        4 0.65739171E-01 0.12499973E+03</pdfrwt>
<pdfrwt beam="1">  1       -4 0.14063947E-02 0.12499973E+03</pdfrwt>
<totfact> 0.61156359E+03</totfact>
</mgrwt>
</event>
<event>
 5    1  0.3321169E-002  0.1250020E+03  0.7818608E-02  0.1235066E+00
         -4   -1    0    0    0  501 -0.00000000000E+00  0.00000000000E+00  0.75300369722E+02  0.75311078735E+02  0.12700000000E+01 0. -1.
          4   -1    0    0  501    0  0.00000000000E+00 -0.00000000000E+00 -0.51855059599E+02  0.51870609270E+02  0.12700000000E+01 0. -1.
         25    2    1    2    0    0  0.00000000000E+00  0.00000000000E+00  0.23445310123E+02  0.12718168800E+03  0.12500199677E+03 0.  0.
    9000005    1    3    3    0    0 -0.45919903096E+02 -0.41257407005E+02  0.21616606737E+02  0.65414744668E+02  0.10000000000E+01 0.  0.
    9000005    1    3    3    0    0  0.45919903096E+02  0.41257407005E+02  0.18287033851E+01  0.61766943337E+02  0.10000000000E+01 0.  0.
<mgrwt>
<rscale>  0 0.12500200E+03</rscale>
<asrwt>0</asrwt>
<pdfrwt beam="2">  1        4 0.79797213E-02 0.12500200E+03</pdfrwt>
<pdfrwt beam="1">  1       -4 0.11586692E-01 0.12500200E+03</pdfrwt>
<totfact> 0.10404732E+04</totfact>
</mgrwt>
</event>
<event>
 5    1  0.3321169E-002  0.1250004E+03  0.7818608E-02  0.1235069E+00
         -4   -1    0    0    0  501 -0.00000000000E+00  0.00000000000E+00  0.12805766752E+03  0.12806396492E+03  0.12700000000E+01 0. -1.
          4   -1    0    0  501    0  0.00000000000E+00 -0.00000000000E+00 -0.30483771331E+02  0.30510214921E+02  0.12700000000E+01 0. -1.
         25    2    1    2    0    0  0.00000000000E+00  0.00000000000E+00  0.97573896189E+02  0.15857417984E+03  0.12500042118E+03 0.  0.
    9000005    1    3    3    0    0 -0.57567609281E+02  0.24301796621E+02  0.49824841861E+02  0.79925726921E+02  0.10000000000E+01 0.  0.
    9000005    1    3    3    0    0  0.57567609281E+02 -0.24301796621E+02  0.47749054328E+02  0.78648452919E+02  0.10000000000E+01 0.  0.
<mgrwt>
<rscale>  0 0.12500042E+03</rscale>
<asrwt>0</asrwt>
<pdfrwt beam="2">  1        4 0.46923296E-02 0.12500042E+03</pdfrwt>
<pdfrwt beam="1">  1       -4 0.19703698E-01 0.12500042E+03</pdfrwt>
<totfact> 0.97617454E+03</totfact>
</mgrwt>
</event>
<event>
 5    1  0.3321169E-002  0.1250042E+03  0.7818608E-02  0.1235063E+00
         -4   -1    0    0    0  501 -0.00000000000E+00  0.00000000000E+00  0.77004942038E+02  0.77015414031E+02  0.12700000000E+01 0. -1.
          4   -1    0    0  501    0  0.00000000000E+00 -0.00000000000E+00 -0.50708773191E+02  0.50724674257E+02  0.12700000000E+01 0. -1.
         25    2    1    2    0    0  0.00000000000E+00  0.00000000000E+00  0.26296168848E+02  0.12774008829E+03  0.12500416657E+03 0.  0.
    9000005    1    3    3    0    0 -0.61086682560E+02 -0.13183325419E+02  0.12783112531E+02  0.63794912189E+02  0.10000000000E+01 0.  0.
    9000005    1    3    3    0    0  0.61086682560E+02  0.13183325419E+02  0.13513056317E+02  0.63945176099E+02  0.10000000000E+01 0.  0.
<mgrwt>
<rscale>  0 0.12500417E+03</rscale>
<asrwt>0</asrwt>
<pdfrwt beam="2">  1        4 0.78033784E-02 0.12500417E+03</pdfrwt>
<pdfrwt beam="1">  1       -4 0.11848943E-01 0.12500417E+03</pdfrwt>
<totfact> 0.10392127E+04</totfact>
</mgrwt>
</event>
<event>
 5    1  0.3321169E-002  0.1249988E+03  0.7818608E-02  0.1235071E+00
          4   -1    0    0  501    0  0.00000000000E+00  0.00000000000E+00  0.65635107884E+01  0.66852504717E+01  0.12700000000E+01 0. -1.
         -4   -1    0    0    0  501 -0.00000000000E+00 -0.00000000000E+00 -0.58954416835E+03  0.58954553627E+03  0.12700000000E+01 0. -1.
         25    2    1    2    0    0  0.00000000000E+00  0.00000000000E+00 -0.58298065756E+03  0.59623078674E+03  0.12499881586E+03 0.  0.
    9000005    1    3    3    0    0 -0.29931416879E+02  0.12055920997E+02 -0.36225761661E+02  0.48523610288E+02  0.10000000000E+01 0.  0.
    9000005    1    3    3    0    0  0.29931416879E+02 -0.12055920997E+02 -0.54675489590E+03  0.54770717645E+03  0.10000000000E+01 0.  0.
<mgrwt>
<rscale>  0 0.12499882E+03</rscale>
<asrwt>0</asrwt>
<pdfrwt beam="1">  1        4 0.10192412E-02 0.12499882E+03</pdfrwt>
<pdfrwt beam="2">  1       -4 0.90708531E-01 0.12499882E+03</pdfrwt>
<totfact> 0.49107693E+03</totfact>
</mgrwt>
</event>
<event>
 5    1  0.3321169E-002  0.1250011E+03  0.7818608E-02  0.1235068E+00
          4   -1    0    0  501    0  0.00000000000E+00  0.00000000000E+00  0.12827600389E+03  0.12828229057E+03  0.12700000000E+01 0. -1.
         -4   -1    0    0    0  501 -0.00000000000E+00 -0.00000000000E+00 -0.30432159900E+02  0.30458648299E+02  0.12700000000E+01 0. -1.
         25    2    1    2    0    0  0.00000000000E+00  0.00000000000E+00  0.97843843991E+02  0.15874093887E+03  0.12500107146E+03 0.  0.
    9000005    1    3    3    0    0  0.31023838487E+02  0.46069824321E+02  0.12547960560E+02  0.56950492375E+02  0.10000000000E+01 0.  0.
    9000005    1    3    3    0    0 -0.31023838487E+02 -0.46069824321E+02  0.85295883431E+02  0.10179044650E+03  0.10000000000E+01 0.  0.
<mgrwt>
<rscale>  0 0.12500107E+03</rscale>
<asrwt>0</asrwt>
<pdfrwt beam="1">  1        4 0.19737291E-01 0.12500107E+03</pdfrwt>
<pdfrwt beam="2">  1       -4 0.46843919E-02 0.12500107E+03</pdfrwt>
<totfact> 0.97583721E+03</totfact>
</mgrwt>
</event>
<event>
 5    1  0.3321169E-002  0.1250043E+03  0.7818608E-02  0.1235063E+00
         -4   -1    0    0    0  501 -0.00000000000E+00  0.00000000000E+00  0.11523249585E+03  0.11523949410E+03  0.12700000000E+01 0.  1.
          4   -1    0    0  501    0  0.00000000000E+00 -0.00000000000E+00 -0.33881238744E+02  0.33905032648E+02  0.12700000000E+01 0.  1.
         25    2    1    2    0    0  0.00000000000E+00  0.00000000000E+00  0.81351257107E+02  0.14914452675E+03  0.12500425123E+03 0.  0.
    9000005    1    3    3    0    0  0.52015337577E+02 -0.20596378211E+02  0.74454931105E+01  0.56446802445E+02  0.10000000000E+01 0.  0.
    9000005    1    3    3    0    0 -0.52015337577E+02  0.20596378211E+02  0.73905763997E+02  0.92697724301E+02  0.10000000000E+01 0.  0.
<mgrwt>
<rscale>  0 0.12500425E+03</rscale>
<asrwt>0</asrwt>
<pdfrwt beam="2">  1        4 0.52148670E-02 0.12500425E+03</pdfrwt>
<pdfrwt beam="1">  1       -4 0.17730445E-01 0.12500425E+03</pdfrwt>
<totfact> 0.99464980E+03</totfact>
</mgrwt>
</event>
<event>
 5    1  0.3321169E-002  0.1250025E+03  0.7818608E-02  0.1235065E+00
         -4   -1    0    0    0  501 -0.00000000000E+00  0.00000000000E+00  0.55633995119E+03  0.55634140075E+03  0.12700000000E+01 0. -1.
          4   -1    0    0  501    0  0.00000000000E+00 -0.00000000000E+00 -0.69627239990E+01  0.70776002632E+01  0.12700000000E+01 0. -1.
         25    2    1    2    0    0  0.00000000000E+00  0.00000000000E+00  0.54937722719E+03  0.56341900102E+03  0.12500253177E+03 0.  0.
    9000005    1    3    3    0    0 -0.25625992439E+02 -0.41612730381E+02  0.99131102647E+02  0.11052731034E+03  0.10000000000E+01 0.  0.
    9000005    1    3    3    0    0  0.25625992439E+02  0.41612730381E+02  0.45024612454E+03  0.45289169068E+03  0.10000000000E+01 0.  0.
<mgrwt>
<rscale>  0 0.12500253E+03</rscale>
<asrwt>0</asrwt>
<pdfrwt beam="2">  1        4 0.10801363E-02 0.12500253E+03</pdfrwt>
<pdfrwt beam="1">  1       -4 0.85599720E-01 0.12500253E+03</pdfrwt>
<totfact> 0.51258385E+03</totfact>
</mgrwt>
</event>
<event>
 5    1  0.3321169E-002  0.1249998E+03  0.7818608E-02  0.1235070E+00
          4   -1    0    0  501    0  0.00000000000E+00  0.00000000000E+00  0.52287924733E+03  0.52288078965E+03  0.12700000000E+01 0. -1.
         -4   -1    0    0    0  501 -0.00000000000E+00 -0.00000000000E+00 -0.74150917811E+01  0.75230636128E+01  0.12700000000E+01 0. -1.
         25    2    1    2    0    0  0.00000000000E+00  0.00000000000E+00  0.51546415555E+03  0.53040385326E+03  0.12499980761E+03 0.  0.
    9000005    1    3    3    0    0 -0.30996016893E+02  0.42717638623E+02  0.11574595868E+03  0.12721508033E+03  0.10000000000E+01 0.  0.
    9000005    1    3    3    0    0  0.30996016893E+02 -0.42717638623E+02  0.39971819687E+03  0.40318877294E+03  0.10000000000E+01 0.  0.
<mgrwt>
<rscale>  0 0.12499981E+03</rscale>
<asrwt>0</asrwt>
<pdfrwt beam="1">  1        4 0.80451406E-01 0.12499981E+03</pdfrwt>
<pdfrwt beam="2">  1       -4 0.11492072E-02 0.12499981E+03</pdfrwt>
<totfact> 0.53580444E+03</totfact>
</mgrwt>
</event>
<event>
 5    1  0.3321169E-002  0.1249984E+03  0.7818608E-02  0.1235072E+00
         -4   -1    0    0    0  501 -0.00000000000E+00  0.00000000000E+00  0.48048840717E+02  0.48065621751E+02  0.12700000000E+01 0.  1.
          4   -1    0    0  501    0  0.00000000000E+00 -0.00000000000E+00 -0.81259433967E+02  0.81269357747E+02  0.12700000000E+01 0.  1.
         25    2    1    2    0    0  0.00000000000E+00  0.00000000000E+00 -0.33210593249E+02  0.12933497950E+03  0.12499837366E+03 0.  0.
    9000005    1    3    3    0    0 -0.82596651481E+01 -0.57597841859E+01 -0.80419549018E+02  0.81053692368E+02  0.10000000000E+01 0.  0.
    9000005    1    3    3    0    0  0.82596651481E+01  0.57597841859E+01  0.47208955768E+02  0.48281287130E+02  0.10000000000E+01 0.  0.
<mgrwt>
<rscale>  0 0.12499837E+03</rscale>
<asrwt>0</asrwt>
<pdfrwt beam="2">  1        4 0.12503506E-01 0.12499837E+03</pdfrwt>
<pdfrwt beam="1">  1       -4 0.73941836E-02 0.12499837E+03</pdfrwt>
<totfact> 0.10359135E+04</totfact>
</mgrwt>
</event>
<event>
 5    1  0.3321169E-002  0.1249856E+03  0.7818608E-02  0.1235092E+00
          4   -1    0    0  501    0  0.00000000000E+00  0.00000000000E+00  0.48275393544E+02  0.48292095853E+02  0.12700000000E+01 0.  1.
         -4   -1    0    0    0  501 -0.00000000000E+00 -0.00000000000E+00 -0.80861698456E+02  0.80871671042E+02  0.12700000000E+01 0.  1.
         25    2    1    2    0    0  0.00000000000E+00  0.00000000000E+00 -0.32586304911E+02  0.12916376689E+03  0.12498564482E+03 0.  0.
    9000005    1    3    3    0    0 -0.54777431403E+02  0.26719053229E+02 -0.20528912535E+01  0.60989254456E+02  0.10000000000E+01 0.  0.
    9000005    1    3    3    0    0  0.54777431403E+02 -0.26719053229E+02 -0.30533413658E+02  0.68174512438E+02  0.10000000000E+01 0.  0.
<mgrwt>
<rscale>  0 0.12498564E+03</rscale>
<asrwt>0</asrwt>
<pdfrwt beam="1">  1        4 0.74290356E-02 0.12498564E+03</pdfrwt>
<pdfrwt beam="2">  1       -4 0.12442313E-01 0.12498564E+03</pdfrwt>
<totfact> 0.10365788E+04</totfact>
</mgrwt>
</event>
<event>
 5    1  0.3321169E-002  0.1250013E+03  0.7818608E-02  0.1235067E+00
          4   -1    0    0  501    0  0.00000000000E+00  0.00000000000E+00  0.16987949194E+02  0.17035354937E+02  0.12700000000E+01 0. -1.
         -4   -1    0    0    0  501 -0.00000000000E+00 -0.00000000000E+00 -0.22957770174E+03  0.22958121447E+03  0.12700000000E+01 0. -1.
         25    2    1    2    0    0  0.00000000000E+00  0.00000000000E+00 -0.21258975254E+03  0.24661656940E+03  0.12500131766E+03 0.  0.
    9000005    1    3    3    0    0  0.54585542396E+02  0.21652411671E+02 -0.14846740461E+03  0.15966207628E+03  0.10000000000E+01 0.  0.
    9000005    1    3    3    0    0 -0.54585542396E+02 -0.21652411671E+02 -0.64122347933E+02  0.86954493123E+02  0.10000000000E+01 0.  0.
<mgrwt>
<rscale>  0 0.12500132E+03</rscale>
<asrwt>0</asrwt>
<pdfrwt beam="1">  1        4 0.26174476E-02 0.12500132E+03</pdfrwt>
<pdfrwt beam="2">  1       -4 0.35323561E-01 0.12500132E+03</pdfrwt>
<totfact> 0.82819280E+03</totfact>
</mgrwt>
</event>
<event>
 5    1  0.3321169E-002  0.1249965E+03  0.7818608E-02  0.1235075E+00
          4   -1    0    0  501    0  0.00000000000E+00  0.00000000000E+00  0.15075134983E+02  0.15128535777E+02  0.12700000000E+01 0.  1.
         -4   -1    0    0    0  501 -0.00000000000E+00 -0.00000000000E+00 -0.25859129849E+03  0.25859441710E+03  0.12700000000E+01 0.  1.
         25    2    1    2    0    0  0.00000000000E+00  0.00000000000E+00 -0.24351616351E+03  0.27372295288E+03  0.12499653212E+03 0.  0.
    9000005    1    3    3    0    0 -0.33744477183E+02 -0.31440754062E+02 -0.21409118921E+03  0.21900513248E+03  0.10000000000E+01 0.  0.
    9000005    1    3    3    0    0  0.33744477183E+02  0.31440754062E+02 -0.29424974300E+02  0.54717820396E+02  0.10000000000E+01 0.  0.
<mgrwt>
<rscale>  0 0.12499653E+03</rscale>
<asrwt>0</asrwt>
<pdfrwt beam="1">  1        4 0.23235994E-02 0.12499653E+03</pdfrwt>
<pdfrwt beam="2">  1       -4 0.39787621E-01 0.12499653E+03</pdfrwt>
<totfact> 0.79023921E+03</totfact>
</mgrwt>
</event>
<event>
 5    1  0.3321169E-002  0.1249962E+03  0.7818608E-02  0.1235075E+00
         -4   -1    0    0    0  501 -0.00000000000E+00  0.00000000000E+00  0.19136208224E+01  0.22967029960E+01  0.12700000000E+01 0. -1.
          4   -1    0    0  501    0  0.00000000000E+00 -0.00000000000E+00 -0.18550630307E+04  0.18550634654E+04  0.12700000000E+01 0. -1.
         25    2    1    2    0    0  0.00000000000E+00  0.00000000000E+00 -0.18531494098E+04  0.18573601684E+04  0.12499623963E+03 0.  0.
    9000005    1    3    3    0    0  0.15236519848E+02  0.60603725369E+02 -0.92318902910E+03  0.92530208392E+03  0.10000000000E+01 0.  0.
    9000005    1    3    3    0    0 -0.15236519848E+02 -0.60603725369E+02 -0.92996038073E+03  0.93205808446E+03  0.10000000000E+01 0.  0.
<mgrwt>
<rscale>  0 0.12499624E+03</rscale>
<asrwt>0</asrwt>
<pdfrwt beam="2">  1        4 0.28542251E+00 0.12499624E+03</pdfrwt>
<pdfrwt beam="1">  1       -4 0.32390599E-03 0.12499624E+03</pdfrwt>
<totfact> 0.11841152E+03</totfact>
</mgrwt>
</event>
<event>
 5    1  0.3321169E-002  0.1249991E+03  0.7818608E-02  0.1235071E+00
         -4   -1    0    0    0  501 -0.00000000000E+00  0.00000000000E+00  0.25004911211E+02  0.25037142103E+02  0.12700000000E+01 0.  1.
          4   -1    0    0  501    0  0.00000000000E+00 -0.00000000000E+00 -0.15608169713E+03  0.15608686389E+03  0.12700000000E+01 0.  1.
         25    2    1    2    0    0  0.00000000000E+00  0.00000000000E+00 -0.13107678592E+03  0.18112400599E+03  0.12499912696E+03 0.  0.
    9000005    1    3    3    0    0  0.62367433003E+02  0.39356260072E+01 -0.65396542262E+02  0.90459347727E+02  0.10000000000E+01 0.  0.
    9000005    1    3    3    0    0 -0.62367433003E+02 -0.39356260072E+01 -0.65680243654E+02  0.90664658263E+02  0.10000000000E+01 0.  0.
<mgrwt>
<rscale>  0 0.12499913E+03</rscale>
<asrwt>0</asrwt>
<pdfrwt beam="2">  1        4 0.24015445E-01 0.12499913E+03</pdfrwt>
<pdfrwt beam="1">  1       -4 0.38497862E-02 0.12499913E+03</pdfrwt>
<totfact> 0.93416898E+03</totfact>
</mgrwt>
</event>
<event>
 5    1  0.3321169E-002  0.1249970E+03  0.7818608E-02  0.1235074E+00
         -4   -1    0    0    0  501 -0.00000000000E+00  0.00000000000E+00  0.84243799908E+01  0.85195703078E+01  0.12700000000E+01 0. -1.
          4   -1    0    0  501    0  0.00000000000E+00 -0.00000000000E+00 -0.46096093822E+03  0.46096268771E+03  0.12700000000E+01 0. -1.
         25    2    1    2    0    0  0.00000000000E+00  0.00000000000E+00 -0.45253655823E+03  0.46948225802E+03  0.12499701622E+03 0.  0.
    9000005    1    3    3    0    0 -0.17902824576E+02  0.53267863493E+02 -0.12360735736E+03  0.13578569587E+03  0.10000000000E+01 0.  0.
    9000005    1    3    3    0    0  0.17902824576E+02 -0.53267863493E+02 -0.32892920087E+03  0.33369656215E+03  0.10000000000E+01 0.  0.
<mgrwt>
<rscale>  0 0.12499702E+03</rscale>
<asrwt>0</asrwt>
<pdfrwt beam="2">  1        4 0.70924505E-01 0.12499702E+03</pdfrwt>
<pdfrwt beam="1">  1       -4 0.13035157E-02 0.12499702E+03</pdfrwt>
<totfact> 0.58316273E+03</totfact>
</mgrwt>
</event>
<event>
 5    1  0.3321169E-002  0.1249986E+03  0.7818608E-02  0.1235072E+00
          4   -1    0    0  501    0  0.00000000000E+00  0.00000000000E+00  0.18687575117E+04  0.18687579433E+04  0.12700000000E+01 0.  1.
         -4   -1    0    0    0  501 -0.00000000000E+00 -0.00000000000E+00 -0.18968653145E+01  0.22827610522E+01  0.12700000000E+01 0.  1.
         25    2    1    2    0    0  0.00000000000E+00  0.00000000000E+00  0.18668606464E+04  0.18710407043E+04  0.12499857642E+03 0.  0.
    9000005    1    3    3    0    0  0.57514377286E+02  0.84977929337E+01  0.12764163368E+04  0.12777401069E+04  0.10000000000E+01 0.  0.
    9000005    1    3    3    0    0 -0.57514377286E+02 -0.84977929337E+01  0.59044430966E+03  0.59330059741E+03  0.10000000000E+01 0.  0.
<mgrwt>
<rscale>  0 0.12499858E+03</rscale>
<asrwt>0</asrwt>
<pdfrwt beam="1">  1        4 0.28753120E+00 0.12499858E+03</pdfrwt>
<pdfrwt beam="2">  1       -4 0.32154255E-03 0.12499858E+03</pdfrwt>
<totfact> 0.11640175E+03</totfact>
</mgrwt>
</event>
<event>
 5    1  0.3321169E-002  0.1249980E+03  0.7818608E-02  0.1235072E+00
         -4   -1    0    0    0  501 -0.00000000000E+00  0.00000000000E+00  0.11793055709E+03  0.11793739524E+03  0.12700000000E+01 0.  1.
          4   -1    0    0  501    0  0.00000000000E+00 -0.00000000000E+00 -0.33102259364E+02  0.33126612791E+02  0.12700000000E+01 0.  1.
         25    2    1    2    0    0  0.00000000000E+00  0.00000000000E+00  0.84828297723E+02  0.15106400803E+03  0.12499797769E+03 0.  0.
    9000005    1    3    3    0    0  0.40449113244E+02 -0.22038766803E+02  0.93449189870E+02  0.10419015832E+03  0.10000000000E+01 0.  0.
    9000005    1    3    3    0    0 -0.40449113244E+02  0.22038766803E+02 -0.86208921466E+01  0.46873849701E+02  0.10000000000E+01 0.  0.
<mgrwt>
<rscale>  0 0.12499798E+03</rscale>
<asrwt>0</asrwt>
<pdfrwt beam="2">  1        4 0.50950547E-02 0.12499798E+03</pdfrwt>
<pdfrwt beam="1">  1       -4 0.18145562E-01 0.12499798E+03</pdfrwt>
<totfact> 0.99096535E+03</totfact>
</mgrwt>
</event>
<event>
 5    1  0.3321169E-002  0.1249987E+03  0.7818608E-02  0.1235071E+00
          4   -1    0    0  501    0  0.00000000000E+00  0.00000000000E+00  0.14401216164E+03  0.14401776141E+03  0.12700000000E+01 0. -1.
         -4   -1    0    0    0  501 -0.00000000000E+00 -0.00000000000E+00 -0.27102896340E+02  0.27132635147E+02  0.12700000000E+01 0. -1.
         25    2    1    2    0    0  0.00000000000E+00  0.00000000000E+00  0.11690926530E+03  0.17115039656E+03  0.12499872770E+03 0.  0.
    9000005    1    3    3    0    0  0.17999991224E+00 -0.13647657309E+02  0.14195307469E+03  0.14261124207E+03  0.10000000000E+01 0.  0.
    9000005    1    3    3    0    0 -0.17999991224E+00  0.13647657309E+02 -0.25043809390E+02  0.28539154486E+02  0.10000000000E+01 0.  0.
<mgrwt>
<rscale>  0 0.12499873E+03</rscale>
<asrwt>0</asrwt>
<pdfrwt beam="1">  1        4 0.22158436E-01 0.12499873E+03</pdfrwt>
<pdfrwt beam="2">  1       -4 0.41723946E-02 0.12499873E+03</pdfrwt>
<totfact> 0.95237371E+03</totfact>
</mgrwt>
</event>
<event>
 5    1  0.3321169E-002  0.1250001E+03  0.7818608E-02  0.1235069E+00
         -4   -1    0    0    0  501 -0.00000000000E+00  0.00000000000E+00  0.81960745874E+02  0.81970584749E+02  0.12700000000E+01 0. -1.
          4   -1    0    0  501    0  0.00000000000E+00 -0.00000000000E+00 -0.47638929878E+02  0.47655855254E+02  0.12700000000E+01 0. -1.
         25    2    1    2    0    0  0.00000000000E+00  0.00000000000E+00  0.34321815995E+02  0.12962644000E+03  0.12500010758E+03 0.  0.
    9000005    1    3    3    0    0  0.36065457953E+00 -0.47102219458E+02 -0.25426122151E+02  0.53537247195E+02  0.10000000000E+01 0.  0.
    9000005    1    3    3    0    0 -0.36065457953E+00  0.47102219458E+02  0.59747938146E+02  0.76089192808E+02  0.10000000000E+01 0.  0.
<mgrwt>
<rscale>  0 0.12500011E+03</rscale>
<asrwt>0</asrwt>
<pdfrwt beam="2">  1        4 0.73311250E-02 0.12500011E+03</pdfrwt>
<pdfrwt beam="1">  1       -4 0.12611404E-01 0.12500011E+03</pdfrwt>
<totfact> 0.10352480E+04</totfact>
</mgrwt>
</event>
<event>
 5    1  0.3321169E-002  0.1250020E+03  0.7818608E-02  0.1235066E+00
         -4   -1    0    0    0  501 -0.00000000000E+00  0.00000000000E+00  0.32377481520E+03  0.32377730596E+03  0.12700000000E+01 0. -1.
          4   -1    0    0  501    0  0.00000000000E+00 -0.00000000000E+00 -0.12029129774E+02  0.12095985413E+02  0.12700000000E+01 0. -1.
         25    2    1    2    0    0  0.00000000000E+00  0.00000000000E+00  0.31174568542E+03  0.33587329138E+03  0.12500198190E+03 0.  0.
    9000005    1    3    3    0    0  0.24488635045E+01  0.50558801649E+02  0.25434793789E+03  0.25933773899E+03  0.10000000000E+01 0.  0.
    9000005    1    3    3    0    0 -0.24488635045E+01 -0.50558801649E+02  0.57397747530E+02  0.76535552380E+02  0.10000000000E+01 0.  0.
<mgrwt>
<rscale>  0 0.12500198E+03</rscale>
<asrwt>0</asrwt>
<pdfrwt beam="2">  1        4 0.18559699E-02 0.12500198E+03</pdfrwt>
<pdfrwt beam="1">  1       -4 0.49816839E-01 0.12500198E+03</pdfrwt>
<totfact> 0.71304019E+03</totfact>
</mgrwt>
</event>
<event>
 5    1  0.3321169E-002  0.1249959E+03  0.7818608E-02  0.1235076E+00
          4   -1    0    0  501    0  0.00000000000E+00  0.00000000000E+00  0.18205976153E+02  0.18250218292E+02  0.12700000000E+01 0. -1.
         -4   -1    0    0    0  501 -0.00000000000E+00 -0.00000000000E+00 -0.21423818024E+03  0.21424194448E+03  0.12700000000E+01 0. -1.
         25    2    1    2    0    0  0.00000000000E+00  0.00000000000E+00 -0.19603220409E+03  0.23249216277E+03  0.12499592277E+03 0.  0.
    9000005    1    3    3    0    0 -0.44670921941E+02  0.72690612658E+00 -0.17928280675E+03  0.18476835350E+03  0.10000000000E+01 0.  0.
    9000005    1    3    3    0    0  0.44670921941E+02 -0.72690612658E+00 -0.16749397334E+02  0.47723809263E+02  0.10000000000E+01 0.  0.
<mgrwt>
<rscale>  0 0.12499592E+03</rscale>
<asrwt>0</asrwt>
<pdfrwt beam="1">  1        4 0.28046124E-02 0.12499592E+03</pdfrwt>
<pdfrwt beam="2">  1       -4 0.32963411E-01 0.12499592E+03</pdfrwt>
<totfact> 0.84936112E+03</totfact>
</mgrwt>
</event>
<event>
 5    1  0.3321169E-002  0.1249990E+03  0.7818608E-02  0.1235071E+00
         -4   -1    0    0    0  501 -0.00000000000E+00  0.00000000000E+00  0.52349137296E+02  0.52364540250E+02  0.12700000000E+01 0. -1.
          4   -1    0    0  501    0  0.00000000000E+00 -0.00000000000E+00 -0.74586221482E+02  0.74597033017E+02  0.12700000000E+01 0. -1.
         25    2    1    2    0    0  0.00000000000E+00  0.00000000000E+00 -0.22237084186E+02  0.12696157327E+03  0.12499901269E+03 0.  0.
    9000005    1    3    3    0    0 -0.33667028693E+02 -0.51906338351E+02 -0.20057371748E+02  0.65046406076E+02  0.10000000000E+01 0.  0.
    9000005    1    3    3    0    0  0.33667028693E+02  0.51906338351E+02 -0.21797124376E+01  0.61915167191E+02  0.10000000000E+01 0.  0.
<mgrwt>
<rscale>  0 0.12499901E+03</rscale>
<asrwt>0</asrwt>
<pdfrwt beam="2">  1        4 0.11476820E-01 0.12499901E+03</pdfrwt>
<pdfrwt beam="1">  1       -4 0.80557299E-02 0.12499901E+03</pdfrwt>
<totfact> 0.10410213E+04</totfact>
</mgrwt>
</event>
<event>
 5    1  0.3321169E-002  0.1249992E+03  0.7818608E-02  0.1235071E+00
         -4   -1    0    0    0  501 -0.00000000000E+00  0.00000000000E+00  0.29232352376E+03  0.29232628250E+03  0.12700000000E+01 0.  1.
          4   -1    0    0  501    0  0.00000000000E+00 -0.00000000000E+00 -0.13329580201E+02  0.13389944299E+02  0.12700000000E+01 0.  1.
         25    2    1    2    0    0  0.00000000000E+00  0.00000000000E+00  0.27899394356E+03  0.30571622680E+03  0.12499916315E+03 0.  0.
    9000005    1    3    3    0    0 -0.21576496578E+02 -0.56324199420E+02  0.17947853052E+03  0.18934493276E+03  0.10000000000E+01 0.  0.
    9000005    1    3    3    0    0  0.21576496578E+02  0.56324199420E+02  0.99515413035E+02  0.11637129404E+03  0.10000000000E+01 0.  0.
<mgrwt>
<rscale>  0 0.12499916E+03</rscale>
<asrwt>0</asrwt>
<pdfrwt beam="2">  1        4 0.20555604E-02 0.12499916E+03</pdfrwt>
<pdfrwt beam="1">  1       -4 0.44977701E-01 0.12499916E+03</pdfrwt>
<totfact> 0.74888747E+03</totfact>
</mgrwt>
</event>
<event>
 5    1  0.3321169E-002  0.1250274E+03  0.7818608E-02  0.1235027E+00
         -4   -1    0    0    0  501 -0.00000000000E+00  0.00000000000E+00  0.15839133247E+04  0.15839138339E+04  0.12700000000E+01 0.  1.
          4   -1    0    0  501    0  0.00000000000E+00 -0.00000000000E+00 -0.23033097325E+01  0.26302349180E+01  0.12700000000E+01 0.  1.
         25    2    1    2    0    0  0.00000000000E+00  0.00000000000E+00  0.15816100150E+04  0.15865440688E+04  0.12502736780E+03 0.  0.
    9000005    1    3    3    0    0  0.29695959418E+02  0.52927914117E+02  0.60099231446E+03  0.60404964708E+03  0.10000000000E+01 0.  0.
    9000005    1    3    3    0    0 -0.29695959418E+02 -0.52927914117E+02  0.98061770055E+03  0.98249442173E+03  0.10000000000E+01 0.  0.
<mgrwt>
<rscale>  0 0.12502737E+03</rscale>
<asrwt>0</asrwt>
<pdfrwt beam="2">  1        4 0.37954269E-03 0.12502737E+03</pdfrwt>
<pdfrwt beam="1">  1       -4 0.24370410E+00 0.12502737E+03</pdfrwt>
<totfact> 0.16280750E+03</totfact>
</mgrwt>
</event>
<event>
 5    1  0.3321169E-002  0.1250022E+03  0.7818608E-02  0.1235066E+00
         -4   -1    0    0    0  501 -0.00000000000E+00  0.00000000000E+00  0.12290385931E+03  0.12291042077E+03  0.12700000000E+01 0.  1.
          4   -1    0    0  501    0  0.00000000000E+00 -0.00000000000E+00 -0.31763986280E+02  0.31789364957E+02  0.12700000000E+01 0.  1.
         25    2    1    2    0    0  0.00000000000E+00  0.00000000000E+00  0.91139873034E+02  0.15469978573E+03  0.12500218897E+03 0.  0.
    9000005    1    3    3    0    0 -0.81311809906E+01  0.20233917482E+02  0.11804861159E+03  0.12004999883E+03  0.10000000000E+01 0.  0.
    9000005    1    3    3    0    0  0.81311809906E+01 -0.20233917482E+02 -0.26908738559E+02  0.34649786894E+02  0.10000000000E+01 0.  0.
<mgrwt>
<rscale>  0 0.12500219E+03</rscale>
<asrwt>0</asrwt>
<pdfrwt beam="2">  1        4 0.48892241E-02 0.12500219E+03</pdfrwt>
<pdfrwt beam="1">  1       -4 0.18910743E-01 0.12500219E+03</pdfrwt>
<totfact> 0.98369624E+03</totfact>
</mgrwt>
</event>
<event>
 5    1  0.3321169E-002  0.1249983E+03  0.7818608E-02  0.1235072E+00
          4   -1    0    0  501    0  0.00000000000E+00  0.00000000000E+00  0.51726528385E+02  0.51742116683E+02  0.12700000000E+01 0.  1.
         -4   -1    0    0    0  501 -0.00000000000E+00 -0.00000000000E+00 -0.75482984578E+02  0.75493667687E+02  0.12700000000E+01 0.  1.
         25    2    1    2    0    0  0.00000000000E+00  0.00000000000E+00 -0.23756456193E+02  0.12723578437E+03  0.12499830244E+03 0.  0.
    9000005    1    3    3    0    0  0.52831881807E+02 -0.31329749968E+02 -0.16649520111E+00  0.61431170337E+02  0.10000000000E+01 0.  0.
    9000005    1    3    3    0    0 -0.52831881807E+02  0.31329749968E+02 -0.23589960992E+02  0.65804614032E+02  0.10000000000E+01 0.  0.
<mgrwt>
<rscale>  0 0.12499830E+03</rscale>
<asrwt>0</asrwt>
<pdfrwt beam="1">  1        4 0.79599483E-02 0.12499830E+03</pdfrwt>
<pdfrwt beam="2">  1       -4 0.11614788E-01 0.12499830E+03</pdfrwt>
<totfact> 0.10404426E+04</totfact>
</mgrwt>
</event>
<event>
 5    1  0.3321169E-002  0.1249988E+03  0.7818608E-02  0.1235071E+00
          4   -1    0    0  501    0  0.00000000000E+00  0.00000000000E+00  0.18484242042E+03  0.18484678327E+03  0.12700000000E+01 0.  1.
         -4   -1    0    0    0  501 -0.00000000000E+00 -0.00000000000E+00 -0.21108776546E+02  0.21146946524E+02  0.12700000000E+01 0.  1.
         25    2    1    2    0    0  0.00000000000E+00  0.00000000000E+00  0.16373364387E+03  0.20599372980E+03  0.12499884231E+03 0.  0.
    9000005    1    3    3    0    0  0.13006211273E+02  0.23489135486E+02 -0.11126851800E+02  0.29081056524E+02  0.10000000000E+01 0.  0.
    9000005    1    3    3    0    0 -0.13006211273E+02 -0.23489135486E+02  0.17486049567E+03  0.17691267327E+03  0.10000000000E+01 0.  0.
<mgrwt>
<rscale>  0 0.12499884E+03</rscale>
<asrwt>0</asrwt>
<pdfrwt beam="1">  1        4 0.28440567E-01 0.12499884E+03</pdfrwt>
<pdfrwt beam="2">  1       -4 0.32507759E-02 0.12499884E+03</pdfrwt>
<totfact> 0.89136673E+03</totfact>
</mgrwt>
</event>
<event>
 5    1  0.3321169E-002  0.1249998E+03  0.7818608E-02  0.1235070E+00
          4   -1    0    0  501    0  0.00000000000E+00  0.00000000000E+00  0.11638750200E+03  0.11639443080E+03  0.12700000000E+01 0. -1.
         -4   -1    0    0    0  501 -0.00000000000E+00 -0.00000000000E+00 -0.33542394896E+02  0.33566428993E+02  0.12700000000E+01 0. -1.
         25    2    1    2    0    0  0.00000000000E+00  0.00000000000E+00  0.82845107101E+02  0.14996085979E+03  0.12499979080E+03 0.  0.
    9000005    1    3    3    0    0  0.30900912572E+02 -0.17317450401E+02  0.10318587024E+03  0.10910125711E+03  0.10000000000E+01 0.  0.
    9000005    1    3    3    0    0 -0.30900912572E+02  0.17317450401E+02 -0.20340763139E+02  0.40859602681E+02  0.10000000000E+01 0.  0.
<mgrwt>
<rscale>  0 0.12499979E+03</rscale>
<asrwt>0</asrwt>
<pdfrwt beam="1">  1        4 0.17908151E-01 0.12499979E+03</pdfrwt>
<pdfrwt beam="2">  1       -4 0.51627502E-02 0.12499979E+03</pdfrwt>
<totfact> 0.99311968E+03</totfact>
</mgrwt>
</event>
<event>
 5    1  0.3321169E-002  0.1250019E+03  0.7818608E-02  0.1235066E+00
          4   -1    0    0  501    0  0.00000000000E+00  0.00000000000E+00  0.34707513609E+02  0.34730741439E+02  0.12700000000E+01 0.  1.
         -4   -1    0    0    0  501 -0.00000000000E+00 -0.00000000000E+00 -0.11248661796E+03  0.11249378703E+03  0.12700000000E+01 0.  1.
         25    2    1    2    0    0  0.00000000000E+00  0.00000000000E+00 -0.77779104350E+02  0.14722452847E+03  0.12500189082E+03 0.  0.
    9000005    1    3    3    0    0  0.49231274471E+02  0.29629709566E+02 -0.67828651135E+02  0.88900866080E+02  0.10000000000E+01 0.  0.
    9000005    1    3    3    0    0 -0.49231274471E+02 -0.29629709566E+02 -0.99504532158E+01  0.58323662387E+02  0.10000000000E+01 0.  0.
<mgrwt>
<rscale>  0 0.12500189E+03</rscale>
<asrwt>0</asrwt>
<pdfrwt beam="1">  1        4 0.53419558E-02 0.12500189E+03</pdfrwt>
<pdfrwt beam="2">  1       -4 0.17307972E-01 0.12500189E+03</pdfrwt>
<totfact> 0.99855601E+03</totfact>
</mgrwt>
</event>
<event>
 5    1  0.3321169E-002  0.1249994E+03  0.7818608E-02  0.1235070E+00
         -4   -1    0    0    0  501 -0.00000000000E+00  0.00000000000E+00  0.85174560502E+02  0.85184028178E+02  0.12700000000E+01 0. -1.
          4   -1    0    0  501    0  0.00000000000E+00 -0.00000000000E+00 -0.45840417291E+02  0.45858006471E+02  0.12700000000E+01 0. -1.
         25    2    1    2    0    0  0.00000000000E+00  0.00000000000E+00  0.39334143210E+02  0.13104203465E+03  0.12499936009E+03 0.  0.
    9000005    1    3    3    0    0  0.45095841799E+01 -0.54809492732E+02  0.50779922325E+02  0.74859985001E+02  0.10000000000E+01 0.  0.
    9000005    1    3    3    0    0 -0.45095841799E+01  0.54809492732E+02 -0.11445779115E+02  0.56182049648E+02  0.10000000000E+01 0.  0.
<mgrwt>
<rscale>  0 0.12499936E+03</rscale>
<asrwt>0</asrwt>
<pdfrwt beam="2">  1        4 0.70544532E-02 0.12499936E+03</pdfrwt>
<pdfrwt beam="1">  1       -4 0.13105860E-01 0.12499936E+03</pdfrwt>
<totfact> 0.10322337E+04</totfact>
</mgrwt>
</event>
<event>
 5    1  0.3321169E-002  0.1250010E+03  0.7818608E-02  0.1235068E+00
          4   -1    0    0  501    0  0.00000000000E+00  0.00000000000E+00  0.11405735041E+02  0.11476222890E+02  0.12700000000E+01 0.  1.
         -4   -1    0    0    0  501 -0.00000000000E+00 -0.00000000000E+00 -0.34135995343E+03  0.34136231589E+03  0.12700000000E+01 0.  1.
         25    2    1    2    0    0  0.00000000000E+00  0.00000000000E+00 -0.32995421839E+03  0.35283853878E+03  0.12500099284E+03 0.  0.
    9000005    1    3    3    0    0  0.44569024948E+02 -0.45407325234E+01 -0.28795994348E+03  0.29142571144E+03  0.10000000000E+01 0.  0.
    9000005    1    3    3    0    0 -0.44569024948E+02  0.45407325234E+01 -0.41994274909E+02  0.61412827339E+02  0.10000000000E+01 0.  0.
<mgrwt>
<rscale>  0 0.12500099E+03</rscale>
<asrwt>0</asrwt>
<pdfrwt beam="1">  1        4 0.17603326E-02 0.12500099E+03</pdfrwt>
<pdfrwt beam="2">  1       -4 0.52522512E-01 0.12500099E+03</pdfrwt>
<totfact> 0.69411885E+03</totfact>
</mgrwt>
</event>
<event>
 5    1  0.3321169E-002  0.1250116E+03  0.7818608E-02  0.1235051E+00
          4   -1    0    0  501    0  0.00000000000E+00  0.00000000000E+00  0.19019381841E+02  0.19061736165E+02  0.12700000000E+01 0. -1.
         -4   -1    0    0    0  501 -0.00000000000E+00 -0.00000000000E+00 -0.20514790921E+03  0.20515184024E+03  0.12700000000E+01 0. -1.
         25    2    1    2    0    0  0.00000000000E+00  0.00000000000E+00 -0.18612852737E+03  0.22421357640E+03  0.12501159603E+03 0.  0.
    9000005    1    3    3    0    0  0.25335060987E+02  0.23633876099E+02  0.22664814575E+00  0.34662325139E+02  0.10000000000E+01 0.  0.
    9000005    1    3    3    0    0 -0.25335060987E+02 -0.23633876099E+02 -0.18635517551E+03  0.18955125126E+03  0.10000000000E+01 0.  0.
<mgrwt>
<rscale>  0 0.12501160E+03</rscale>
<asrwt>0</asrwt>
<pdfrwt beam="1">  1        4 0.29296193E-02 0.12501160E+03</pdfrwt>
<pdfrwt beam="2">  1       -4 0.31564776E-01 0.12501160E+03</pdfrwt>
<totfact> 0.86183651E+03</totfact>
</mgrwt>
</event>
<event>
 5    1  0.3321169E-002  0.1250016E+03  0.7818608E-02  0.1235067E+00
          4   -1    0    0  501    0  0.00000000000E+00  0.00000000000E+00  0.46558013877E+02  0.46575332056E+02  0.12700000000E+01 0.  1.
         -4   -1    0    0    0  501 -0.00000000000E+00 -0.00000000000E+00 -0.83865094744E+02  0.83874710231E+02  0.12700000000E+01 0.  1.
         25    2    1    2    0    0  0.00000000000E+00  0.00000000000E+00 -0.37307080867E+02  0.13045004229E+03  0.12500158099E+03 0.  0.
    9000005    1    3    3    0    0  0.43053435403E+02  0.44528265427E+02 -0.99858540359E+01  0.62746171220E+02  0.10000000000E+01 0.  0.
    9000005    1    3    3    0    0 -0.43053435403E+02 -0.44528265427E+02 -0.27321226831E+02  0.67703871067E+02  0.10000000000E+01 0.  0.
<mgrwt>
<rscale>  0 0.12500158E+03</rscale>
<asrwt>0</asrwt>
<pdfrwt beam="1">  1        4 0.71648432E-02 0.12500158E+03</pdfrwt>
<pdfrwt beam="2">  1       -4 0.12904394E-01 0.12500158E+03</pdfrwt>
<totfact> 0.10334521E+04</totfact>
</mgrwt>
</event>
<event>
 5    1  0.3321169E-002  0.1250009E+03  0.7818608E-02  0.1235068E+00
         -4   -1    0    0    0  501 -0.00000000000E+00  0.00000000000E+00  0.12868339418E+03  0.12868966096E+03  0.12700000000E+01 0. -1.
          4   -1    0    0  501    0  0.00000000000E+00 -0.00000000000E+00 -0.30335645051E+02  0.30362217651E+02  0.12700000000E+01 0. -1.
         25    2    1    2    0    0  0.00000000000E+00  0.00000000000E+00  0.98347749131E+02  0.15905187861E+03  0.12500088132E+03 0.  0.
    9000005    1    3    3    0    0  0.75422410671E+01 -0.62010804782E+02  0.51406855734E+02  0.80906675414E+02  0.10000000000E+01 0.  0.
    9000005    1    3    3    0    0 -0.75422410671E+01  0.62010804782E+02  0.46940893397E+02  0.78145203198E+02  0.10000000000E+01 0.  0.
<mgrwt>
<rscale>  0 0.12500088E+03</rscale>
<asrwt>0</asrwt>
<pdfrwt beam="2">  1        4 0.46695484E-02 0.12500088E+03</pdfrwt>
<pdfrwt beam="1">  1       -4 0.19799972E-01 0.12500088E+03</pdfrwt>
<totfact> 0.97523955E+03</totfact>
</mgrwt>
</event>
<event>
 5    1  0.3321169E-002  0.1250053E+03  0.7818608E-02  0.1235061E+00
          4   -1    0    0  501    0  0.00000000000E+00  0.00000000000E+00  0.27019475692E+03  0.27019774160E+03  0.12700000000E+01 0.  1.
         -4   -1    0    0    0  501 -0.00000000000E+00 -0.00000000000E+00 -0.14427440935E+02  0.14483230024E+02  0.12700000000E+01 0.  1.
         25    2    1    2    0    0  0.00000000000E+00  0.00000000000E+00  0.25576731598E+03  0.28468097163E+03  0.12500534261E+03 0.  0.
    9000005    1    3    3    0    0  0.28319499191E+02 -0.21508634602E+02  0.24491750400E+03  0.24748777578E+03  0.10000000000E+01 0.  0.
    9000005    1    3    3    0    0 -0.28319499191E+02  0.21508634602E+02  0.10849811984E+02  0.37193195843E+02  0.10000000000E+01 0.  0.
<mgrwt>
<rscale>  0 0.12500534E+03</rscale>
<asrwt>0</asrwt>
<pdfrwt beam="1">  1        4 0.41572947E-01 0.12500534E+03</pdfrwt>
<pdfrwt beam="2">  1       -4 0.22241273E-02 0.12500534E+03</pdfrwt>
<totfact> 0.77552298E+03</totfact>
</mgrwt>
</event>
<event>
 5    1  0.3321169E-002  0.1249998E+03  0.7818608E-02  0.1235070E+00
         -4   -1    0    0    0  501 -0.00000000000E+00  0.00000000000E+00  0.14277299441E+02  0.14333672918E+02  0.12700000000E+01 0.  1.
          4   -1    0    0  501    0  0.00000000000E+00 -0.00000000000E+00 -0.27300097520E+03  0.27300392920E+03  0.12700000000E+01 0.  1.
         25    2    1    2    0    0  0.00000000000E+00  0.00000000000E+00 -0.25872367576E+03  0.28733760212E+03  0.12499982878E+03 0.  0.
    9000005    1    3    3    0    0  0.43902988303E+02  0.10592840764E+02 -0.22864771974E+03  0.23306750181E+03  0.10000000000E+01 0.  0.
    9000005    1    3    3    0    0 -0.43902988303E+02 -0.10592840764E+02 -0.30075956018E+02  0.54270100311E+02  0.10000000000E+01 0.  0.
<mgrwt>
<rscale>  0 0.12499983E+03</rscale>
<asrwt>0</asrwt>
<pdfrwt beam="2">  1        4 0.42004710E-01 0.12499983E+03</pdfrwt>
<pdfrwt beam="1">  1       -4 0.22010715E-02 0.12499983E+03</pdfrwt>
<totfact> 0.77215440E+03</totfact>
</mgrwt>
</event>
<event>
 5    1  0.3321169E-002  0.1250176E+03  0.7818608E-02  0.1235042E+00
          4   -1    0    0  501    0  0.00000000000E+00  0.00000000000E+00  0.89705758153E+01  0.90600292747E+01  0.12700000000E+01 0.  1.
         -4   -1    0    0    0  501 -0.00000000000E+00 -0.00000000000E+00 -0.43332269941E+03  0.43332456049E+03  0.12700000000E+01 0.  1.
         25    2    1    2    0    0  0.00000000000E+00  0.00000000000E+00 -0.42435212360E+03  0.44238458977E+03  0.12501760061E+03 0.  0.
    9000005    1    3    3    0    0  0.77113433196E+01 -0.55918381114E+02 -0.11722472213E+03  0.13011135861E+03  0.10000000000E+01 0.  0.
    9000005    1    3    3    0    0 -0.77113433196E+01  0.55918381114E+02 -0.30712740147E+03  0.31227323116E+03  0.10000000000E+01 0.  0.
<mgrwt>
<rscale>  0 0.12501760E+03</rscale>
<asrwt>0</asrwt>
<pdfrwt beam="1">  1        4 0.13871131E-02 0.12501760E+03</pdfrwt>
<pdfrwt beam="2">  1       -4 0.66672039E-01 0.12501760E+03</pdfrwt>
<totfact> 0.60605721E+03</totfact>
</mgrwt>
</event>
<event>
 5    1  0.3321169E-002  0.1250003E+03  0.7818608E-02  0.1235069E+00
         -4   -1    0    0    0  501 -0.00000000000E+00  0.00000000000E+00  0.24913552803E+03  0.24913876501E+03  0.12700000000E+01 0. -1.
          4   -1    0    0  501    0  0.00000000000E+00 -0.00000000000E+00 -0.15650232821E+02  0.15701677851E+02  0.12700000000E+01 0. -1.
         25    2    1    2    0    0  0.00000000000E+00  0.00000000000E+00  0.23348529521E+03  0.26484044286E+03  0.12500030837E+03 0.  0.
    9000005    1    3    3    0    0 -0.43189731745E+02 -0.28294907136E+02  0.42155499884E+02  0.66663639778E+02  0.10000000000E+01 0.  0.
    9000005    1    3    3    0    0  0.43189731745E+02  0.28294907136E+02  0.19132979533E+03  0.19817680308E+03  0.10000000000E+01 0.  0.
<mgrwt>
<rscale>  0 0.12500031E+03</rscale>
<asrwt>0</asrwt>
<pdfrwt beam="2">  1        4 0.24119345E-02 0.12500031E+03</pdfrwt>
<pdfrwt beam="1">  1       -4 0.38332749E-01 0.12500031E+03</pdfrwt>
<totfact> 0.80230985E+03</totfact>
</mgrwt>
</event>
<event>
 5    1  0.3321169E-002  0.1249914E+03  0.7818608E-02  0.1235083E+00
          4   -1    0    0  501    0  0.00000000000E+00  0.00000000000E+00  0.11837689620E+02  0.11905620334E+02  0.12700000000E+01 0.  1.
         -4   -1    0    0    0  501 -0.00000000000E+00 -0.00000000000E+00 -0.32892538770E+03  0.32892783946E+03  0.12700000000E+01 0.  1.
         25    2    1    2    0    0  0.00000000000E+00  0.00000000000E+00 -0.31708769808E+03  0.34083345980E+03  0.12499135587E+03 0.  0.
    9000005    1    3    3    0    0 -0.16603593495E+02  0.10614990981E+02  0.31555630076E+01  0.19982865870E+02  0.10000000000E+01 0.  0.
    9000005    1    3    3    0    0  0.16603593495E+02 -0.10614990981E+02 -0.32024326109E+03  0.32085059393E+03  0.10000000000E+01 0.  0.
<mgrwt>
<rscale>  0 0.12499136E+03</rscale>
<asrwt>0</asrwt>
<pdfrwt beam="1">  1        4 0.18265973E-02 0.12499136E+03</pdfrwt>
<pdfrwt beam="2">  1       -4 0.50609313E-01 0.12499136E+03</pdfrwt>
<totfact> 0.70758445E+03</totfact>
</mgrwt>
</event>
<event>
 5    1  0.3321169E-002  0.1249975E+03  0.7818608E-02  0.1235073E+00
          4   -1    0    0  501    0  0.00000000000E+00  0.00000000000E+00  0.65799027510E+01  0.67013446571E+01  0.12700000000E+01 0.  1.
         -4   -1    0    0    0  501 -0.00000000000E+00 -0.00000000000E+00 -0.58808973959E+03  0.58809111089E+03  0.12700000000E+01 0.  1.
         25    2    1    2    0    0  0.00000000000E+00  0.00000000000E+00 -0.58150983684E+03  0.59479245555E+03  0.12499749933E+03 0.  0.
    9000005    1    3    3    0    0 -0.57008225188E+02  0.22421050076E+02 -0.23200173824E+03  0.23995509532E+03  0.10000000000E+01 0.  0.
    9000005    1    3    3    0    0  0.57008225188E+02 -0.22421050076E+02 -0.34950809860E+03  0.35483736023E+03  0.10000000000E+01 0.  0.
<mgrwt>
<rscale>  0 0.12499750E+03</rscale>
<asrwt>0</asrwt>
<pdfrwt beam="1">  1        4 0.10217404E-02 0.12499750E+03</pdfrwt>
<pdfrwt beam="2">  1       -4 0.90484750E-01 0.12499750E+03</pdfrwt>
<totfact> 0.49200699E+03</totfact>
</mgrwt>
</event>
<event>
 5    1  0.3321169E-002  0.1249973E+03  0.7818608E-02  0.1235073E+00
          4   -1    0    0  501    0  0.00000000000E+00  0.00000000000E+00  0.69254710130E+03  0.69254826576E+03  0.12700000000E+01 0. -1.
         -4   -1    0    0    0  501 -0.00000000000E+00 -0.00000000000E+00 -0.55674951351E+01  0.57105080404E+01  0.12700000000E+01 0. -1.
         25    2    1    2    0    0  0.00000000000E+00  0.00000000000E+00  0.68697960616E+03  0.69825877380E+03  0.12499734363E+03 0.  0.
    9000005    1    3    3    0    0 -0.56112342236E+01 -0.57169489360E+02  0.48091998627E+03  0.48433962222E+03  0.10000000000E+01 0.  0.
    9000005    1    3    3    0    0  0.56112342236E+01  0.57169489360E+02  0.20605961990E+03  0.21391915158E+03  0.10000000000E+01 0.  0.
<mgrwt>
<rscale>  0 0.12499734E+03</rscale>
<asrwt>0</asrwt>
<pdfrwt beam="1">  1        4 0.10655682E+00 0.12499734E+03</pdfrwt>
<pdfrwt beam="2">  1       -4 0.86762808E-03 0.12499734E+03</pdfrwt>
<totfact> 0.43181266E+03</totfact>
</mgrwt>
</event>
<event>
 5    1  0.3321169E-002  0.1249964E+03  0.7818608E-02  0.1235075E+00
         -4   -1    0    0    0  501 -0.00000000000E+00  0.00000000000E+00  0.15925149421E+03  0.15925655813E+03  0.12700000000E+01 0. -1.
          4   -1    0    0  501    0  0.00000000000E+00 -0.00000000000E+00 -0.24505521021E+02  0.24538407865E+02  0.12700000000E+01 0. -1.
         25    2    1    2    0    0  0.00000000000E+00  0.00000000000E+00  0.13474597319E+03  0.18379496600E+03  0.12499644889E+03 0.  0.
    9000005    1    3    3    0    0 -0.25221728517E+02 -0.16011881195E+02 -0.13331994358E+02  0.32730077946E+02  0.10000000000E+01 0.  0.
    9000005    1    3    3    0    0  0.25221728517E+02  0.16011881195E+02  0.14807796755E+03  0.15106488805E+03  0.10000000000E+01 0.  0.
<mgrwt>
<rscale>  0 0.12499645E+03</rscale>
<asrwt>0</asrwt>
<pdfrwt beam="2">  1        4 0.37729996E-02 0.12499645E+03</pdfrwt>
<pdfrwt beam="1">  1       -4 0.24503148E-01 0.12499645E+03</pdfrwt>
<totfact> 0.92945721E+03</totfact>
</mgrwt>
</event>
<event>
 5    1  0.3321169E-002  0.1250032E+03  0.7818608E-02  0.1235064E+00
         -4   -1    0    0    0  501 -0.00000000000E+00  0.00000000000E+00  0.77150876748E+03  0.77150981277E+03  0.12700000000E+01 0.  1.
          4   -1    0    0  501    0  0.00000000000E+00 -0.00000000000E+00 -0.49826922880E+01  0.51419959585E+01  0.12700000000E+01 0.  1.
         25    2    1    2    0    0  0.00000000000E+00  0.00000000000E+00  0.76652607519E+03  0.77665180872E+03  0.12500323216E+03 0.  0.
    9000005    1    3    3    0    0 -0.57296272699E+02  0.91814563239E+01  0.52741258205E+03  0.53059607397E+03  0.10000000000E+01 0.  0.
    9000005    1    3    3    0    0  0.57296272699E+02 -0.91814563239E+01  0.23911349314E+03  0.24605573475E+03  0.10000000000E+01 0.  0.
<mgrwt>
<rscale>  0 0.12500323E+03</rscale>
<asrwt>0</asrwt>
<pdfrwt beam="2">  1        4 0.77890238E-03 0.12500323E+03</pdfrwt>
<pdfrwt beam="1">  1       -4 0.11870602E+00 0.12500323E+03</pdfrwt>
<totfact> 0.39325740E+03</totfact>
</mgrwt>
</event>
<event>
 5    1  0.3321169E-002  0.1250037E+03  0.7818608E-02  0.1235063E+00
         -4   -1    0    0    0  501 -0.00000000000E+00  0.00000000000E+00  0.31066470043E+03  0.31066729630E+03  0.12700000000E+01 0. -1.
          4   -1    0    0  501    0  0.00000000000E+00 -0.00000000000E+00 -0.12539874578E+02  0.12604021360E+02  0.12700000000E+01 0. -1.
         25    2    1    2    0    0  0.00000000000E+00  0.00000000000E+00  0.29812482585E+03  0.32327131766E+03  0.12500373209E+03 0.  0.
    9000005    1    3    3    0    0  0.15978994703E+02  0.86863348202E+01  0.30368187235E+03  0.30422764548E+03  0.10000000000E+01 0.  0.
    9000005    1    3    3    0    0 -0.15978994703E+02 -0.86863348202E+01 -0.55570464964E+01  0.19043672180E+02  0.10000000000E+01 0.  0.
<mgrwt>
<rscale>  0 0.12500373E+03</rscale>
<asrwt>0</asrwt>
<pdfrwt beam="2">  1        4 0.19343457E-02 0.12500373E+03</pdfrwt>
<pdfrwt beam="1">  1       -4 0.47799699E-01 0.12500373E+03</pdfrwt>
<totfact> 0.72762710E+03</totfact>
</mgrwt>
</event>
<event>
 5    1  0.3321169E-002  0.1250010E+03  0.7818608E-02  0.1235068E+00
         -4   -1    0    0    0  501 -0.00000000000E+00  0.00000000000E+00  0.52782687461E+03  0.52782840248E+03  0.12700000000E+01 0. -1.
          4   -1    0    0  501    0  0.00000000000E+00 -0.00000000000E+00 -0.73447103684E+01  0.74537017914E+01  0.12700000000E+01 0. -1.
         25    2    1    2    0    0  0.00000000000E+00  0.00000000000E+00  0.52048216425E+03  0.53528210427E+03  0.12500099142E+03 0.  0.
    9000005    1    3    3    0    0 -0.54003130606E+02  0.27721433491E+02  0.19665389723E+03  0.20581198042E+03  0.10000000000E+01 0.  0.
    9000005    1    3    3    0    0  0.54003130606E+02 -0.27721433491E+02  0.32382826702E+03  0.32947012385E+03  0.10000000000E+01 0.  0.
<mgrwt>
<rscale>  0 0.12500099E+03</rscale>
<asrwt>0</asrwt>
<pdfrwt beam="2">  1        4 0.11384569E-02 0.12500099E+03</pdfrwt>
<pdfrwt beam="1">  1       -4 0.81212641E-01 0.12500099E+03</pdfrwt>
<totfact> 0.53226025E+03</totfact>
</mgrwt>
</event>
<event>
 5    1  0.3321169E-002  0.1249994E+03  0.7818608E-02  0.1235070E+00
         -4   -1    0    0    0  501 -0.00000000000E+00  0.00000000000E+00  0.65873487688E+02  0.65885728957E+02  0.12700000000E+01 0. -1.
          4   -1    0    0  501    0  0.00000000000E+00 -0.00000000000E+00 -0.59274117196E+02  0.59287721067E+02  0.12700000000E+01 0. -1.
         25    2    1    2    0    0  0.00000000000E+00  0.00000000000E+00  0.65993704923E+01  0.12517345002E+03  0.12499936360E+03 0.  0.
    9000005    1    3    3    0    0 -0.19258143562E+02  0.56334101002E+02 -0.15721589049E+02  0.61583889057E+02  0.10000000000E+01 0.  0.
    9000005    1    3    3    0    0  0.19258143562E+02 -0.56334101002E+02  0.22320959541E+02  0.63589560967E+02  0.10000000000E+01 0.  0.
<mgrwt>
<rscale>  0 0.12499936E+03</rscale>
<asrwt>0</asrwt>
<pdfrwt beam="2">  1        4 0.91210831E-02 0.12499936E+03</pdfrwt>
<pdfrwt beam="1">  1       -4 0.10136371E-01 0.12499936E+03</pdfrwt>
<totfact> 0.10449247E+04</totfact>
</mgrwt>
</event>
<event>
 5    1  0.3321169E-002  0.1249976E+03  0.7818608E-02  0.1235073E+00
          4   -1    0    0  501    0  0.00000000000E+00  0.00000000000E+00  0.24174070847E+02  0.24207407984E+02  0.12700000000E+01 0. -1.
         -4   -1    0    0    0  501 -0.00000000000E+00 -0.00000000000E+00 -0.16143499647E+03  0.16143999190E+03  0.12700000000E+01 0. -1.
         25    2    1    2    0    0  0.00000000000E+00  0.00000000000E+00 -0.13726092562E+03  0.18564739989E+03  0.12499758150E+03 0.  0.
    9000005    1    3    3    0    0  0.31602255232E+02 -0.60387965586E+01 -0.14819560730E+03  0.15165126977E+03  0.10000000000E+01 0.  0.
    9000005    1    3    3    0    0 -0.31602255232E+02  0.60387965586E+01  0.10934681676E+02  0.33996130117E+02  0.10000000000E+01 0.  0.
<mgrwt>
<rscale>  0 0.12499758E+03</rscale>
<asrwt>0</asrwt>
<pdfrwt beam="1">  1        4 0.37220366E-02 0.12499758E+03</pdfrwt>
<pdfrwt beam="2">  1       -4 0.24839101E-01 0.12499758E+03</pdfrwt>
<totfact> 0.92615237E+03</totfact>
</mgrwt>
</event>
<event>
 5    1  0.3321169E-002  0.1250063E+03  0.7818608E-02  0.1235059E+00
          4   -1    0    0  501    0  0.00000000000E+00  0.00000000000E+00  0.25988223833E+02  0.26019236691E+02  0.12700000000E+01 0.  1.
         -4   -1    0    0    0  501 -0.00000000000E+00 -0.00000000000E+00 -0.15020026226E+03  0.15020563133E+03  0.12700000000E+01 0.  1.
         25    2    1    2    0    0  0.00000000000E+00  0.00000000000E+00 -0.12421203843E+03  0.17622486802E+03  0.12500629432E+03 0.  0.
    9000005    1    3    3    0    0  0.45010765931E+02  0.36264763024E+02 -0.95601265791E+02  0.11172154720E+03  0.10000000000E+01 0.  0.
    9000005    1    3    3    0    0 -0.45010765931E+02 -0.36264763024E+02 -0.28610772638E+02  0.64503320828E+02  0.10000000000E+01 0.  0.
<mgrwt>
<rscale>  0 0.12500629E+03</rscale>
<asrwt>0</asrwt>
<pdfrwt beam="1">  1        4 0.40009870E-02 0.12500629E+03</pdfrwt>
<pdfrwt beam="2">  1       -4 0.23110531E-01 0.12500629E+03</pdfrwt>
<totfact> 0.94287674E+03</totfact>
</mgrwt>
</event>
<event>
 5    1  0.3321169E-002  0.1249904E+03  0.7818608E-02  0.1235084E+00
         -4   -1    0    0    0  501 -0.00000000000E+00  0.00000000000E+00  0.24239249156E+02  0.24272496774E+02  0.12700000000E+01 0. -1.
          4   -1    0    0  501    0  0.00000000000E+00 -0.00000000000E+00 -0.16098303416E+03  0.16098804362E+03  0.12700000000E+01 0. -1.
         25    2    1    2    0    0  0.00000000000E+00  0.00000000000E+00 -0.13674378500E+03  0.18526054039E+03  0.12499041999E+03 0.  0.
    9000005    1    3    3    0    0  0.62293805659E+02  0.19170634189E+01 -0.61667847824E+02  0.87681906976E+02  0.10000000000E+01 0.  0.
    9000005    1    3    3    0    0 -0.62293805659E+02 -0.19170634189E+01 -0.75075937179E+02  0.97578633414E+02  0.10000000000E+01 0.  0.
<mgrwt>
<rscale>  0 0.12499042E+03</rscale>
<asrwt>0</asrwt>
<pdfrwt beam="2">  1        4 0.24769563E-01 0.12499042E+03</pdfrwt>
<pdfrwt beam="1">  1       -4 0.37320582E-02 0.12499042E+03</pdfrwt>
<totfact> 0.92698468E+03</totfact>
</mgrwt>
</event>
<event>
 5    1  0.3321169E-002  0.1250012E+03  0.7818608E-02  0.1235067E+00
         -4   -1    0    0    0  501 -0.00000000000E+00  0.00000000000E+00  0.71426437134E+02  0.71437726880E+02  0.12700000000E+01 0. -1.
          4   -1    0    0  501    0  0.00000000000E+00 -0.00000000000E+00 -0.54667168822E+02  0.54681918831E+02  0.12700000000E+01 0. -1.
         25    2    1    2    0    0  0.00000000000E+00  0.00000000000E+00  0.16759268312E+02  0.12611964571E+03  0.12500116783E+03 0.  0.
    9000005    1    3    3    0    0 -0.41803624978E+02  0.40534883128E+02 -0.14510434574E+02  0.60018101628E+02  0.10000000000E+01 0.  0.
    9000005    1    3    3    0    0  0.41803624978E+02 -0.40534883128E+02  0.31269702886E+02  0.66101544082E+02  0.10000000000E+01 0.  0.
<mgrwt>
<rscale>  0 0.12500117E+03</rscale>
<asrwt>0</asrwt>
<pdfrwt beam="2">  1        4 0.84123367E-02 0.12500117E+03</pdfrwt>
<pdfrwt beam="1">  1       -4 0.10990686E-01 0.12500117E+03</pdfrwt>
<totfact> 0.10428062E+04</totfact>
</mgrwt>
</event>
<event>
 5    1  0.3321169E-002  0.1249980E+03  0.7818608E-02  0.1235072E+00
         -4   -1    0    0    0  501 -0.00000000000E+00  0.00000000000E+00  0.27690781191E+02  0.27719889303E+02  0.12700000000E+01 0.  1.
          4   -1    0    0  501    0  0.00000000000E+00 -0.00000000000E+00 -0.14095620885E+03  0.14096193002E+03  0.12700000000E+01 0.  1.
         25    2    1    2    0    0  0.00000000000E+00  0.00000000000E+00 -0.11326542766E+03  0.16868181932E+03  0.12499799625E+03 0.  0.
    9000005    1    3    3    0    0  0.25304695201E+02 -0.28397330975E+02 -0.12354263314E+03  0.12926916960E+03  0.10000000000E+01 0.  0.
    9000005    1    3    3    0    0 -0.25304695201E+02  0.28397330975E+02  0.10277205477E+02  0.39412649722E+02  0.10000000000E+01 0.  0.
<mgrwt>
<rscale>  0 0.12499800E+03</rscale>
<asrwt>0</asrwt>
<pdfrwt beam="2">  1        4 0.21688249E-01 0.12499800E+03</pdfrwt>
<pdfrwt beam="1">  1       -4 0.42627994E-02 0.12499800E+03</pdfrwt>
<totfact> 0.95698928E+03</totfact>
</mgrwt>
</event>
<event>
 5    1  0.3321169E-002  0.1250030E+03  0.7818608E-02  0.1235065E+00
          4   -1    0    0  501    0  0.00000000000E+00  0.00000000000E+00  0.10891275185E+03  0.10892015615E+03  0.12700000000E+01 0.  1.
         -4   -1    0    0    0  501 -0.00000000000E+00 -0.00000000000E+00 -0.35847720785E+02  0.35870210280E+02  0.12700000000E+01 0.  1.
         25    2    1    2    0    0  0.00000000000E+00  0.00000000000E+00  0.73065031068E+02  0.14479036643E+03  0.12500300575E+03 0.  0.
    9000005    1    3    3    0    0 -0.96204585419E+01 -0.53511770823E+02  0.84320878563E+00  0.54385419372E+02  0.10000000000E+01 0.  0.
    9000005    1    3    3    0    0  0.96204585419E+01  0.53511770823E+02  0.72221822283E+02  0.90404947061E+02  0.10000000000E+01 0.  0.
<mgrwt>
<rscale>  0 0.12500301E+03</rscale>
<asrwt>0</asrwt>
<pdfrwt beam="1">  1        4 0.16758107E-01 0.12500301E+03</pdfrwt>
<pdfrwt beam="2">  1       -4 0.55173335E-02 0.12500301E+03</pdfrwt>
<totfact> 0.10034570E+04</totfact>
</mgrwt>
</event>
<event>
 5    1  0.3321169E-002  0.1249998E+03  0.7818608E-02  0.1235070E+00
          4   -1    0    0  501    0  0.00000000000E+00  0.00000000000E+00  0.91044601735E+02  0.91053459051E+02  0.12700000000E+01 0.  1.
         -4   -1    0    0    0  501 -0.00000000000E+00 -0.00000000000E+00 -0.42884341448E+02  0.42903142559E+02  0.12700000000E+01 0.  1.
         25    2    1    2    0    0  0.00000000000E+00  0.00000000000E+00  0.48160260287E+02  0.13395660161E+03  0.12499984178E+03 0.  0.
    9000005    1    3    3    0    0 -0.62478133900E+02  0.12370755668E+01  0.23609895644E+02  0.66809241456E+02  0.10000000000E+01 0.  0.
    9000005    1    3    3    0    0  0.62478133900E+02 -0.12370755668E+01  0.24550364643E+02  0.67147360154E+02  0.10000000000E+01 0.  0.
<mgrwt>
<rscale>  0 0.12499984E+03</rscale>
<asrwt>0</asrwt>
<pdfrwt beam="1">  1        4 0.14008989E-01 0.12499984E+03</pdfrwt>
<pdfrwt beam="2">  1       -4 0.65997186E-02 0.12499984E+03</pdfrwt>
<totfact> 0.10260147E+04</totfact>
</mgrwt>
</event>
<event>
 5    1  0.3321169E-002  0.1249996E+03  0.7818608E-02  0.1235070E+00
         -4   -1    0    0    0  501 -0.00000000000E+00  0.00000000000E+00  0.15727952020E+03  0.15728464761E+03  0.12700000000E+01 0.  1.
          4   -1    0    0  501    0  0.00000000000E+00 -0.00000000000E+00 -0.24814410997E+02  0.24846889003E+02  0.12700000000E+01 0.  1.
         25    2    1    2    0    0  0.00000000000E+00  0.00000000000E+00  0.13246510920E+03  0.18213153661E+03  0.12499956589E+03 0.  0.
    9000005    1    3    3    0    0  0.75810369976E+01 -0.31223288302E+02  0.14432942893E+03  0.14786598632E+03  0.10000000000E+01 0.  0.
    9000005    1    3    3    0    0 -0.75810369976E+01  0.31223288302E+02 -0.11864319730E+02  0.34265550295E+02  0.10000000000E+01 0.  0.
<mgrwt>
<rscale>  0 0.12499957E+03</rscale>
<asrwt>0</asrwt>
<pdfrwt beam="2">  1        4 0.38204944E-02 0.12499957E+03</pdfrwt>
<pdfrwt beam="1">  1       -4 0.24199742E-01 0.12499957E+03</pdfrwt>
<totfact> 0.93235628E+03</totfact>
</mgrwt>
</event>
<event>
 5    1  0.3321169E-002  0.1250005E+03  0.7818608E-02  0.1235068E+00
          4   -1    0    0  501    0  0.00000000000E+00  0.00000000000E+00  0.12194243581E+03  0.12194904899E+03  0.12700000000E+01 0.  1.
         -4   -1    0    0    0  501 -0.00000000000E+00 -0.00000000000E+00 -0.32013749789E+02  0.32038930625E+02  0.12700000000E+01 0.  1.
         25    2    1    2    0    0  0.00000000000E+00  0.00000000000E+00  0.89928686016E+02  0.15398797962E+03  0.12500051719E+03 0.  0.
    9000005    1    3    3    0    0 -0.54546218948E+02  0.29984776511E+02  0.51812802667E+02  0.80993477171E+02  0.10000000000E+01 0.  0.
    9000005    1    3    3    0    0  0.54546218948E+02 -0.29984776511E+02  0.38115883348E+02  0.72994502446E+02  0.10000000000E+01 0.  0.
<mgrwt>
<rscale>  0 0.12500052E+03</rscale>
<asrwt>0</asrwt>
<pdfrwt beam="1">  1        4 0.18762820E-01 0.12500052E+03</pdfrwt>
<pdfrwt beam="2">  1       -4 0.49276381E-02 0.12500052E+03</pdfrwt>
<totfact> 0.98513392E+03</totfact>
</mgrwt>
</event>
<event>
 5    1  0.3321169E-002  0.1249997E+03  0.7818608E-02  0.1235070E+00
          4   -1    0    0  501    0  0.00000000000E+00  0.00000000000E+00  0.94062057050E+02  0.94070630255E+02  0.12700000000E+01 0.  1.
         -4   -1    0    0    0  501 -0.00000000000E+00 -0.00000000000E+00 -0.41508031225E+02  0.41527455450E+02  0.12700000000E+01 0.  1.
         25    2    1    2    0    0  0.00000000000E+00  0.00000000000E+00  0.52554025825E+02  0.13559808571E+03  0.12499966087E+03 0.  0.
    9000005    1    3    3    0    0 -0.22023107075E+02  0.10881154807E+02  0.88610424412E+02  0.91957729907E+02  0.10000000000E+01 0.  0.
    9000005    1    3    3    0    0  0.22023107075E+02 -0.10881154807E+02 -0.36056398587E+02  0.43640355798E+02  0.10000000000E+01 0.  0.
<mgrwt>
<rscale>  0 0.12499966E+03</rscale>
<asrwt>0</asrwt>
<pdfrwt beam="1">  1        4 0.14473239E-01 0.12499966E+03</pdfrwt>
<pdfrwt beam="2">  1       -4 0.63880046E-02 0.12499966E+03</pdfrwt>
<totfact> 0.10225558E+04</totfact>
</mgrwt>
</event>
<event>
 5    1  0.3321169E-002  0.1250012E+03  0.7818608E-02  0.1235067E+00
          4   -1    0    0  501    0  0.00000000000E+00  0.00000000000E+00  0.41521791796E+02  0.41541209587E+02  0.12700000000E+01 0.  1.
         -4   -1    0    0    0  501 -0.00000000000E+00 -0.00000000000E+00 -0.94033235200E+02  0.94041811032E+02  0.12700000000E+01 0.  1.
         25    2    1    2    0    0  0.00000000000E+00  0.00000000000E+00 -0.52511443404E+02  0.13558302062E+03  0.12500121516E+03 0.  0.
    9000005    1    3    3    0    0  0.55327139181E+02 -0.20592385922E+02 -0.48489461081E+02  0.76402660450E+02  0.10000000000E+01 0.  0.
    9000005    1    3    3    0    0 -0.55327139181E+02  0.20592385922E+02 -0.40219823232E+01  0.59180360169E+02  0.10000000000E+01 0.  0.
<mgrwt>
<rscale>  0 0.12500122E+03</rscale>
<asrwt>0</asrwt>
<pdfrwt beam="1">  1        4 0.63901213E-02 0.12500122E+03</pdfrwt>
<pdfrwt beam="2">  1       -4 0.14468805E-01 0.12500122E+03</pdfrwt>
<totfact> 0.10225517E+04</totfact>
</mgrwt>
</event>
<event>
 5    1  0.3321169E-002  0.1250019E+03  0.7818608E-02  0.1235066E+00
         -4   -1    0    0    0  501 -0.00000000000E+00  0.00000000000E+00  0.15443730129E+02  0.15495860748E+02  0.12700000000E+01 0.  1.
          4   -1    0    0  501    0  0.00000000000E+00 -0.00000000000E+00 -0.25246225726E+03  0.25246545158E+03  0.12700000000E+01 0.  1.
         25    2    1    2    0    0  0.00000000000E+00  0.00000000000E+00 -0.23701852713E+03  0.26796131233E+03  0.12500193079E+03 0.  0.
    9000005    1    3    3    0    0 -0.41337697665E+02  0.72381453163E+01 -0.21777182011E+03  0.22178088653E+03  0.10000000000E+01 0.  0.
    9000005    1    3    3    0    0  0.41337697665E+02 -0.72381453163E+01 -0.19246707025E+02  0.46180425801E+02  0.10000000000E+01 0.  0.
<mgrwt>
<rscale>  0 0.12500193E+03</rscale>
<asrwt>0</asrwt>
<pdfrwt beam="2">  1        4 0.38844600E-01 0.12500193E+03</pdfrwt>
<pdfrwt beam="1">  1       -4 0.23802144E-02 0.12500193E+03</pdfrwt>
<totfact> 0.79798199E+03</totfact>
</mgrwt>
</event>
<event>
 5    1  0.3321169E-002  0.1250012E+03  0.7818608E-02  0.1235067E+00
         -4   -1    0    0    0  501 -0.00000000000E+00  0.00000000000E+00  0.16031196815E+03  0.16031699857E+03  0.12700000000E+01 0. -1.
          4   -1    0    0  501    0  0.00000000000E+00 -0.00000000000E+00 -0.24345042393E+02  0.24378145728E+02  0.12700000000E+01 0. -1.
         25    2    1    2    0    0  0.00000000000E+00  0.00000000000E+00  0.13596692575E+03  0.18469514430E+03  0.12500116571E+03 0.  0.
    9000005    1    3    3    0    0  0.21236803688E+02  0.56043082690E+02  0.41822364841E+02  0.73088570579E+02  0.10000000000E+01 0.  0.
    9000005    1    3    3    0    0 -0.21236803688E+02 -0.56043082690E+02  0.94144560911E+02  0.11160657372E+03  0.10000000000E+01 0.  0.
<mgrwt>
<rscale>  0 0.12500117E+03</rscale>
<asrwt>0</asrwt>
<pdfrwt beam="2">  1        4 0.37483245E-02 0.12500117E+03</pdfrwt>
<pdfrwt beam="1">  1       -4 0.24666313E-01 0.12500117E+03</pdfrwt>
<totfact> 0.92776200E+03</totfact>
</mgrwt>
</event>
<event>
 5    1  0.3321169E-002  0.1250002E+03  0.7818608E-02  0.1235069E+00
         -4   -1    0    0    0  501 -0.00000000000E+00  0.00000000000E+00  0.20626992806E+04  0.20626996715E+04  0.12700000000E+01 0.  1.
          4   -1    0    0  501    0  0.00000000000E+00 -0.00000000000E+00 -0.16804045792E+01  0.21063379476E+01  0.12700000000E+01 0.  1.
         25    2    1    2    0    0  0.00000000000E+00  0.00000000000E+00  0.20610188760E+04  0.20648060095E+04  0.12500019847E+03 0.  0.
    9000005    1    3    3    0    0  0.29246329820E+02  0.30389778811E+02  0.17922175448E+04  0.17927140359E+04  0.10000000000E+01 0.  0.
    9000005    1    3    3    0    0 -0.29246329820E+02 -0.30389778811E+02  0.26880133119E+03  0.27209197363E+03  0.10000000000E+01 0.  0.
<mgrwt>
<rscale>  0 0.12500020E+03</rscale>
<asrwt>0</asrwt>
<pdfrwt beam="2">  1        4 0.29131822E-03 0.12500020E+03</pdfrwt>
<pdfrwt beam="1">  1       -4 0.31737086E+00 0.12500020E+03</pdfrwt>
<totfact> 0.90389372E+02</totfact>
</mgrwt>
</event>
<event>
 5    1  0.3321169E-002  0.1249981E+03  0.7818608E-02  0.1235072E+00
          4   -1    0    0  501    0  0.00000000000E+00  0.00000000000E+00  0.10337882969E+03  0.10338663032E+03  0.12700000000E+01 0.  1.
         -4   -1    0    0    0  501 -0.00000000000E+00 -0.00000000000E+00 -0.37764722980E+02  0.37786071531E+02  0.12700000000E+01 0.  1.
         25    2    1    2    0    0  0.00000000000E+00  0.00000000000E+00  0.65614106710E+02  0.14117270185E+03  0.12499808297E+03 0.  0.
    9000005    1    3    3    0    0  0.56708945134E+02 -0.18126851147E+02  0.11359086725E+02  0.60617786514E+02  0.10000000000E+01 0.  0.
    9000005    1    3    3    0    0 -0.56708945134E+02  0.18126851147E+02  0.54255019985E+02  0.80554915332E+02  0.10000000000E+01 0.  0.
<mgrwt>
<rscale>  0 0.12499808E+03</rscale>
<asrwt>0</asrwt>
<pdfrwt beam="1">  1        4 0.15906678E-01 0.12499808E+03</pdfrwt>
<pdfrwt beam="2">  1       -4 0.58121996E-02 0.12499808E+03</pdfrwt>
<totfact> 0.10109775E+04</totfact>
</mgrwt>
</event>
<event>
 5    1  0.3321169E-002  0.1250102E+03  0.7818608E-02  0.1235053E+00
         -4   -1    0    0    0  501 -0.00000000000E+00  0.00000000000E+00  0.24226292944E+02  0.24259558318E+02  0.12700000000E+01 0. -1.
          4   -1    0    0  501    0  0.00000000000E+00 -0.00000000000E+00 -0.16112008965E+03  0.16112509484E+03  0.12700000000E+01 0. -1.
         25    2    1    2    0    0  0.00000000000E+00  0.00000000000E+00 -0.13689379671E+03  0.18538465316E+03  0.12501023179E+03 0.  0.
    9000005    1    3    3    0    0  0.55213384764E+02  0.21093291504E+02 -0.98563855215E+02  0.11493162471E+03  0.10000000000E+01 0.  0.
    9000005    1    3    3    0    0 -0.55213384764E+02 -0.21093291504E+02 -0.38329941492E+02  0.70453028454E+02  0.10000000000E+01 0.  0.
<mgrwt>
<rscale>  0 0.12501023E+03</rscale>
<asrwt>0</asrwt>
<pdfrwt beam="2">  1        4 0.24790649E-01 0.12501023E+03</pdfrwt>
<pdfrwt beam="1">  1       -4 0.37300660E-02 0.12501023E+03</pdfrwt>
<totfact> 0.92635388E+03</totfact>
</mgrwt>
</event>
<event>
 5    1  0.3321169E-002  0.1249988E+03  0.7818608E-02  0.1235071E+00
          4   -1    0    0  501    0  0.00000000000E+00  0.00000000000E+00  0.16945950538E+02  0.16993473443E+02  0.12700000000E+01 0. -1.
         -4   -1    0    0    0  501 -0.00000000000E+00 -0.00000000000E+00 -0.23013591244E+03  0.23013941664E+03  0.12700000000E+01 0. -1.
         25    2    1    2    0    0  0.00000000000E+00  0.00000000000E+00 -0.21318996190E+03  0.24713289009E+03  0.12499882203E+03 0.  0.
    9000005    1    3    3    0    0 -0.99946909361E+01 -0.60578334195E+01  0.14775702072E+02  0.18865645082E+02  0.10000000000E+01 0.  0.
    9000005    1    3    3    0    0  0.99946909361E+01  0.60578334195E+01 -0.22796566397E+03  0.22826724501E+03  0.10000000000E+01 0.  0.
<mgrwt>
<rscale>  0 0.12499882E+03</rscale>
<asrwt>0</asrwt>
<pdfrwt beam="1">  1        4 0.26109946E-02 0.12499882E+03</pdfrwt>
<pdfrwt beam="2">  1       -4 0.35409448E-01 0.12499882E+03</pdfrwt>
<totfact> 0.82748561E+03</totfact>
</mgrwt>
</event>
<event>
 5    1  0.3321169E-002  0.1249998E+03  0.7818608E-02  0.1235070E+00
          4   -1    0    0  501    0  0.00000000000E+00  0.00000000000E+00  0.61103628086E+02  0.61116824731E+02  0.12700000000E+01 0. -1.
         -4   -1    0    0    0  501 -0.00000000000E+00 -0.00000000000E+00 -0.63901697926E+02  0.63914316845E+02  0.12700000000E+01 0. -1.
         25    2    1    2    0    0  0.00000000000E+00  0.00000000000E+00 -0.27980698396E+01  0.12503114158E+03  0.12499982868E+03 0.  0.
    9000005    1    3    3    0    0  0.39237133287E+02 -0.22934800434E+02  0.41503219121E+02  0.61555461958E+02  0.10000000000E+01 0.  0.
    9000005    1    3    3    0    0 -0.39237133287E+02  0.22934800434E+02 -0.44301288960E+02  0.63475679618E+02  0.10000000000E+01 0.  0.
<mgrwt>
<rscale>  0 0.12499983E+03</rscale>
<asrwt>0</asrwt>
<pdfrwt beam="1">  1        4 0.94025440E-02 0.12499983E+03</pdfrwt>
<pdfrwt beam="2">  1       -4 0.98330163E-02 0.12499983E+03</pdfrwt>
<totfact> 0.10452227E+04</totfact>
</mgrwt>
</event>
<event>
 5    1  0.3321169E-002  0.1249940E+03  0.7818608E-02  0.1235079E+00
          4   -1    0    0  501    0  0.00000000000E+00  0.00000000000E+00  0.63767882900E+02  0.63780528294E+02  0.12700000000E+01 0.  1.
         -4   -1    0    0    0  501 -0.00000000000E+00 -0.00000000000E+00 -0.61226176442E+02  0.61239346680E+02  0.12700000000E+01 0.  1.
         25    2    1    2    0    0  0.00000000000E+00  0.00000000000E+00  0.25417064571E+01  0.12501987497E+03  0.12499403532E+03 0.  0.
    9000005    1    3    3    0    0 -0.47290239945E+02 -0.25950471792E+02  0.32822317541E+02  0.63151391980E+02  0.10000000000E+01 0.  0.
    9000005    1    3    3    0    0  0.47290239945E+02  0.25950471792E+02 -0.30280611084E+02  0.61868482994E+02  0.10000000000E+01 0.  0.
<mgrwt>
<rscale>  0 0.12499404E+03</rscale>
<asrwt>0</asrwt>
<pdfrwt beam="1">  1        4 0.98124293E-02 0.12499404E+03</pdfrwt>
<pdfrwt beam="2">  1       -4 0.94213976E-02 0.12499404E+03</pdfrwt>
<totfact> 0.10453840E+04</totfact>
</mgrwt>
</event>
<event>
 5    1  0.3321169E-002  0.1249988E+03  0.7818608E-02  0.1235071E+00
         -4   -1    0    0    0  501 -0.00000000000E+00  0.00000000000E+00  0.12351575835E+03  0.12352228730E+03  0.12700000000E+01 0.  1.
          4   -1    0    0  501    0  0.00000000000E+00 -0.00000000000E+00 -0.31604794042E+02  0.31630300448E+02  0.12700000000E+01 0.  1.
         25    2    1    2    0    0  0.00000000000E+00  0.00000000000E+00  0.91910964304E+02  0.15515258775E+03  0.12499880050E+03 0.  0.
    9000005    1    3    3    0    0  0.37886561532E+02 -0.48402543646E+02  0.31968753626E+02  0.69290684688E+02  0.10000000000E+01 0.  0.
    9000005    1    3    3    0    0 -0.37886561532E+02  0.48402543646E+02  0.59942210678E+02  0.85861903060E+02  0.10000000000E+01 0.  0.
<mgrwt>
<rscale>  0 0.12499880E+03</rscale>
<asrwt>0</asrwt>
<pdfrwt beam="2">  1        4 0.48647403E-02 0.12499880E+03</pdfrwt>
<pdfrwt beam="1">  1       -4 0.19004889E-01 0.12499880E+03</pdfrwt>
<totfact> 0.98288204E+03</totfact>
</mgrwt>
</event>
<event>
 5    1  0.3321169E-002  0.1249988E+03  0.7818608E-02  0.1235071E+00
         -4   -1    0    0    0  501 -0.00000000000E+00  0.00000000000E+00  0.83466860097E+02  0.83476521456E+02  0.12700000000E+01 0. -1.
          4   -1    0    0  501    0  0.00000000000E+00 -0.00000000000E+00 -0.46778099291E+02  0.46795336020E+02  0.12700000000E+01 0. -1.
         25    2    1    2    0    0  0.00000000000E+00  0.00000000000E+00  0.36688760806E+02  0.13027185748E+03  0.12499876672E+03 0.  0.
    9000005    1    3    3    0    0 -0.50433056211E+02 -0.31392428031E+02  0.38558345715E+02  0.70828833965E+02  0.10000000000E+01 0.  0.
    9000005    1    3    3    0    0  0.50433056211E+02  0.31392428031E+02 -0.18695849091E+01  0.59443023512E+02  0.10000000000E+01 0.  0.
<mgrwt>
<rscale>  0 0.12499877E+03</rscale>
<asrwt>0</asrwt>
<pdfrwt beam="2">  1        4 0.71986999E-02 0.12499877E+03</pdfrwt>
<pdfrwt beam="1">  1       -4 0.12843124E-01 0.12499877E+03</pdfrwt>
<totfact> 0.10338983E+04</totfact>
</mgrwt>
</event>
<event>
 5    1  0.3321169E-002  0.1250006E+03  0.7818608E-02  0.1235068E+00
          4   -1    0    0  501    0  0.00000000000E+00  0.00000000000E+00  0.36211592530E+02  0.36233856178E+02  0.12700000000E+01 0. -1.
         -4   -1    0    0    0  501 -0.00000000000E+00 -0.00000000000E+00 -0.10781476836E+03  0.10782224806E+03  0.12700000000E+01 0. -1.
         25    2    1    2    0    0  0.00000000000E+00  0.00000000000E+00 -0.71603175830E+02  0.14405610424E+03  0.12500058552E+03 0.  0.
    9000005    1    3    3    0    0 -0.23605306976E+02 -0.37619748558E+02 -0.86467575732E+02  0.97211612742E+02  0.10000000000E+01 0.  0.
    9000005    1    3    3    0    0  0.23605306976E+02  0.37619748558E+02  0.14864399902E+02  0.46844491495E+02  0.10000000000E+01 0.  0.
<mgrwt>
<rscale>  0 0.12500059E+03</rscale>
<asrwt>0</asrwt>
<pdfrwt beam="1">  1        4 0.55733023E-02 0.12500059E+03</pdfrwt>
<pdfrwt beam="2">  1       -4 0.16589175E-01 0.12500059E+03</pdfrwt>
<totfact> 0.10050069E+04</totfact>
</mgrwt>
</event>
<event>
 5    1  0.3321169E-002  0.1249997E+03  0.7818608E-02  0.1235070E+00
          4   -1    0    0  501    0  0.00000000000E+00  0.00000000000E+00  0.94753204875E+01  0.95600522143E+01  0.12700000000E+01 0. -1.
         -4   -1    0    0    0  501 -0.00000000000E+00 -0.00000000000E+00 -0.41033220257E+03  0.41033416792E+03  0.12700000000E+01 0. -1.
         25    2    1    2    0    0  0.00000000000E+00  0.00000000000E+00 -0.40085688208E+03  0.41989422013E+03  0.12499966477E+03 0.  0.
    9000005    1    3    3    0    0  0.10554928509E+02  0.18067462412E+02 -0.26256784733E+01  0.21112411072E+02  0.10000000000E+01 0.  0.
    9000005    1    3    3    0    0 -0.10554928509E+02 -0.18067462412E+02 -0.39823120360E+03  0.39878180906E+03  0.10000000000E+01 0.  0.
<mgrwt>
<rscale>  0 0.12499966E+03</rscale>
<asrwt>0</asrwt>
<pdfrwt beam="1">  1        4 0.14644109E-02 0.12499966E+03</pdfrwt>
<pdfrwt beam="2">  1       -4 0.63134687E-01 0.12499966E+03</pdfrwt>
<totfact> 0.62663294E+03</totfact>
</mgrwt>
</event>
<event>
 5    1  0.3321169E-002  0.1250012E+03  0.7818608E-02  0.1235067E+00
          4   -1    0    0  501    0  0.00000000000E+00  0.00000000000E+00  0.16406470661E+02  0.16455551633E+02  0.12700000000E+01 0.  1.
         -4   -1    0    0    0  501 -0.00000000000E+00 -0.00000000000E+00 -0.23769028638E+03  0.23769367922E+03  0.12700000000E+01 0.  1.
         25    2    1    2    0    0  0.00000000000E+00  0.00000000000E+00 -0.22128381572E+03  0.25414923085E+03  0.12500121776E+03 0.  0.
    9000005    1    3    3    0    0 -0.54173678089E+02  0.23332872113E+02 -0.68671965724E+02  0.90532034083E+02  0.10000000000E+01 0.  0.
    9000005    1    3    3    0    0  0.54173678089E+02 -0.23332872113E+02 -0.15261184999E+03  0.16361719677E+03  0.10000000000E+01 0.  0.
<mgrwt>
<rscale>  0 0.12500122E+03</rscale>
<asrwt>0</asrwt>
<pdfrwt beam="1">  1        4 0.25281090E-02 0.12500122E+03</pdfrwt>
<pdfrwt beam="2">  1       -4 0.36571770E-01 0.12500122E+03</pdfrwt>
<totfact> 0.81731994E+03</totfact>
</mgrwt>
</event>
<event>
 5    1  0.3321169E-002  0.1250027E+03  0.7818608E-02  0.1235065E+00
          4   -1    0    0  501    0  0.00000000000E+00  0.00000000000E+00  0.19417879239E+01  0.23202242006E+01  0.12700000000E+01 0. -1.
         -4   -1    0    0    0  501 -0.00000000000E+00 -0.00000000000E+00 -0.18327538781E+04  0.18327543181E+04  0.12700000000E+01 0. -1.
         25    2    1    2    0    0  0.00000000000E+00  0.00000000000E+00 -0.18308120902E+04  0.18350745423E+04  0.12500266534E+03 0.  0.
    9000005    1    3    3    0    0  0.26358481870E+02 -0.46763916607E+02 -0.44568672889E+03  0.44890900389E+03  0.10000000000E+01 0.  0.
    9000005    1    3    3    0    0 -0.26358481870E+02  0.46763916607E+02 -0.13851253613E+04  0.13861655384E+04  0.10000000000E+01 0.  0.
<mgrwt>
<rscale>  0 0.12500267E+03</rscale>
<asrwt>0</asrwt>
<pdfrwt beam="1">  1        4 0.32788240E-03 0.12500267E+03</pdfrwt>
<pdfrwt beam="2">  1       -4 0.28199002E+00 0.12500267E+03</pdfrwt>
<totfact> 0.12170242E+03</totfact>
</mgrwt>
</event>
<event>
 5    1  0.3321169E-002  0.1250006E+03  0.7818608E-02  0.1235068E+00
          4   -1    0    0  501    0  0.00000000000E+00  0.00000000000E+00  0.10277354439E+03  0.10278139095E+03  0.12700000000E+01 0.  1.
         -4   -1    0    0    0  501 -0.00000000000E+00 -0.00000000000E+00 -0.37988750169E+02  0.38009972894E+02  0.12700000000E+01 0.  1.
         25    2    1    2    0    0  0.00000000000E+00  0.00000000000E+00  0.64784794216E+02  0.14079136384E+03  0.12500055428E+03 0.  0.
    9000005    1    3    3    0    0  0.11510019972E+02  0.57198944936E+02  0.71796781096E+01  0.58794112284E+02  0.10000000000E+01 0.  0.
    9000005    1    3    3    0    0 -0.11510019972E+02 -0.57198944936E+02  0.57605116107E+02  0.81997251559E+02  0.10000000000E+01 0.  0.
<mgrwt>
<rscale>  0 0.12500055E+03</rscale>
<asrwt>0</asrwt>
<pdfrwt beam="1">  1        4 0.15813550E-01 0.12500055E+03</pdfrwt>
<pdfrwt beam="2">  1       -4 0.58466593E-02 0.12500055E+03</pdfrwt>
<totfact> 0.10117084E+04</totfact>
</mgrwt>
</event>
<event>
 5    1  0.3321169E-002  0.1250055E+03  0.7818608E-02  0.1235061E+00
          4   -1    0    0  501    0  0.00000000000E+00  0.00000000000E+00  0.21742511113E+02  0.21779570461E+02  0.12700000000E+01 0. -1.
         -4   -1    0    0    0  501 -0.00000000000E+00 -0.00000000000E+00 -0.17948318188E+03  0.17948767500E+03  0.12700000000E+01 0. -1.
         25    2    1    2    0    0  0.00000000000E+00  0.00000000000E+00 -0.15774067077E+03  0.20126724546E+03  0.12500553941E+03 0.  0.
    9000005    1    3    3    0    0  0.73632234386E+01 -0.37043376559E+02 -0.15903754584E+03  0.16346366506E+03  0.10000000000E+01 0.  0.
    9000005    1    3    3    0    0 -0.73632234386E+01  0.37043376559E+02  0.12968750784E+01  0.37803580403E+02  0.10000000000E+01 0.  0.
<mgrwt>
<rscale>  0 0.12500554E+03</rscale>
<asrwt>0</asrwt>
<pdfrwt beam="1">  1        4 0.33481982E-02 0.12500554E+03</pdfrwt>
<pdfrwt beam="2">  1       -4 0.27615993E-01 0.12500554E+03</pdfrwt>
<totfact> 0.89911071E+03</totfact>
</mgrwt>
</event>
<event>
 5    1  0.3321169E-002  0.1249966E+03  0.7818608E-02  0.1235075E+00
          4   -1    0    0  501    0  0.00000000000E+00  0.00000000000E+00  0.16883947683E+03  0.16884425320E+03  0.12700000000E+01 0. -1.
         -4   -1    0    0    0  501 -0.00000000000E+00 -0.00000000000E+00 -0.23112071049E+02  0.23146937771E+02  0.12700000000E+01 0. -1.
         25    2    1    2    0    0  0.00000000000E+00  0.00000000000E+00  0.14572740579E+03  0.19199119097E+03  0.12499656240E+03 0.  0.
    9000005    1    3    3    0    0 -0.27653506184E+02  0.21270185870E+02 -0.67686633175E+01  0.35552102812E+02  0.10000000000E+01 0.  0.
    9000005    1    3    3    0    0  0.27653506184E+02 -0.21270185870E+02  0.15249606910E+03  0.15643908816E+03  0.10000000000E+01 0.  0.
<mgrwt>
<rscale>  0 0.12499656E+03</rscale>
<asrwt>0</asrwt>
<pdfrwt beam="1">  1        4 0.25978352E-01 0.12499656E+03</pdfrwt>
<pdfrwt beam="2">  1       -4 0.35587529E-02 0.12499656E+03</pdfrwt>
<totfact> 0.91509050E+03</totfact>
</mgrwt>
</event>
<event>
 5    1  0.3321169E-002  0.1249984E+03  0.7818608E-02  0.1235072E+00
          4   -1    0    0  501    0  0.00000000000E+00  0.00000000000E+00  0.15936347257E+03  0.15936853294E+03  0.12700000000E+01 0.  1.
         -4   -1    0    0    0  501 -0.00000000000E+00 -0.00000000000E+00 -0.24489031865E+02  0.24521940822E+02  0.12700000000E+01 0.  1.
         25    2    1    2    0    0  0.00000000000E+00  0.00000000000E+00  0.13487444071E+03  0.18389047376E+03  0.12499836632E+03 0.  0.
    9000005    1    3    3    0    0  0.30661121234E+02  0.23093335970E+02 -0.51087988826E+01  0.38736369829E+02  0.10000000000E+01 0.  0.
    9000005    1    3    3    0    0 -0.30661121234E+02 -0.23093335970E+02  0.13998323959E+03  0.14515410393E+03  0.10000000000E+01 0.  0.
<mgrwt>
<rscale>  0 0.12499837E+03</rscale>
<asrwt>0</asrwt>
<pdfrwt beam="1">  1        4 0.24520379E-01 0.12499837E+03</pdfrwt>
<pdfrwt beam="2">  1       -4 0.37704639E-02 0.12499837E+03</pdfrwt>
<totfact> 0.92924757E+03</totfact>
</mgrwt>
</event>
<event>
 4    1  0.3321169E-002  0.1249329E+03  0.7818608E-02  0.1235174E+00
         -4   -1    0    0    0  501 -0.00000000000E+00  0.00000000000E+00  0.24917913860E+02  0.24950257136E+02  0.12700000000E+01 0.  1.
          4   -1    0    0  501    0  0.00000000000E+00 -0.00000000000E+00 -0.15645990866E+03  0.15646506293E+03  0.12700000000E+01 0.  1.
    9000005    1    1    2    0    0 -0.59357203258E+02 -0.86816835083E+01 -0.91022815241E+02  0.10901743944E+03  0.10000000000E+01 0.  0.
    9000005    1    1    2    0    0  0.59357203258E+02  0.86816835083E+01 -0.40519179555E+02  0.72397880625E+02  0.10000000000E+01 0.  0.
<mgrwt>
<rscale>  0 0.12493287E+03</rscale>
<asrwt>0</asrwt>
<pdfrwt beam="2">  1        4 0.24073639E-01 0.12493287E+03</pdfrwt>
<pdfrwt beam="1">  1       -4 0.38364097E-02 0.12493287E+03</pdfrwt>
<totfact> 0.93503508E+03</totfact>
</mgrwt>
</event>
<event>
 5    1  0.3321169E-002  0.1249985E+03  0.7818608E-02  0.1235072E+00
          4   -1    0    0  501    0  0.00000000000E+00  0.00000000000E+00  0.23388772425E+03  0.23389117225E+03  0.12700000000E+01 0.  1.
         -4   -1    0    0    0  501 -0.00000000000E+00 -0.00000000000E+00 -0.16673278414E+02  0.16721576274E+02  0.12700000000E+01 0.  1.
         25    2    1    2    0    0  0.00000000000E+00  0.00000000000E+00  0.21721444584E+03  0.25061274852E+03  0.12499853696E+03 0.  0.
    9000005    1    3    3    0    0 -0.14548940098E+02  0.46425955305E+02  0.18723807776E+03  0.19345836438E+03  0.10000000000E+01 0.  0.
    9000005    1    3    3    0    0  0.14548940098E+02 -0.46425955305E+02  0.29976368077E+02  0.57154384146E+02  0.10000000000E+01 0.  0.
<mgrwt>
<rscale>  0 0.12499854E+03</rscale>
<asrwt>0</asrwt>
<pdfrwt beam="1">  1        4 0.35986708E-01 0.12499854E+03</pdfrwt>
<pdfrwt beam="2">  1       -4 0.25691001E-02 0.12499854E+03</pdfrwt>
<totfact> 0.82244426E+03</totfact>
</mgrwt>
</event>
<event>
 5    1  0.3321169E-002  0.1249983E+03  0.7818608E-02  0.1235072E+00
          4   -1    0    0  501    0  0.00000000000E+00  0.00000000000E+00  0.72134208053E+03  0.72134319852E+03  0.12700000000E+01 0.  1.
         -4   -1    0    0    0  501 -0.00000000000E+00 -0.00000000000E+00 -0.53395031044E+01  0.54884600210E+01  0.12700000000E+01 0.  1.
         25    2    1    2    0    0  0.00000000000E+00  0.00000000000E+00  0.71600257743E+03  0.72683165854E+03  0.12499827587E+03 0.  0.
    9000005    1    3    3    0    0  0.38957608398E+02 -0.47390809932E+02  0.28881863565E+03  0.29526393010E+03  0.10000000000E+01 0.  0.
    9000005    1    3    3    0    0 -0.38957608398E+02  0.47390809932E+02  0.42718394178E+03  0.43156772844E+03  0.10000000000E+01 0.  0.
<mgrwt>
<rscale>  0 0.12499828E+03</rscale>
<asrwt>0</asrwt>
<pdfrwt beam="1">  1        4 0.11098733E+00 0.12499828E+03</pdfrwt>
<pdfrwt beam="2">  1       -4 0.83300560E-03 0.12499828E+03</pdfrwt>
<totfact> 0.41709082E+03</totfact>
</mgrwt>
</event>
<event>
 5    1  0.3321169E-002  0.1249989E+03  0.7818608E-02  0.1235071E+00
          4   -1    0    0  501    0  0.00000000000E+00  0.00000000000E+00  0.81323606596E+01  0.82309288599E+01  0.12700000000E+01 0.  1.
         -4   -1    0    0    0  501 -0.00000000000E+00 -0.00000000000E+00 -0.47733264057E+03  0.47733433006E+03  0.12700000000E+01 0.  1.
         25    2    1    2    0    0  0.00000000000E+00  0.00000000000E+00 -0.46920027991E+03  0.48556525892E+03  0.12499887200E+03 0.  0.
    9000005    1    3    3    0    0 -0.54077935737E+02 -0.82027935442E+01 -0.35200573296E+03  0.35623130827E+03  0.10000000000E+01 0.  0.
    9000005    1    3    3    0    0  0.54077935737E+02  0.82027935442E+01 -0.11719454695E+03  0.12933395065E+03  0.10000000000E+01 0.  0.
<mgrwt>
<rscale>  0 0.12499887E+03</rscale>
<asrwt>0</asrwt>
<pdfrwt beam="1">  1        4 0.12588449E-02 0.12499887E+03</pdfrwt>
<pdfrwt beam="2">  1       -4 0.73443481E-01 0.12499887E+03</pdfrwt>
<totfact> 0.57003403E+03</totfact>
</mgrwt>
</event>
<event>
 5    1  0.3321169E-002  0.1250000E+03  0.7818608E-02  0.1235069E+00
         -4   -1    0    0    0  501 -0.00000000000E+00  0.00000000000E+00  0.17400870367E+03  0.17401333815E+03  0.12700000000E+01 0.  1.
          4   -1    0    0  501    0  0.00000000000E+00 -0.00000000000E+00 -0.22425695877E+02  0.22461628070E+02  0.12700000000E+01 0.  1.
         25    2    1    2    0    0  0.00000000000E+00  0.00000000000E+00  0.15158300779E+03  0.19647496622E+03  0.12500001639E+03 0.  0.
    9000005    1    3    3    0    0 -0.46964268041E+02 -0.10990523520E+02  0.13337103640E+02  0.50053095942E+02  0.10000000000E+01 0.  0.
    9000005    1    3    3    0    0  0.46964268041E+02  0.10990523520E+02  0.13824590415E+03  0.14642187027E+03  0.10000000000E+01 0.  0.
<mgrwt>
<rscale>  0 0.12500002E+03</rscale>
<asrwt>0</asrwt>
<pdfrwt beam="2">  1        4 0.34532275E-02 0.12500002E+03</pdfrwt>
<pdfrwt beam="1">  1       -4 0.26773690E-01 0.12500002E+03</pdfrwt>
<totfact> 0.90732704E+03</totfact>
</mgrwt>
</event>
<event>
 5    1  0.3321169E-002  0.1249791E+03  0.7818608E-02  0.1235102E+00
          4   -1    0    0  501    0  0.00000000000E+00  0.00000000000E+00  0.14286427450E+03  0.14286991926E+03  0.12700000000E+01 0. -1.
         -4   -1    0    0    0  501 -0.00000000000E+00 -0.00000000000E+00 -0.27312286819E+02  0.27341797880E+02  0.12700000000E+01 0. -1.
         25    2    1    2    0    0  0.00000000000E+00  0.00000000000E+00  0.11555198768E+03  0.17021171714E+03  0.12497906542E+03 0.  0.
    9000005    1    3    3    0    0 -0.24657226275E+02  0.46468303332E+02  0.10369234905E+03  0.11627719155E+03  0.10000000000E+01 0.  0.
    9000005    1    3    3    0    0  0.24657226275E+02 -0.46468303332E+02  0.11859638628E+02  0.53934525589E+02  0.10000000000E+01 0.  0.
<mgrwt>
<rscale>  0 0.12497907E+03</rscale>
<asrwt>0</asrwt>
<pdfrwt beam="1">  1        4 0.21981824E-01 0.12497907E+03</pdfrwt>
<pdfrwt beam="2">  1       -4 0.42045945E-02 0.12497907E+03</pdfrwt>
<totfact> 0.95454033E+03</totfact>
</mgrwt>
</event>
<event>
 5    1  0.3321169E-002  0.1250005E+03  0.7818608E-02  0.1235069E+00
         -4   -1    0    0    0  501 -0.00000000000E+00  0.00000000000E+00  0.96926015411E+01  0.97754500988E+01  0.12700000000E+01 0. -1.
          4   -1    0    0  501    0  0.00000000000E+00 -0.00000000000E+00 -0.40121771899E+03  0.40121972899E+03  0.12700000000E+01 0. -1.
         25    2    1    2    0    0  0.00000000000E+00  0.00000000000E+00 -0.39152511745E+03  0.41099517909E+03  0.12500047857E+03 0.  0.
    9000005    1    3    3    0    0  0.57517636240E+02 -0.41398747881E+01 -0.27493749122E+03  0.28092177047E+03  0.10000000000E+01 0.  0.
    9000005    1    3    3    0    0 -0.57517636240E+02  0.41398747881E+01 -0.11658762622E+03  0.13007340862E+03  0.10000000000E+01 0.  0.
<mgrwt>
<rscale>  0 0.12500048E+03</rscale>
<asrwt>0</asrwt>
<pdfrwt beam="2">  1        4 0.61732318E-01 0.12500048E+03</pdfrwt>
<pdfrwt beam="1">  1       -4 0.14976974E-02 0.12500048E+03</pdfrwt>
<totfact> 0.63496613E+03</totfact>
</mgrwt>
</event>
<event>
 5    1  0.3321169E-002  0.1250001E+03  0.7818608E-02  0.1235069E+00
          4   -1    0    0  501    0  0.00000000000E+00  0.00000000000E+00  0.10037055930E+02  0.10117084152E+02  0.12700000000E+01 0. -1.
         -4   -1    0    0    0  501 -0.00000000000E+00 -0.00000000000E+00 -0.38755724381E+03  0.38755932465E+03  0.12700000000E+01 0. -1.
         25    2    1    2    0    0  0.00000000000E+00  0.00000000000E+00 -0.37752018788E+03  0.39767640881E+03  0.12500013547E+03 0.  0.
    9000005    1    3    3    0    0 -0.49540586112E+02  0.10376816817E+01 -0.67619368959E+02  0.83837494678E+02  0.10000000000E+01 0.  0.
    9000005    1    3    3    0    0  0.49540586112E+02 -0.10376816817E+01 -0.30990081892E+03  0.31383891413E+03  0.10000000000E+01 0.  0.
<mgrwt>
<rscale>  0 0.12500014E+03</rscale>
<asrwt>0</asrwt>
<pdfrwt beam="1">  1        4 0.15504788E-02 0.12500014E+03</pdfrwt>
<pdfrwt beam="2">  1       -4 0.59630496E-01 0.12500014E+03</pdfrwt>
<totfact> 0.64779219E+03</totfact>
</mgrwt>
</event>
<event>
 5    1  0.3321169E-002  0.1249969E+03  0.7818608E-02  0.1235074E+00
         -4   -1    0    0    0  501 -0.00000000000E+00  0.00000000000E+00  0.13562719147E+02  0.13622050163E+02  0.12700000000E+01 0. -1.
          4   -1    0    0  501    0  0.00000000000E+00 -0.00000000000E+00 -0.28731039158E+03  0.28731319846E+03  0.12700000000E+01 0. -1.
         25    2    1    2    0    0  0.00000000000E+00  0.00000000000E+00 -0.27374767244E+03  0.30093524863E+03  0.12499694277E+03 0.  0.
    9000005    1    3    3    0    0  0.38460255100E+02  0.48049726137E+02 -0.11082211673E+03  0.12676951116E+03  0.10000000000E+01 0.  0.
    9000005    1    3    3    0    0 -0.38460255100E+02 -0.48049726137E+02 -0.16292555570E+03  0.17416573746E+03  0.10000000000E+01 0.  0.
<mgrwt>
<rscale>  0 0.12499694E+03</rscale>
<asrwt>0</asrwt>
<pdfrwt beam="2">  1        4 0.44206374E-01 0.12499694E+03</pdfrwt>
<pdfrwt beam="1">  1       -4 0.20913522E-02 0.12499694E+03</pdfrwt>
<totfact> 0.75486797E+03</totfact>
</mgrwt>
</event>
<event>
 5    1  0.3321169E-002  0.1249995E+03  0.7818608E-02  0.1235070E+00
         -4   -1    0    0    0  501 -0.00000000000E+00  0.00000000000E+00  0.78456954290E+01  0.79478196233E+01  0.12700000000E+01 0. -1.
          4   -1    0    0  501    0  0.00000000000E+00 -0.00000000000E+00 -0.49455850107E+03  0.49456013171E+03  0.12700000000E+01 0. -1.
         25    2    1    2    0    0  0.00000000000E+00  0.00000000000E+00 -0.48671280564E+03  0.50250795133E+03  0.12499954393E+03 0.  0.
    9000005    1    3    3    0    0 -0.12717521594E+01  0.46204784958E+02 -0.41242552477E+03  0.41500881074E+03  0.10000000000E+01 0.  0.
    9000005    1    3    3    0    0  0.12717521594E+01 -0.46204784958E+02 -0.74287280867E+02  0.87499140597E+02  0.10000000000E+01 0.  0.
<mgrwt>
<rscale>  0 0.12499954E+03</rscale>
<asrwt>0</asrwt>
<pdfrwt beam="2">  1        4 0.76093880E-01 0.12499954E+03</pdfrwt>
<pdfrwt beam="1">  1       -4 0.12150116E-02 0.12499954E+03</pdfrwt>
<totfact> 0.55670873E+03</totfact>
</mgrwt>
</event>
<event>
 5    1  0.3321169E-002  0.1249945E+03  0.7818608E-02  0.1235078E+00
         -4   -1    0    0    0  501 -0.00000000000E+00  0.00000000000E+00  0.42030030379E+02  0.42049213473E+02  0.12700000000E+01 0.  1.
          4   -1    0    0  501    0  0.00000000000E+00 -0.00000000000E+00 -0.92886636957E+02  0.92895318640E+02  0.12700000000E+01 0.  1.
         25    2    1    2    0    0  0.00000000000E+00  0.00000000000E+00 -0.50856606577E+02  0.13494453211E+03  0.12499452914E+03 0.  0.
    9000005    1    3    3    0    0 -0.12005041138E+02  0.14106561403E+02  0.39003244399E+02  0.43189919668E+02  0.10000000000E+01 0.  0.
    9000005    1    3    3    0    0  0.12005041138E+02 -0.14106561403E+02 -0.89859850976E+02  0.91754612444E+02  0.10000000000E+01 0.  0.
<mgrwt>
<rscale>  0 0.12499453E+03</rscale>
<asrwt>0</asrwt>
<pdfrwt beam="2">  1        4 0.14292395E-01 0.12499453E+03</pdfrwt>
<pdfrwt beam="1">  1       -4 0.64683020E-02 0.12499453E+03</pdfrwt>
<totfact> 0.10240504E+04</totfact>
</mgrwt>
</event>
<event>
 5    1  0.3321169E-002  0.1250118E+03  0.7818608E-02  0.1235051E+00
          4   -1    0    0  501    0  0.00000000000E+00  0.00000000000E+00  0.26708102425E+03  0.26708404373E+03  0.12700000000E+01 0. -1.
         -4   -1    0    0    0  501 -0.00000000000E+00 -0.00000000000E+00 -0.14597801158E+02  0.14652941638E+02  0.12700000000E+01 0. -1.
         25    2    1    2    0    0  0.00000000000E+00  0.00000000000E+00  0.25248322310E+03  0.28173698537E+03  0.12501180336E+03 0.  0.
    9000005    1    3    3    0    0  0.49057331834E+02 -0.19047426669E+02  0.20221986549E+03  0.20895765185E+03  0.10000000000E+01 0.  0.
    9000005    1    3    3    0    0 -0.49057331834E+02  0.19047426669E+02  0.50263357607E+02  0.72779333517E+02  0.10000000000E+01 0.  0.
<mgrwt>
<rscale>  0 0.12501180E+03</rscale>
<asrwt>0</asrwt>
<pdfrwt beam="1">  1        4 0.41093862E-01 0.12501180E+03</pdfrwt>
<pdfrwt beam="2">  1       -4 0.22502894E-02 0.12501180E+03</pdfrwt>
<totfact> 0.77927909E+03</totfact>
</mgrwt>
</event>
<event>
 5    1  0.3321169E-002  0.1250015E+03  0.7818608E-02  0.1235067E+00
         -4   -1    0    0    0  501 -0.00000000000E+00  0.00000000000E+00  0.81774476647E+03  0.81774575265E+03  0.12700000000E+01 0. -1.
          4   -1    0    0  501    0  0.00000000000E+00 -0.00000000000E+00 -0.46915547647E+01  0.48604100764E+01  0.12700000000E+01 0. -1.
         25    2    1    2    0    0  0.00000000000E+00  0.00000000000E+00  0.81305321170E+03  0.82260616273E+03  0.12500149560E+03 0.  0.
    9000005    1    3    3    0    0  0.60721046251E+02 -0.71402504694E+01  0.49164902983E+03  0.49543697598E+03  0.10000000000E+01 0.  0.
    9000005    1    3    3    0    0 -0.60721046251E+02  0.71402504694E+01  0.32140418187E+03  0.32716918675E+03  0.10000000000E+01 0.  0.
<mgrwt>
<rscale>  0 0.12500150E+03</rscale>
<asrwt>0</asrwt>
<pdfrwt beam="2">  1        4 0.73484293E-03 0.12500150E+03</pdfrwt>
<pdfrwt beam="1">  1       -4 0.12581986E+00 0.12500150E+03</pdfrwt>
<totfact> 0.37274041E+03</totfact>
</mgrwt>
</event>
<event>
 5    1  0.3321169E-002  0.1249969E+03  0.7818608E-02  0.1235074E+00
         -4   -1    0    0    0  501 -0.00000000000E+00  0.00000000000E+00  0.49649593013E+03  0.49649755441E+03  0.12700000000E+01 0.  1.
          4   -1    0    0  501    0  0.00000000000E+00 -0.00000000000E+00 -0.78143440445E+01  0.79168726683E+01  0.12700000000E+01 0.  1.
         25    2    1    2    0    0  0.00000000000E+00  0.00000000000E+00  0.48868158609E+03  0.50441442708E+03  0.12499688663E+03 0.  0.
    9000005    1    3    3    0    0  0.44140698926E+02 -0.36069129929E+02  0.34767202717E+03  0.35231551472E+03  0.10000000000E+01 0.  0.
    9000005    1    3    3    0    0 -0.44140698926E+02  0.36069129929E+02  0.14100955892E+03  0.15209891236E+03  0.10000000000E+01 0.  0.
<mgrwt>
<rscale>  0 0.12499689E+03</rscale>
<asrwt>0</asrwt>
<pdfrwt beam="2">  1        4 0.12102185E-02 0.12499689E+03</pdfrwt>
<pdfrwt beam="1">  1       -4 0.76392006E-01 0.12499689E+03</pdfrwt>
<totfact> 0.55527278E+03</totfact>
</mgrwt>
</event>
<event>
 5    1  0.3321169E-002  0.1250007E+03  0.7818608E-02  0.1235068E+00
         -4   -1    0    0    0  501 -0.00000000000E+00  0.00000000000E+00  0.25229155063E+02  0.25261099842E+02  0.12700000000E+01 0. -1.
          4   -1    0    0  501    0  0.00000000000E+00 -0.00000000000E+00 -0.15470006992E+03  0.15470528282E+03  0.12700000000E+01 0. -1.
         25    2    1    2    0    0  0.00000000000E+00  0.00000000000E+00 -0.12947091486E+03  0.17996638266E+03  0.12500072438E+03 0.  0.
    9000005    1    3    3    0    0 -0.38512900524E+02  0.34748849402E+02 -0.14560155410E+02  0.53886215001E+02  0.10000000000E+01 0.  0.
    9000005    1    3    3    0    0  0.38512900524E+02 -0.34748849402E+02 -0.11491075945E+03  0.12608016766E+03  0.10000000000E+01 0.  0.
<mgrwt>
<rscale>  0 0.12500072E+03</rscale>
<asrwt>0</asrwt>
<pdfrwt beam="2">  1        4 0.23802868E-01 0.12500072E+03</pdfrwt>
<pdfrwt beam="1">  1       -4 0.38842669E-02 0.12500072E+03</pdfrwt>
<totfact> 0.93621534E+03</totfact>
</mgrwt>
</event>
<event>
 5    1  0.3321169E-002  0.1249981E+03  0.7818608E-02  0.1235072E+00
          4   -1    0    0  501    0  0.00000000000E+00  0.00000000000E+00  0.29528529557E+02  0.29555827814E+02  0.12700000000E+01 0. -1.
         -4   -1    0    0    0  501 -0.00000000000E+00 -0.00000000000E+00 -0.13219185654E+03  0.13219795700E+03  0.12700000000E+01 0. -1.
         25    2    1    2    0    0  0.00000000000E+00  0.00000000000E+00 -0.10266332698E+03  0.16175378482E+03  0.12499811277E+03 0.  0.
    9000005    1    3    3    0    0 -0.18689341222E+02 -0.58655080310E+02 -0.37429079339E+02  0.72053076975E+02  0.10000000000E+01 0.  0.
    9000005    1    3    3    0    0  0.18689341222E+02  0.58655080310E+02 -0.65234247645E+02  0.89700707842E+02  0.10000000000E+01 0.  0.
<mgrwt>
<rscale>  0 0.12499811E+03</rscale>
<asrwt>0</asrwt>
<pdfrwt beam="1">  1        4 0.45454199E-02 0.12499811E+03</pdfrwt>
<pdfrwt beam="2">  1       -4 0.20339777E-01 0.12499811E+03</pdfrwt>
<totfact> 0.97009845E+03</totfact>
</mgrwt>
</event>
<event>
 5    1  0.3321169E-002  0.1250016E+03  0.7818608E-02  0.1235067E+00
         -4   -1    0    0    0  501 -0.00000000000E+00  0.00000000000E+00  0.29089114076E+03  0.29089391309E+03  0.12700000000E+01 0. -1.
          4   -1    0    0  501    0  0.00000000000E+00 -0.00000000000E+00 -0.13396033541E+02  0.13456099532E+02  0.12700000000E+01 0. -1.
         25    2    1    2    0    0  0.00000000000E+00  0.00000000000E+00  0.27749510722E+03  0.30435001262E+03  0.12500158260E+03 0.  0.
    9000005    1    3    3    0    0  0.31980365956E+02  0.47487359638E+02  0.77753993968E+02  0.96563330049E+02  0.10000000000E+01 0.  0.
    9000005    1    3    3    0    0 -0.31980365956E+02 -0.47487359638E+02  0.19974111325E+03  0.20778668258E+03  0.10000000000E+01 0.  0.
<mgrwt>
<rscale>  0 0.12500158E+03</rscale>
<asrwt>0</asrwt>
<pdfrwt beam="2">  1        4 0.20657619E-02 0.12500158E+03</pdfrwt>
<pdfrwt beam="1">  1       -4 0.44757317E-01 0.12500158E+03</pdfrwt>
<totfact> 0.75053763E+03</totfact>
</mgrwt>
</event>
<event>
 5    1  0.3321169E-002  0.1249934E+03  0.7818608E-02  0.1235080E+00
         -4   -1    0    0    0  501 -0.00000000000E+00  0.00000000000E+00  0.22410186485E+03  0.22410546341E+03  0.12700000000E+01 0. -1.
          4   -1    0    0  501    0  0.00000000000E+00 -0.00000000000E+00 -0.17401967465E+02  0.17448248384E+02  0.12700000000E+01 0. -1.
         25    2    1    2    0    0  0.00000000000E+00  0.00000000000E+00  0.20669989739E+03  0.24155371180E+03  0.12499339223E+03 0.  0.
    9000005    1    3    3    0    0 -0.48812143473E+02  0.28821551928E+02  0.15416965100E+03  0.16426377719E+03  0.10000000000E+01 0.  0.
    9000005    1    3    3    0    0  0.48812143473E+02 -0.28821551928E+02  0.52530246385E+02  0.77289934605E+02  0.10000000000E+01 0.  0.
<mgrwt>
<rscale>  0 0.12499339E+03</rscale>
<asrwt>0</asrwt>
<pdfrwt beam="2">  1        4 0.26810628E-02 0.12499339E+03</pdfrwt>
<pdfrwt beam="1">  1       -4 0.34481045E-01 0.12499339E+03</pdfrwt>
<totfact> 0.83578823E+03</totfact>
</mgrwt>
</event>
<event>
 5    1  0.3321169E-002  0.1250065E+03  0.7818608E-02  0.1235059E+00
         -4   -1    0    0    0  501 -0.00000000000E+00  0.00000000000E+00  0.70109910804E+03  0.70110025831E+03  0.12700000000E+01 0.  1.
          4   -1    0    0  501    0  0.00000000000E+00 -0.00000000000E+00 -0.54986554550E+01  0.56434131350E+01  0.12700000000E+01 0.  1.
         25    2    1    2    0    0  0.00000000000E+00  0.00000000000E+00  0.69560045259E+03  0.70674367144E+03  0.12500650976E+03 0.  0.
    9000005    1    3    3    0    0 -0.14030643061E+02 -0.28246198184E+02  0.65283312900E+03  0.65359528837E+03  0.10000000000E+01 0.  0.
    9000005    1    3    3    0    0  0.14030643061E+02  0.28246198184E+02  0.42767323587E+02  0.53148383074E+02  0.10000000000E+01 0.  0.
<mgrwt>
<rscale>  0 0.12500651E+03</rscale>
<asrwt>0</asrwt>
<pdfrwt beam="2">  1        4 0.85717106E-03 0.12500651E+03</pdfrwt>
<pdfrwt beam="1">  1       -4 0.10787258E+00 0.12500651E+03</pdfrwt>
<totfact> 0.42727020E+03</totfact>
</mgrwt>
</event>
<event>
 5    1  0.3321169E-002  0.1250007E+03  0.7818608E-02  0.1235068E+00
          4   -1    0    0  501    0  0.00000000000E+00  0.00000000000E+00  0.57726204609E+02  0.57740173178E+02  0.12700000000E+01 0.  1.
         -4   -1    0    0    0  501 -0.00000000000E+00 -0.00000000000E+00 -0.67641171713E+02  0.67653093135E+02  0.12700000000E+01 0.  1.
         25    2    1    2    0    0  0.00000000000E+00  0.00000000000E+00 -0.99149671041E+01  0.12539326631E+03  0.12500065865E+03 0.  0.
    9000005    1    3    3    0    0  0.27821241557E+02  0.53657958102E+02  0.10969828674E+02  0.61437245141E+02  0.10000000000E+01 0.  0.
    9000005    1    3    3    0    0 -0.27821241557E+02 -0.53657958102E+02 -0.20884795778E+02  0.63956021172E+02  0.10000000000E+01 0.  0.
<mgrwt>
<rscale>  0 0.12500066E+03</rscale>
<asrwt>0</asrwt>
<pdfrwt beam="1">  1        4 0.88829461E-02 0.12500066E+03</pdfrwt>
<pdfrwt beam="2">  1       -4 0.10408326E-01 0.12500066E+03</pdfrwt>
<totfact> 0.10444161E+04</totfact>
</mgrwt>
</event>
<event>
 5    1  0.3321169E-002  0.1249948E+03  0.7818608E-02  0.1235077E+00
          4   -1    0    0  501    0  0.00000000000E+00  0.00000000000E+00  0.15920210337E+02  0.15970785741E+02  0.12700000000E+01 0. -1.
         -4   -1    0    0    0  501 -0.00000000000E+00 -0.00000000000E+00 -0.24490240018E+03  0.24490569310E+03  0.12700000000E+01 0. -1.
         25    2    1    2    0    0  0.00000000000E+00  0.00000000000E+00 -0.22898218984E+03  0.26087647884E+03  0.12499477568E+03 0.  0.
    9000005    1    3    3    0    0  0.14326206875E+02  0.27556168860E+02 -0.22766385317E+03  0.22977469984E+03  0.10000000000E+01 0.  0.
    9000005    1    3    3    0    0 -0.14326206875E+02 -0.27556168860E+02 -0.13183366730E+01  0.31101779005E+02  0.10000000000E+01 0.  0.
<mgrwt>
<rscale>  0 0.12499478E+03</rscale>
<asrwt>0</asrwt>
<pdfrwt beam="1">  1        4 0.24534070E-02 0.12499478E+03</pdfrwt>
<pdfrwt beam="2">  1       -4 0.37681433E-01 0.12499478E+03</pdfrwt>
<totfact> 0.80792612E+03</totfact>
</mgrwt>
</event>
<event>
 5    1  0.3321169E-002  0.1249995E+03  0.7818608E-02  0.1235070E+00
          4   -1    0    0  501    0  0.00000000000E+00  0.00000000000E+00  0.93260609737E+03  0.93260696210E+03  0.12700000000E+01 0.  1.
         -4   -1    0    0    0  501 -0.00000000000E+00 -0.00000000000E+00 -0.40913404831E+01  0.42839195777E+01  0.12700000000E+01 0.  1.
         25    2    1    2    0    0  0.00000000000E+00  0.00000000000E+00  0.92851475689E+03  0.93689088168E+03  0.12499948163E+03 0.  0.
    9000005    1    3    3    0    0  0.48323397170E+02 -0.31436385362E+02  0.28346699184E+03  0.28927138210E+03  0.10000000000E+01 0.  0.
    9000005    1    3    3    0    0 -0.48323397170E+02  0.31436385362E+02  0.64504776505E+03  0.64761949958E+03  0.10000000000E+01 0.  0.
<mgrwt>
<rscale>  0 0.12499948E+03</rscale>
<asrwt>0</asrwt>
<pdfrwt beam="1">  1        4 0.14349300E+00 0.12499948E+03</pdfrwt>
<pdfrwt beam="2">  1       -4 0.64431614E-03 0.12499948E+03</pdfrwt>
<totfact> 0.32786329E+03</totfact>
</mgrwt>
</event>
<event>
 5    1  0.3321169E-002  0.1249996E+03  0.7818608E-02  0.1235070E+00
          4   -1    0    0  501    0  0.00000000000E+00  0.00000000000E+00  0.10397226236E+03  0.10398001847E+03  0.12700000000E+01 0.  1.
         -4   -1    0    0    0  501 -0.00000000000E+00 -0.00000000000E+00 -0.37549974332E+02  0.37571444906E+02  0.12700000000E+01 0.  1.
         25    2    1    2    0    0  0.00000000000E+00  0.00000000000E+00  0.66422288028E+02  0.14155146337E+03  0.12499958574E+03 0.  0.
    9000005    1    3    3    0    0  0.20816829174E+02  0.73032857530E+01  0.99421586139E+02  0.10184463732E+03  0.10000000000E+01 0.  0.
    9000005    1    3    3    0    0 -0.20816829174E+02 -0.73032857530E+01 -0.32999298111E+02  0.39706826056E+02  0.10000000000E+01 0.  0.
<mgrwt>
<rscale>  0 0.12499959E+03</rscale>
<asrwt>0</asrwt>
<pdfrwt beam="1">  1        4 0.15997981E-01 0.12499959E+03</pdfrwt>
<pdfrwt beam="2">  1       -4 0.57791674E-02 0.12499959E+03</pdfrwt>
<totfact> 0.10101626E+04</totfact>
</mgrwt>
</event>
<event>
 5    1  0.3321169E-002  0.1249978E+03  0.7818608E-02  0.1235073E+00
         -4   -1    0    0    0  501 -0.00000000000E+00  0.00000000000E+00  0.37925340642E+02  0.37946598831E+02  0.12700000000E+01 0.  1.
          4   -1    0    0  501    0  0.00000000000E+00 -0.00000000000E+00 -0.10294081888E+03  0.10294865270E+03  0.12700000000E+01 0.  1.
         25    2    1    2    0    0  0.00000000000E+00  0.00000000000E+00 -0.65015478238E+02  0.14089525153E+03  0.12499783795E+03 0.  0.
    9000005    1    3    3    0    0 -0.33021479705E+02  0.39622713456E+02 -0.72275644110E+02  0.88798346128E+02  0.10000000000E+01 0.  0.
    9000005    1    3    3    0    0  0.33021479705E+02 -0.39622713456E+02  0.72601658722E+01  0.52096905398E+02  0.10000000000E+01 0.  0.
<mgrwt>
<rscale>  0 0.12499784E+03</rscale>
<asrwt>0</asrwt>
<pdfrwt beam="2">  1        4 0.15839287E-01 0.12499784E+03</pdfrwt>
<pdfrwt beam="1">  1       -4 0.58369057E-02 0.12499784E+03</pdfrwt>
<totfact> 0.10115558E+04</totfact>
</mgrwt>
</event>
<event>
 5    1  0.3321169E-002  0.1249957E+03  0.7818608E-02  0.1235076E+00
          4   -1    0    0  501    0  0.00000000000E+00  0.00000000000E+00  0.19433067286E+02  0.19474521924E+02  0.12700000000E+01 0.  1.
         -4   -1    0    0    0  501 -0.00000000000E+00 -0.00000000000E+00 -0.20073914700E+03  0.20074316436E+03  0.12700000000E+01 0.  1.
         25    2    1    2    0    0  0.00000000000E+00  0.00000000000E+00 -0.18130607971E+03  0.22021768628E+03  0.12499573917E+03 0.  0.
    9000005    1    3    3    0    0 -0.70049729826E+01  0.31079837761E+02 -0.18536454369E+03  0.18808519351E+03  0.10000000000E+01 0.  0.
    9000005    1    3    3    0    0  0.70049729826E+01 -0.31079837761E+02  0.40584639784E+01  0.32132492770E+02  0.10000000000E+01 0.  0.
<mgrwt>
<rscale>  0 0.12499574E+03</rscale>
<asrwt>0</asrwt>
<pdfrwt beam="1">  1        4 0.29932006E-02 0.12499574E+03</pdfrwt>
<pdfrwt beam="2">  1       -4 0.30886442E-01 0.12499574E+03</pdfrwt>
<totfact> 0.86842180E+03</totfact>
</mgrwt>
</event>
<event>
 5    1  0.3321169E-002  0.1249995E+03  0.7818608E-02  0.1235070E+00
         -4   -1    0    0    0  501 -0.00000000000E+00  0.00000000000E+00  0.30443755387E+03  0.30444020284E+03  0.12700000000E+01 0. -1.
          4   -1    0    0  501    0  0.00000000000E+00 -0.00000000000E+00 -0.12796794516E+02  0.12859659789E+02  0.12700000000E+01 0. -1.
         25    2    1    2    0    0  0.00000000000E+00  0.00000000000E+00  0.29164075935E+03  0.31729986263E+03  0.12499948123E+03 0.  0.
    9000005    1    3    3    0    0 -0.31525224900E+02 -0.33306305064E+02  0.25357781305E+03  0.25769333913E+03  0.10000000000E+01 0.  0.
    9000005    1    3    3    0    0  0.31525224900E+02  0.33306305064E+02  0.38062946298E+02  0.59606523493E+02  0.10000000000E+01 0.  0.
<mgrwt>
<rscale>  0 0.12499948E+03</rscale>
<asrwt>0</asrwt>
<pdfrwt beam="2">  1        4 0.19737772E-02 0.12499948E+03</pdfrwt>
<pdfrwt beam="1">  1       -4 0.46841585E-01 0.12499948E+03</pdfrwt>
<totfact> 0.73479270E+03</totfact>
</mgrwt>
</event>
<event>
 5    1  0.3321169E-002  0.1249961E+03  0.7818608E-02  0.1235075E+00
         -4   -1    0    0    0  501 -0.00000000000E+00  0.00000000000E+00  0.82010710195E+00  0.15117789715E+01  0.12700000000E+01 0. -1.
          4   -1    0    0  501    0  0.00000000000E+00 -0.00000000000E+00 -0.33493900339E+04  0.33493902747E+04  0.12700000000E+01 0. -1.
         25    2    1    2    0    0  0.00000000000E+00  0.00000000000E+00 -0.33485699268E+04  0.33509020536E+04  0.12499607385E+03 0.  0.
    9000005    1    3    3    0    0  0.36506119179E+02 -0.50078508731E+02 -0.14590664289E+04  0.14603822779E+04  0.10000000000E+01 0.  0.
    9000005    1    3    3    0    0 -0.36506119179E+02  0.50078508731E+02 -0.18895034979E+04  0.18905197757E+04  0.10000000000E+01 0.  0.
<mgrwt>
<rscale>  0 0.12499607E+03</rscale>
<asrwt>0</asrwt>
<pdfrwt beam="2">  1        4 0.51533630E+00 0.12499607E+03</pdfrwt>
<pdfrwt beam="1">  1       -4 0.17939705E-03 0.12499607E+03</pdfrwt>
<totfact> 0.82979354E+01</totfact>
</mgrwt>
</event>
<event>
 5    1  0.3321169E-002  0.1249987E+03  0.7818608E-02  0.1235071E+00
         -4   -1    0    0    0  501 -0.00000000000E+00  0.00000000000E+00  0.34994966748E+01  0.37228184185E+01  0.12700000000E+01 0. -1.
          4   -1    0    0  501    0  0.00000000000E+00 -0.00000000000E+00 -0.10814708251E+04  0.10814715708E+04  0.12700000000E+01 0. -1.
         25    2    1    2    0    0  0.00000000000E+00  0.00000000000E+00 -0.10779713284E+04  0.10851943892E+04  0.12499870990E+03 0.  0.
    9000005    1    3    3    0    0  0.16779853677E+02  0.58319113013E+02 -0.66848104225E+03  0.67123065058E+03  0.10000000000E+01 0.  0.
    9000005    1    3    3    0    0 -0.16779853677E+02 -0.58319113013E+02 -0.40949028616E+03  0.41396373861E+03  0.10000000000E+01 0.  0.
<mgrwt>
<rscale>  0 0.12499871E+03</rscale>
<asrwt>0</asrwt>
<pdfrwt beam="2">  1        4 0.16639711E+00 0.12499871E+03</pdfrwt>
<pdfrwt beam="1">  1       -4 0.55562092E-03 0.12499871E+03</pdfrwt>
<totfact> 0.27921629E+03</totfact>
</mgrwt>
</event>
<event>
 5    1  0.3321169E-002  0.1249966E+03  0.7818608E-02  0.1235075E+00
          4   -1    0    0  501    0  0.00000000000E+00  0.00000000000E+00  0.22016353035E+02  0.22052952205E+02  0.12700000000E+01 0.  1.
         -4   -1    0    0    0  501 -0.00000000000E+00 -0.00000000000E+00 -0.17722913134E+03  0.17723368161E+03  0.12700000000E+01 0.  1.
         25    2    1    2    0    0  0.00000000000E+00  0.00000000000E+00 -0.15521277831E+03  0.19928663381E+03  0.12499662342E+03 0.  0.
    9000005    1    3    3    0    0 -0.39983094071E+01  0.10885117428E+02 -0.17550650469E+03  0.17589202781E+03  0.10000000000E+01 0.  0.
    9000005    1    3    3    0    0  0.39983094071E+01 -0.10885117428E+02  0.20293726382E+02  0.23394606002E+02  0.10000000000E+01 0.  0.
<mgrwt>
<rscale>  0 0.12499662E+03</rscale>
<asrwt>0</asrwt>
<pdfrwt beam="1">  1        4 0.33902967E-02 0.12499662E+03</pdfrwt>
<pdfrwt beam="2">  1       -4 0.27269185E-01 0.12499662E+03</pdfrwt>
<totfact> 0.90262782E+03</totfact>
</mgrwt>
</event>
<event>
 5    1  0.3321169E-002  0.1250013E+03  0.7818608E-02  0.1235067E+00
         -4   -1    0    0    0  501 -0.00000000000E+00  0.00000000000E+00  0.26947883876E+02  0.26977793560E+02  0.12700000000E+01 0. -1.
          4   -1    0    0  501    0  0.00000000000E+00 -0.00000000000E+00 -0.14484569554E+03  0.14485126308E+03  0.12700000000E+01 0. -1.
         25    2    1    2    0    0  0.00000000000E+00  0.00000000000E+00 -0.11789781166E+03  0.17182905664E+03  0.12500132284E+03 0.  0.
    9000005    1    3    3    0    0  0.34139108132E+02 -0.36256889175E+02 -0.11084490938E+03  0.12152215704E+03  0.10000000000E+01 0.  0.
    9000005    1    3    3    0    0 -0.34139108132E+02  0.36256889175E+02 -0.70529022833E+01  0.50306899599E+02  0.10000000000E+01 0.  0.
<mgrwt>
<rscale>  0 0.12500132E+03</rscale>
<asrwt>0</asrwt>
<pdfrwt beam="2">  1        4 0.22286682E-01 0.12500132E+03</pdfrwt>
<pdfrwt beam="1">  1       -4 0.41485574E-02 0.12500132E+03</pdfrwt>
<totfact> 0.95105997E+03</totfact>
</mgrwt>
</event>
<event>
 5    1  0.3321169E-002  0.1249983E+03  0.7818608E-02  0.1235072E+00
          4   -1    0    0  501    0  0.00000000000E+00  0.00000000000E+00  0.67829781088E+02  0.67841669367E+02  0.12700000000E+01 0. -1.
         -4   -1    0    0    0  501 -0.00000000000E+00 -0.00000000000E+00 -0.57563534908E+02  0.57577542941E+02  0.12700000000E+01 0. -1.
         25    2    1    2    0    0  0.00000000000E+00  0.00000000000E+00  0.10266246180E+02  0.12541921231E+03  0.12499833201E+03 0.  0.
    9000005    1    3    3    0    0 -0.48091122252E+01  0.54092702892E+02 -0.25890196825E+02  0.60170178312E+02  0.10000000000E+01 0.  0.
    9000005    1    3    3    0    0  0.48091122252E+01 -0.54092702892E+02  0.36156443005E+02  0.65249033995E+02  0.10000000000E+01 0.  0.
<mgrwt>
<rscale>  0 0.12499833E+03</rscale>
<asrwt>0</asrwt>
<pdfrwt beam="1">  1        4 0.10437343E-01 0.12499833E+03</pdfrwt>
<pdfrwt beam="2">  1       -4 0.88579205E-02 0.12499833E+03</pdfrwt>
<totfact> 0.10444134E+04</totfact>
</mgrwt>
</event>
<event>
 5    1  0.3321169E-002  0.1249991E+03  0.7818608E-02  0.1235071E+00
         -4   -1    0    0    0  501 -0.00000000000E+00  0.00000000000E+00  0.46131123335E+02  0.46148601714E+02  0.12700000000E+01 0. -1.
          4   -1    0    0  501    0  0.00000000000E+00 -0.00000000000E+00 -0.84637611882E+02  0.84647139615E+02  0.12700000000E+01 0. -1.
         25    2    1    2    0    0  0.00000000000E+00  0.00000000000E+00 -0.38506488547E+02  0.13079574133E+03  0.12499910516E+03 0.  0.
    9000005    1    3    3    0    0 -0.59819034364E+02 -0.15838014932E+02 -0.28377385501E+02  0.68084033349E+02  0.10000000000E+01 0.  0.
    9000005    1    3    3    0    0  0.59819034364E+02  0.15838014932E+02 -0.10129103046E+02  0.62711707980E+02  0.10000000000E+01 0.  0.
<mgrwt>
<rscale>  0 0.12499911E+03</rscale>
<asrwt>0</asrwt>
<pdfrwt beam="2">  1        4 0.13023248E-01 0.12499911E+03</pdfrwt>
<pdfrwt beam="1">  1       -4 0.70991733E-02 0.12499911E+03</pdfrwt>
<totfact> 0.10327679E+04</totfact>
</mgrwt>
</event>
<event>
 5    1  0.3321169E-002  0.1249996E+03  0.7818608E-02  0.1235070E+00
          4   -1    0    0  501    0  0.00000000000E+00  0.00000000000E+00  0.19938548090E+03  0.19938952553E+03  0.12700000000E+01 0. -1.
         -4   -1    0    0    0  501 -0.00000000000E+00 -0.00000000000E+00 -0.19566491418E+02  0.19607663972E+02  0.12700000000E+01 0. -1.
         25    2    1    2    0    0  0.00000000000E+00  0.00000000000E+00  0.17981898948E+03  0.21899718950E+03  0.12499960014E+03 0.  0.
    9000005    1    3    3    0    0  0.60785648654E+02  0.35653463338E+01  0.11453830439E+03  0.12972135502E+03  0.10000000000E+01 0.  0.
    9000005    1    3    3    0    0 -0.60785648654E+02 -0.35653463338E+01  0.65280685091E+02  0.89275834484E+02  0.10000000000E+01 0.  0.
<mgrwt>
<rscale>  0 0.12499960E+03</rscale>
<asrwt>0</asrwt>
<pdfrwt beam="1">  1        4 0.30678168E-01 0.12499960E+03</pdfrwt>
<pdfrwt beam="2">  1       -4 0.30137077E-02 0.12499960E+03</pdfrwt>
<totfact> 0.87028057E+03</totfact>
</mgrwt>
</event>
<event>
 5    1  0.3321169E-002  0.1250029E+03  0.7818608E-02  0.1235065E+00
         -4   -1    0    0    0  501 -0.00000000000E+00  0.00000000000E+00  0.55266789025E+02  0.55281379045E+02  0.12700000000E+01 0. -1.
          4   -1    0    0  501    0  0.00000000000E+00 -0.00000000000E+00 -0.70653560122E+02  0.70664973346E+02  0.12700000000E+01 0. -1.
         25    2    1    2    0    0  0.00000000000E+00  0.00000000000E+00 -0.15386771098E+02  0.12594635239E+03  0.12500292379E+03 0.  0.
    9000005    1    3    3    0    0 -0.38212771478E+02 -0.46362113385E+02  0.96344142444E+01  0.60856251934E+02  0.10000000000E+01 0.  0.
    9000005    1    3    3    0    0  0.38212771478E+02  0.46362113385E+02 -0.25021185342E+02  0.65090100457E+02  0.10000000000E+01 0.  0.
<mgrwt>
<rscale>  0 0.12500292E+03</rscale>
<asrwt>0</asrwt>
<pdfrwt beam="2">  1        4 0.10871779E-01 0.12500292E+03</pdfrwt>
<pdfrwt beam="1">  1       -4 0.85045832E-02 0.12500292E+03</pdfrwt>
<totfact> 0.10431445E+04</totfact>
</mgrwt>
</event>
<event>
 5    1  0.3321169E-002  0.1250189E+03  0.7818608E-02  0.1235040E+00
         -4   -1    0    0    0  501 -0.00000000000E+00  0.00000000000E+00  0.36835411821E+02  0.36857298653E+02  0.12700000000E+01 0.  1.
          4   -1    0    0  501    0  0.00000000000E+00 -0.00000000000E+00 -0.10602092952E+03  0.10602853576E+03  0.12700000000E+01 0.  1.
         25    2    1    2    0    0  0.00000000000E+00  0.00000000000E+00 -0.69185517696E+02  0.14288583441E+03  0.12501890184E+03 0.  0.
    9000005    1    3    3    0    0  0.38818831708E+02 -0.40275522816E+02 -0.27259099211E+01  0.56012945094E+02  0.10000000000E+01 0.  0.
    9000005    1    3    3    0    0 -0.38818831708E+02  0.40275522816E+02 -0.66459607775E+02  0.86872889320E+02  0.10000000000E+01 0.  0.
<mgrwt>
<rscale>  0 0.12501890E+03</rscale>
<asrwt>0</asrwt>
<pdfrwt beam="2">  1        4 0.16313181E-01 0.12501890E+03</pdfrwt>
<pdfrwt beam="1">  1       -4 0.56692552E-02 0.12501890E+03</pdfrwt>
<totfact> 0.10069834E+04</totfact>
</mgrwt>
</event>
<event>
 5    1  0.3321169E-002  0.1249990E+03  0.7818608E-02  0.1235071E+00
         -4   -1    0    0    0  501 -0.00000000000E+00  0.00000000000E+00  0.26054555233E+01  0.28984993503E+01  0.12700000000E+01 0.  1.
          4   -1    0    0  501    0  0.00000000000E+00 -0.00000000000E+00 -0.14191170850E+04  0.14191176533E+04  0.12700000000E+01 0.  1.
         25    2    1    2    0    0  0.00000000000E+00  0.00000000000E+00 -0.14165116295E+04  0.14220161526E+04  0.12499896754E+03 0.  0.
    9000005    1    3    3    0    0  0.50123293967E+02  0.27901291605E+02 -0.99022986693E+03  0.99189062705E+03  0.10000000000E+01 0.  0.
    9000005    1    3    3    0    0 -0.50123293967E+02 -0.27901291605E+02 -0.42628176255E+03  0.43012552558E+03  0.10000000000E+01 0.  0.
<mgrwt>
<rscale>  0 0.12499897E+03</rscale>
<asrwt>0</asrwt>
<pdfrwt beam="2">  1        4 0.21834771E+00 0.12499897E+03</pdfrwt>
<pdfrwt beam="1">  1       -4 0.42342599E-03 0.12499897E+03</pdfrwt>
<totfact> 0.19513865E+03</totfact>
</mgrwt>
</event>
<event>
 5    1  0.3321169E-002  0.1250013E+03  0.7818608E-02  0.1235067E+00
         -4   -1    0    0    0  501 -0.00000000000E+00  0.00000000000E+00  0.81865509346E+02  0.81875359667E+02  0.12700000000E+01 0.  1.
          4   -1    0    0  501    0  0.00000000000E+00 -0.00000000000E+00 -0.47695244756E+02  0.47712150154E+02  0.12700000000E+01 0.  1.
         25    2    1    2    0    0  0.00000000000E+00  0.00000000000E+00  0.34170264590E+02  0.12958750982E+03  0.12500126287E+03 0.  0.
    9000005    1    3    3    0    0  0.57399786471E+02  0.17212808311E+02 -0.12941983060E+01  0.59947403665E+02  0.10000000000E+01 0.  0.
    9000005    1    3    3    0    0 -0.57399786471E+02 -0.17212808311E+02  0.35464462896E+02  0.69640106156E+02  0.10000000000E+01 0.  0.
<mgrwt>
<rscale>  0 0.12500126E+03</rscale>
<asrwt>0</asrwt>
<pdfrwt beam="2">  1        4 0.73397883E-02 0.12500126E+03</pdfrwt>
<pdfrwt beam="1">  1       -4 0.12596752E-01 0.12500126E+03</pdfrwt>
<totfact> 0.10353044E+04</totfact>
</mgrwt>
</event>
<event>
 5    1  0.3321169E-002  0.1249987E+03  0.7818608E-02  0.1235071E+00
         -4   -1    0    0    0  501 -0.00000000000E+00  0.00000000000E+00  0.91199736909E+03  0.91199825336E+03  0.12700000000E+01 0. -1.
          4   -1    0    0  501    0  0.00000000000E+00 -0.00000000000E+00 -0.41880411532E+01  0.43763670665E+01  0.12700000000E+01 0. -1.
         25    2    1    2    0    0  0.00000000000E+00  0.00000000000E+00  0.90780932794E+03  0.91637462043E+03  0.12499867627E+03 0.  0.
    9000005    1    3    3    0    0 -0.61754027707E+02  0.84940663368E+01  0.42156625930E+03  0.42615117046E+03  0.10000000000E+01 0.  0.
    9000005    1    3    3    0    0  0.61754027707E+02 -0.84940663368E+01  0.48624306864E+03  0.49022344997E+03  0.10000000000E+01 0.  0.
<mgrwt>
<rscale>  0 0.12499868E+03</rscale>
<asrwt>0</asrwt>
<pdfrwt beam="2">  1        4 0.65886852E-03 0.12499868E+03</pdfrwt>
<pdfrwt beam="1">  1       -4 0.14032187E+00 0.12499868E+03</pdfrwt>
<totfact> 0.33541594E+03</totfact>
</mgrwt>
</event>
<event>
 5    1  0.3321169E-002  0.1250018E+03  0.7818608E-02  0.1235066E+00
         -4   -1    0    0    0  501 -0.00000000000E+00  0.00000000000E+00  0.13318449367E+02  0.13378863687E+02  0.12700000000E+01 0.  1.
          4   -1    0    0  501    0  0.00000000000E+00 -0.00000000000E+00 -0.29257916099E+03  0.29258191732E+03  0.12700000000E+01 0.  1.
         25    2    1    2    0    0  0.00000000000E+00  0.00000000000E+00 -0.27926071162E+03  0.30596078101E+03  0.12500181783E+03 0.  0.
    9000005    1    3    3    0    0 -0.48700008179E+02  0.11087477131E+02 -0.47697018612E+02  0.69069736718E+02  0.10000000000E+01 0.  0.
    9000005    1    3    3    0    0  0.48700008179E+02 -0.11087477131E+02 -0.23156369301E+03  0.23689104429E+03  0.10000000000E+01 0.  0.
<mgrwt>
<rscale>  0 0.12500182E+03</rscale>
<asrwt>0</asrwt>
<pdfrwt beam="2">  1        4 0.45017033E-01 0.12500182E+03</pdfrwt>
<pdfrwt beam="1">  1       -4 0.20538517E-02 0.12500182E+03</pdfrwt>
<totfact> 0.74854144E+03</totfact>
</mgrwt>
</event>
<event>
 5    1  0.3321169E-002  0.1249937E+03  0.7818608E-02  0.1235079E+00
         -4   -1    0    0    0  501 -0.00000000000E+00  0.00000000000E+00  0.19106769499E+03  0.19107191570E+03  0.12700000000E+01 0. -1.
          4   -1    0    0  501    0  0.00000000000E+00 -0.00000000000E+00 -0.20418101186E+02  0.20457559875E+02  0.12700000000E+01 0. -1.
         25    2    1    2    0    0  0.00000000000E+00  0.00000000000E+00  0.17064959381E+03  0.21152947558E+03  0.12499374053E+03 0.  0.
    9000005    1    3    3    0    0 -0.50162290009E+02 -0.36790620474E+02  0.75305216045E+02  0.97681526695E+02  0.10000000000E+01 0.  0.
    9000005    1    3    3    0    0  0.50162290009E+02  0.36790620474E+02  0.95344377764E+02  0.11384794888E+03  0.10000000000E+01 0.  0.
<mgrwt>
<rscale>  0 0.12499374E+03</rscale>
<asrwt>0</asrwt>
<pdfrwt beam="2">  1        4 0.31446062E-02 0.12499374E+03</pdfrwt>
<pdfrwt beam="1">  1       -4 0.29398391E-01 0.12499374E+03</pdfrwt>
<totfact> 0.88239050E+03</totfact>
</mgrwt>
</event>
<event>
 5    1  0.3321169E-002  0.1249796E+03  0.7818608E-02  0.1235101E+00
         -4   -1    0    0    0  501 -0.00000000000E+00  0.00000000000E+00  0.13090688064E+03  0.13091304098E+03  0.12700000000E+01 0.  1.
          4   -1    0    0  501    0  0.00000000000E+00 -0.00000000000E+00 -0.29809810140E+02  0.29836851050E+02  0.12700000000E+01 0.  1.
         25    2    1    2    0    0  0.00000000000E+00  0.00000000000E+00  0.10109707050E+03  0.16074989203E+03  0.12497963884E+03 0.  0.
    9000005    1    3    3    0    0  0.54241866460E+02 -0.33340777590E+01  0.90206362659E+02  0.10531611470E+03  0.10000000000E+01 0.  0.
    9000005    1    3    3    0    0 -0.54241866460E+02  0.33340777590E+01  0.10890707839E+02  0.55433777328E+02  0.10000000000E+01 0.  0.
<mgrwt>
<rscale>  0 0.12497964E+03</rscale>
<asrwt>0</asrwt>
<pdfrwt beam="2">  1        4 0.45886785E-02 0.12497964E+03</pdfrwt>
<pdfrwt beam="1">  1       -4 0.20142074E-01 0.12497964E+03</pdfrwt>
<totfact> 0.97242900E+03</totfact>
</mgrwt>
</event>
<event>
 4    1  0.3321169E-002  0.1249308E+03  0.7818608E-02  0.1235177E+00
          4   -1    0    0  501    0  0.00000000000E+00  0.00000000000E+00  0.10794048831E+03  0.10794795930E+03  0.12700000000E+01 0. -1.
         -4   -1    0    0    0  501 -0.00000000000E+00 -0.00000000000E+00 -0.36129010195E+02  0.36151324701E+02  0.12700000000E+01 0. -1.
    9000005    1    1    2    0    0 -0.24676203604E+02  0.53717710862E+02  0.59158814623E+02  0.83637747651E+02  0.10000000000E+01 0.  0.
    9000005    1    1    2    0    0  0.24676203604E+02 -0.53717710862E+02  0.12652663496E+02  0.60461536352E+02  0.10000000000E+01 0.  0.
<mgrwt>
<rscale>  0 0.12493084E+03</rscale>
<asrwt>0</asrwt>
<pdfrwt beam="1">  1        4 0.16608520E-01 0.12493084E+03</pdfrwt>
<pdfrwt beam="2">  1       -4 0.55606005E-02 0.12493084E+03</pdfrwt>
<totfact> 0.10064988E+04</totfact>
</mgrwt>
</event>
<event>
 5    1  0.3321169E-002  0.1249947E+03  0.7818608E-02  0.1235078E+00
         -4   -1    0    0    0  501 -0.00000000000E+00  0.00000000000E+00  0.10664755955E+02  0.10740107987E+02  0.12700000000E+01 0.  1.
          4   -1    0    0  501    0  0.00000000000E+00 -0.00000000000E+00 -0.36487984363E+03  0.36488205381E+03  0.12700000000E+01 0.  1.
         25    2    1    2    0    0  0.00000000000E+00  0.00000000000E+00 -0.35421508768E+03  0.37562216179E+03  0.12499472025E+03 0.  0.
    9000005    1    3    3    0    0  0.21819743062E+02 -0.51909490259E+02 -0.25853553590E+03  0.26459841210E+03  0.10000000000E+01 0.  0.
    9000005    1    3    3    0    0 -0.21819743062E+02  0.51909490259E+02 -0.95679551784E+02  0.11102374969E+03  0.10000000000E+01 0.  0.
<mgrwt>
<rscale>  0 0.12499472E+03</rscale>
<asrwt>0</asrwt>
<pdfrwt beam="2">  1        4 0.56141317E-01 0.12499472E+03</pdfrwt>
<pdfrwt beam="1">  1       -4 0.16466983E-02 0.12499472E+03</pdfrwt>
<totfact> 0.67002650E+03</totfact>
</mgrwt>
</event>
<event>
 5    1  0.3321169E-002  0.1249993E+03  0.7818608E-02  0.1235070E+00
         -4   -1    0    0    0  501 -0.00000000000E+00  0.00000000000E+00  0.11549510165E+03  0.11550208398E+03  0.12700000000E+01 0. -1.
          4   -1    0    0  501    0  0.00000000000E+00 -0.00000000000E+00 -0.33801462558E+02  0.33825312579E+02  0.12700000000E+01 0. -1.
         25    2    1    2    0    0  0.00000000000E+00  0.00000000000E+00  0.81693639088E+02  0.14932739656E+03  0.12499928278E+03 0.  0.
    9000005    1    3    3    0    0  0.25545292682E+02 -0.52793358754E+02  0.15072102937E+02  0.60562934157E+02  0.10000000000E+01 0.  0.
    9000005    1    3    3    0    0 -0.25545292682E+02  0.52793358754E+02  0.66621536151E+02  0.88764462404E+02  0.10000000000E+01 0.  0.
<mgrwt>
<rscale>  0 0.12499928E+03</rscale>
<asrwt>0</asrwt>
<pdfrwt beam="2">  1        4 0.52025968E-02 0.12499928E+03</pdfrwt>
<pdfrwt beam="1">  1       -4 0.17770849E-01 0.12499928E+03</pdfrwt>
<totfact> 0.99439546E+03</totfact>
</mgrwt>
</event>
<event>
 5    1  0.3321169E-002  0.1249953E+03  0.7818608E-02  0.1235077E+00
         -4   -1    0    0    0  501 -0.00000000000E+00  0.00000000000E+00  0.66101999658E+02  0.66114198617E+02  0.12700000000E+01 0.  1.
          4   -1    0    0  501    0  0.00000000000E+00 -0.00000000000E+00 -0.59065349359E+02  0.59079001303E+02  0.12700000000E+01 0.  1.
         25    2    1    2    0    0  0.00000000000E+00  0.00000000000E+00  0.70366502987E+01  0.12519319992E+03  0.12499529135E+03 0.  0.
    9000005    1    3    3    0    0  0.54694636216E+02  0.13959501327E+02  0.30367200716E+02  0.64105676718E+02  0.10000000000E+01 0.  0.
    9000005    1    3    3    0    0 -0.54694636216E+02 -0.13959501327E+02 -0.23330550418E+02  0.61087523202E+02  0.10000000000E+01 0.  0.
<mgrwt>
<rscale>  0 0.12499529E+03</rscale>
<asrwt>0</asrwt>
<pdfrwt beam="2">  1        4 0.90889653E-02 0.12499529E+03</pdfrwt>
<pdfrwt beam="1">  1       -4 0.10171527E-01 0.12499529E+03</pdfrwt>
<totfact> 0.10449780E+04</totfact>
</mgrwt>
</event>
<event>
 4    1  0.3321169E-002  0.1255049E+03  0.7818608E-02  0.1234282E+00
         -4   -1    0    0    0  501 -0.00000000000E+00  0.00000000000E+00  0.27150019926E+03  0.27150316960E+03  0.12700000000E+01 0. -1.
          4   -1    0    0  501    0  0.00000000000E+00 -0.00000000000E+00 -0.14473266727E+02  0.14528879852E+02  0.12700000000E+01 0. -1.
    9000005    1    1    2    0    0  0.60409004094E+02 -0.16926498016E+02  0.12610348007E+03  0.14085042349E+03  0.10000000000E+01 0.  0.
    9000005    1    1    2    0    0 -0.60409004094E+02  0.16926498016E+02  0.13092345247E+03  0.14518162596E+03  0.10000000000E+01 0.  0.
<mgrwt>
<rscale>  0 0.12550494E+03</rscale>
<asrwt>0</asrwt>
<pdfrwt beam="2">  1        4 0.22311628E-02 0.12550494E+03</pdfrwt>
<pdfrwt beam="1">  1       -4 0.41773768E-01 0.12550494E+03</pdfrwt>
<totfact> 0.76523204E+03</totfact>
</mgrwt>
</event>
<event>
 5    1  0.3321169E-002  0.1250014E+03  0.7818608E-02  0.1235067E+00
          4   -1    0    0  501    0  0.00000000000E+00  0.00000000000E+00  0.26798842608E+03  0.26799143534E+03  0.12700000000E+01 0. -1.
         -4   -1    0    0    0  501 -0.00000000000E+00 -0.00000000000E+00 -0.14545744639E+02  0.14601081710E+02  0.12700000000E+01 0. -1.
         25    2    1    2    0    0  0.00000000000E+00  0.00000000000E+00  0.25344268144E+03  0.28259251705E+03  0.12500135165E+03 0.  0.
    9000005    1    3    3    0    0 -0.54599792640E+02  0.24167822819E+02  0.85028848177E+02  0.10390440818E+03  0.10000000000E+01 0.  0.
    9000005    1    3    3    0    0  0.54599792640E+02 -0.24167822819E+02  0.16841383327E+03  0.17868810887E+03  0.10000000000E+01 0.  0.
<mgrwt>
<rscale>  0 0.12500135E+03</rscale>
<asrwt>0</asrwt>
<pdfrwt beam="1">  1        4 0.41233474E-01 0.12500135E+03</pdfrwt>
<pdfrwt beam="2">  1       -4 0.22422952E-02 0.12500135E+03</pdfrwt>
<totfact> 0.77833270E+03</totfact>
</mgrwt>
</event>
<event>
 5    1  0.3321169E-002  0.1249982E+03  0.7818608E-02  0.1235072E+00
          4   -1    0    0  501    0  0.00000000000E+00  0.00000000000E+00  0.40779172967E+03  0.40779370727E+03  0.12700000000E+01 0. -1.
         -4   -1    0    0    0  501 -0.00000000000E+00 -0.00000000000E+00 -0.95346566036E+01  0.96188656581E+01  0.12700000000E+01 0. -1.
         25    2    1    2    0    0  0.00000000000E+00  0.00000000000E+00  0.39825707307E+03  0.41741257293E+03  0.12499823914E+03 0.  0.
    9000005    1    3    3    0    0  0.43202285340E+02 -0.37835783936E+02  0.28141184703E+03  0.28721352972E+03  0.10000000000E+01 0.  0.
    9000005    1    3    3    0    0 -0.43202285340E+02  0.37835783936E+02  0.11684522604E+03  0.13019904321E+03  0.10000000000E+01 0.  0.
<mgrwt>
<rscale>  0 0.12499824E+03</rscale>
<asrwt>0</asrwt>
<pdfrwt beam="1">  1        4 0.62743803E-01 0.12499824E+03</pdfrwt>
<pdfrwt beam="2">  1       -4 0.14735004E-02 0.12499824E+03</pdfrwt>
<totfact> 0.62896228E+03</totfact>
</mgrwt>
</event>
<event>
 5    1  0.3321169E-002  0.1250030E+03  0.7818608E-02  0.1235065E+00
         -4   -1    0    0    0  501 -0.00000000000E+00  0.00000000000E+00  0.59260311140E+02  0.59273918180E+02  0.12700000000E+01 0. -1.
          4   -1    0    0  501    0  0.00000000000E+00 -0.00000000000E+00 -0.65892669102E+02  0.65904906808E+02  0.12700000000E+01 0. -1.
         25    2    1    2    0    0  0.00000000000E+00  0.00000000000E+00 -0.66323579621E+01  0.12517882499E+03  0.12500300018E+03 0.  0.
    9000005    1    3    3    0    0 -0.33298732012E+02  0.35820556233E+02 -0.42274880603E+02  0.64653563958E+02  0.10000000000E+01 0.  0.
    9000005    1    3    3    0    0  0.33298732012E+02 -0.35820556233E+02  0.35642522641E+02  0.60525261030E+02  0.10000000000E+01 0.  0.
<mgrwt>
<rscale>  0 0.12500300E+03</rscale>
<asrwt>0</asrwt>
<pdfrwt beam="2">  1        4 0.10139322E-01 0.12500300E+03</pdfrwt>
<pdfrwt beam="1">  1       -4 0.91189590E-02 0.12500300E+03</pdfrwt>
<totfact> 0.10448271E+04</totfact>
</mgrwt>
</event>
<event>
 5    1  0.3321169E-002  0.1250000E+03  0.7818608E-02  0.1235069E+00
         -4   -1    0    0    0  501 -0.00000000000E+00  0.00000000000E+00  0.20145111860E+03  0.20145512176E+03  0.12700000000E+01 0.  1.
          4   -1    0    0  501    0  0.00000000000E+00 -0.00000000000E+00 -0.19365568096E+02  0.19407166915E+02  0.12700000000E+01 0.  1.
         25    2    1    2    0    0  0.00000000000E+00  0.00000000000E+00  0.18208555050E+03  0.22086228868E+03  0.12500001143E+03 0.  0.
    9000005    1    3    3    0    0  0.84164291565E+01  0.88062270004E+01  0.19934173838E+03  0.19971608491E+03  0.10000000000E+01 0.  0.
    9000005    1    3    3    0    0 -0.84164291565E+01 -0.88062270004E+01 -0.17256187875E+02  0.21146203766E+02  0.10000000000E+01 0.  0.
<mgrwt>
<rscale>  0 0.12500001E+03</rscale>
<asrwt>0</asrwt>
<pdfrwt beam="2">  1        4 0.29828262E-02 0.12500001E+03</pdfrwt>
<pdfrwt beam="1">  1       -4 0.30995985E-01 0.12500001E+03</pdfrwt>
<totfact> 0.86732067E+03</totfact>
</mgrwt>
</event>
<event>
 5    1  0.3321169E-002  0.1249938E+03  0.7818608E-02  0.1235079E+00
          4   -1    0    0  501    0  0.00000000000E+00  0.00000000000E+00  0.37442330079E+01  0.39537552805E+01  0.12700000000E+01 0. -1.
         -4   -1    0    0    0  501 -0.00000000000E+00 -0.00000000000E+00 -0.10145647685E+04  0.10145655634E+04  0.12700000000E+01 0. -1.
         25    2    1    2    0    0  0.00000000000E+00  0.00000000000E+00 -0.10108205355E+04  0.10185193187E+04  0.12499378983E+03 0.  0.
    9000005    1    3    3    0    0 -0.62313319880E+02  0.35079494983E+01 -0.53066597823E+03  0.53432446697E+03  0.10000000000E+01 0.  0.
    9000005    1    3    3    0    0  0.62313319880E+02 -0.35079494983E+01 -0.48015455728E+03  0.48419485171E+03  0.10000000000E+01 0.  0.
<mgrwt>
<rscale>  0 0.12499379E+03</rscale>
<asrwt>0</asrwt>
<pdfrwt beam="1">  1        4 0.59221490E-03 0.12499379E+03</pdfrwt>
<pdfrwt beam="2">  1       -4 0.15610285E+00 0.12499379E+03</pdfrwt>
<totfact> 0.30002521E+03</totfact>
</mgrwt>
</event>
<event>
 5    1  0.3321169E-002  0.1249995E+03  0.7818608E-02  0.1235070E+00
          4   -1    0    0  501    0  0.00000000000E+00  0.00000000000E+00  0.12645437259E+03  0.12646074983E+03  0.12700000000E+01 0.  1.
         -4   -1    0    0    0  501 -0.00000000000E+00 -0.00000000000E+00 -0.30870150768E+02  0.30896263665E+02  0.12700000000E+01 0.  1.
         25    2    1    2    0    0  0.00000000000E+00  0.00000000000E+00  0.95584221822E+02  0.15735701349E+03  0.12499954494E+03 0.  0.
    9000005    1    3    3    0    0  0.58111431220E+02 -0.86650787285E+01  0.74591345985E+02  0.94957311060E+02  0.10000000000E+01 0.  0.
    9000005    1    3    3    0    0 -0.58111431220E+02  0.86650787285E+01  0.20992875836E+02  0.62399702433E+02  0.10000000000E+01 0.  0.
<mgrwt>
<rscale>  0 0.12499954E+03</rscale>
<asrwt>0</asrwt>
<pdfrwt beam="1">  1        4 0.19457018E-01 0.12499954E+03</pdfrwt>
<pdfrwt beam="2">  1       -4 0.47517532E-02 0.12499954E+03</pdfrwt>
<totfact> 0.97855766E+03</totfact>
</mgrwt>
</event>
<event>
 5    1  0.3321169E-002  0.1249975E+03  0.7818608E-02  0.1235073E+00
         -4   -1    0    0    0  501 -0.00000000000E+00  0.00000000000E+00  0.80189998397E+02  0.80200054507E+02  0.12700000000E+01 0.  1.
          4   -1    0    0  501    0  0.00000000000E+00 -0.00000000000E+00 -0.48689081862E+02  0.48705642308E+02  0.12700000000E+01 0.  1.
         25    2    1    2    0    0  0.00000000000E+00  0.00000000000E+00  0.31500916535E+02  0.12890569681E+03  0.12499748369E+03 0.  0.
    9000005    1    3    3    0    0 -0.53267980758E+02 -0.19350870192E+02  0.42901544253E+02  0.71087808030E+02  0.10000000000E+01 0.  0.
    9000005    1    3    3    0    0  0.53267980758E+02  0.19350870192E+02 -0.11400627718E+02  0.57817888785E+02  0.10000000000E+01 0.  0.
<mgrwt>
<rscale>  0 0.12499748E+03</rscale>
<asrwt>0</asrwt>
<pdfrwt beam="2">  1        4 0.74926755E-02 0.12499748E+03</pdfrwt>
<pdfrwt beam="1">  1       -4 0.12338970E-01 0.12499748E+03</pdfrwt>
<totfact> 0.10368563E+04</totfact>
</mgrwt>
</event>
<event>
 5    1  0.3321169E-002  0.1249997E+03  0.7818608E-02  0.1235070E+00
         -4   -1    0    0    0  501 -0.00000000000E+00  0.00000000000E+00  0.31033852215E+03  0.31034112076E+03  0.12700000000E+01 0.  1.
          4   -1    0    0  501    0  0.00000000000E+00 -0.00000000000E+00 -0.12552317328E+02  0.12616400845E+02  0.12700000000E+01 0.  1.
         25    2    1    2    0    0  0.00000000000E+00  0.00000000000E+00  0.29778620483E+03  0.32295752160E+03  0.12499974790E+03 0.  0.
    9000005    1    3    3    0    0 -0.28885504345E+01 -0.15878953031E+02 -0.70873233004E+01  0.17655453111E+02  0.10000000000E+01 0.  0.
    9000005    1    3    3    0    0  0.28885504345E+01  0.15878953031E+02  0.30487352813E+03  0.30530206849E+03  0.10000000000E+01 0.  0.
<mgrwt>
<rscale>  0 0.12499975E+03</rscale>
<asrwt>0</asrwt>
<pdfrwt beam="2">  1        4 0.19362551E-02 0.12499975E+03</pdfrwt>
<pdfrwt beam="1">  1       -4 0.47749517E-01 0.12499975E+03</pdfrwt>
<totfact> 0.72806148E+03</totfact>
</mgrwt>
</event>
<event>
 5    1  0.3321169E-002  0.1249986E+03  0.7818608E-02  0.1235071E+00
          4   -1    0    0  501    0  0.00000000000E+00  0.00000000000E+00  0.44084827847E+02  0.44103117194E+02  0.12700000000E+01 0.  1.
         -4   -1    0    0    0  501 -0.00000000000E+00 -0.00000000000E+00 -0.88564360280E+02  0.88573465619E+02  0.12700000000E+01 0.  1.
         25    2    1    2    0    0  0.00000000000E+00  0.00000000000E+00 -0.44479532433E+02  0.13267658281E+03  0.12499858728E+03 0.  0.
    9000005    1    3    3    0    0 -0.31126775520E+01  0.85393527948E+01 -0.87864249421E+02  0.88338754994E+02  0.10000000000E+01 0.  0.
    9000005    1    3    3    0    0  0.31126775520E+01 -0.85393527948E+01  0.43384716987E+02  0.44337827819E+02  0.10000000000E+01 0.  0.
<mgrwt>
<rscale>  0 0.12499859E+03</rscale>
<asrwt>0</asrwt>
<pdfrwt beam="1">  1        4 0.67843885E-02 0.12499859E+03</pdfrwt>
<pdfrwt beam="2">  1       -4 0.13627393E-01 0.12499859E+03</pdfrwt>
<totfact> 0.10287606E+04</totfact>
</mgrwt>
</event>
<event>
 5    1  0.3321169E-002  0.1250008E+03  0.7818608E-02  0.1235068E+00
          4   -1    0    0  501    0  0.00000000000E+00  0.00000000000E+00  0.10057343247E+02  0.10137211312E+02  0.12700000000E+01 0. -1.
         -4   -1    0    0    0  501 -0.00000000000E+00 -0.00000000000E+00 -0.38678570020E+03  0.38678778520E+03  0.12700000000E+01 0. -1.
         25    2    1    2    0    0  0.00000000000E+00  0.00000000000E+00 -0.37672835695E+03  0.39692499651E+03  0.12500079169E+03 0.  0.
    9000005    1    3    3    0    0 -0.53649736654E+02  0.11422478007E+02 -0.93286484365E+02  0.10822261969E+03  0.10000000000E+01 0.  0.
    9000005    1    3    3    0    0  0.53649736654E+02 -0.11422478007E+02 -0.28344187259E+03  0.28870237682E+03  0.10000000000E+01 0.  0.
<mgrwt>
<rscale>  0 0.12500079E+03</rscale>
<asrwt>0</asrwt>
<pdfrwt beam="1">  1        4 0.15535880E-02 0.12500079E+03</pdfrwt>
<pdfrwt beam="2">  1       -4 0.59511785E-01 0.12500079E+03</pdfrwt>
<totfact> 0.64851835E+03</totfact>
</mgrwt>
</event>
<event>
 5    1  0.3321169E-002  0.1249997E+03  0.7818608E-02  0.1235070E+00
          4   -1    0    0  501    0  0.00000000000E+00  0.00000000000E+00  0.42909133717E+03  0.42909321660E+03  0.12700000000E+01 0.  1.
         -4   -1    0    0    0  501 -0.00000000000E+00 -0.00000000000E+00 -0.90572962377E+01  0.91459015487E+01  0.12700000000E+01 0.  1.
         25    2    1    2    0    0  0.00000000000E+00  0.00000000000E+00  0.42003404093E+03  0.43823911815E+03  0.12499971654E+03 0.  0.
    9000005    1    3    3    0    0 -0.12197468483E+02  0.60284768115E+02  0.17126100668E+03  0.18197352531E+03  0.10000000000E+01 0.  0.
    9000005    1    3    3    0    0  0.12197468483E+02 -0.60284768115E+02  0.24877303425E+03  0.25626559284E+03  0.10000000000E+01 0.  0.
<mgrwt>
<rscale>  0 0.12499972E+03</rscale>
<asrwt>0</asrwt>
<pdfrwt beam="1">  1        4 0.66020996E-01 0.12499972E+03</pdfrwt>
<pdfrwt beam="2">  1       -4 0.14003909E-02 0.12499972E+03</pdfrwt>
<totfact> 0.60996589E+03</totfact>
</mgrwt>
</event>
<event>
 5    1  0.3321169E-002  0.1249972E+03  0.7818608E-02  0.1235074E+00
         -4   -1    0    0    0  501 -0.00000000000E+00  0.00000000000E+00  0.49629347263E+02  0.49645594062E+02  0.12700000000E+01 0. -1.
          4   -1    0    0  501    0  0.00000000000E+00 -0.00000000000E+00 -0.78670651183E+02  0.78680901479E+02  0.12700000000E+01 0. -1.
         25    2    1    2    0    0  0.00000000000E+00  0.00000000000E+00 -0.29041303920E+02  0.12832649554E+03  0.12499716847E+03 0.  0.
    9000005    1    3    3    0    0 -0.49311043118E+02 -0.30458283037E+02 -0.38504992037E+02  0.69591094191E+02  0.10000000000E+01 0.  0.
    9000005    1    3    3    0    0  0.49311043118E+02  0.30458283037E+02  0.94636881175E+01  0.58735401350E+02  0.10000000000E+01 0.  0.
<mgrwt>
<rscale>  0 0.12499717E+03</rscale>
<asrwt>0</asrwt>
<pdfrwt beam="2">  1        4 0.12105215E-01 0.12499717E+03</pdfrwt>
<pdfrwt beam="1">  1       -4 0.76373224E-02 0.12499717E+03</pdfrwt>
<totfact> 0.10381106E+04</totfact>
</mgrwt>
</event>
<event>
 5    1  0.3321169E-002  0.1249968E+03  0.7818608E-02  0.1235074E+00
         -4   -1    0    0    0  501 -0.00000000000E+00  0.00000000000E+00  0.70024424299E+02  0.70035940048E+02  0.12700000000E+01 0. -1.
          4   -1    0    0  501    0  0.00000000000E+00 -0.00000000000E+00 -0.55757941041E+02  0.55772402576E+02  0.12700000000E+01 0. -1.
         25    2    1    2    0    0  0.00000000000E+00  0.00000000000E+00  0.14266483258E+02  0.12580834262E+03  0.12499682608E+03 0.  0.
    9000005    1    3    3    0    0  0.33430974413E+02 -0.36480467669E+02  0.45546413567E+02  0.67260169197E+02  0.10000000000E+01 0.  0.
    9000005    1    3    3    0    0 -0.33430974413E+02  0.36480467669E+02 -0.31279930309E+02  0.58548173428E+02  0.10000000000E+01 0.  0.
<mgrwt>
<rscale>  0 0.12499683E+03</rscale>
<asrwt>0</asrwt>
<pdfrwt beam="2">  1        4 0.85801430E-02 0.12499683E+03</pdfrwt>
<pdfrwt beam="1">  1       -4 0.10774987E-01 0.12499683E+03</pdfrwt>
<totfact> 0.10435909E+04</totfact>
</mgrwt>
</event>
<event>
 5    1  0.3321169E-002  0.1250040E+03  0.7818608E-02  0.1235063E+00
         -4   -1    0    0    0  501 -0.00000000000E+00  0.00000000000E+00  0.41644155532E+02  0.41663516294E+02  0.12700000000E+01 0. -1.
          4   -1    0    0  501    0  0.00000000000E+00 -0.00000000000E+00 -0.93761269252E+02  0.93769869957E+02  0.12700000000E+01 0. -1.
         25    2    1    2    0    0  0.00000000000E+00  0.00000000000E+00 -0.52117113719E+02  0.13543338625E+03  0.12500403421E+03 0.  0.
    9000005    1    3    3    0    0  0.60035957264E+02  0.11176297108E+02 -0.40443188531E+02  0.73252148639E+02  0.10000000000E+01 0.  0.
    9000005    1    3    3    0    0 -0.60035957264E+02 -0.11176297108E+02 -0.11673925189E+02  0.62181237612E+02  0.10000000000E+01 0.  0.
<mgrwt>
<rscale>  0 0.12500403E+03</rscale>
<asrwt>0</asrwt>
<pdfrwt beam="2">  1        4 0.14426961E-01 0.12500403E+03</pdfrwt>
<pdfrwt beam="1">  1       -4 0.64089441E-02 0.12500403E+03</pdfrwt>
<totfact> 0.10228014E+04</totfact>
</mgrwt>
</event>
<event>
 5    1  0.3321169E-002  0.1249991E+03  0.7818608E-02  0.1235071E+00
         -4   -1    0    0    0  501 -0.00000000000E+00  0.00000000000E+00  0.19574299725E+02  0.19615455889E+02  0.12700000000E+01 0. -1.
          4   -1    0    0  501    0  0.00000000000E+00 -0.00000000000E+00 -0.19930440211E+03  0.19930844839E+03  0.12700000000E+01 0. -1.
         25    2    1    2    0    0  0.00000000000E+00  0.00000000000E+00 -0.17973010238E+03  0.21892390428E+03  0.12499906465E+03 0.  0.
    9000005    1    3    3    0    0 -0.31467283855E+02  0.53811889212E+02 -0.82174378291E+02  0.10314813533E+03  0.10000000000E+01 0.  0.
    9000005    1    3    3    0    0  0.31467283855E+02 -0.53811889212E+02 -0.97555724093E+02  0.11577576895E+03  0.10000000000E+01 0.  0.
<mgrwt>
<rscale>  0 0.12499906E+03</rscale>
<asrwt>0</asrwt>
<pdfrwt beam="2">  1        4 0.30665691E-01 0.12499906E+03</pdfrwt>
<pdfrwt beam="1">  1       -4 0.30149080E-02 0.12499906E+03</pdfrwt>
<totfact> 0.87040734E+03</totfact>
</mgrwt>
</event>
<event>
 5    1  0.3321169E-002  0.1250007E+03  0.7818608E-02  0.1235068E+00
         -4   -1    0    0    0  501 -0.00000000000E+00  0.00000000000E+00  0.65656393838E+02  0.65668675575E+02  0.12700000000E+01 0. -1.
          4   -1    0    0  501    0  0.00000000000E+00 -0.00000000000E+00 -0.59471413934E+02  0.59484972685E+02  0.12700000000E+01 0. -1.
         25    2    1    2    0    0  0.00000000000E+00  0.00000000000E+00  0.61849799040E+01  0.12515364826E+03  0.12500072678E+03 0.  0.
    9000005    1    3    3    0    0 -0.27949925017E+02  0.26380515332E+02 -0.46244212658E+02  0.60138648987E+02  0.10000000000E+01 0.  0.
    9000005    1    3    3    0    0  0.27949925017E+02 -0.26380515332E+02  0.52429192562E+02  0.65014999272E+02  0.10000000000E+01 0.  0.
<mgrwt>
<rscale>  0 0.12500073E+03</rscale>
<asrwt>0</asrwt>
<pdfrwt beam="2">  1        4 0.91514361E-02 0.12500073E+03</pdfrwt>
<pdfrwt beam="1">  1       -4 0.10102971E-01 0.12500073E+03</pdfrwt>
<totfact> 0.10449355E+04</totfact>
</mgrwt>
</event>
<event>
 5    1  0.3321169E-002  0.1250010E+03  0.7818608E-02  0.1235068E+00
         -4   -1    0    0    0  501 -0.00000000000E+00  0.00000000000E+00  0.63717453686E+02  0.63730109087E+02  0.12700000000E+01 0. -1.
          4   -1    0    0  501    0  0.00000000000E+00 -0.00000000000E+00 -0.61281459551E+02  0.61294617910E+02  0.12700000000E+01 0. -1.
         25    2    1    2    0    0  0.00000000000E+00  0.00000000000E+00  0.24359941351E+01  0.12502472700E+03  0.12500099317E+03 0.  0.
    9000005    1    3    3    0    0  0.42617928321E+02  0.43709737429E+02  0.14580290886E+02  0.62772715751E+02  0.10000000000E+01 0.  0.
    9000005    1    3    3    0    0 -0.42617928321E+02 -0.43709737429E+02 -0.12144296751E+02  0.62252011245E+02  0.10000000000E+01 0.  0.
<mgrwt>
<rscale>  0 0.12500099E+03</rscale>
<asrwt>0</asrwt>
<pdfrwt beam="2">  1        4 0.94299026E-02 0.12500099E+03</pdfrwt>
<pdfrwt beam="1">  1       -4 0.98046708E-02 0.12500099E+03</pdfrwt>
<totfact> 0.10452091E+04</totfact>
</mgrwt>
</event>
<event>
 5    1  0.3321169E-002  0.1249993E+03  0.7818608E-02  0.1235070E+00
         -4   -1    0    0    0  501 -0.00000000000E+00  0.00000000000E+00  0.40041930337E+02  0.40062065413E+02  0.12700000000E+01 0. -1.
          4   -1    0    0  501    0  0.00000000000E+00 -0.00000000000E+00 -0.97504116279E+02  0.97512386861E+02  0.12700000000E+01 0. -1.
         25    2    1    2    0    0  0.00000000000E+00  0.00000000000E+00 -0.57462185941E+02  0.13757445227E+03  0.12499930842E+03 0.  0.
    9000005    1    3    3    0    0  0.27106998452E+02 -0.34929339270E+02 -0.77336817899E+02  0.89088896669E+02  0.10000000000E+01 0.  0.
    9000005    1    3    3    0    0 -0.27106998452E+02  0.34929339270E+02  0.19874631958E+02  0.48485555605E+02  0.10000000000E+01 0.  0.
<mgrwt>
<rscale>  0 0.12499931E+03</rscale>
<asrwt>0</asrwt>
<pdfrwt beam="2">  1        4 0.15002818E-01 0.12499931E+03</pdfrwt>
<pdfrwt beam="1">  1       -4 0.61624821E-02 0.12499931E+03</pdfrwt>
<totfact> 0.10184247E+04</totfact>
</mgrwt>
</event>
<event>
 5    1  0.3321169E-002  0.1250006E+03  0.7818608E-02  0.1235068E+00
         -4   -1    0    0    0  501 -0.00000000000E+00  0.00000000000E+00  0.61924862902E+03  0.61924993132E+03  0.12700000000E+01 0. -1.
          4   -1    0    0  501    0  0.00000000000E+00 -0.00000000000E+00 -0.62428606290E+01  0.63707306358E+01  0.12700000000E+01 0. -1.
         25    2    1    2    0    0  0.00000000000E+00  0.00000000000E+00  0.61300576839E+03  0.62562066196E+03  0.12500056235E+03 0.  0.
    9000005    1    3    3    0    0  0.51334873278E+02 -0.33492975098E+02  0.24556648767E+03  0.25310264412E+03  0.10000000000E+01 0.  0.
    9000005    1    3    3    0    0 -0.51334873278E+02  0.33492975098E+02  0.36743928072E+03  0.37251801783E+03  0.10000000000E+01 0.  0.
<mgrwt>
<rscale>  0 0.12500056E+03</rscale>
<asrwt>0</asrwt>
<pdfrwt beam="2">  1        4 0.97037608E-03 0.12500056E+03</pdfrwt>
<pdfrwt beam="1">  1       -4 0.95278991E-01 0.12500056E+03</pdfrwt>
<totfact> 0.47288696E+03</totfact>
</mgrwt>
</event>
<event>
 5    1  0.3321169E-002  0.1249990E+03  0.7818608E-02  0.1235071E+00
          4   -1    0    0  501    0  0.00000000000E+00  0.00000000000E+00  0.15165130172E+04  0.15165135490E+04  0.12700000000E+01 0.  1.
         -4   -1    0    0    0  501 -0.00000000000E+00 -0.00000000000E+00 -0.24186586608E+01  0.27318143636E+01  0.12700000000E+01 0.  1.
         25    2    1    2    0    0  0.00000000000E+00  0.00000000000E+00  0.15140943586E+04  0.15192453634E+04  0.12499898991E+03 0.  0.
    9000005    1    3    3    0    0 -0.16816504955E+02 -0.19423694961E+02  0.64680325775E+02  0.69603299543E+02  0.10000000000E+01 0.  0.
    9000005    1    3    3    0    0  0.16816504955E+02  0.19423694961E+02  0.14494140328E+04  0.14496420638E+04  0.10000000000E+01 0.  0.
<mgrwt>
<rscale>  0 0.12499899E+03</rscale>
<asrwt>0</asrwt>
<pdfrwt beam="1">  1        4 0.23333440E+00 0.12499899E+03</pdfrwt>
<pdfrwt beam="2">  1       -4 0.39623016E-03 0.12499899E+03</pdfrwt>
<totfact> 0.17555487E+03</totfact>
</mgrwt>
</event>
<event>
 5    1  0.3321169E-002  0.1249975E+03  0.7818608E-02  0.1235073E+00
          4   -1    0    0  501    0  0.00000000000E+00  0.00000000000E+00  0.15681765182E+02  0.15733107107E+02  0.12700000000E+01 0. -1.
         -4   -1    0    0    0  501 -0.00000000000E+00 -0.00000000000E+00 -0.24862515129E+03  0.24862839491E+03  0.12700000000E+01 0. -1.
         25    2    1    2    0    0  0.00000000000E+00  0.00000000000E+00 -0.23294338611E+03  0.26436150202E+03  0.12499753044E+03 0.  0.
    9000005    1    3    3    0    0  0.41784941774E+02 -0.85826674007E+01 -0.21305384754E+03  0.21728457260E+03  0.10000000000E+01 0.  0.
    9000005    1    3    3    0    0 -0.41784941774E+02  0.85826674007E+01 -0.19889538571E+02  0.47076929417E+02  0.10000000000E+01 0.  0.
<mgrwt>
<rscale>  0 0.12499753E+03</rscale>
<asrwt>0</asrwt>
<pdfrwt beam="1">  1        4 0.24167783E-02 0.12499753E+03</pdfrwt>
<pdfrwt beam="2">  1       -4 0.38254219E-01 0.12499753E+03</pdfrwt>
<totfact> 0.80302270E+03</totfact>
</mgrwt>
</event>
<event>
 5    1  0.3321169E-002  0.1249934E+03  0.7818608E-02  0.1235080E+00
          4   -1    0    0  501    0  0.00000000000E+00  0.00000000000E+00  0.42574749541E+03  0.42574938960E+03  0.12700000000E+01 0. -1.
         -4   -1    0    0    0  501 -0.00000000000E+00 -0.00000000000E+00 -0.91281932613E+01  0.92161169814E+01  0.12700000000E+01 0. -1.
         25    2    1    2    0    0  0.00000000000E+00  0.00000000000E+00  0.41661930215E+03  0.43496550658E+03  0.12499339581E+03 0.  0.
    9000005    1    3    3    0    0 -0.21063570064E+02  0.50687745496E+02  0.31223695491E+03  0.31702655652E+03  0.10000000000E+01 0.  0.
    9000005    1    3    3    0    0  0.21063570064E+02 -0.50687745496E+02  0.10438234723E+03  0.11793895006E+03  0.10000000000E+01 0.  0.
<mgrwt>
<rscale>  0 0.12499340E+03</rscale>
<asrwt>0</asrwt>
<pdfrwt beam="1">  1        4 0.65506526E-01 0.12499340E+03</pdfrwt>
<pdfrwt beam="2">  1       -4 0.14112464E-02 0.12499340E+03</pdfrwt>
<totfact> 0.61297384E+03</totfact>
</mgrwt>
</event>
<event>
 5    1  0.3321169E-002  0.1250069E+03  0.7818608E-02  0.1235059E+00
          4   -1    0    0  501    0  0.00000000000E+00  0.00000000000E+00  0.12256409401E+02  0.12322031951E+02  0.12700000000E+01 0. -1.
         -4   -1    0    0    0  501 -0.00000000000E+00 -0.00000000000E+00 -0.31782789783E+03  0.31783043520E+03  0.12700000000E+01 0. -1.
         25    2    1    2    0    0  0.00000000000E+00  0.00000000000E+00 -0.30557148843E+03  0.33015246715E+03  0.12500686791E+03 0.  0.
    9000005    1    3    3    0    0 -0.49451325135E+02  0.30827743024E+02 -0.21242352275E+03  0.22027377582E+03  0.10000000000E+01 0.  0.
    9000005    1    3    3    0    0  0.49451325135E+02 -0.30827743024E+02 -0.93147965676E+02  0.10987869132E+03  0.10000000000E+01 0.  0.
<mgrwt>
<rscale>  0 0.12500687E+03</rscale>
<asrwt>0</asrwt>
<pdfrwt beam="1">  1        4 0.18908448E-02 0.12500687E+03</pdfrwt>
<pdfrwt beam="2">  1       -4 0.48901837E-01 0.12500687E+03</pdfrwt>
<totfact> 0.71953729E+03</totfact>
</mgrwt>
</event>
<event>
 5    1  0.3321169E-002  0.1249962E+03  0.7818608E-02  0.1235075E+00
          4   -1    0    0  501    0  0.00000000000E+00  0.00000000000E+00  0.26495589286E+04  0.26495592329E+04  0.12700000000E+01 0. -1.
         -4   -1    0    0    0  501 -0.00000000000E+00 -0.00000000000E+00 -0.12003331635E+01  0.17474838207E+01  0.12700000000E+01 0. -1.
         25    2    1    2    0    0  0.00000000000E+00  0.00000000000E+00  0.26483585954E+04  0.26513067167E+04  0.12499622588E+03 0.  0.
    9000005    1    3    3    0    0 -0.14926266692E+02 -0.27309185131E+02  0.24735836330E+04  0.24737796132E+04  0.10000000000E+01 0.  0.
    9000005    1    3    3    0    0  0.14926266692E+02  0.27309185131E+02  0.17477496240E+03  0.17752710360E+03  0.10000000000E+01 0.  0.
<mgrwt>
<rscale>  0 0.12499623E+03</rscale>
<asrwt>0</asrwt>
<pdfrwt beam="1">  1        4 0.40766642E+00 0.12499623E+03</pdfrwt>
<pdfrwt beam="2">  1       -4 0.22677864E-03 0.12499623E+03</pdfrwt>
<totfact> 0.35870518E+02</totfact>
</mgrwt>
</event>
<event>
 5    1  0.3321169E-002  0.1249992E+03  0.7818608E-02  0.1235071E+00
          4   -1    0    0  501    0  0.00000000000E+00  0.00000000000E+00  0.11377766153E+02  0.11448426207E+02  0.12700000000E+01 0. -1.
         -4   -1    0    0    0  501 -0.00000000000E+00 -0.00000000000E+00 -0.34218400403E+03  0.34218636079E+03  0.12700000000E+01 0. -1.
         25    2    1    2    0    0  0.00000000000E+00  0.00000000000E+00 -0.33080623788E+03  0.35363478700E+03  0.12499918223E+03 0.  0.
    9000005    1    3    3    0    0 -0.50370371939E+02 -0.71335532148E+01 -0.62728459034E+02  0.80770796230E+02  0.10000000000E+01 0.  0.
    9000005    1    3    3    0    0  0.50370371939E+02  0.71335532148E+01 -0.26807777884E+03  0.27286399077E+03  0.10000000000E+01 0.  0.
<mgrwt>
<rscale>  0 0.12499918E+03</rscale>
<asrwt>0</asrwt>
<pdfrwt beam="1">  1        4 0.17560425E-02 0.12499918E+03</pdfrwt>
<pdfrwt beam="2">  1       -4 0.52649302E-01 0.12499918E+03</pdfrwt>
<totfact> 0.69327785E+03</totfact>
</mgrwt>
</event>
<event>
 5    1  0.3321169E-002  0.1250017E+03  0.7818608E-02  0.1235067E+00
         -4   -1    0    0    0  501 -0.00000000000E+00  0.00000000000E+00  0.11637830116E+04  0.11637837045E+04  0.12700000000E+01 0.  1.
          4   -1    0    0  501    0  0.00000000000E+00 -0.00000000000E+00 -0.32357544441E+01  0.34760619704E+01  0.12700000000E+01 0.  1.
         25    2    1    2    0    0  0.00000000000E+00  0.00000000000E+00  0.11605472571E+04  0.11672597665E+04  0.12500170582E+03 0.  0.
    9000005    1    3    3    0    0 -0.43030516282E+02 -0.45127470145E+02  0.61904886737E+03  0.62218213900E+03  0.10000000000E+01 0.  0.
    9000005    1    3    3    0    0  0.43030516282E+02  0.45127470145E+02  0.54149838977E+03  0.54507762752E+03  0.10000000000E+01 0.  0.
<mgrwt>
<rscale>  0 0.12500171E+03</rscale>
<asrwt>0</asrwt>
<pdfrwt beam="2">  1        4 0.51634549E-03 0.12500171E+03</pdfrwt>
<pdfrwt beam="1">  1       -4 0.17906256E+00 0.12500171E+03</pdfrwt>
<totfact> 0.25585125E+03</totfact>
</mgrwt>
</event>
<event>
 5    1  0.3321169E-002  0.1249927E+03  0.7818608E-02  0.1235081E+00
         -4   -1    0    0    0  501 -0.00000000000E+00  0.00000000000E+00  0.13235978323E+04  0.13235984416E+04  0.12700000000E+01 0.  1.
          4   -1    0    0  501    0  0.00000000000E+00 -0.00000000000E+00 -0.28136059099E+01  0.30869529015E+01  0.12700000000E+01 0.  1.
         25    2    1    2    0    0  0.00000000000E+00  0.00000000000E+00  0.13207842264E+04  0.13266853945E+04  0.12499265285E+03 0.  0.
    9000005    1    3    3    0    0  0.44093585748E+02  0.14143465724E+02  0.11057432585E+04  0.11067128967E+04  0.10000000000E+01 0.  0.
    9000005    1    3    3    0    0 -0.44093585748E+02 -0.14143465724E+02  0.21504096785E+03  0.21997249778E+03  0.10000000000E+01 0.  0.
<mgrwt>
<rscale>  0 0.12499265E+03</rscale>
<asrwt>0</asrwt>
<pdfrwt beam="2">  1        4 0.45393459E-03 0.12499265E+03</pdfrwt>
<pdfrwt beam="1">  1       -4 0.20365215E+00 0.12499265E+03</pdfrwt>
<totfact> 0.21610701E+03</totfact>
</mgrwt>
</event>
<event>
 5    1  0.3321169E-002  0.1250004E+03  0.7818608E-02  0.1235069E+00
          4   -1    0    0  501    0  0.00000000000E+00  0.00000000000E+00  0.57976956310E+02  0.57990864479E+02  0.12700000000E+01 0.  1.
         -4   -1    0    0    0  501 -0.00000000000E+00 -0.00000000000E+00 -0.67348348575E+02  0.67360321821E+02  0.12700000000E+01 0.  1.
         25    2    1    2    0    0  0.00000000000E+00  0.00000000000E+00 -0.93713922647E+01  0.12535118630E+03  0.12500038765E+03 0.  0.
    9000005    1    3    3    0    0  0.52981818607E+02  0.28736464689E+02  0.11865674751E+02  0.61438194497E+02  0.10000000000E+01 0.  0.
    9000005    1    3    3    0    0 -0.52981818607E+02 -0.28736464689E+02 -0.21237067016E+02  0.63912991803E+02  0.10000000000E+01 0.  0.
<mgrwt>
<rscale>  0 0.12500039E+03</rscale>
<asrwt>0</asrwt>
<pdfrwt beam="1">  1        4 0.89215226E-02 0.12500039E+03</pdfrwt>
<pdfrwt beam="2">  1       -4 0.10363275E-01 0.12500039E+03</pdfrwt>
<totfact> 0.10445148E+04</totfact>
</mgrwt>
</event>
<event>
 5    1  0.3321169E-002  0.1250025E+03  0.7818608E-02  0.1235065E+00
          4   -1    0    0  501    0  0.00000000000E+00  0.00000000000E+00  0.12418209903E+03  0.12418859295E+03  0.12700000000E+01 0. -1.
         -4   -1    0    0    0  501 -0.00000000000E+00 -0.00000000000E+00 -0.31436959656E+02  0.31462602124E+02  0.12700000000E+01 0. -1.
         25    2    1    2    0    0  0.00000000000E+00  0.00000000000E+00  0.92745139373E+02  0.15565119507E+03  0.12500253458E+03 0.  0.
    9000005    1    3    3    0    0 -0.74687977502E+01  0.13676948447E+01 -0.30866554308E+02  0.31802479524E+02  0.10000000000E+01 0.  0.
    9000005    1    3    3    0    0  0.74687977502E+01 -0.13676948447E+01  0.12361169368E+03  0.12384871555E+03  0.10000000000E+01 0.  0.
<mgrwt>
<rscale>  0 0.12500253E+03</rscale>
<asrwt>0</asrwt>
<pdfrwt beam="1">  1        4 0.19107410E-01 0.12500253E+03</pdfrwt>
<pdfrwt beam="2">  1       -4 0.48389274E-02 0.12500253E+03</pdfrwt>
<totfact> 0.98182216E+03</totfact>
</mgrwt>
</event>
<event>
 5    1  0.3321169E-002  0.1249997E+03  0.7818608E-02  0.1235070E+00
          4   -1    0    0  501    0  0.00000000000E+00  0.00000000000E+00  0.36269857998E+02  0.36292085903E+02  0.12700000000E+01 0.  1.
         -4   -1    0    0    0  501 -0.00000000000E+00 -0.00000000000E+00 -0.10764005957E+03  0.10764755141E+03  0.12700000000E+01 0.  1.
         25    2    1    2    0    0  0.00000000000E+00  0.00000000000E+00 -0.71370201570E+02  0.14393963731E+03  0.12499965407E+03 0.  0.
    9000005    1    3    3    0    0 -0.57478175596E+02 -0.18527892213E+02 -0.17181602290E+02  0.62795150425E+02  0.10000000000E+01 0.  0.
    9000005    1    3    3    0    0  0.57478175596E+02  0.18527892213E+02 -0.54188599280E+02  0.81144486884E+02  0.10000000000E+01 0.  0.
<mgrwt>
<rscale>  0 0.12499965E+03</rscale>
<asrwt>0</asrwt>
<pdfrwt beam="1">  1        4 0.55822643E-02 0.12499965E+03</pdfrwt>
<pdfrwt beam="2">  1       -4 0.16562295E-01 0.12499965E+03</pdfrwt>
<totfact> 0.10052656E+04</totfact>
</mgrwt>
</event>
<event>
 5    1  0.3321169E-002  0.1249968E+03  0.7818608E-02  0.1235074E+00
         -4   -1    0    0    0  501 -0.00000000000E+00  0.00000000000E+00  0.16980540041E+02  0.17027966410E+02  0.12700000000E+01 0. -1.
          4   -1    0    0  501    0  0.00000000000E+00 -0.00000000000E+00 -0.22966113700E+03  0.22966464845E+03  0.12700000000E+01 0. -1.
         25    2    1    2    0    0  0.00000000000E+00  0.00000000000E+00 -0.21268059696E+03  0.24669261486E+03  0.12499683958E+03 0.  0.
    9000005    1    3    3    0    0  0.31561281252E+02  0.21202717970E+02 -0.84656585243E+01  0.38965845273E+02  0.10000000000E+01 0.  0.
    9000005    1    3    3    0    0 -0.31561281252E+02 -0.21202717970E+02 -0.20421493844E+03  0.20772676959E+03  0.10000000000E+01 0.  0.
<mgrwt>
<rscale>  0 0.12499684E+03</rscale>
<asrwt>0</asrwt>
<pdfrwt beam="2">  1        4 0.35336399E-01 0.12499684E+03</pdfrwt>
<pdfrwt beam="1">  1       -4 0.26163092E-02 0.12499684E+03</pdfrwt>
<totfact> 0.82816443E+03</totfact>
</mgrwt>
</event>
<event>
 5    1  0.3321169E-002  0.1250012E+03  0.7818608E-02  0.1235067E+00
          4   -1    0    0  501    0  0.00000000000E+00  0.00000000000E+00  0.44303546145E+02  0.44321745239E+02  0.12700000000E+01 0. -1.
         -4   -1    0    0    0  501 -0.00000000000E+00 -0.00000000000E+00 -0.88131023870E+02  0.88140173975E+02  0.12700000000E+01 0. -1.
         25    2    1    2    0    0  0.00000000000E+00  0.00000000000E+00 -0.43827477725E+02  0.13246191921E+03  0.12500124895E+03 0.  0.
    9000005    1    3    3    0    0 -0.88856502342E-01 -0.55286969622E+02  0.89569564493E+01  0.56016818674E+02  0.10000000000E+01 0.  0.
    9000005    1    3    3    0    0  0.88856502342E-01  0.55286969622E+02 -0.52784434174E+02  0.76445100540E+02  0.10000000000E+01 0.  0.
<mgrwt>
<rscale>  0 0.12500125E+03</rscale>
<asrwt>0</asrwt>
<pdfrwt beam="1">  1        4 0.68180340E-02 0.12500125E+03</pdfrwt>
<pdfrwt beam="2">  1       -4 0.13560723E-01 0.12500125E+03</pdfrwt>
<totfact> 0.10291559E+04</totfact>
</mgrwt>
</event>
<event>
 5    1  0.3321169E-002  0.1250000E+03  0.7818608E-02  0.1235069E+00
         -4   -1    0    0    0  501 -0.00000000000E+00  0.00000000000E+00  0.12584585576E+03  0.12585226384E+03  0.12700000000E+01 0. -1.
          4   -1    0    0  501    0  0.00000000000E+00 -0.00000000000E+00 -0.31019773926E+02  0.31045760973E+02  0.12700000000E+01 0. -1.
         25    2    1    2    0    0  0.00000000000E+00  0.00000000000E+00  0.94826081838E+02  0.15689802481E+03  0.12500001757E+03 0.  0.
    9000005    1    3    3    0    0  0.24590798031E+02 -0.12644605043E+02 -0.22929443946E+02  0.35935397371E+02  0.10000000000E+01 0.  0.
    9000005    1    3    3    0    0 -0.24590798031E+02  0.12644605043E+02  0.11775552578E+03  0.12096262744E+03  0.10000000000E+01 0.  0.
<mgrwt>
<rscale>  0 0.12500002E+03</rscale>
<asrwt>0</asrwt>
<pdfrwt beam="2">  1        4 0.47747647E-02 0.12500002E+03</pdfrwt>
<pdfrwt beam="1">  1       -4 0.19363393E-01 0.12500002E+03</pdfrwt>
<totfact> 0.97944137E+03</totfact>
</mgrwt>
</event>
<event>
 5    1  0.3321169E-002  0.1250000E+03  0.7818608E-02  0.1235069E+00
         -4   -1    0    0    0  501 -0.00000000000E+00  0.00000000000E+00  0.41858519536E+03  0.41858712197E+03  0.12700000000E+01 0.  1.
          4   -1    0    0  501    0  0.00000000000E+00 -0.00000000000E+00 -0.92868604692E+01  0.93732959718E+01  0.12700000000E+01 0.  1.
         25    2    1    2    0    0  0.00000000000E+00  0.00000000000E+00  0.40929833489E+03  0.42796041794E+03  0.12499996950E+03 0.  0.
    9000005    1    3    3    0    0 -0.18814138297E+00 -0.29461180344E+02  0.39333273411E+03  0.39443584557E+03  0.10000000000E+01 0.  0.
    9000005    1    3    3    0    0  0.18814138297E+00  0.29461180344E+02  0.15965600782E+02  0.33524572373E+02  0.10000000000E+01 0.  0.
<mgrwt>
<rscale>  0 0.12499997E+03</rscale>
<asrwt>0</asrwt>
<pdfrwt beam="2">  1        4 0.14355451E-02 0.12499997E+03</pdfrwt>
<pdfrwt beam="1">  1       -4 0.64404510E-01 0.12499997E+03</pdfrwt>
<totfact> 0.61921348E+03</totfact>
</mgrwt>
</event>
<event>
 5    1  0.3321169E-002  0.1249960E+03  0.7818608E-02  0.1235075E+00
          4   -1    0    0  501    0  0.00000000000E+00  0.00000000000E+00  0.25027538173E+03  0.25027860396E+03  0.12700000000E+01 0.  1.
         -4   -1    0    0    0  501 -0.00000000000E+00 -0.00000000000E+00 -0.15577649222E+02  0.15629333168E+02  0.12700000000E+01 0.  1.
         25    2    1    2    0    0  0.00000000000E+00  0.00000000000E+00  0.23469773251E+03  0.26590793713E+03  0.12499602147E+03 0.  0.
    9000005    1    3    3    0    0 -0.55699734409E+01 -0.61557836701E+02  0.13691678470E+03  0.15022515700E+03  0.10000000000E+01 0.  0.
    9000005    1    3    3    0    0  0.55699734409E+01  0.61557836701E+02  0.97780947803E+02  0.11568278012E+03  0.10000000000E+01 0.  0.
<mgrwt>
<rscale>  0 0.12499602E+03</rscale>
<asrwt>0</asrwt>
<pdfrwt beam="1">  1        4 0.38508128E-01 0.12499602E+03</pdfrwt>
<pdfrwt beam="2">  1       -4 0.24007850E-02 0.12499602E+03</pdfrwt>
<totfact> 0.80091138E+03</totfact>
</mgrwt>
</event>
<event>
 5    1  0.3321169E-002  0.1249956E+03  0.7818608E-02  0.1235076E+00
         -4   -1    0    0    0  501 -0.00000000000E+00  0.00000000000E+00  0.27713199616E+03  0.27713490613E+03  0.12700000000E+01 0.  1.
          4   -1    0    0  501    0  0.00000000000E+00 -0.00000000000E+00 -0.14062669090E+02  0.14119899501E+02  0.12700000000E+01 0.  1.
         25    2    1    2    0    0  0.00000000000E+00  0.00000000000E+00  0.26306932707E+03  0.29125480563E+03  0.12499556375E+03 0.  0.
    9000005    1    3    3    0    0 -0.24748080599E+02 -0.17372396171E+02  0.41065377101E+01  0.30530825309E+02  0.10000000000E+01 0.  0.
    9000005    1    3    3    0    0  0.24748080599E+02  0.17372396171E+02  0.25896278936E+03  0.26072398032E+03  0.10000000000E+01 0.  0.
<mgrwt>
<rscale>  0 0.12499556E+03</rscale>
<asrwt>0</asrwt>
<pdfrwt beam="2">  1        4 0.21681137E-02 0.12499556E+03</pdfrwt>
<pdfrwt beam="1">  1       -4 0.42640318E-01 0.12499556E+03</pdfrwt>
<totfact> 0.76716637E+03</totfact>
</mgrwt>
</event>
<event>
 5    1  0.3321169E-002  0.1250005E+03  0.7818608E-02  0.1235069E+00
         -4   -1    0    0    0  501 -0.00000000000E+00  0.00000000000E+00  0.19216468099E+02  0.19258388982E+02  0.12700000000E+01 0.  1.
          4   -1    0    0  501    0  0.00000000000E+00 -0.00000000000E+00 -0.20301229732E+03  0.20301626970E+03  0.12700000000E+01 0.  1.
         25    2    1    2    0    0  0.00000000000E+00  0.00000000000E+00 -0.18379582922E+03  0.22227465869E+03  0.12500046821E+03 0.  0.
    9000005    1    3    3    0    0  0.16901078938E+02 -0.60148951818E+02 -0.94241074209E+02  0.11307485548E+03  0.10000000000E+01 0.  0.
    9000005    1    3    3    0    0 -0.16901078938E+02  0.60148951818E+02 -0.89554755014E+02  0.10919980320E+03  0.10000000000E+01 0.  0.
<mgrwt>
<rscale>  0 0.12500047E+03</rscale>
<asrwt>0</asrwt>
<pdfrwt beam="2">  1        4 0.31236190E-01 0.12500047E+03</pdfrwt>
<pdfrwt beam="1">  1       -4 0.29599101E-02 0.12500047E+03</pdfrwt>
<totfact> 0.86508786E+03</totfact>
</mgrwt>
</event>
<event>
 5    1  0.3321169E-002  0.1249962E+03  0.7818608E-02  0.1235075E+00
          4   -1    0    0  501    0  0.00000000000E+00  0.00000000000E+00  0.43656465076E+03  0.43656649802E+03  0.12700000000E+01 0.  1.
         -4   -1    0    0    0  501 -0.00000000000E+00 -0.00000000000E+00 -0.89002163986E+01  0.89903699558E+01  0.12700000000E+01 0.  1.
         25    2    1    2    0    0  0.00000000000E+00  0.00000000000E+00  0.42766443437E+03  0.44555686798E+03  0.12499621667E+03 0.  0.
    9000005    1    3    3    0    0 -0.18907599503E+02 -0.53250150013E+02  0.11872197552E+03  0.13148757837E+03  0.10000000000E+01 0.  0.
    9000005    1    3    3    0    0  0.18907599503E+02  0.53250150013E+02  0.30894245885E+03  0.31406928961E+03  0.10000000000E+01 0.  0.
<mgrwt>
<rscale>  0 0.12499622E+03</rscale>
<asrwt>0</asrwt>
<pdfrwt beam="1">  1        4 0.67170859E-01 0.12499622E+03</pdfrwt>
<pdfrwt beam="2">  1       -4 0.13763413E-02 0.12499622E+03</pdfrwt>
<totfact> 0.60355679E+03</totfact>
</mgrwt>
</event>
<event>
 5    1  0.3321169E-002  0.1249993E+03  0.7818608E-02  0.1235070E+00
         -4   -1    0    0    0  501 -0.00000000000E+00  0.00000000000E+00  0.15802155012E+03  0.15802665346E+03  0.12700000000E+01 0.  1.
          4   -1    0    0  501    0  0.00000000000E+00 -0.00000000000E+00 -0.24697653710E+02  0.24730285053E+02  0.12700000000E+01 0.  1.
         25    2    1    2    0    0  0.00000000000E+00  0.00000000000E+00  0.13332389641E+03  0.18275693851E+03  0.12499934887E+03 0.  0.
    9000005    1    3    3    0    0  0.34998601064E+02  0.40361173174E+02  0.19256754062E+02  0.56795677242E+02  0.10000000000E+01 0.  0.
    9000005    1    3    3    0    0 -0.34998601064E+02 -0.40361173174E+02  0.11406714235E+03  0.12596126127E+03  0.10000000000E+01 0.  0.
<mgrwt>
<rscale>  0 0.12499935E+03</rscale>
<asrwt>0</asrwt>
<pdfrwt beam="2">  1        4 0.38025418E-02 0.12499935E+03</pdfrwt>
<pdfrwt beam="1">  1       -4 0.24313910E-01 0.12499935E+03</pdfrwt>
<totfact> 0.93124446E+03</totfact>
</mgrwt>
</event>
<event>
 5    1  0.3321169E-002  0.1249984E+03  0.7818608E-02  0.1235072E+00
          4   -1    0    0  501    0  0.00000000000E+00  0.00000000000E+00  0.79871391097E+02  0.79881487316E+02  0.12700000000E+01 0.  1.
         -4   -1    0    0    0  501 -0.00000000000E+00 -0.00000000000E+00 -0.48884089338E+02  0.48900583743E+02  0.12700000000E+01 0.  1.
         25    2    1    2    0    0  0.00000000000E+00  0.00000000000E+00  0.30987301760E+02  0.12878207106E+03  0.12499843581E+03 0.  0.
    9000005    1    3    3    0    0  0.18767418092E+02 -0.56316372354E+02  0.35614327111E+02  0.69232435119E+02  0.10000000000E+01 0.  0.
    9000005    1    3    3    0    0 -0.18767418092E+02  0.56316372354E+02 -0.46270253508E+01  0.59549635940E+02  0.10000000000E+01 0.  0.
<mgrwt>
<rscale>  0 0.12499844E+03</rscale>
<asrwt>0</asrwt>
<pdfrwt beam="1">  1        4 0.12289952E-01 0.12499844E+03</pdfrwt>
<pdfrwt beam="2">  1       -4 0.75226747E-02 0.12499844E+03</pdfrwt>
<totfact> 0.10370998E+04</totfact>
</mgrwt>
</event>
<event>
 5    1  0.3321169E-002  0.1249975E+03  0.7818608E-02  0.1235073E+00
         -4   -1    0    0    0  501 -0.00000000000E+00  0.00000000000E+00  0.29563946238E+03  0.29564219019E+03  0.12700000000E+01 0.  1.
          4   -1    0    0  501    0  0.00000000000E+00 -0.00000000000E+00 -0.13179051492E+02  0.13240101896E+02  0.12700000000E+01 0.  1.
         25    2    1    2    0    0  0.00000000000E+00  0.00000000000E+00  0.28246041089E+03  0.30888229208E+03  0.12499754654E+03 0.  0.
    9000005    1    3    3    0    0 -0.23676743833E+02 -0.53984099715E+02  0.89974812640E+02  0.10757015446E+03  0.10000000000E+01 0.  0.
    9000005    1    3    3    0    0  0.23676743833E+02  0.53984099715E+02  0.19248559825E+03  0.20131213762E+03  0.10000000000E+01 0.  0.
<mgrwt>
<rscale>  0 0.12499755E+03</rscale>
<asrwt>0</asrwt>
<pdfrwt beam="2">  1        4 0.20324522E-02 0.12499755E+03</pdfrwt>
<pdfrwt beam="1">  1       -4 0.45487904E-01 0.12499755E+03</pdfrwt>
<totfact> 0.74502050E+03</totfact>
</mgrwt>
</event>
<event>
 5    1  0.3321169E-002  0.1249991E+03  0.7818608E-02  0.1235071E+00
          4   -1    0    0  501    0  0.00000000000E+00  0.00000000000E+00  0.32703769443E+03  0.32704016035E+03  0.12700000000E+01 0.  1.
         -4   -1    0    0    0  501 -0.00000000000E+00 -0.00000000000E+00 -0.11907888971E+02  0.11975421485E+02  0.12700000000E+01 0.  1.
         25    2    1    2    0    0  0.00000000000E+00  0.00000000000E+00  0.31512980546E+03  0.33901558183E+03  0.12499908174E+03 0.  0.
    9000005    1    3    3    0    0  0.43210384593E+02 -0.20205934842E+02  0.26705547493E+03  0.27128406483E+03  0.10000000000E+01 0.  0.
    9000005    1    3    3    0    0 -0.43210384593E+02  0.20205934842E+02  0.48074330528E+02  0.67731517001E+02  0.10000000000E+01 0.  0.
<mgrwt>
<rscale>  0 0.12499908E+03</rscale>
<asrwt>0</asrwt>
<pdfrwt beam="1">  1        4 0.50318878E-01 0.12499908E+03</pdfrwt>
<pdfrwt beam="2">  1       -4 0.18373673E-02 0.12499908E+03</pdfrwt>
<totfact> 0.70951564E+03</totfact>
</mgrwt>
</event>
<event>
 5    1  0.3321169E-002  0.1249994E+03  0.7818608E-02  0.1235070E+00
          4   -1    0    0  501    0  0.00000000000E+00  0.00000000000E+00  0.54897342719E+02  0.54912030901E+02  0.12700000000E+01 0. -1.
         -4   -1    0    0    0  501 -0.00000000000E+00 -0.00000000000E+00 -0.71125024132E+02  0.71136361713E+02  0.12700000000E+01 0. -1.
         25    2    1    2    0    0  0.00000000000E+00  0.00000000000E+00 -0.16227681413E+02  0.12604839261E+03  0.12499943854E+03 0.  0.
    9000005    1    3    3    0    0  0.60015431310E+02  0.94372049008E-01  0.94493783459E+01  0.60763078037E+02  0.10000000000E+01 0.  0.
    9000005    1    3    3    0    0 -0.60015431310E+02 -0.94372049008E-01 -0.25677059759E+02  0.65285314576E+02  0.10000000000E+01 0.  0.
<mgrwt>
<rscale>  0 0.12499944E+03</rscale>
<asrwt>0</asrwt>
<pdfrwt beam="1">  1        4 0.84477470E-02 0.12499944E+03</pdfrwt>
<pdfrwt beam="2">  1       -4 0.10944313E-01 0.12499944E+03</pdfrwt>
<totfact> 0.10430029E+04</totfact>
</mgrwt>
</event>
<event>
 5    1  0.3321169E-002  0.1250089E+03  0.7818608E-02  0.1235055E+00
          4   -1    0    0  501    0  0.00000000000E+00  0.00000000000E+00  0.42982865080E+01  0.44819824749E+01  0.12700000000E+01 0.  1.
         -4   -1    0    0    0  501 -0.00000000000E+00 -0.00000000000E+00 -0.88972125043E+03  0.88972215684E+03  0.12700000000E+01 0.  1.
         25    2    1    2    0    0  0.00000000000E+00  0.00000000000E+00 -0.88542296392E+03  0.89420413931E+03  0.12500887057E+03 0.  0.
    9000005    1    3    3    0    0 -0.56235726391E+02 -0.53007634774E+01 -0.25140724010E+03  0.25767645486E+03  0.10000000000E+01 0.  0.
    9000005    1    3    3    0    0  0.56235726391E+02  0.53007634774E+01 -0.63401572382E+03  0.63652768445E+03  0.10000000000E+01 0.  0.
<mgrwt>
<rscale>  0 0.12500887E+03</rscale>
<asrwt>0</asrwt>
<pdfrwt beam="1">  1        4 0.67547574E-03 0.12500887E+03</pdfrwt>
<pdfrwt beam="2">  1       -4 0.13689425E+00 0.12500887E+03</pdfrwt>
<totfact> 0.34376199E+03</totfact>
</mgrwt>
</event>
<event>
 5    1  0.3321169E-002  0.1249998E+03  0.7818608E-02  0.1235070E+00
          4   -1    0    0  501    0  0.00000000000E+00  0.00000000000E+00  0.69444252027E+01  0.70595992376E+01  0.12700000000E+01 0. -1.
         -4   -1    0    0    0  501 -0.00000000000E+00 -0.00000000000E+00 -0.55775756266E+03  0.55775900854E+03  0.12700000000E+01 0. -1.
         25    2    1    2    0    0  0.00000000000E+00  0.00000000000E+00 -0.55081313746E+03  0.56481860778E+03  0.12499978917E+03 0.  0.
    9000005    1    3    3    0    0  0.84167382091E+01 -0.18967251012E+02 -0.90554387601E+01  0.22662724112E+02  0.10000000000E+01 0.  0.
    9000005    1    3    3    0    0 -0.84167382091E+01  0.18967251012E+02 -0.54175769870E+03  0.54215588367E+03  0.10000000000E+01 0.  0.
<mgrwt>
<rscale>  0 0.12499979E+03</rscale>
<asrwt>0</asrwt>
<pdfrwt beam="1">  1        4 0.10773443E-02 0.12499979E+03</pdfrwt>
<pdfrwt beam="2">  1       -4 0.85817792E-01 0.12499979E+03</pdfrwt>
<totfact> 0.51166683E+03</totfact>
</mgrwt>
</event>
<event>
 5    1  0.3321169E-002  0.1250024E+03  0.7818608E-02  0.1235066E+00
         -4   -1    0    0    0  501 -0.00000000000E+00  0.00000000000E+00  0.10327978182E+02  0.10405769233E+02  0.12700000000E+01 0.  1.
          4   -1    0    0  501    0  0.00000000000E+00 -0.00000000000E+00 -0.37673679816E+03  0.37673893877E+03  0.12700000000E+01 0.  1.
         25    2    1    2    0    0  0.00000000000E+00  0.00000000000E+00 -0.36640881997E+03  0.38714470800E+03  0.12500240630E+03 0.  0.
    9000005    1    3    3    0    0  0.22318672896E+02 -0.44596656889E+02 -0.29984687185E+03  0.30396731983E+03  0.10000000000E+01 0.  0.
    9000005    1    3    3    0    0 -0.22318672896E+02  0.44596656889E+02 -0.66561948126E+02  0.83177388176E+02  0.10000000000E+01 0.  0.
<mgrwt>
<rscale>  0 0.12500241E+03</rscale>
<asrwt>0</asrwt>
<pdfrwt beam="2">  1        4 0.57965645E-01 0.12500241E+03</pdfrwt>
<pdfrwt beam="1">  1       -4 0.15950686E-02 0.12500241E+03</pdfrwt>
<totfact> 0.65819088E+03</totfact>
</mgrwt>
</event>
<event>
 5    1  0.3321169E-002  0.1250110E+03  0.7818608E-02  0.1235052E+00
         -4   -1    0    0    0  501 -0.00000000000E+00  0.00000000000E+00  0.10240145826E+02  0.10318599059E+02  0.12700000000E+01 0. -1.
          4   -1    0    0  501    0  0.00000000000E+00 -0.00000000000E+00 -0.37999612935E+03  0.37999825160E+03  0.12700000000E+01 0. -1.
         25    2    1    2    0    0  0.00000000000E+00  0.00000000000E+00 -0.36975598352E+03  0.39031685066E+03  0.12501102575E+03 0.  0.
    9000005    1    3    3    0    0 -0.24842230611E+00  0.60638996927E+02 -0.23210462714E+03  0.23989728553E+03  0.10000000000E+01 0.  0.
    9000005    1    3    3    0    0  0.24842230611E+00 -0.60638996927E+02 -0.13765135638E+03  0.15041956514E+03  0.10000000000E+01 0.  0.
<mgrwt>
<rscale>  0 0.12501103E+03</rscale>
<asrwt>0</asrwt>
<pdfrwt beam="2">  1        4 0.58467130E-01 0.12501103E+03</pdfrwt>
<pdfrwt beam="1">  1       -4 0.15816055E-02 0.12501103E+03</pdfrwt>
<totfact> 0.65489639E+03</totfact>
</mgrwt>
</event>
<event>
 5    1  0.3321169E-002  0.1249994E+03  0.7818608E-02  0.1235070E+00
          4   -1    0    0  501    0  0.00000000000E+00  0.00000000000E+00  0.20110376131E+02  0.20150437418E+02  0.12700000000E+01 0.  1.
         -4   -1    0    0    0  501 -0.00000000000E+00 -0.00000000000E+00 -0.19400319557E+03  0.19400735242E+03  0.12700000000E+01 0.  1.
         25    2    1    2    0    0  0.00000000000E+00  0.00000000000E+00 -0.17389281944E+03  0.21415778983E+03  0.12499938518E+03 0.  0.
    9000005    1    3    3    0    0  0.11982933492E+02 -0.26926823829E+02  0.74634681742E+01  0.30419531452E+02  0.10000000000E+01 0.  0.
    9000005    1    3    3    0    0 -0.11982933492E+02  0.26926823829E+02 -0.18135628761E+03  0.18373825838E+03  0.10000000000E+01 0.  0.
<mgrwt>
<rscale>  0 0.12499939E+03</rscale>
<asrwt>0</asrwt>
<pdfrwt beam="1">  1        4 0.30973055E-02 0.12499939E+03</pdfrwt>
<pdfrwt beam="2">  1       -4 0.29850046E-01 0.12499939E+03</pdfrwt>
<totfact> 0.87802536E+03</totfact>
</mgrwt>
</event>
<event>
 5    1  0.3321169E-002  0.1250039E+03  0.7818608E-02  0.1235063E+00
         -4   -1    0    0    0  501 -0.00000000000E+00  0.00000000000E+00  0.51103269578E+01  0.52657707523E+01  0.12700000000E+01 0.  1.
          4   -1    0    0  501    0  0.00000000000E+00 -0.00000000000E+00 -0.75282312533E+03  0.75282419657E+03  0.12700000000E+01 0.  1.
         25    2    1    2    0    0  0.00000000000E+00  0.00000000000E+00 -0.74771279838E+03  0.75808996732E+03  0.12500387872E+03 0.  0.
    9000005    1    3    3    0    0 -0.26806964109E+02 -0.28027537924E+02 -0.67103925089E+03  0.67215982656E+03  0.10000000000E+01 0.  0.
    9000005    1    3    3    0    0  0.26806964109E+02  0.28027537924E+02 -0.76673547489E+02  0.85930140763E+02  0.10000000000E+01 0.  0.
<mgrwt>
<rscale>  0 0.12500388E+03</rscale>
<asrwt>0</asrwt>
<pdfrwt beam="2">  1        4 0.11583090E+00 0.12500388E+03</pdfrwt>
<pdfrwt beam="1">  1       -4 0.79824436E-03 0.12500388E+03</pdfrwt>
<totfact> 0.40186770E+03</totfact>
</mgrwt>
</event>
<event>
 5    1  0.3321169E-002  0.1249970E+03  0.7818608E-02  0.1235074E+00
          4   -1    0    0  501    0  0.00000000000E+00  0.00000000000E+00  0.62235623907E+02  0.62248580570E+02  0.12700000000E+01 0. -1.
         -4   -1    0    0    0  501 -0.00000000000E+00 -0.00000000000E+00 -0.62736559577E+02  0.62749412807E+02  0.12700000000E+01 0. -1.
         25    2    1    2    0    0  0.00000000000E+00  0.00000000000E+00 -0.50093567061E+00  0.12499799338E+03  0.12499698961E+03 0.  0.
    9000005    1    3    3    0    0  0.11849719226E+02  0.16344203603E+02  0.58889782319E+02  0.62261989197E+02  0.10000000000E+01 0.  0.
    9000005    1    3    3    0    0 -0.11849719226E+02 -0.16344203603E+02 -0.59390717990E+02  0.62736004180E+02  0.10000000000E+01 0.  0.
<mgrwt>
<rscale>  0 0.12499699E+03</rscale>
<asrwt>0</asrwt>
<pdfrwt beam="1">  1        4 0.95766968E-02 0.12499699E+03</pdfrwt>
<pdfrwt beam="2">  1       -4 0.96537637E-02 0.12499699E+03</pdfrwt>
<totfact> 0.10453617E+04</totfact>
</mgrwt>
</event>
<event>
 5    1  0.3321169E-002  0.1250029E+03  0.7818608E-02  0.1235065E+00
          4   -1    0    0  501    0  0.00000000000E+00  0.00000000000E+00  0.16125802436E+03  0.16126302528E+03  0.12700000000E+01 0. -1.
         -4   -1    0    0    0  501 -0.00000000000E+00 -0.00000000000E+00 -0.24202682439E+02  0.24235980220E+02  0.12700000000E+01 0. -1.
         25    2    1    2    0    0  0.00000000000E+00  0.00000000000E+00  0.13705534192E+03  0.18549900550E+03  0.12500285713E+03 0.  0.
    9000005    1    3    3    0    0 -0.32316859840E+02 -0.47449397250E+02  0.10516682977E+03  0.11982022706E+03  0.10000000000E+01 0.  0.
    9000005    1    3    3    0    0  0.32316859840E+02  0.47449397250E+02  0.31888512155E+02  0.65678778435E+02  0.10000000000E+01 0.  0.
<mgrwt>
<rscale>  0 0.12500286E+03</rscale>
<asrwt>0</asrwt>
<pdfrwt beam="1">  1        4 0.24811872E-01 0.12500286E+03</pdfrwt>
<pdfrwt beam="2">  1       -4 0.37264357E-02 0.12500286E+03</pdfrwt>
<totfact> 0.92630494E+03</totfact>
</mgrwt>
</event>
<event>
 5    1  0.3321169E-002  0.1250005E+03  0.7818608E-02  0.1235069E+00
          4   -1    0    0  501    0  0.00000000000E+00  0.00000000000E+00  0.19257423844E+03  0.19257842613E+03  0.12700000000E+01 0.  1.
         -4   -1    0    0    0  501 -0.00000000000E+00 -0.00000000000E+00 -0.20260252455E+02  0.20300017969E+02  0.12700000000E+01 0.  1.
         25    2    1    2    0    0  0.00000000000E+00  0.00000000000E+00  0.17231398598E+03  0.21287844410E+03  0.12500048878E+03 0.  0.
    9000005    1    3    3    0    0 -0.12971366243E+02 -0.51880423766E+02  0.31092614102E+02  0.61867482283E+02  0.10000000000E+01 0.  0.
    9000005    1    3    3    0    0  0.12971366243E+02  0.51880423766E+02  0.14122137188E+03  0.15101096181E+03  0.10000000000E+01 0.  0.
<mgrwt>
<rscale>  0 0.12500049E+03</rscale>
<asrwt>0</asrwt>
<pdfrwt beam="1">  1        4 0.29630188E-01 0.12500049E+03</pdfrwt>
<pdfrwt beam="2">  1       -4 0.31203428E-02 0.12500049E+03</pdfrwt>
<totfact> 0.88006977E+03</totfact>
</mgrwt>
</event>
<event>
 5    1  0.3321169E-002  0.1250019E+03  0.7818608E-02  0.1235066E+00
         -4   -1    0    0    0  501 -0.00000000000E+00  0.00000000000E+00  0.37154446263E+01  0.39265033772E+01  0.12700000000E+01 0.  1.
          4   -1    0    0  501    0  0.00000000000E+00 -0.00000000000E+00 -0.10221370813E+04  0.10221378702E+04  0.12700000000E+01 0.  1.
         25    2    1    2    0    0  0.00000000000E+00  0.00000000000E+00 -0.10184216366E+04  0.10260643736E+04  0.12500187539E+03 0.  0.
    9000005    1    3    3    0    0  0.49895179791E+02  0.31575488552E+02 -0.67719767182E+03  0.67976777444E+03  0.10000000000E+01 0.  0.
    9000005    1    3    3    0    0 -0.49895179791E+02 -0.31575488552E+02 -0.34122396480E+03  0.34629659917E+03  0.10000000000E+01 0.  0.
<mgrwt>
<rscale>  0 0.12500188E+03</rscale>
<asrwt>0</asrwt>
<pdfrwt beam="2">  1        4 0.15726794E+00 0.12500188E+03</pdfrwt>
<pdfrwt beam="1">  1       -4 0.58790366E-03 0.12500188E+03</pdfrwt>
<totfact> 0.29752880E+03</totfact>
</mgrwt>
</event>
<event>
 5    1  0.3321169E-002  0.1249998E+03  0.7818608E-02  0.1235070E+00
         -4   -1    0    0    0  501 -0.00000000000E+00  0.00000000000E+00  0.28570536532E+02  0.28598749234E+02  0.12700000000E+01 0. -1.
          4   -1    0    0  501    0  0.00000000000E+00 -0.00000000000E+00 -0.13662389088E+03  0.13662979345E+03  0.12700000000E+01 0. -1.
         25    2    1    2    0    0  0.00000000000E+00  0.00000000000E+00 -0.10805335435E+03  0.16522854269E+03  0.12499977573E+03 0.  0.
    9000005    1    3    3    0    0  0.60609406885E+02  0.90443418528E+01 -0.70212258693E+02  0.93199042878E+02  0.10000000000E+01 0.  0.
    9000005    1    3    3    0    0 -0.60609406885E+02 -0.90443418528E+01 -0.37841095655E+02  0.72029499810E+02  0.10000000000E+01 0.  0.
<mgrwt>
<rscale>  0 0.12499978E+03</rscale>
<asrwt>0</asrwt>
<pdfrwt beam="2">  1        4 0.21021684E-01 0.12499978E+03</pdfrwt>
<pdfrwt beam="1">  1       -4 0.43980915E-02 0.12499978E+03</pdfrwt>
<totfact> 0.96344613E+03</totfact>
</mgrwt>
</event>
<event>
 5    1  0.3321169E-002  0.1249970E+03  0.7818608E-02  0.1235074E+00
          4   -1    0    0  501    0  0.00000000000E+00  0.00000000000E+00  0.11510732884E+02  0.11580581657E+02  0.12700000000E+01 0.  1.
         -4   -1    0    0    0  501 -0.00000000000E+00 -0.00000000000E+00 -0.33824343752E+03  0.33824582174E+03  0.12700000000E+01 0.  1.
         25    2    1    2    0    0  0.00000000000E+00  0.00000000000E+00 -0.32673270464E+03  0.34982640340E+03  0.12499700891E+03 0.  0.
    9000005    1    3    3    0    0 -0.27519317739E+02 -0.48864938850E+01 -0.31978899056E+03  0.32100964028E+03  0.10000000000E+01 0.  0.
    9000005    1    3    3    0    0  0.27519317739E+02  0.48864938850E+01 -0.69437140770E+01  0.28816763116E+02  0.10000000000E+01 0.  0.
<mgrwt>
<rscale>  0 0.12499701E+03</rscale>
<asrwt>0</asrwt>
<pdfrwt beam="1">  1        4 0.17764386E-02 0.12499701E+03</pdfrwt>
<pdfrwt beam="2">  1       -4 0.52043001E-01 0.12499701E+03</pdfrwt>
<totfact> 0.69748278E+03</totfact>
</mgrwt>
</event>
<event>
 5    1  0.3321169E-002  0.1249912E+03  0.7818608E-02  0.1235083E+00
         -4   -1    0    0    0  501 -0.00000000000E+00  0.00000000000E+00  0.61604585254E+02  0.61617674610E+02  0.12700000000E+01 0.  1.
          4   -1    0    0  501    0  0.00000000000E+00 -0.00000000000E+00 -0.63373272707E+02  0.63385996826E+02  0.12700000000E+01 0.  1.
         25    2    1    2    0    0  0.00000000000E+00  0.00000000000E+00 -0.17686874527E+01  0.12500367144E+03  0.12499115816E+03 0.  0.
    9000005    1    3    3    0    0 -0.93663227107E+01  0.61142839217E+02 -0.97465296157E+01  0.62627227531E+02  0.10000000000E+01 0.  0.
    9000005    1    3    3    0    0  0.93663227107E+01 -0.61142839217E+02  0.79778421630E+01  0.62376443905E+02  0.10000000000E+01 0.  0.
<mgrwt>
<rscale>  0 0.12499116E+03</rscale>
<asrwt>0</asrwt>
<pdfrwt beam="2">  1        4 0.97517199E-02 0.12499116E+03</pdfrwt>
<pdfrwt beam="1">  1       -4 0.94796142E-02 0.12499116E+03</pdfrwt>
<totfact> 0.10454872E+04</totfact>
</mgrwt>
</event>
<event>
 5    1  0.3321169E-002  0.1250006E+03  0.7818608E-02  0.1235068E+00
         -4   -1    0    0    0  501 -0.00000000000E+00  0.00000000000E+00  0.12888774632E+03  0.12889400316E+03  0.12700000000E+01 0.  1.
          4   -1    0    0  501    0  0.00000000000E+00 -0.00000000000E+00 -0.30287374424E+02  0.30313989337E+02  0.12700000000E+01 0.  1.
         25    2    1    2    0    0  0.00000000000E+00  0.00000000000E+00  0.98600371898E+02  0.15920799250E+03  0.12500060615E+03 0.  0.
    9000005    1    3    3    0    0 -0.24935726069E+02  0.51104150284E+02  0.16286562143E+02  0.59158065530E+02  0.10000000000E+01 0.  0.
    9000005    1    3    3    0    0  0.24935726069E+02 -0.51104150284E+02  0.82313809755E+02  0.10004992697E+03  0.10000000000E+01 0.  0.
<mgrwt>
<rscale>  0 0.12500061E+03</rscale>
<asrwt>0</asrwt>
<pdfrwt beam="2">  1        4 0.46621246E-02 0.12500061E+03</pdfrwt>
<pdfrwt beam="1">  1       -4 0.19831413E-01 0.12500061E+03</pdfrwt>
<totfact> 0.97494366E+03</totfact>
</mgrwt>
</event>
<event>
 5    1  0.3321169E-002  0.1249988E+03  0.7818608E-02  0.1235071E+00
         -4   -1    0    0    0  501 -0.00000000000E+00  0.00000000000E+00  0.10901623772E+02  0.10975349692E+02  0.12700000000E+01 0. -1.
          4   -1    0    0  501    0  0.00000000000E+00 -0.00000000000E+00 -0.35702910732E+03  0.35703136610E+03  0.12700000000E+01 0. -1.
         25    2    1    2    0    0  0.00000000000E+00  0.00000000000E+00 -0.34612748355E+03  0.36800671579E+03  0.12499883198E+03 0.  0.
    9000005    1    3    3    0    0 -0.59518562435E+02 -0.10371506439E+02 -0.12603674800E+03  0.13977227646E+03  0.10000000000E+01 0.  0.
    9000005    1    3    3    0    0  0.59518562435E+02  0.10371506439E+02 -0.22009073555E+03  0.22823443933E+03  0.10000000000E+01 0.  0.
<mgrwt>
<rscale>  0 0.12499883E+03</rscale>
<asrwt>0</asrwt>
<pdfrwt beam="2">  1        4 0.54933391E-01 0.12499883E+03</pdfrwt>
<pdfrwt beam="1">  1       -4 0.16830181E-02 0.12499883E+03</pdfrwt>
<totfact> 0.67789743E+03</totfact>
</mgrwt>
</event>
<event>
 5    1  0.3321169E-002  0.1250003E+03  0.7818608E-02  0.1235069E+00
         -4   -1    0    0    0  501 -0.00000000000E+00  0.00000000000E+00  0.24114157799E+02  0.24147577650E+02  0.12700000000E+01 0. -1.
          4   -1    0    0  501    0  0.00000000000E+00 -0.00000000000E+00 -0.16184251708E+03  0.16184749993E+03  0.12700000000E+01 0. -1.
         25    2    1    2    0    0  0.00000000000E+00  0.00000000000E+00 -0.13772835928E+03  0.18599507758E+03  0.12500027174E+03 0.  0.
    9000005    1    3    3    0    0 -0.40145792760E+02 -0.14853795530E+02 -0.13661032656E+03  0.14316319792E+03  0.10000000000E+01 0.  0.
    9000005    1    3    3    0    0  0.40145792760E+02  0.14853795530E+02 -0.11180327251E+01  0.42831879659E+02  0.10000000000E+01 0.  0.
<mgrwt>
<rscale>  0 0.12500027E+03</rscale>
<asrwt>0</asrwt>
<pdfrwt beam="2">  1        4 0.24901802E-01 0.12500027E+03</pdfrwt>
<pdfrwt beam="1">  1       -4 0.37128246E-02 0.12500027E+03</pdfrwt>
<totfact> 0.92548302E+03</totfact>
</mgrwt>
</event>
<event>
 5    1  0.3321169E-002  0.1250002E+03  0.7818608E-02  0.1235069E+00
         -4   -1    0    0    0  501 -0.00000000000E+00  0.00000000000E+00  0.24820857174E+02  0.24853326756E+02  0.12700000000E+01 0. -1.
          4   -1    0    0  501    0  0.00000000000E+00 -0.00000000000E+00 -0.15724038214E+03  0.15724551082E+03  0.12700000000E+01 0. -1.
         25    2    1    2    0    0  0.00000000000E+00  0.00000000000E+00 -0.13241952496E+03  0.18209883758E+03  0.12500022423E+03 0.  0.
    9000005    1    3    3    0    0 -0.34601605064E+02  0.49916686860E+02 -0.87635807959E+02  0.10663011552E+03  0.10000000000E+01 0.  0.
    9000005    1    3    3    0    0  0.34601605064E+02 -0.49916686860E+02 -0.44783717003E+02  0.75468722056E+02  0.10000000000E+01 0.  0.
<mgrwt>
<rscale>  0 0.12500022E+03</rscale>
<asrwt>0</asrwt>
<pdfrwt beam="2">  1        4 0.24193720E-01 0.12500022E+03</pdfrwt>
<pdfrwt beam="1">  1       -4 0.38214857E-02 0.12500022E+03</pdfrwt>
<totfact> 0.93240096E+03</totfact>
</mgrwt>
</event>
<event>
 5    1  0.3321169E-002  0.1249971E+03  0.7818608E-02  0.1235074E+00
         -4   -1    0    0    0  501 -0.00000000000E+00  0.00000000000E+00  0.13305039159E+03  0.13305645269E+03  0.12700000000E+01 0.  1.
          4   -1    0    0  501    0  0.00000000000E+00 -0.00000000000E+00 -0.29337337710E+02  0.29364813705E+02  0.12700000000E+01 0.  1.
         25    2    1    2    0    0  0.00000000000E+00  0.00000000000E+00  0.10371305388E+03  0.16242126639E+03  0.12499708089E+03 0.  0.
    9000005    1    3    3    0    0  0.32715507304E+01  0.23051206881E+02 -0.23497569522E+02  0.33093760081E+02  0.10000000000E+01 0.  0.
    9000005    1    3    3    0    0 -0.32715507304E+01 -0.23051206881E+02  0.12721062340E+03  0.12932750631E+03  0.10000000000E+01 0.  0.
<mgrwt>
<rscale>  0 0.12499708E+03</rscale>
<asrwt>0</asrwt>
<pdfrwt beam="2">  1        4 0.45160163E-02 0.12499708E+03</pdfrwt>
<pdfrwt beam="1">  1       -4 0.20471871E-01 0.12499708E+03</pdfrwt>
<totfact> 0.96884359E+03</totfact>
</mgrwt>
</event>
<event>
 5    1  0.3321169E-002  0.1249991E+03  0.7818608E-02  0.1235071E+00
         -4   -1    0    0    0  501 -0.00000000000E+00  0.00000000000E+00  0.15180370061E+03  0.15180901297E+03  0.12700000000E+01 0. -1.
          4   -1    0    0  501    0  0.00000000000E+00 -0.00000000000E+00 -0.25710429624E+02  0.25741777162E+02  0.12700000000E+01 0. -1.
         25    2    1    2    0    0  0.00000000000E+00  0.00000000000E+00  0.12609327099E+03  0.17755079014E+03  0.12499908035E+03 0.  0.
    9000005    1    3    3    0    0  0.33732957060E+02  0.52604267811E+02  0.63425485569E+02  0.89044447349E+02  0.10000000000E+01 0.  0.
    9000005    1    3    3    0    0 -0.33732957060E+02 -0.52604267811E+02  0.62667785421E+02  0.88506342787E+02  0.10000000000E+01 0.  0.
<mgrwt>
<rscale>  0 0.12499908E+03</rscale>
<asrwt>0</asrwt>
<pdfrwt beam="2">  1        4 0.39582708E-02 0.12499908E+03</pdfrwt>
<pdfrwt beam="1">  1       -4 0.23357235E-01 0.12499908E+03</pdfrwt>
<totfact> 0.94061676E+03</totfact>
</mgrwt>
</event>
<event>
 5    1  0.3321169E-002  0.1250009E+03  0.7818608E-02  0.1235068E+00
         -4   -1    0    0    0  501 -0.00000000000E+00  0.00000000000E+00  0.35312836555E+02  0.35335666480E+02  0.12700000000E+01 0. -1.
          4   -1    0    0  501    0  0.00000000000E+00 -0.00000000000E+00 -0.11055784650E+03  0.11056514063E+03  0.12700000000E+01 0. -1.
         25    2    1    2    0    0  0.00000000000E+00  0.00000000000E+00 -0.75245009948E+02  0.14590080711E+03  0.12500093597E+03 0.  0.
    9000005    1    3    3    0    0  0.11481395351E+02  0.15323352489E+02 -0.10705537738E+03  0.10875882215E+03  0.10000000000E+01 0.  0.
    9000005    1    3    3    0    0 -0.11481395351E+02 -0.15323352489E+02  0.31810367430E+02  0.37141984960E+02  0.10000000000E+01 0.  0.
<mgrwt>
<rscale>  0 0.12500094E+03</rscale>
<asrwt>0</asrwt>
<pdfrwt beam="2">  1        4 0.17011217E-01 0.12500094E+03</pdfrwt>
<pdfrwt beam="1">  1       -4 0.54350613E-02 0.12500094E+03</pdfrwt>
<totfact> 0.10012507E+04</totfact>
</mgrwt>
</event>
<event>
 5    1  0.3321169E-002  0.1250034E+03  0.7818608E-02  0.1235064E+00
         -4   -1    0    0    0  501 -0.00000000000E+00  0.00000000000E+00  0.21200514269E+02  0.21238519375E+02  0.12700000000E+01 0.  1.
          4   -1    0    0  501    0  0.00000000000E+00 -0.00000000000E+00 -0.18405734747E+03  0.18406172894E+03  0.12700000000E+01 0.  1.
         25    2    1    2    0    0  0.00000000000E+00  0.00000000000E+00 -0.16285683321E+03  0.20530024831E+03  0.12500337530E+03 0.  0.
    9000005    1    3    3    0    0 -0.17240640519E+02  0.54838120701E+02 -0.41165464164E+02  0.70711064250E+02  0.10000000000E+01 0.  0.
    9000005    1    3    3    0    0  0.17240640519E+02 -0.54838120701E+02 -0.12169136904E+03  0.13458918406E+03  0.10000000000E+01 0.  0.
<mgrwt>
<rscale>  0 0.12500338E+03</rscale>
<asrwt>0</asrwt>
<pdfrwt beam="2">  1        4 0.28319774E-01 0.12500338E+03</pdfrwt>
<pdfrwt beam="1">  1       -4 0.32648782E-02 0.12500338E+03</pdfrwt>
<totfact> 0.89242473E+03</totfact>
</mgrwt>
</event>
<event>
 5    1  0.3321169E-002  0.1250004E+03  0.7818608E-02  0.1235069E+00
          4   -1    0    0  501    0  0.00000000000E+00  0.00000000000E+00  0.58025441831E+02  0.58039338381E+02  0.12700000000E+01 0. -1.
         -4   -1    0    0    0  501 -0.00000000000E+00 -0.00000000000E+00 -0.67292094471E+02  0.67304077724E+02  0.12700000000E+01 0. -1.
         25    2    1    2    0    0  0.00000000000E+00  0.00000000000E+00 -0.92666526404E+01  0.12534341611E+03  0.12500040444E+03 0.  0.
    9000005    1    3    3    0    0  0.40308570794E+02  0.17304475746E+02 -0.49264445159E+02  0.65971291613E+02  0.10000000000E+01 0.  0.
    9000005    1    3    3    0    0 -0.40308570794E+02 -0.17304475746E+02  0.39997792518E+02  0.59372124492E+02  0.10000000000E+01 0.  0.
<mgrwt>
<rscale>  0 0.12500040E+03</rscale>
<asrwt>0</asrwt>
<pdfrwt beam="1">  1        4 0.89289819E-02 0.12500040E+03</pdfrwt>
<pdfrwt beam="2">  1       -4 0.10354621E-01 0.12500040E+03</pdfrwt>
<totfact> 0.10445313E+04</totfact>
</mgrwt>
</event>
<event>
 5    1  0.3321169E-002  0.1250000E+03  0.7818608E-02  0.1235069E+00
         -4   -1    0    0    0  501 -0.00000000000E+00  0.00000000000E+00  0.36907899999E+02  0.36929743871E+02  0.12700000000E+01 0. -1.
          4   -1    0    0  501    0  0.00000000000E+00 -0.00000000000E+00 -0.10578078237E+03  0.10578840588E+03  0.12700000000E+01 0. -1.
         25    2    1    2    0    0  0.00000000000E+00  0.00000000000E+00 -0.68872882371E+02  0.14271814975E+03  0.12499998537E+03 0.  0.
    9000005    1    3    3    0    0 -0.12026692341E+02 -0.17088851020E+02 -0.10167912444E+03  0.10380902901E+03  0.10000000000E+01 0.  0.
    9000005    1    3    3    0    0  0.12026692341E+02  0.17088851020E+02  0.32806242069E+02  0.38909120738E+02  0.10000000000E+01 0.  0.
<mgrwt>
<rscale>  0 0.12499999E+03</rscale>
<asrwt>0</asrwt>
<pdfrwt beam="2">  1        4 0.16276233E-01 0.12499999E+03</pdfrwt>
<pdfrwt beam="1">  1       -4 0.56804052E-02 0.12499999E+03</pdfrwt>
<totfact> 0.10077561E+04</totfact>
</mgrwt>
</event>
<event>
 5    1  0.3321169E-002  0.1250539E+03  0.7818608E-02  0.1234985E+00
          4   -1    0    0  501    0  0.00000000000E+00  0.00000000000E+00  0.20192975408E+02  0.20232873148E+02  0.12700000000E+01 0. -1.
         -4   -1    0    0    0  501 -0.00000000000E+00 -0.00000000000E+00 -0.19337993249E+03  0.19338410274E+03  0.12700000000E+01 0. -1.
         25    2    1    2    0    0  0.00000000000E+00  0.00000000000E+00 -0.17318695709E+03  0.21361697589E+03  0.12505394948E+03 0.  0.
    9000005    1    3    3    0    0  0.27563942091E+02 -0.29308882224E+02 -0.16833468106E+03  0.17307901758E+03  0.10000000000E+01 0.  0.
    9000005    1    3    3    0    0 -0.27563942091E+02  0.29308882224E+02 -0.48522760313E+01  0.40537958304E+02  0.10000000000E+01 0.  0.
<mgrwt>
<rscale>  0 0.12505395E+03</rscale>
<asrwt>0</asrwt>
<pdfrwt beam="1">  1        4 0.31100016E-02 0.12505395E+03</pdfrwt>
<pdfrwt beam="2">  1       -4 0.29754147E-01 0.12505395E+03</pdfrwt>
<totfact> 0.87782682E+03</totfact>
</mgrwt>
</event>
<event>
 5    1  0.3321169E-002  0.1250004E+03  0.7818608E-02  0.1235069E+00
         -4   -1    0    0    0  501 -0.00000000000E+00  0.00000000000E+00  0.30417099718E+03  0.30417364847E+03  0.12700000000E+01 0. -1.
          4   -1    0    0  501    0  0.00000000000E+00 -0.00000000000E+00 -0.12808245272E+02  0.12871054617E+02  0.12700000000E+01 0. -1.
         25    2    1    2    0    0  0.00000000000E+00  0.00000000000E+00  0.29136275190E+03  0.31704470309E+03  0.12500036223E+03 0.  0.
    9000005    1    3    3    0    0  0.38200984468E+02  0.48747081112E+02  0.16685337025E+03  0.17797932547E+03  0.10000000000E+01 0.  0.
    9000005    1    3    3    0    0 -0.38200984468E+02 -0.48747081112E+02  0.12450938165E+03  0.13906537762E+03  0.10000000000E+01 0.  0.
<mgrwt>
<rscale>  0 0.12500036E+03</rscale>
<asrwt>0</asrwt>
<pdfrwt beam="2">  1        4 0.19755346E-02 0.12500036E+03</pdfrwt>
<pdfrwt beam="1">  1       -4 0.46800575E-01 0.12500036E+03</pdfrwt>
<totfact> 0.73508409E+03</totfact>
</mgrwt>
</event>
<event>
 5    1  0.3321169E-002  0.1249838E+03  0.7818608E-02  0.1235095E+00
         -4   -1    0    0    0  501 -0.00000000000E+00  0.00000000000E+00  0.19851059765E+03  0.19851466012E+03  0.12700000000E+01 0.  1.
          4   -1    0    0  501    0  0.00000000000E+00 -0.00000000000E+00 -0.19647910819E+02  0.19688913112E+02  0.12700000000E+01 0.  1.
         25    2    1    2    0    0  0.00000000000E+00  0.00000000000E+00  0.17886268684E+03  0.21820357323E+03  0.12498375345E+03 0.  0.
    9000005    1    3    3    0    0 -0.16513441783E+01  0.12912673684E+02 -0.17262720998E+02  0.21644066520E+02  0.10000000000E+01 0.  0.
    9000005    1    3    3    0    0  0.16513441783E+01 -0.12912673684E+02  0.19612540783E+03  0.19655950671E+03  0.10000000000E+01 0.  0.
<mgrwt>
<rscale>  0 0.12498375E+03</rscale>
<asrwt>0</asrwt>
<pdfrwt beam="2">  1        4 0.30262219E-02 0.12498375E+03</pdfrwt>
<pdfrwt beam="1">  1       -4 0.30543560E-01 0.12498375E+03</pdfrwt>
<totfact> 0.87185049E+03</totfact>
</mgrwt>
</event>
<event>
 5    1  0.3321169E-002  0.1250030E+03  0.7818608E-02  0.1235065E+00
          4   -1    0    0  501    0  0.00000000000E+00  0.00000000000E+00  0.10507252618E+02  0.10583726073E+02  0.12700000000E+01 0.  1.
         -4   -1    0    0    0  501 -0.00000000000E+00 -0.00000000000E+00 -0.37035930479E+03  0.37036148227E+03  0.12700000000E+01 0.  1.
         25    2    1    2    0    0  0.00000000000E+00  0.00000000000E+00 -0.35985205217E+03  0.38094520834E+03  0.12500300917E+03 0.  0.
    9000005    1    3    3    0    0 -0.22144633235E+01  0.53591103816E+02 -0.27766101519E+03  0.28279595049E+03  0.10000000000E+01 0.  0.
    9000005    1    3    3    0    0  0.22144633235E+01 -0.53591103816E+02 -0.82191036982E+02  0.98149257848E+02  0.10000000000E+01 0.  0.
<mgrwt>
<rscale>  0 0.12500301E+03</rscale>
<asrwt>0</asrwt>
<pdfrwt beam="1">  1        4 0.16225508E-02 0.12500301E+03</pdfrwt>
<pdfrwt beam="2">  1       -4 0.56984395E-01 0.12500301E+03</pdfrwt>
<totfact> 0.66444785E+03</totfact>
</mgrwt>
</event>
<event>
 5    1  0.3321169E-002  0.1249940E+03  0.7818608E-02  0.1235079E+00
         -4   -1    0    0    0  501 -0.00000000000E+00  0.00000000000E+00  0.98039591874E+03  0.98039674132E+03  0.12700000000E+01 0.  1.
          4   -1    0    0  501    0  0.00000000000E+00 -0.00000000000E+00 -0.38819179953E+01  0.40843833467E+01  0.12700000000E+01 0.  1.
         25    2    1    2    0    0  0.00000000000E+00  0.00000000000E+00  0.97651400075E+03  0.98448112466E+03  0.12499396452E+03 0.  0.
    9000005    1    3    3    0    0  0.58921809709E+02 -0.11609305690E+02  0.62429413131E+03  0.62717678371E+03  0.10000000000E+01 0.  0.
    9000005    1    3    3    0    0 -0.58921809709E+02  0.11609305690E+02  0.35221986944E+03  0.35730434096E+03  0.10000000000E+01 0.  0.
<mgrwt>
<rscale>  0 0.12499396E+03</rscale>
<asrwt>0</asrwt>
<pdfrwt beam="2">  1        4 0.61285593E-03 0.12499396E+03</pdfrwt>
<pdfrwt beam="1">  1       -4 0.15084572E+00 0.12499396E+03</pdfrwt>
<totfact> 0.31126611E+03</totfact>
</mgrwt>
</event>
<event>
 5    1  0.3321169E-002  0.1250399E+03  0.7818608E-02  0.1235007E+00
         -4   -1    0    0    0  501 -0.00000000000E+00  0.00000000000E+00  0.65864116793E+03  0.65864239235E+03  0.12700000000E+01 0. -1.
          4   -1    0    0  501    0  0.00000000000E+00 -0.00000000000E+00 -0.58653656344E+01  0.60012843646E+01  0.12700000000E+01 0. -1.
         25    2    1    2    0    0  0.00000000000E+00  0.00000000000E+00  0.65277580230E+03  0.66464367671E+03  0.12503986934E+03 0.  0.
    9000005    1    3    3    0    0 -0.54769269780E+02 -0.23172709859E+02  0.42878386118E+03  0.43288941660E+03  0.10000000000E+01 0.  0.
    9000005    1    3    3    0    0  0.54769269780E+02  0.23172709859E+02  0.22399194112E+03  0.23175426012E+03  0.10000000000E+01 0.  0.
<mgrwt>
<rscale>  0 0.12503987E+03</rscale>
<asrwt>0</asrwt>
<pdfrwt beam="2">  1        4 0.91291296E-03 0.12503987E+03</pdfrwt>
<pdfrwt beam="1">  1       -4 0.10134001E+00 0.12503987E+03</pdfrwt>
<totfact> 0.44980608E+03</totfact>
</mgrwt>
</event>
<event>
 5    1  0.3321169E-002  0.1249934E+03  0.7818608E-02  0.1235080E+00
         -4   -1    0    0    0  501 -0.00000000000E+00  0.00000000000E+00  0.19787605568E+02  0.19828318994E+02  0.12700000000E+01 0. -1.
          4   -1    0    0  501    0  0.00000000000E+00 -0.00000000000E+00 -0.19714243047E+03  0.19714652113E+03  0.12700000000E+01 0. -1.
         25    2    1    2    0    0  0.00000000000E+00  0.00000000000E+00 -0.17735482490E+03  0.21697484012E+03  0.12499338914E+03 0.  0.
    9000005    1    3    3    0    0  0.12612076100E+02 -0.52303775280E+02 -0.33507559949E+02  0.63391686725E+02  0.10000000000E+01 0.  0.
    9000005    1    3    3    0    0 -0.12612076100E+02  0.52303775280E+02 -0.14384726495E+03  0.15358315339E+03  0.10000000000E+01 0.  0.
<mgrwt>
<rscale>  0 0.12499339E+03</rscale>
<asrwt>0</asrwt>
<pdfrwt beam="2">  1        4 0.30333050E-01 0.12499339E+03</pdfrwt>
<pdfrwt beam="1">  1       -4 0.30476936E-02 0.12499339E+03</pdfrwt>
<totfact> 0.87362220E+03</totfact>
</mgrwt>
</event>
<event>
 5    1  0.3321169E-002  0.1249954E+03  0.7818608E-02  0.1235077E+00
         -4   -1    0    0    0  501 -0.00000000000E+00  0.00000000000E+00  0.11711433556E+03  0.11712122136E+03  0.12700000000E+01 0.  1.
          4   -1    0    0  501    0  0.00000000000E+00 -0.00000000000E+00 -0.33331731007E+02  0.33355916895E+02  0.12700000000E+01 0.  1.
         25    2    1    2    0    0  0.00000000000E+00  0.00000000000E+00  0.83782604553E+02  0.15047713826E+03  0.12499537716E+03 0.  0.
    9000005    1    3    3    0    0 -0.18312770773E+02 -0.59171122817E+02  0.51846424853E+02  0.80781378540E+02  0.10000000000E+01 0.  0.
    9000005    1    3    3    0    0  0.18312770773E+02  0.59171122817E+02  0.31936179700E+02  0.69695759718E+02  0.10000000000E+01 0.  0.
<mgrwt>
<rscale>  0 0.12499538E+03</rscale>
<asrwt>0</asrwt>
<pdfrwt beam="2">  1        4 0.51303488E-02 0.12499538E+03</pdfrwt>
<pdfrwt beam="1">  1       -4 0.18019980E-01 0.12499538E+03</pdfrwt>
<totfact> 0.99218995E+03</totfact>
</mgrwt>
</event>
<event>
 5    1  0.3321169E-002  0.1250003E+03  0.7818608E-02  0.1235069E+00
          4   -1    0    0  501    0  0.00000000000E+00  0.00000000000E+00  0.52950477566E+01  0.54452209087E+01  0.12700000000E+01 0. -1.
         -4   -1    0    0    0  501 -0.00000000000E+00 -0.00000000000E+00 -0.72725505873E+03  0.72725616763E+03  0.12700000000E+01 0. -1.
         25    2    1    2    0    0  0.00000000000E+00  0.00000000000E+00 -0.72196001098E+03  0.73270138854E+03  0.12500026926E+03 0.  0.
    9000005    1    3    3    0    0  0.21161461497E+02 -0.58191145764E+00 -0.70562608357E+03  0.70594427251E+03  0.10000000000E+01 0.  0.
    9000005    1    3    3    0    0 -0.21161461497E+02  0.58191145764E+00 -0.16333927409E+02  0.26757116030E+02  0.10000000000E+01 0.  0.
<mgrwt>
<rscale>  0 0.12500027E+03</rscale>
<asrwt>0</asrwt>
<pdfrwt beam="1">  1        4 0.82626039E-03 0.12500027E+03</pdfrwt>
<pdfrwt beam="2">  1       -4 0.11189695E+00 0.12500027E+03</pdfrwt>
<totfact> 0.41415292E+03</totfact>
</mgrwt>
</event>
<event>
 5    1  0.3321169E-002  0.1250028E+03  0.7818608E-02  0.1235065E+00
          4   -1    0    0  501    0  0.00000000000E+00  0.00000000000E+00  0.10114485408E+03  0.10115282699E+03  0.12700000000E+01 0. -1.
         -4   -1    0    0    0  501 -0.00000000000E+00 -0.00000000000E+00 -0.38602164316E+02  0.38623049982E+02  0.12700000000E+01 0. -1.
         25    2    1    2    0    0  0.00000000000E+00  0.00000000000E+00  0.62542689766E+02  0.13977587697E+03  0.12500283092E+03 0.  0.
    9000005    1    3    3    0    0 -0.17819698336E+01  0.10627726100E+02 -0.37560917079E+02  0.39088955861E+02  0.10000000000E+01 0.  0.
    9000005    1    3    3    0    0  0.17819698336E+01 -0.10627726100E+02  0.10010360684E+03  0.10068692111E+03  0.10000000000E+01 0.  0.
<mgrwt>
<rscale>  0 0.12500283E+03</rscale>
<asrwt>0</asrwt>
<pdfrwt beam="1">  1        4 0.15562966E-01 0.12500283E+03</pdfrwt>
<pdfrwt beam="2">  1       -4 0.59410145E-02 0.12500283E+03</pdfrwt>
<totfact> 0.10137586E+04</totfact>
</mgrwt>
</event>
<event>
 5    1  0.3321169E-002  0.1249996E+03  0.7818608E-02  0.1235070E+00
         -4   -1    0    0    0  501 -0.00000000000E+00  0.00000000000E+00  0.13381024262E+04  0.13381030289E+04  0.12700000000E+01 0. -1.
          4   -1    0    0  501    0  0.00000000000E+00 -0.00000000000E+00 -0.27804674975E+01  0.30567792699E+01  0.12700000000E+01 0. -1.
         25    2    1    2    0    0  0.00000000000E+00  0.00000000000E+00  0.13353219587E+04  0.13411598081E+04  0.12499959043E+03 0.  0.
    9000005    1    3    3    0    0  0.41471228059E+02  0.26799397999E+02  0.25669130335E+03  0.26139911191E+03  0.10000000000E+01 0.  0.
    9000005    1    3    3    0    0 -0.41471228059E+02 -0.26799397999E+02  0.10786306554E+04  0.10797606962E+04  0.10000000000E+01 0.  0.
<mgrwt>
<rscale>  0 0.12499959E+03</rscale>
<asrwt>0</asrwt>
<pdfrwt beam="2">  1        4 0.44906389E-03 0.12499959E+03</pdfrwt>
<pdfrwt beam="1">  1       -4 0.20588388E+00 0.12499959E+03</pdfrwt>
<totfact> 0.21277496E+03</totfact>
</mgrwt>
</event>
<event>
 5    1  0.3321169E-002  0.1250008E+03  0.7818608E-02  0.1235068E+00
         -4   -1    0    0    0  501 -0.00000000000E+00  0.00000000000E+00  0.40854134024E+02  0.40873868998E+02  0.12700000000E+01 0.  1.
          4   -1    0    0  501    0  0.00000000000E+00 -0.00000000000E+00 -0.95568748675E+02  0.95577186730E+02  0.12700000000E+01 0.  1.
         25    2    1    2    0    0  0.00000000000E+00  0.00000000000E+00 -0.54714614651E+02  0.13645105573E+03  0.12500080621E+03 0.  0.
    9000005    1    3    3    0    0  0.81504441508E+00 -0.42299677006E+02 -0.77563536856E+02  0.88357394834E+02  0.10000000000E+01 0.  0.
    9000005    1    3    3    0    0 -0.81504441508E+00  0.42299677006E+02  0.22848922205E+02  0.48093660894E+02  0.10000000000E+01 0.  0.
<mgrwt>
<rscale>  0 0.12500081E+03</rscale>
<asrwt>0</asrwt>
<pdfrwt beam="2">  1        4 0.14705052E-01 0.12500081E+03</pdfrwt>
<pdfrwt beam="1">  1       -4 0.62874186E-02 0.12500081E+03</pdfrwt>
<totfact> 0.10207391E+04</totfact>
</mgrwt>
</event>
<event>
 5    1  0.3321169E-002  0.1249800E+03  0.7818608E-02  0.1235101E+00
         -4   -1    0    0    0  501 -0.00000000000E+00  0.00000000000E+00  0.16012331132E+02  0.16062616483E+02  0.12700000000E+01 0. -1.
          4   -1    0    0  501    0  0.00000000000E+00 -0.00000000000E+00 -0.24344015232E+03  0.24344346502E+03  0.12700000000E+01 0. -1.
         25    2    1    2    0    0  0.00000000000E+00  0.00000000000E+00 -0.22742782119E+03  0.25950608150E+03  0.12497996834E+03 0.  0.
    9000005    1    3    3    0    0  0.42819495133E+02  0.40820673928E+02 -0.15545700313E+03  0.16633615483E+03  0.10000000000E+01 0.  0.
    9000005    1    3    3    0    0 -0.42819495133E+02 -0.40820673928E+02 -0.71970818060E+02  0.93169926669E+02  0.10000000000E+01 0.  0.
<mgrwt>
<rscale>  0 0.12497997E+03</rscale>
<asrwt>0</asrwt>
<pdfrwt beam="2">  1        4 0.37456451E-01 0.12497997E+03</pdfrwt>
<pdfrwt beam="1">  1       -4 0.24675587E-02 0.12497997E+03</pdfrwt>
<totfact> 0.81011545E+03</totfact>
</mgrwt>
</event>
<event>
 5    1  0.3321169E-002  0.1250034E+03  0.7818608E-02  0.1235064E+00
         -4   -1    0    0    0  501 -0.00000000000E+00  0.00000000000E+00  0.92118073519E+02  0.92126827628E+02  0.12700000000E+01 0. -1.
          4   -1    0    0  501    0  0.00000000000E+00 -0.00000000000E+00 -0.42386817699E+02  0.42405839393E+02  0.12700000000E+01 0. -1.
         25    2    1    2    0    0  0.00000000000E+00  0.00000000000E+00  0.49731255820E+02  0.13453266702E+03  0.12500336272E+03 0.  0.
    9000005    1    3    3    0    0 -0.17828472221E+02  0.51194723163E+02 -0.85964787201E+01  0.54896753528E+02  0.10000000000E+01 0.  0.
    9000005    1    3    3    0    0  0.17828472221E+02 -0.51194723163E+02  0.58327734540E+02  0.79635913494E+02  0.10000000000E+01 0.  0.
<mgrwt>
<rscale>  0 0.12500336E+03</rscale>
<asrwt>0</asrwt>
<pdfrwt beam="2">  1        4 0.65231855E-02 0.12500336E+03</pdfrwt>
<pdfrwt beam="1">  1       -4 0.14174148E-01 0.12500336E+03</pdfrwt>
<totfact> 0.10247153E+04</totfact>
</mgrwt>
</event>
<event>
 5    1  0.3321169E-002  0.1249961E+03  0.7818608E-02  0.1235075E+00
         -4   -1    0    0    0  501 -0.00000000000E+00  0.00000000000E+00  0.13136980092E+02  0.13198225106E+02  0.12700000000E+01 0.  1.
          4   -1    0    0  501    0  0.00000000000E+00 -0.00000000000E+00 -0.29657478122E+03  0.29657750042E+03  0.12700000000E+01 0.  1.
         25    2    1    2    0    0  0.00000000000E+00  0.00000000000E+00 -0.28343780113E+03  0.30977572553E+03  0.12499605201E+03 0.  0.
    9000005    1    3    3    0    0  0.36462936834E+02  0.49348456180E+02 -0.17106196871E+03  0.18173610822E+03  0.10000000000E+01 0.  0.
    9000005    1    3    3    0    0 -0.36462936834E+02 -0.49348456180E+02 -0.11237583242E+03  0.12803961731E+03  0.10000000000E+01 0.  0.
<mgrwt>
<rscale>  0 0.12499605E+03</rscale>
<asrwt>0</asrwt>
<pdfrwt beam="2">  1        4 0.45631805E-01 0.12499605E+03</pdfrwt>
<pdfrwt beam="1">  1       -4 0.20259944E-02 0.12499605E+03</pdfrwt>
<totfact> 0.74395245E+03</totfact>
</mgrwt>
</event>
<event>
 5    1  0.3321169E-002  0.1250010E+03  0.7818608E-02  0.1235068E+00
         -4   -1    0    0    0  501 -0.00000000000E+00  0.00000000000E+00  0.49690415544E+01  0.51287692450E+01  0.12700000000E+01 0.  1.
          4   -1    0    0  501    0  0.00000000000E+00 -0.00000000000E+00 -0.77353504040E+03  0.77353608295E+03  0.12700000000E+01 0.  1.
         25    2    1    2    0    0  0.00000000000E+00  0.00000000000E+00 -0.76856599884E+03  0.77866485219E+03  0.12500102985E+03 0.  0.
    9000005    1    3    3    0    0  0.46022008086E+01 -0.57626929001E+02 -0.23644171012E+03  0.24340855672E+03  0.10000000000E+01 0.  0.
    9000005    1    3    3    0    0 -0.46022008086E+01  0.57626929001E+02 -0.53212428872E+03  0.53525629547E+03  0.10000000000E+01 0.  0.
<mgrwt>
<rscale>  0 0.12500103E+03</rscale>
<asrwt>0</asrwt>
<pdfrwt beam="2">  1        4 0.11901766E+00 0.12500103E+03</pdfrwt>
<pdfrwt beam="1">  1       -4 0.77683549E-03 0.12500103E+03</pdfrwt>
<totfact> 0.39234248E+03</totfact>
</mgrwt>
</event>
<event>
 5    1  0.3321169E-002  0.1249992E+03  0.7818608E-02  0.1235071E+00
         -4   -1    0    0    0  501 -0.00000000000E+00  0.00000000000E+00  0.69577191156E+01  0.70726766709E+01  0.12700000000E+01 0. -1.
          4   -1    0    0  501    0  0.00000000000E+00 -0.00000000000E+00 -0.55670381747E+03  0.55670526609E+03  0.12700000000E+01 0. -1.
         25    2    1    2    0    0  0.00000000000E+00  0.00000000000E+00 -0.54974609836E+03  0.56377794276E+03  0.12499918432E+03 0.  0.
    9000005    1    3    3    0    0  0.39813864252E+02  0.23012566411E+02 -0.46572002272E+03  0.46798596300E+03  0.10000000000E+01 0.  0.
    9000005    1    3    3    0    0 -0.39813864252E+02 -0.23012566411E+02 -0.84026075635E+02  0.95791979759E+02  0.10000000000E+01 0.  0.
<mgrwt>
<rscale>  0 0.12499918E+03</rscale>
<asrwt>0</asrwt>
<pdfrwt beam="2">  1        4 0.85655661E-01 0.12499918E+03</pdfrwt>
<pdfrwt beam="1">  1       -4 0.10793731E-02 0.12499918E+03</pdfrwt>
<totfact> 0.51237831E+03</totfact>
</mgrwt>
</event>
<event>
 5    1  0.3321169E-002  0.1249991E+03  0.7818608E-02  0.1235071E+00
          4   -1    0    0  501    0  0.00000000000E+00  0.00000000000E+00  0.40177520717E+03  0.40177721438E+03  0.12700000000E+01 0.  1.
         -4   -1    0    0    0  501 -0.00000000000E+00 -0.00000000000E+00 -0.96788199150E+01  0.97617854384E+01  0.12700000000E+01 0.  1.
         25    2    1    2    0    0  0.00000000000E+00  0.00000000000E+00  0.39209638725E+03  0.41153899982E+03  0.12499908590E+03 0.  0.
    9000005    1    3    3    0    0 -0.45559663117E+02 -0.29605448839E+01  0.55563586817E+02  0.71921901458E+02  0.10000000000E+01 0.  0.
    9000005    1    3    3    0    0  0.45559663117E+02  0.29605448839E+01  0.33653280044E+03  0.33961709836E+03  0.10000000000E+01 0.  0.
<mgrwt>
<rscale>  0 0.12499909E+03</rscale>
<asrwt>0</asrwt>
<pdfrwt beam="1">  1        4 0.61818111E-01 0.12499909E+03</pdfrwt>
<pdfrwt beam="2">  1       -4 0.14955855E-02 0.12499909E+03</pdfrwt>
<totfact> 0.63447057E+03</totfact>
</mgrwt>
</event>
<event>
 5    1  0.3321169E-002  0.1250012E+03  0.7818608E-02  0.1235067E+00
          4   -1    0    0  501    0  0.00000000000E+00  0.00000000000E+00  0.20930005204E+03  0.20930390509E+03  0.12700000000E+01 0. -1.
         -4   -1    0    0    0  501 -0.00000000000E+00 -0.00000000000E+00 -0.18638122479E+02  0.18681341214E+02  0.12700000000E+01 0. -1.
         25    2    1    2    0    0  0.00000000000E+00  0.00000000000E+00  0.19066192956E+03  0.22798524630E+03  0.12500120458E+03 0.  0.
    9000005    1    3    3    0    0 -0.33422348064E+02 -0.36294671052E+02  0.25379908927E+02  0.55493209260E+02  0.10000000000E+01 0.  0.
    9000005    1    3    3    0    0  0.33422348064E+02  0.36294671052E+02  0.16528202063E+03  0.17249203704E+03  0.10000000000E+01 0.  0.
<mgrwt>
<rscale>  0 0.12500120E+03</rscale>
<asrwt>0</asrwt>
<pdfrwt beam="1">  1        4 0.32203630E-01 0.12500120E+03</pdfrwt>
<pdfrwt beam="2">  1       -4 0.28710242E-02 0.12500120E+03</pdfrwt>
<totfact> 0.85617624E+03</totfact>
</mgrwt>
</event>
<event>
 5    1  0.3321169E-002  0.1250017E+03  0.7818608E-02  0.1235067E+00
          4   -1    0    0  501    0  0.00000000000E+00  0.00000000000E+00  0.12517363626E+04  0.12517370068E+04  0.12700000000E+01 0. -1.
         -4   -1    0    0    0  501 -0.00000000000E+00 -0.00000000000E+00 -0.29908729966E+01  0.32493416690E+01  0.12700000000E+01 0. -1.
         25    2    1    2    0    0  0.00000000000E+00  0.00000000000E+00  0.12487454896E+04  0.12549863485E+04  0.12500174879E+03 0.  0.
    9000005    1    3    3    0    0 -0.30320676445E+02  0.47696796268E+01  0.11708954816E+04  0.11712981354E+04  0.10000000000E+01 0.  0.
    9000005    1    3    3    0    0  0.30320676445E+02 -0.47696796268E+01  0.77850007989E+02  0.83688213076E+02  0.10000000000E+01 0.  0.
<mgrwt>
<rscale>  0 0.12500175E+03</rscale>
<asrwt>0</asrwt>
<pdfrwt beam="1">  1        4 0.19259453E+00 0.12500175E+03</pdfrwt>
<pdfrwt beam="2">  1       -4 0.48006663E-03 0.12500175E+03</pdfrwt>
<totfact> 0.23315608E+03</totfact>
</mgrwt>
</event>
<event>
 5    1  0.3321169E-002  0.1249973E+03  0.7818608E-02  0.1235073E+00
         -4   -1    0    0    0  501 -0.00000000000E+00  0.00000000000E+00  0.62333201530E+02  0.62346137916E+02  0.12700000000E+01 0. -1.
          4   -1    0    0  501    0  0.00000000000E+00 -0.00000000000E+00 -0.62638684845E+02  0.62651558154E+02  0.12700000000E+01 0. -1.
         25    2    1    2    0    0  0.00000000000E+00  0.00000000000E+00 -0.30548331531E+00  0.12499769607E+03  0.12499732278E+03 0.  0.
    9000005    1    3    3    0    0 -0.55714673783E+02 -0.26962322979E+02  0.84490827082E+01  0.62477825937E+02  0.10000000000E+01 0.  0.
    9000005    1    3    3    0    0  0.55714673783E+02  0.26962322979E+02 -0.87545660235E+01  0.62519870133E+02  0.10000000000E+01 0.  0.
<mgrwt>
<rscale>  0 0.12499732E+03</rscale>
<asrwt>0</asrwt>
<pdfrwt beam="2">  1        4 0.96387061E-02 0.12499732E+03</pdfrwt>
<pdfrwt beam="1">  1       -4 0.95917087E-02 0.12499732E+03</pdfrwt>
<totfact> 0.10453545E+04</totfact>
</mgrwt>
</event>
<event>
 5    1  0.3321169E-002  0.1250247E+03  0.7818608E-02  0.1235031E+00
          4   -1    0    0  501    0  0.00000000000E+00  0.00000000000E+00  0.54614146070E+02  0.54628910396E+02  0.12700000000E+01 0. -1.
         -4   -1    0    0    0  501 -0.00000000000E+00 -0.00000000000E+00 -0.71522698163E+02  0.71533972716E+02  0.12700000000E+01 0. -1.
         25    2    1    2    0    0  0.00000000000E+00  0.00000000000E+00 -0.16908552093E+02  0.12616288311E+03  0.12502469333E+03 0.  0.
    9000005    1    3    3    0    0 -0.15164100957E+02 -0.22160254552E+02 -0.65410709652E+02  0.70714834206E+02  0.10000000000E+01 0.  0.
    9000005    1    3    3    0    0  0.15164100957E+02  0.22160254552E+02  0.48502157559E+02  0.55448048906E+02  0.10000000000E+01 0.  0.
<mgrwt>
<rscale>  0 0.12502469E+03</rscale>
<asrwt>0</asrwt>
<pdfrwt beam="1">  1        4 0.84041792E-02 0.12502469E+03</pdfrwt>
<pdfrwt beam="2">  1       -4 0.11005495E-01 0.12502469E+03</pdfrwt>
<totfact> 0.10421582E+04</totfact>
</mgrwt>
</event>
<event>
 5    1  0.3321169E-002  0.1250011E+03  0.7818608E-02  0.1235068E+00
          4   -1    0    0  501    0  0.00000000000E+00  0.00000000000E+00  0.12650136925E+02  0.12713727393E+02  0.12700000000E+01 0. -1.
         -4   -1    0    0    0  501 -0.00000000000E+00 -0.00000000000E+00 -0.30795741502E+03  0.30796003372E+03  0.12700000000E+01 0. -1.
         25    2    1    2    0    0  0.00000000000E+00  0.00000000000E+00 -0.29530727810E+03  0.32067376111E+03  0.12500109027E+03 0.  0.
    9000005    1    3    3    0    0  0.34346481688E+02 -0.48634769852E+02 -0.19634810932E+03  0.20517943775E+03  0.10000000000E+01 0.  0.
    9000005    1    3    3    0    0 -0.34346481688E+02  0.48634769852E+02 -0.98959168779E+02  0.11549432336E+03  0.10000000000E+01 0.  0.
<mgrwt>
<rscale>  0 0.12500109E+03</rscale>
<asrwt>0</asrwt>
<pdfrwt beam="1">  1        4 0.19512682E-02 0.12500109E+03</pdfrwt>
<pdfrwt beam="2">  1       -4 0.47383151E-01 0.12500109E+03</pdfrwt>
<totfact> 0.73074298E+03</totfact>
</mgrwt>
</event>
<event>
 5    1  0.3321169E-002  0.1249794E+03  0.7818608E-02  0.1235101E+00
          4   -1    0    0  501    0  0.00000000000E+00  0.00000000000E+00  0.93678192703E+03  0.93678278791E+03  0.12700000000E+01 0. -1.
         -4   -1    0    0    0  501 -0.00000000000E+00 -0.00000000000E+00 -0.40708729598E+01  0.42643764673E+01  0.12700000000E+01 0. -1.
         25    2    1    2    0    0  0.00000000000E+00  0.00000000000E+00  0.93271105407E+03  0.94104716437E+03  0.12497941904E+03 0.  0.
    9000005    1    3    3    0    0 -0.45668770531E+02  0.70588854373E+01  0.78300249857E+03  0.78436558901E+03  0.10000000000E+01 0.  0.
    9000005    1    3    3    0    0  0.45668770531E+02 -0.70588854373E+01  0.14970855551E+03  0.15668157536E+03  0.10000000000E+01 0.  0.
<mgrwt>
<rscale>  0 0.12497942E+03</rscale>
<asrwt>0</asrwt>
<pdfrwt beam="1">  1        4 0.14413511E+00 0.12497942E+03</pdfrwt>
<pdfrwt beam="2">  1       -4 0.64123984E-03 0.12497942E+03</pdfrwt>
<totfact> 0.32650671E+03</totfact>
</mgrwt>
</event>
<event>
 5    1  0.3321169E-002  0.1249975E+03  0.7818608E-02  0.1235073E+00
         -4   -1    0    0    0  501 -0.00000000000E+00  0.00000000000E+00  0.85274475091E+01  0.86214999287E+01  0.12700000000E+01 0. -1.
          4   -1    0    0  501    0  0.00000000000E+00 -0.00000000000E+00 -0.45545383885E+03  0.45545560950E+03  0.12700000000E+01 0. -1.
         25    2    1    2    0    0  0.00000000000E+00  0.00000000000E+00 -0.44692639134E+03  0.46407710943E+03  0.12499745684E+03 0.  0.
    9000005    1    3    3    0    0 -0.50421075872E+02 -0.36886750915E+02 -0.21798931062E+03  0.22676696592E+03  0.10000000000E+01 0.  0.
    9000005    1    3    3    0    0  0.50421075872E+02  0.36886750915E+02 -0.22893708072E+03  0.23731014351E+03  0.10000000000E+01 0.  0.
<mgrwt>
<rscale>  0 0.12499746E+03</rscale>
<asrwt>0</asrwt>
<pdfrwt beam="2">  1        4 0.70077173E-01 0.12499746E+03</pdfrwt>
<pdfrwt beam="1">  1       -4 0.13192864E-02 0.12499746E+03</pdfrwt>
<totfact> 0.58766702E+03</totfact>
</mgrwt>
</event>
<event>
 4    1  0.3321169E-002  0.1248985E+03  0.7818608E-02  0.1235228E+00
          4   -1    0    0  501    0  0.00000000000E+00  0.00000000000E+00  0.13613223168E+02  0.13672335024E+02  0.12700000000E+01 0.  1.
         -4   -1    0    0    0  501 -0.00000000000E+00 -0.00000000000E+00 -0.28579816260E+03  0.28580098433E+03  0.12700000000E+01 0.  1.
    9000005    1    1    2    0    0 -0.52218056249E+01  0.48975968889E+02 -0.44068379905E+02  0.66097918954E+02  0.10000000000E+01 0.  0.
    9000005    1    1    2    0    0  0.52218056249E+01 -0.48975968889E+02 -0.22811655952E+03  0.23337540040E+03  0.10000000000E+01 0.  0.
<mgrwt>
<rscale>  0 0.12489847E+03</rscale>
<asrwt>0</asrwt>
<pdfrwt beam="1">  1        4 0.20991064E-02 0.12489847E+03</pdfrwt>
<pdfrwt beam="2">  1       -4 0.43973708E-01 0.12489847E+03</pdfrwt>
<totfact> 0.75835754E+03</totfact>
</mgrwt>
</event>
<event>
 5    1  0.3321169E-002  0.1250001E+03  0.7818608E-02  0.1235069E+00
         -4   -1    0    0    0  501 -0.00000000000E+00  0.00000000000E+00  0.88828221187E+01  0.89731504386E+01  0.12700000000E+01 0.  1.
          4   -1    0    0  501    0  0.00000000000E+00 -0.00000000000E+00 -0.43743793058E+03  0.43743977415E+03  0.12700000000E+01 0.  1.
         25    2    1    2    0    0  0.00000000000E+00  0.00000000000E+00 -0.42855510846E+03  0.44641292459E+03  0.12500007301E+03 0.  0.
    9000005    1    3    3    0    0  0.95572710306E+01  0.52952470130E+02 -0.32777242213E+03  0.33216120519E+03  0.10000000000E+01 0.  0.
    9000005    1    3    3    0    0 -0.95572710306E+01 -0.52952470130E+02 -0.10078268633E+03  0.11425171940E+03  0.10000000000E+01 0.  0.
<mgrwt>
<rscale>  0 0.12500007E+03</rscale>
<asrwt>0</asrwt>
<pdfrwt beam="2">  1        4 0.67305217E-01 0.12500007E+03</pdfrwt>
<pdfrwt beam="1">  1       -4 0.13736785E-02 0.12500007E+03</pdfrwt>
<totfact> 0.60275718E+03</totfact>
</mgrwt>
</event>
<event>
 5    1  0.3321169E-002  0.1250002E+03  0.7818608E-02  0.1235069E+00
          4   -1    0    0  501    0  0.00000000000E+00  0.00000000000E+00  0.90710646761E+03  0.90710735665E+03  0.12700000000E+01 0. -1.
         -4   -1    0    0    0  501 -0.00000000000E+00 -0.00000000000E+00 -0.42117429370E+01  0.43990542810E+01  0.12700000000E+01 0. -1.
         25    2    1    2    0    0  0.00000000000E+00  0.00000000000E+00  0.90289472467E+03  0.91150641093E+03  0.12500021327E+03 0.  0.
    9000005    1    3    3    0    0  0.62295332692E+02  0.44173336749E+01  0.46782122488E+03  0.47197237182E+03  0.10000000000E+01 0.  0.
    9000005    1    3    3    0    0 -0.62295332692E+02 -0.44173336749E+01  0.43507349979E+03  0.43953403911E+03  0.10000000000E+01 0.  0.
<mgrwt>
<rscale>  0 0.12500021E+03</rscale>
<asrwt>0</asrwt>
<pdfrwt beam="1">  1        4 0.13956959E+00 0.12500021E+03</pdfrwt>
<pdfrwt beam="2">  1       -4 0.66243611E-03 0.12500021E+03</pdfrwt>
<totfact> 0.33722918E+03</totfact>
</mgrwt>
</event>
<event>
 5    1  0.3321169E-002  0.1250002E+03  0.7818608E-02  0.1235069E+00
          4   -1    0    0  501    0  0.00000000000E+00  0.00000000000E+00  0.12208804824E+03  0.12209465354E+03  0.12700000000E+01 0.  1.
         -4   -1    0    0    0  501 -0.00000000000E+00 -0.00000000000E+00 -0.31975376951E+02  0.32000587982E+02  0.12700000000E+01 0.  1.
         25    2    1    2    0    0  0.00000000000E+00  0.00000000000E+00  0.90112671286E+02  0.15409524152E+03  0.12500019973E+03 0.  0.
    9000005    1    3    3    0    0 -0.61406799193E+02 -0.11546148108E+02  0.46380597517E+02  0.77822029974E+02  0.10000000000E+01 0.  0.
    9000005    1    3    3    0    0  0.61406799193E+02  0.11546148108E+02  0.43732073769E+02  0.76273211545E+02  0.10000000000E+01 0.  0.
<mgrwt>
<rscale>  0 0.12500020E+03</rscale>
<asrwt>0</asrwt>
<pdfrwt beam="1">  1        4 0.18785224E-01 0.12500020E+03</pdfrwt>
<pdfrwt beam="2">  1       -4 0.49217363E-02 0.12500020E+03</pdfrwt>
<totfact> 0.98492965E+03</totfact>
</mgrwt>
</event>
<event>
 5    1  0.3321169E-002  0.1249998E+03  0.7818608E-02  0.1235070E+00
          4   -1    0    0  501    0  0.00000000000E+00  0.00000000000E+00  0.43481325181E+01  0.45298075450E+01  0.12700000000E+01 0.  1.
         -4   -1    0    0    0  501 -0.00000000000E+00 -0.00000000000E+00 -0.87980499833E+03  0.87980591496E+03  0.12700000000E+01 0.  1.
         25    2    1    2    0    0  0.00000000000E+00  0.00000000000E+00 -0.87545686582E+03  0.88433572250E+03  0.12499978476E+03 0.  0.
    9000005    1    3    3    0    0  0.23368292323E+01  0.44113314302E+02 -0.75044218944E+03  0.75174192710E+03  0.10000000000E+01 0.  0.
    9000005    1    3    3    0    0 -0.23368292323E+01 -0.44113314302E+02 -0.12501467637E+03  0.13259379540E+03  0.10000000000E+01 0.  0.
<mgrwt>
<rscale>  0 0.12499978E+03</rscale>
<asrwt>0</asrwt>
<pdfrwt beam="1">  1        4 0.68298968E-03 0.12499978E+03</pdfrwt>
<pdfrwt beam="2">  1       -4 0.13536852E+00 0.12499978E+03</pdfrwt>
<totfact> 0.34762146E+03</totfact>
</mgrwt>
</event>
<event>
 5    1  0.3321169E-002  0.1250013E+03  0.7818608E-02  0.1235067E+00
         -4   -1    0    0    0  501 -0.00000000000E+00  0.00000000000E+00  0.58502056840E+02  0.58515840202E+02  0.12700000000E+01 0. -1.
          4   -1    0    0  501    0  0.00000000000E+00 -0.00000000000E+00 -0.66744866260E+02  0.66756947744E+02  0.12700000000E+01 0. -1.
         25    2    1    2    0    0  0.00000000000E+00  0.00000000000E+00 -0.82428094199E+01  0.12527278795E+03  0.12500130996E+03 0.  0.
    9000005    1    3    3    0    0 -0.25257460213E+02  0.74584891484E+01 -0.60916908831E+02  0.66373474659E+02  0.10000000000E+01 0.  0.
    9000005    1    3    3    0    0  0.25257460213E+02 -0.74584891484E+01  0.52674099411E+02  0.58899313286E+02  0.10000000000E+01 0.  0.
<mgrwt>
<rscale>  0 0.12500131E+03</rscale>
<asrwt>0</asrwt>
<pdfrwt beam="2">  1        4 0.10270431E-01 0.12500131E+03</pdfrwt>
<pdfrwt beam="1">  1       -4 0.90023060E-02 0.12500131E+03</pdfrwt>
<totfact> 0.10446631E+04</totfact>
</mgrwt>
</event>
<event>
 5    1  0.3321169E-002  0.1250021E+03  0.7818608E-02  0.1235066E+00
          4   -1    0    0  501    0  0.00000000000E+00  0.00000000000E+00  0.12257347105E+03  0.12258005020E+03  0.12700000000E+01 0. -1.
         -4   -1    0    0    0  501 -0.00000000000E+00 -0.00000000000E+00 -0.31849643941E+02  0.31874954418E+02  0.12700000000E+01 0. -1.
         25    2    1    2    0    0  0.00000000000E+00  0.00000000000E+00  0.90723827113E+02  0.15445500462E+03  0.12500214256E+03 0.  0.
    9000005    1    3    3    0    0  0.16369308671E+02 -0.95501222797E+01  0.11894324799E+03  0.12044772868E+03  0.10000000000E+01 0.  0.
    9000005    1    3    3    0    0 -0.16369308671E+02  0.95501222797E+01 -0.28219420877E+02  0.34007275935E+02  0.10000000000E+01 0.  0.
<mgrwt>
<rscale>  0 0.12500214E+03</rscale>
<asrwt>0</asrwt>
<pdfrwt beam="1">  1        4 0.18859910E-01 0.12500214E+03</pdfrwt>
<pdfrwt beam="2">  1       -4 0.49023983E-02 0.12500214E+03</pdfrwt>
<totfact> 0.98417852E+03</totfact>
</mgrwt>
</event>
<event>
 5    1  0.3321169E-002  0.1250036E+03  0.7818608E-02  0.1235064E+00
          4   -1    0    0  501    0  0.00000000000E+00  0.00000000000E+00  0.55803139857E+02  0.55817589682E+02  0.12700000000E+01 0.  1.
         -4   -1    0    0    0  501 -0.00000000000E+00 -0.00000000000E+00 -0.69975314523E+02  0.69986838353E+02  0.12700000000E+01 0.  1.
         25    2    1    2    0    0  0.00000000000E+00  0.00000000000E+00 -0.14172174666E+02  0.12580442804E+03  0.12500361426E+03 0.  0.
    9000005    1    3    3    0    0 -0.60690772678E+02 -0.14800879792E+02 -0.88408062461E+01  0.63099887369E+02  0.10000000000E+01 0.  0.
    9000005    1    3    3    0    0  0.60690772678E+02  0.14800879792E+02 -0.53313684199E+01  0.62704540666E+02  0.10000000000E+01 0.  0.
<mgrwt>
<rscale>  0 0.12500361E+03</rscale>
<asrwt>0</asrwt>
<pdfrwt beam="1">  1        4 0.85870964E-02 0.12500361E+03</pdfrwt>
<pdfrwt beam="2">  1       -4 0.10767431E-01 0.12500361E+03</pdfrwt>
<totfact> 0.10434397E+04</totfact>
</mgrwt>
</event>
<event>
 5    1  0.3321169E-002  0.1250006E+03  0.7818608E-02  0.1235068E+00
         -4   -1    0    0    0  501 -0.00000000000E+00  0.00000000000E+00  0.33777338563E+03  0.33777577317E+03  0.12700000000E+01 0. -1.
          4   -1    0    0  501    0  0.00000000000E+00 -0.00000000000E+00 -0.11527523879E+02  0.11597271523E+02  0.12700000000E+01 0. -1.
         25    2    1    2    0    0  0.00000000000E+00  0.00000000000E+00  0.32624586175E+03  0.34937304469E+03  0.12500064819E+03 0.  0.
    9000005    1    3    3    0    0 -0.38468998444E+02  0.31600044981E+02  0.57546155361E+02  0.76098532712E+02  0.10000000000E+01 0.  0.
    9000005    1    3    3    0    0  0.38468998444E+02 -0.31600044981E+02  0.26869970639E+03  0.27327451198E+03  0.10000000000E+01 0.  0.
<mgrwt>
<rscale>  0 0.12500065E+03</rscale>
<asrwt>0</asrwt>
<pdfrwt beam="2">  1        4 0.17790139E-02 0.12500065E+03</pdfrwt>
<pdfrwt beam="1">  1       -4 0.51970690E-01 0.12500065E+03</pdfrwt>
<totfact> 0.69792577E+03</totfact>
</mgrwt>
</event>
<event>
 5    1  0.3321169E-002  0.1250029E+03  0.7818608E-02  0.1235065E+00
          4   -1    0    0  501    0  0.00000000000E+00  0.00000000000E+00  0.34300900786E+01  0.36576519719E+01  0.12700000000E+01 0. -1.
         -4   -1    0    0    0  501 -0.00000000000E+00 -0.00000000000E+00 -0.11020789934E+04  0.11020797252E+04  0.12700000000E+01 0. -1.
         25    2    1    2    0    0  0.00000000000E+00  0.00000000000E+00 -0.10986489033E+04  0.11057373772E+04  0.12500293758E+03 0.  0.
    9000005    1    3    3    0    0 -0.35517679943E+02  0.43564958614E+02 -0.30771845848E+03  0.31281154214E+03  0.10000000000E+01 0.  0.
    9000005    1    3    3    0    0  0.35517679943E+02 -0.43564958614E+02 -0.79093044487E+03  0.79292583501E+03  0.10000000000E+01 0.  0.
<mgrwt>
<rscale>  0 0.12500294E+03</rscale>
<asrwt>0</asrwt>
<pdfrwt beam="1">  1        4 0.54526809E-03 0.12500294E+03</pdfrwt>
<pdfrwt beam="2">  1       -4 0.16956790E+00 0.12500294E+03</pdfrwt>
<totfact> 0.27314381E+03</totfact>
</mgrwt>
</event>
<event>
 5    1  0.3321169E-002  0.1250001E+03  0.7818608E-02  0.1235069E+00
          4   -1    0    0  501    0  0.00000000000E+00  0.00000000000E+00  0.46477111561E+01  0.48181032566E+01  0.12700000000E+01 0.  1.
         -4   -1    0    0    0  501 -0.00000000000E+00 -0.00000000000E+00 -0.82516869856E+03  0.82516967587E+03  0.12700000000E+01 0.  1.
         25    2    1    2    0    0  0.00000000000E+00  0.00000000000E+00 -0.82052098740E+03  0.82998777913E+03  0.12500009095E+03 0.  0.
    9000005    1    3    3    0    0  0.17007233714E+02  0.43154034630E+02 -0.13219708238E+03  0.14010205314E+03  0.10000000000E+01 0.  0.
    9000005    1    3    3    0    0 -0.17007233714E+02 -0.43154034630E+02 -0.68832390502E+03  0.68988572599E+03  0.10000000000E+01 0.  0.
<mgrwt>
<rscale>  0 0.12500009E+03</rscale>
<asrwt>0</asrwt>
<pdfrwt beam="1">  1        4 0.72821540E-03 0.12500009E+03</pdfrwt>
<pdfrwt beam="2">  1       -4 0.12696210E+00 0.12500009E+03</pdfrwt>
<totfact> 0.36960477E+03</totfact>
</mgrwt>
</event>
<event>
 5    1  0.3321169E-002  0.1249972E+03  0.7818608E-02  0.1235074E+00
         -4   -1    0    0    0  501 -0.00000000000E+00  0.00000000000E+00  0.17607625016E+02  0.17653366781E+02  0.12700000000E+01 0.  1.
          4   -1    0    0  501    0  0.00000000000E+00 -0.00000000000E+00 -0.22150475996E+03  0.22150840071E+03  0.12700000000E+01 0.  1.
         25    2    1    2    0    0  0.00000000000E+00  0.00000000000E+00 -0.20389713494E+03  0.23916176749E+03  0.12499723753E+03 0.  0.
    9000005    1    3    3    0    0  0.51982287811E+02  0.30927344621E+02 -0.71913545396E+02  0.93974554550E+02  0.10000000000E+01 0.  0.
    9000005    1    3    3    0    0 -0.51982287811E+02 -0.30927344621E+02 -0.13198358955E+03  0.14518721294E+03  0.10000000000E+01 0.  0.
<mgrwt>
<rscale>  0 0.12499724E+03</rscale>
<asrwt>0</asrwt>
<pdfrwt beam="2">  1        4 0.34081452E-01 0.12499724E+03</pdfrwt>
<pdfrwt beam="1">  1       -4 0.27126642E-02 0.12499724E+03</pdfrwt>
<totfact> 0.83927536E+03</totfact>
</mgrwt>
</event>
<event>
 5    1  0.3321169E-002  0.1250006E+03  0.7818608E-02  0.1235068E+00
         -4   -1    0    0    0  501 -0.00000000000E+00  0.00000000000E+00  0.16919230235E+03  0.16919706875E+03  0.12700000000E+01 0. -1.
          4   -1    0    0  501    0  0.00000000000E+00 -0.00000000000E+00 -0.23065307232E+02  0.23100244538E+02  0.12700000000E+01 0. -1.
         25    2    1    2    0    0  0.00000000000E+00  0.00000000000E+00  0.14612699512E+03  0.19229731329E+03  0.12500063198E+03 0.  0.
    9000005    1    3    3    0    0 -0.14467286366E+02 -0.35813966123E+01  0.16642575477E+03  0.16709476541E+03  0.10000000000E+01 0.  0.
    9000005    1    3    3    0    0  0.14467286366E+02  0.35813966123E+01 -0.20298759650E+02  0.25202547883E+02  0.10000000000E+01 0.  0.
<mgrwt>
<rscale>  0 0.12500063E+03</rscale>
<asrwt>0</asrwt>
<pdfrwt beam="2">  1        4 0.35515629E-02 0.12500063E+03</pdfrwt>
<pdfrwt beam="1">  1       -4 0.26032639E-01 0.12500063E+03</pdfrwt>
<totfact> 0.91447824E+03</totfact>
</mgrwt>
</event>
<event>
 5    1  0.3321169E-002  0.1249917E+03  0.7818608E-02  0.1235082E+00
          4   -1    0    0  501    0  0.00000000000E+00  0.00000000000E+00  0.31005479364E+02  0.31031478382E+02  0.12700000000E+01 0. -1.
         -4   -1    0    0    0  501 -0.00000000000E+00 -0.00000000000E+00 -0.12588707077E+03  0.12589347674E+03  0.12700000000E+01 0. -1.
         25    2    1    2    0    0  0.00000000000E+00  0.00000000000E+00 -0.94881591403E+02  0.15692495512E+03  0.12499170034E+03 0.  0.
    9000005    1    3    3    0    0 -0.16998468153E+02 -0.48391918346E+02 -0.92253020595E+02  0.10555730903E+03  0.10000000000E+01 0.  0.
    9000005    1    3    3    0    0  0.16998468153E+02  0.48391918346E+02 -0.26285708076E+01  0.51367646094E+02  0.10000000000E+01 0.  0.
<mgrwt>
<rscale>  0 0.12499170E+03</rscale>
<asrwt>0</asrwt>
<pdfrwt beam="1">  1        4 0.47725665E-02 0.12499170E+03</pdfrwt>
<pdfrwt beam="2">  1       -4 0.19369734E-01 0.12499170E+03</pdfrwt>
<totfact> 0.97957206E+03</totfact>
</mgrwt>
</event>
<event>
 5    1  0.3321169E-002  0.1250038E+03  0.7818608E-02  0.1235063E+00
          4   -1    0    0  501    0  0.00000000000E+00  0.00000000000E+00  0.69071694839E+02  0.69083369402E+02  0.12700000000E+01 0.  1.
         -4   -1    0    0    0  501 -0.00000000000E+00 -0.00000000000E+00 -0.56533376385E+02  0.56547639610E+02  0.12700000000E+01 0.  1.
         25    2    1    2    0    0  0.00000000000E+00  0.00000000000E+00  0.12538318454E+02  0.12563100901E+03  0.12500376393E+03 0.  0.
    9000005    1    3    3    0    0 -0.26256872014E+02  0.28662956459E+02 -0.42909976554E+02  0.57907292190E+02  0.10000000000E+01 0.  0.
    9000005    1    3    3    0    0  0.26256872014E+02 -0.28662956459E+02  0.55448295008E+02  0.67723716822E+02  0.10000000000E+01 0.  0.
<mgrwt>
<rscale>  0 0.12500376E+03</rscale>
<asrwt>0</asrwt>
<pdfrwt beam="1">  1        4 0.10628410E-01 0.12500376E+03</pdfrwt>
<pdfrwt beam="2">  1       -4 0.86994377E-02 0.12500376E+03</pdfrwt>
<totfact> 0.10438177E+04</totfact>
</mgrwt>
</event>
<event>
 5    1  0.3321169E-002  0.1249982E+03  0.7818608E-02  0.1235072E+00
          4   -1    0    0  501    0  0.00000000000E+00  0.00000000000E+00  0.66542771446E+03  0.66542892638E+03  0.12700000000E+01 0.  1.
         -4   -1    0    0    0  501 -0.00000000000E+00 -0.00000000000E+00 -0.58001921557E+01  0.59376029712E+01  0.12700000000E+01 0.  1.
         25    2    1    2    0    0  0.00000000000E+00  0.00000000000E+00  0.65962752230E+03  0.67136652935E+03  0.12499819423E+03 0.  0.
    9000005    1    3    3    0    0 -0.45772839247E+02 -0.42523527681E+02  0.32274129983E+03  0.32873446707E+03  0.10000000000E+01 0.  0.
    9000005    1    3    3    0    0  0.45772839247E+02  0.42523527681E+02  0.33688622247E+03  0.34263206229E+03  0.10000000000E+01 0.  0.
<mgrwt>
<rscale>  0 0.12499819E+03</rscale>
<asrwt>0</asrwt>
<pdfrwt beam="1">  1        4 0.10238407E+00 0.12499819E+03</pdfrwt>
<pdfrwt beam="2">  1       -4 0.90300130E-03 0.12499819E+03</pdfrwt>
<totfact> 0.44643713E+03</totfact>
</mgrwt>
</event>
<event>
 5    1  0.3321169E-002  0.1250024E+03  0.7818608E-02  0.1235066E+00
         -4   -1    0    0    0  501 -0.00000000000E+00  0.00000000000E+00  0.56547789899E+03  0.56547932513E+03  0.12700000000E+01 0.  1.
          4   -1    0    0  501    0  0.00000000000E+00 -0.00000000000E+00 -0.68483206731E+01  0.69650840657E+01  0.12700000000E+01 0.  1.
         25    2    1    2    0    0  0.00000000000E+00  0.00000000000E+00  0.55862957832E+03  0.57244440919E+03  0.12500238336E+03 0.  0.
    9000005    1    3    3    0    0  0.45295000441E+02 -0.29835891613E+02  0.13716073696E+03  0.14749876358E+03  0.10000000000E+01 0.  0.
    9000005    1    3    3    0    0 -0.45295000441E+02  0.29835891613E+02  0.42146884135E+03  0.42494564561E+03  0.10000000000E+01 0.  0.
<mgrwt>
<rscale>  0 0.12500238E+03</rscale>
<asrwt>0</asrwt>
<pdfrwt beam="2">  1        4 0.10626796E-02 0.12500238E+03</pdfrwt>
<pdfrwt beam="1">  1       -4 0.87005668E-01 0.12500238E+03</pdfrwt>
<totfact> 0.50651874E+03</totfact>
</mgrwt>
</event>
<event>
 5    1  0.3321169E-002  0.1249986E+03  0.7818608E-02  0.1235071E+00
         -4   -1    0    0    0  501 -0.00000000000E+00  0.00000000000E+00  0.23087982117E+02  0.23122885163E+02  0.12700000000E+01 0.  1.
          4   -1    0    0  501    0  0.00000000000E+00 -0.00000000000E+00 -0.16902096671E+03  0.16902573794E+03  0.12700000000E+01 0.  1.
         25    2    1    2    0    0  0.00000000000E+00  0.00000000000E+00 -0.14593298459E+03  0.19214862310E+03  0.12499862947E+03 0.  0.
    9000005    1    3    3    0    0  0.26182680717E+02 -0.26393427969E+02 -0.15017981572E+03  0.15471626566E+03  0.10000000000E+01 0.  0.
    9000005    1    3    3    0    0 -0.26182680717E+02  0.26393427969E+02  0.42468311286E+01  0.37432357448E+02  0.10000000000E+01 0.  0.
<mgrwt>
<rscale>  0 0.12499863E+03</rscale>
<asrwt>0</asrwt>
<pdfrwt beam="2">  1        4 0.26006277E-01 0.12499863E+03</pdfrwt>
<pdfrwt beam="1">  1       -4 0.35550492E-02 0.12499863E+03</pdfrwt>
<totfact> 0.91477608E+03</totfact>
</mgrwt>
</event>
<event>
 5    1  0.3321169E-002  0.1249992E+03  0.7818608E-02  0.1235071E+00
         -4   -1    0    0    0  501 -0.00000000000E+00  0.00000000000E+00  0.25116395392E+03  0.25116716476E+03  0.12700000000E+01 0.  1.
          4   -1    0    0  501    0  0.00000000000E+00 -0.00000000000E+00 -0.15523146593E+02  0.15575011401E+02  0.12700000000E+01 0.  1.
         25    2    1    2    0    0  0.00000000000E+00  0.00000000000E+00  0.23564080733E+03  0.26674217616E+03  0.12499919384E+03 0.  0.
    9000005    1    3    3    0    0 -0.61469482012E+02  0.65620955695E+01  0.13733658567E+03  0.15061173952E+03  0.10000000000E+01 0.  0.
    9000005    1    3    3    0    0  0.61469482012E+02 -0.65620955695E+01  0.98304221663E+02  0.11613043664E+03  0.10000000000E+01 0.  0.
<mgrwt>
<rscale>  0 0.12499919E+03</rscale>
<asrwt>0</asrwt>
<pdfrwt beam="2">  1        4 0.23924130E-02 0.12499919E+03</pdfrwt>
<pdfrwt beam="1">  1       -4 0.38644845E-01 0.12499919E+03</pdfrwt>
<totfact> 0.79970538E+03</totfact>
</mgrwt>
</event>
<event>
 5    1  0.3321169E-002  0.1250049E+03  0.7818608E-02  0.1235062E+00
         -4   -1    0    0    0  501 -0.00000000000E+00  0.00000000000E+00  0.67181960730E+02  0.67193963624E+02  0.12700000000E+01 0. -1.
          4   -1    0    0  501    0  0.00000000000E+00 -0.00000000000E+00 -0.58124755858E+02  0.58138628669E+02  0.12700000000E+01 0. -1.
         25    2    1    2    0    0  0.00000000000E+00  0.00000000000E+00  0.90572048719E+01  0.12533259229E+03  0.12500490283E+03 0.  0.
    9000005    1    3    3    0    0 -0.51276186604E+02 -0.25053525594E+01  0.40259536013E+02  0.65248404916E+02  0.10000000000E+01 0.  0.
    9000005    1    3    3    0    0  0.51276186604E+02  0.25053525594E+01 -0.31202331141E+02  0.60084187377E+02  0.10000000000E+01 0.  0.
<mgrwt>
<rscale>  0 0.12500490E+03</rscale>
<asrwt>0</asrwt>
<pdfrwt beam="2">  1        4 0.89442607E-02 0.12500490E+03</pdfrwt>
<pdfrwt beam="1">  1       -4 0.10337677E-01 0.12500490E+03</pdfrwt>
<totfact> 0.10444486E+04</totfact>
</mgrwt>
</event>
<event>
 5    1  0.3321169E-002  0.1250038E+03  0.7818608E-02  0.1235063E+00
         -4   -1    0    0    0  501 -0.00000000000E+00  0.00000000000E+00  0.44484750018E+02  0.44502875010E+02  0.12700000000E+01 0.  1.
          4   -1    0    0  501    0  0.00000000000E+00 -0.00000000000E+00 -0.87775748161E+02  0.87784935298E+02  0.12700000000E+01 0.  1.
         25    2    1    2    0    0  0.00000000000E+00  0.00000000000E+00 -0.43290998144E+02  0.13228781031E+03  0.12500381689E+03 0.  0.
    9000005    1    3    3    0    0  0.55171319378E+02 -0.22402772227E+02 -0.15737690701E+01  0.59575460002E+02  0.10000000000E+01 0.  0.
    9000005    1    3    3    0    0 -0.55171319378E+02  0.22402772227E+02 -0.41717229073E+02  0.72712350306E+02  0.10000000000E+01 0.  0.
<mgrwt>
<rscale>  0 0.12500382E+03</rscale>
<asrwt>0</asrwt>
<pdfrwt beam="2">  1        4 0.13506062E-01 0.12500382E+03</pdfrwt>
<pdfrwt beam="1">  1       -4 0.68459087E-02 0.12500382E+03</pdfrwt>
<totfact> 0.10294673E+04</totfact>
</mgrwt>
</event>
<event>
 5    1  0.3321169E-002  0.1250000E+03  0.7818608E-02  0.1235069E+00
         -4   -1    0    0    0  501 -0.00000000000E+00  0.00000000000E+00  0.19393096533E+02  0.19434636430E+02  0.12700000000E+01 0.  1.
          4   -1    0    0  501    0  0.00000000000E+00 -0.00000000000E+00 -0.20116566736E+03  0.20116967620E+03  0.12700000000E+01 0.  1.
         25    2    1    2    0    0  0.00000000000E+00  0.00000000000E+00 -0.18177257082E+03  0.22060431263E+03  0.12499998099E+03 0.  0.
    9000005    1    3    3    0    0 -0.20730363269E+02  0.49377651854E+02 -0.34044676637E+02  0.63466057631E+02  0.10000000000E+01 0.  0.
    9000005    1    3    3    0    0  0.20730363269E+02 -0.49377651854E+02 -0.14772789419E+03  0.15713825500E+03  0.10000000000E+01 0.  0.
<mgrwt>
<rscale>  0 0.12499998E+03</rscale>
<asrwt>0</asrwt>
<pdfrwt beam="2">  1        4 0.30952067E-01 0.12499998E+03</pdfrwt>
<pdfrwt beam="1">  1       -4 0.29870572E-02 0.12499998E+03</pdfrwt>
<totfact> 0.86772853E+03</totfact>
</mgrwt>
</event>
<event>
 5    1  0.3321169E-002  0.1250007E+03  0.7818608E-02  0.1235068E+00
          4   -1    0    0  501    0  0.00000000000E+00  0.00000000000E+00  0.44414514103E+03  0.44414695677E+03  0.12700000000E+01 0.  1.
         -4   -1    0    0    0  501 -0.00000000000E+00 -0.00000000000E+00 -0.87473919334E+01  0.88391043458E+01  0.12700000000E+01 0.  1.
         25    2    1    2    0    0  0.00000000000E+00  0.00000000000E+00  0.43539774910E+03  0.45298606111E+03  0.12500068656E+03 0.  0.
    9000005    1    3    3    0    0 -0.51941368754E+02 -0.21360249411E+02  0.31701713135E+03  0.32195500868E+03  0.10000000000E+01 0.  0.
    9000005    1    3    3    0    0  0.51941368754E+02  0.21360249411E+02  0.11838061775E+03  0.13103105243E+03  0.10000000000E+01 0.  0.
<mgrwt>
<rscale>  0 0.12500069E+03</rscale>
<asrwt>0</asrwt>
<pdfrwt beam="1">  1        4 0.68337215E-01 0.12500069E+03</pdfrwt>
<pdfrwt beam="2">  1       -4 0.13529471E-02 0.12500069E+03</pdfrwt>
<totfact> 0.59705079E+03</totfact>
</mgrwt>
</event>
<event>
 5    1  0.3321169E-002  0.1249999E+03  0.7818608E-02  0.1235069E+00
          4   -1    0    0  501    0  0.00000000000E+00  0.00000000000E+00  0.28510258222E+02  0.28538530514E+02  0.12700000000E+01 0. -1.
         -4   -1    0    0    0  501 -0.00000000000E+00 -0.00000000000E+00 -0.13691277638E+03  0.13691866650E+03  0.12700000000E+01 0. -1.
         25    2    1    2    0    0  0.00000000000E+00  0.00000000000E+00 -0.10840251816E+03  0.16545719701E+03  0.12499991240E+03 0.  0.
    9000005    1    3    3    0    0 -0.35442166098E+02 -0.14979617130E+02 -0.11937996262E+03  0.12543170071E+03  0.10000000000E+01 0.  0.
    9000005    1    3    3    0    0  0.35442166098E+02  0.14979617130E+02  0.10977444467E+02  0.40025496301E+02  0.10000000000E+01 0.  0.
<mgrwt>
<rscale>  0 0.12499991E+03</rscale>
<asrwt>0</asrwt>
<pdfrwt beam="1">  1        4 0.43888215E-02 0.12499991E+03</pdfrwt>
<pdfrwt beam="2">  1       -4 0.21066131E-01 0.12499991E+03</pdfrwt>
<totfact> 0.96301066E+03</totfact>
</mgrwt>
</event>
<event>
 5    1  0.3321169E-002  0.1249930E+03  0.7818608E-02  0.1235080E+00
          4   -1    0    0  501    0  0.00000000000E+00  0.00000000000E+00  0.13312101117E+02  0.13372544116E+02  0.12700000000E+01 0.  1.
         -4   -1    0    0    0  501 -0.00000000000E+00 -0.00000000000E+00 -0.29267675098E+03  0.29267950640E+03  0.12700000000E+01 0.  1.
         25    2    1    2    0    0  0.00000000000E+00  0.00000000000E+00 -0.27936464986E+03  0.30605205051E+03  0.12499299992E+03 0.  0.
    9000005    1    3    3    0    0 -0.52066251925E+02  0.33053359041E+02 -0.11502679228E+03  0.13052042781E+03  0.10000000000E+01 0.  0.
    9000005    1    3    3    0    0  0.52066251925E+02 -0.33053359041E+02 -0.16433785759E+03  0.17553162271E+03  0.10000000000E+01 0.  0.
<mgrwt>
<rscale>  0 0.12499300E+03</rscale>
<asrwt>0</asrwt>
<pdfrwt beam="1">  1        4 0.20528772E-02 0.12499300E+03</pdfrwt>
<pdfrwt beam="2">  1       -4 0.45032049E-01 0.12499300E+03</pdfrwt>
<totfact> 0.74857528E+03</totfact>
</mgrwt>
</event>
<event>
 5    1  0.3321169E-002  0.1249994E+03  0.7818608E-02  0.1235070E+00
         -4   -1    0    0    0  501 -0.00000000000E+00  0.00000000000E+00  0.85585210691E+03  0.85585304919E+03  0.12700000000E+01 0. -1.
          4   -1    0    0  501    0  0.00000000000E+00 -0.00000000000E+00 -0.44748099664E+01  0.46515399854E+01  0.12700000000E+01 0. -1.
         25    2    1    2    0    0  0.00000000000E+00  0.00000000000E+00  0.85137729695E+03  0.86050458918E+03  0.12499938494E+03 0.  0.
    9000005    1    3    3    0    0 -0.13461997520E+02  0.38394457498E+02  0.99159262221E+02  0.10718637520E+03  0.10000000000E+01 0.  0.
    9000005    1    3    3    0    0  0.13461997520E+02 -0.38394457498E+02  0.75221803473E+03  0.75331821398E+03  0.10000000000E+01 0.  0.
<mgrwt>
<rscale>  0 0.12499938E+03</rscale>
<asrwt>0</asrwt>
<pdfrwt beam="2">  1        4 0.70209894E-03 0.12499938E+03</pdfrwt>
<pdfrwt beam="1">  1       -4 0.13168331E+00 0.12499938E+03</pdfrwt>
<totfact> 0.35701737E+03</totfact>
</mgrwt>
</event>
