<event>
 5    1  0.3300771E-002  0.1250019E+03  0.7818608E-02  0.1235066E+00
          4   -1    0    0  501    0  0.00000000000E+00  0.00000000000E+00  0.18119409356E+03  0.18119854426E+03  0.12700000000E+01 0. -1.
         -4   -1    0    0    0  501 -0.00000000000E+00 -0.00000000000E+00 -0.21535597305E+02  0.21573012105E+02  0.12700000000E+01 0. -1.
         25    2    1    2    0    0  0.00000000000E+00  0.00000000000E+00  0.15965849626E+03  0.20277155637E+03  0.12500187456E+03 0.  0.
    9000005    1    3    3    0    0 -0.44479551195E+02  0.36577563321E+02  0.11919830348E+03  0.13238422929E+03  0.10000000000E+01 0.  0.
    9000005    1    3    3    0    0  0.44479551195E+02 -0.36577563321E+02  0.40460192782E+02  0.70387327076E+02  0.10000000000E+01 0.  0.
<mgrwt>
<rscale>  0 0.12500187E+03</rscale>
<asrwt>0</asrwt>
<pdfrwt beam="1">  1        4 0.27879233E-01 0.12500187E+03</pdfrwt>
<pdfrwt beam="2">  1       -4 0.33163894E-02 0.12500187E+03</pdfrwt>
<totfact> 0.89666398E+03</totfact>
</mgrwt>
</event>
<event>
 5    1  0.3300771E-002  0.1250032E+03  0.7818608E-02  0.1235064E+00
         -4   -1    0    0    0  501 -0.00000000000E+00  0.00000000000E+00  0.12464972868E+04  0.12464979338E+04  0.12700000000E+01 0.  1.
          4   -1    0    0  501    0  0.00000000000E+00 -0.00000000000E+00 -0.30046028293E+01  0.32619837771E+01  0.12700000000E+01 0.  1.
         25    2    1    2    0    0  0.00000000000E+00  0.00000000000E+00  0.12434926840E+04  0.12497599176E+04  0.12500318566E+03 0.  0.
    9000005    1    3    3    0    0 -0.23313778169E+02  0.40852876637E+02  0.21037998307E+03  0.21557649932E+03  0.10000000000E+01 0.  0.
    9000005    1    3    3    0    0  0.23313778169E+02 -0.40852876637E+02  0.10331127009E+04  0.10341834182E+04  0.10000000000E+01 0.  0.
<mgrwt>
<rscale>  0 0.12500319E+03</rscale>
<asrwt>0</asrwt>
<pdfrwt beam="2">  1        4 0.48209418E-03 0.12500319E+03</pdfrwt>
<pdfrwt beam="1">  1       -4 0.19178894E+00 0.12500319E+03</pdfrwt>
<totfact> 0.23444456E+03</totfact>
</mgrwt>
</event>
<event>
 5    1  0.3300771E-002  0.1249937E+03  0.7818608E-02  0.1235079E+00
          4   -1    0    0  501    0  0.00000000000E+00  0.00000000000E+00  0.93599847032E+01  0.94457510895E+01  0.12700000000E+01 0. -1.
         -4   -1    0    0    0  501 -0.00000000000E+00 -0.00000000000E+00 -0.41530327513E+03  0.41530521696E+03  0.12700000000E+01 0. -1.
         25    2    1    2    0    0  0.00000000000E+00  0.00000000000E+00 -0.40594329043E+03  0.42475096805E+03  0.12499371911E+03 0.  0.
    9000005    1    3    3    0    0  0.57545941428E+02  0.23929751362E+02 -0.18751494568E+03  0.19760319640E+03  0.10000000000E+01 0.  0.
    9000005    1    3    3    0    0 -0.57545941428E+02 -0.23929751362E+02 -0.21842834475E+03  0.22714777165E+03  0.10000000000E+01 0.  0.
<mgrwt>
<rscale>  0 0.12499372E+03</rscale>
<asrwt>0</asrwt>
<pdfrwt beam="1">  1        4 0.14467448E-02 0.12499372E+03</pdfrwt>
<pdfrwt beam="2">  1       -4 0.63899544E-01 0.12499372E+03</pdfrwt>
<totfact> 0.62223308E+03</totfact>
</mgrwt>
</event>
<event>
 5    1  0.3300771E-002  0.1249998E+03  0.7818608E-02  0.1235070E+00
         -4   -1    0    0    0  501 -0.00000000000E+00  0.00000000000E+00  0.37482620173E+02  0.37504129306E+02  0.12700000000E+01 0.  1.
          4   -1    0    0  501    0  0.00000000000E+00 -0.00000000000E+00 -0.10415931078E+03  0.10416705296E+03  0.12700000000E+01 0.  1.
         25    2    1    2    0    0  0.00000000000E+00  0.00000000000E+00 -0.66676690604E+02  0.14167118226E+03  0.12499977125E+03 0.  0.
    9000005    1    3    3    0    0 -0.55132447253E+02 -0.29041696134E+02 -0.38681906490E+02  0.73350506093E+02  0.10000000000E+01 0.  0.
    9000005    1    3    3    0    0  0.55132447253E+02  0.29041696134E+02 -0.27994784114E+02  0.68320676168E+02  0.10000000000E+01 0.  0.
<mgrwt>
<rscale>  0 0.12499977E+03</rscale>
<asrwt>0</asrwt>
<pdfrwt beam="2">  1        4 0.16026759E-01 0.12499977E+03</pdfrwt>
<pdfrwt beam="1">  1       -4 0.57688071E-02 0.12499977E+03</pdfrwt>
<totfact> 0.10099118E+04</totfact>
</mgrwt>
</event>
<event>
 5    1  0.3300771E-002  0.1249984E+03  0.7818608E-02  0.1235072E+00
         -4   -1    0    0    0  501 -0.00000000000E+00  0.00000000000E+00  0.11316891426E+02  0.11387929203E+02  0.12700000000E+01 0.  1.
          4   -1    0    0  501    0  0.00000000000E+00 -0.00000000000E+00 -0.34400882925E+03  0.34401117351E+03  0.12700000000E+01 0.  1.
         25    2    1    2    0    0  0.00000000000E+00  0.00000000000E+00 -0.33269193782E+03  0.35539910271E+03  0.12499838686E+03 0.  0.
    9000005    1    3    3    0    0  0.28830983018E+02  0.17790251691E+02 -0.31564748214E+03  0.31746189003E+03  0.10000000000E+01 0.  0.
    9000005    1    3    3    0    0 -0.28830983018E+02 -0.17790251691E+02 -0.17044455680E+02  0.37937212687E+02  0.10000000000E+01 0.  0.
<mgrwt>
<rscale>  0 0.12499839E+03</rscale>
<asrwt>0</asrwt>
<pdfrwt beam="2">  1        4 0.52930072E-01 0.12499839E+03</pdfrwt>
<pdfrwt beam="1">  1       -4 0.17467053E-02 0.12499839E+03</pdfrwt>
<totfact> 0.69137115E+03</totfact>
</mgrwt>
</event>
<event>
 5    1  0.3300771E-002  0.1250008E+03  0.7818608E-02  0.1235068E+00
          4   -1    0    0  501    0  0.00000000000E+00  0.00000000000E+00  0.20919216835E+02  0.20957732058E+02  0.12700000000E+01 0. -1.
         -4   -1    0    0    0  501 -0.00000000000E+00 -0.00000000000E+00 -0.18652030530E+03  0.18652462890E+03  0.12700000000E+01 0. -1.
         25    2    1    2    0    0  0.00000000000E+00  0.00000000000E+00 -0.16560108846E+03  0.20748236096E+03  0.12500083844E+03 0.  0.
    9000005    1    3    3    0    0 -0.59887339802E+02 -0.11065536825E+02 -0.59541177020E+02  0.85176823929E+02  0.10000000000E+01 0.  0.
    9000005    1    3    3    0    0  0.59887339802E+02  0.11065536825E+02 -0.10605991144E+03  0.12230553703E+03  0.10000000000E+01 0.  0.
<mgrwt>
<rscale>  0 0.12500084E+03</rscale>
<asrwt>0</asrwt>
<pdfrwt beam="1">  1        4 0.32216365E-02 0.12500084E+03</pdfrwt>
<pdfrwt beam="2">  1       -4 0.28698726E-01 0.12500084E+03</pdfrwt>
<totfact> 0.88887036E+03</totfact>
</mgrwt>
</event>
<event>
 5    1  0.3300771E-002  0.1250002E+03  0.7818608E-02  0.1235069E+00
         -4   -1    0    0    0  501 -0.00000000000E+00  0.00000000000E+00  0.70169570562E+02  0.70181062494E+02  0.12700000000E+01 0.  1.
          4   -1    0    0  501    0  0.00000000000E+00 -0.00000000000E+00 -0.55645608058E+02  0.55660098780E+02  0.12700000000E+01 0.  1.
         25    2    1    2    0    0  0.00000000000E+00  0.00000000000E+00  0.14523962504E+02  0.12584116127E+03  0.12500020954E+03 0.  0.
    9000005    1    3    3    0    0  0.45080108595E+01  0.54432242781E+02  0.37831905686E+02  0.66448809650E+02  0.10000000000E+01 0.  0.
    9000005    1    3    3    0    0 -0.45080108595E+01 -0.54432242781E+02 -0.23307943182E+02  0.59392351624E+02  0.10000000000E+01 0.  0.
<mgrwt>
<rscale>  0 0.12500021E+03</rscale>
<asrwt>0</asrwt>
<pdfrwt beam="2">  1        4 0.85628614E-02 0.12500021E+03</pdfrwt>
<pdfrwt beam="1">  1       -4 0.10797317E-01 0.12500021E+03</pdfrwt>
<totfact> 0.10434392E+04</totfact>
</mgrwt>
</event>
<event>
 5    1  0.3300771E-002  0.1250019E+03  0.7818608E-02  0.1235066E+00
          4   -1    0    0  501    0  0.00000000000E+00  0.00000000000E+00  0.63559944063E+02  0.63572630820E+02  0.12700000000E+01 0. -1.
         -4   -1    0    0    0  501 -0.00000000000E+00 -0.00000000000E+00 -0.61434255113E+02  0.61447380752E+02  0.12700000000E+01 0. -1.
         25    2    1    2    0    0  0.00000000000E+00  0.00000000000E+00  0.21256889501E+01  0.12502001157E+03  0.12500193895E+03 0.  0.
    9000005    1    3    3    0    0 -0.50444597551E+02  0.55737142985E+01  0.37532447945E+02  0.63130090780E+02  0.10000000000E+01 0.  0.
    9000005    1    3    3    0    0  0.50444597551E+02 -0.55737142985E+01 -0.35406758995E+02  0.61889920792E+02  0.10000000000E+01 0.  0.
<mgrwt>
<rscale>  0 0.12500194E+03</rscale>
<asrwt>0</asrwt>
<pdfrwt beam="1">  1        4 0.97804385E-02 0.12500194E+03</pdfrwt>
<pdfrwt beam="2">  1       -4 0.94534095E-02 0.12500194E+03</pdfrwt>
<totfact> 0.10451970E+04</totfact>
</mgrwt>
</event>
<event>
 5    1  0.3300771E-002  0.1250018E+03  0.7818608E-02  0.1235067E+00
          4   -1    0    0  501    0  0.00000000000E+00  0.00000000000E+00  0.46133325172E+01  0.47849489981E+01  0.12700000000E+01 0. -1.
         -4   -1    0    0    0  501 -0.00000000000E+00 -0.00000000000E+00 -0.83112054424E+03  0.83112151456E+03  0.12700000000E+01 0. -1.
         25    2    1    2    0    0  0.00000000000E+00  0.00000000000E+00 -0.82650721172E+03  0.83590646355E+03  0.12500177911E+03 0.  0.
    9000005    1    3    3    0    0  0.48343506000E+02  0.21641795400E+02 -0.19147586516E+03  0.19866924478E+03  0.10000000000E+01 0.  0.
    9000005    1    3    3    0    0 -0.48343506000E+02 -0.21641795400E+02 -0.63503134656E+03  0.63723721878E+03  0.10000000000E+01 0.  0.
<mgrwt>
<rscale>  0 0.12500178E+03</rscale>
<asrwt>0</asrwt>
<pdfrwt beam="1">  1        4 0.72302003E-03 0.12500178E+03</pdfrwt>
<pdfrwt beam="2">  1       -4 0.12787786E+00 0.12500178E+03</pdfrwt>
<totfact> 0.36709691E+03</totfact>
</mgrwt>
</event>
<event>
 5    1  0.3300771E-002  0.1250026E+03  0.7818608E-02  0.1235065E+00
          4   -1    0    0  501    0  0.00000000000E+00  0.00000000000E+00  0.34330618458E+01  0.36604389951E+01  0.12700000000E+01 0. -1.
         -4   -1    0    0    0  501 -0.00000000000E+00 -0.00000000000E+00 -0.11011782861E+04  0.11011790184E+04  0.12700000000E+01 0. -1.
         25    2    1    2    0    0  0.00000000000E+00  0.00000000000E+00 -0.10977452242E+04  0.11048394574E+04  0.12500259741E+03 0.  0.
    9000005    1    3    3    0    0  0.39004471350E+02  0.29389207207E+02 -0.89350034392E+03  0.89483458744E+03  0.10000000000E+01 0.  0.
    9000005    1    3    3    0    0 -0.39004471350E+02 -0.29389207207E+02 -0.20424488031E+03  0.21000486999E+03  0.10000000000E+01 0.  0.
<mgrwt>
<rscale>  0 0.12500260E+03</rscale>
<asrwt>0</asrwt>
<pdfrwt beam="1">  1        4 0.54571113E-03 0.12500260E+03</pdfrwt>
<pdfrwt beam="2">  1       -4 0.16942932E+00 0.12500260E+03</pdfrwt>
<totfact> 0.27340687E+03</totfact>
</mgrwt>
</event>
<event>
 5    1  0.3300771E-002  0.1249971E+03  0.7818608E-02  0.1235074E+00
          4   -1    0    0  501    0  0.00000000000E+00  0.00000000000E+00  0.10376444834E+03  0.10377221998E+03  0.12700000000E+01 0. -1.
         -4   -1    0    0    0  501 -0.00000000000E+00 -0.00000000000E+00 -0.37623692421E+02  0.37645120951E+02  0.12700000000E+01 0. -1.
         25    2    1    2    0    0  0.00000000000E+00  0.00000000000E+00  0.66140755918E+02  0.14141734093E+03  0.12499705885E+03 0.  0.
    9000005    1    3    3    0    0  0.55219829399E+02 -0.20254015304E+01  0.66088696959E+02  0.86151306873E+02  0.10000000000E+01 0.  0.
    9000005    1    3    3    0    0 -0.55219829399E+02  0.20254015304E+01  0.52058958932E-01  0.55266034056E+02  0.10000000000E+01 0.  0.
<mgrwt>
<rscale>  0 0.12499706E+03</rscale>
<asrwt>0</asrwt>
<pdfrwt beam="1">  1        4 0.15966007E-01 0.12499706E+03</pdfrwt>
<pdfrwt beam="2">  1       -4 0.57905066E-02 0.12499706E+03</pdfrwt>
<totfact> 0.10104964E+04</totfact>
</mgrwt>
</event>
<event>
 5    1  0.3300771E-002  0.1250009E+03  0.7818608E-02  0.1235068E+00
         -4   -1    0    0    0  501 -0.00000000000E+00  0.00000000000E+00  0.27575164703E+02  0.27604394730E+02  0.12700000000E+01 0. -1.
          4   -1    0    0  501    0  0.00000000000E+00 -0.00000000000E+00 -0.14155324296E+03  0.14155894000E+03  0.12700000000E+01 0. -1.
         25    2    1    2    0    0  0.00000000000E+00  0.00000000000E+00 -0.11397807826E+03  0.16916333473E+03  0.12500092597E+03 0.  0.
    9000005    1    3    3    0    0 -0.11997725570E+02 -0.49619306845E+02 -0.10576945831E+03  0.11744870941E+03  0.10000000000E+01 0.  0.
    9000005    1    3    3    0    0  0.11997725570E+02  0.49619306845E+02 -0.82086199529E+01  0.51714625322E+02  0.10000000000E+01 0.  0.
<mgrwt>
<rscale>  0 0.12500093E+03</rscale>
<asrwt>0</asrwt>
<pdfrwt beam="2">  1        4 0.21780108E-01 0.12500093E+03</pdfrwt>
<pdfrwt beam="1">  1       -4 0.42450198E-02 0.12500093E+03</pdfrwt>
<totfact> 0.95602693E+03</totfact>
</mgrwt>
</event>
<event>
 5    1  0.3300771E-002  0.1249946E+03  0.7818608E-02  0.1235078E+00
          4   -1    0    0  501    0  0.00000000000E+00  0.00000000000E+00  0.30905080813E+02  0.30931164221E+02  0.12700000000E+01 0.  1.
         -4   -1    0    0    0  501 -0.00000000000E+00 -0.00000000000E+00 -0.12630158172E+03  0.12630796668E+03  0.12700000000E+01 0.  1.
         25    2    1    2    0    0  0.00000000000E+00  0.00000000000E+00 -0.95396500911E+02  0.15723913090E+03  0.12499460748E+03 0.  0.
    9000005    1    3    3    0    0  0.51985463907E+02 -0.16119272634E+02 -0.90765320237E+01  0.55187886728E+02  0.10000000000E+01 0.  0.
    9000005    1    3    3    0    0 -0.51985463907E+02  0.16119272634E+02 -0.86319968887E+02  0.10205124417E+03  0.10000000000E+01 0.  0.
<mgrwt>
<rscale>  0 0.12499461E+03</rscale>
<asrwt>0</asrwt>
<pdfrwt beam="1">  1        4 0.47571254E-02 0.12499461E+03</pdfrwt>
<pdfrwt beam="2">  1       -4 0.19433510E-01 0.12499461E+03</pdfrwt>
<totfact> 0.97889583E+03</totfact>
</mgrwt>
</event>
<event>
 5    1  0.3300771E-002  0.1250034E+03  0.7818608E-02  0.1235064E+00
          4   -1    0    0  501    0  0.00000000000E+00  0.00000000000E+00  0.21045746657E+04  0.21045750489E+04  0.12700000000E+01 0. -1.
         -4   -1    0    0    0  501 -0.00000000000E+00 -0.00000000000E+00 -0.16385142584E+01  0.20730723516E+01  0.12700000000E+01 0. -1.
         25    2    1    2    0    0  0.00000000000E+00  0.00000000000E+00  0.21029361515E+04  0.21066481213E+04  0.12500339870E+03 0.  0.
    9000005    1    3    3    0    0  0.56276813740E+02 -0.21824775931E+02  0.13242854656E+04  0.13256607390E+04  0.10000000000E+01 0.  0.
    9000005    1    3    3    0    0 -0.56276813740E+02  0.21824775931E+02  0.77865068591E+03  0.78098738228E+03  0.10000000000E+01 0.  0.
<mgrwt>
<rscale>  0 0.12500340E+03</rscale>
<asrwt>0</asrwt>
<pdfrwt beam="1">  1        4 0.32381635E+00 0.12500340E+03</pdfrwt>
<pdfrwt beam="2">  1       -4 0.28553422E-03 0.12500340E+03</pdfrwt>
<totfact> 0.85319219E+02</totfact>
</mgrwt>
</event>
<event>
 5    1  0.3300771E-002  0.1250020E+03  0.7818608E-02  0.1235066E+00
          4   -1    0    0  501    0  0.00000000000E+00  0.00000000000E+00  0.25151291530E+03  0.25151612168E+03  0.12700000000E+01 0.  1.
         -4   -1    0    0    0  501 -0.00000000000E+00 -0.00000000000E+00 -0.15502232931E+02  0.15554167475E+02  0.12700000000E+01 0.  1.
         25    2    1    2    0    0  0.00000000000E+00  0.00000000000E+00  0.23601068237E+03  0.26707028915E+03  0.12500198860E+03 0.  0.
    9000005    1    3    3    0    0 -0.40075866155E+02  0.36204245945E+02  0.50830233127E+02  0.74172333604E+02  0.10000000000E+01 0.  0.
    9000005    1    3    3    0    0  0.40075866155E+02 -0.36204245945E+02  0.18518044924E+03  0.19289795555E+03  0.10000000000E+01 0.  0.
<mgrwt>
<rscale>  0 0.12500199E+03</rscale>
<asrwt>0</asrwt>
<pdfrwt beam="1">  1        4 0.38698533E-01 0.12500199E+03</pdfrwt>
<pdfrwt beam="2">  1       -4 0.23892007E-02 0.12500199E+03</pdfrwt>
<totfact> 0.79920437E+03</totfact>
</mgrwt>
</event>
<event>
 5    1  0.3300771E-002  0.1249969E+03  0.7818608E-02  0.1235074E+00
          4   -1    0    0  501    0  0.00000000000E+00  0.00000000000E+00  0.96865623041E+01  0.97694620768E+01  0.12700000000E+01 0. -1.
         -4   -1    0    0    0  501 -0.00000000000E+00 -0.00000000000E+00 -0.40144285783E+03  0.40144486671E+03  0.12700000000E+01 0. -1.
         25    2    1    2    0    0  0.00000000000E+00  0.00000000000E+00 -0.39175629553E+03  0.41121432878E+03  0.12499691640E+03 0.  0.
    9000005    1    3    3    0    0 -0.36920620415E+02 -0.11389903559E+02 -0.35745351847E+03  0.35953703562E+03  0.10000000000E+01 0.  0.
    9000005    1    3    3    0    0  0.36920620415E+02  0.11389903559E+02 -0.34302777059E+02  0.51677293165E+02  0.10000000000E+01 0.  0.
<mgrwt>
<rscale>  0 0.12499692E+03</rscale>
<asrwt>0</asrwt>
<pdfrwt beam="1">  1        4 0.14967721E-02 0.12499692E+03</pdfrwt>
<pdfrwt beam="2">  1       -4 0.61766958E-01 0.12499692E+03</pdfrwt>
<totfact> 0.63480843E+03</totfact>
</mgrwt>
</event>
<event>
 5    1  0.3300771E-002  0.1249951E+03  0.7818608E-02  0.1235077E+00
         -4   -1    0    0    0  501 -0.00000000000E+00  0.00000000000E+00  0.26632506480E+02  0.26662769950E+02  0.12700000000E+01 0. -1.
          4   -1    0    0  501    0  0.00000000000E+00 -0.00000000000E+00 -0.14654449339E+03  0.14654999640E+03  0.12700000000E+01 0. -1.
         25    2    1    2    0    0  0.00000000000E+00  0.00000000000E+00 -0.11991198691E+03  0.17321276635E+03  0.12499511118E+03 0.  0.
    9000005    1    3    3    0    0 -0.83676541428E+01  0.20983728182E+02 -0.14069470451E+03  0.14250029600E+03  0.10000000000E+01 0.  0.
    9000005    1    3    3    0    0  0.83676541428E+01 -0.20983728182E+02  0.20782717592E+02  0.30712470346E+02  0.10000000000E+01 0.  0.
<mgrwt>
<rscale>  0 0.12499511E+03</rscale>
<asrwt>0</asrwt>
<pdfrwt beam="2">  1        4 0.22548057E-01 0.12499511E+03</pdfrwt>
<pdfrwt beam="1">  1       -4 0.41000600E-02 0.12499511E+03</pdfrwt>
<totfact> 0.94863597E+03</totfact>
</mgrwt>
</event>
<event>
 5    1  0.3300771E-002  0.1250005E+03  0.7818608E-02  0.1235069E+00
          4   -1    0    0  501    0  0.00000000000E+00  0.00000000000E+00  0.20464043672E+01  0.24084581861E+01  0.12700000000E+01 0. -1.
         -4   -1    0    0    0  501 -0.00000000000E+00 -0.00000000000E+00 -0.17533526183E+04  0.17533530782E+04  0.12700000000E+01 0. -1.
         25    2    1    2    0    0  0.00000000000E+00  0.00000000000E+00 -0.17513062139E+04  0.17557615364E+04  0.12500047144E+03 0.  0.
    9000005    1    3    3    0    0 -0.33057820464E+02  0.28577935366E+02 -0.24816108456E+03  0.25198103455E+03  0.10000000000E+01 0.  0.
    9000005    1    3    3    0    0  0.33057820464E+02 -0.28577935366E+02 -0.15031451293E+04  0.15037805019E+04  0.10000000000E+01 0.  0.
<mgrwt>
<rscale>  0 0.12500047E+03</rscale>
<asrwt>0</asrwt>
<pdfrwt beam="1">  1        4 0.34271852E-03 0.12500047E+03</pdfrwt>
<pdfrwt beam="2">  1       -4 0.26977334E+00 0.12500047E+03</pdfrwt>
<totfact> 0.13397500E+03</totfact>
</mgrwt>
</event>
<event>
 5    1  0.3300771E-002  0.1249695E+03  0.7818608E-02  0.1235117E+00
          4   -1    0    0  501    0  0.00000000000E+00  0.00000000000E+00  0.24479388812E+02  0.24512310715E+02  0.12700000000E+01 0.  1.
         -4   -1    0    0    0  501 -0.00000000000E+00 -0.00000000000E+00 -0.15935256998E+03  0.15935763069E+03  0.12700000000E+01 0.  1.
         25    2    1    2    0    0  0.00000000000E+00  0.00000000000E+00 -0.13487318116E+03  0.18386994140E+03  0.12496951770E+03 0.  0.
    9000005    1    3    3    0    0  0.34925888239E+01 -0.53710132422E+01 -0.15887519668E+03  0.15900746548E+03  0.10000000000E+01 0.  0.
    9000005    1    3    3    0    0 -0.34925888239E+01  0.53710132422E+01  0.24002015515E+02  0.24862475917E+02  0.10000000000E+01 0.  0.
<mgrwt>
<rscale>  0 0.12496952E+03</rscale>
<asrwt>0</asrwt>
<pdfrwt beam="1">  1        4 0.37689817E-02 0.12496952E+03</pdfrwt>
<pdfrwt beam="2">  1       -4 0.24518701E-01 0.12496952E+03</pdfrwt>
<totfact> 0.92988519E+03</totfact>
</mgrwt>
</event>
<event>
 5    1  0.3300771E-002  0.1249834E+03  0.7818608E-02  0.1235095E+00
          4   -1    0    0  501    0  0.00000000000E+00  0.00000000000E+00  0.94425560222E+01  0.95275791381E+01  0.12700000000E+01 0.  1.
         -4   -1    0    0    0  501 -0.00000000000E+00 -0.00000000000E+00 -0.41163594606E+03  0.41163790519E+03  0.12700000000E+01 0.  1.
         25    2    1    2    0    0  0.00000000000E+00  0.00000000000E+00 -0.40219339004E+03  0.42116548433E+03  0.12498336769E+03 0.  0.
    9000005    1    3    3    0    0  0.45292692600E+02  0.42665609339E+02 -0.18190723217E+03  0.19225770033E+03  0.10000000000E+01 0.  0.
    9000005    1    3    3    0    0 -0.45292692600E+02 -0.42665609339E+02 -0.22028615788E+03  0.22890778400E+03  0.10000000000E+01 0.  0.
<mgrwt>
<rscale>  0 0.12498337E+03</rscale>
<asrwt>0</asrwt>
<pdfrwt beam="1">  1        4 0.14593922E-02 0.12498337E+03</pdfrwt>
<pdfrwt beam="2">  1       -4 0.63335284E-01 0.12498337E+03</pdfrwt>
<totfact> 0.62567988E+03</totfact>
</mgrwt>
</event>
<event>
 5    1  0.3300771E-002  0.1250021E+03  0.7818608E-02  0.1235066E+00
          4   -1    0    0  501    0  0.00000000000E+00  0.00000000000E+00  0.12168820847E+03  0.12169483547E+03  0.12700000000E+01 0.  1.
         -4   -1    0    0    0  501 -0.00000000000E+00 -0.00000000000E+00 -0.32081502657E+02  0.32106630355E+02  0.12700000000E+01 0.  1.
         25    2    1    2    0    0  0.00000000000E+00  0.00000000000E+00  0.89606705809E+02  0.15380146582E+03  0.12500211664E+03 0.  0.
    9000005    1    3    3    0    0  0.34494537976E+02  0.49926051665E+02  0.26433880359E+02  0.66198442699E+02  0.10000000000E+01 0.  0.
    9000005    1    3    3    0    0 -0.34494537976E+02 -0.49926051665E+02  0.63172825450E+02  0.87603023124E+02  0.10000000000E+01 0.  0.
<mgrwt>
<rscale>  0 0.12500212E+03</rscale>
<asrwt>0</asrwt>
<pdfrwt beam="1">  1        4 0.18723706E-01 0.12500212E+03</pdfrwt>
<pdfrwt beam="2">  1       -4 0.49380584E-02 0.12500212E+03</pdfrwt>
<totfact> 0.98546566E+03</totfact>
</mgrwt>
</event>
<event>
 5    1  0.3300771E-002  0.1249954E+03  0.7818608E-02  0.1235076E+00
          4   -1    0    0  501    0  0.00000000000E+00  0.00000000000E+00  0.57884260037E+02  0.57898190473E+02  0.12700000000E+01 0. -1.
         -4   -1    0    0    0  501 -0.00000000000E+00 -0.00000000000E+00 -0.67450831222E+02  0.67462786279E+02  0.12700000000E+01 0. -1.
         25    2    1    2    0    0  0.00000000000E+00  0.00000000000E+00 -0.95665711857E+01  0.12536097675E+03  0.12499542075E+03 0.  0.
    9000005    1    3    3    0    0  0.17341405195E+02 -0.36544624051E+02  0.42987200871E+02  0.59035017743E+02  0.10000000000E+01 0.  0.
    9000005    1    3    3    0    0 -0.17341405195E+02  0.36544624051E+02 -0.52553772056E+02  0.66325959009E+02  0.10000000000E+01 0.  0.
<mgrwt>
<rscale>  0 0.12499542E+03</rscale>
<asrwt>0</asrwt>
<pdfrwt beam="1">  1        4 0.89072620E-02 0.12499542E+03</pdfrwt>
<pdfrwt beam="2">  1       -4 0.10379042E-01 0.12499542E+03</pdfrwt>
<totfact> 0.10446108E+04</totfact>
</mgrwt>
</event>
<event>
 5    1  0.3300771E-002  0.1249995E+03  0.7818608E-02  0.1235070E+00
         -4   -1    0    0    0  501 -0.00000000000E+00  0.00000000000E+00  0.10337552018E+03  0.10338332106E+03  0.12700000000E+01 0. -1.
          4   -1    0    0  501    0  0.00000000000E+00 -0.00000000000E+00 -0.37766818329E+02  0.37788165697E+02  0.12700000000E+01 0. -1.
         25    2    1    2    0    0  0.00000000000E+00  0.00000000000E+00  0.65608701851E+02  0.14117148675E+03  0.12499954765E+03 0.  0.
    9000005    1    3    3    0    0 -0.56512421992E+02  0.26472150860E+02  0.29094025481E+02  0.68861389249E+02  0.10000000000E+01 0.  0.
    9000005    1    3    3    0    0  0.56512421992E+02 -0.26472150860E+02  0.36514676369E+02  0.72310097503E+02  0.10000000000E+01 0.  0.
<mgrwt>
<rscale>  0 0.12499955E+03</rscale>
<asrwt>0</asrwt>
<pdfrwt beam="2">  1        4 0.58125220E-02 0.12499955E+03</pdfrwt>
<pdfrwt beam="1">  1       -4 0.15906168E-01 0.12499955E+03</pdfrwt>
<totfact> 0.10109467E+04</totfact>
</mgrwt>
</event>
<event>
 5    1  0.3300771E-002  0.1250018E+03  0.7818608E-02  0.1235066E+00
         -4   -1    0    0    0  501 -0.00000000000E+00  0.00000000000E+00  0.28998450542E+03  0.28998728642E+03  0.12700000000E+01 0.  1.
          4   -1    0    0  501    0  0.00000000000E+00 -0.00000000000E+00 -0.13438152713E+02  0.13498031277E+02  0.12700000000E+01 0.  1.
         25    2    1    2    0    0  0.00000000000E+00  0.00000000000E+00  0.27654635271E+03  0.30348531770E+03  0.12500181143E+03 0.  0.
    9000005    1    3    3    0    0  0.24765489745E+02  0.27823281699E+02  0.16447029646E+02  0.40730446486E+02  0.10000000000E+01 0.  0.
    9000005    1    3    3    0    0 -0.24765489745E+02 -0.27823281699E+02  0.26009932307E+03  0.26275487121E+03  0.10000000000E+01 0.  0.
<mgrwt>
<rscale>  0 0.12500181E+03</rscale>
<asrwt>0</asrwt>
<pdfrwt beam="2">  1        4 0.20722282E-02 0.12500181E+03</pdfrwt>
<pdfrwt beam="1">  1       -4 0.44617819E-01 0.12500181E+03</pdfrwt>
<totfact> 0.75160695E+03</totfact>
</mgrwt>
</event>
<event>
 5    1  0.3300771E-002  0.1249935E+03  0.7818608E-02  0.1235079E+00
         -4   -1    0    0    0  501 -0.00000000000E+00  0.00000000000E+00  0.12147308598E+03  0.12147972472E+03  0.12700000000E+01 0. -1.
          4   -1    0    0  501    0  0.00000000000E+00 -0.00000000000E+00 -0.32133919253E+02  0.32159005995E+02  0.12700000000E+01 0. -1.
         25    2    1    2    0    0  0.00000000000E+00  0.00000000000E+00  0.89339166728E+02  0.15363873071E+03  0.12499349129E+03 0.  0.
    9000005    1    3    3    0    0 -0.53300143964E+02 -0.20116110546E+02  0.13108765346E+02  0.58467110233E+02  0.10000000000E+01 0.  0.
    9000005    1    3    3    0    0  0.53300143964E+02  0.20116110546E+02  0.76230401382E+02  0.95171620481E+02  0.10000000000E+01 0.  0.
<mgrwt>
<rscale>  0 0.12499349E+03</rscale>
<asrwt>0</asrwt>
<pdfrwt beam="2">  1        4 0.49461204E-02 0.12499349E+03</pdfrwt>
<pdfrwt beam="1">  1       -4 0.18690607E-01 0.12499349E+03</pdfrwt>
<totfact> 0.98597690E+03</totfact>
</mgrwt>
</event>
<event>
 5    1  0.3300771E-002  0.1250009E+03  0.7818608E-02  0.1235068E+00
          4   -1    0    0  501    0  0.00000000000E+00  0.00000000000E+00  0.28554702132E+03  0.28554984553E+03  0.12700000000E+01 0. -1.
         -4   -1    0    0    0  501 -0.00000000000E+00 -0.00000000000E+00 -0.13647716830E+02  0.13706679929E+02  0.12700000000E+01 0. -1.
         25    2    1    2    0    0  0.00000000000E+00  0.00000000000E+00  0.27189930449E+03  0.29925652546E+03  0.12500094500E+03 0.  0.
    9000005    1    3    3    0    0 -0.43319251853E+02  0.24598449788E+01  0.24362000585E+03  0.24745568425E+03  0.10000000000E+01 0.  0.
    9000005    1    3    3    0    0  0.43319251853E+02 -0.24598449788E+01  0.28279298636E+02  0.51800841207E+02  0.10000000000E+01 0.  0.
<mgrwt>
<rscale>  0 0.12500094E+03</rscale>
<asrwt>0</asrwt>
<pdfrwt beam="1">  1        4 0.43935064E-01 0.12500094E+03</pdfrwt>
<pdfrwt beam="2">  1       -4 0.21044016E-02 0.12500094E+03</pdfrwt>
<totfact> 0.75690604E+03</totfact>
</mgrwt>
</event>
<event>
 5    1  0.3300771E-002  0.1249984E+03  0.7818608E-02  0.1235072E+00
         -4   -1    0    0    0  501 -0.00000000000E+00  0.00000000000E+00  0.16540580707E+02  0.16589264907E+02  0.12700000000E+01 0.  1.
          4   -1    0    0  501    0  0.00000000000E+00 -0.00000000000E+00 -0.23575824729E+03  0.23576166793E+03  0.12700000000E+01 0.  1.
         25    2    1    2    0    0  0.00000000000E+00  0.00000000000E+00 -0.21921766658E+03  0.25235093283E+03  0.12499843184E+03 0.  0.
    9000005    1    3    3    0    0 -0.59605923092E+02  0.16098297556E+02 -0.12909143147E+03  0.14310003120E+03  0.10000000000E+01 0.  0.
    9000005    1    3    3    0    0  0.59605923092E+02 -0.16098297556E+02 -0.90126235112E+02  0.10925090163E+03  0.10000000000E+01 0.  0.
<mgrwt>
<rscale>  0 0.12499843E+03</rscale>
<asrwt>0</asrwt>
<pdfrwt beam="2">  1        4 0.36274505E-01 0.12499843E+03</pdfrwt>
<pdfrwt beam="1">  1       -4 0.25487130E-02 0.12499843E+03</pdfrwt>
<totfact> 0.81994493E+03</totfact>
</mgrwt>
</event>
<event>
 5    1  0.3300771E-002  0.1250413E+03  0.7818608E-02  0.1235005E+00
          4   -1    0    0  501    0  0.00000000000E+00  0.00000000000E+00  0.86141367660E+01  0.87072528517E+01  0.12700000000E+01 0. -1.
         -4   -1    0    0    0  501 -0.00000000000E+00 -0.00000000000E+00 -0.45123595994E+03  0.45123774714E+03  0.12700000000E+01 0. -1.
         25    2    1    2    0    0  0.00000000000E+00  0.00000000000E+00 -0.44262182317E+03  0.45994499999E+03  0.12504129185E+03 0.  0.
    9000005    1    3    3    0    0  0.24736027102E+02 -0.17893574827E+02 -0.42196724331E+03  0.42307139525E+03  0.10000000000E+01 0.  0.
    9000005    1    3    3    0    0 -0.24736027102E+02  0.17893574827E+02 -0.20654579866E+02  0.36873604738E+02  0.10000000000E+01 0.  0.
<mgrwt>
<rscale>  0 0.12504129E+03</rscale>
<asrwt>0</asrwt>
<pdfrwt beam="1">  1        4 0.13325524E-02 0.12504129E+03</pdfrwt>
<pdfrwt beam="2">  1       -4 0.69428199E-01 0.12504129E+03</pdfrwt>
<totfact> 0.59058136E+03</totfact>
</mgrwt>
</event>
<event>
 5    1  0.3300771E-002  0.1249925E+03  0.7818608E-02  0.1235081E+00
         -4   -1    0    0    0  501 -0.00000000000E+00  0.00000000000E+00  0.19972169944E+02  0.20012507896E+02  0.12700000000E+01 0. -1.
          4   -1    0    0  501    0  0.00000000000E+00 -0.00000000000E+00 -0.19532153904E+03  0.19532566783E+03  0.12700000000E+01 0. -1.
         25    2    1    2    0    0  0.00000000000E+00  0.00000000000E+00 -0.17534936909E+03  0.21533817572E+03  0.12499251451E+03 0.  0.
    9000005    1    3    3    0    0 -0.50802004917E+02 -0.17363399109E+01 -0.25060046736E+02  0.56682135830E+02  0.10000000000E+01 0.  0.
    9000005    1    3    3    0    0  0.50802004917E+02  0.17363399109E+01 -0.15028932236E+03  0.15865603989E+03  0.10000000000E+01 0.  0.
<mgrwt>
<rscale>  0 0.12499251E+03</rscale>
<asrwt>0</asrwt>
<pdfrwt beam="2">  1        4 0.30052887E-01 0.12499251E+03</pdfrwt>
<pdfrwt beam="1">  1       -4 0.30760622E-02 0.12499251E+03</pdfrwt>
<totfact> 0.87626097E+03</totfact>
</mgrwt>
</event>
<event>
 5    1  0.3300771E-002  0.1249962E+03  0.7818608E-02  0.1235075E+00
         -4   -1    0    0    0  501 -0.00000000000E+00  0.00000000000E+00  0.56796966615E+01  0.58199531069E+01  0.12700000000E+01 0.  1.
          4   -1    0    0  501    0  0.00000000000E+00 -0.00000000000E+00 -0.67918586765E+03  0.67918705502E+03  0.12700000000E+01 0.  1.
         25    2    1    2    0    0  0.00000000000E+00  0.00000000000E+00 -0.67350617099E+03  0.68500700813E+03  0.12499615527E+03 0.  0.
    9000005    1    3    3    0    0  0.44151861907E+01  0.44635304439E+02 -0.57520303307E+03  0.57695002689E+03  0.10000000000E+01 0.  0.
    9000005    1    3    3    0    0 -0.44151861907E+01 -0.44635304439E+02 -0.98303137916E+02  0.10805698124E+03  0.10000000000E+01 0.  0.
<mgrwt>
<rscale>  0 0.12499616E+03</rscale>
<asrwt>0</asrwt>
<pdfrwt beam="2">  1        4 0.10450095E+00 0.12499616E+03</pdfrwt>
<pdfrwt beam="1">  1       -4 0.88468032E-03 0.12499616E+03</pdfrwt>
<totfact> 0.43893775E+03</totfact>
</mgrwt>
</event>
<event>
 5    1  0.3300771E-002  0.1249971E+03  0.7818608E-02  0.1235074E+00
          4   -1    0    0  501    0  0.00000000000E+00  0.00000000000E+00  0.54284409507E+02  0.54299263490E+02  0.12700000000E+01 0.  1.
         -4   -1    0    0    0  501 -0.00000000000E+00 -0.00000000000E+00 -0.71925268716E+02  0.71936480174E+02  0.12700000000E+01 0.  1.
         25    2    1    2    0    0  0.00000000000E+00  0.00000000000E+00 -0.17640859209E+02  0.12623574366E+03  0.12499705222E+03 0.  0.
    9000005    1    3    3    0    0  0.47858241458E+02 -0.39825465637E+02 -0.34207850494E+01  0.62363296570E+02  0.10000000000E+01 0.  0.
    9000005    1    3    3    0    0 -0.47858241458E+02  0.39825465637E+02 -0.14220074160E+02  0.63872447094E+02  0.10000000000E+01 0.  0.
<mgrwt>
<rscale>  0 0.12499705E+03</rscale>
<asrwt>0</asrwt>
<pdfrwt beam="1">  1        4 0.83534526E-02 0.12499705E+03</pdfrwt>
<pdfrwt beam="2">  1       -4 0.11067431E-01 0.12499705E+03</pdfrwt>
<totfact> 0.10426491E+04</totfact>
</mgrwt>
</event>
<event>
 5    1  0.3300771E-002  0.1250037E+03  0.7818608E-02  0.1235064E+00
          4   -1    0    0  501    0  0.00000000000E+00  0.00000000000E+00  0.52275092913E+02  0.52290517678E+02  0.12700000000E+01 0.  1.
         -4   -1    0    0    0  501 -0.00000000000E+00 -0.00000000000E+00 -0.74697446329E+02  0.74708241768E+02  0.12700000000E+01 0.  1.
         25    2    1    2    0    0  0.00000000000E+00  0.00000000000E+00 -0.22422353416E+02  0.12699875945E+03  0.12500369182E+03 0.  0.
    9000005    1    3    3    0    0  0.58218622316E+02  0.20069232266E+02 -0.22025243626E+02  0.65408664753E+02  0.10000000000E+01 0.  0.
    9000005    1    3    3    0    0 -0.58218622316E+02 -0.20069232266E+02 -0.39710979025E+00  0.61590094693E+02  0.10000000000E+01 0.  0.
<mgrwt>
<rscale>  0 0.12500369E+03</rscale>
<asrwt>0</asrwt>
<pdfrwt beam="1">  1        4 0.80443389E-02 0.12500369E+03</pdfrwt>
<pdfrwt beam="2">  1       -4 0.11493932E-01 0.12500369E+03</pdfrwt>
<totfact> 0.10408305E+04</totfact>
</mgrwt>
</event>
<event>
 5    1  0.3300771E-002  0.1250024E+03  0.7818608E-02  0.1235065E+00
         -4   -1    0    0    0  501 -0.00000000000E+00  0.00000000000E+00  0.89759141144E+03  0.89759230990E+03  0.12700000000E+01 0. -1.
          4   -1    0    0  501    0  0.00000000000E+00 -0.00000000000E+00 -0.42585237392E+01  0.44438636834E+01  0.12700000000E+01 0. -1.
         25    2    1    2    0    0  0.00000000000E+00  0.00000000000E+00  0.89333288770E+03  0.90203617358E+03  0.12500244079E+03 0.  0.
    9000005    1    3    3    0    0  0.69163896314E+01 -0.66585436307E+01  0.10594937197E+01  0.97105703106E+01  0.10000000000E+01 0.  0.
    9000005    1    3    3    0    0 -0.69163896314E+01  0.66585436307E+01  0.89227339398E+03  0.89232560327E+03  0.10000000000E+01 0.  0.
<mgrwt>
<rscale>  0 0.12500244E+03</rscale>
<asrwt>0</asrwt>
<pdfrwt beam="2">  1        4 0.66948401E-03 0.12500244E+03</pdfrwt>
<pdfrwt beam="1">  1       -4 0.13810521E+00 0.12500244E+03</pdfrwt>
<totfact> 0.34080277E+03</totfact>
</mgrwt>
</event>
<event>
 5    1  0.3300771E-002  0.1249959E+03  0.7818608E-02  0.1235076E+00
          4   -1    0    0  501    0  0.00000000000E+00  0.00000000000E+00  0.57138703849E+02  0.57152816007E+02  0.12700000000E+01 0. -1.
         -4   -1    0    0    0  501 -0.00000000000E+00 -0.00000000000E+00 -0.68331438521E+02  0.68343239536E+02  0.12700000000E+01 0. -1.
         25    2    1    2    0    0  0.00000000000E+00  0.00000000000E+00 -0.11192734672E+02  0.12549605554E+03  0.12499593052E+03 0.  0.
    9000005    1    3    3    0    0  0.44913294512E+02 -0.26780703765E+02 -0.39947082243E+02  0.65811697272E+02  0.10000000000E+01 0.  0.
    9000005    1    3    3    0    0 -0.44913294512E+02  0.26780703765E+02  0.28754347571E+02  0.59684358272E+02  0.10000000000E+01 0.  0.
<mgrwt>
<rscale>  0 0.12499593E+03</rscale>
<asrwt>0</asrwt>
<pdfrwt beam="1">  1        4 0.87925631E-02 0.12499593E+03</pdfrwt>
<pdfrwt beam="2">  1       -4 0.10514522E-01 0.12499593E+03</pdfrwt>
<totfact> 0.10443000E+04</totfact>
</mgrwt>
</event>
<event>
 5    1  0.3300771E-002  0.1249899E+03  0.7818608E-02  0.1235085E+00
          4   -1    0    0  501    0  0.00000000000E+00  0.00000000000E+00  0.66040203708E+02  0.66052414080E+02  0.12700000000E+01 0.  1.
         -4   -1    0    0    0  501 -0.00000000000E+00 -0.00000000000E+00 -0.59115473507E+02  0.59129113878E+02  0.12700000000E+01 0.  1.
         25    2    1    2    0    0  0.00000000000E+00  0.00000000000E+00  0.69247302011E+01  0.12518152796E+03  0.12498985180E+03 0.  0.
    9000005    1    3    3    0    0  0.16293257651E+02  0.19340076368E+02 -0.53766377212E+02  0.59425012556E+02  0.10000000000E+01 0.  0.
    9000005    1    3    3    0    0 -0.16293257651E+02 -0.19340076368E+02  0.60691107413E+02  0.65756515402E+02  0.10000000000E+01 0.  0.
<mgrwt>
<rscale>  0 0.12498985E+03</rscale>
<asrwt>0</asrwt>
<pdfrwt beam="1">  1        4 0.10162020E-01 0.12498985E+03</pdfrwt>
<pdfrwt beam="2">  1       -4 0.90966767E-02 0.12498985E+03</pdfrwt>
<totfact> 0.10451318E+04</totfact>
</mgrwt>
</event>
<event>
 5    1  0.3300771E-002  0.1249963E+03  0.7818608E-02  0.1235075E+00
         -4   -1    0    0    0  501 -0.00000000000E+00  0.00000000000E+00  0.31600976154E+02  0.31626485640E+02  0.12700000000E+01 0. -1.
          4   -1    0    0  501    0  0.00000000000E+00 -0.00000000000E+00 -0.12352562773E+03  0.12353215616E+03  0.12700000000E+01 0. -1.
         25    2    1    2    0    0  0.00000000000E+00  0.00000000000E+00 -0.91924651577E+02  0.15515864180E+03  0.12499625018E+03 0.  0.
    9000005    1    3    3    0    0  0.25082016034E+02 -0.49617039548E+02 -0.10545753634E+02  0.56596564044E+02  0.10000000000E+01 0.  0.
    9000005    1    3    3    0    0 -0.25082016034E+02  0.49617039548E+02 -0.81378897942E+02  0.98562077759E+02  0.10000000000E+01 0.  0.
<mgrwt>
<rscale>  0 0.12499625E+03</rscale>
<asrwt>0</asrwt>
<pdfrwt beam="2">  1        4 0.19006407E-01 0.12499625E+03</pdfrwt>
<pdfrwt beam="1">  1       -4 0.48641531E-02 0.12499625E+03</pdfrwt>
<totfact> 0.98292653E+03</totfact>
</mgrwt>
</event>
<event>
 5    1  0.3300771E-002  0.1249988E+03  0.7818608E-02  0.1235071E+00
         -4   -1    0    0    0  501 -0.00000000000E+00  0.00000000000E+00  0.57175326214E+02  0.57189429335E+02  0.12700000000E+01 0. -1.
          4   -1    0    0  501    0  0.00000000000E+00 -0.00000000000E+00 -0.68290839254E+02  0.68302647284E+02  0.12700000000E+01 0. -1.
         25    2    1    2    0    0  0.00000000000E+00  0.00000000000E+00 -0.11115513040E+02  0.12549207662E+03  0.12499882665E+03 0.  0.
    9000005    1    3    3    0    0 -0.62118770616E+02 -0.57976528325E+01 -0.19628130634E+01  0.62427614693E+02  0.10000000000E+01 0.  0.
    9000005    1    3    3    0    0  0.62118770616E+02  0.57976528325E+01 -0.91526999770E+01  0.63064461926E+02  0.10000000000E+01 0.  0.
<mgrwt>
<rscale>  0 0.12499883E+03</rscale>
<asrwt>0</asrwt>
<pdfrwt beam="2">  1        4 0.10508276E-01 0.12499883E+03</pdfrwt>
<pdfrwt beam="1">  1       -4 0.87981971E-02 0.12499883E+03</pdfrwt>
<totfact> 0.10442406E+04</totfact>
</mgrwt>
</event>
<event>
 5    1  0.3300771E-002  0.1249989E+03  0.7818608E-02  0.1235071E+00
         -4   -1    0    0    0  501 -0.00000000000E+00  0.00000000000E+00  0.96255164388E+03  0.96255248171E+03  0.12700000000E+01 0.  1.
          4   -1    0    0  501    0  0.00000000000E+00 -0.00000000000E+00 -0.39579290729E+01  0.41566937036E+01  0.12700000000E+01 0.  1.
         25    2    1    2    0    0  0.00000000000E+00  0.00000000000E+00  0.95859371481E+03  0.96670917541E+03  0.12499887900E+03 0.  0.
    9000005    1    3    3    0    0  0.55651840188E+02  0.17824418104E+00  0.25945974735E+03  0.26536299588E+03  0.10000000000E+01 0.  0.
    9000005    1    3    3    0    0 -0.55651840188E+02 -0.17824418104E+00  0.69913396746E+03  0.70134617953E+03  0.10000000000E+01 0.  0.
<mgrwt>
<rscale>  0 0.12499888E+03</rscale>
<asrwt>0</asrwt>
<pdfrwt beam="2">  1        4 0.62426537E-03 0.12499888E+03</pdfrwt>
<pdfrwt beam="1">  1       -4 0.14810042E+00 0.12499888E+03</pdfrwt>
<totfact> 0.31730791E+03</totfact>
</mgrwt>
</event>
<event>
 5    1  0.3300771E-002  0.1249994E+03  0.7818608E-02  0.1235070E+00
         -4   -1    0    0    0  501 -0.00000000000E+00  0.00000000000E+00  0.14541792025E+02  0.14597144080E+02  0.12700000000E+01 0. -1.
          4   -1    0    0  501    0  0.00000000000E+00 -0.00000000000E+00 -0.26805279213E+03  0.26805580066E+03  0.12700000000E+01 0. -1.
         25    2    1    2    0    0  0.00000000000E+00  0.00000000000E+00 -0.25351100010E+03  0.28265294474E+03  0.12499943999E+03 0.  0.
    9000005    1    3    3    0    0  0.20081424436E+02  0.47184378553E+02 -0.45994760513E+02  0.68892286807E+02  0.10000000000E+01 0.  0.
    9000005    1    3    3    0    0 -0.20081424436E+02 -0.47184378553E+02 -0.20751623959E+03  0.21376065793E+03  0.10000000000E+01 0.  0.
<mgrwt>
<rscale>  0 0.12499944E+03</rscale>
<asrwt>0</asrwt>
<pdfrwt beam="2">  1        4 0.41243377E-01 0.12499944E+03</pdfrwt>
<pdfrwt beam="1">  1       -4 0.22416883E-02 0.12499944E+03</pdfrwt>
<totfact> 0.77828625E+03</totfact>
</mgrwt>
</event>
<event>
 5    1  0.3300771E-002  0.1249991E+03  0.7818608E-02  0.1235071E+00
          4   -1    0    0  501    0  0.00000000000E+00  0.00000000000E+00  0.13580143216E+03  0.13580737048E+03  0.12700000000E+01 0.  1.
         -4   -1    0    0    0  501 -0.00000000000E+00 -0.00000000000E+00 -0.28743404682E+02  0.28771447873E+02  0.12700000000E+01 0.  1.
         25    2    1    2    0    0  0.00000000000E+00  0.00000000000E+00  0.10705802748E+03  0.16457881835E+03  0.12499906481E+03 0.  0.
    9000005    1    3    3    0    0  0.45573109902E+02  0.41500654470E+02  0.67083305983E+02  0.91106435608E+02  0.10000000000E+01 0.  0.
    9000005    1    3    3    0    0 -0.45573109902E+02 -0.41500654470E+02  0.39974721493E+02  0.73472382743E+02  0.10000000000E+01 0.  0.
<mgrwt>
<rscale>  0 0.12499906E+03</rscale>
<asrwt>0</asrwt>
<pdfrwt beam="1">  1        4 0.20895141E-01 0.12499906E+03</pdfrwt>
<pdfrwt beam="2">  1       -4 0.44246764E-02 0.12499906E+03</pdfrwt>
<totfact> 0.96469244E+03</totfact>
</mgrwt>
</event>
<event>
 4    1  0.3300771E-002  0.1251515E+03  0.7818608E-02  0.1234833E+00
          4   -1    0    0  501    0  0.00000000000E+00  0.00000000000E+00  0.91470650136E+01  0.92348090594E+01  0.12700000000E+01 0.  1.
         -4   -1    0    0    0  501 -0.00000000000E+00 -0.00000000000E+00 -0.42595353569E+03  0.42595542897E+03  0.12700000000E+01 0.  1.
    9000005    1    1    2    0    0  0.10754034484E+02  0.61582225546E+02 -0.21740909447E+03  0.22622054310E+03  0.10000000000E+01 0.  0.
    9000005    1    1    2    0    0 -0.10754034484E+02 -0.61582225546E+02 -0.19939737621E+03  0.20896969493E+03  0.10000000000E+01 0.  0.
<mgrwt>
<rscale>  0 0.12515155E+03</rscale>
<asrwt>0</asrwt>
<pdfrwt beam="1">  1        4 0.14141363E-02 0.12515155E+03</pdfrwt>
<pdfrwt beam="2">  1       -4 0.65538193E-01 0.12515155E+03</pdfrwt>
<totfact> 0.61064113E+03</totfact>
</mgrwt>
</event>
<event>
 5    1  0.3300771E-002  0.1249992E+03  0.7818608E-02  0.1235070E+00
          4   -1    0    0  501    0  0.00000000000E+00  0.00000000000E+00  0.73812228734E+02  0.73823153622E+02  0.12700000000E+01 0. -1.
         -4   -1    0    0    0  501 -0.00000000000E+00 -0.00000000000E+00 -0.52898326068E+02  0.52913569156E+02  0.12700000000E+01 0. -1.
         25    2    1    2    0    0  0.00000000000E+00  0.00000000000E+00  0.20913902666E+02  0.12673672278E+03  0.12499922230E+03 0.  0.
    9000005    1    3    3    0    0 -0.29000687595E+02 -0.48273734218E+02  0.37922381899E+02  0.67900665278E+02  0.10000000000E+01 0.  0.
    9000005    1    3    3    0    0  0.29000687595E+02  0.48273734218E+02 -0.17008479233E+02  0.58836057500E+02  0.10000000000E+01 0.  0.
<mgrwt>
<rscale>  0 0.12499922E+03</rscale>
<asrwt>0</asrwt>
<pdfrwt beam="1">  1        4 0.11357740E-01 0.12499922E+03</pdfrwt>
<pdfrwt beam="2">  1       -4 0.81402169E-02 0.12499922E+03</pdfrwt>
<totfact> 0.10415054E+04</totfact>
</mgrwt>
</event>
<event>
 5    1  0.3300771E-002  0.1249997E+03  0.7818608E-02  0.1235070E+00
          4   -1    0    0  501    0  0.00000000000E+00  0.00000000000E+00  0.93190170806E+02  0.93198824214E+02  0.12700000000E+01 0. -1.
         -4   -1    0    0    0  501 -0.00000000000E+00 -0.00000000000E+00 -0.41896522785E+02  0.41915766979E+02  0.12700000000E+01 0. -1.
         25    2    1    2    0    0  0.00000000000E+00  0.00000000000E+00  0.51293648022E+02  0.13511459119E+03  0.12499965770E+03 0.  0.
    9000005    1    3    3    0    0  0.62322510249E+02 -0.35084168838E+01  0.22435867743E+02  0.66338317993E+02  0.10000000000E+01 0.  0.
    9000005    1    3    3    0    0 -0.62322510249E+02  0.35084168838E+01  0.28857780279E+02  0.68776273201E+02  0.10000000000E+01 0.  0.
<mgrwt>
<rscale>  0 0.12499966E+03</rscale>
<asrwt>0</asrwt>
<pdfrwt beam="1">  1        4 0.14339095E-01 0.12499966E+03</pdfrwt>
<pdfrwt beam="2">  1       -4 0.64477649E-02 0.12499966E+03</pdfrwt>
<totfact> 0.10235735E+04</totfact>
</mgrwt>
</event>
<event>
 5    1  0.3300771E-002  0.1250002E+03  0.7818608E-02  0.1235069E+00
          4   -1    0    0  501    0  0.00000000000E+00  0.00000000000E+00  0.23787882177E+02  0.23821759769E+02  0.12700000000E+01 0. -1.
         -4   -1    0    0    0  501 -0.00000000000E+00 -0.00000000000E+00 -0.16405916441E+03  0.16406407994E+03  0.12700000000E+01 0. -1.
         25    2    1    2    0    0  0.00000000000E+00  0.00000000000E+00 -0.14027128223E+03  0.18788583971E+03  0.12500022458E+03 0.  0.
    9000005    1    3    3    0    0 -0.18521204541E+02  0.46188852300E+02 -0.12695179828E+03  0.13636056681E+03  0.10000000000E+01 0.  0.
    9000005    1    3    3    0    0  0.18521204541E+02 -0.46188852300E+02 -0.13319483951E+02  0.51525272897E+02  0.10000000000E+01 0.  0.
<mgrwt>
<rscale>  0 0.12500022E+03</rscale>
<asrwt>0</asrwt>
<pdfrwt beam="1">  1        4 0.36626584E-02 0.12500022E+03</pdfrwt>
<pdfrwt beam="2">  1       -4 0.25242855E-01 0.12500022E+03</pdfrwt>
<totfact> 0.92216014E+03</totfact>
</mgrwt>
</event>
<event>
 5    1  0.3300771E-002  0.1250019E+03  0.7818608E-02  0.1235066E+00
         -4   -1    0    0    0  501 -0.00000000000E+00  0.00000000000E+00  0.29639933553E+02  0.29667129302E+02  0.12700000000E+01 0. -1.
          4   -1    0    0  501    0  0.00000000000E+00 -0.00000000000E+00 -0.13170345447E+03  0.13170957756E+03  0.12700000000E+01 0. -1.
         25    2    1    2    0    0  0.00000000000E+00  0.00000000000E+00 -0.10206352092E+03  0.16137670686E+03  0.12500191684E+03 0.  0.
    9000005    1    3    3    0    0  0.16561413064E+02  0.31749663329E+02 -0.11715091903E+03  0.12250575233E+03  0.10000000000E+01 0.  0.
    9000005    1    3    3    0    0 -0.16561413064E+02 -0.31749663329E+02  0.15087398111E+02  0.38870954528E+02  0.10000000000E+01 0.  0.
<mgrwt>
<rscale>  0 0.12500192E+03</rscale>
<asrwt>0</asrwt>
<pdfrwt beam="2">  1        4 0.20264633E-01 0.12500192E+03</pdfrwt>
<pdfrwt beam="1">  1       -4 0.45625528E-02 0.12500192E+03</pdfrwt>
<totfact> 0.97073840E+03</totfact>
</mgrwt>
</event>
<event>
 5    1  0.3300771E-002  0.1249994E+03  0.7818608E-02  0.1235070E+00
         -4   -1    0    0    0  501 -0.00000000000E+00  0.00000000000E+00  0.14214563423E+01  0.19061579507E+01  0.12700000000E+01 0.  1.
          4   -1    0    0  501    0  0.00000000000E+00 -0.00000000000E+00 -0.23472711297E+04  0.23472714733E+04  0.12700000000E+01 0.  1.
         25    2    1    2    0    0  0.00000000000E+00  0.00000000000E+00 -0.23458496734E+04  0.23491776312E+04  0.12499941212E+03 0.  0.
    9000005    1    3    3    0    0  0.28495905878E+02 -0.55397954334E+02 -0.10803522335E+04  0.10821473552E+04  0.10000000000E+01 0.  0.
    9000005    1    3    3    0    0 -0.28495905878E+02  0.55397954334E+02 -0.12654974399E+04  0.12670302760E+04  0.10000000000E+01 0.  0.
<mgrwt>
<rscale>  0 0.12499941E+03</rscale>
<asrwt>0</asrwt>
<pdfrwt beam="2">  1        4 0.36115330E+00 0.12499941E+03</pdfrwt>
<pdfrwt beam="1">  1       -4 0.25599864E-03 0.12499941E+03</pdfrwt>
<totfact> 0.59651121E+02</totfact>
</mgrwt>
</event>
<event>
 5    1  0.3300771E-002  0.1250448E+03  0.7818608E-02  0.1234999E+00
          4   -1    0    0  501    0  0.00000000000E+00  0.00000000000E+00  0.63680588936E+01  0.64934639502E+01  0.12700000000E+01 0.  1.
         -4   -1    0    0    0  501 -0.00000000000E+00 -0.00000000000E+00 -0.60774116547E+03  0.60774249244E+03  0.12700000000E+01 0.  1.
         25    2    1    2    0    0  0.00000000000E+00  0.00000000000E+00 -0.60137310658E+03  0.61423595639E+03  0.12504477918E+03 0.  0.
    9000005    1    3    3    0    0 -0.45249310182E+02  0.42595998201E+01 -0.89842082655E+02  0.10068884784E+03  0.10000000000E+01 0.  0.
    9000005    1    3    3    0    0  0.45249310182E+02 -0.42595998201E+01 -0.51153102393E+03  0.51354710855E+03  0.10000000000E+01 0.  0.
<mgrwt>
<rscale>  0 0.12504478E+03</rscale>
<asrwt>0</asrwt>
<pdfrwt beam="1">  1        4 0.98945047E-03 0.12504478E+03</pdfrwt>
<pdfrwt beam="2">  1       -4 0.93508344E-01 0.12504478E+03</pdfrwt>
<totfact> 0.47934104E+03</totfact>
</mgrwt>
</event>
<event>
 5    1  0.3300771E-002  0.1249923E+03  0.7818608E-02  0.1235081E+00
          4   -1    0    0  501    0  0.00000000000E+00  0.00000000000E+00  0.44818966894E+01  0.46583578581E+01  0.12700000000E+01 0. -1.
         -4   -1    0    0    0  501 -0.00000000000E+00 -0.00000000000E+00 -0.85445343751E+03  0.85445438132E+03  0.12700000000E+01 0. -1.
         25    2    1    2    0    0  0.00000000000E+00  0.00000000000E+00 -0.84997154082E+03  0.85911273918E+03  0.12499231348E+03 0.  0.
    9000005    1    3    3    0    0  0.13967086375E+02  0.22129086972E+02 -0.34959053118E+02  0.43679644995E+02  0.10000000000E+01 0.  0.
    9000005    1    3    3    0    0 -0.13967086375E+02 -0.22129086972E+02 -0.81501248770E+03  0.81543309419E+03  0.10000000000E+01 0.  0.
<mgrwt>
<rscale>  0 0.12499231E+03</rscale>
<asrwt>0</asrwt>
<pdfrwt beam="1">  1        4 0.70316978E-03 0.12499231E+03</pdfrwt>
<pdfrwt beam="2">  1       -4 0.13146789E+00 0.12499231E+03</pdfrwt>
<totfact> 0.35763331E+03</totfact>
</mgrwt>
</event>
<event>
 5    1  0.3300771E-002  0.1249965E+03  0.7818608E-02  0.1235075E+00
          4   -1    0    0  501    0  0.00000000000E+00  0.00000000000E+00  0.67108921036E+03  0.67109041206E+03  0.12700000000E+01 0.  1.
         -4   -1    0    0    0  501 -0.00000000000E+00 -0.00000000000E+00 -0.57499325948E+01  0.58885163535E+01  0.12700000000E+01 0.  1.
         25    2    1    2    0    0  0.00000000000E+00  0.00000000000E+00  0.66533927777E+03  0.67697892842E+03  0.12499645988E+03 0.  0.
    9000005    1    3    3    0    0  0.17461157951E+02  0.62352663688E+01  0.65587545451E+03  0.65613823423E+03  0.10000000000E+01 0.  0.
    9000005    1    3    3    0    0 -0.17461157951E+02 -0.62352663688E+01  0.94638232527E+01  0.20840694188E+02  0.10000000000E+01 0.  0.
<mgrwt>
<rscale>  0 0.12499646E+03</rscale>
<asrwt>0</asrwt>
<pdfrwt beam="1">  1        4 0.10325517E+00 0.12499646E+03</pdfrwt>
<pdfrwt beam="2">  1       -4 0.89535840E-03 0.12499646E+03</pdfrwt>
<totfact> 0.44333590E+03</totfact>
</mgrwt>
</event>
<event>
 5    1  0.3300771E-002  0.1249978E+03  0.7818608E-02  0.1235073E+00
          4   -1    0    0  501    0  0.00000000000E+00  0.00000000000E+00  0.18473301571E+02  0.18516905004E+02  0.12700000000E+01 0. -1.
         -4   -1    0    0    0  501 -0.00000000000E+00 -0.00000000000E+00 -0.21115158276E+03  0.21115540202E+03  0.12700000000E+01 0. -1.
         25    2    1    2    0    0  0.00000000000E+00  0.00000000000E+00 -0.19267828119E+03  0.22967230702E+03  0.12499779427E+03 0.  0.
    9000005    1    3    3    0    0  0.39018302561E+02 -0.48725792177E+02 -0.10169019875E+03  0.11932530025E+03  0.10000000000E+01 0.  0.
    9000005    1    3    3    0    0 -0.39018302561E+02  0.48725792177E+02 -0.90988082441E+02  0.11034700677E+03  0.10000000000E+01 0.  0.
<mgrwt>
<rscale>  0 0.12499779E+03</rscale>
<asrwt>0</asrwt>
<pdfrwt beam="1">  1        4 0.28456944E-02 0.12499779E+03</pdfrwt>
<pdfrwt beam="2">  1       -4 0.32488505E-01 0.12499779E+03</pdfrwt>
<totfact> 0.85364142E+03</totfact>
</mgrwt>
</event>
<event>
 5    1  0.3300771E-002  0.1250011E+03  0.7818608E-02  0.1235068E+00
          4   -1    0    0  501    0  0.00000000000E+00  0.00000000000E+00  0.12653606667E+02  0.12717179785E+02  0.12700000000E+01 0.  1.
         -4   -1    0    0    0  501 -0.00000000000E+00 -0.00000000000E+00 -0.30787322390E+03  0.30787584331E+03  0.12700000000E+01 0.  1.
         25    2    1    2    0    0  0.00000000000E+00  0.00000000000E+00 -0.29521961723E+03  0.32059302309E+03  0.12500105623E+03 0.  0.
    9000005    1    3    3    0    0  0.23307235250E+01  0.57241090189E+02 -0.83576882536E+02  0.10133148559E+03  0.10000000000E+01 0.  0.
    9000005    1    3    3    0    0 -0.23307235250E+01 -0.57241090189E+02 -0.21164273469E+03  0.21926153750E+03  0.10000000000E+01 0.  0.
<mgrwt>
<rscale>  0 0.12500106E+03</rscale>
<asrwt>0</asrwt>
<pdfrwt beam="1">  1        4 0.19518007E-02 0.12500106E+03</pdfrwt>
<pdfrwt beam="2">  1       -4 0.47370197E-01 0.12500106E+03</pdfrwt>
<totfact> 0.73083940E+03</totfact>
</mgrwt>
</event>
<event>
 5    1  0.3300771E-002  0.1250046E+03  0.7818608E-02  0.1235062E+00
          4   -1    0    0  501    0  0.00000000000E+00  0.00000000000E+00  0.19036728017E+03  0.19037151640E+03  0.12700000000E+01 0.  1.
         -4   -1    0    0    0  501 -0.00000000000E+00 -0.00000000000E+00 -0.20496948121E+02  0.20536255312E+02  0.12700000000E+01 0.  1.
         25    2    1    2    0    0  0.00000000000E+00  0.00000000000E+00  0.16987033205E+03  0.21090777172E+03  0.12500463376E+03 0.  0.
    9000005    1    3    3    0    0  0.53060512896E+02  0.12600073589E+02  0.13642543965E+03  0.14692542485E+03  0.10000000000E+01 0.  0.
    9000005    1    3    3    0    0 -0.53060512896E+02 -0.12600073589E+02  0.33444892395E+02  0.63982346867E+02  0.10000000000E+01 0.  0.
<mgrwt>
<rscale>  0 0.12500463E+03</rscale>
<asrwt>0</asrwt>
<pdfrwt beam="1">  1        4 0.29290623E-01 0.12500463E+03</pdfrwt>
<pdfrwt beam="2">  1       -4 0.31567262E-02 0.12500463E+03</pdfrwt>
<totfact> 0.88318695E+03</totfact>
</mgrwt>
</event>
<event>
 5    1  0.3300771E-002  0.1249816E+03  0.7818608E-02  0.1235098E+00
          4   -1    0    0  501    0  0.00000000000E+00  0.00000000000E+00  0.66437949677E+02  0.66450086963E+02  0.12700000000E+01 0.  1.
         -4   -1    0    0    0  501 -0.00000000000E+00 -0.00000000000E+00 -0.58753818431E+02  0.58767542744E+02  0.12700000000E+01 0.  1.
         25    2    1    2    0    0  0.00000000000E+00  0.00000000000E+00  0.76841312464E+01  0.12521762971E+03  0.12498163432E+03 0.  0.
    9000005    1    3    3    0    0 -0.12268385088E+02  0.55272543790E+02  0.30321781515E+02  0.64233774636E+02  0.10000000000E+01 0.  0.
    9000005    1    3    3    0    0  0.12268385088E+02 -0.55272543790E+02 -0.22637650269E+02  0.60983855071E+02  0.10000000000E+01 0.  0.
<mgrwt>
<rscale>  0 0.12498163E+03</rscale>
<asrwt>0</asrwt>
<pdfrwt beam="1">  1        4 0.10223212E-01 0.12498163E+03</pdfrwt>
<pdfrwt beam="2">  1       -4 0.90410384E-02 0.12498163E+03</pdfrwt>
<totfact> 0.10452475E+04</totfact>
</mgrwt>
</event>
<event>
 5    1  0.3300771E-002  0.1249951E+03  0.7818608E-02  0.1235077E+00
          4   -1    0    0  501    0  0.00000000000E+00  0.00000000000E+00  0.10222475574E+03  0.10223264442E+03  0.12700000000E+01 0.  1.
         -4   -1    0    0    0  501 -0.00000000000E+00 -0.00000000000E+00 -0.38189442742E+02  0.38210554000E+02  0.12700000000E+01 0.  1.
         25    2    1    2    0    0  0.00000000000E+00  0.00000000000E+00  0.64035312995E+02  0.14044319842E+03  0.12499508259E+03 0.  0.
    9000005    1    3    3    0    0  0.10773857923E+02 -0.58002100151E+01 -0.36835795724E+02  0.38827751639E+02  0.10000000000E+01 0.  0.
    9000005    1    3    3    0    0 -0.10773857923E+02  0.58002100151E+01  0.10087110872E+03  0.10161544678E+03  0.10000000000E+01 0.  0.
<mgrwt>
<rscale>  0 0.12499508E+03</rscale>
<asrwt>0</asrwt>
<pdfrwt beam="1">  1        4 0.15729116E-01 0.12499508E+03</pdfrwt>
<pdfrwt beam="2">  1       -4 0.58775297E-02 0.12499508E+03</pdfrwt>
<totfact> 0.10125530E+04</totfact>
</mgrwt>
</event>
<event>
 5    1  0.3300771E-002  0.1250009E+03  0.7818608E-02  0.1235068E+00
          4   -1    0    0  501    0  0.00000000000E+00  0.00000000000E+00  0.85730252679E+03  0.85730346748E+03  0.12700000000E+01 0. -1.
         -4   -1    0    0    0  501 -0.00000000000E+00 -0.00000000000E+00 -0.44670510584E+01  0.46440763515E+01  0.12700000000E+01 0. -1.
         25    2    1    2    0    0  0.00000000000E+00  0.00000000000E+00  0.85283547574E+03  0.86194754383E+03  0.12500087855E+03 0.  0.
    9000005    1    3    3    0    0 -0.24097738946E+02  0.31359762964E+02  0.76006238977E+03  0.76109130339E+03  0.10000000000E+01 0.  0.
    9000005    1    3    3    0    0  0.24097738946E+02 -0.31359762964E+02  0.92773085970E+02  0.10085624044E+03  0.10000000000E+01 0.  0.
<mgrwt>
<rscale>  0 0.12500088E+03</rscale>
<asrwt>0</asrwt>
<pdfrwt beam="1">  1        4 0.13190656E+00 0.12500088E+03</pdfrwt>
<pdfrwt beam="2">  1       -4 0.70092741E-03 0.12500088E+03</pdfrwt>
<totfact> 0.35642618E+03</totfact>
</mgrwt>
</event>
<event>
 4    1  0.3300771E-002  0.1250898E+03  0.7818608E-02  0.1234929E+00
          4   -1    0    0  501    0  0.00000000000E+00  0.00000000000E+00  0.92192190779E+01  0.93062828458E+01  0.12700000000E+01 0. -1.
         -4   -1    0    0    0  501 -0.00000000000E+00 -0.00000000000E+00 -0.42223392919E+03  0.42223583915E+03  0.12700000000E+01 0. -1.
    9000005    1    1    2    0    0  0.49664516504E+02  0.12503254997E+01 -0.33754459672E+03  0.34118247652E+03  0.10000000000E+01 0.  0.
    9000005    1    1    2    0    0 -0.49664516504E+02 -0.12503254997E+01 -0.75470113398E+02  0.90359645472E+02  0.10000000000E+01 0.  0.
<mgrwt>
<rscale>  0 0.12508978E+03</rscale>
<asrwt>0</asrwt>
<pdfrwt beam="1">  1        4 0.14251859E-02 0.12508978E+03</pdfrwt>
<pdfrwt beam="2">  1       -4 0.64965895E-01 0.12508978E+03</pdfrwt>
<totfact> 0.61474703E+03</totfact>
</mgrwt>
</event>
<event>
 5    1  0.3300771E-002  0.1250045E+03  0.7818608E-02  0.1235062E+00
         -4   -1    0    0    0  501 -0.00000000000E+00  0.00000000000E+00  0.11874155691E+02  0.11941878971E+02  0.12700000000E+01 0.  1.
          4   -1    0    0  501    0  0.00000000000E+00 -0.00000000000E+00 -0.32798980679E+03  0.32799226554E+03  0.12700000000E+01 0.  1.
         25    2    1    2    0    0  0.00000000000E+00  0.00000000000E+00 -0.31611565110E+03  0.33993414451E+03  0.12500447088E+03 0.  0.
    9000005    1    3    3    0    0 -0.90115326124E+01 -0.40592386529E+02 -0.28492712662E+03  0.28794689970E+03  0.10000000000E+01 0.  0.
    9000005    1    3    3    0    0  0.90115326124E+01  0.40592386529E+02 -0.31188524476E+02  0.51987244812E+02  0.10000000000E+01 0.  0.
<mgrwt>
<rscale>  0 0.12500447E+03</rscale>
<asrwt>0</asrwt>
<pdfrwt beam="2">  1        4 0.50465362E-01 0.12500447E+03</pdfrwt>
<pdfrwt beam="1">  1       -4 0.18321921E-02 0.12500447E+03</pdfrwt>
<totfact> 0.70839295E+03</totfact>
</mgrwt>
</event>
<event>
 5    1  0.3300771E-002  0.1249977E+03  0.7818608E-02  0.1235073E+00
          4   -1    0    0  501    0  0.00000000000E+00  0.00000000000E+00  0.32684160565E+02  0.32708825290E+02  0.12700000000E+01 0. -1.
         -4   -1    0    0    0  501 -0.00000000000E+00 -0.00000000000E+00 -0.11943747944E+03  0.11944423132E+03  0.12700000000E+01 0. -1.
         25    2    1    2    0    0  0.00000000000E+00  0.00000000000E+00 -0.86753318877E+02  0.15215305661E+03  0.12499765717E+03 0.  0.
    9000005    1    3    3    0    0 -0.18275684223E+02  0.52493083141E+02 -0.78139228854E+02  0.95897150622E+02  0.10000000000E+01 0.  0.
    9000005    1    3    3    0    0  0.18275684223E+02 -0.52493083141E+02 -0.86140900227E+01  0.56255905987E+02  0.10000000000E+01 0.  0.
<mgrwt>
<rscale>  0 0.12499766E+03</rscale>
<asrwt>0</asrwt>
<pdfrwt beam="1">  1        4 0.50307491E-02 0.12499766E+03</pdfrwt>
<pdfrwt beam="2">  1       -4 0.18377413E-01 0.12499766E+03</pdfrwt>
<totfact> 0.98881450E+03</totfact>
</mgrwt>
</event>
<event>
 5    1  0.3300771E-002  0.1249840E+03  0.7818608E-02  0.1235094E+00
          4   -1    0    0  501    0  0.00000000000E+00  0.00000000000E+00  0.10169126592E+04  0.10169134523E+04  0.12700000000E+01 0.  1.
         -4   -1    0    0    0  501 -0.00000000000E+00 -0.00000000000E+00 -0.37344849386E+01  0.39445250356E+01  0.12700000000E+01 0.  1.
         25    2    1    2    0    0  0.00000000000E+00  0.00000000000E+00  0.10131781743E+04  0.10208579773E+04  0.12498398682E+03 0.  0.
    9000005    1    3    3    0    0  0.19111298861E+02 -0.90931742843E+01  0.26393648403E+02  0.33846007722E+02  0.10000000000E+01 0.  0.
    9000005    1    3    3    0    0 -0.19111298861E+02  0.90931742843E+01  0.98678452588E+03  0.98701196957E+03  0.10000000000E+01 0.  0.
<mgrwt>
<rscale>  0 0.12498399E+03</rscale>
<asrwt>0</asrwt>
<pdfrwt beam="1">  1        4 0.15646445E+00 0.12498399E+03</pdfrwt>
<pdfrwt beam="2">  1       -4 0.59075358E-03 0.12498399E+03</pdfrwt>
<totfact> 0.29932836E+03</totfact>
</mgrwt>
</event>
<event>
 5    1  0.3300771E-002  0.1249982E+03  0.7818608E-02  0.1235072E+00
         -4   -1    0    0    0  501 -0.00000000000E+00  0.00000000000E+00  0.32779313435E+02  0.32803906616E+02  0.12700000000E+01 0.  1.
          4   -1    0    0  501    0  0.00000000000E+00 -0.00000000000E+00 -0.11909202062E+03  0.11909879208E+03  0.12700000000E+01 0.  1.
         25    2    1    2    0    0  0.00000000000E+00  0.00000000000E+00 -0.86312707186E+02  0.15190269870E+03  0.12499818579E+03 0.  0.
    9000005    1    3    3    0    0  0.20632861369E+02  0.56508633860E+02 -0.22597754535E+02  0.64269737661E+02  0.10000000000E+01 0.  0.
    9000005    1    3    3    0    0 -0.20632861369E+02 -0.56508633860E+02 -0.63714952651E+02  0.87632961038E+02  0.10000000000E+01 0.  0.
<mgrwt>
<rscale>  0 0.12499819E+03</rscale>
<asrwt>0</asrwt>
<pdfrwt beam="2">  1        4 0.18324262E-01 0.12499819E+03</pdfrwt>
<pdfrwt beam="1">  1       -4 0.50453840E-02 0.12499819E+03</pdfrwt>
<totfact> 0.98929806E+03</totfact>
</mgrwt>
</event>
<event>
 5    1  0.3300771E-002  0.1249615E+03  0.7818608E-02  0.1235129E+00
          4   -1    0    0  501    0  0.00000000000E+00  0.00000000000E+00  0.77148382726E+01  0.78186718547E+01  0.12700000000E+01 0. -1.
         -4   -1    0    0    0  501 -0.00000000000E+00 -0.00000000000E+00 -0.50253057405E+03  0.50253217882E+03  0.12700000000E+01 0. -1.
         25    2    1    2    0    0  0.00000000000E+00  0.00000000000E+00 -0.49481573577E+03  0.51035085068E+03  0.12496150774E+03 0.  0.
    9000005    1    3    3    0    0 -0.98181365442E+01  0.53726696988E+02 -0.12353940991E+03  0.13507753172E+03  0.10000000000E+01 0.  0.
    9000005    1    3    3    0    0  0.98181365442E+01 -0.53726696988E+02 -0.37127632586E+03  0.37527331895E+03  0.10000000000E+01 0.  0.
<mgrwt>
<rscale>  0 0.12496151E+03</rscale>
<asrwt>0</asrwt>
<pdfrwt beam="1">  1        4 0.11950092E-02 0.12496151E+03</pdfrwt>
<pdfrwt beam="2">  1       -4 0.77320481E-01 0.12496151E+03</pdfrwt>
<totfact> 0.55116749E+03</totfact>
</mgrwt>
</event>
<event>
 5    1  0.3300771E-002  0.1250015E+03  0.7818608E-02  0.1235067E+00
          4   -1    0    0  501    0  0.00000000000E+00  0.00000000000E+00  0.14156955328E+02  0.14213806111E+02  0.12700000000E+01 0.  1.
         -4   -1    0    0    0  501 -0.00000000000E+00 -0.00000000000E+00 -0.27531984352E+03  0.27532277264E+03  0.12700000000E+01 0.  1.
         25    2    1    2    0    0  0.00000000000E+00  0.00000000000E+00 -0.26116288819E+03  0.28953657875E+03  0.12500150506E+03 0.  0.
    9000005    1    3    3    0    0  0.51995207241E+02 -0.33887479325E+01 -0.21049623252E+03  0.21685167533E+03  0.10000000000E+01 0.  0.
    9000005    1    3    3    0    0 -0.51995207241E+02  0.33887479325E+01 -0.50666655668E+02  0.72684903420E+02  0.10000000000E+01 0.  0.
<mgrwt>
<rscale>  0 0.12500151E+03</rscale>
<asrwt>0</asrwt>
<pdfrwt beam="1">  1        4 0.21825918E-02 0.12500151E+03</pdfrwt>
<pdfrwt beam="2">  1       -4 0.42361494E-01 0.12500151E+03</pdfrwt>
<totfact> 0.76927810E+03</totfact>
</mgrwt>
</event>
<event>
 5    1  0.3300771E-002  0.1249977E+03  0.7818608E-02  0.1235073E+00
          4   -1    0    0  501    0  0.00000000000E+00  0.00000000000E+00  0.22544439227E+02  0.22580182463E+02  0.12700000000E+01 0. -1.
         -4   -1    0    0    0  501 -0.00000000000E+00 -0.00000000000E+00 -0.17308714749E+03  0.17309180664E+03  0.12700000000E+01 0. -1.
         25    2    1    2    0    0  0.00000000000E+00  0.00000000000E+00 -0.15054270827E+03  0.19567198911E+03  0.12499768121E+03 0.  0.
    9000005    1    3    3    0    0 -0.16084237039E+02 -0.46792751309E+02 -0.15522063407E+02  0.51867125510E+02  0.10000000000E+01 0.  0.
    9000005    1    3    3    0    0  0.16084237039E+02  0.46792751309E+02 -0.13502064486E+03  0.14380486360E+03  0.10000000000E+01 0.  0.
<mgrwt>
<rscale>  0 0.12499768E+03</rscale>
<asrwt>0</asrwt>
<pdfrwt beam="1">  1        4 0.34714832E-02 0.12499768E+03</pdfrwt>
<pdfrwt beam="2">  1       -4 0.26631899E-01 0.12499768E+03</pdfrwt>
<totfact> 0.90874384E+03</totfact>
</mgrwt>
</event>
<event>
 4    1  0.3300771E-002  0.1251572E+03  0.7818608E-02  0.1234824E+00
         -4   -1    0    0    0  501 -0.00000000000E+00  0.00000000000E+00  0.13644370531E+02  0.13703348029E+02  0.12700000000E+01 0.  1.
          4   -1    0    0  501    0  0.00000000000E+00 -0.00000000000E+00 -0.28633142987E+03  0.28633424635E+03  0.12700000000E+01 0.  1.
    9000005    1    1    2    0    0  0.29046306170E+01  0.17551660193E+02 -0.28015238549E+03  0.28071846528E+03  0.10000000000E+01 0.  0.
    9000005    1    1    2    0    0 -0.29046306170E+01 -0.17551660193E+02  0.74653261490E+01  0.19319129097E+02  0.10000000000E+01 0.  0.
<mgrwt>
<rscale>  0 0.12515720E+03</rscale>
<asrwt>0</asrwt>
<pdfrwt beam="2">  1        4 0.44055738E-01 0.12515720E+03</pdfrwt>
<pdfrwt beam="1">  1       -4 0.21038875E-02 0.12515720E+03</pdfrwt>
<totfact> 0.75330923E+03</totfact>
</mgrwt>
</event>
<event>
 5    1  0.3300771E-002  0.1250021E+03  0.7818608E-02  0.1235066E+00
         -4   -1    0    0    0  501 -0.00000000000E+00  0.00000000000E+00  0.16133292061E+02  0.16183201560E+02  0.12700000000E+01 0.  1.
          4   -1    0    0  501    0  0.00000000000E+00 -0.00000000000E+00 -0.24170598198E+03  0.24170931845E+03  0.12700000000E+01 0.  1.
         25    2    1    2    0    0  0.00000000000E+00  0.00000000000E+00 -0.22557268992E+03  0.25789252001E+03  0.12500205374E+03 0.  0.
    9000005    1    3    3    0    0 -0.37730862567E+02 -0.48218543010E+02 -0.13861495884E+03  0.15153795793E+03  0.10000000000E+01 0.  0.
    9000005    1    3    3    0    0  0.37730862567E+02  0.48218543010E+02 -0.86957731083E+02  0.10635456208E+03  0.10000000000E+01 0.  0.
<mgrwt>
<rscale>  0 0.12500205E+03</rscale>
<asrwt>0</asrwt>
<pdfrwt beam="2">  1        4 0.37189629E-01 0.12500205E+03</pdfrwt>
<pdfrwt beam="1">  1       -4 0.24861409E-02 0.12500205E+03</pdfrwt>
<totfact> 0.81199017E+03</totfact>
</mgrwt>
</event>
<event>
 5    1  0.3300771E-002  0.1249986E+03  0.7818608E-02  0.1235071E+00
          4   -1    0    0  501    0  0.00000000000E+00  0.00000000000E+00  0.13994538781E+02  0.14052046673E+02  0.12700000000E+01 0. -1.
         -4   -1    0    0    0  501 -0.00000000000E+00 -0.00000000000E+00 -0.27848915219E+03  0.27849204798E+03  0.12700000000E+01 0. -1.
         25    2    1    2    0    0  0.00000000000E+00  0.00000000000E+00 -0.26449461341E+03  0.29254409465E+03  0.12499858716E+03 0.  0.
    9000005    1    3    3    0    0  0.44741712967E+02 -0.19991687022E+02 -0.41493892776E+02  0.64220180371E+02  0.10000000000E+01 0.  0.
    9000005    1    3    3    0    0 -0.44741712967E+02  0.19991687022E+02 -0.22300072064E+03  0.22832391428E+03  0.10000000000E+01 0.  0.
<mgrwt>
<rscale>  0 0.12499859E+03</rscale>
<asrwt>0</asrwt>
<pdfrwt beam="1">  1        4 0.21576526E-02 0.12499859E+03</pdfrwt>
<pdfrwt beam="2">  1       -4 0.42849127E-01 0.12499859E+03</pdfrwt>
<totfact> 0.76546117E+03</totfact>
</mgrwt>
</event>
<event>
 5    1  0.3300771E-002  0.1250010E+03  0.7818608E-02  0.1235068E+00
         -4   -1    0    0    0  501 -0.00000000000E+00  0.00000000000E+00  0.16931928014E+02  0.16979490165E+02  0.12700000000E+01 0.  1.
          4   -1    0    0  501    0  0.00000000000E+00 -0.00000000000E+00 -0.23033412239E+03  0.23033762358E+03  0.12700000000E+01 0.  1.
         25    2    1    2    0    0  0.00000000000E+00  0.00000000000E+00 -0.21340219438E+03  0.24731711374E+03  0.12500103274E+03 0.  0.
    9000005    1    3    3    0    0  0.36867174923E+02 -0.50313510026E+02 -0.99121357083E+02  0.11711823645E+03  0.10000000000E+01 0.  0.
    9000005    1    3    3    0    0 -0.36867174923E+02  0.50313510026E+02 -0.11428083729E+03  0.13019887730E+03  0.10000000000E+01 0.  0.
<mgrwt>
<rscale>  0 0.12500103E+03</rscale>
<asrwt>0</asrwt>
<pdfrwt beam="2">  1        4 0.35439944E-01 0.12500103E+03</pdfrwt>
<pdfrwt beam="1">  1       -4 0.26088401E-02 0.12500103E+03</pdfrwt>
<totfact> 0.82717639E+03</totfact>
</mgrwt>
</event>
<event>
 5    1  0.3300771E-002  0.1250005E+03  0.7818608E-02  0.1235069E+00
          4   -1    0    0  501    0  0.00000000000E+00  0.00000000000E+00  0.91895924794E+01  0.92769342963E+01  0.12700000000E+01 0.  1.
         -4   -1    0    0    0  501 -0.00000000000E+00 -0.00000000000E+00 -0.42297757695E+03  0.42297948355E+03  0.12700000000E+01 0.  1.
         25    2    1    2    0    0  0.00000000000E+00  0.00000000000E+00 -0.41378798447E+03  0.43225641784E+03  0.12500045870E+03 0.  0.
    9000005    1    3    3    0    0 -0.26111132878E+02 -0.26674897359E+02 -0.33579756122E+02  0.50218934980E+02  0.10000000000E+01 0.  0.
    9000005    1    3    3    0    0  0.26111132878E+02  0.26674897359E+02 -0.38020822835E+03  0.38203748287E+03  0.10000000000E+01 0.  0.
<mgrwt>
<rscale>  0 0.12500046E+03</rscale>
<asrwt>0</asrwt>
<pdfrwt beam="1">  1        4 0.14206491E-02 0.12500046E+03</pdfrwt>
<pdfrwt beam="2">  1       -4 0.65080323E-01 0.12500046E+03</pdfrwt>
<totfact> 0.61531377E+03</totfact>
</mgrwt>
</event>
<event>
 5    1  0.3300771E-002  0.1249991E+03  0.7818608E-02  0.1235071E+00
          4   -1    0    0  501    0  0.00000000000E+00  0.00000000000E+00  0.13393508860E+03  0.13394110967E+03  0.12700000000E+01 0.  1.
         -4   -1    0    0    0  501 -0.00000000000E+00 -0.00000000000E+00 -0.29144303943E+02  0.29171961749E+02  0.12700000000E+01 0.  1.
         25    2    1    2    0    0  0.00000000000E+00  0.00000000000E+00  0.10479078466E+03  0.16311307141E+03  0.12499906207E+03 0.  0.
    9000005    1    3    3    0    0 -0.45088961003E+02  0.42411766139E+00  0.10885457632E+03  0.11782832031E+03  0.10000000000E+01 0.  0.
    9000005    1    3    3    0    0  0.45088961003E+02 -0.42411766139E+00 -0.40637916644E+01  0.45284751107E+02  0.10000000000E+01 0.  0.
<mgrwt>
<rscale>  0 0.12499906E+03</rscale>
<asrwt>0</asrwt>
<pdfrwt beam="1">  1        4 0.20607988E-01 0.12499906E+03</pdfrwt>
<pdfrwt beam="2">  1       -4 0.44863299E-02 0.12499906E+03</pdfrwt>
<totfact> 0.96747984E+03</totfact>
</mgrwt>
</event>
<event>
 5    1  0.3300771E-002  0.1250004E+03  0.7818608E-02  0.1235069E+00
          4   -1    0    0  501    0  0.00000000000E+00  0.00000000000E+00  0.35458890557E+02  0.35481626506E+02  0.12700000000E+01 0.  1.
         -4   -1    0    0    0  501 -0.00000000000E+00 -0.00000000000E+00 -0.11010174102E+03  0.11010906536E+03  0.12700000000E+01 0.  1.
         25    2    1    2    0    0  0.00000000000E+00  0.00000000000E+00 -0.74642850459E+02  0.14559069187E+03  0.12500037773E+03 0.  0.
    9000005    1    3    3    0    0  0.81228018902E+01  0.44995280018E+02  0.12295164940E+02  0.47357430413E+02  0.10000000000E+01 0.  0.
    9000005    1    3    3    0    0 -0.81228018902E+01 -0.44995280018E+02 -0.86938015399E+02  0.98233261454E+02  0.10000000000E+01 0.  0.
<mgrwt>
<rscale>  0 0.12500038E+03</rscale>
<asrwt>0</asrwt>
<pdfrwt beam="1">  1        4 0.54575263E-02 0.12500038E+03</pdfrwt>
<pdfrwt beam="2">  1       -4 0.16941042E-01 0.12500038E+03</pdfrwt>
<totfact> 0.10018915E+04</totfact>
</mgrwt>
</event>
<event>
 5    1  0.3300771E-002  0.1249994E+03  0.7818608E-02  0.1235070E+00
         -4   -1    0    0    0  501 -0.00000000000E+00  0.00000000000E+00  0.10911312015E+03  0.10912051085E+03  0.12700000000E+01 0.  1.
          4   -1    0    0  501    0  0.00000000000E+00 -0.00000000000E+00 -0.35779808082E+02  0.35802340236E+02  0.12700000000E+01 0.  1.
         25    2    1    2    0    0  0.00000000000E+00  0.00000000000E+00  0.73333312069E+02  0.14492285109E+03  0.12499943244E+03 0.  0.
    9000005    1    3    3    0    0 -0.44141900913E+02 -0.37993829423E+02  0.62930725147E+02  0.85751470296E+02  0.10000000000E+01 0.  0.
    9000005    1    3    3    0    0  0.44141900913E+02  0.37993829423E+02  0.10402586922E+02  0.59171380794E+02  0.10000000000E+01 0.  0.
<mgrwt>
<rscale>  0 0.12499943E+03</rscale>
<asrwt>0</asrwt>
<pdfrwt beam="2">  1        4 0.55068877E-02 0.12499943E+03</pdfrwt>
<pdfrwt beam="1">  1       -4 0.16788935E-01 0.12499943E+03</pdfrwt>
<totfact> 0.10032684E+04</totfact>
</mgrwt>
</event>
<event>
 5    1  0.3300771E-002  0.1250003E+03  0.7818608E-02  0.1235069E+00
         -4   -1    0    0    0  501 -0.00000000000E+00  0.00000000000E+00  0.64434605400E+02  0.64447119975E+02  0.12700000000E+01 0.  1.
          4   -1    0    0  501    0  0.00000000000E+00 -0.00000000000E+00 -0.60598737623E+02  0.60612044195E+02  0.12700000000E+01 0.  1.
         25    2    1    2    0    0  0.00000000000E+00  0.00000000000E+00  0.38358677769E+01  0.12505916417E+03  0.12500032264E+03 0.  0.
    9000005    1    3    3    0    0  0.38308997914E+02  0.44387443041E+02  0.23548604945E+02  0.63193047211E+02  0.10000000000E+01 0.  0.
    9000005    1    3    3    0    0 -0.38308997914E+02 -0.44387443041E+02 -0.19712737168E+02  0.61866116959E+02  0.10000000000E+01 0.  0.
<mgrwt>
<rscale>  0 0.12500032E+03</rscale>
<asrwt>0</asrwt>
<pdfrwt beam="2">  1        4 0.93248690E-02 0.12500032E+03</pdfrwt>
<pdfrwt beam="1">  1       -4 0.99150025E-02 0.12500032E+03</pdfrwt>
<totfact> 0.10451501E+04</totfact>
</mgrwt>
</event>
<event>
 5    1  0.3300771E-002  0.1249985E+03  0.7818608E-02  0.1235072E+00
         -4   -1    0    0    0  501 -0.00000000000E+00  0.00000000000E+00  0.41885170496E+02  0.41904419904E+02  0.12700000000E+01 0. -1.
          4   -1    0    0  501    0  0.00000000000E+00 -0.00000000000E+00 -0.93213665704E+02  0.93222316931E+02  0.12700000000E+01 0. -1.
         25    2    1    2    0    0  0.00000000000E+00  0.00000000000E+00 -0.51328495208E+02  0.13512673683E+03  0.12499848234E+03 0.  0.
    9000005    1    3    3    0    0  0.54474042004E+01  0.57081694509E+02 -0.52519906767E+02  0.77764610636E+02  0.10000000000E+01 0.  0.
    9000005    1    3    3    0    0 -0.54474042004E+01 -0.57081694509E+02  0.11914115598E+01  0.57362126199E+02  0.10000000000E+01 0.  0.
<mgrwt>
<rscale>  0 0.12499848E+03</rscale>
<asrwt>0</asrwt>
<pdfrwt beam="2">  1        4 0.14342710E-01 0.12499848E+03</pdfrwt>
<pdfrwt beam="1">  1       -4 0.64460186E-02 0.12499848E+03</pdfrwt>
<totfact> 0.10235751E+04</totfact>
</mgrwt>
</event>
<event>
 5    1  0.3300771E-002  0.1249987E+03  0.7818608E-02  0.1235071E+00
          4   -1    0    0  501    0  0.00000000000E+00  0.00000000000E+00  0.54465581866E+01  0.55926644884E+01  0.12700000000E+01 0.  1.
         -4   -1    0    0    0  501 -0.00000000000E+00 -0.00000000000E+00 -0.70754259926E+03  0.70754373905E+03  0.12700000000E+01 0.  1.
         25    2    1    2    0    0  0.00000000000E+00  0.00000000000E+00 -0.70209604107E+03  0.71313640354E+03  0.12499871663E+03 0.  0.
    9000005    1    3    3    0    0  0.60277759690E+02 -0.13986164853E+02 -0.40083298618E+03  0.40558242557E+03  0.10000000000E+01 0.  0.
    9000005    1    3    3    0    0 -0.60277759690E+02  0.13986164853E+02 -0.30126305489E+03  0.30755397797E+03  0.10000000000E+01 0.  0.
<mgrwt>
<rscale>  0 0.12499872E+03</rscale>
<asrwt>0</asrwt>
<pdfrwt beam="1">  1        4 0.84925921E-03 0.12499872E+03</pdfrwt>
<pdfrwt beam="2">  1       -4 0.10886396E+00 0.12499872E+03</pdfrwt>
<totfact> 0.42403471E+03</totfact>
</mgrwt>
</event>
<event>
 5    1  0.3300771E-002  0.1250003E+03  0.7818608E-02  0.1235069E+00
          4   -1    0    0  501    0  0.00000000000E+00  0.00000000000E+00  0.39500910942E+02  0.39521321653E+02  0.12700000000E+01 0. -1.
         -4   -1    0    0    0  501 -0.00000000000E+00 -0.00000000000E+00 -0.98840600267E+02  0.98848759026E+02  0.12700000000E+01 0. -1.
         25    2    1    2    0    0  0.00000000000E+00  0.00000000000E+00 -0.59339689325E+02  0.13837008068E+03  0.12500032199E+03 0.  0.
    9000005    1    3    3    0    0 -0.61164745105E+02  0.12667388680E+02 -0.31793745867E+02  0.70095870463E+02  0.10000000000E+01 0.  0.
    9000005    1    3    3    0    0  0.61164745105E+02 -0.12667388680E+02 -0.27545943458E+02  0.68274210217E+02  0.10000000000E+01 0.  0.
<mgrwt>
<rscale>  0 0.12500032E+03</rscale>
<asrwt>0</asrwt>
<pdfrwt beam="1">  1        4 0.60792609E-02 0.12500032E+03</pdfrwt>
<pdfrwt beam="2">  1       -4 0.15208444E-01 0.12500032E+03</pdfrwt>
<totfact> 0.10167405E+04</totfact>
</mgrwt>
</event>
<event>
 5    1  0.3300771E-002  0.1250007E+03  0.7818608E-02  0.1235068E+00
          4   -1    0    0  501    0  0.00000000000E+00  0.00000000000E+00  0.18236429081E+04  0.18236433503E+04  0.12700000000E+01 0. -1.
         -4   -1    0    0    0  501 -0.00000000000E+00 -0.00000000000E+00 -0.19533015204E+01  0.23298684147E+01  0.12700000000E+01 0. -1.
         25    2    1    2    0    0  0.00000000000E+00  0.00000000000E+00  0.18216896066E+04  0.18259732187E+04  0.12500069125E+03 0.  0.
    9000005    1    3    3    0    0 -0.33035590312E+02  0.51763841017E+02  0.10802234820E+04  0.10819679369E+04  0.10000000000E+01 0.  0.
    9000005    1    3    3    0    0  0.33035590312E+02 -0.51763841017E+02  0.74146612457E+03  0.74400528180E+03  0.10000000000E+01 0.  0.
<mgrwt>
<rscale>  0 0.12500069E+03</rscale>
<asrwt>0</asrwt>
<pdfrwt beam="1">  1        4 0.28058956E+00 0.12500069E+03</pdfrwt>
<pdfrwt beam="2">  1       -4 0.32950850E-03 0.12500069E+03</pdfrwt>
<totfact> 0.12307380E+03</totfact>
</mgrwt>
</event>
<event>
 5    1  0.3300771E-002  0.1250012E+03  0.7818608E-02  0.1235067E+00
          4   -1    0    0  501    0  0.00000000000E+00  0.00000000000E+00  0.77305790050E+02  0.77316221294E+02  0.12700000000E+01 0.  1.
         -4   -1    0    0    0  501 -0.00000000000E+00 -0.00000000000E+00 -0.50508987552E+02  0.50524951494E+02  0.12700000000E+01 0.  1.
         25    2    1    2    0    0  0.00000000000E+00  0.00000000000E+00  0.26796802498E+02  0.12784117279E+03  0.12500118734E+03 0.  0.
    9000005    1    3    3    0    0 -0.25301609024E+02  0.86865814688E+01  0.71158943414E+02  0.76027780085E+02  0.10000000000E+01 0.  0.
    9000005    1    3    3    0    0  0.25301609024E+02 -0.86865814688E+01 -0.44362140916E+02  0.51813392704E+02  0.10000000000E+01 0.  0.
<mgrwt>
<rscale>  0 0.12500119E+03</rscale>
<asrwt>0</asrwt>
<pdfrwt beam="1">  1        4 0.11895229E-01 0.12500119E+03</pdfrwt>
<pdfrwt beam="2">  1       -4 0.77726438E-02 0.12500119E+03</pdfrwt>
<totfact> 0.10390641E+04</totfact>
</mgrwt>
</event>
<event>
 5    1  0.3300771E-002  0.1250021E+03  0.7818608E-02  0.1235066E+00
          4   -1    0    0  501    0  0.00000000000E+00  0.00000000000E+00  0.22984145886E+02  0.23019206374E+02  0.12700000000E+01 0. -1.
         -4   -1    0    0    0  501 -0.00000000000E+00 -0.00000000000E+00 -0.16979285538E+03  0.16979760492E+03  0.12700000000E+01 0. -1.
         25    2    1    2    0    0  0.00000000000E+00  0.00000000000E+00 -0.14680870949E+03  0.19281681130E+03  0.12500210213E+03 0.  0.
    9000005    1    3    3    0    0 -0.24185061308E+00  0.62240026013E+02 -0.82061944775E+02  0.10300020442E+03  0.10000000000E+01 0.  0.
    9000005    1    3    3    0    0  0.24185061308E+00 -0.62240026013E+02 -0.64746764717E+02  0.89816606878E+02  0.10000000000E+01 0.  0.
<mgrwt>
<rscale>  0 0.12500210E+03</rscale>
<asrwt>0</asrwt>
<pdfrwt beam="1">  1        4 0.35390849E-02 0.12500210E+03</pdfrwt>
<pdfrwt beam="2">  1       -4 0.26125039E-01 0.12500210E+03</pdfrwt>
<totfact> 0.91355196E+03</totfact>
</mgrwt>
</event>
<event>
 5    1  0.3300771E-002  0.1250007E+03  0.7818608E-02  0.1235068E+00
          4   -1    0    0  501    0  0.00000000000E+00  0.00000000000E+00  0.22608585167E+03  0.22608941865E+03  0.12700000000E+01 0.  1.
         -4   -1    0    0    0  501 -0.00000000000E+00 -0.00000000000E+00 -0.17250883635E+02  0.17297568794E+02  0.12700000000E+01 0.  1.
         25    2    1    2    0    0  0.00000000000E+00  0.00000000000E+00  0.20883496803E+03  0.24338698744E+03  0.12500072713E+03 0.  0.
    9000005    1    3    3    0    0  0.33848886548E+02 -0.47650147280E+02  0.61360413273E+02  0.84748946739E+02  0.10000000000E+01 0.  0.
    9000005    1    3    3    0    0 -0.33848886548E+02  0.47650147280E+02  0.14747455476E+03  0.15863804070E+03  0.10000000000E+01 0.  0.
<mgrwt>
<rscale>  0 0.12500073E+03</rscale>
<asrwt>0</asrwt>
<pdfrwt beam="1">  1        4 0.34786303E-01 0.12500073E+03</pdfrwt>
<pdfrwt beam="2">  1       -4 0.26578478E-02 0.12500073E+03</pdfrwt>
<totfact> 0.83294158E+03</totfact>
</mgrwt>
</event>
<event>
 5    1  0.3300771E-002  0.1250045E+03  0.7818608E-02  0.1235062E+00
         -4   -1    0    0    0  501 -0.00000000000E+00  0.00000000000E+00  0.77348099386E+01  0.78383789642E+01  0.12700000000E+01 0.  1.
          4   -1    0    0  501    0  0.00000000000E+00 -0.00000000000E+00 -0.50159555286E+03  0.50159716063E+03  0.12700000000E+01 0.  1.
         25    2    1    2    0    0  0.00000000000E+00  0.00000000000E+00 -0.49386074292E+03  0.50943553959E+03  0.12500454232E+03 0.  0.
    9000005    1    3    3    0    0  0.28306921896E+02 -0.55714729172E+02 -0.24834813177E+03  0.25609218541E+03  0.10000000000E+01 0.  0.
    9000005    1    3    3    0    0 -0.28306921896E+02  0.55714729172E+02 -0.24551261115E+03  0.25334335418E+03  0.10000000000E+01 0.  0.
<mgrwt>
<rscale>  0 0.12500454E+03</rscale>
<asrwt>0</asrwt>
<pdfrwt beam="2">  1        4 0.77176612E-01 0.12500454E+03</pdfrwt>
<pdfrwt beam="1">  1       -4 0.11980617E-02 0.12500454E+03</pdfrwt>
<totfact> 0.55134151E+03</totfact>
</mgrwt>
</event>
<event>
 5    1  0.3300771E-002  0.1250145E+03  0.7818608E-02  0.1235047E+00
         -4   -1    0    0    0  501 -0.00000000000E+00  0.00000000000E+00  0.76742032054E+02  0.76752539918E+02  0.12700000000E+01 0. -1.
          4   -1    0    0  501    0  0.00000000000E+00 -0.00000000000E+00 -0.50890916490E+02  0.50906760663E+02  0.12700000000E+01 0. -1.
         25    2    1    2    0    0  0.00000000000E+00  0.00000000000E+00  0.25851115564E+02  0.12765930058E+03  0.12501446656E+03 0.  0.
    9000005    1    3    3    0    0  0.19741765081E+01 -0.49687765197E+02  0.51586575959E+02  0.71658538935E+02  0.10000000000E+01 0.  0.
    9000005    1    3    3    0    0 -0.19741765081E+01  0.49687765197E+02 -0.25735460395E+02  0.56000761645E+02  0.10000000000E+01 0.  0.
<mgrwt>
<rscale>  0 0.12501447E+03</rscale>
<asrwt>0</asrwt>
<pdfrwt beam="2">  1        4 0.78313988E-02 0.12501447E+03</pdfrwt>
<pdfrwt beam="1">  1       -4 0.11808494E-01 0.12501447E+03</pdfrwt>
<totfact> 0.10391458E+04</totfact>
</mgrwt>
</event>
<event>
 5    1  0.3300771E-002  0.1249983E+03  0.7818608E-02  0.1235072E+00
          4   -1    0    0  501    0  0.00000000000E+00  0.00000000000E+00  0.18373939747E+03  0.18374378651E+03  0.12700000000E+01 0.  1.
         -4   -1    0    0    0  501 -0.00000000000E+00 -0.00000000000E+00 -0.21235545645E+02  0.21273488168E+02  0.12700000000E+01 0.  1.
         25    2    1    2    0    0  0.00000000000E+00  0.00000000000E+00  0.16250385182E+03  0.20501727468E+03  0.12499832423E+03 0.  0.
    9000005    1    3    3    0    0 -0.27010551967E+02  0.19284753547E+02  0.16809796058E+03  0.17134583738E+03  0.10000000000E+01 0.  0.
    9000005    1    3    3    0    0  0.27010551967E+02 -0.19284753547E+02 -0.55941087571E+01  0.33671437298E+02  0.10000000000E+01 0.  0.
<mgrwt>
<rscale>  0 0.12499832E+03</rscale>
<asrwt>0</asrwt>
<pdfrwt beam="1">  1        4 0.28270855E-01 0.12499832E+03</pdfrwt>
<pdfrwt beam="2">  1       -4 0.32702634E-02 0.12499832E+03</pdfrwt>
<totfact> 0.89299493E+03</totfact>
</mgrwt>
</event>
<event>
 5    1  0.3300771E-002  0.1249940E+03  0.7818608E-02  0.1235079E+00
          4   -1    0    0  501    0  0.00000000000E+00  0.00000000000E+00  0.26717244335E+01  0.29582108526E+01  0.12700000000E+01 0. -1.
         -4   -1    0    0    0  501 -0.00000000000E+00 -0.00000000000E+00 -0.13872508160E+04  0.13872513973E+04  0.12700000000E+01 0. -1.
         25    2    1    2    0    0  0.00000000000E+00  0.00000000000E+00 -0.13845790915E+04  0.13902096081E+04  0.12499397537E+03 0.  0.
    9000005    1    3    3    0    0 -0.60991073901E+02 -0.13547403203E+02 -0.67898819525E+03  0.68185732563E+03  0.10000000000E+01 0.  0.
    9000005    1    3    3    0    0  0.60991073901E+02  0.13547403203E+02 -0.70559089627E+03  0.70835228251E+03  0.10000000000E+01 0.  0.
<mgrwt>
<rscale>  0 0.12499398E+03</rscale>
<asrwt>0</asrwt>
<pdfrwt beam="1">  1        4 0.43311777E-03 0.12499398E+03</pdfrwt>
<pdfrwt beam="2">  1       -4 0.21344474E+00 0.12499398E+03</pdfrwt>
<totfact> 0.20194733E+03</totfact>
</mgrwt>
</event>
<event>
 5    1  0.3300771E-002  0.1250003E+03  0.7818608E-02  0.1235069E+00
          4   -1    0    0  501    0  0.00000000000E+00  0.00000000000E+00  0.11521674777E+03  0.11522374697E+03  0.12700000000E+01 0. -1.
         -4   -1    0    0    0  501 -0.00000000000E+00 -0.00000000000E+00 -0.33883714566E+02  0.33907506733E+02  0.12700000000E+01 0. -1.
         25    2    1    2    0    0  0.00000000000E+00  0.00000000000E+00  0.81333033204E+02  0.14913125371E+03  0.12500027417E+03 0.  0.
    9000005    1    3    3    0    0  0.42166182592E+02 -0.70619393806E+01  0.95043952852E+02  0.10422193107E+03  0.10000000000E+01 0.  0.
    9000005    1    3    3    0    0 -0.42166182592E+02  0.70619393806E+01 -0.13710919648E+02  0.44909322637E+02  0.10000000000E+01 0.  0.
<mgrwt>
<rscale>  0 0.12500027E+03</rscale>
<asrwt>0</asrwt>
<pdfrwt beam="1">  1        4 0.17728022E-01 0.12500027E+03</pdfrwt>
<pdfrwt beam="2">  1       -4 0.52152478E-02 0.12500027E+03</pdfrwt>
<totfact> 0.99476538E+03</totfact>
</mgrwt>
</event>
<event>
 5    1  0.3300771E-002  0.1249997E+03  0.7818608E-02  0.1235070E+00
          4   -1    0    0  501    0  0.00000000000E+00  0.00000000000E+00  0.28033497306E+03  0.28033784978E+03  0.12700000000E+01 0. -1.
         -4   -1    0    0    0  501 -0.00000000000E+00 -0.00000000000E+00 -0.13902274466E+02  0.13960162440E+02  0.12700000000E+01 0. -1.
         25    2    1    2    0    0  0.00000000000E+00  0.00000000000E+00  0.26643269860E+03  0.29429801222E+03  0.12499974847E+03 0.  0.
    9000005    1    3    3    0    0  0.56647495699E+01 -0.50692570008E+02  0.48216448199E+02  0.70197235833E+02  0.10000000000E+01 0.  0.
    9000005    1    3    3    0    0 -0.56647495699E+01  0.50692570008E+02  0.21821625040E+03  0.22410077639E+03  0.10000000000E+01 0.  0.
<mgrwt>
<rscale>  0 0.12499975E+03</rscale>
<asrwt>0</asrwt>
<pdfrwt beam="1">  1        4 0.43133132E-01 0.12499975E+03</pdfrwt>
<pdfrwt beam="2">  1       -4 0.21434857E-02 0.12499975E+03</pdfrwt>
<totfact> 0.76320123E+03</totfact>
</mgrwt>
</event>
<event>
 5    1  0.3300771E-002  0.1250021E+03  0.7818608E-02  0.1235066E+00
          4   -1    0    0  501    0  0.00000000000E+00  0.00000000000E+00  0.11367517669E+02  0.11438241034E+02  0.12700000000E+01 0.  1.
         -4   -1    0    0    0  501 -0.00000000000E+00 -0.00000000000E+00 -0.34250655513E+03  0.34250890967E+03  0.12700000000E+01 0.  1.
         25    2    1    2    0    0  0.00000000000E+00  0.00000000000E+00 -0.33113903746E+03  0.35394715071E+03  0.12500209344E+03 0.  0.
    9000005    1    3    3    0    0 -0.17171762546E+02 -0.54521967151E+02 -0.94056347877E+02  0.11006866451E+03  0.10000000000E+01 0.  0.
    9000005    1    3    3    0    0  0.17171762546E+02  0.54521967151E+02 -0.23708268958E+03  0.24387848620E+03  0.10000000000E+01 0.  0.
<mgrwt>
<rscale>  0 0.12500209E+03</rscale>
<asrwt>0</asrwt>
<pdfrwt beam="1">  1        4 0.17544705E-02 0.12500209E+03</pdfrwt>
<pdfrwt beam="2">  1       -4 0.52698930E-01 0.12500209E+03</pdfrwt>
<totfact> 0.69289287E+03</totfact>
</mgrwt>
</event>
<event>
 5    1  0.3300771E-002  0.1250072E+03  0.7818608E-02  0.1235058E+00
          4   -1    0    0  501    0  0.00000000000E+00  0.00000000000E+00  0.21515496195E+01  0.24984126491E+01  0.12700000000E+01 0. -1.
         -4   -1    0    0    0  501 -0.00000000000E+00 -0.00000000000E+00 -0.16799677890E+04  0.16799682690E+04  0.12700000000E+01 0. -1.
         25    2    1    2    0    0  0.00000000000E+00  0.00000000000E+00 -0.16778162393E+04  0.16824666816E+04  0.12500720724E+03 0.  0.
    9000005    1    3    3    0    0 -0.30307611190E+02  0.54382157068E+02 -0.76552265366E+03  0.76805071680E+03  0.10000000000E+01 0.  0.
    9000005    1    3    3    0    0  0.30307611190E+02 -0.54382157068E+02 -0.91229358567E+03  0.91441596484E+03  0.10000000000E+01 0.  0.
<mgrwt>
<rscale>  0 0.12500721E+03</rscale>
<asrwt>0</asrwt>
<pdfrwt beam="1">  1        4 0.35772767E-03 0.12500721E+03</pdfrwt>
<pdfrwt beam="2">  1       -4 0.25848233E+00 0.12500721E+03</pdfrwt>
<totfact> 0.14600348E+03</totfact>
</mgrwt>
</event>
<event>
 5    1  0.3300771E-002  0.1250561E+03  0.7818608E-02  0.1234982E+00
          4   -1    0    0  501    0  0.00000000000E+00  0.00000000000E+00  0.82955791310E+03  0.82955888524E+03  0.12700000000E+01 0. -1.
         -4   -1    0    0    0  501 -0.00000000000E+00 -0.00000000000E+00 -0.46265102416E+01  0.47976553665E+01  0.12700000000E+01 0. -1.
         25    2    1    2    0    0  0.00000000000E+00  0.00000000000E+00  0.82493140286E+03  0.83435654061E+03  0.12505605718E+03 0.  0.
    9000005    1    3    3    0    0  0.34596594413E+02  0.17413723439E+02  0.85028073728E+02  0.93439474693E+02  0.10000000000E+01 0.  0.
    9000005    1    3    3    0    0 -0.34596594413E+02 -0.17413723439E+02  0.73990332913E+03  0.74091706592E+03  0.10000000000E+01 0.  0.
<mgrwt>
<rscale>  0 0.12505606E+03</rscale>
<asrwt>0</asrwt>
<pdfrwt beam="1">  1        4 0.12763755E+00 0.12505606E+03</pdfrwt>
<pdfrwt beam="2">  1       -4 0.72501050E-03 0.12505606E+03</pdfrwt>
<totfact> 0.36731165E+03</totfact>
</mgrwt>
</event>
<event>
 5    1  0.3300771E-002  0.1249878E+03  0.7818608E-02  0.1235088E+00
          4   -1    0    0  501    0  0.00000000000E+00  0.00000000000E+00  0.27793531809E+03  0.27793821965E+03  0.12700000000E+01 0.  1.
         -4   -1    0    0    0  501 -0.00000000000E+00 -0.00000000000E+00 -0.14020100895E+02  0.14077504364E+02  0.12700000000E+01 0.  1.
         25    2    1    2    0    0  0.00000000000E+00  0.00000000000E+00  0.26391521720E+03  0.29201572402E+03  0.12498776422E+03 0.  0.
    9000005    1    3    3    0    0  0.35627558254E+02  0.47793469764E+02  0.17572586877E+03  0.18556432743E+03  0.10000000000E+01 0.  0.
    9000005    1    3    3    0    0 -0.35627558254E+02 -0.47793469764E+02  0.88189348430E+02  0.10645139659E+03  0.10000000000E+01 0.  0.
<mgrwt>
<rscale>  0 0.12498776E+03</rscale>
<asrwt>0</asrwt>
<pdfrwt beam="1">  1        4 0.42763920E-01 0.12498776E+03</pdfrwt>
<pdfrwt beam="2">  1       -4 0.21615774E-02 0.12498776E+03</pdfrwt>
<totfact> 0.76632233E+03</totfact>
</mgrwt>
</event>
<event>
 5    1  0.3300771E-002  0.1250046E+03  0.7818608E-02  0.1235062E+00
          4   -1    0    0  501    0  0.00000000000E+00  0.00000000000E+00  0.15385954220E+03  0.15386478358E+03  0.12700000000E+01 0.  1.
         -4   -1    0    0    0  501 -0.00000000000E+00 -0.00000000000E+00 -0.25368735344E+02  0.25400504580E+02  0.12700000000E+01 0.  1.
         25    2    1    2    0    0  0.00000000000E+00  0.00000000000E+00  0.12849080686E+03  0.17926528816E+03  0.12500462428E+03 0.  0.
    9000005    1    3    3    0    0  0.28506342359E+02 -0.53421892504E+02  0.86416915029E+02  0.10552437328E+03  0.10000000000E+01 0.  0.
    9000005    1    3    3    0    0 -0.28506342359E+02  0.53421892504E+02  0.42073891826E+02  0.73740914876E+02  0.10000000000E+01 0.  0.
<mgrwt>
<rscale>  0 0.12500462E+03</rscale>
<asrwt>0</asrwt>
<pdfrwt beam="1">  1        4 0.23673545E-01 0.12500462E+03</pdfrwt>
<pdfrwt beam="2">  1       -4 0.39057294E-02 0.12500462E+03</pdfrwt>
<totfact> 0.93739701E+03</totfact>
</mgrwt>
</event>
<event>
 5    1  0.3300771E-002  0.1250053E+03  0.7818608E-02  0.1235061E+00
         -4   -1    0    0    0  501 -0.00000000000E+00  0.00000000000E+00  0.70491702865E+01  0.71626602410E+01  0.12700000000E+01 0.  1.
          4   -1    0    0  501    0  0.00000000000E+00 -0.00000000000E+00 -0.54965045919E+03  0.54965192639E+03  0.12700000000E+01 0.  1.
         25    2    1    2    0    0  0.00000000000E+00  0.00000000000E+00 -0.54260128890E+03  0.55681458663E+03  0.12500530056E+03 0.  0.
    9000005    1    3    3    0    0  0.15140236358E+02  0.52535764183E+02 -0.13646261492E+03  0.14701115109E+03  0.10000000000E+01 0.  0.
    9000005    1    3    3    0    0 -0.15140236358E+02 -0.52535764183E+02 -0.40613867399E+03  0.40980343554E+03  0.10000000000E+01 0.  0.
<mgrwt>
<rscale>  0 0.12500530E+03</rscale>
<asrwt>0</asrwt>
<pdfrwt beam="2">  1        4 0.84570418E-01 0.12500530E+03</pdfrwt>
<pdfrwt beam="1">  1       -4 0.10933310E-02 0.12500530E+03</pdfrwt>
<totfact> 0.51706225E+03</totfact>
</mgrwt>
</event>
<event>
 5    1  0.3300771E-002  0.1250022E+03  0.7818608E-02  0.1235066E+00
         -4   -1    0    0    0  501 -0.00000000000E+00  0.00000000000E+00  0.44519538464E+03  0.44519719609E+03  0.12700000000E+01 0. -1.
          4   -1    0    0  501    0  0.00000000000E+00 -0.00000000000E+00 -0.87267515390E+01  0.88186786099E+01  0.12700000000E+01 0. -1.
         25    2    1    2    0    0  0.00000000000E+00  0.00000000000E+00  0.43646863310E+03  0.45401587470E+03  0.12500218717E+03 0.  0.
    9000005    1    3    3    0    0 -0.26785108479E+02 -0.56418656517E+02  0.21021094143E+03  0.21929465734E+03  0.10000000000E+01 0.  0.
    9000005    1    3    3    0    0  0.26785108479E+02  0.56418656517E+02  0.22625769167E+03  0.23472121736E+03  0.10000000000E+01 0.  0.
<mgrwt>
<rscale>  0 0.12500219E+03</rscale>
<asrwt>0</asrwt>
<pdfrwt beam="2">  1        4 0.13497879E-02 0.12500219E+03</pdfrwt>
<pdfrwt beam="1">  1       -4 0.68498803E-01 0.12500219E+03</pdfrwt>
<totfact> 0.59614601E+03</totfact>
</mgrwt>
</event>
<event>
 4    1  0.3300771E-002  0.1247255E+03  0.7818608E-02  0.1235499E+00
          4   -1    0    0  501    0  0.00000000000E+00  0.00000000000E+00  0.64884013213E+02  0.64896441124E+02  0.12700000000E+01 0. -1.
         -4   -1    0    0    0  501 -0.00000000000E+00 -0.00000000000E+00 -0.59914582938E+02  0.59928041421E+02  0.12700000000E+01 0. -1.
    9000005    1    1    2    0    0 -0.38148608250E+02  0.80981123092E+01 -0.46207955555E+02  0.60473720664E+02  0.10000000000E+01 0.  0.
    9000005    1    1    2    0    0  0.38148608250E+02 -0.80981123092E+01  0.51177385830E+02  0.64350761882E+02  0.10000000000E+01 0.  0.
<mgrwt>
<rscale>  0 0.12472552E+03</rscale>
<asrwt>0</asrwt>
<pdfrwt beam="1">  1        4 0.99841472E-02 0.12472552E+03</pdfrwt>
<pdfrwt beam="2">  1       -4 0.92196194E-02 0.12472552E+03</pdfrwt>
<totfact> 0.10521809E+04</totfact>
</mgrwt>
</event>
<event>
 5    1  0.3300771E-002  0.1249967E+03  0.7818608E-02  0.1235074E+00
          4   -1    0    0  501    0  0.00000000000E+00  0.00000000000E+00  0.21238788529E+03  0.21239168232E+03  0.12700000000E+01 0. -1.
         -4   -1    0    0    0  501 -0.00000000000E+00 -0.00000000000E+00 -0.18365187353E+02  0.18409046866E+02  0.12700000000E+01 0. -1.
         25    2    1    2    0    0  0.00000000000E+00  0.00000000000E+00  0.19402269793E+03  0.23080072918E+03  0.12499667706E+03 0.  0.
    9000005    1    3    3    0    0 -0.13874816636E+02  0.10721901552E+02 -0.13738589298E+02  0.22298397823E+02  0.10000000000E+01 0.  0.
    9000005    1    3    3    0    0  0.13874816636E+02 -0.10721901552E+02  0.20776128723E+03  0.20850233136E+03  0.10000000000E+01 0.  0.
<mgrwt>
<rscale>  0 0.12499668E+03</rscale>
<asrwt>0</asrwt>
<pdfrwt beam="1">  1        4 0.32678728E-01 0.12499668E+03</pdfrwt>
<pdfrwt beam="2">  1       -4 0.28290791E-02 0.12499668E+03</pdfrwt>
<totfact> 0.85193108E+03</totfact>
</mgrwt>
</event>
<event>
 5    1  0.3300771E-002  0.1250059E+03  0.7818608E-02  0.1235060E+00
          4   -1    0    0  501    0  0.00000000000E+00  0.00000000000E+00  0.34615286698E+03  0.34615519672E+03  0.12700000000E+01 0.  1.
         -4   -1    0    0    0  501 -0.00000000000E+00 -0.00000000000E+00 -0.11247721971E+02  0.11319193855E+02  0.12700000000E+01 0.  1.
         25    2    1    2    0    0  0.00000000000E+00  0.00000000000E+00  0.33490514501E+03  0.35747439058E+03  0.12500593492E+03 0.  0.
    9000005    1    3    3    0    0 -0.75455702849E+01 -0.55678501728E+02  0.24569390565E+03  0.25203874000E+03  0.10000000000E+01 0.  0.
    9000005    1    3    3    0    0  0.75455702849E+01  0.55678501728E+02  0.89211239359E+02  0.10543565058E+03  0.10000000000E+01 0.  0.
<mgrwt>
<rscale>  0 0.12500593E+03</rscale>
<asrwt>0</asrwt>
<pdfrwt beam="1">  1        4 0.53259951E-01 0.12500593E+03</pdfrwt>
<pdfrwt beam="2">  1       -4 0.17360962E-02 0.12500593E+03</pdfrwt>
<totfact> 0.68900994E+03</totfact>
</mgrwt>
</event>
<event>
 4    1  0.3300771E-002  0.1249382E+03  0.7818608E-02  0.1235166E+00
         -4   -1    0    0    0  501 -0.00000000000E+00  0.00000000000E+00  0.75413037455E+01  0.76474938497E+01  0.12700000000E+01 0. -1.
          4   -1    0    0  501    0  0.00000000000E+00 -0.00000000000E+00 -0.51374398871E+03  0.51374555846E+03  0.12700000000E+01 0. -1.
    9000005    1    1    2    0    0  0.29913946410E+02 -0.46586969005E+02 -0.13242424461E+03  0.14353525850E+03  0.10000000000E+01 0.  0.
    9000005    1    1    2    0    0 -0.29913946410E+02  0.46586969005E+02 -0.37377844035E+03  0.37785779381E+03  0.10000000000E+01 0.  0.
<mgrwt>
<rscale>  0 0.12493821E+03</rscale>
<asrwt>0</asrwt>
<pdfrwt beam="2">  1        4 0.79045799E-01 0.12493821E+03</pdfrwt>
<pdfrwt beam="1">  1       -4 0.11684902E-02 0.12493821E+03</pdfrwt>
<totfact> 0.54315633E+03</totfact>
</mgrwt>
</event>
<event>
 5    1  0.3300771E-002  0.1250024E+03  0.7818608E-02  0.1235066E+00
          4   -1    0    0  501    0  0.00000000000E+00  0.00000000000E+00  0.60318810521E+02  0.60332178832E+02  0.12700000000E+01 0.  1.
         -4   -1    0    0    0  501 -0.00000000000E+00 -0.00000000000E+00 -0.64735760657E+02  0.64748217024E+02  0.12700000000E+01 0.  1.
         25    2    1    2    0    0  0.00000000000E+00  0.00000000000E+00 -0.44169501359E+01  0.12508039586E+03  0.12500238389E+03 0.  0.
    9000005    1    3    3    0    0 -0.20554691083E+02  0.49682535953E+02  0.29663393613E+02  0.61414710167E+02  0.10000000000E+01 0.  0.
    9000005    1    3    3    0    0  0.20554691083E+02 -0.49682535953E+02 -0.34080343749E+02  0.63665685689E+02  0.10000000000E+01 0.  0.
<mgrwt>
<rscale>  0 0.12500238E+03</rscale>
<asrwt>0</asrwt>
<pdfrwt beam="1">  1        4 0.92818036E-02 0.12500238E+03</pdfrwt>
<pdfrwt beam="2">  1       -4 0.99613342E-02 0.12500238E+03</pdfrwt>
<totfact> 0.10450554E+04</totfact>
</mgrwt>
</event>
<event>
 5    1  0.3300771E-002  0.1250118E+03  0.7818608E-02  0.1235051E+00
          4   -1    0    0  501    0  0.00000000000E+00  0.00000000000E+00  0.62463080131E+02  0.62475989624E+02  0.12700000000E+01 0.  1.
         -4   -1    0    0    0  501 -0.00000000000E+00 -0.00000000000E+00 -0.62522931750E+02  0.62535828887E+02  0.12700000000E+01 0.  1.
         25    2    1    2    0    0  0.00000000000E+00  0.00000000000E+00 -0.59851618896E-01  0.12501181851E+03  0.12501180418E+03 0.  0.
    9000005    1    3    3    0    0  0.35089045832E+02 -0.46676654783E+02 -0.22301806532E+02  0.62516572312E+02  0.10000000000E+01 0.  0.
    9000005    1    3    3    0    0 -0.35089045832E+02  0.46676654783E+02  0.22241954913E+02  0.62495246199E+02  0.10000000000E+01 0.  0.
<mgrwt>
<rscale>  0 0.12501180E+03</rscale>
<asrwt>0</asrwt>
<pdfrwt beam="1">  1        4 0.96116897E-02 0.12501180E+03</pdfrwt>
<pdfrwt beam="2">  1       -4 0.96208977E-02 0.12501180E+03</pdfrwt>
<totfact> 0.10449818E+04</totfact>
</mgrwt>
</event>
<event>
 5    1  0.3300771E-002  0.1250001E+03  0.7818608E-02  0.1235069E+00
          4   -1    0    0  501    0  0.00000000000E+00  0.00000000000E+00  0.18204735622E+02  0.18248980768E+02  0.12700000000E+01 0. -1.
         -4   -1    0    0    0  501 -0.00000000000E+00 -0.00000000000E+00 -0.21426694008E+03  0.21427070381E+03  0.12700000000E+01 0. -1.
         25    2    1    2    0    0  0.00000000000E+00  0.00000000000E+00 -0.19606220446E+03  0.23251968458E+03  0.12500006280E+03 0.  0.
    9000005    1    3    3    0    0 -0.60869846227E+02 -0.13522395873E+02 -0.90302928570E+02  0.10974339287E+03  0.10000000000E+01 0.  0.
    9000005    1    3    3    0    0  0.60869846227E+02  0.13522395873E+02 -0.10575927589E+03  0.12277629171E+03  0.10000000000E+01 0.  0.
<mgrwt>
<rscale>  0 0.12500006E+03</rscale>
<asrwt>0</asrwt>
<pdfrwt beam="1">  1        4 0.28044217E-02 0.12500006E+03</pdfrwt>
<pdfrwt beam="2">  1       -4 0.32967836E-01 0.12500006E+03</pdfrwt>
<totfact> 0.84924075E+03</totfact>
</mgrwt>
</event>
<event>
 5    1  0.3300771E-002  0.1250010E+03  0.7818608E-02  0.1235068E+00
          4   -1    0    0  501    0  0.00000000000E+00  0.00000000000E+00  0.23348642914E+02  0.23383156886E+02  0.12700000000E+01 0.  1.
         -4   -1    0    0    0  501 -0.00000000000E+00 -0.00000000000E+00 -0.16714322744E+03  0.16714805228E+03  0.12700000000E+01 0.  1.
         25    2    1    2    0    0  0.00000000000E+00  0.00000000000E+00 -0.14379458453E+03  0.19053120916E+03  0.12500103650E+03 0.  0.
    9000005    1    3    3    0    0 -0.52880951872E+02 -0.30043371568E+02 -0.93790957587E+02  0.11178883205E+03  0.10000000000E+01 0.  0.
    9000005    1    3    3    0    0  0.52880951872E+02  0.30043371568E+02 -0.50003626941E+02  0.78742377113E+02  0.10000000000E+01 0.  0.
<mgrwt>
<rscale>  0 0.12500104E+03</rscale>
<asrwt>0</asrwt>
<pdfrwt beam="1">  1        4 0.35951251E-02 0.12500104E+03</pdfrwt>
<pdfrwt beam="2">  1       -4 0.25717368E-01 0.12500104E+03</pdfrwt>
<totfact> 0.91752838E+03</totfact>
</mgrwt>
</event>
<event>
 5    1  0.3300771E-002  0.1249998E+03  0.7818608E-02  0.1235070E+00
         -4   -1    0    0    0  501 -0.00000000000E+00  0.00000000000E+00  0.18426722232E+02  0.18470435626E+02  0.12700000000E+01 0.  1.
          4   -1    0    0  501    0  0.00000000000E+00 -0.00000000000E+00 -0.21169083026E+03  0.21169463979E+03  0.12700000000E+01 0.  1.
         25    2    1    2    0    0  0.00000000000E+00  0.00000000000E+00 -0.19326410803E+03  0.23016507542E+03  0.12499978596E+03 0.  0.
    9000005    1    3    3    0    0 -0.13210239333E+02  0.61051531370E+02 -0.10004557067E+03  0.11794878599E+03  0.10000000000E+01 0.  0.
    9000005    1    3    3    0    0  0.13210239333E+02 -0.61051531370E+02 -0.93218537367E+02  0.11221628944E+03  0.10000000000E+01 0.  0.
<mgrwt>
<rscale>  0 0.12499979E+03</rscale>
<asrwt>0</asrwt>
<pdfrwt beam="2">  1        4 0.32571474E-01 0.12499979E+03</pdfrwt>
<pdfrwt beam="1">  1       -4 0.28385361E-02 0.12499979E+03</pdfrwt>
<totfact> 0.85284664E+03</totfact>
</mgrwt>
</event>
<event>
 5    1  0.3300771E-002  0.1250012E+03  0.7818608E-02  0.1235067E+00
          4   -1    0    0  501    0  0.00000000000E+00  0.00000000000E+00  0.43644159825E+02  0.43662633760E+02  0.12700000000E+01 0.  1.
         -4   -1    0    0    0  501 -0.00000000000E+00 -0.00000000000E+00 -0.89462027444E+02  0.89471041429E+02  0.12700000000E+01 0.  1.
         25    2    1    2    0    0  0.00000000000E+00  0.00000000000E+00 -0.45817867619E+02  0.13313367519E+03  0.12500119390E+03 0.  0.
    9000005    1    3    3    0    0  0.50617293375E+02 -0.36631597978E+02 -0.24141948601E+02  0.66991178832E+02  0.10000000000E+01 0.  0.
    9000005    1    3    3    0    0 -0.50617293375E+02  0.36631597978E+02 -0.21675919018E+02  0.66142496357E+02  0.10000000000E+01 0.  0.
<mgrwt>
<rscale>  0 0.12500119E+03</rscale>
<asrwt>0</asrwt>
<pdfrwt beam="1">  1        4 0.67166006E-02 0.12500119E+03</pdfrwt>
<pdfrwt beam="2">  1       -4 0.13765503E-01 0.12500119E+03</pdfrwt>
<totfact> 0.10277283E+04</totfact>
</mgrwt>
</event>
<event>
 5    1  0.3300771E-002  0.1249972E+03  0.7818608E-02  0.1235074E+00
          4   -1    0    0  501    0  0.00000000000E+00  0.00000000000E+00  0.52582183282E+03  0.52582336651E+03  0.12700000000E+01 0. -1.
         -4   -1    0    0    0  501 -0.00000000000E+00 -0.00000000000E+00 -0.73726765217E+01  0.74812605284E+01  0.12700000000E+01 0. -1.
         25    2    1    2    0    0  0.00000000000E+00  0.00000000000E+00  0.51844915630E+03  0.53330462704E+03  0.12499719019E+03 0.  0.
    9000005    1    3    3    0    0 -0.34152139148E+02  0.45328271717E+02  0.37081326219E+03  0.37513263820E+03  0.10000000000E+01 0.  0.
    9000005    1    3    3    0    0  0.34152139148E+02 -0.45328271717E+02  0.14763589411E+03  0.15817198884E+03  0.10000000000E+01 0.  0.
<mgrwt>
<rscale>  0 0.12499719E+03</rscale>
<asrwt>0</asrwt>
<pdfrwt beam="1">  1        4 0.80904145E-01 0.12499719E+03</pdfrwt>
<pdfrwt beam="2">  1       -4 0.11427284E-02 0.12499719E+03</pdfrwt>
<totfact> 0.53373154E+03</totfact>
</mgrwt>
</event>
<event>
 5    1  0.3300771E-002  0.1249992E+03  0.7818608E-02  0.1235070E+00
         -4   -1    0    0    0  501 -0.00000000000E+00  0.00000000000E+00  0.91933751138E+01  0.92806813318E+01  0.12700000000E+01 0. -1.
          4   -1    0    0  501    0  0.00000000000E+00 -0.00000000000E+00 -0.42279682433E+03  0.42279873175E+03  0.12700000000E+01 0. -1.
         25    2    1    2    0    0  0.00000000000E+00  0.00000000000E+00 -0.41360344922E+03  0.43207941308E+03  0.12499922400E+03 0.  0.
    9000005    1    3    3    0    0 -0.60862979497E+02  0.13990047057E+02 -0.19893617070E+03  0.20851048823E+03  0.10000000000E+01 0.  0.
    9000005    1    3    3    0    0  0.60862979497E+02 -0.13990047057E+02 -0.21466727852E+03  0.22356892485E+03  0.10000000000E+01 0.  0.
<mgrwt>
<rscale>  0 0.12499922E+03</rscale>
<asrwt>0</asrwt>
<pdfrwt beam="2">  1        4 0.65052513E-01 0.12499922E+03</pdfrwt>
<pdfrwt beam="1">  1       -4 0.14212283E-02 0.12499922E+03</pdfrwt>
<totfact> 0.61549017E+03</totfact>
</mgrwt>
</event>
<event>
 5    1  0.3300771E-002  0.1250125E+03  0.7818608E-02  0.1235050E+00
         -4   -1    0    0    0  501 -0.00000000000E+00  0.00000000000E+00  0.15446811376E+03  0.15447333449E+03  0.12700000000E+01 0.  1.
          4   -1    0    0  501    0  0.00000000000E+00 -0.00000000000E+00 -0.25271863822E+02  0.25303754682E+02  0.12700000000E+01 0.  1.
         25    2    1    2    0    0  0.00000000000E+00  0.00000000000E+00  0.12919624994E+03  0.17977708917E+03  0.12501252255E+03 0.  0.
    9000005    1    3    3    0    0  0.52540774614E+02 -0.29968585927E+02  0.87216752151E+02  0.10614335116E+03  0.10000000000E+01 0.  0.
    9000005    1    3    3    0    0 -0.52540774614E+02  0.29968585927E+02  0.41979497788E+02  0.73633738015E+02  0.10000000000E+01 0.  0.
<mgrwt>
<rscale>  0 0.12501252E+03</rscale>
<asrwt>0</asrwt>
<pdfrwt beam="2">  1        4 0.38908338E-02 0.12501252E+03</pdfrwt>
<pdfrwt beam="1">  1       -4 0.23767180E-01 0.12501252E+03</pdfrwt>
<totfact> 0.93630850E+03</totfact>
</mgrwt>
</event>
<event>
 5    1  0.3300771E-002  0.1250017E+03  0.7818608E-02  0.1235067E+00
          4   -1    0    0  501    0  0.00000000000E+00  0.00000000000E+00  0.19812543991E+02  0.19853206275E+02  0.12700000000E+01 0.  1.
         -4   -1    0    0    0  501 -0.00000000000E+00 -0.00000000000E+00 -0.19692111360E+03  0.19692520885E+03  0.12700000000E+01 0.  1.
         25    2    1    2    0    0  0.00000000000E+00  0.00000000000E+00 -0.17710856960E+03  0.21677841512E+03  0.12500174333E+03 0.  0.
    9000005    1    3    3    0    0  0.97029586571E+01  0.57461865530E+02 -0.49415599780E+02  0.76412792767E+02  0.10000000000E+01 0.  0.
    9000005    1    3    3    0    0 -0.97029586571E+01 -0.57461865530E+02 -0.12769296982E+03  0.14036562236E+03  0.10000000000E+01 0.  0.
<mgrwt>
<rscale>  0 0.12500174E+03</rscale>
<asrwt>0</asrwt>
<pdfrwt beam="1">  1        4 0.30515267E-02 0.12500174E+03</pdfrwt>
<pdfrwt beam="2">  1       -4 0.30298998E-01 0.12500174E+03</pdfrwt>
<totfact> 0.87377301E+03</totfact>
</mgrwt>
</event>
<event>
 5    1  0.3300771E-002  0.1249996E+03  0.7818608E-02  0.1235070E+00
         -4   -1    0    0    0  501 -0.00000000000E+00  0.00000000000E+00  0.91759008476E+02  0.91767796838E+02  0.12700000000E+01 0.  1.
          4   -1    0    0  501    0  0.00000000000E+00 -0.00000000000E+00 -0.42550178836E+02  0.42569127534E+02  0.12700000000E+01 0.  1.
         25    2    1    2    0    0  0.00000000000E+00  0.00000000000E+00  0.49208829640E+02  0.13433692437E+03  0.12499960134E+03 0.  0.
    9000005    1    3    3    0    0 -0.34573241049E+02 -0.15276275213E+02 -0.28877931890E+02  0.47577395171E+02  0.10000000000E+01 0.  0.
    9000005    1    3    3    0    0  0.34573241049E+02  0.15276275213E+02  0.78086761529E+02  0.86759529201E+02  0.10000000000E+01 0.  0.
<mgrwt>
<rscale>  0 0.12499960E+03</rscale>
<asrwt>0</asrwt>
<pdfrwt beam="2">  1        4 0.65483150E-02 0.12499960E+03</pdfrwt>
<pdfrwt beam="1">  1       -4 0.14118904E-01 0.12499960E+03</pdfrwt>
<totfact> 0.10252158E+04</totfact>
</mgrwt>
</event>
<event>
 5    1  0.3300771E-002  0.1250118E+03  0.7818608E-02  0.1235051E+00
          4   -1    0    0  501    0  0.00000000000E+00  0.00000000000E+00  0.11276356375E+03  0.11277071521E+03  0.12700000000E+01 0.  1.
         -4   -1    0    0    0  501 -0.00000000000E+00 -0.00000000000E+00 -0.34627700296E+02  0.34650981628E+02  0.12700000000E+01 0.  1.
         25    2    1    2    0    0  0.00000000000E+00  0.00000000000E+00  0.78135863451E+02  0.14742169684E+03  0.12501177361E+03 0.  0.
    9000005    1    3    3    0    0 -0.34232893657E+01  0.48729728855E+01  0.11243399383E+03  0.11259603787E+03  0.10000000000E+01 0.  0.
    9000005    1    3    3    0    0  0.34232893657E+01 -0.48729728855E+01 -0.34298130382E+02  0.34825658968E+02  0.10000000000E+01 0.  0.
<mgrwt>
<rscale>  0 0.12501177E+03</rscale>
<asrwt>0</asrwt>
<pdfrwt beam="1">  1        4 0.17350582E-01 0.12501177E+03</pdfrwt>
<pdfrwt beam="2">  1       -4 0.53296794E-02 0.12501177E+03</pdfrwt>
<totfact> 0.99793696E+03</totfact>
</mgrwt>
</event>
<event>
 5    1  0.3300771E-002  0.1249994E+03  0.7818608E-02  0.1235070E+00
         -4   -1    0    0    0  501 -0.00000000000E+00  0.00000000000E+00  0.10732553721E+03  0.10733305100E+03  0.12700000000E+01 0. -1.
          4   -1    0    0  501    0  0.00000000000E+00 -0.00000000000E+00 -0.36376085985E+02  0.36398249018E+02  0.12700000000E+01 0. -1.
         25    2    1    2    0    0  0.00000000000E+00  0.00000000000E+00  0.70949451224E+02  0.14373130002E+03  0.12499944790E+03 0.  0.
    9000005    1    3    3    0    0  0.29456994803E+02 -0.55113185815E+02  0.35697988998E+02  0.71975858536E+02  0.10000000000E+01 0.  0.
    9000005    1    3    3    0    0 -0.29456994803E+02  0.55113185815E+02  0.35251462227E+02  0.71755441484E+02  0.10000000000E+01 0.  0.
<mgrwt>
<rscale>  0 0.12499945E+03</rscale>
<asrwt>0</asrwt>
<pdfrwt beam="2">  1        4 0.55986038E-02 0.12499945E+03</pdfrwt>
<pdfrwt beam="1">  1       -4 0.16513904E-01 0.12499945E+03</pdfrwt>
<totfact> 0.10056954E+04</totfact>
</mgrwt>
</event>
<event>
 5    1  0.3300771E-002  0.1249976E+03  0.7818608E-02  0.1235073E+00
         -4   -1    0    0    0  501 -0.00000000000E+00  0.00000000000E+00  0.52354042867E+02  0.52369444378E+02  0.12700000000E+01 0. -1.
          4   -1    0    0  501    0  0.00000000000E+00 -0.00000000000E+00 -0.74577528453E+02  0.74588341248E+02  0.12700000000E+01 0. -1.
         25    2    1    2    0    0  0.00000000000E+00  0.00000000000E+00 -0.22223485586E+02  0.12695778563E+03  0.12499758406E+03 0.  0.
    9000005    1    3    3    0    0  0.41758604093E+02 -0.36787662700E+02  0.17759109227E+02  0.58425158136E+02  0.10000000000E+01 0.  0.
    9000005    1    3    3    0    0 -0.41758604093E+02  0.36787662700E+02 -0.39982594814E+02  0.68532627490E+02  0.10000000000E+01 0.  0.
<mgrwt>
<rscale>  0 0.12499758E+03</rscale>
<asrwt>0</asrwt>
<pdfrwt beam="2">  1        4 0.11475482E-01 0.12499758E+03</pdfrwt>
<pdfrwt beam="1">  1       -4 0.80564846E-02 0.12499758E+03</pdfrwt>
<totfact> 0.10410631E+04</totfact>
</mgrwt>
</event>
<event>
 5    1  0.3300771E-002  0.1249968E+03  0.7818608E-02  0.1235074E+00
          4   -1    0    0  501    0  0.00000000000E+00  0.00000000000E+00  0.55120559421E+02  0.55135188137E+02  0.12700000000E+01 0. -1.
         -4   -1    0    0    0  501 -0.00000000000E+00 -0.00000000000E+00 -0.70834082643E+02  0.70845466784E+02  0.12700000000E+01 0. -1.
         25    2    1    2    0    0  0.00000000000E+00  0.00000000000E+00 -0.15713523222E+02  0.12598065492E+03  0.12499684237E+03 0.  0.
    9000005    1    3    3    0    0 -0.49661354471E+01  0.51689392547E+02  0.27181741810E+02  0.58619987129E+02  0.10000000000E+01 0.  0.
    9000005    1    3    3    0    0  0.49661354471E+01 -0.51689392547E+02 -0.42895265032E+02  0.67360667792E+02  0.10000000000E+01 0.  0.
<mgrwt>
<rscale>  0 0.12499684E+03</rscale>
<asrwt>0</asrwt>
<pdfrwt beam="1">  1        4 0.84820870E-02 0.12499684E+03</pdfrwt>
<pdfrwt beam="2">  1       -4 0.10899552E-01 0.12499684E+03</pdfrwt>
<totfact> 0.10432124E+04</totfact>
</mgrwt>
</event>
<event>
 5    1  0.3300771E-002  0.1249975E+03  0.7818608E-02  0.1235073E+00
          4   -1    0    0  501    0  0.00000000000E+00  0.00000000000E+00  0.13476468755E+02  0.13536177825E+02  0.12700000000E+01 0. -1.
         -4   -1    0    0    0  501 -0.00000000000E+00 -0.00000000000E+00 -0.28914379149E+03  0.28914658058E+03  0.12700000000E+01 0. -1.
         25    2    1    2    0    0  0.00000000000E+00  0.00000000000E+00 -0.27566732274E+03  0.30268275840E+03  0.12499751761E+03 0.  0.
    9000005    1    3    3    0    0  0.36028263976E+02 -0.51047254562E+02 -0.14052671229E+03  0.15379406643E+03  0.10000000000E+01 0.  0.
    9000005    1    3    3    0    0 -0.36028263976E+02  0.51047254562E+02 -0.13514061045E+03  0.14888869197E+03  0.10000000000E+01 0.  0.
<mgrwt>
<rscale>  0 0.12499752E+03</rscale>
<asrwt>0</asrwt>
<pdfrwt beam="1">  1        4 0.20781107E-02 0.12499752E+03</pdfrwt>
<pdfrwt beam="2">  1       -4 0.44488463E-01 0.12499752E+03</pdfrwt>
<totfact> 0.75267695E+03</totfact>
</mgrwt>
</event>
<event>
 4    1  0.3300771E-002  0.1251268E+03  0.7818608E-02  0.1234871E+00
         -4   -1    0    0    0  501 -0.00000000000E+00  0.00000000000E+00  0.44700583114E+02  0.44718620626E+02  0.12700000000E+01 0.  1.
          4   -1    0    0  501    0  0.00000000000E+00 -0.00000000000E+00 -0.87524007778E+02  0.87533221337E+02  0.12700000000E+01 0.  1.
    9000005    1    1    2    0    0  0.40305909362E+02  0.47709549425E+02 -0.25134877773E+02  0.67331489784E+02  0.10000000000E+01 0.  0.
    9000005    1    1    2    0    0 -0.40305909362E+02 -0.47709549425E+02 -0.17688546891E+02  0.64920352178E+02  0.10000000000E+01 0.  0.
<mgrwt>
<rscale>  0 0.12512675E+03</rscale>
<asrwt>0</asrwt>
<pdfrwt beam="2">  1        4 0.13467328E-01 0.12512675E+03</pdfrwt>
<pdfrwt beam="1">  1       -4 0.68791090E-02 0.12512675E+03</pdfrwt>
<totfact> 0.10266941E+04</totfact>
</mgrwt>
</event>
<event>
 5    1  0.3300771E-002  0.1249813E+03  0.7818608E-02  0.1235099E+00
          4   -1    0    0  501    0  0.00000000000E+00  0.00000000000E+00  0.49197927675E+03  0.49198091594E+03  0.12700000000E+01 0.  1.
         -4   -1    0    0    0  501 -0.00000000000E+00 -0.00000000000E+00 -0.78850228968E+01  0.79866442316E+01  0.12700000000E+01 0.  1.
         25    2    1    2    0    0  0.00000000000E+00  0.00000000000E+00  0.48409425385E+03  0.49996756017E+03  0.12498125705E+03 0.  0.
    9000005    1    3    3    0    0  0.10574913226E+02 -0.59976098857E+02  0.29792565671E+03  0.30408824073E+03  0.10000000000E+01 0.  0.
    9000005    1    3    3    0    0 -0.10574913226E+02  0.59976098857E+02  0.18616859714E+03  0.19587931944E+03  0.10000000000E+01 0.  0.
<mgrwt>
<rscale>  0 0.12498126E+03</rscale>
<asrwt>0</asrwt>
<pdfrwt beam="1">  1        4 0.75697047E-01 0.12498126E+03</pdfrwt>
<pdfrwt beam="2">  1       -4 0.12210238E-02 0.12498126E+03</pdfrwt>
<totfact> 0.55889920E+03</totfact>
</mgrwt>
</event>
<event>
 5    1  0.3300771E-002  0.1250046E+03  0.7818608E-02  0.1235062E+00
          4   -1    0    0  501    0  0.00000000000E+00  0.00000000000E+00  0.53435402185E+01  0.54923876471E+01  0.12700000000E+01 0. -1.
         -4   -1    0    0    0  501 -0.00000000000E+00 -0.00000000000E+00 -0.72088458557E+03  0.72088570426E+03  0.12700000000E+01 0. -1.
         25    2    1    2    0    0  0.00000000000E+00  0.00000000000E+00 -0.71554104535E+03  0.72637809191E+03  0.12500457922E+03 0.  0.
    9000005    1    3    3    0    0  0.43261196313E+02 -0.15085005692E+01 -0.95849860202E+02  0.10517605422E+03  0.10000000000E+01 0.  0.
    9000005    1    3    3    0    0 -0.43261196313E+02  0.15085005692E+01 -0.61969118515E+03  0.62120203769E+03  0.10000000000E+01 0.  0.
<mgrwt>
<rscale>  0 0.12500458E+03</rscale>
<asrwt>0</asrwt>
<pdfrwt beam="1">  1        4 0.83361954E-03 0.12500458E+03</pdfrwt>
<pdfrwt beam="2">  1       -4 0.11091678E+00 0.12500458E+03</pdfrwt>
<totfact> 0.41726089E+03</totfact>
</mgrwt>
</event>
<event>
 5    1  0.3300771E-002  0.1250002E+03  0.7818608E-02  0.1235069E+00
         -4   -1    0    0    0  501 -0.00000000000E+00  0.00000000000E+00  0.54170588298E+03  0.54170737170E+03  0.12700000000E+01 0. -1.
          4   -1    0    0  501    0  0.00000000000E+00 -0.00000000000E+00 -0.71536100432E+01  0.72654687839E+01  0.12700000000E+01 0. -1.
         25    2    1    2    0    0  0.00000000000E+00  0.00000000000E+00  0.53455227294E+03  0.54897284049E+03  0.12500018835E+03 0.  0.
    9000005    1    3    3    0    0  0.26598120498E+02 -0.20009344297E+02  0.34991951212E+02  0.48303938999E+02  0.10000000000E+01 0.  0.
    9000005    1    3    3    0    0 -0.26598120498E+02  0.20009344297E+02  0.49956032173E+03  0.50066890149E+03  0.10000000000E+01 0.  0.
<mgrwt>
<rscale>  0 0.12500019E+03</rscale>
<asrwt>0</asrwt>
<pdfrwt beam="2">  1        4 0.11092743E-02 0.12500019E+03</pdfrwt>
<pdfrwt beam="1">  1       -4 0.83348094E-01 0.12500019E+03</pdfrwt>
<totfact> 0.52255377E+03</totfact>
</mgrwt>
</event>
<event>
 5    1  0.3300771E-002  0.1250065E+03  0.7818608E-02  0.1235059E+00
         -4   -1    0    0    0  501 -0.00000000000E+00  0.00000000000E+00  0.35669992813E+03  0.35670218899E+03  0.12700000000E+01 0.  1.
          4   -1    0    0  501    0  0.00000000000E+00 -0.00000000000E+00 -0.10913103688E+02  0.10986752573E+02  0.12700000000E+01 0.  1.
         25    2    1    2    0    0  0.00000000000E+00  0.00000000000E+00  0.34578682445E+03  0.36768894156E+03  0.12500651898E+03 0.  0.
    9000005    1    3    3    0    0  0.49923483668E+02 -0.36716230962E+02  0.14913903425E+03  0.16150506919E+03  0.10000000000E+01 0.  0.
    9000005    1    3    3    0    0 -0.49923483668E+02  0.36716230962E+02  0.19664779019E+03  0.20618387237E+03  0.10000000000E+01 0.  0.
<mgrwt>
<rscale>  0 0.12500652E+03</rscale>
<asrwt>0</asrwt>
<pdfrwt beam="2">  1        4 0.16847784E-02 0.12500652E+03</pdfrwt>
<pdfrwt beam="1">  1       -4 0.54882748E-01 0.12500652E+03</pdfrwt>
<totfact> 0.67811638E+03</totfact>
</mgrwt>
</event>
<event>
 5    1  0.3300771E-002  0.1250012E+03  0.7818608E-02  0.1235067E+00
          4   -1    0    0  501    0  0.00000000000E+00  0.00000000000E+00  0.34261439360E+02  0.34284969404E+02  0.12700000000E+01 0.  1.
         -4   -1    0    0    0  501 -0.00000000000E+00 -0.00000000000E+00 -0.11394904169E+03  0.11395611875E+03  0.12700000000E+01 0.  1.
         25    2    1    2    0    0  0.00000000000E+00  0.00000000000E+00 -0.79687602326E+02  0.14824108816E+03  0.12500122501E+03 0.  0.
    9000005    1    3    3    0    0  0.43599323575E+02  0.42281416278E+02 -0.57301668165E+02  0.83505091779E+02  0.10000000000E+01 0.  0.
    9000005    1    3    3    0    0 -0.43599323575E+02 -0.42281416278E+02 -0.22385934162E+02  0.64735996377E+02  0.10000000000E+01 0.  0.
<mgrwt>
<rscale>  0 0.12500123E+03</rscale>
<asrwt>0</asrwt>
<pdfrwt beam="1">  1        4 0.52733451E-02 0.12500123E+03</pdfrwt>
<pdfrwt beam="2">  1       -4 0.17532976E-01 0.12500123E+03</pdfrwt>
<totfact> 0.99652725E+03</totfact>
</mgrwt>
</event>
<event>
 5    1  0.3300771E-002  0.1249992E+03  0.7818608E-02  0.1235071E+00
         -4   -1    0    0    0  501 -0.00000000000E+00  0.00000000000E+00  0.53996566560E+01  0.55469984679E+01  0.12700000000E+01 0.  1.
          4   -1    0    0  501    0  0.00000000000E+00 -0.00000000000E+00 -0.71353107678E+03  0.71353220700E+03  0.12700000000E+01 0.  1.
         25    2    1    2    0    0  0.00000000000E+00  0.00000000000E+00 -0.70813142012E+03  0.71907920547E+03  0.12499918229E+03 0.  0.
    9000005    1    3    3    0    0  0.15451003865E+02 -0.34003417047E+02 -0.64228734367E+03  0.64337314035E+03  0.10000000000E+01 0.  0.
    9000005    1    3    3    0    0 -0.15451003865E+02  0.34003417047E+02 -0.65844076452E+02  0.75706065114E+02  0.10000000000E+01 0.  0.
<mgrwt>
<rscale>  0 0.12499918E+03</rscale>
<asrwt>0</asrwt>
<pdfrwt beam="2">  1        4 0.10978536E+00 0.12499918E+03</pdfrwt>
<pdfrwt beam="1">  1       -4 0.84213790E-03 0.12499918E+03</pdfrwt>
<totfact> 0.42099247E+03</totfact>
</mgrwt>
</event>
<event>
 5    1  0.3300771E-002  0.1249978E+03  0.7818608E-02  0.1235073E+00
         -4   -1    0    0    0  501 -0.00000000000E+00  0.00000000000E+00  0.18883302028E+02  0.18925960886E+02  0.12700000000E+01 0. -1.
          4   -1    0    0  501    0  0.00000000000E+00 -0.00000000000E+00 -0.20657734613E+03  0.20658124996E+03  0.12700000000E+01 0. -1.
         25    2    1    2    0    0  0.00000000000E+00  0.00000000000E+00 -0.18769404410E+03  0.22550721084E+03  0.12499779178E+03 0.  0.
    9000005    1    3    3    0    0 -0.40765739918E+02  0.27947040542E+02 -0.16283379702E+03  0.17017264198E+03  0.10000000000E+01 0.  0.
    9000005    1    3    3    0    0  0.40765739918E+02 -0.27947040542E+02 -0.24860247075E+02  0.55334568858E+02  0.10000000000E+01 0.  0.
<mgrwt>
<rscale>  0 0.12499779E+03</rscale>
<asrwt>0</asrwt>
<pdfrwt beam="2">  1        4 0.31784710E-01 0.12499779E+03</pdfrwt>
<pdfrwt beam="1">  1       -4 0.29087053E-02 0.12499779E+03</pdfrwt>
<totfact> 0.86008517E+03</totfact>
</mgrwt>
</event>
<event>
 5    1  0.3300771E-002  0.1250018E+03  0.7818608E-02  0.1235066E+00
         -4   -1    0    0    0  501 -0.00000000000E+00  0.00000000000E+00  0.15947586881E+02  0.15998075738E+02  0.12700000000E+01 0. -1.
          4   -1    0    0  501    0  0.00000000000E+00 -0.00000000000E+00 -0.24451088797E+03  0.24451418617E+03  0.12700000000E+01 0. -1.
         25    2    1    2    0    0  0.00000000000E+00  0.00000000000E+00 -0.22856330109E+03  0.26051226191E+03  0.12500182398E+03 0.  0.
    9000005    1    3    3    0    0 -0.27997990741E+02 -0.41970622671E+02 -0.19113666841E+03  0.19768572701E+03  0.10000000000E+01 0.  0.
    9000005    1    3    3    0    0  0.27997990741E+02  0.41970622671E+02 -0.37426632681E+02  0.62826534894E+02  0.10000000000E+01 0.  0.
<mgrwt>
<rscale>  0 0.12500182E+03</rscale>
<asrwt>0</asrwt>
<pdfrwt beam="2">  1        4 0.37621194E-01 0.12500182E+03</pdfrwt>
<pdfrwt beam="1">  1       -4 0.24576126E-02 0.12500182E+03</pdfrwt>
<totfact> 0.80830945E+03</totfact>
</mgrwt>
</event>
<event>
 5    1  0.3300771E-002  0.1249959E+03  0.7818608E-02  0.1235076E+00
         -4   -1    0    0    0  501 -0.00000000000E+00  0.00000000000E+00  0.82435765994E+02  0.82445548182E+02  0.12700000000E+01 0. -1.
          4   -1    0    0  501    0  0.00000000000E+00 -0.00000000000E+00 -0.47361191421E+02  0.47378216015E+02  0.12700000000E+01 0. -1.
         25    2    1    2    0    0  0.00000000000E+00  0.00000000000E+00  0.35074574573E+02  0.12982376420E+03  0.12499593581E+03 0.  0.
    9000005    1    3    3    0    0 -0.13021113399E+02  0.10027565712E+02  0.80156010974E+02  0.81829625219E+02  0.10000000000E+01 0.  0.
    9000005    1    3    3    0    0  0.13021113399E+02 -0.10027565712E+02 -0.45081436401E+02  0.47994138978E+02  0.10000000000E+01 0.  0.
<mgrwt>
<rscale>  0 0.12499594E+03</rscale>
<asrwt>0</asrwt>
<pdfrwt beam="2">  1        4 0.72883993E-02 0.12499594E+03</pdfrwt>
<pdfrwt beam="1">  1       -4 0.12684487E-01 0.12499594E+03</pdfrwt>
<totfact> 0.10349228E+04</totfact>
</mgrwt>
</event>
<event>
 5    1  0.3300771E-002  0.1250012E+03  0.7818608E-02  0.1235067E+00
          4   -1    0    0  501    0  0.00000000000E+00  0.00000000000E+00  0.29442345082E+03  0.29442618989E+03  0.12700000000E+01 0. -1.
         -4   -1    0    0    0  501 -0.00000000000E+00 -0.00000000000E+00 -0.13234515247E+02  0.13295310971E+02  0.12700000000E+01 0. -1.
         25    2    1    2    0    0  0.00000000000E+00  0.00000000000E+00  0.28118893557E+03  0.30772150086E+03  0.12500121840E+03 0.  0.
    9000005    1    3    3    0    0  0.58932615400E+02  0.19352152240E+02  0.15930491815E+03  0.17095793606E+03  0.10000000000E+01 0.  0.
    9000005    1    3    3    0    0 -0.58932615400E+02 -0.19352152240E+02  0.12188401742E+03  0.13676356480E+03  0.10000000000E+01 0.  0.
<mgrwt>
<rscale>  0 0.12500122E+03</rscale>
<asrwt>0</asrwt>
<pdfrwt beam="1">  1        4 0.45300807E-01 0.12500122E+03</pdfrwt>
<pdfrwt beam="2">  1       -4 0.20409664E-02 0.12500122E+03</pdfrwt>
<totfact> 0.74638342E+03</totfact>
</mgrwt>
</event>
<event>
 5    1  0.3300771E-002  0.1250194E+03  0.7818608E-02  0.1235039E+00
          4   -1    0    0  501    0  0.00000000000E+00  0.00000000000E+00  0.35390035713E+02  0.35412815869E+02  0.12700000000E+01 0.  1.
         -4   -1    0    0    0  501 -0.00000000000E+00 -0.00000000000E+00 -0.11034950647E+03  0.11035681437E+03  0.12700000000E+01 0.  1.
         25    2    1    2    0    0  0.00000000000E+00  0.00000000000E+00 -0.74959470754E+02  0.14576963024E+03  0.12501944986E+03 0.  0.
    9000005    1    3    3    0    0 -0.21180925587E+02  0.20453995696E+02  0.26802099955E+02  0.39829010917E+02  0.10000000000E+01 0.  0.
    9000005    1    3    3    0    0  0.21180925587E+02 -0.20453995696E+02 -0.10176157071E+03  0.10594061932E+03  0.10000000000E+01 0.  0.
<mgrwt>
<rscale>  0 0.12501945E+03</rscale>
<asrwt>0</asrwt>
<pdfrwt beam="1">  1        4 0.54469354E-02 0.12501945E+03</pdfrwt>
<pdfrwt beam="2">  1       -4 0.16979161E-01 0.12501945E+03</pdfrwt>
<totfact> 0.10010990E+04</totfact>
</mgrwt>
</event>
<event>
 5    1  0.3300771E-002  0.1249997E+03  0.7818608E-02  0.1235070E+00
          4   -1    0    0  501    0  0.00000000000E+00  0.00000000000E+00  0.46968365995E+02  0.46985532925E+02  0.12700000000E+01 0.  1.
         -4   -1    0    0    0  501 -0.00000000000E+00 -0.00000000000E+00 -0.83130014583E+02  0.83139715086E+02  0.12700000000E+01 0.  1.
         25    2    1    2    0    0  0.00000000000E+00  0.00000000000E+00 -0.36161648588E+02  0.13012524801E+03  0.12499966136E+03 0.  0.
    9000005    1    3    3    0    0  0.15813708021E+02 -0.42366226754E+02 -0.62980102539E+02  0.77540078970E+02  0.10000000000E+01 0.  0.
    9000005    1    3    3    0    0 -0.15813708021E+02  0.42366226754E+02  0.26818453951E+02  0.52585169041E+02  0.10000000000E+01 0.  0.
<mgrwt>
<rscale>  0 0.12499966E+03</rscale>
<asrwt>0</asrwt>
<pdfrwt beam="1">  1        4 0.72279692E-02 0.12499966E+03</pdfrwt>
<pdfrwt beam="2">  1       -4 0.12791300E-01 0.12499966E+03</pdfrwt>
<totfact> 0.10341908E+04</totfact>
</mgrwt>
</event>
<event>
 5    1  0.3300771E-002  0.1250044E+03  0.7818608E-02  0.1235062E+00
         -4   -1    0    0    0  501 -0.00000000000E+00  0.00000000000E+00  0.21081964601E+03  0.21082347128E+03  0.12700000000E+01 0.  1.
          4   -1    0    0  501    0  0.00000000000E+00 -0.00000000000E+00 -0.18504423924E+02  0.18547954194E+02  0.12700000000E+01 0.  1.
         25    2    1    2    0    0  0.00000000000E+00  0.00000000000E+00  0.19231522208E+03  0.22937142547E+03  0.12500442464E+03 0.  0.
    9000005    1    3    3    0    0  0.15212970530E+01 -0.15576942590E+02 -0.14859097997E+02  0.21604357858E+02  0.10000000000E+01 0.  0.
    9000005    1    3    3    0    0 -0.15212970530E+01  0.15576942590E+02  0.20717432008E+03  0.20776706762E+03  0.10000000000E+01 0.  0.
<mgrwt>
<rscale>  0 0.12500442E+03</rscale>
<asrwt>0</asrwt>
<pdfrwt beam="2">  1        4 0.28504774E-02 0.12500442E+03</pdfrwt>
<pdfrwt beam="1">  1       -4 0.32437432E-01 0.12500442E+03</pdfrwt>
<totfact> 0.85397778E+03</totfact>
</mgrwt>
</event>
<event>
 5    1  0.3300771E-002  0.1249995E+03  0.7818608E-02  0.1235070E+00
          4   -1    0    0  501    0  0.00000000000E+00  0.00000000000E+00  0.15761431872E+03  0.15761943524E+03  0.12700000000E+01 0. -1.
         -4   -1    0    0    0  501 -0.00000000000E+00 -0.00000000000E+00 -0.24761610856E+02  0.24794158025E+02  0.12700000000E+01 0. -1.
         25    2    1    2    0    0  0.00000000000E+00  0.00000000000E+00  0.13285270786E+03  0.18241359327E+03  0.12499950809E+03 0.  0.
    9000005    1    3    3    0    0 -0.12917303887E+02  0.28061502701E+02 -0.12846996488E+02  0.33471629664E+02  0.10000000000E+01 0.  0.
    9000005    1    3    3    0    0  0.12917303887E+02 -0.28061502701E+02  0.14569970435E+03  0.14894196360E+03  0.10000000000E+01 0.  0.
<mgrwt>
<rscale>  0 0.12499951E+03</rscale>
<asrwt>0</asrwt>
<pdfrwt beam="1">  1        4 0.24251254E-01 0.12499951E+03</pdfrwt>
<pdfrwt beam="2">  1       -4 0.38123757E-02 0.12499951E+03</pdfrwt>
<totfact> 0.93185371E+03</totfact>
</mgrwt>
</event>
<event>
 5    1  0.3300771E-002  0.1249918E+03  0.7818608E-02  0.1235082E+00
         -4   -1    0    0    0  501 -0.00000000000E+00  0.00000000000E+00  0.12002648895E+04  0.12002655614E+04  0.12700000000E+01 0. -1.
          4   -1    0    0  501    0  0.00000000000E+00 -0.00000000000E+00 -0.31294477407E+01  0.33773278138E+01  0.12700000000E+01 0. -1.
         25    2    1    2    0    0  0.00000000000E+00  0.00000000000E+00  0.11971354417E+04  0.12036428892E+04  0.12499175502E+03 0.  0.
    9000005    1    3    3    0    0  0.72001546281E+01  0.98369644929E+01  0.83851229693E+01  0.14829645455E+02  0.10000000000E+01 0.  0.
    9000005    1    3    3    0    0 -0.72001546281E+01 -0.98369644929E+01  0.11887503188E+04  0.11888132437E+04  0.10000000000E+01 0.  0.
<mgrwt>
<rscale>  0 0.12499176E+03</rscale>
<asrwt>0</asrwt>
<pdfrwt beam="2">  1        4 0.50057254E-03 0.12499176E+03</pdfrwt>
<pdfrwt beam="1">  1       -4 0.18467538E+00 0.12499176E+03</pdfrwt>
<totfact> 0.24622001E+03</totfact>
</mgrwt>
</event>
<event>
 5    1  0.3300771E-002  0.1250015E+03  0.7818608E-02  0.1235067E+00
          4   -1    0    0  501    0  0.00000000000E+00  0.00000000000E+00  0.16955527556E+02  0.17003023693E+02  0.12700000000E+01 0.  1.
         -4   -1    0    0    0  501 -0.00000000000E+00 -0.00000000000E+00 -0.23001602733E+03  0.23001953336E+03  0.12700000000E+01 0.  1.
         25    2    1    2    0    0  0.00000000000E+00  0.00000000000E+00 -0.21306049977E+03  0.24702255706E+03  0.12500146852E+03 0.  0.
    9000005    1    3    3    0    0 -0.49587685800E+02 -0.37638791243E+02 -0.95756188142E+02  0.11421849569E+03  0.10000000000E+01 0.  0.
    9000005    1    3    3    0    0  0.49587685800E+02  0.37638791243E+02 -0.11730431163E+03  0.13280406137E+03  0.10000000000E+01 0.  0.
<mgrwt>
<rscale>  0 0.12500147E+03</rscale>
<asrwt>0</asrwt>
<pdfrwt beam="1">  1        4 0.26124661E-02 0.12500147E+03</pdfrwt>
<pdfrwt beam="2">  1       -4 0.35391002E-01 0.12500147E+03</pdfrwt>
<totfact> 0.82759767E+03</totfact>
</mgrwt>
</event>
<event>
 5    1  0.3300771E-002  0.1249999E+03  0.7818608E-02  0.1235069E+00
         -4   -1    0    0    0  501 -0.00000000000E+00  0.00000000000E+00  0.24022814695E+02  0.24056361443E+02  0.12700000000E+01 0.  1.
          4   -1    0    0  501    0  0.00000000000E+00 -0.00000000000E+00 -0.16245602497E+03  0.16246098900E+03  0.12700000000E+01 0.  1.
         25    2    1    2    0    0  0.00000000000E+00  0.00000000000E+00 -0.13843321027E+03  0.18651735045E+03  0.12499987325E+03 0.  0.
    9000005    1    3    3    0    0  0.84218185476E+01  0.52489255927E+02 -0.20198193186E+02  0.56877201262E+02  0.10000000000E+01 0.  0.
    9000005    1    3    3    0    0 -0.84218185476E+01 -0.52489255927E+02 -0.11823501708E+03  0.12964014918E+03  0.10000000000E+01 0.  0.
<mgrwt>
<rscale>  0 0.12499987E+03</rscale>
<asrwt>0</asrwt>
<pdfrwt beam="2">  1        4 0.24996196E-01 0.12499987E+03</pdfrwt>
<pdfrwt beam="1">  1       -4 0.36987801E-02 0.12499987E+03</pdfrwt>
<totfact> 0.92457103E+03</totfact>
</mgrwt>
</event>
<event>
 5    1  0.3300771E-002  0.1250031E+03  0.7818608E-02  0.1235064E+00
          4   -1    0    0  501    0  0.00000000000E+00  0.00000000000E+00  0.12981879278E+03  0.12982500475E+03  0.12700000000E+01 0. -1.
         -4   -1    0    0    0  501 -0.00000000000E+00 -0.00000000000E+00 -0.30071160583E+02  0.30097966688E+02  0.12700000000E+01 0. -1.
         25    2    1    2    0    0  0.00000000000E+00  0.00000000000E+00  0.99747632200E+02  0.15992297144E+03  0.12500306662E+03 0.  0.
    9000005    1    3    3    0    0  0.18719665832E+02  0.56805811767E+02  0.73047953332E+02  0.94415727638E+02  0.10000000000E+01 0.  0.
    9000005    1    3    3    0    0 -0.18719665832E+02 -0.56805811767E+02  0.26699678867E+02  0.65507243805E+02  0.10000000000E+01 0.  0.
<mgrwt>
<rscale>  0 0.12500307E+03</rscale>
<asrwt>0</asrwt>
<pdfrwt beam="1">  1        4 0.19974662E-01 0.12500307E+03</pdfrwt>
<pdfrwt beam="2">  1       -4 0.46288722E-02 0.12500307E+03</pdfrwt>
<totfact> 0.97350927E+03</totfact>
</mgrwt>
</event>
<event>
 5    1  0.3300771E-002  0.1249961E+03  0.7818608E-02  0.1235075E+00
          4   -1    0    0  501    0  0.00000000000E+00  0.00000000000E+00  0.33264328390E+03  0.33264570826E+03  0.12700000000E+01 0. -1.
         -4   -1    0    0    0  501 -0.00000000000E+00 -0.00000000000E+00 -0.11705518947E+02  0.11774212238E+02  0.12700000000E+01 0. -1.
         25    2    1    2    0    0  0.00000000000E+00  0.00000000000E+00  0.32093776495E+03  0.34441992049E+03  0.12499613059E+03 0.  0.
    9000005    1    3    3    0    0 -0.90569058748E+01  0.58314211878E+02  0.21710203968E+03  0.22498193369E+03  0.10000000000E+01 0.  0.
    9000005    1    3    3    0    0  0.90569058748E+01 -0.58314211878E+02  0.10383572526E+03  0.11943798681E+03  0.10000000000E+01 0.  0.
<mgrwt>
<rscale>  0 0.12499613E+03</rscale>
<asrwt>0</asrwt>
<pdfrwt beam="1">  1        4 0.51181357E-01 0.12499613E+03</pdfrwt>
<pdfrwt beam="2">  1       -4 0.18063198E-02 0.12499613E+03</pdfrwt>
<totfact> 0.70348853E+03</totfact>
</mgrwt>
</event>
<event>
 5    1  0.3300771E-002  0.1250248E+03  0.7818608E-02  0.1235031E+00
         -4   -1    0    0    0  501 -0.00000000000E+00  0.00000000000E+00  0.42176013138E+02  0.42195129864E+02  0.12700000000E+01 0. -1.
          4   -1    0    0  501    0  0.00000000000E+00 -0.00000000000E+00 -0.92610029825E+02  0.92618737436E+02  0.12700000000E+01 0. -1.
         25    2    1    2    0    0  0.00000000000E+00  0.00000000000E+00 -0.50434016687E+02  0.13481386730E+03  0.12502475266E+03 0.  0.
    9000005    1    3    3    0    0 -0.71632960040E+01  0.57942422356E+02 -0.49284067345E+02  0.76410447009E+02  0.10000000000E+01 0.  0.
    9000005    1    3    3    0    0  0.71632960040E+01 -0.57942422356E+02 -0.11499493419E+01  0.58403420290E+02  0.10000000000E+01 0.  0.
<mgrwt>
<rscale>  0 0.12502475E+03</rscale>
<asrwt>0</asrwt>
<pdfrwt beam="2">  1        4 0.14249837E-01 0.12502475E+03</pdfrwt>
<pdfrwt beam="1">  1       -4 0.64907577E-02 0.12502475E+03</pdfrwt>
<totfact> 0.10236280E+04</totfact>
</mgrwt>
</event>
<event>
 5    1  0.3300771E-002  0.1249953E+03  0.7818608E-02  0.1235077E+00
          4   -1    0    0  501    0  0.00000000000E+00  0.00000000000E+00  0.51463607889E+01  0.53007480010E+01  0.12700000000E+01 0.  1.
         -4   -1    0    0    0  501 -0.00000000000E+00 -0.00000000000E+00 -0.74760310591E+03  0.74760418463E+03  0.12700000000E+01 0.  1.
         25    2    1    2    0    0  0.00000000000E+00  0.00000000000E+00 -0.74245674512E+03  0.75290493263E+03  0.12499527669E+03 0.  0.
    9000005    1    3    3    0    0 -0.61268624994E+02 -0.81186392220E+01 -0.31563007901E+03  0.32162571957E+03  0.10000000000E+01 0.  0.
    9000005    1    3    3    0    0  0.61268624994E+02  0.81186392220E+01 -0.42682666611E+03  0.43127921306E+03  0.10000000000E+01 0.  0.
<mgrwt>
<rscale>  0 0.12499528E+03</rscale>
<asrwt>0</asrwt>
<pdfrwt beam="1">  1        4 0.80370732E-03 0.12499528E+03</pdfrwt>
<pdfrwt beam="2">  1       -4 0.11502774E+00 0.12499528E+03</pdfrwt>
<totfact> 0.40439778E+03</totfact>
</mgrwt>
</event>
<event>
 5    1  0.3300771E-002  0.1250013E+03  0.7818608E-02  0.1235067E+00
         -4   -1    0    0    0  501 -0.00000000000E+00  0.00000000000E+00  0.54344787946E+02  0.54359625430E+02  0.12700000000E+01 0.  1.
          4   -1    0    0  501    0  0.00000000000E+00 -0.00000000000E+00 -0.71850278784E+02  0.71861501942E+02  0.12700000000E+01 0.  1.
         25    2    1    2    0    0  0.00000000000E+00  0.00000000000E+00 -0.17505490839E+02  0.12622112737E+03  0.12500132314E+03 0.  0.
    9000005    1    3    3    0    0 -0.81256863454E+01 -0.46928657771E+02  0.32102019207E+02  0.57444454353E+02  0.10000000000E+01 0.  0.
    9000005    1    3    3    0    0  0.81256863454E+01  0.46928657771E+02 -0.49607510045E+02  0.68776673019E+02  0.10000000000E+01 0.  0.
<mgrwt>
<rscale>  0 0.12500132E+03</rscale>
<asrwt>0</asrwt>
<pdfrwt beam="2">  1        4 0.11055894E-01 0.12500132E+03</pdfrwt>
<pdfrwt beam="1">  1       -4 0.83627413E-02 0.12500132E+03</pdfrwt>
<totfact> 0.10425806E+04</totfact>
</mgrwt>
</event>
<event>
 5    1  0.3300771E-002  0.1249903E+03  0.7818608E-02  0.1235085E+00
         -4   -1    0    0    0  501 -0.00000000000E+00  0.00000000000E+00  0.16655446971E+03  0.16655931160E+03  0.12700000000E+01 0.  1.
          4   -1    0    0  501    0  0.00000000000E+00 -0.00000000000E+00 -0.23427248404E+02  0.23461646741E+02  0.12700000000E+01 0.  1.
         25    2    1    2    0    0  0.00000000000E+00  0.00000000000E+00  0.14312722131E+03  0.19002095834E+03  0.12499025214E+03 0.  0.
    9000005    1    3    3    0    0  0.10504308302E+02 -0.61449507396E+02  0.65067462966E+02  0.90117463285E+02  0.10000000000E+01 0.  0.
    9000005    1    3    3    0    0 -0.10504308302E+02  0.61449507396E+02  0.78059758340E+02  0.99903495055E+02  0.10000000000E+01 0.  0.
<mgrwt>
<rscale>  0 0.12499025E+03</rscale>
<asrwt>0</asrwt>
<pdfrwt beam="2">  1        4 0.36072105E-02 0.12499025E+03</pdfrwt>
<pdfrwt beam="1">  1       -4 0.25626783E-01 0.12499025E+03</pdfrwt>
<totfact> 0.91863724E+03</totfact>
</mgrwt>
</event>
<event>
 5    1  0.3300771E-002  0.1249990E+03  0.7818608E-02  0.1235071E+00
         -4   -1    0    0    0  501 -0.00000000000E+00  0.00000000000E+00  0.15282406757E+03  0.15282934446E+03  0.12700000000E+01 0. -1.
          4   -1    0    0  501    0  0.00000000000E+00 -0.00000000000E+00 -0.25538534953E+02  0.25570093225E+02  0.12700000000E+01 0. -1.
         25    2    1    2    0    0  0.00000000000E+00  0.00000000000E+00  0.12728553262E+03  0.17839943769E+03  0.12499901021E+03 0.  0.
    9000005    1    3    3    0    0 -0.48247082650E+02 -0.27739304949E+02  0.23075480163E+02  0.60255520976E+02  0.10000000000E+01 0.  0.
    9000005    1    3    3    0    0  0.48247082650E+02  0.27739304949E+02  0.10421005246E+03  0.11814391671E+03  0.10000000000E+01 0.  0.
<mgrwt>
<rscale>  0 0.12499901E+03</rscale>
<asrwt>0</asrwt>
<pdfrwt beam="2">  1        4 0.39318389E-02 0.12499901E+03</pdfrwt>
<pdfrwt beam="1">  1       -4 0.23514228E-01 0.12499901E+03</pdfrwt>
<totfact> 0.93907990E+03</totfact>
</mgrwt>
</event>
<event>
 5    1  0.3300771E-002  0.1249949E+03  0.7818608E-02  0.1235077E+00
          4   -1    0    0  501    0  0.00000000000E+00  0.00000000000E+00  0.20794395350E+03  0.20794783168E+03  0.12700000000E+01 0. -1.
         -4   -1    0    0    0  501 -0.00000000000E+00 -0.00000000000E+00 -0.18758063080E+02  0.18801006104E+02  0.12700000000E+01 0. -1.
         25    2    1    2    0    0  0.00000000000E+00  0.00000000000E+00  0.18918589042E+03  0.22674883778E+03  0.12499493709E+03 0.  0.
    9000005    1    3    3    0    0 -0.48534696780E+01  0.62152243821E+02  0.86795424003E+02  0.10686862593E+03  0.10000000000E+01 0.  0.
    9000005    1    3    3    0    0  0.48534696780E+01 -0.62152243821E+02  0.10239046642E+03  0.11988021185E+03  0.10000000000E+01 0.  0.
<mgrwt>
<rscale>  0 0.12499494E+03</rscale>
<asrwt>0</asrwt>
<pdfrwt beam="1">  1        4 0.31994979E-01 0.12499494E+03</pdfrwt>
<pdfrwt beam="2">  1       -4 0.28894575E-02 0.12499494E+03</pdfrwt>
<totfact> 0.85821025E+03</totfact>
</mgrwt>
</event>
<event>
 5    1  0.3300771E-002  0.1249994E+03  0.7818608E-02  0.1235070E+00
          4   -1    0    0  501    0  0.00000000000E+00  0.00000000000E+00  0.29017473913E+01  0.31674971070E+01  0.12700000000E+01 0.  1.
         -4   -1    0    0    0  501 -0.00000000000E+00 -0.00000000000E+00 -0.12869491972E+04  0.12869498238E+04  0.12700000000E+01 0.  1.
         25    2    1    2    0    0  0.00000000000E+00  0.00000000000E+00 -0.12840474498E+04  0.12901173209E+04  0.12499939375E+03 0.  0.
    9000005    1    3    3    0    0 -0.59592949045E+02 -0.18580900208E+02 -0.67236581887E+03  0.67525799796E+03  0.10000000000E+01 0.  0.
    9000005    1    3    3    0    0  0.59592949045E+02  0.18580900208E+02 -0.61168163091E+03  0.61485932295E+03  0.10000000000E+01 0.  0.
<mgrwt>
<rscale>  0 0.12499939E+03</rscale>
<asrwt>0</asrwt>
<pdfrwt beam="1">  1        4 0.46691419E-03 0.12499939E+03</pdfrwt>
<pdfrwt beam="2">  1       -4 0.19801224E+00 0.12499939E+03</pdfrwt>
<totfact> 0.22463336E+03</totfact>
</mgrwt>
</event>
<event>
 5    1  0.3300771E-002  0.1250015E+03  0.7818608E-02  0.1235067E+00
         -4   -1    0    0    0  501 -0.00000000000E+00  0.00000000000E+00  0.26274739264E+03  0.26275046192E+03  0.12700000000E+01 0.  1.
          4   -1    0    0  501    0  0.00000000000E+00 -0.00000000000E+00 -0.14837006724E+02  0.14891261482E+02  0.12700000000E+01 0.  1.
         25    2    1    2    0    0  0.00000000000E+00  0.00000000000E+00  0.24791038592E+03  0.27764172340E+03  0.12500146851E+03 0.  0.
    9000005    1    3    3    0    0  0.18827024954E+02  0.59248958481E+02  0.13808078002E+03  0.15143380653E+03  0.10000000000E+01 0.  0.
    9000005    1    3    3    0    0 -0.18827024954E+02 -0.59248958481E+02  0.10982960590E+03  0.12620791687E+03  0.10000000000E+01 0.  0.
<mgrwt>
<rscale>  0 0.12500147E+03</rscale>
<asrwt>0</asrwt>
<pdfrwt beam="2">  1        4 0.22870260E-02 0.12500147E+03</pdfrwt>
<pdfrwt beam="1">  1       -4 0.40427084E-01 0.12500147E+03</pdfrwt>
<totfact> 0.78489275E+03</totfact>
</mgrwt>
</event>
<event>
 5    1  0.3300771E-002  0.1250207E+03  0.7818608E-02  0.1235037E+00
          4   -1    0    0  501    0  0.00000000000E+00  0.00000000000E+00  0.15163424973E+02  0.15216515926E+02  0.12700000000E+01 0.  1.
         -4   -1    0    0    0  501 -0.00000000000E+00 -0.00000000000E+00 -0.25719022746E+03  0.25719336306E+03  0.12700000000E+01 0.  1.
         25    2    1    2    0    0  0.00000000000E+00  0.00000000000E+00 -0.24202680249E+03  0.27240987898E+03  0.12502067447E+03 0.  0.
    9000005    1    3    3    0    0  0.50894024679E+00 -0.45570812256E+02 -0.21421368391E+03  0.21901018315E+03  0.10000000000E+01 0.  0.
    9000005    1    3    3    0    0 -0.50894024679E+00  0.45570812256E+02 -0.27813118574E+02  0.53399695830E+02  0.10000000000E+01 0.  0.
<mgrwt>
<rscale>  0 0.12502067E+03</rscale>
<asrwt>0</asrwt>
<pdfrwt beam="1">  1        4 0.23371599E-02 0.12502067E+03</pdfrwt>
<pdfrwt beam="2">  1       -4 0.39572049E-01 0.12502067E+03</pdfrwt>
<totfact> 0.79158983E+03</totfact>
</mgrwt>
</event>
<event>
 5    1  0.3300771E-002  0.1250036E+03  0.7818608E-02  0.1235064E+00
         -4   -1    0    0    0  501 -0.00000000000E+00  0.00000000000E+00  0.14574909563E+03  0.14575462866E+03  0.12700000000E+01 0.  1.
          4   -1    0    0  501    0  0.00000000000E+00 -0.00000000000E+00 -0.26781656242E+02  0.26811751362E+02  0.12700000000E+01 0.  1.
         25    2    1    2    0    0  0.00000000000E+00  0.00000000000E+00  0.11896743938E+03  0.17256638002E+03  0.12500361547E+03 0.  0.
    9000005    1    3    3    0    0 -0.19026425962E+02 -0.52769480705E+02  0.21454935595E+02  0.60066107249E+02  0.10000000000E+01 0.  0.
    9000005    1    3    3    0    0  0.19026425962E+02  0.52769480705E+02  0.97512503789E+02  0.11250027277E+03  0.10000000000E+01 0.  0.
<mgrwt>
<rscale>  0 0.12500362E+03</rscale>
<asrwt>0</asrwt>
<pdfrwt beam="2">  1        4 0.41229954E-02 0.12500362E+03</pdfrwt>
<pdfrwt beam="1">  1       -4 0.22425679E-01 0.12500362E+03</pdfrwt>
<totfact> 0.94964747E+03</totfact>
</mgrwt>
</event>
<event>
 5    1  0.3300771E-002  0.1250054E+03  0.7818608E-02  0.1235061E+00
         -4   -1    0    0    0  501 -0.00000000000E+00  0.00000000000E+00  0.88797147941E+03  0.88797238760E+03  0.12700000000E+01 0. -1.
          4   -1    0    0  501    0  0.00000000000E+00 -0.00000000000E+00 -0.43068664947E+01  0.44902114653E+01  0.12700000000E+01 0. -1.
         25    2    1    2    0    0  0.00000000000E+00  0.00000000000E+00  0.88366461292E+03  0.89246259907E+03  0.12500537035E+03 0.  0.
    9000005    1    3    3    0    0 -0.60507346980E+02  0.14977861091E+01  0.55294184381E+03  0.55624550788E+03  0.10000000000E+01 0.  0.
    9000005    1    3    3    0    0  0.60507346980E+02 -0.14977861091E+01  0.33072276911E+03  0.33621709119E+03  0.10000000000E+01 0.  0.
<mgrwt>
<rscale>  0 0.12500537E+03</rscale>
<asrwt>0</asrwt>
<pdfrwt beam="2">  1        4 0.67676908E-03 0.12500537E+03</pdfrwt>
<pdfrwt beam="1">  1       -4 0.13662499E+00 0.12500537E+03</pdfrwt>
<totfact> 0.34445789E+03</totfact>
</mgrwt>
</event>
<event>
 5    1  0.3300771E-002  0.1250002E+03  0.7818608E-02  0.1235069E+00
         -4   -1    0    0    0  501 -0.00000000000E+00  0.00000000000E+00  0.46256728616E+02  0.46274159552E+02  0.12700000000E+01 0. -1.
          4   -1    0    0  501    0  0.00000000000E+00 -0.00000000000E+00 -0.84409389412E+02  0.84418942904E+02  0.12700000000E+01 0. -1.
         25    2    1    2    0    0  0.00000000000E+00  0.00000000000E+00 -0.38152660796E+02  0.13069310246E+03  0.12500024601E+03 0.  0.
    9000005    1    3    3    0    0  0.37459887574E+02 -0.37624331382E+02 -0.53538534618E+02  0.75406950462E+02  0.10000000000E+01 0.  0.
    9000005    1    3    3    0    0 -0.37459887574E+02  0.37624331382E+02  0.15385873822E+02  0.55286151994E+02  0.10000000000E+01 0.  0.
<mgrwt>
<rscale>  0 0.12500025E+03</rscale>
<asrwt>0</asrwt>
<pdfrwt beam="2">  1        4 0.12988136E-01 0.12500025E+03</pdfrwt>
<pdfrwt beam="1">  1       -4 0.71184955E-02 0.12500025E+03</pdfrwt>
<totfact> 0.10329616E+04</totfact>
</mgrwt>
</event>
<event>
 5    1  0.3300771E-002  0.1249992E+03  0.7818608E-02  0.1235071E+00
          4   -1    0    0  501    0  0.00000000000E+00  0.00000000000E+00  0.73660989662E+02  0.73671936977E+02  0.12700000000E+01 0. -1.
         -4   -1    0    0    0  501 -0.00000000000E+00 -0.00000000000E+00 -0.53006913125E+02  0.53022124995E+02  0.12700000000E+01 0. -1.
         25    2    1    2    0    0  0.00000000000E+00  0.00000000000E+00  0.20654076537E+02  0.12669406197E+03  0.12499917784E+03 0.  0.
    9000005    1    3    3    0    0 -0.16512321261E+02 -0.28102025177E+02 -0.43713993915E+02  0.54537086799E+02  0.10000000000E+01 0.  0.
    9000005    1    3    3    0    0  0.16512321261E+02  0.28102025177E+02  0.64368070452E+02  0.72156975174E+02  0.10000000000E+01 0.  0.
<mgrwt>
<rscale>  0 0.12499918E+03</rscale>
<asrwt>0</asrwt>
<pdfrwt beam="1">  1        4 0.11334472E-01 0.12499918E+03</pdfrwt>
<pdfrwt beam="2">  1       -4 0.81569220E-02 0.12499918E+03</pdfrwt>
<totfact> 0.10415993E+04</totfact>
</mgrwt>
</event>
<event>
 5    1  0.3300771E-002  0.1250025E+03  0.7818608E-02  0.1235065E+00
          4   -1    0    0  501    0  0.00000000000E+00  0.00000000000E+00  0.31738466042E+02  0.31763865110E+02  0.12700000000E+01 0.  1.
         -4   -1    0    0    0  501 -0.00000000000E+00 -0.00000000000E+00 -0.12300320580E+03  0.12300976196E+03  0.12700000000E+01 0.  1.
         25    2    1    2    0    0  0.00000000000E+00  0.00000000000E+00 -0.91264739759E+02  0.15477362707E+03  0.12500249163E+03 0.  0.
    9000005    1    3    3    0    0 -0.46877564202E+02 -0.14095298041E+02  0.24687174651E+01  0.49023239573E+02  0.10000000000E+01 0.  0.
    9000005    1    3    3    0    0  0.46877564202E+02  0.14095298041E+02 -0.93733457224E+02  0.10575038750E+03  0.10000000000E+01 0.  0.
<mgrwt>
<rscale>  0 0.12500249E+03</rscale>
<asrwt>0</asrwt>
<pdfrwt beam="1">  1        4 0.48852991E-02 0.12500249E+03</pdfrwt>
<pdfrwt beam="2">  1       -4 0.18926028E-01 0.12500249E+03</pdfrwt>
<totfact> 0.98354445E+03</totfact>
</mgrwt>
</event>
<event>
 5    1  0.3300771E-002  0.1250054E+03  0.7818608E-02  0.1235061E+00
          4   -1    0    0  501    0  0.00000000000E+00  0.00000000000E+00  0.13160067323E+03  0.13160680109E+03  0.12700000000E+01 0.  1.
         -4   -1    0    0    0  501 -0.00000000000E+00 -0.00000000000E+00 -0.29664772678E+02  0.29691945677E+02  0.12700000000E+01 0.  1.
         25    2    1    2    0    0  0.00000000000E+00  0.00000000000E+00  0.10193590055E+03  0.16129874677E+03  0.12500543144E+03 0.  0.
    9000005    1    3    3    0    0 -0.46839965462E+02 -0.38687343568E+02  0.32052493344E+02  0.68695380096E+02  0.10000000000E+01 0.  0.
    9000005    1    3    3    0    0  0.46839965462E+02  0.38687343568E+02  0.69883407206E+02  0.92603366675E+02  0.10000000000E+01 0.  0.
<mgrwt>
<rscale>  0 0.12500543E+03</rscale>
<asrwt>0</asrwt>
<pdfrwt beam="1">  1        4 0.20248819E-01 0.12500543E+03</pdfrwt>
<pdfrwt beam="2">  1       -4 0.45663728E-02 0.12500543E+03</pdfrwt>
<totfact> 0.97081129E+03</totfact>
</mgrwt>
</event>
<event>
 5    1  0.3300771E-002  0.1249941E+03  0.7818608E-02  0.1235078E+00
         -4   -1    0    0    0  501 -0.00000000000E+00  0.00000000000E+00  0.18053076185E+03  0.18053522890E+03  0.12700000000E+01 0. -1.
          4   -1    0    0  501    0  0.00000000000E+00 -0.00000000000E+00 -0.21612171467E+02  0.21649453931E+02  0.12700000000E+01 0. -1.
         25    2    1    2    0    0  0.00000000000E+00  0.00000000000E+00  0.15891859038E+03  0.20218468283E+03  0.12499411027E+03 0.  0.
    9000005    1    3    3    0    0 -0.55814383870E+02 -0.25329440496E+02  0.59777189578E+02  0.85622067228E+02  0.10000000000E+01 0.  0.
    9000005    1    3    3    0    0  0.55814383870E+02  0.25329440496E+02  0.99141400803E+02  0.11656261560E+03  0.10000000000E+01 0.  0.
<mgrwt>
<rscale>  0 0.12499411E+03</rscale>
<asrwt>0</asrwt>
<pdfrwt beam="2">  1        4 0.33281609E-02 0.12499411E+03</pdfrwt>
<pdfrwt beam="1">  1       -4 0.27777176E-01 0.12499411E+03</pdfrwt>
<totfact> 0.89780174E+03</totfact>
</mgrwt>
</event>
<event>
 5    1  0.3300771E-002  0.1249996E+03  0.7818608E-02  0.1235070E+00
          4   -1    0    0  501    0  0.00000000000E+00  0.00000000000E+00  0.75659476698E+02  0.75670134889E+02  0.12700000000E+01 0.  1.
         -4   -1    0    0    0  501 -0.00000000000E+00 -0.00000000000E+00 -0.51606903115E+02  0.51622527535E+02  0.12700000000E+01 0.  1.
         25    2    1    2    0    0  0.00000000000E+00  0.00000000000E+00  0.24052573583E+02  0.12729266242E+03  0.12499958244E+03 0.  0.
    9000005    1    3    3    0    0  0.45679979853E+01 -0.14887505964E+02 -0.49604347304E+02  0.52000920288E+02  0.10000000000E+01 0.  0.
    9000005    1    3    3    0    0 -0.45679979853E+01  0.14887505964E+02  0.73656920886E+02  0.75291742136E+02  0.10000000000E+01 0.  0.
<mgrwt>
<rscale>  0 0.12499958E+03</rscale>
<asrwt>0</asrwt>
<pdfrwt beam="1">  1        4 0.11641941E-01 0.12499958E+03</pdfrwt>
<pdfrwt beam="2">  1       -4 0.79415453E-02 0.12499958E+03</pdfrwt>
<totfact> 0.10402892E+04</totfact>
</mgrwt>
</event>
<event>
 5    1  0.3300771E-002  0.1249907E+03  0.7818608E-02  0.1235084E+00
         -4   -1    0    0    0  501 -0.00000000000E+00  0.00000000000E+00  0.75109753034E+03  0.75109860404E+03  0.12700000000E+01 0.  1.
          4   -1    0    0  501    0  0.00000000000E+00 -0.00000000000E+00 -0.51213105652E+01  0.52764307922E+01  0.12700000000E+01 0.  1.
         25    2    1    2    0    0  0.00000000000E+00  0.00000000000E+00  0.74597621978E+03  0.75637503483E+03  0.12499069101E+03 0.  0.
    9000005    1    3    3    0    0  0.54097714946E+02 -0.29186836581E+02  0.30499769053E+03  0.31113184572E+03  0.10000000000E+01 0.  0.
    9000005    1    3    3    0    0 -0.54097714946E+02  0.29186836581E+02  0.44097852925E+03  0.44524318911E+03  0.10000000000E+01 0.  0.
<mgrwt>
<rscale>  0 0.12499069E+03</rscale>
<asrwt>0</asrwt>
<pdfrwt beam="2">  1        4 0.79990912E-03 0.12499069E+03</pdfrwt>
<pdfrwt beam="1">  1       -4 0.11556544E+00 0.12499069E+03</pdfrwt>
<totfact> 0.40279268E+03</totfact>
</mgrwt>
</event>
<event>
 5    1  0.3300771E-002  0.1250010E+03  0.7818608E-02  0.1235068E+00
         -4   -1    0    0    0  501 -0.00000000000E+00  0.00000000000E+00  0.10695169525E+02  0.10770308778E+02  0.12700000000E+01 0. -1.
          4   -1    0    0  501    0  0.00000000000E+00 -0.00000000000E+00 -0.36388577854E+03  0.36388799475E+03  0.12700000000E+01 0. -1.
         25    2    1    2    0    0  0.00000000000E+00  0.00000000000E+00 -0.35319060901E+03  0.37465830353E+03  0.12500095242E+03 0.  0.
    9000005    1    3    3    0    0  0.46341544878E+02  0.15298154446E+02 -0.59597670942E+02  0.77035411940E+02  0.10000000000E+01 0.  0.
    9000005    1    3    3    0    0 -0.46341544878E+02 -0.15298154446E+02 -0.29359293807E+03  0.29762289159E+03  0.10000000000E+01 0.  0.
<mgrwt>
<rscale>  0 0.12500095E+03</rscale>
<asrwt>0</asrwt>
<pdfrwt beam="2">  1        4 0.55988369E-01 0.12500095E+03</pdfrwt>
<pdfrwt beam="1">  1       -4 0.16513614E-02 0.12500095E+03</pdfrwt>
<totfact> 0.67092983E+03</totfact>
</mgrwt>
</event>
<event>
 5    1  0.3300771E-002  0.1250000E+03  0.7818608E-02  0.1235069E+00
          4   -1    0    0  501    0  0.00000000000E+00  0.00000000000E+00  0.16401898673E+02  0.16450993286E+02  0.12700000000E+01 0. -1.
         -4   -1    0    0    0  501 -0.00000000000E+00 -0.00000000000E+00 -0.23775189784E+03  0.23775528980E+03  0.12700000000E+01 0. -1.
         25    2    1    2    0    0  0.00000000000E+00  0.00000000000E+00 -0.22134999917E+03  0.25420628308E+03  0.12500004891E+03 0.  0.
    9000005    1    3    3    0    0 -0.61501726556E+02 -0.10838776141E+02 -0.11536194141E+03  0.13118429389E+03  0.10000000000E+01 0.  0.
    9000005    1    3    3    0    0  0.61501726556E+02  0.10838776141E+02 -0.10598805775E+03  0.12302198919E+03  0.10000000000E+01 0.  0.
<mgrwt>
<rscale>  0 0.12500005E+03</rscale>
<asrwt>0</asrwt>
<pdfrwt beam="1">  1        4 0.25274066E-02 0.12500005E+03</pdfrwt>
<pdfrwt beam="2">  1       -4 0.36581250E-01 0.12500005E+03</pdfrwt>
<totfact> 0.81725977E+03</totfact>
</mgrwt>
</event>
<event>
 5    1  0.3300771E-002  0.1249884E+03  0.7818608E-02  0.1235087E+00
         -4   -1    0    0    0  501 -0.00000000000E+00  0.00000000000E+00  0.54462225752E+02  0.54477031251E+02  0.12700000000E+01 0.  1.
          4   -1    0    0  501    0  0.00000000000E+00 -0.00000000000E+00 -0.71680514246E+02  0.71691763980E+02  0.12700000000E+01 0.  1.
         25    2    1    2    0    0  0.00000000000E+00  0.00000000000E+00 -0.17218288494E+02  0.12616879523E+03  0.12498838119E+03 0.  0.
    9000005    1    3    3    0    0  0.41745726673E+02  0.46396134561E+02 -0.55445441339E+01  0.62666170836E+02  0.10000000000E+01 0.  0.
    9000005    1    3    3    0    0 -0.41745726673E+02 -0.46396134561E+02 -0.11673744360E+02  0.63502624395E+02  0.10000000000E+01 0.  0.
<mgrwt>
<rscale>  0 0.12498838E+03</rscale>
<asrwt>0</asrwt>
<pdfrwt beam="2">  1        4 0.11029776E-01 0.12498838E+03</pdfrwt>
<pdfrwt beam="1">  1       -4 0.83808082E-02 0.12498838E+03</pdfrwt>
<totfact> 0.10429996E+04</totfact>
</mgrwt>
</event>
<event>
 5    1  0.3300771E-002  0.1249978E+03  0.7818608E-02  0.1235073E+00
         -4   -1    0    0    0  501 -0.00000000000E+00  0.00000000000E+00  0.30881464188E+02  0.30907567527E+02  0.12700000000E+01 0.  1.
          4   -1    0    0  501    0  0.00000000000E+00 -0.00000000000E+00 -0.12640457243E+03  0.12641095218E+03  0.12700000000E+01 0.  1.
         25    2    1    2    0    0  0.00000000000E+00  0.00000000000E+00 -0.95523108238E+02  0.15731851970E+03  0.12499780972E+03 0.  0.
    9000005    1    3    3    0    0  0.53241480310E+02 -0.98118390564E+01 -0.87043982075E+02  0.10251137608E+03  0.10000000000E+01 0.  0.
    9000005    1    3    3    0    0 -0.53241480310E+02  0.98118390564E+01 -0.84791261634E+01  0.54807143620E+02  0.10000000000E+01 0.  0.
<mgrwt>
<rscale>  0 0.12499781E+03</rscale>
<asrwt>0</asrwt>
<pdfrwt beam="2">  1        4 0.19449356E-01 0.12499781E+03</pdfrwt>
<pdfrwt beam="1">  1       -4 0.47534932E-02 0.12499781E+03</pdfrwt>
<totfact> 0.97867078E+03</totfact>
</mgrwt>
</event>
<event>
 5    1  0.3300771E-002  0.1250007E+03  0.7818608E-02  0.1235068E+00
         -4   -1    0    0    0  501 -0.00000000000E+00  0.00000000000E+00  0.14195226062E+03  0.14195794164E+03  0.12700000000E+01 0.  1.
          4   -1    0    0  501    0  0.00000000000E+00 -0.00000000000E+00 -0.27497454698E+02  0.27526767244E+02  0.12700000000E+01 0.  1.
         25    2    1    2    0    0  0.00000000000E+00  0.00000000000E+00  0.11445480592E+03  0.16948470889E+03  0.12500065579E+03 0.  0.
    9000005    1    3    3    0    0  0.10476123077E+02  0.43044654067E+02 -0.25340371445E+01  0.44384825590E+02  0.10000000000E+01 0.  0.
    9000005    1    3    3    0    0 -0.10476123077E+02 -0.43044654067E+02  0.11698884307E+03  0.12509988330E+03  0.10000000000E+01 0.  0.
<mgrwt>
<rscale>  0 0.12500066E+03</rscale>
<asrwt>0</asrwt>
<pdfrwt beam="2">  1        4 0.42330694E-02 0.12500066E+03</pdfrwt>
<pdfrwt beam="1">  1       -4 0.21841501E-01 0.12500066E+03</pdfrwt>
<totfact> 0.95543329E+03</totfact>
</mgrwt>
</event>
<event>
 5    1  0.3300771E-002  0.1249966E+03  0.7818608E-02  0.1235075E+00
         -4   -1    0    0    0  501 -0.00000000000E+00  0.00000000000E+00  0.86035321302E+02  0.86044694267E+02  0.12700000000E+01 0. -1.
          4   -1    0    0  501    0  0.00000000000E+00 -0.00000000000E+00 -0.45379681079E+02  0.45397448770E+02  0.12700000000E+01 0. -1.
         25    2    1    2    0    0  0.00000000000E+00  0.00000000000E+00  0.40655640223E+02  0.13144214304E+03  0.12499662349E+03 0.  0.
    9000005    1    3    3    0    0  0.10010211238E+02 -0.23370394524E+02  0.80356090198E+02  0.84288082794E+02  0.10000000000E+01 0.  0.
    9000005    1    3    3    0    0 -0.10010211238E+02  0.23370394524E+02 -0.39700449975E+02  0.47154060243E+02  0.10000000000E+01 0.  0.
<mgrwt>
<rscale>  0 0.12499662E+03</rscale>
<asrwt>0</asrwt>
<pdfrwt beam="2">  1        4 0.69835773E-02 0.12499662E+03</pdfrwt>
<pdfrwt beam="1">  1       -4 0.13238291E-01 0.12499662E+03</pdfrwt>
<totfact> 0.10314406E+04</totfact>
</mgrwt>
</event>
<event>
 5    1  0.3300771E-002  0.1249912E+03  0.7818608E-02  0.1235083E+00
         -4   -1    0    0    0  501 -0.00000000000E+00  0.00000000000E+00  0.47153676630E+02  0.47170776120E+02  0.12700000000E+01 0. -1.
          4   -1    0    0  501    0  0.00000000000E+00 -0.00000000000E+00 -0.82792181252E+02  0.82801921333E+02  0.12700000000E+01 0. -1.
         25    2    1    2    0    0  0.00000000000E+00  0.00000000000E+00 -0.35638504622E+02  0.12997269745E+03  0.12499119598E+03 0.  0.
    9000005    1    3    3    0    0 -0.15978435058E+02 -0.60377254344E+02 -0.15745650698E+02  0.64417767308E+02  0.10000000000E+01 0.  0.
    9000005    1    3    3    0    0  0.15978435058E+02  0.60377254344E+02 -0.19892853924E+02  0.65554930145E+02  0.10000000000E+01 0.  0.
<mgrwt>
<rscale>  0 0.12499120E+03</rscale>
<asrwt>0</asrwt>
<pdfrwt beam="2">  1        4 0.12739323E-01 0.12499120E+03</pdfrwt>
<pdfrwt beam="1">  1       -4 0.72564764E-02 0.12499120E+03</pdfrwt>
<totfact> 0.10347148E+04</totfact>
</mgrwt>
</event>
<event>
 5    1  0.3300771E-002  0.1249992E+03  0.7818608E-02  0.1235070E+00
          4   -1    0    0  501    0  0.00000000000E+00  0.00000000000E+00  0.19089607650E+02  0.19131806507E+02  0.12700000000E+01 0.  1.
         -4   -1    0    0    0  501 -0.00000000000E+00 -0.00000000000E+00 -0.20435442989E+03  0.20435837618E+03  0.12700000000E+01 0.  1.
         25    2    1    2    0    0  0.00000000000E+00  0.00000000000E+00 -0.18526482224E+03  0.22349018269E+03  0.12499922959E+03 0.  0.
    9000005    1    3    3    0    0  0.85699552921E+01  0.10315232251E+02 -0.20176007808E+03  0.20220775765E+03  0.10000000000E+01 0.  0.
    9000005    1    3    3    0    0 -0.85699552921E+01 -0.10315232251E+02  0.16495255838E+02  0.21282425033E+02  0.10000000000E+01 0.  0.
<mgrwt>
<rscale>  0 0.12499923E+03</rscale>
<asrwt>0</asrwt>
<pdfrwt beam="1">  1        4 0.29404125E-02 0.12499923E+03</pdfrwt>
<pdfrwt beam="2">  1       -4 0.31442691E-01 0.12499923E+03</pdfrwt>
<totfact> 0.86320555E+03</totfact>
</mgrwt>
</event>
<event>
 5    1  0.3300771E-002  0.1249981E+03  0.7818608E-02  0.1235072E+00
         -4   -1    0    0    0  501 -0.00000000000E+00  0.00000000000E+00  0.15474863043E+02  0.15526889135E+02  0.12700000000E+01 0.  1.
          4   -1    0    0  501    0  0.00000000000E+00 -0.00000000000E+00 -0.25194076645E+03  0.25194396738E+03  0.12700000000E+01 0.  1.
         25    2    1    2    0    0  0.00000000000E+00  0.00000000000E+00 -0.23646590341E+03  0.26747085652E+03  0.12499814243E+03 0.  0.
    9000005    1    3    3    0    0 -0.51516846520E+02 -0.32640393276E+02 -0.14739654330E+03  0.15951840560E+03  0.10000000000E+01 0.  0.
    9000005    1    3    3    0    0  0.51516846520E+02  0.32640393276E+02 -0.89069360104E+02  0.10795245091E+03  0.10000000000E+01 0.  0.
<mgrwt>
<rscale>  0 0.12499814E+03</rscale>
<asrwt>0</asrwt>
<pdfrwt beam="2">  1        4 0.38764363E-01 0.12499814E+03</pdfrwt>
<pdfrwt beam="1">  1       -4 0.23849966E-02 0.12499814E+03</pdfrwt>
<totfact> 0.79872233E+03</totfact>
</mgrwt>
</event>
<event>
 5    1  0.3300771E-002  0.1250031E+03  0.7818608E-02  0.1235065E+00
          4   -1    0    0  501    0  0.00000000000E+00  0.00000000000E+00  0.65355996754E+02  0.65368334931E+02  0.12700000000E+01 0.  1.
         -4   -1    0    0    0  501 -0.00000000000E+00 -0.00000000000E+00 -0.59747000713E+02  0.59760496938E+02  0.12700000000E+01 0.  1.
         25    2    1    2    0    0  0.00000000000E+00  0.00000000000E+00  0.56089960404E+01  0.12512883187E+03  0.12500305488E+03 0.  0.
    9000005    1    3    3    0    0 -0.27346739202E+02 -0.33165189225E+01  0.58955480499E+02  0.65081426872E+02  0.10000000000E+01 0.  0.
    9000005    1    3    3    0    0  0.27346739202E+02  0.33165189225E+01 -0.53346484459E+02  0.60047404997E+02  0.10000000000E+01 0.  0.
<mgrwt>
<rscale>  0 0.12500305E+03</rscale>
<asrwt>0</asrwt>
<pdfrwt beam="1">  1        4 0.10056756E-01 0.12500305E+03</pdfrwt>
<pdfrwt beam="2">  1       -4 0.91938335E-02 0.12500305E+03</pdfrwt>
<totfact> 0.10449344E+04</totfact>
</mgrwt>
</event>
<event>
 5    1  0.3300771E-002  0.1249946E+03  0.7818608E-02  0.1235078E+00
         -4   -1    0    0    0  501 -0.00000000000E+00  0.00000000000E+00  0.49936017597E+02  0.49952164653E+02  0.12700000000E+01 0.  1.
          4   -1    0    0  501    0  0.00000000000E+00 -0.00000000000E+00 -0.78184356972E+02  0.78194671015E+02  0.12700000000E+01 0.  1.
         25    2    1    2    0    0  0.00000000000E+00  0.00000000000E+00 -0.28248339375E+02  0.12814683567E+03  0.12499457114E+03 0.  0.
    9000005    1    3    3    0    0  0.15550245806E+02  0.50968743179E+02 -0.47586039711E+02  0.71449661310E+02  0.10000000000E+01 0.  0.
    9000005    1    3    3    0    0 -0.15550245806E+02 -0.50968743179E+02  0.19337700336E+02  0.56697174358E+02  0.10000000000E+01 0.  0.
<mgrwt>
<rscale>  0 0.12499457E+03</rscale>
<asrwt>0</asrwt>
<pdfrwt beam="2">  1        4 0.12030398E-01 0.12499457E+03</pdfrwt>
<pdfrwt beam="1">  1       -4 0.76844997E-02 0.12499457E+03</pdfrwt>
<totfact> 0.10385590E+04</totfact>
</mgrwt>
</event>
<event>
 5    1  0.3300771E-002  0.1249997E+03  0.7818608E-02  0.1235070E+00
         -4   -1    0    0    0  501 -0.00000000000E+00  0.00000000000E+00  0.27799841414E+03  0.27800131504E+03  0.12700000000E+01 0. -1.
          4   -1    0    0  501    0  0.00000000000E+00 -0.00000000000E+00 -0.14019601468E+02  0.14077006973E+02  0.12700000000E+01 0. -1.
         25    2    1    2    0    0  0.00000000000E+00  0.00000000000E+00  0.26397881268E+03  0.29207832202E+03  0.12499973060E+03 0.  0.
    9000005    1    3    3    0    0  0.17026553035E+01 -0.23225952620E+02  0.26749166378E+03  0.26850537072E+03  0.10000000000E+01 0.  0.
    9000005    1    3    3    0    0 -0.17026553035E+01  0.23225952620E+02 -0.35128511062E+01  0.23572951302E+02  0.10000000000E+01 0.  0.
<mgrwt>
<rscale>  0 0.12499973E+03</rscale>
<asrwt>0</asrwt>
<pdfrwt beam="2">  1        4 0.21615009E-02 0.12499973E+03</pdfrwt>
<pdfrwt beam="1">  1       -4 0.42773621E-01 0.12499973E+03</pdfrwt>
<totfact> 0.76603847E+03</totfact>
</mgrwt>
</event>
<event>
 4    1  0.3300771E-002  0.1248244E+03  0.7818608E-02  0.1235344E+00
         -4   -1    0    0    0  501 -0.00000000000E+00  0.00000000000E+00  0.51072032507E+02  0.51087820509E+02  0.12700000000E+01 0. -1.
          4   -1    0    0  501    0  0.00000000000E+00 -0.00000000000E+00 -0.76237459710E+02  0.76248037110E+02  0.12700000000E+01 0. -1.
    9000005    1    1    2    0    0 -0.31192850345E+02 -0.25474902766E+02 -0.61210635215E+02  0.73278280868E+02  0.10000000000E+01 0.  0.
    9000005    1    1    2    0    0  0.31192850345E+02  0.25474902766E+02  0.36045208011E+02  0.54057576751E+02  0.10000000000E+01 0.  0.
<mgrwt>
<rscale>  0 0.12482436E+03</rscale>
<asrwt>0</asrwt>
<pdfrwt beam="2">  1        4 0.11730868E-01 0.12482436E+03</pdfrwt>
<pdfrwt beam="1">  1       -4 0.78592639E-02 0.12482436E+03</pdfrwt>
<totfact> 0.10443207E+04</totfact>
</mgrwt>
</event>
<event>
 5    1  0.3300771E-002  0.1250022E+03  0.7818608E-02  0.1235066E+00
         -4   -1    0    0    0  501 -0.00000000000E+00  0.00000000000E+00  0.36975397462E+02  0.36997201481E+02  0.12700000000E+01 0. -1.
          4   -1    0    0  501    0  0.00000000000E+00 -0.00000000000E+00 -0.10559144904E+03  0.10559908622E+03  0.12700000000E+01 0. -1.
         25    2    1    2    0    0  0.00000000000E+00  0.00000000000E+00 -0.68616051575E+02  0.14259628770E+03  0.12500215491E+03 0.  0.
    9000005    1    3    3    0    0 -0.62479943910E+02  0.32131327605E+00 -0.35722763355E+02  0.71978902846E+02  0.10000000000E+01 0.  0.
    9000005    1    3    3    0    0  0.62479943910E+02 -0.32131327605E+00 -0.32893288220E+02  0.70617384851E+02  0.10000000000E+01 0.  0.
<mgrwt>
<rscale>  0 0.12500215E+03</rscale>
<asrwt>0</asrwt>
<pdfrwt beam="2">  1        4 0.16247103E-01 0.12500215E+03</pdfrwt>
<pdfrwt beam="1">  1       -4 0.56907874E-02 0.12500215E+03</pdfrwt>
<totfact> 0.10079568E+04</totfact>
</mgrwt>
</event>
<event>
 5    1  0.3300771E-002  0.1249947E+03  0.7818608E-02  0.1235078E+00
         -4   -1    0    0    0  501 -0.00000000000E+00  0.00000000000E+00  0.10379050255E+02  0.10456461361E+02  0.12700000000E+01 0. -1.
          4   -1    0    0  501    0  0.00000000000E+00 -0.00000000000E+00 -0.37485061694E+03  0.37485276832E+03  0.12700000000E+01 0. -1.
         25    2    1    2    0    0  0.00000000000E+00  0.00000000000E+00 -0.36447156668E+03  0.38530922968E+03  0.12499471812E+03 0.  0.
    9000005    1    3    3    0    0  0.41505198504E+02  0.20342780859E+02 -0.31186687824E+03  0.31527521308E+03  0.10000000000E+01 0.  0.
    9000005    1    3    3    0    0 -0.41505198504E+02 -0.20342780859E+02 -0.52604688439E+02  0.70034016604E+02  0.10000000000E+01 0.  0.
<mgrwt>
<rscale>  0 0.12499472E+03</rscale>
<asrwt>0</asrwt>
<pdfrwt beam="2">  1        4 0.57675436E-01 0.12499472E+03</pdfrwt>
<pdfrwt beam="1">  1       -4 0.16028974E-02 0.12499472E+03</pdfrwt>
<totfact> 0.66014830E+03</totfact>
</mgrwt>
</event>
<event>
 5    1  0.3300771E-002  0.1249963E+03  0.7818608E-02  0.1235075E+00
         -4   -1    0    0    0  501 -0.00000000000E+00  0.00000000000E+00  0.81809320705E+01  0.82789220036E+01  0.12700000000E+01 0. -1.
          4   -1    0    0  501    0  0.00000000000E+00 -0.00000000000E+00 -0.47451275649E+03  0.47451445602E+03  0.12700000000E+01 0. -1.
         25    2    1    2    0    0  0.00000000000E+00  0.00000000000E+00 -0.46633182442E+03  0.48279337802E+03  0.12499630153E+03 0.  0.
    9000005    1    3    3    0    0 -0.26796311510E+02  0.29306274659E+02 -0.46799900616E+02  0.61385101960E+02  0.10000000000E+01 0.  0.
    9000005    1    3    3    0    0  0.26796311510E+02 -0.29306274659E+02 -0.41953192380E+03  0.42140827606E+03  0.10000000000E+01 0.  0.
<mgrwt>
<rscale>  0 0.12499630E+03</rscale>
<asrwt>0</asrwt>
<pdfrwt beam="2">  1        4 0.73009610E-01 0.12499630E+03</pdfrwt>
<pdfrwt beam="1">  1       -4 0.12662737E-02 0.12499630E+03</pdfrwt>
<totfact> 0.57229214E+03</totfact>
</mgrwt>
</event>
<event>
 5    1  0.3300771E-002  0.1250016E+03  0.7818608E-02  0.1235067E+00
         -4   -1    0    0    0  501 -0.00000000000E+00  0.00000000000E+00  0.49893271033E+01  0.51484254820E+01  0.12700000000E+01 0.  1.
          4   -1    0    0  501    0  0.00000000000E+00 -0.00000000000E+00 -0.77049434695E+03  0.77049539361E+03  0.12700000000E+01 0.  1.
         25    2    1    2    0    0  0.00000000000E+00  0.00000000000E+00 -0.76550501984E+03  0.77564381909E+03  0.12500159476E+03 0.  0.
    9000005    1    3    3    0    0 -0.45941062977E+01 -0.62160121483E+02 -0.35475178049E+03  0.36018719061E+03  0.10000000000E+01 0.  0.
    9000005    1    3    3    0    0  0.45941062977E+01  0.62160121483E+02 -0.41075323935E+03  0.41545662848E+03  0.10000000000E+01 0.  0.
<mgrwt>
<rscale>  0 0.12500159E+03</rscale>
<asrwt>0</asrwt>
<pdfrwt beam="2">  1        4 0.11854982E+00 0.12500159E+03</pdfrwt>
<pdfrwt beam="1">  1       -4 0.77990825E-03 0.12500159E+03</pdfrwt>
<totfact> 0.39374084E+03</totfact>
</mgrwt>
</event>
<event>
 5    1  0.3300771E-002  0.1250051E+03  0.7818608E-02  0.1235061E+00
         -4   -1    0    0    0  501 -0.00000000000E+00  0.00000000000E+00  0.11382382365E+02  0.11453013940E+02  0.12700000000E+01 0. -1.
          4   -1    0    0  501    0  0.00000000000E+00 -0.00000000000E+00 -0.34207844299E+03  0.34208080049E+03  0.12700000000E+01 0. -1.
         25    2    1    2    0    0  0.00000000000E+00  0.00000000000E+00 -0.33069606063E+03  0.35353381443E+03  0.12500509361E+03 0.  0.
    9000005    1    3    3    0    0 -0.97818475797E+01  0.35421524878E+02 -0.22387665757E+02  0.43041567638E+02  0.10000000000E+01 0.  0.
    9000005    1    3    3    0    0  0.97818475797E+01 -0.35421524878E+02 -0.30830839487E+03  0.31049224679E+03  0.10000000000E+01 0.  0.
<mgrwt>
<rscale>  0 0.12500509E+03</rscale>
<asrwt>0</asrwt>
<pdfrwt beam="2">  1        4 0.52633059E-01 0.12500509E+03</pdfrwt>
<pdfrwt beam="1">  1       -4 0.17567506E-02 0.12500509E+03</pdfrwt>
<totfact> 0.69329724E+03</totfact>
</mgrwt>
</event>
<event>
 5    1  0.3300771E-002  0.1249988E+03  0.7818608E-02  0.1235071E+00
         -4   -1    0    0    0  501 -0.00000000000E+00  0.00000000000E+00  0.48484414773E+01  0.50120140422E+01  0.12700000000E+01 0. -1.
          4   -1    0    0  501    0  0.00000000000E+00 -0.00000000000E+00 -0.79212736454E+03  0.79212838262E+03  0.12700000000E+01 0. -1.
         25    2    1    2    0    0  0.00000000000E+00  0.00000000000E+00 -0.78727892306E+03  0.79714039666E+03  0.12499883717E+03 0.  0.
    9000005    1    3    3    0    0  0.60595183242E+02 -0.14110134144E+02 -0.43099103128E+03  0.43545968948E+03  0.10000000000E+01 0.  0.
    9000005    1    3    3    0    0 -0.60595183242E+02  0.14110134144E+02 -0.35628789179E+03  0.36168070719E+03  0.10000000000E+01 0.  0.
<mgrwt>
<rscale>  0 0.12499884E+03</rscale>
<asrwt>0</asrwt>
<pdfrwt beam="2">  1        4 0.12187831E+00 0.12499884E+03</pdfrwt>
<pdfrwt beam="1">  1       -4 0.75857552E-03 0.12499884E+03</pdfrwt>
<totfact> 0.38393708E+03</totfact>
</mgrwt>
</event>
<event>
 5    1  0.3300771E-002  0.1250004E+03  0.7818608E-02  0.1235069E+00
         -4   -1    0    0    0  501 -0.00000000000E+00  0.00000000000E+00  0.39434635326E+03  0.39434839828E+03  0.12700000000E+01 0. -1.
          4   -1    0    0  501    0  0.00000000000E+00 -0.00000000000E+00 -0.98629152477E+01  0.99443449851E+01  0.12700000000E+01 0. -1.
         25    2    1    2    0    0  0.00000000000E+00  0.00000000000E+00  0.38448343801E+03  0.40429274327E+03  0.12500043262E+03 0.  0.
    9000005    1    3    3    0    0 -0.31256653283E+02 -0.55265481346E+01  0.36634835794E+03  0.36772223277E+03  0.10000000000E+01 0.  0.
    9000005    1    3    3    0    0  0.31256653283E+02  0.55265481346E+01  0.18135080069E+02  0.36570510495E+02  0.10000000000E+01 0.  0.
<mgrwt>
<rscale>  0 0.12500043E+03</rscale>
<asrwt>0</asrwt>
<pdfrwt beam="2">  1        4 0.15237927E-02 0.12500043E+03</pdfrwt>
<pdfrwt beam="1">  1       -4 0.60675093E-01 0.12500043E+03</pdfrwt>
<totfact> 0.64136797E+03</totfact>
</mgrwt>
</event>
<event>
 5    1  0.3300771E-002  0.1250024E+03  0.7818608E-02  0.1235066E+00
         -4   -1    0    0    0  501 -0.00000000000E+00  0.00000000000E+00  0.35707168837E+02  0.35729746799E+02  0.12700000000E+01 0.  1.
          4   -1    0    0  501    0  0.00000000000E+00 -0.00000000000E+00 -0.10934015925E+03  0.10934753460E+03  0.12700000000E+01 0.  1.
         25    2    1    2    0    0  0.00000000000E+00  0.00000000000E+00 -0.73632990408E+02  0.14507728140E+03  0.12500240119E+03 0.  0.
    9000005    1    3    3    0    0 -0.77119960482E+01 -0.59386662522E+02 -0.57550258793E+02  0.83061921815E+02  0.10000000000E+01 0.  0.
    9000005    1    3    3    0    0  0.77119960482E+01  0.59386662522E+02 -0.16082731616E+02  0.62015359587E+02  0.10000000000E+01 0.  0.
<mgrwt>
<rscale>  0 0.12500240E+03</rscale>
<asrwt>0</asrwt>
<pdfrwt beam="2">  1        4 0.16823867E-01 0.12500240E+03</pdfrwt>
<pdfrwt beam="1">  1       -4 0.54957147E-02 0.12500240E+03</pdfrwt>
<totfact> 0.10028876E+04</totfact>
</mgrwt>
</event>
<event>
 5    1  0.3300771E-002  0.1249937E+03  0.7818608E-02  0.1235079E+00
         -4   -1    0    0    0  501 -0.00000000000E+00  0.00000000000E+00  0.61594291440E+01  0.62889957370E+01  0.12700000000E+01 0.  1.
          4   -1    0    0  501    0  0.00000000000E+00 -0.00000000000E+00 -0.62739644367E+03  0.62739772906E+03  0.12700000000E+01 0.  1.
         25    2    1    2    0    0  0.00000000000E+00  0.00000000000E+00 -0.62123701452E+03  0.63368672480E+03  0.12499374771E+03 0.  0.
    9000005    1    3    3    0    0  0.61402091473E+02 -0.29942108523E+01 -0.36745331625E+03  0.37256156775E+03  0.10000000000E+01 0.  0.
    9000005    1    3    3    0    0 -0.61402091473E+02  0.29942108523E+01 -0.25378369827E+03  0.26112515705E+03  0.10000000000E+01 0.  0.
<mgrwt>
<rscale>  0 0.12499375E+03</rscale>
<asrwt>0</asrwt>
<pdfrwt beam="2">  1        4 0.96532545E-01 0.12499375E+03</pdfrwt>
<pdfrwt beam="1">  1       -4 0.95767052E-03 0.12499375E+03</pdfrwt>
<totfact> 0.46814417E+03</totfact>
</mgrwt>
</event>
<event>
 5    1  0.3300771E-002  0.1250247E+03  0.7818608E-02  0.1235031E+00
          4   -1    0    0  501    0  0.00000000000E+00  0.00000000000E+00  0.14280200448E+03  0.14280765170E+03  0.12700000000E+01 0.  1.
         -4   -1    0    0    0  501 -0.00000000000E+00 -0.00000000000E+00 -0.27344172075E+02  0.27373648761E+02  0.12700000000E+01 0.  1.
         25    2    1    2    0    0  0.00000000000E+00  0.00000000000E+00  0.11545783240E+03  0.17018130046E+03  0.12502465342E+03 0.  0.
    9000005    1    3    3    0    0  0.37984372645E+02  0.31189631070E+02  0.11029213974E+03  0.12075165316E+03  0.10000000000E+01 0.  0.
    9000005    1    3    3    0    0 -0.37984372645E+02 -0.31189631070E+02  0.51656926628E+01  0.49429647301E+02  0.10000000000E+01 0.  0.
<mgrwt>
<rscale>  0 0.12502465E+03</rscale>
<asrwt>0</asrwt>
<pdfrwt beam="1">  1        4 0.21972241E-01 0.12502465E+03</pdfrwt>
<pdfrwt beam="2">  1       -4 0.42094976E-02 0.12502465E+03</pdfrwt>
<totfact> 0.95362078E+03</totfact>
</mgrwt>
</event>
<event>
 5    1  0.3300771E-002  0.1250015E+03  0.7818608E-02  0.1235067E+00
         -4   -1    0    0    0  501 -0.00000000000E+00  0.00000000000E+00  0.13570423233E+02  0.13629720713E+02  0.12700000000E+01 0. -1.
          4   -1    0    0  501    0  0.00000000000E+00 -0.00000000000E+00 -0.28716898493E+03  0.28717179319E+03  0.12700000000E+01 0. -1.
         25    2    1    2    0    0  0.00000000000E+00  0.00000000000E+00 -0.27359856170E+03  0.30080151391E+03  0.12500151121E+03 0.  0.
    9000005    1    3    3    0    0  0.19174079243E+02  0.23773424809E+02 -0.26799733562E+03  0.26973392991E+03  0.10000000000E+01 0.  0.
    9000005    1    3    3    0    0 -0.19174079243E+02 -0.23773424809E+02 -0.56012260718E+01  0.31067583998E+02  0.10000000000E+01 0.  0.
<mgrwt>
<rscale>  0 0.12500151E+03</rscale>
<asrwt>0</asrwt>
<pdfrwt beam="2">  1        4 0.44184617E-01 0.12500151E+03</pdfrwt>
<pdfrwt beam="1">  1       -4 0.20925350E-02 0.12500151E+03</pdfrwt>
<totfact> 0.75495877E+03</totfact>
</mgrwt>
</event>
<event>
 5    1  0.3300771E-002  0.1249922E+03  0.7818608E-02  0.1235081E+00
          4   -1    0    0  501    0  0.00000000000E+00  0.00000000000E+00  0.35239429626E+02  0.35262307077E+02  0.12700000000E+01 0.  1.
         -4   -1    0    0    0  501 -0.00000000000E+00 -0.00000000000E+00 -0.11077254562E+03  0.11077982562E+03  0.12700000000E+01 0.  1.
         25    2    1    2    0    0  0.00000000000E+00  0.00000000000E+00 -0.75533115998E+02  0.14604213270E+03  0.12499221140E+03 0.  0.
    9000005    1    3    3    0    0 -0.20199003603E+02 -0.36969093141E+01 -0.10672349436E+03  0.10868565284E+03  0.10000000000E+01 0.  0.
    9000005    1    3    3    0    0  0.20199003603E+02  0.36969093141E+01  0.31190378360E+02  0.37356479857E+02  0.10000000000E+01 0.  0.
<mgrwt>
<rscale>  0 0.12499221E+03</rscale>
<asrwt>0</asrwt>
<pdfrwt beam="1">  1        4 0.54237706E-02 0.12499221E+03</pdfrwt>
<pdfrwt beam="2">  1       -4 0.17044250E-01 0.12499221E+03</pdfrwt>
<totfact> 0.10011613E+04</totfact>
</mgrwt>
</event>
<event>
 5    1  0.3300771E-002  0.1250065E+03  0.7818608E-02  0.1235059E+00
         -4   -1    0    0    0  501 -0.00000000000E+00  0.00000000000E+00  0.72600773860E+03  0.72600884940E+03  0.12700000000E+01 0. -1.
          4   -1    0    0  501    0  0.00000000000E+00 -0.00000000000E+00 -0.53049453839E+01  0.54548460589E+01  0.12700000000E+01 0. -1.
         25    2    1    2    0    0  0.00000000000E+00  0.00000000000E+00  0.72070279322E+03  0.73146369546E+03  0.12500648633E+03 0.  0.
    9000005    1    3    3    0    0  0.29580337680E+02 -0.39222176460E+02  0.58639143511E+03  0.58844650622E+03  0.10000000000E+01 0.  0.
    9000005    1    3    3    0    0 -0.29580337680E+02  0.39222176460E+02  0.13431135810E+03  0.14301718924E+03  0.10000000000E+01 0.  0.
<mgrwt>
<rscale>  0 0.12500649E+03</rscale>
<asrwt>0</asrwt>
<pdfrwt beam="2">  1        4 0.82776181E-03 0.12500649E+03</pdfrwt>
<pdfrwt beam="1">  1       -4 0.11170510E+00 0.12500649E+03</pdfrwt>
<totfact> 0.41470928E+03</totfact>
</mgrwt>
</event>
<event>
 5    1  0.3300771E-002  0.1249921E+03  0.7818608E-02  0.1235082E+00
         -4   -1    0    0    0  501 -0.00000000000E+00  0.00000000000E+00  0.12843344156E+02  0.12905982687E+02  0.12700000000E+01 0.  1.
          4   -1    0    0  501    0  0.00000000000E+00 -0.00000000000E+00 -0.30330343604E+03  0.30330609491E+03  0.12700000000E+01 0.  1.
         25    2    1    2    0    0  0.00000000000E+00  0.00000000000E+00 -0.29046009188E+03  0.31621207760E+03  0.12499205193E+03 0.  0.
    9000005    1    3    3    0    0  0.25003822437E+02  0.57170599655E+02 -0.13680723132E+03  0.15036916953E+03  0.10000000000E+01 0.  0.
    9000005    1    3    3    0    0 -0.25003822437E+02 -0.57170599655E+02 -0.15365286056E+03  0.16584290807E+03  0.10000000000E+01 0.  0.
<mgrwt>
<rscale>  0 0.12499205E+03</rscale>
<asrwt>0</asrwt>
<pdfrwt beam="2">  1        4 0.46667085E-01 0.12499205E+03</pdfrwt>
<pdfrwt beam="1">  1       -4 0.19809222E-02 0.12499205E+03</pdfrwt>
<totfact> 0.73621900E+03</totfact>
</mgrwt>
</event>
<event>
 4    1  0.3300771E-002  0.1250804E+03  0.7818608E-02  0.1234944E+00
         -4   -1    0    0    0  501 -0.00000000000E+00  0.00000000000E+00  0.12896465232E+03  0.12897090543E+03  0.12700000000E+01 0.  1.
          4   -1    0    0  501    0  0.00000000000E+00 -0.00000000000E+00 -0.30307976904E+02  0.30334573740E+02  0.12700000000E+01 0.  1.
    9000005    1    1    2    0    0  0.47727324815E+02 -0.21327562556E+02  0.56240359361E+01  0.52586996860E+02  0.10000000000E+01 0.  0.
    9000005    1    1    2    0    0 -0.47727324815E+02  0.21327562556E+02  0.93032639482E+02  0.10671848232E+03  0.10000000000E+01 0.  0.
<mgrwt>
<rscale>  0 0.12508036E+03</rscale>
<asrwt>0</asrwt>
<pdfrwt beam="2">  1        4 0.46652925E-02 0.12508036E+03</pdfrwt>
<pdfrwt beam="1">  1       -4 0.19843243E-01 0.12508036E+03</pdfrwt>
<totfact> 0.97300978E+03</totfact>
</mgrwt>
</event>
<event>
 5    1  0.3300771E-002  0.1250025E+03  0.7818608E-02  0.1235065E+00
         -4   -1    0    0    0  501 -0.00000000000E+00  0.00000000000E+00  0.20438929360E+03  0.20439323922E+03  0.12700000000E+01 0.  1.
          4   -1    0    0  501    0  0.00000000000E+00 -0.00000000000E+00 -0.19087341279E+02  0.19129545135E+02  0.12700000000E+01 0.  1.
         25    2    1    2    0    0  0.00000000000E+00  0.00000000000E+00  0.18530195232E+03  0.22352278435E+03  0.12500248634E+03 0.  0.
    9000005    1    3    3    0    0 -0.12660402990E+02  0.26913131912E+02  0.19093079423E+03  0.19323604907E+03  0.10000000000E+01 0.  0.
    9000005    1    3    3    0    0  0.12660402990E+02 -0.26913131912E+02 -0.56288419087E+01  0.30286735288E+02  0.10000000000E+01 0.  0.
<mgrwt>
<rscale>  0 0.12500249E+03</rscale>
<asrwt>0</asrwt>
<pdfrwt beam="2">  1        4 0.29400638E-02 0.12500249E+03</pdfrwt>
<pdfrwt beam="1">  1       -4 0.31448059E-01 0.12500249E+03</pdfrwt>
<totfact> 0.86309171E+03</totfact>
</mgrwt>
</event>
<event>
 5    1  0.3300771E-002  0.1250292E+03  0.7818608E-02  0.1235024E+00
         -4   -1    0    0    0  501 -0.00000000000E+00  0.00000000000E+00  0.47741125103E+02  0.47758014260E+02  0.12700000000E+01 0.  1.
          4   -1    0    0  501    0  0.00000000000E+00 -0.00000000000E+00 -0.81823479476E+02  0.81833334855E+02  0.12700000000E+01 0.  1.
         25    2    1    2    0    0  0.00000000000E+00  0.00000000000E+00 -0.34082354373E+02  0.12959134912E+03  0.12502924012E+03 0.  0.
    9000005    1    3    3    0    0  0.41679936448E+02 -0.45486340800E+02 -0.66321597975E+01  0.62058116675E+02  0.10000000000E+01 0.  0.
    9000005    1    3    3    0    0 -0.41679936448E+02  0.45486340800E+02 -0.27450194576E+02  0.67533232441E+02  0.10000000000E+01 0.  0.
<mgrwt>
<rscale>  0 0.12502924E+03</rscale>
<asrwt>0</asrwt>
<pdfrwt beam="2">  1        4 0.12590285E-01 0.12502924E+03</pdfrwt>
<pdfrwt beam="1">  1       -4 0.73468458E-02 0.12502924E+03</pdfrwt>
<totfact> 0.10346426E+04</totfact>
</mgrwt>
</event>
<event>
 5    1  0.3300771E-002  0.1250006E+03  0.7818608E-02  0.1235068E+00
          4   -1    0    0  501    0  0.00000000000E+00  0.00000000000E+00  0.37544862394E+03  0.37545077190E+03  0.12700000000E+01 0.  1.
         -4   -1    0    0    0  501 -0.00000000000E+00 -0.00000000000E+00 -0.10363374252E+02  0.10440901584E+02  0.12700000000E+01 0.  1.
         25    2    1    2    0    0  0.00000000000E+00  0.00000000000E+00  0.36508524969E+03  0.38589167349E+03  0.12500057649E+03 0.  0.
    9000005    1    3    3    0    0 -0.34222553062E+02  0.41320723683E+01  0.21626146901E+02  0.40705618654E+02  0.10000000000E+01 0.  0.
    9000005    1    3    3    0    0  0.34222553062E+02 -0.41320723683E+01  0.34345910279E+03  0.34518605483E+03  0.10000000000E+01 0.  0.
<mgrwt>
<rscale>  0 0.12500058E+03</rscale>
<asrwt>0</asrwt>
<pdfrwt beam="1">  1        4 0.57767454E-01 0.12500058E+03</pdfrwt>
<pdfrwt beam="2">  1       -4 0.16004942E-02 0.12500058E+03</pdfrwt>
<totfact> 0.65947633E+03</totfact>
</mgrwt>
</event>
<event>
 5    1  0.3300771E-002  0.1250002E+03  0.7818608E-02  0.1235069E+00
         -4   -1    0    0    0  501 -0.00000000000E+00  0.00000000000E+00  0.10659095723E+02  0.10734487488E+02  0.12700000000E+01 0. -1.
          4   -1    0    0  501    0  0.00000000000E+00 -0.00000000000E+00 -0.36510416284E+03  0.36510637166E+03  0.12700000000E+01 0. -1.
         25    2    1    2    0    0  0.00000000000E+00  0.00000000000E+00 -0.35444506712E+03  0.37584085915E+03  0.12500018319E+03 0.  0.
    9000005    1    3    3    0    0  0.43281945015E+02 -0.24355012423E+02 -0.29127081254E+03  0.29547619131E+03  0.10000000000E+01 0.  0.
    9000005    1    3    3    0    0 -0.43281945015E+02  0.24355012423E+02 -0.63174254583E+02  0.80364667837E+02  0.10000000000E+01 0.  0.
<mgrwt>
<rscale>  0 0.12500018E+03</rscale>
<asrwt>0</asrwt>
<pdfrwt beam="2">  1        4 0.56175831E-01 0.12500018E+03</pdfrwt>
<pdfrwt beam="1">  1       -4 0.16458304E-02 0.12500018E+03</pdfrwt>
<totfact> 0.66972002E+03</totfact>
</mgrwt>
</event>
<event>
 5    1  0.3300771E-002  0.1250021E+03  0.7818608E-02  0.1235066E+00
         -4   -1    0    0    0  501 -0.00000000000E+00  0.00000000000E+00  0.31394939814E+02  0.31420616575E+02  0.12700000000E+01 0. -1.
          4   -1    0    0  501    0  0.00000000000E+00 -0.00000000000E+00 -0.12434725726E+03  0.12435374256E+03  0.12700000000E+01 0. -1.
         25    2    1    2    0    0  0.00000000000E+00  0.00000000000E+00 -0.92952317446E+02  0.15577435913E+03  0.12500207056E+03 0.  0.
    9000005    1    3    3    0    0 -0.48217567272E+02 -0.39752694404E+02 -0.45964005181E+02  0.77581571770E+02  0.10000000000E+01 0.  0.
    9000005    1    3    3    0    0  0.48217567272E+02  0.39752694404E+02 -0.46988312265E+02  0.78192787363E+02  0.10000000000E+01 0.  0.
<mgrwt>
<rscale>  0 0.12500207E+03</rscale>
<asrwt>0</asrwt>
<pdfrwt beam="2">  1        4 0.19132821E-01 0.12500207E+03</pdfrwt>
<pdfrwt beam="1">  1       -4 0.48324648E-02 0.12500207E+03</pdfrwt>
<totfact> 0.98159126E+03</totfact>
</mgrwt>
</event>
<event>
 5    1  0.3300771E-002  0.1249535E+03  0.7818608E-02  0.1235142E+00
         -4   -1    0    0    0  501 -0.00000000000E+00  0.00000000000E+00  0.43975373404E+02  0.43993708255E+02  0.12700000000E+01 0. -1.
          4   -1    0    0  501    0  0.00000000000E+00 -0.00000000000E+00 -0.88720705451E+02  0.88729794746E+02  0.12700000000E+01 0. -1.
         25    2    1    2    0    0  0.00000000000E+00  0.00000000000E+00 -0.44745332047E+02  0.13272350300E+03  0.12495352540E+03 0.  0.
    9000005    1    3    3    0    0 -0.53559245717E+02 -0.31814148623E+02 -0.17434597892E+02  0.64696971012E+02  0.10000000000E+01 0.  0.
    9000005    1    3    3    0    0  0.53559245717E+02  0.31814148623E+02 -0.27310734155E+02  0.68026531989E+02  0.10000000000E+01 0.  0.
<mgrwt>
<rscale>  0 0.12495353E+03</rscale>
<asrwt>0</asrwt>
<pdfrwt beam="2">  1        4 0.13651449E-01 0.12495353E+03</pdfrwt>
<pdfrwt beam="1">  1       -4 0.67675517E-02 0.12495353E+03</pdfrwt>
<totfact> 0.10297071E+04</totfact>
</mgrwt>
</event>
<event>
 5    1  0.3300771E-002  0.1249919E+03  0.7818608E-02  0.1235082E+00
          4   -1    0    0  501    0  0.00000000000E+00  0.00000000000E+00  0.18517661795E+04  0.18517666150E+04  0.12700000000E+01 0.  1.
         -4   -1    0    0    0  501 -0.00000000000E+00 -0.00000000000E+00 -0.19175495429E+01  0.22999774454E+01  0.12700000000E+01 0.  1.
         25    2    1    2    0    0  0.00000000000E+00  0.00000000000E+00  0.18498486300E+04  0.18540665924E+04  0.12499190166E+03 0.  0.
    9000005    1    3    3    0    0 -0.39583563948E+02  0.44846217154E+02  0.65681034454E+03  0.65952927943E+03  0.10000000000E+01 0.  0.
    9000005    1    3    3    0    0  0.39583563948E+02 -0.44846217154E+02  0.11930382854E+04  0.11945373130E+04  0.10000000000E+01 0.  0.
<mgrwt>
<rscale>  0 0.12499190E+03</rscale>
<asrwt>0</asrwt>
<pdfrwt beam="1">  1        4 0.28491755E+00 0.12499190E+03</pdfrwt>
<pdfrwt beam="2">  1       -4 0.32445752E-03 0.12499190E+03</pdfrwt>
<totfact> 0.11890607E+03</totfact>
</mgrwt>
</event>
<event>
 5    1  0.3300771E-002  0.1249996E+03  0.7818608E-02  0.1235070E+00
         -4   -1    0    0    0  501 -0.00000000000E+00  0.00000000000E+00  0.11171857987E+02  0.11243812116E+02  0.12700000000E+01 0. -1.
          4   -1    0    0  501    0  0.00000000000E+00 -0.00000000000E+00 -0.34845309677E+03  0.34845541113E+03  0.12700000000E+01 0. -1.
         25    2    1    2    0    0  0.00000000000E+00  0.00000000000E+00 -0.33728123878E+03  0.35969922325E+03  0.12499958869E+03 0.  0.
    9000005    1    3    3    0    0 -0.24631800791E+02 -0.57423805150E+02 -0.16575542232E+03  0.17714423230E+03  0.10000000000E+01 0.  0.
    9000005    1    3    3    0    0  0.24631800791E+02  0.57423805150E+02 -0.17152581646E+03  0.18255499095E+03  0.10000000000E+01 0.  0.
<mgrwt>
<rscale>  0 0.12499959E+03</rscale>
<asrwt>0</asrwt>
<pdfrwt beam="2">  1        4 0.53613873E-01 0.12499959E+03</pdfrwt>
<pdfrwt beam="1">  1       -4 0.17244606E-02 0.12499959E+03</pdfrwt>
<totfact> 0.68671168E+03</totfact>
</mgrwt>
</event>
<event>
 5    1  0.3300771E-002  0.1249993E+03  0.7818608E-02  0.1235070E+00
          4   -1    0    0  501    0  0.00000000000E+00  0.00000000000E+00  0.35816035511E+03  0.35816260675E+03  0.12700000000E+01 0.  1.
         -4   -1    0    0    0  501 -0.00000000000E+00 -0.00000000000E+00 -0.10867036870E+02  0.10940995856E+02  0.12700000000E+01 0.  1.
         25    2    1    2    0    0  0.00000000000E+00  0.00000000000E+00  0.34729331824E+03  0.36910360261E+03  0.12499928224E+03 0.  0.
    9000005    1    3    3    0    0  0.71650658785E+01  0.62062049961E+02  0.17799539593E+03  0.18864357181E+03  0.10000000000E+01 0.  0.
    9000005    1    3    3    0    0 -0.71650658785E+01 -0.62062049961E+02  0.16929792232E+03  0.18046003080E+03  0.10000000000E+01 0.  0.
<mgrwt>
<rscale>  0 0.12499928E+03</rscale>
<asrwt>0</asrwt>
<pdfrwt beam="1">  1        4 0.55107461E-01 0.12499928E+03</pdfrwt>
<pdfrwt beam="2">  1       -4 0.16777140E-02 0.12499928E+03</pdfrwt>
<totfact> 0.67673890E+03</totfact>
</mgrwt>
</event>
<event>
 5    1  0.3300771E-002  0.1250003E+03  0.7818608E-02  0.1235069E+00
          4   -1    0    0  501    0  0.00000000000E+00  0.00000000000E+00  0.10211636758E+02  0.10290307346E+02  0.12700000000E+01 0.  1.
         -4   -1    0    0    0  501 -0.00000000000E+00 -0.00000000000E+00 -0.38098324248E+03  0.38098535924E+03  0.12700000000E+01 0.  1.
         25    2    1    2    0    0  0.00000000000E+00  0.00000000000E+00 -0.37077160572E+03  0.39127566658E+03  0.12500025459E+03 0.  0.
    9000005    1    3    3    0    0 -0.15205735387E+01 -0.29394403977E+00 -0.38093851278E+03  0.38094297351E+03  0.10000000000E+01 0.  0.
    9000005    1    3    3    0    0  0.15205735387E+01  0.29394403977E+00  0.10166907057E+02  0.10332693071E+02  0.10000000000E+01 0.  0.
<mgrwt>
<rscale>  0 0.12500025E+03</rscale>
<asrwt>0</asrwt>
<pdfrwt beam="1">  1        4 0.15772357E-02 0.12500025E+03</pdfrwt>
<pdfrwt beam="2">  1       -4 0.58619010E-01 0.12500025E+03</pdfrwt>
<totfact> 0.65409882E+03</totfact>
</mgrwt>
</event>
<event>
 5    1  0.3300771E-002  0.1249984E+03  0.7818608E-02  0.1235072E+00
          4   -1    0    0  501    0  0.00000000000E+00  0.00000000000E+00  0.50159506824E+03  0.50159667601E+03  0.12700000000E+01 0.  1.
         -4   -1    0    0    0  501 -0.00000000000E+00 -0.00000000000E+00 -0.77340419442E+01  0.78376211184E+01  0.12700000000E+01 0.  1.
         25    2    1    2    0    0  0.00000000000E+00  0.00000000000E+00  0.49386102630E+03  0.50943429713E+03  0.12499835917E+03 0.  0.
    9000005    1    3    3    0    0  0.41560564367E+02 -0.46436348235E+02  0.26584223643E+03  0.27305074550E+03  0.10000000000E+01 0.  0.
    9000005    1    3    3    0    0 -0.41560564367E+02  0.46436348235E+02  0.22801878986E+03  0.23638355163E+03  0.10000000000E+01 0.  0.
<mgrwt>
<rscale>  0 0.12499836E+03</rscale>
<asrwt>0</asrwt>
<pdfrwt beam="1">  1        4 0.77176562E-01 0.12499836E+03</pdfrwt>
<pdfrwt beam="2">  1       -4 0.11979439E-02 0.12499836E+03</pdfrwt>
<totfact> 0.55141728E+03</totfact>
</mgrwt>
</event>
<event>
 5    1  0.3300771E-002  0.1250004E+03  0.7818608E-02  0.1235069E+00
         -4   -1    0    0    0  501 -0.00000000000E+00  0.00000000000E+00  0.50767069882E+03  0.50767228735E+03  0.12700000000E+01 0. -1.
          4   -1    0    0  501    0  0.00000000000E+00 -0.00000000000E+00 -0.76404882533E+01  0.77453186345E+01  0.12700000000E+01 0. -1.
         25    2    1    2    0    0  0.00000000000E+00  0.00000000000E+00  0.50003021057E+03  0.51541760598E+03  0.12500038831E+03 0.  0.
    9000005    1    3    3    0    0 -0.47772462339E+02 -0.35718059725E+02  0.32685587842E+03  0.33225555406E+03  0.10000000000E+01 0.  0.
    9000005    1    3    3    0    0  0.47772462339E+02  0.35718059725E+02  0.17317433215E+03  0.18316205192E+03  0.10000000000E+01 0.  0.
<mgrwt>
<rscale>  0 0.12500039E+03</rscale>
<asrwt>0</asrwt>
<pdfrwt beam="2">  1        4 0.11836459E-02 0.12500039E+03</pdfrwt>
<pdfrwt beam="1">  1       -4 0.78111366E-01 0.12500039E+03</pdfrwt>
<totfact> 0.54687217E+03</totfact>
</mgrwt>
</event>
<event>
 5    1  0.3300771E-002  0.1249958E+03  0.7818608E-02  0.1235076E+00
         -4   -1    0    0    0  501 -0.00000000000E+00  0.00000000000E+00  0.29117816430E+03  0.29118093390E+03  0.12700000000E+01 0.  1.
          4   -1    0    0  501    0  0.00000000000E+00 -0.00000000000E+00 -0.13381521753E+02  0.13441652593E+02  0.12700000000E+01 0.  1.
         25    2    1    2    0    0  0.00000000000E+00  0.00000000000E+00  0.27779664255E+03  0.30462258649E+03  0.12499578229E+03 0.  0.
    9000005    1    3    3    0    0 -0.46694900060E+02 -0.32362133280E+02  0.75475425100E+02  0.94473600313E+02  0.10000000000E+01 0.  0.
    9000005    1    3    3    0    0  0.46694900060E+02  0.32362133280E+02  0.20232121745E+03  0.21014898618E+03  0.10000000000E+01 0.  0.
<mgrwt>
<rscale>  0 0.12499578E+03</rscale>
<asrwt>0</asrwt>
<pdfrwt beam="2">  1        4 0.20635344E-02 0.12499578E+03</pdfrwt>
<pdfrwt beam="1">  1       -4 0.44801473E-01 0.12499578E+03</pdfrwt>
<totfact> 0.75029650E+03</totfact>
</mgrwt>
</event>
<event>
 5    1  0.3300771E-002  0.1249885E+03  0.7818608E-02  0.1235087E+00
          4   -1    0    0  501    0  0.00000000000E+00  0.00000000000E+00  0.72040539241E+01  0.73151413480E+01  0.12700000000E+01 0.  1.
         -4   -1    0    0    0  501 -0.00000000000E+00 -0.00000000000E+00 -0.53786951301E+03  0.53787101235E+03  0.12700000000E+01 0.  1.
         25    2    1    2    0    0  0.00000000000E+00  0.00000000000E+00 -0.53066545909E+03  0.54518615370E+03  0.12498845033E+03 0.  0.
    9000005    1    3    3    0    0  0.48521926696E+02 -0.38479479940E+02 -0.22897421010E+03  0.23720294399E+03  0.10000000000E+01 0.  0.
    9000005    1    3    3    0    0 -0.48521926696E+02  0.38479479940E+02 -0.30169124899E+03  0.30798320971E+03  0.10000000000E+01 0.  0.
<mgrwt>
<rscale>  0 0.12498845E+03</rscale>
<asrwt>0</asrwt>
<pdfrwt beam="1">  1        4 0.11169769E-02 0.12498845E+03</pdfrwt>
<pdfrwt beam="2">  1       -4 0.82757785E-01 0.12498845E+03</pdfrwt>
<totfact> 0.52534695E+03</totfact>
</mgrwt>
</event>
<event>
 5    1  0.3300771E-002  0.1250027E+03  0.7818608E-02  0.1235065E+00
          4   -1    0    0  501    0  0.00000000000E+00  0.00000000000E+00  0.27327242872E+03  0.27327537979E+03  0.12700000000E+01 0.  1.
         -4   -1    0    0    0  501 -0.00000000000E+00 -0.00000000000E+00 -0.14263711373E+02  0.14320138342E+02  0.12700000000E+01 0.  1.
         25    2    1    2    0    0  0.00000000000E+00  0.00000000000E+00  0.25900871735E+03  0.28759551813E+03  0.12500266552E+03 0.  0.
    9000005    1    3    3    0    0  0.25210986057E+02  0.56711322732E+02  0.14635600167E+03  0.15897436010E+03  0.10000000000E+01 0.  0.
    9000005    1    3    3    0    0 -0.25210986057E+02 -0.56711322732E+02  0.11265271568E+03  0.12862115803E+03  0.10000000000E+01 0.  0.
<mgrwt>
<rscale>  0 0.12500267E+03</rscale>
<asrwt>0</asrwt>
<pdfrwt beam="1">  1        4 0.42046482E-01 0.12500267E+03</pdfrwt>
<pdfrwt beam="2">  1       -4 0.21989845E-02 0.12500267E+03</pdfrwt>
<totfact> 0.77177080E+03</totfact>
</mgrwt>
</event>
<event>
 5    1  0.3300771E-002  0.1249921E+03  0.7818608E-02  0.1235082E+00
         -4   -1    0    0    0  501 -0.00000000000E+00  0.00000000000E+00  0.25584209352E+03  0.25584524564E+03  0.12700000000E+01 0.  1.
          4   -1    0    0  501    0  0.00000000000E+00 -0.00000000000E+00 -0.15236617415E+02  0.15289454216E+02  0.12700000000E+01 0.  1.
         25    2    1    2    0    0  0.00000000000E+00  0.00000000000E+00  0.24060547610E+03  0.27113469985E+03  0.12499212109E+03 0.  0.
    9000005    1    3    3    0    0 -0.10836639661E+02 -0.15091345104E+02 -0.91173249602E+01  0.20719726606E+02  0.10000000000E+01 0.  0.
    9000005    1    3    3    0    0  0.10836639661E+02  0.15091345104E+02  0.24972280106E+03  0.25041497325E+03  0.10000000000E+01 0.  0.
<mgrwt>
<rscale>  0 0.12499212E+03</rscale>
<asrwt>0</asrwt>
<pdfrwt beam="2">  1        4 0.23484018E-02 0.12499212E+03</pdfrwt>
<pdfrwt beam="1">  1       -4 0.39364629E-01 0.12499212E+03</pdfrwt>
<totfact> 0.79382329E+03</totfact>
</mgrwt>
</event>
<event>
 5    1  0.3300771E-002  0.1250009E+03  0.7818608E-02  0.1235068E+00
          4   -1    0    0  501    0  0.00000000000E+00  0.00000000000E+00  0.21454552279E+01  0.24931662870E+01  0.12700000000E+01 0. -1.
         -4   -1    0    0    0  501 -0.00000000000E+00 -0.00000000000E+00 -0.16839045700E+04  0.16839050489E+04  0.12700000000E+01 0. -1.
         25    2    1    2    0    0  0.00000000000E+00  0.00000000000E+00 -0.16817591148E+04  0.16863982152E+04  0.12500088049E+03 0.  0.
    9000005    1    3    3    0    0  0.11519637159E+01 -0.18054299526E+02 -0.33888985991E+02  0.38428480627E+02  0.10000000000E+01 0.  0.
    9000005    1    3    3    0    0 -0.11519637159E+01  0.18054299526E+02 -0.16478701288E+04  0.16479697346E+04  0.10000000000E+01 0.  0.
<mgrwt>
<rscale>  0 0.12500088E+03</rscale>
<asrwt>0</asrwt>
<pdfrwt beam="1">  1        4 0.35685523E-03 0.12500088E+03</pdfrwt>
<pdfrwt beam="2">  1       -4 0.25908805E+00 0.12500088E+03</pdfrwt>
<totfact> 0.14535940E+03</totfact>
</mgrwt>
</event>
<event>
 5    1  0.3300771E-002  0.1249984E+03  0.7818608E-02  0.1235072E+00
         -4   -1    0    0    0  501 -0.00000000000E+00  0.00000000000E+00  0.68271122989E+03  0.68271241113E+03  0.12700000000E+01 0.  1.
          4   -1    0    0  501    0  0.00000000000E+00 -0.00000000000E+00 -0.56498542822E+01  0.57908335679E+01  0.12700000000E+01 0.  1.
         25    2    1    2    0    0  0.00000000000E+00  0.00000000000E+00  0.67706137560E+03  0.68850324470E+03  0.12499844650E+03 0.  0.
    9000005    1    3    3    0    0 -0.53023545027E+01 -0.55261607377E+02  0.49656526878E+03  0.49965991071E+03  0.10000000000E+01 0.  0.
    9000005    1    3    3    0    0  0.53023545027E+01  0.55261607377E+02  0.18049610682E+03  0.18884333399E+03  0.10000000000E+01 0.  0.
<mgrwt>
<rscale>  0 0.12499845E+03</rscale>
<asrwt>0</asrwt>
<pdfrwt beam="2">  1        4 0.88014424E-03 0.12499845E+03</pdfrwt>
<pdfrwt beam="1">  1       -4 0.10504338E+00 0.12499845E+03</pdfrwt>
<totfact> 0.43702082E+03</totfact>
</mgrwt>
</event>
<event>
 5    1  0.3300771E-002  0.1250017E+03  0.7818608E-02  0.1235067E+00
         -4   -1    0    0    0  501 -0.00000000000E+00  0.00000000000E+00  0.27945878261E+02  0.27974720942E+02  0.12700000000E+01 0. -1.
          4   -1    0    0  501    0  0.00000000000E+00 -0.00000000000E+00 -0.13967919251E+03  0.13968496597E+03  0.12700000000E+01 0. -1.
         25    2    1    2    0    0  0.00000000000E+00  0.00000000000E+00 -0.11173331424E+03  0.16765968692E+03  0.12500174841E+03 0.  0.
    9000005    1    3    3    0    0 -0.18004787638E+02 -0.58373331910E+02 -0.38187410811E+02  0.72047877142E+02  0.10000000000E+01 0.  0.
    9000005    1    3    3    0    0  0.18004787638E+02  0.58373331910E+02 -0.73545903434E+02  0.95611809773E+02  0.10000000000E+01 0.  0.
<mgrwt>
<rscale>  0 0.12500175E+03</rscale>
<asrwt>0</asrwt>
<pdfrwt beam="2">  1        4 0.21491769E-01 0.12500175E+03</pdfrwt>
<pdfrwt beam="1">  1       -4 0.43020287E-02 0.12500175E+03</pdfrwt>
<totfact> 0.95882283E+03</totfact>
</mgrwt>
</event>
<event>
 5    1  0.3300771E-002  0.1249901E+03  0.7818608E-02  0.1235085E+00
          4   -1    0    0  501    0  0.00000000000E+00  0.00000000000E+00  0.54635495828E+02  0.54650254386E+02  0.12700000000E+01 0.  1.
         -4   -1    0    0    0  501 -0.00000000000E+00 -0.00000000000E+00 -0.71455233023E+02  0.71466518220E+02  0.12700000000E+01 0.  1.
         25    2    1    2    0    0  0.00000000000E+00  0.00000000000E+00 -0.16819737195E+02  0.12611677261E+03  0.12499014670E+03 0.  0.
    9000005    1    3    3    0    0  0.38089656946E+02  0.29011138965E+02 -0.48923573021E+02  0.68461552330E+02  0.10000000000E+01 0.  0.
    9000005    1    3    3    0    0 -0.38089656946E+02 -0.29011138965E+02  0.32103835826E+02  0.57655220275E+02  0.10000000000E+01 0.  0.
<mgrwt>
<rscale>  0 0.12499015E+03</rscale>
<asrwt>0</asrwt>
<pdfrwt beam="1">  1        4 0.84074642E-02 0.12499015E+03</pdfrwt>
<pdfrwt beam="2">  1       -4 0.10995116E-01 0.12499015E+03</pdfrwt>
<totfact> 0.10430719E+04</totfact>
</mgrwt>
</event>
<event>
 5    1  0.3300771E-002  0.1250000E+03  0.7818608E-02  0.1235069E+00
          4   -1    0    0  501    0  0.00000000000E+00  0.00000000000E+00  0.83727462435E+02  0.83737093727E+02  0.12700000000E+01 0. -1.
         -4   -1    0    0    0  501 -0.00000000000E+00 -0.00000000000E+00 -0.46633403937E+02  0.46650694129E+02  0.12700000000E+01 0. -1.
         25    2    1    2    0    0  0.00000000000E+00  0.00000000000E+00  0.37094058498E+02  0.13038778786E+03  0.12500002419E+03 0.  0.
    9000005    1    3    3    0    0 -0.53449936154E+02 -0.31360128557E+02  0.10143861031E+02  0.62803274235E+02  0.10000000000E+01 0.  0.
    9000005    1    3    3    0    0  0.53449936154E+02  0.31360128557E+02  0.26950197467E+02  0.67584513622E+02  0.10000000000E+01 0.  0.
<mgrwt>
<rscale>  0 0.12500002E+03</rscale>
<asrwt>0</asrwt>
<pdfrwt beam="1">  1        4 0.12883219E-01 0.12500002E+03</pdfrwt>
<pdfrwt beam="2">  1       -4 0.71764408E-02 0.12500002E+03</pdfrwt>
<totfact> 0.10336213E+04</totfact>
</mgrwt>
</event>
<event>
 5    1  0.3300771E-002  0.1249963E+03  0.7818608E-02  0.1235075E+00
         -4   -1    0    0    0  501 -0.00000000000E+00  0.00000000000E+00  0.16881454503E+03  0.16881932210E+03  0.12700000000E+01 0. -1.
          4   -1    0    0  501    0  0.00000000000E+00 -0.00000000000E+00 -0.23115383943E+02  0.23150245675E+02  0.12700000000E+01 0. -1.
         25    2    1    2    0    0  0.00000000000E+00  0.00000000000E+00  0.14569916109E+03  0.19196956778E+03  0.12499627758E+03 0.  0.
    9000005    1    3    3    0    0  0.21303419933E+02  0.19688094808E+02  0.15785537747E+03  0.16050164165E+03  0.10000000000E+01 0.  0.
    9000005    1    3    3    0    0 -0.21303419933E+02 -0.19688094808E+02 -0.12156216376E+02  0.31467926125E+02  0.10000000000E+01 0.  0.
<mgrwt>
<rscale>  0 0.12499628E+03</rscale>
<asrwt>0</asrwt>
<pdfrwt beam="2">  1        4 0.35592620E-02 0.12499628E+03</pdfrwt>
<pdfrwt beam="1">  1       -4 0.25974518E-01 0.12499628E+03</pdfrwt>
<totfact> 0.91513370E+03</totfact>
</mgrwt>
</event>
<event>
 5    1  0.3300771E-002  0.1250011E+03  0.7818608E-02  0.1235068E+00
         -4   -1    0    0    0  501 -0.00000000000E+00  0.00000000000E+00  0.19784266746E+02  0.19824987028E+02  0.12700000000E+01 0. -1.
          4   -1    0    0  501    0  0.00000000000E+00 -0.00000000000E+00 -0.19719995951E+03  0.19720404897E+03  0.12700000000E+01 0. -1.
         25    2    1    2    0    0  0.00000000000E+00  0.00000000000E+00 -0.17741569276E+03  0.21702903600E+03  0.12500109771E+03 0.  0.
    9000005    1    3    3    0    0  0.55817839077E+02  0.36959461908E+01 -0.13707411133E+03  0.14805270405E+03  0.10000000000E+01 0.  0.
    9000005    1    3    3    0    0 -0.55817839077E+02 -0.36959461908E+01 -0.40341581431E+02  0.68976331954E+02  0.10000000000E+01 0.  0.
<mgrwt>
<rscale>  0 0.12500110E+03</rscale>
<asrwt>0</asrwt>
<pdfrwt beam="2">  1        4 0.30341901E-01 0.12500110E+03</pdfrwt>
<pdfrwt beam="1">  1       -4 0.30471804E-02 0.12500110E+03</pdfrwt>
<totfact> 0.87338518E+03</totfact>
</mgrwt>
</event>
<event>
 5    1  0.3300771E-002  0.1250005E+03  0.7818608E-02  0.1235068E+00
          4   -1    0    0  501    0  0.00000000000E+00  0.00000000000E+00  0.26899629965E+03  0.26899929763E+03  0.12700000000E+01 0.  1.
         -4   -1    0    0    0  501 -0.00000000000E+00 -0.00000000000E+00 -0.14490849762E+02  0.14546395665E+02  0.12700000000E+01 0.  1.
         25    2    1    2    0    0  0.00000000000E+00  0.00000000000E+00  0.25450544988E+03  0.28354569329E+03  0.12500054465E+03 0.  0.
    9000005    1    3    3    0    0  0.61234354014E+02 -0.84116593746E+00  0.99018268731E+02  0.11643011300E+03  0.10000000000E+01 0.  0.
    9000005    1    3    3    0    0 -0.61234354014E+02  0.84116593746E+00  0.15548718115E+03  0.16711558029E+03  0.10000000000E+01 0.  0.
<mgrwt>
<rscale>  0 0.12500054E+03</rscale>
<asrwt>0</asrwt>
<pdfrwt beam="1">  1        4 0.41388547E-01 0.12500054E+03</pdfrwt>
<pdfrwt beam="2">  1       -4 0.22338650E-02 0.12500054E+03</pdfrwt>
<totfact> 0.77709369E+03</totfact>
</mgrwt>
</event>
<event>
 5    1  0.3300771E-002  0.1250004E+03  0.7818608E-02  0.1235069E+00
          4   -1    0    0  501    0  0.00000000000E+00  0.00000000000E+00  0.22479617965E+03  0.22479976710E+03  0.12700000000E+01 0. -1.
         -4   -1    0    0    0  501 -0.00000000000E+00 -0.00000000000E+00 -0.17350035807E+02  0.17396454883E+02  0.12700000000E+01 0. -1.
         25    2    1    2    0    0  0.00000000000E+00  0.00000000000E+00  0.20744614385E+03  0.24219622198E+03  0.12500042938E+03 0.  0.
    9000005    1    3    3    0    0  0.28684359875E+02 -0.46430705861E+02  0.44741095357E+02  0.70578810998E+02  0.10000000000E+01 0.  0.
    9000005    1    3    3    0    0 -0.28684359875E+02  0.46430705861E+02  0.16270504849E+03  0.17161741098E+03  0.10000000000E+01 0.  0.
<mgrwt>
<rscale>  0 0.12500043E+03</rscale>
<asrwt>0</asrwt>
<pdfrwt beam="1">  1        4 0.34587873E-01 0.12500043E+03</pdfrwt>
<pdfrwt beam="2">  1       -4 0.26730831E-02 0.12500043E+03</pdfrwt>
<totfact> 0.83470564E+03</totfact>
</mgrwt>
</event>
<event>
 5    1  0.3300771E-002  0.1249990E+03  0.7818608E-02  0.1235071E+00
          4   -1    0    0  501    0  0.00000000000E+00  0.00000000000E+00  0.66008793344E+02  0.66021009525E+02  0.12700000000E+01 0.  1.
         -4   -1    0    0    0  501 -0.00000000000E+00 -0.00000000000E+00 -0.59152236689E+02  0.59165868584E+02  0.12700000000E+01 0.  1.
         25    2    1    2    0    0  0.00000000000E+00  0.00000000000E+00  0.68565566548E+01  0.12518687811E+03  0.12499896832E+03 0.  0.
    9000005    1    3    3    0    0 -0.17498920624E+02 -0.59828121393E+02 -0.10020792748E+01  0.62350785844E+02  0.10000000000E+01 0.  0.
    9000005    1    3    3    0    0  0.17498920624E+02  0.59828121393E+02  0.78586359296E+01  0.62836092265E+02  0.10000000000E+01 0.  0.
<mgrwt>
<rscale>  0 0.12499897E+03</rscale>
<asrwt>0</asrwt>
<pdfrwt beam="1">  1        4 0.10157187E-01 0.12499897E+03</pdfrwt>
<pdfrwt beam="2">  1       -4 0.91023325E-02 0.12499897E+03</pdfrwt>
<totfact> 0.10449049E+04</totfact>
</mgrwt>
</event>
<event>
 5    1  0.3300771E-002  0.1249906E+03  0.7818608E-02  0.1235084E+00
          4   -1    0    0  501    0  0.00000000000E+00  0.00000000000E+00  0.68889340916E+03  0.68889457980E+03  0.12700000000E+01 0. -1.
         -4   -1    0    0    0  501 -0.00000000000E+00 -0.00000000000E+00 -0.55971579553E+01  0.57394317817E+01  0.12700000000E+01 0. -1.
         25    2    1    2    0    0  0.00000000000E+00  0.00000000000E+00  0.68329625120E+03  0.69463401158E+03  0.12499057221E+03 0.  0.
    9000005    1    3    3    0    0 -0.18461432340E+02 -0.59605944463E+02  0.32324310554E+03  0.32921239099E+03  0.10000000000E+01 0.  0.
    9000005    1    3    3    0    0  0.18461432340E+02  0.59605944463E+02  0.36005314566E+03  0.36542162060E+03  0.10000000000E+01 0.  0.
<mgrwt>
<rscale>  0 0.12499057E+03</rscale>
<asrwt>0</asrwt>
<pdfrwt beam="1">  1        4 0.10599466E+00 0.12499057E+03</pdfrwt>
<pdfrwt beam="2">  1       -4 0.87213518E-03 0.12499057E+03</pdfrwt>
<totfact> 0.43380406E+03</totfact>
</mgrwt>
</event>
<event>
 5    1  0.3300771E-002  0.1250004E+03  0.7818608E-02  0.1235069E+00
          4   -1    0    0  501    0  0.00000000000E+00  0.00000000000E+00  0.14360218104E+03  0.14360779679E+03  0.12700000000E+01 0.  1.
         -4   -1    0    0    0  501 -0.00000000000E+00 -0.00000000000E+00 -0.27181068465E+02  0.27210721837E+02  0.12700000000E+01 0.  1.
         25    2    1    2    0    0  0.00000000000E+00  0.00000000000E+00  0.11642111257E+03  0.17081851863E+03  0.12500036341E+03 0.  0.
    9000005    1    3    3    0    0 -0.20846879711E+02  0.58042355529E+02  0.71996087328E+02  0.94804767916E+02  0.10000000000E+01 0.  0.
    9000005    1    3    3    0    0  0.20846879711E+02 -0.58042355529E+02  0.44425025244E+02  0.76013750710E+02  0.10000000000E+01 0.  0.
<mgrwt>
<rscale>  0 0.12500036E+03</rscale>
<asrwt>0</asrwt>
<pdfrwt beam="1">  1        4 0.22095356E-01 0.12500036E+03</pdfrwt>
<pdfrwt beam="2">  1       -4 0.41844159E-02 0.12500036E+03</pdfrwt>
<totfact> 0.95295518E+03</totfact>
</mgrwt>
</event>
<event>
 5    1  0.3300771E-002  0.1249995E+03  0.7818608E-02  0.1235070E+00
          4   -1    0    0  501    0  0.00000000000E+00  0.00000000000E+00  0.21718937821E+03  0.21719309130E+03  0.12700000000E+01 0.  1.
         -4   -1    0    0    0  501 -0.00000000000E+00 -0.00000000000E+00 -0.17959027314E+02  0.18003876307E+02  0.12700000000E+01 0.  1.
         25    2    1    2    0    0  0.00000000000E+00  0.00000000000E+00  0.19923035090E+03  0.23519696760E+03  0.12499952341E+03 0.  0.
    9000005    1    3    3    0    0  0.59464109255E+02 -0.11784762172E+02  0.12817307357E+03  0.14178927215E+03  0.10000000000E+01 0.  0.
    9000005    1    3    3    0    0 -0.59464109255E+02  0.11784762172E+02  0.71057277330E+02  0.93407695456E+02  0.10000000000E+01 0.  0.
<mgrwt>
<rscale>  0 0.12499952E+03</rscale>
<asrwt>0</asrwt>
<pdfrwt beam="1">  1        4 0.33417487E-01 0.12499952E+03</pdfrwt>
<pdfrwt beam="2">  1       -4 0.27666627E-02 0.12499952E+03</pdfrwt>
<totfact> 0.84518830E+03</totfact>
</mgrwt>
</event>
<event>
 5    1  0.3300771E-002  0.1250004E+03  0.7818608E-02  0.1235069E+00
          4   -1    0    0  501    0  0.00000000000E+00  0.00000000000E+00  0.13350493179E+02  0.13410763144E+02  0.12700000000E+01 0.  1.
         -4   -1    0    0    0  501 -0.00000000000E+00 -0.00000000000E+00 -0.29187334307E+03  0.29187610607E+03  0.12700000000E+01 0.  1.
         25    2    1    2    0    0  0.00000000000E+00  0.00000000000E+00 -0.27852284989E+03  0.30528686922E+03  0.12500037841E+03 0.  0.
    9000005    1    3    3    0    0  0.21498447664E+02  0.18804501169E+02 -0.27501134147E+03  0.27649236961E+03  0.10000000000E+01 0.  0.
    9000005    1    3    3    0    0 -0.21498447664E+02 -0.18804501169E+02 -0.35115084248E+01  0.28794499607E+02  0.10000000000E+01 0.  0.
<mgrwt>
<rscale>  0 0.12500038E+03</rscale>
<asrwt>0</asrwt>
<pdfrwt beam="1">  1        4 0.20587709E-02 0.12500038E+03</pdfrwt>
<pdfrwt beam="2">  1       -4 0.44908435E-01 0.12500038E+03</pdfrwt>
<totfact> 0.74939786E+03</totfact>
</mgrwt>
</event>
<event>
 5    1  0.3300771E-002  0.1250010E+03  0.7818608E-02  0.1235068E+00
          4   -1    0    0  501    0  0.00000000000E+00  0.00000000000E+00  0.28603717581E+03  0.28603999519E+03  0.12700000000E+01 0. -1.
         -4   -1    0    0    0  501 -0.00000000000E+00 -0.00000000000E+00 -0.13624248037E+02  0.13683312266E+02  0.12700000000E+01 0. -1.
         25    2    1    2    0    0  0.00000000000E+00  0.00000000000E+00  0.27241292778E+03  0.29972330746E+03  0.12500103124E+03 0.  0.
    9000005    1    3    3    0    0  0.28205695774E+02 -0.52238706390E+02  0.18300106200E+03  0.19239239177E+03  0.10000000000E+01 0.  0.
    9000005    1    3    3    0    0 -0.28205695774E+02  0.52238706390E+02  0.89411865781E+02  0.10733091569E+03  0.10000000000E+01 0.  0.
<mgrwt>
<rscale>  0 0.12500103E+03</rscale>
<asrwt>0</asrwt>
<pdfrwt beam="1">  1        4 0.44010476E-01 0.12500103E+03</pdfrwt>
<pdfrwt beam="2">  1       -4 0.21007986E-02 0.12500103E+03</pdfrwt>
<totfact> 0.75631829E+03</totfact>
</mgrwt>
</event>
<event>
 5    1  0.3300771E-002  0.1250005E+03  0.7818608E-02  0.1235069E+00
         -4   -1    0    0    0  501 -0.00000000000E+00  0.00000000000E+00  0.13090459221E+03  0.13091075266E+03  0.12700000000E+01 0.  1.
          4   -1    0    0  501    0  0.00000000000E+00 -0.00000000000E+00 -0.29820279883E+02  0.29847311308E+02  0.12700000000E+01 0.  1.
         25    2    1    2    0    0  0.00000000000E+00  0.00000000000E+00  0.10108431233E+03  0.16075806397E+03  0.12500046773E+03 0.  0.
    9000005    1    3    3    0    0 -0.19887123862E+02 -0.55379687749E+02  0.77606662181E+02  0.97397133046E+02  0.10000000000E+01 0.  0.
    9000005    1    3    3    0    0  0.19887123862E+02  0.55379687749E+02  0.23477650145E+02  0.63360930919E+02  0.10000000000E+01 0.  0.
<mgrwt>
<rscale>  0 0.12500047E+03</rscale>
<asrwt>0</asrwt>
<pdfrwt beam="2">  1        4 0.45902886E-02 0.12500047E+03</pdfrwt>
<pdfrwt beam="1">  1       -4 0.20141721E-01 0.12500047E+03</pdfrwt>
<totfact> 0.97195813E+03</totfact>
</mgrwt>
</event>
<event>
 5    1  0.3300771E-002  0.1250020E+03  0.7818608E-02  0.1235066E+00
         -4   -1    0    0    0  501 -0.00000000000E+00  0.00000000000E+00  0.25587124653E+02  0.25618623070E+02  0.12700000000E+01 0. -1.
          4   -1    0    0  501    0  0.00000000000E+00 -0.00000000000E+00 -0.15254143489E+03  0.15254672156E+03  0.12700000000E+01 0. -1.
         25    2    1    2    0    0  0.00000000000E+00  0.00000000000E+00 -0.12695431024E+03  0.17816534463E+03  0.12500197254E+03 0.  0.
    9000005    1    3    3    0    0  0.56116326892E+02 -0.19285404163E+02 -0.35532387665E+02  0.69170221416E+02  0.10000000000E+01 0.  0.
    9000005    1    3    3    0    0 -0.56116326892E+02  0.19285404163E+02 -0.91421922573E+02  0.10899512321E+03  0.10000000000E+01 0.  0.
<mgrwt>
<rscale>  0 0.12500197E+03</rscale>
<asrwt>0</asrwt>
<pdfrwt beam="2">  1        4 0.23470742E-01 0.12500197E+03</pdfrwt>
<pdfrwt beam="1">  1       -4 0.39393104E-02 0.12500197E+03</pdfrwt>
<totfact> 0.93944138E+03</totfact>
</mgrwt>
</event>
<event>
 4    1  0.3300771E-002  0.1251728E+03  0.7818608E-02  0.1234800E+00
          4   -1    0    0  501    0  0.00000000000E+00  0.00000000000E+00  0.14077539994E+03  0.14078112845E+03  0.12700000000E+01 0.  1.
         -4   -1    0    0    0  501 -0.00000000000E+00 -0.00000000000E+00 -0.27804070397E+02  0.27833060030E+02  0.12700000000E+01 0.  1.
    9000005    1    1    2    0    0  0.95110552688E+01 -0.61850846184E+02  0.56838141730E+02  0.84543253435E+02  0.10000000000E+01 0.  0.
    9000005    1    1    2    0    0 -0.95110552688E+01  0.61850846184E+02  0.56133187815E+02  0.84070935051E+02  0.10000000000E+01 0.  0.
<mgrwt>
<rscale>  0 0.12517277E+03</rscale>
<asrwt>0</asrwt>
<pdfrwt beam="1">  1        4 0.21660425E-01 0.12517277E+03</pdfrwt>
<pdfrwt beam="2">  1       -4 0.42802199E-02 0.12517277E+03</pdfrwt>
<totfact> 0.95336890E+03</totfact>
</mgrwt>
</event>
<event>
 5    1  0.3300771E-002  0.1249993E+03  0.7818608E-02  0.1235070E+00
         -4   -1    0    0    0  501 -0.00000000000E+00  0.00000000000E+00  0.46020866117E+03  0.46021041353E+03  0.12700000000E+01 0. -1.
          4   -1    0    0  501    0  0.00000000000E+00 -0.00000000000E+00 -0.84386123200E+01  0.85336438809E+01  0.12700000000E+01 0. -1.
         25    2    1    2    0    0  0.00000000000E+00  0.00000000000E+00  0.45177004885E+03  0.46874405741E+03  0.12499925726E+03 0.  0.
    9000005    1    3    3    0    0 -0.34406035865E+02  0.20000187202E+02  0.45207023430E+02  0.60236681179E+02  0.10000000000E+01 0.  0.
    9000005    1    3    3    0    0  0.34406035865E+02 -0.20000187202E+02  0.40656302542E+03  0.40850737623E+03  0.10000000000E+01 0.  0.
<mgrwt>
<rscale>  0 0.12499926E+03</rscale>
<asrwt>0</asrwt>
<pdfrwt beam="2">  1        4 0.13056929E-02 0.12499926E+03</pdfrwt>
<pdfrwt beam="1">  1       -4 0.70808783E-01 0.12499926E+03</pdfrwt>
<totfact> 0.58374656E+03</totfact>
</mgrwt>
</event>
<event>
 5    1  0.3300771E-002  0.1250013E+03  0.7818608E-02  0.1235067E+00
         -4   -1    0    0    0  501 -0.00000000000E+00  0.00000000000E+00  0.30264549937E+03  0.30264816403E+03  0.12700000000E+01 0. -1.
          4   -1    0    0  501    0  0.00000000000E+00 -0.00000000000E+00 -0.12873321735E+02  0.12935815108E+02  0.12700000000E+01 0. -1.
         25    2    1    2    0    0  0.00000000000E+00  0.00000000000E+00  0.28977217763E+03  0.31558397913E+03  0.12500133181E+03 0.  0.
    9000005    1    3    3    0    0 -0.58088608436E+02 -0.72015463854E+01  0.89620893931E+02  0.10704696787E+03  0.10000000000E+01 0.  0.
    9000005    1    3    3    0    0  0.58088608436E+02  0.72015463854E+01  0.20015128370E+03  0.20853701127E+03  0.10000000000E+01 0.  0.
<mgrwt>
<rscale>  0 0.12500133E+03</rscale>
<asrwt>0</asrwt>
<pdfrwt beam="2">  1        4 0.19855231E-02 0.12500133E+03</pdfrwt>
<pdfrwt beam="1">  1       -4 0.46565861E-01 0.12500133E+03</pdfrwt>
<totfact> 0.73682269E+03</totfact>
</mgrwt>
</event>
<event>
 5    1  0.3300771E-002  0.1250007E+03  0.7818608E-02  0.1235068E+00
          4   -1    0    0  501    0  0.00000000000E+00  0.00000000000E+00  0.89544918599E+02  0.89553924240E+02  0.12700000000E+01 0.  1.
         -4   -1    0    0    0  501 -0.00000000000E+00 -0.00000000000E+00 -0.43603406798E+02  0.43621897991E+02  0.12700000000E+01 0.  1.
         25    2    1    2    0    0  0.00000000000E+00  0.00000000000E+00  0.45941511801E+02  0.13317582223E+03  0.12500070848E+03 0.  0.
    9000005    1    3    3    0    0 -0.48149686393E+02 -0.13171300165E+02 -0.17083470574E+02  0.52770450203E+02  0.10000000000E+01 0.  0.
    9000005    1    3    3    0    0  0.48149686393E+02  0.13171300165E+02  0.63024982375E+02  0.80405372029E+02  0.10000000000E+01 0.  0.
<mgrwt>
<rscale>  0 0.12500071E+03</rscale>
<asrwt>0</asrwt>
<pdfrwt beam="1">  1        4 0.13778256E-01 0.12500071E+03</pdfrwt>
<pdfrwt beam="2">  1       -4 0.67103317E-02 0.12500071E+03</pdfrwt>
<totfact> 0.10276500E+04</totfact>
</mgrwt>
</event>
<event>
 5    1  0.3300771E-002  0.1249920E+03  0.7818608E-02  0.1235082E+00
         -4   -1    0    0    0  501 -0.00000000000E+00  0.00000000000E+00  0.32992818979E+03  0.32993063410E+03  0.12700000000E+01 0.  1.
          4   -1    0    0  501    0  0.00000000000E+00 -0.00000000000E+00 -0.11801628578E+02  0.11869765671E+02  0.12700000000E+01 0.  1.
         25    2    1    2    0    0  0.00000000000E+00  0.00000000000E+00  0.31812656121E+03  0.34180039977E+03  0.12499201709E+03 0.  0.
    9000005    1    3    3    0    0 -0.46512712288E+02 -0.10444695692E+02  0.48584068081E+02  0.68073017737E+02  0.10000000000E+01 0.  0.
    9000005    1    3    3    0    0  0.46512712288E+02  0.10444695692E+02  0.26954249313E+03  0.27372738203E+03  0.10000000000E+01 0.  0.
<mgrwt>
<rscale>  0 0.12499202E+03</rscale>
<asrwt>0</asrwt>
<pdfrwt beam="2">  1        4 0.18210644E-02 0.12499202E+03</pdfrwt>
<pdfrwt beam="1">  1       -4 0.50763615E-01 0.12499202E+03</pdfrwt>
<totfact> 0.70648614E+03</totfact>
</mgrwt>
</event>
<event>
 5    1  0.3300771E-002  0.1250001E+03  0.7818608E-02  0.1235069E+00
         -4   -1    0    0    0  501 -0.00000000000E+00  0.00000000000E+00  0.10659688494E+02  0.10735076096E+02  0.12700000000E+01 0. -1.
          4   -1    0    0  501    0  0.00000000000E+00 -0.00000000000E+00 -0.36508374253E+03  0.36508595147E+03  0.12700000000E+01 0. -1.
         25    2    1    2    0    0  0.00000000000E+00  0.00000000000E+00 -0.35442405403E+03  0.37582102756E+03  0.12500013872E+03 0.  0.
    9000005    1    3    3    0    0 -0.50717081310E+02  0.11671319607E+02 -0.73199801565E+02  0.89820114602E+02  0.10000000000E+01 0.  0.
    9000005    1    3    3    0    0  0.50717081310E+02 -0.11671319607E+02 -0.28122425247E+03  0.28600091296E+03  0.10000000000E+01 0.  0.
<mgrwt>
<rscale>  0 0.12500014E+03</rscale>
<asrwt>0</asrwt>
<pdfrwt beam="2">  1        4 0.56172689E-01 0.12500014E+03</pdfrwt>
<pdfrwt beam="1">  1       -4 0.16459213E-02 0.12500014E+03</pdfrwt>
<totfact> 0.66974113E+03</totfact>
</mgrwt>
</event>
<event>
 5    1  0.3300771E-002  0.1250044E+03  0.7818608E-02  0.1235062E+00
          4   -1    0    0  501    0  0.00000000000E+00  0.00000000000E+00  0.23732085508E+01  0.26916572638E+01  0.12700000000E+01 0. -1.
         -4   -1    0    0    0  501 -0.00000000000E+00 -0.00000000000E+00 -0.15422790768E+04  0.15422795997E+04  0.12700000000E+01 0. -1.
         25    2    1    2    0    0  0.00000000000E+00  0.00000000000E+00 -0.15399058683E+04  0.15449712570E+04  0.12500440696E+03 0.  0.
    9000005    1    3    3    0    0 -0.59155952310E+02 -0.20147982143E+02 -0.77485885832E+03  0.77737546797E+03  0.10000000000E+01 0.  0.
    9000005    1    3    3    0    0  0.59155952310E+02  0.20147982143E+02 -0.76504700996E+03  0.76759578902E+03  0.10000000000E+01 0.  0.
<mgrwt>
<rscale>  0 0.12500441E+03</rscale>
<asrwt>0</asrwt>
<pdfrwt beam="1">  1        4 0.38964652E-03 0.12500441E+03</pdfrwt>
<pdfrwt beam="2">  1       -4 0.23729749E+00 0.12500441E+03</pdfrwt>
<totfact> 0.17061596E+03</totfact>
</mgrwt>
</event>
<event>
 5    1  0.3300771E-002  0.1249937E+03  0.7818608E-02  0.1235079E+00
          4   -1    0    0  501    0  0.00000000000E+00  0.00000000000E+00  0.12868019956E+03  0.12868646649E+03  0.12700000000E+01 0. -1.
         -4   -1    0    0    0  501 -0.00000000000E+00 -0.00000000000E+00 -0.30332923798E+02  0.30359498779E+02  0.12700000000E+01 0. -1.
         25    2    1    2    0    0  0.00000000000E+00  0.00000000000E+00  0.98347275760E+02  0.15904596527E+03  0.12499372952E+03 0.  0.
    9000005    1    3    3    0    0  0.55111769045E+02 -0.31647621866E+01  0.86435146336E+02  0.10256391826E+03  0.10000000000E+01 0.  0.
    9000005    1    3    3    0    0 -0.55111769045E+02  0.31647621866E+01  0.11912129423E+02  0.56482047009E+02  0.10000000000E+01 0.  0.
<mgrwt>
<rscale>  0 0.12499373E+03</rscale>
<asrwt>0</asrwt>
<pdfrwt beam="1">  1        4 0.19799480E-01 0.12499373E+03</pdfrwt>
<pdfrwt beam="2">  1       -4 0.46691300E-02 0.12499373E+03</pdfrwt>
<totfact> 0.97540780E+03</totfact>
</mgrwt>
</event>
<event>
 5    1  0.3300771E-002  0.1249837E+03  0.7818608E-02  0.1235095E+00
          4   -1    0    0  501    0  0.00000000000E+00  0.00000000000E+00  0.28018545180E+02  0.28047313134E+02  0.12700000000E+01 0. -1.
         -4   -1    0    0    0  501 -0.00000000000E+00 -0.00000000000E+00 -0.13927705737E+03  0.13928284751E+03  0.12700000000E+01 0. -1.
         25    2    1    2    0    0  0.00000000000E+00  0.00000000000E+00 -0.11125851219E+03  0.16733016064E+03  0.12498370344E+03 0.  0.
    9000005    1    3    3    0    0  0.16126893088E+02  0.17329502392E+01  0.25157510694E+02  0.29949626734E+02  0.10000000000E+01 0.  0.
    9000005    1    3    3    0    0 -0.16126893088E+02 -0.17329502392E+01 -0.13641602288E+03  0.13738053391E+03  0.10000000000E+01 0.  0.
<mgrwt>
<rscale>  0 0.12498370E+03</rscale>
<asrwt>0</asrwt>
<pdfrwt beam="1">  1        4 0.43132038E-02 0.12498370E+03</pdfrwt>
<pdfrwt beam="2">  1       -4 0.21429898E-01 0.12498370E+03</pdfrwt>
<totfact> 0.95983034E+03</totfact>
</mgrwt>
</event>
<event>
 5    1  0.3300771E-002  0.1249904E+03  0.7818608E-02  0.1235084E+00
         -4   -1    0    0    0  501 -0.00000000000E+00  0.00000000000E+00  0.11474819794E+03  0.11475522573E+03  0.12700000000E+01 0. -1.
          4   -1    0    0  501    0  0.00000000000E+00 -0.00000000000E+00 -0.34016754899E+02  0.34040454078E+02  0.12700000000E+01 0. -1.
         25    2    1    2    0    0  0.00000000000E+00  0.00000000000E+00  0.80731443044E+02  0.14879567980E+03  0.12499035336E+03 0.  0.
    9000005    1    3    3    0    0 -0.16766461048E+02 -0.25105049803E+02  0.10549656861E+03  0.10973560830E+03  0.10000000000E+01 0.  0.
    9000005    1    3    3    0    0  0.16766461048E+02  0.25105049803E+02 -0.24765125561E+02  0.39060071502E+02  0.10000000000E+01 0.  0.
<mgrwt>
<rscale>  0 0.12499035E+03</rscale>
<asrwt>0</asrwt>
<pdfrwt beam="2">  1        4 0.52357105E-02 0.12499035E+03</pdfrwt>
<pdfrwt beam="1">  1       -4 0.17655933E-01 0.12499035E+03</pdfrwt>
<totfact> 0.99565922E+03</totfact>
</mgrwt>
</event>
<event>
 5    1  0.3300771E-002  0.1250012E+03  0.7818608E-02  0.1235067E+00
         -4   -1    0    0    0  501 -0.00000000000E+00  0.00000000000E+00  0.16270186542E+02  0.16319677390E+02  0.12700000000E+01 0.  1.
          4   -1    0    0  501    0  0.00000000000E+00 -0.00000000000E+00 -0.23967520157E+03  0.23967856630E+03  0.12700000000E+01 0.  1.
         25    2    1    2    0    0  0.00000000000E+00  0.00000000000E+00 -0.22340501502E+03  0.25599824369E+03  0.12500120014E+03 0.  0.
    9000005    1    3    3    0    0 -0.59633145290E+02 -0.18684602328E+02 -0.11105934238E+03  0.12743784332E+03  0.10000000000E+01 0.  0.
    9000005    1    3    3    0    0  0.59633145290E+02  0.18684602328E+02 -0.11234567264E+03  0.12856040037E+03  0.10000000000E+01 0.  0.
<mgrwt>
<rscale>  0 0.12500120E+03</rscale>
<asrwt>0</asrwt>
<pdfrwt beam="2">  1        4 0.36877171E-01 0.12500120E+03</pdfrwt>
<pdfrwt beam="1">  1       -4 0.25071716E-02 0.12500120E+03</pdfrwt>
<totfact> 0.81468775E+03</totfact>
</mgrwt>
</event>
<event>
 5    1  0.3300771E-002  0.1250025E+03  0.7818608E-02  0.1235065E+00
         -4   -1    0    0    0  501 -0.00000000000E+00  0.00000000000E+00  0.26130921774E+01  0.29053658509E+01  0.12700000000E+01 0. -1.
          4   -1    0    0  501    0  0.00000000000E+00 -0.00000000000E+00 -0.14154668702E+04  0.14154674399E+04  0.12700000000E+01 0. -1.
         25    2    1    2    0    0  0.00000000000E+00  0.00000000000E+00 -0.14128537780E+04  0.14183728058E+04  0.12500247253E+03 0.  0.
    9000005    1    3    3    0    0  0.61273468815E+02  0.94560977974E+00 -0.84542924833E+03  0.84764789039E+03  0.10000000000E+01 0.  0.
    9000005    1    3    3    0    0 -0.61273468815E+02 -0.94560977974E+00 -0.56742452966E+03  0.57072491537E+03  0.10000000000E+01 0.  0.
<mgrwt>
<rscale>  0 0.12500247E+03</rscale>
<asrwt>0</asrwt>
<pdfrwt beam="2">  1        4 0.21778608E+00 0.12500247E+03</pdfrwt>
<pdfrwt beam="1">  1       -4 0.42454173E-03 0.12500247E+03</pdfrwt>
<totfact> 0.19589077E+03</totfact>
</mgrwt>
</event>
<event>
 5    1  0.3300771E-002  0.1250003E+03  0.7818608E-02  0.1235069E+00
          4   -1    0    0  501    0  0.00000000000E+00  0.00000000000E+00  0.11687142178E+02  0.11755942850E+02  0.12700000000E+01 0.  1.
         -4   -1    0    0    0  501 -0.00000000000E+00 -0.00000000000E+00 -0.33318571157E+03  0.33318813198E+03  0.12700000000E+01 0.  1.
         25    2    1    2    0    0  0.00000000000E+00  0.00000000000E+00 -0.32149856939E+03  0.34494407483E+03  0.12500033856E+03 0.  0.
    9000005    1    3    3    0    0 -0.15345056173E+02  0.40079353490E+02 -0.35396485415E+02  0.55639343138E+02  0.10000000000E+01 0.  0.
    9000005    1    3    3    0    0  0.15345056173E+02 -0.40079353490E+02 -0.28610208398E+03  0.28930473169E+03  0.10000000000E+01 0.  0.
<mgrwt>
<rscale>  0 0.12500034E+03</rscale>
<asrwt>0</asrwt>
<pdfrwt beam="1">  1        4 0.18035007E-02 0.12500034E+03</pdfrwt>
<pdfrwt beam="2">  1       -4 0.51264812E-01 0.12500034E+03</pdfrwt>
<totfact> 0.70283850E+03</totfact>
</mgrwt>
</event>
<event>
 5    1  0.3300771E-002  0.1250006E+03  0.7818608E-02  0.1235068E+00
         -4   -1    0    0    0  501 -0.00000000000E+00  0.00000000000E+00  0.40879345851E+02  0.40899068660E+02  0.12700000000E+01 0. -1.
          4   -1    0    0  501    0  0.00000000000E+00 -0.00000000000E+00 -0.95509516292E+02  0.95517959580E+02  0.12700000000E+01 0. -1.
         25    2    1    2    0    0  0.00000000000E+00  0.00000000000E+00 -0.54630170441E+02  0.13641702824E+03  0.12500060028E+03 0.  0.
    9000005    1    3    3    0    0  0.34125739990E+02 -0.25026834169E+02  0.22866907149E+02  0.48112410052E+02  0.10000000000E+01 0.  0.
    9000005    1    3    3    0    0 -0.34125739990E+02  0.25026834169E+02 -0.77497077590E+02  0.88304618188E+02  0.10000000000E+01 0.  0.
<mgrwt>
<rscale>  0 0.12500060E+03</rscale>
<asrwt>0</asrwt>
<pdfrwt beam="2">  1        4 0.14695938E-01 0.12500060E+03</pdfrwt>
<pdfrwt beam="1">  1       -4 0.62912968E-02 0.12500060E+03</pdfrwt>
<totfact> 0.10208151E+04</totfact>
</mgrwt>
</event>
<event>
 5    1  0.3300771E-002  0.1249996E+03  0.7818608E-02  0.1235070E+00
         -4   -1    0    0    0  501 -0.00000000000E+00  0.00000000000E+00  0.46075965942E+02  0.46093465236E+02  0.12700000000E+01 0. -1.
          4   -1    0    0  501    0  0.00000000000E+00 -0.00000000000E+00 -0.84739566576E+02  0.84749082847E+02  0.12700000000E+01 0. -1.
         25    2    1    2    0    0  0.00000000000E+00  0.00000000000E+00 -0.38663600633E+02  0.13084254808E+03  0.12499959350E+03 0.  0.
    9000005    1    3    3    0    0 -0.11480945822E+02  0.13142278570E+02 -0.82142472212E+02  0.83981648853E+02  0.10000000000E+01 0.  0.
    9000005    1    3    3    0    0  0.11480945822E+02 -0.13142278570E+02  0.43478871578E+02  0.46860899231E+02  0.10000000000E+01 0.  0.
<mgrwt>
<rscale>  0 0.12499959E+03</rscale>
<asrwt>0</asrwt>
<pdfrwt beam="2">  1        4 0.13038935E-01 0.12499959E+03</pdfrwt>
<pdfrwt beam="1">  1       -4 0.70906883E-02 0.12499959E+03</pdfrwt>
<totfact> 0.10326561E+04</totfact>
</mgrwt>
</event>
<event>
 5    1  0.3300771E-002  0.1250025E+03  0.7818608E-02  0.1235065E+00
         -4   -1    0    0    0  501 -0.00000000000E+00  0.00000000000E+00  0.12278595736E+02  0.12344100342E+02  0.12700000000E+01 0. -1.
          4   -1    0    0  501    0  0.00000000000E+00 -0.00000000000E+00 -0.31723439398E+03  0.31723693610E+03  0.12700000000E+01 0. -1.
         25    2    1    2    0    0  0.00000000000E+00  0.00000000000E+00 -0.30495579824E+03  0.32958103644E+03  0.12500248277E+03 0.  0.
    9000005    1    3    3    0    0 -0.51102441126E+02 -0.35194117958E+02 -0.13286762490E+03  0.14664546080E+03  0.10000000000E+01 0.  0.
    9000005    1    3    3    0    0  0.51102441126E+02  0.35194117958E+02 -0.17208817334E+03  0.18293557563E+03  0.10000000000E+01 0.  0.
<mgrwt>
<rscale>  0 0.12500248E+03</rscale>
<asrwt>0</asrwt>
<pdfrwt beam="2">  1        4 0.48810519E-01 0.12500248E+03</pdfrwt>
<pdfrwt beam="1">  1       -4 0.18942493E-02 0.12500248E+03</pdfrwt>
<totfact> 0.72026935E+03</totfact>
</mgrwt>
</event>
<event>
 5    1  0.3300771E-002  0.1250046E+03  0.7818608E-02  0.1235062E+00
         -4   -1    0    0    0  501 -0.00000000000E+00  0.00000000000E+00  0.22536422362E+03  0.22536780202E+03  0.12700000000E+01 0.  1.
          4   -1    0    0  501    0  0.00000000000E+00 -0.00000000000E+00 -0.17307336178E+02  0.17353869470E+02  0.12700000000E+01 0.  1.
         25    2    1    2    0    0  0.00000000000E+00  0.00000000000E+00  0.20805688744E+03  0.24272167149E+03  0.12500456551E+03 0.  0.
    9000005    1    3    3    0    0 -0.36817895298E+02 -0.31386603975E+02  0.18083889009E+03  0.18720144362E+03  0.10000000000E+01 0.  0.
    9000005    1    3    3    0    0  0.36817895298E+02  0.31386603975E+02  0.27217997353E+02  0.55520227874E+02  0.10000000000E+01 0.  0.
<mgrwt>
<rscale>  0 0.12500457E+03</rscale>
<asrwt>0</asrwt>
<pdfrwt beam="2">  1        4 0.26665218E-02 0.12500457E+03</pdfrwt>
<pdfrwt beam="1">  1       -4 0.34675275E-01 0.12500457E+03</pdfrwt>
<totfact> 0.83385198E+03</totfact>
</mgrwt>
</event>
<event>
 5    1  0.3300771E-002  0.1249970E+03  0.7818608E-02  0.1235074E+00
         -4   -1    0    0    0  501 -0.00000000000E+00  0.00000000000E+00  0.30690591637E+01  0.33214491040E+01  0.12700000000E+01 0. -1.
          4   -1    0    0  501    0  0.00000000000E+00 -0.00000000000E+00 -0.12222055602E+04  0.12222062200E+04  0.12700000000E+01 0. -1.
         25    2    1    2    0    0  0.00000000000E+00  0.00000000000E+00 -0.12191365010E+04  0.12255276691E+04  0.12499703860E+03 0.  0.
    9000005    1    3    3    0    0 -0.44426266663E+02 -0.28147208029E+02 -0.27866156031E+03  0.28358283390E+03  0.10000000000E+01 0.  0.
    9000005    1    3    3    0    0  0.44426266663E+02  0.28147208029E+02 -0.94047494070E+03  0.94194483521E+03  0.10000000000E+01 0.  0.
<mgrwt>
<rscale>  0 0.12499704E+03</rscale>
<asrwt>0</asrwt>
<pdfrwt beam="2">  1        4 0.18805072E+00 0.12499704E+03</pdfrwt>
<pdfrwt beam="1">  1       -4 0.49162929E-03 0.12499704E+03</pdfrwt>
<totfact> 0.24055796E+03</totfact>
</mgrwt>
</event>
<event>
 5    1  0.3300771E-002  0.1249964E+03  0.7818608E-02  0.1235075E+00
          4   -1    0    0  501    0  0.00000000000E+00  0.00000000000E+00  0.48567928669E+01  0.50200933210E+01  0.12700000000E+01 0. -1.
         -4   -1    0    0    0  501 -0.00000000000E+00 -0.00000000000E+00 -0.79077830385E+03  0.79077932366E+03  0.12700000000E+01 0. -1.
         25    2    1    2    0    0  0.00000000000E+00  0.00000000000E+00 -0.78592151098E+03  0.79579941698E+03  0.12499636256E+03 0.  0.
    9000005    1    3    3    0    0  0.66308746951E+01 -0.61190435736E+02 -0.46176247428E+03  0.46584742200E+03  0.10000000000E+01 0.  0.
    9000005    1    3    3    0    0 -0.66308746951E+01  0.61190435736E+02 -0.32415903669E+03  0.32995199499E+03  0.10000000000E+01 0.  0.
<mgrwt>
<rscale>  0 0.12499636E+03</rscale>
<asrwt>0</asrwt>
<pdfrwt beam="1">  1        4 0.75983955E-03 0.12499636E+03</pdfrwt>
<pdfrwt beam="2">  1       -4 0.12167074E+00 0.12499636E+03</pdfrwt>
<totfact> 0.38456024E+03</totfact>
</mgrwt>
</event>
<event>
 5    1  0.3300771E-002  0.1249991E+03  0.7818608E-02  0.1235071E+00
          4   -1    0    0  501    0  0.00000000000E+00  0.00000000000E+00  0.44226916033E+02  0.44245146647E+02  0.12700000000E+01 0. -1.
         -4   -1    0    0    0  501 -0.00000000000E+00 -0.00000000000E+00 -0.88280689963E+02  0.88289824557E+02  0.12700000000E+01 0. -1.
         25    2    1    2    0    0  0.00000000000E+00  0.00000000000E+00 -0.44053773930E+02  0.13253497120E+03  0.12499913438E+03 0.  0.
    9000005    1    3    3    0    0  0.58348475441E+02 -0.50214449646E+01 -0.45145921740E+02  0.73952104403E+02  0.10000000000E+01 0.  0.
    9000005    1    3    3    0    0 -0.58348475441E+02  0.50214449646E+01  0.10921478107E+01  0.58582866801E+02  0.10000000000E+01 0.  0.
<mgrwt>
<rscale>  0 0.12499913E+03</rscale>
<asrwt>0</asrwt>
<pdfrwt beam="1">  1        4 0.68062460E-02 0.12499913E+03</pdfrwt>
<pdfrwt beam="2">  1       -4 0.13583750E-01 0.12499913E+03</pdfrwt>
<totfact> 0.10290494E+04</totfact>
</mgrwt>
</event>
<event>
 4    1  0.3300771E-002  0.1250679E+03  0.7818608E-02  0.1234963E+00
         -4   -1    0    0    0  501 -0.00000000000E+00  0.00000000000E+00  0.10337846827E+02  0.10415564172E+02  0.12700000000E+01 0.  1.
          4   -1    0    0  501    0  0.00000000000E+00 -0.00000000000E+00 -0.37677418194E+03  0.37677632234E+03  0.12700000000E+01 0.  1.
    9000005    1    1    2    0    0  0.59104165484E+02 -0.16669538294E+02 -0.21962789535E+03  0.22805391534E+03  0.10000000000E+01 0.  0.
    9000005    1    1    2    0    0 -0.59104165484E+02  0.16669538294E+02 -0.14680843976E+03  0.15913797118E+03  0.10000000000E+01 0.  0.
<mgrwt>
<rscale>  0 0.12506786E+03</rscale>
<asrwt>0</asrwt>
<pdfrwt beam="2">  1        4 0.57971391E-01 0.12506786E+03</pdfrwt>
<pdfrwt beam="1">  1       -4 0.15965812E-02 0.12506786E+03</pdfrwt>
<totfact> 0.65719292E+03</totfact>
</mgrwt>
</event>
<event>
 5    1  0.3300771E-002  0.1249980E+03  0.7818608E-02  0.1235072E+00
         -4   -1    0    0    0  501 -0.00000000000E+00  0.00000000000E+00  0.23559093009E+03  0.23559435316E+03  0.12700000000E+01 0.  1.
          4   -1    0    0  501    0  0.00000000000E+00 -0.00000000000E+00 -0.16552239531E+02  0.16600889540E+02  0.12700000000E+01 0.  1.
         25    2    1    2    0    0  0.00000000000E+00  0.00000000000E+00  0.21903869055E+03  0.25219524269E+03  0.12499796990E+03 0.  0.
    9000005    1    3    3    0    0 -0.58768698410E+02  0.15843678702E+02  0.13807676109E+03  0.15090054347E+03  0.10000000000E+01 0.  0.
    9000005    1    3    3    0    0  0.58768698410E+02 -0.15843678702E+02  0.80961929464E+02  0.10129469922E+03  0.10000000000E+01 0.  0.
<mgrwt>
<rscale>  0 0.12499797E+03</rscale>
<asrwt>0</asrwt>
<pdfrwt beam="2">  1        4 0.25505039E-02 0.12499797E+03</pdfrwt>
<pdfrwt beam="1">  1       -4 0.36248766E-01 0.12499797E+03</pdfrwt>
<totfact> 0.82017685E+03</totfact>
</mgrwt>
</event>
<event>
 5    1  0.3300771E-002  0.1249957E+03  0.7818608E-02  0.1235076E+00
         -4   -1    0    0    0  501 -0.00000000000E+00  0.00000000000E+00  0.91590694729E+03  0.91590782778E+03  0.12700000000E+01 0.  1.
          4   -1    0    0  501    0  0.00000000000E+00 -0.00000000000E+00 -0.41691495757E+01  0.43582918884E+01  0.12700000000E+01 0.  1.
         25    2    1    2    0    0  0.00000000000E+00  0.00000000000E+00  0.91173779771E+03  0.92026611967E+03  0.12499567686E+03 0.  0.
    9000005    1    3    3    0    0 -0.39788493895E+01  0.25928234051E+02  0.87344491838E+03  0.87383930446E+03  0.10000000000E+01 0.  0.
    9000005    1    3    3    0    0  0.39788493895E+01 -0.25928234051E+02  0.38292879326E+02  0.46426815210E+02  0.10000000000E+01 0.  0.
<mgrwt>
<rscale>  0 0.12499568E+03</rscale>
<asrwt>0</asrwt>
<pdfrwt beam="2">  1        4 0.65602478E-03 0.12499568E+03</pdfrwt>
<pdfrwt beam="1">  1       -4 0.14092337E+00 0.12499568E+03</pdfrwt>
<totfact> 0.33398843E+03</totfact>
</mgrwt>
</event>
<event>
 5    1  0.3300771E-002  0.1250509E+03  0.7818608E-02  0.1234990E+00
         -4   -1    0    0    0  501 -0.00000000000E+00  0.00000000000E+00  0.25235964997E+03  0.25236284558E+03  0.12700000000E+01 0. -1.
          4   -1    0    0  501    0  0.00000000000E+00 -0.00000000000E+00 -0.15462184392E+02  0.15514253001E+02  0.12700000000E+01 0. -1.
         25    2    1    2    0    0  0.00000000000E+00  0.00000000000E+00  0.23689746558E+03  0.26787709859E+03  0.12505091263E+03 0.  0.
    9000005    1    3    3    0    0  0.53355018517E+02  0.16909896669E+02  0.17811158858E+03  0.18670147453E+03  0.10000000000E+01 0.  0.
    9000005    1    3    3    0    0 -0.53355018517E+02 -0.16909896669E+02  0.58785876996E+02  0.81175624054E+02  0.10000000000E+01 0.  0.
<mgrwt>
<rscale>  0 0.12505091E+03</rscale>
<asrwt>0</asrwt>
<pdfrwt beam="2">  1        4 0.23830486E-02 0.12505091E+03</pdfrwt>
<pdfrwt beam="1">  1       -4 0.38828813E-01 0.12505091E+03</pdfrwt>
<totfact> 0.79722839E+03</totfact>
</mgrwt>
</event>
<event>
 5    1  0.3300771E-002  0.1249886E+03  0.7818608E-02  0.1235087E+00
         -4   -1    0    0    0  501 -0.00000000000E+00  0.00000000000E+00  0.64268394597E+02  0.64280941530E+02  0.12700000000E+01 0.  1.
          4   -1    0    0  501    0  0.00000000000E+00 -0.00000000000E+00 -0.60744038224E+02  0.60757312974E+02  0.12700000000E+01 0.  1.
         25    2    1    2    0    0  0.00000000000E+00  0.00000000000E+00  0.35243563722E+01  0.12503825450E+03  0.12498857548E+03 0.  0.
    9000005    1    3    3    0    0 -0.61416119143E+02  0.11479259428E+02  0.85467224188E+00  0.62493548085E+02  0.10000000000E+01 0.  0.
    9000005    1    3    3    0    0  0.61416119143E+02 -0.11479259428E+02  0.26696841303E+01  0.62544706419E+02  0.10000000000E+01 0.  0.
<mgrwt>
<rscale>  0 0.12498858E+03</rscale>
<asrwt>0</asrwt>
<pdfrwt beam="2">  1        4 0.93472229E-02 0.12498858E+03</pdfrwt>
<pdfrwt beam="1">  1       -4 0.98894316E-02 0.12498858E+03</pdfrwt>
<totfact> 0.10454731E+04</totfact>
</mgrwt>
</event>
<event>
 5    1  0.3300771E-002  0.1249969E+03  0.7818608E-02  0.1235074E+00
         -4   -1    0    0    0  501 -0.00000000000E+00  0.00000000000E+00  0.27721855344E+02  0.27750930862E+02  0.12700000000E+01 0. -1.
          4   -1    0    0  501    0  0.00000000000E+00 -0.00000000000E+00 -0.14079591173E+03  0.14080163940E+03  0.12700000000E+01 0. -1.
         25    2    1    2    0    0  0.00000000000E+00  0.00000000000E+00 -0.11307405638E+03  0.16855257027E+03  0.12499690683E+03 0.  0.
    9000005    1    3    3    0    0  0.25642400423E+02  0.49581165045E+00  0.20304476156E+02  0.32726904537E+02  0.10000000000E+01 0.  0.
    9000005    1    3    3    0    0 -0.25642400423E+02 -0.49581165045E+00 -0.13337853254E+03  0.13582566573E+03  0.10000000000E+01 0.  0.
<mgrwt>
<rscale>  0 0.12499691E+03</rscale>
<asrwt>0</asrwt>
<pdfrwt beam="2">  1        4 0.21663586E-01 0.12499691E+03</pdfrwt>
<pdfrwt beam="1">  1       -4 0.42675780E-02 0.12499691E+03</pdfrwt>
<totfact> 0.95725439E+03</totfact>
</mgrwt>
</event>
<event>
 5    1  0.3300771E-002  0.1250015E+03  0.7818608E-02  0.1235067E+00
         -4   -1    0    0    0  501 -0.00000000000E+00  0.00000000000E+00  0.43302921383E+02  0.43321540835E+02  0.12700000000E+01 0. -1.
          4   -1    0    0  501    0  0.00000000000E+00 -0.00000000000E+00 -0.90167183498E+02  0.90176126995E+02  0.12700000000E+01 0. -1.
         25    2    1    2    0    0  0.00000000000E+00  0.00000000000E+00 -0.46864262115E+02  0.13349766783E+03  0.12500147300E+03 0.  0.
    9000005    1    3    3    0    0 -0.45785025553E+02 -0.59230027334E+01 -0.68413671045E+02  0.82539571795E+02  0.10000000000E+01 0.  0.
    9000005    1    3    3    0    0  0.45785025553E+02  0.59230027334E+01  0.21549408930E+02  0.50958096035E+02  0.10000000000E+01 0.  0.
<mgrwt>
<rscale>  0 0.12500147E+03</rscale>
<asrwt>0</asrwt>
<pdfrwt beam="2">  1        4 0.13873994E-01 0.12500147E+03</pdfrwt>
<pdfrwt beam="1">  1       -4 0.66641082E-02 0.12500147E+03</pdfrwt>
<totfact> 0.10269493E+04</totfact>
</mgrwt>
</event>
<event>
 5    1  0.3300771E-002  0.1250024E+03  0.7818608E-02  0.1235066E+00
          4   -1    0    0  501    0  0.00000000000E+00  0.00000000000E+00  0.89173050030E+02  0.89182093223E+02  0.12700000000E+01 0.  1.
         -4   -1    0    0    0  501 -0.00000000000E+00 -0.00000000000E+00 -0.43786481916E+02  0.43804895829E+02  0.12700000000E+01 0.  1.
         25    2    1    2    0    0  0.00000000000E+00  0.00000000000E+00  0.45386568114E+02  0.13298698905E+03  0.12500239475E+03 0.  0.
    9000005    1    3    3    0    0  0.62124706626E+02 -0.17174854981E+01  0.29667208740E+02  0.68873595842E+02  0.10000000000E+01 0.  0.
    9000005    1    3    3    0    0 -0.62124706626E+02  0.17174854981E+01  0.15719359374E+02  0.64113393210E+02  0.10000000000E+01 0.  0.
<mgrwt>
<rscale>  0 0.12500239E+03</rscale>
<asrwt>0</asrwt>
<pdfrwt beam="1">  1        4 0.13721043E-01 0.12500239E+03</pdfrwt>
<pdfrwt beam="2">  1       -4 0.67384939E-02 0.12500239E+03</pdfrwt>
<totfact> 0.10280121E+04</totfact>
</mgrwt>
</event>
<event>
 5    1  0.3300771E-002  0.1249986E+03  0.7818608E-02  0.1235071E+00
         -4   -1    0    0    0  501 -0.00000000000E+00  0.00000000000E+00  0.10681365624E+03  0.10682120603E+03  0.12700000000E+01 0. -1.
          4   -1    0    0  501    0  0.00000000000E+00 -0.00000000000E+00 -0.36550005291E+02  0.36572062927E+02  0.12700000000E+01 0. -1.
         25    2    1    2    0    0  0.00000000000E+00  0.00000000000E+00  0.70263650945E+02  0.14339326896E+03  0.12499859575E+03 0.  0.
    9000005    1    3    3    0    0 -0.12237088674E+02 -0.49667715817E+02 -0.60467725150E+01  0.51518848895E+02  0.10000000000E+01 0.  0.
    9000005    1    3    3    0    0  0.12237088674E+02  0.49667715817E+02  0.76310423460E+02  0.91874420065E+02  0.10000000000E+01 0.  0.
<mgrwt>
<rscale>  0 0.12499860E+03</rscale>
<asrwt>0</asrwt>
<pdfrwt beam="2">  1        4 0.56253553E-02 0.12499860E+03</pdfrwt>
<pdfrwt beam="1">  1       -4 0.16435148E-01 0.12499860E+03</pdfrwt>
<totfact> 0.10064055E+04</totfact>
</mgrwt>
</event>
<event>
 5    1  0.3300771E-002  0.1249968E+03  0.7818608E-02  0.1235074E+00
         -4   -1    0    0    0  501 -0.00000000000E+00  0.00000000000E+00  0.58856416530E+03  0.58856553550E+03  0.12700000000E+01 0. -1.
          4   -1    0    0  501    0  0.00000000000E+00 -0.00000000000E+00 -0.65744223444E+01  0.66959636471E+01  0.12700000000E+01 0. -1.
         25    2    1    2    0    0  0.00000000000E+00  0.00000000000E+00  0.58198974295E+03  0.59526149914E+03  0.12499676579E+03 0.  0.
    9000005    1    3    3    0    0  0.59681194219E+02 -0.14254611299E+02  0.34734396841E+03  0.35272350542E+03  0.10000000000E+01 0.  0.
    9000005    1    3    3    0    0 -0.59681194219E+02  0.14254611299E+02  0.23464577455E+03  0.24253799373E+03  0.10000000000E+01 0.  0.
<mgrwt>
<rscale>  0 0.12499677E+03</rscale>
<asrwt>0</asrwt>
<pdfrwt beam="2">  1        4 0.10209037E-02 0.12499677E+03</pdfrwt>
<pdfrwt beam="1">  1       -4 0.90557843E-01 0.12499677E+03</pdfrwt>
<totfact> 0.49171555E+03</totfact>
</mgrwt>
</event>
<event>
 5    1  0.3300771E-002  0.1250029E+03  0.7818608E-02  0.1235065E+00
         -4   -1    0    0    0  501 -0.00000000000E+00  0.00000000000E+00  0.11543042218E+02  0.11612696657E+02  0.12700000000E+01 0.  1.
          4   -1    0    0  501    0  0.00000000000E+00 -0.00000000000E+00 -0.33733424248E+03  0.33733663312E+03  0.12700000000E+01 0.  1.
         25    2    1    2    0    0  0.00000000000E+00  0.00000000000E+00 -0.32579120026E+03  0.34894932978E+03  0.12500291432E+03 0.  0.
    9000005    1    3    3    0    0  0.59797273522E+02  0.13289947836E+02 -0.12835551041E+03  0.14222683884E+03  0.10000000000E+01 0.  0.
    9000005    1    3    3    0    0 -0.59797273522E+02 -0.13289947836E+02 -0.19743568985E+03  0.20672249094E+03  0.10000000000E+01 0.  0.
<mgrwt>
<rscale>  0 0.12500291E+03</rscale>
<asrwt>0</asrwt>
<pdfrwt beam="2">  1        4 0.51903110E-01 0.12500291E+03</pdfrwt>
<pdfrwt beam="1">  1       -4 0.17813948E-02 0.12500291E+03</pdfrwt>
<totfact> 0.69835796E+03</totfact>
</mgrwt>
</event>
<event>
 5    1  0.3300771E-002  0.1250037E+03  0.7818608E-02  0.1235063E+00
          4   -1    0    0  501    0  0.00000000000E+00  0.00000000000E+00  0.23220339665E+03  0.23220686966E+03  0.12700000000E+01 0. -1.
         -4   -1    0    0    0  501 -0.00000000000E+00 -0.00000000000E+00 -0.16795971912E+02  0.16843917967E+02  0.12700000000E+01 0. -1.
         25    2    1    2    0    0  0.00000000000E+00  0.00000000000E+00  0.21540742474E+03  0.24905078762E+03  0.12500374468E+03 0.  0.
    9000005    1    3    3    0    0  0.47041013569E+02 -0.38720857244E+02  0.80002047166E+02  0.10056584556E+03  0.10000000000E+01 0.  0.
    9000005    1    3    3    0    0 -0.47041013569E+02  0.38720857244E+02  0.13540537757E+03  0.14848494206E+03  0.10000000000E+01 0.  0.
<mgrwt>
<rscale>  0 0.12500374E+03</rscale>
<asrwt>0</asrwt>
<pdfrwt beam="1">  1        4 0.35727554E-01 0.12500374E+03</pdfrwt>
<pdfrwt beam="2">  1       -4 0.25879510E-02 0.12500374E+03</pdfrwt>
<totfact> 0.82460732E+03</totfact>
</mgrwt>
</event>
<event>
 5    1  0.3300771E-002  0.1250012E+03  0.7818608E-02  0.1235067E+00
         -4   -1    0    0    0  501 -0.00000000000E+00  0.00000000000E+00  0.12237901536E+03  0.12238560496E+03  0.12700000000E+01 0. -1.
          4   -1    0    0  501    0  0.00000000000E+00 -0.00000000000E+00 -0.31899793180E+02  0.31925063899E+02  0.12700000000E+01 0. -1.
         25    2    1    2    0    0  0.00000000000E+00  0.00000000000E+00  0.90479222180E+02  0.15431066885E+03  0.12500117150E+03 0.  0.
    9000005    1    3    3    0    0  0.34823162426E+01  0.21473662601E+02  0.11755995410E+03  0.11955997457E+03  0.10000000000E+01 0.  0.
    9000005    1    3    3    0    0 -0.34823162426E+01 -0.21473662601E+02 -0.27080731918E+02  0.34750694283E+02  0.10000000000E+01 0.  0.
<mgrwt>
<rscale>  0 0.12500117E+03</rscale>
<asrwt>0</asrwt>
<pdfrwt beam="2">  1        4 0.49101113E-02 0.12500117E+03</pdfrwt>
<pdfrwt beam="1">  1       -4 0.18829992E-01 0.12500117E+03</pdfrwt>
<totfact> 0.98448399E+03</totfact>
</mgrwt>
</event>
<event>
 5    1  0.3300771E-002  0.1250001E+03  0.7818608E-02  0.1235069E+00
          4   -1    0    0  501    0  0.00000000000E+00  0.00000000000E+00  0.72710302313E+02  0.72721392743E+02  0.12700000000E+01 0.  1.
         -4   -1    0    0    0  501 -0.00000000000E+00 -0.00000000000E+00 -0.53700854070E+02  0.53715869423E+02  0.12700000000E+01 0.  1.
         25    2    1    2    0    0  0.00000000000E+00  0.00000000000E+00  0.19009448243E+02  0.12643726217E+03  0.12500008857E+03 0.  0.
    9000005    1    3    3    0    0  0.15878179524E+02  0.39097577258E+02 -0.37117717214E+02  0.56209092357E+02  0.10000000000E+01 0.  0.
    9000005    1    3    3    0    0 -0.15878179524E+02 -0.39097577258E+02  0.56127165457E+02  0.70228169809E+02  0.10000000000E+01 0.  0.
<mgrwt>
<rscale>  0 0.12500009E+03</rscale>
<asrwt>0</asrwt>
<pdfrwt beam="1">  1        4 0.11188208E-01 0.12500009E+03</pdfrwt>
<pdfrwt beam="2">  1       -4 0.82636780E-02 0.12500009E+03</pdfrwt>
<totfact> 0.10421376E+04</totfact>
</mgrwt>
</event>
<event>
 5    1  0.3300771E-002  0.1250062E+03  0.7818608E-02  0.1235060E+00
          4   -1    0    0  501    0  0.00000000000E+00  0.00000000000E+00  0.23323714759E+02  0.23358265564E+02  0.12700000000E+01 0.  1.
         -4   -1    0    0    0  501 -0.00000000000E+00 -0.00000000000E+00 -0.16733538394E+03  0.16734020323E+03  0.12700000000E+01 0.  1.
         25    2    1    2    0    0  0.00000000000E+00  0.00000000000E+00 -0.14401166918E+03  0.19069846880E+03  0.12500618041E+03 0.  0.
    9000005    1    3    3    0    0 -0.33942357666E+02  0.22288455147E+02 -0.14447613863E+03  0.15007735842E+03  0.10000000000E+01 0.  0.
    9000005    1    3    3    0    0  0.33942357666E+02 -0.22288455147E+02  0.46446944623E+00  0.40621110381E+02  0.10000000000E+01 0.  0.
<mgrwt>
<rscale>  0 0.12500618E+03</rscale>
<asrwt>0</asrwt>
<pdfrwt beam="1">  1        4 0.35912924E-02 0.12500618E+03</pdfrwt>
<pdfrwt beam="2">  1       -4 0.25746933E-01 0.12500618E+03</pdfrwt>
<totfact> 0.91713229E+03</totfact>
</mgrwt>
</event>
<event>
 5    1  0.3300771E-002  0.1250087E+03  0.7818608E-02  0.1235056E+00
         -4   -1    0    0    0  501 -0.00000000000E+00  0.00000000000E+00  0.12088852600E+02  0.12155379763E+02  0.12700000000E+01 0.  1.
          4   -1    0    0  501    0  0.00000000000E+00 -0.00000000000E+00 -0.32221870293E+03  0.32222120572E+03  0.12700000000E+01 0.  1.
         25    2    1    2    0    0  0.00000000000E+00  0.00000000000E+00 -0.31012985033E+03  0.33437658549E+03  0.12500870712E+03 0.  0.
    9000005    1    3    3    0    0 -0.57796506313E+02  0.19368820284E+02 -0.19195492876E+03  0.20140328204E+03  0.10000000000E+01 0.  0.
    9000005    1    3    3    0    0  0.57796506313E+02 -0.19368820284E+02 -0.11817492157E+03  0.13297330345E+03  0.10000000000E+01 0.  0.
<mgrwt>
<rscale>  0 0.12500871E+03</rscale>
<asrwt>0</asrwt>
<pdfrwt beam="2">  1        4 0.49577412E-01 0.12500871E+03</pdfrwt>
<pdfrwt beam="1">  1       -4 0.18651337E-02 0.12500871E+03</pdfrwt>
<totfact> 0.71464447E+03</totfact>
</mgrwt>
</event>
<event>
 5    1  0.3300771E-002  0.1250084E+03  0.7818608E-02  0.1235056E+00
         -4   -1    0    0    0  501 -0.00000000000E+00  0.00000000000E+00  0.36860231193E+01  0.38986749590E+01  0.12700000000E+01 0. -1.
          4   -1    0    0  501    0  0.00000000000E+00 -0.00000000000E+00 -0.10299592426E+04  0.10299600256E+04  0.12700000000E+01 0. -1.
         25    2    1    2    0    0  0.00000000000E+00  0.00000000000E+00 -0.10262732195E+04  0.10338587005E+04  0.12500836645E+03 0.  0.
    9000005    1    3    3    0    0  0.24503833492E+02 -0.44014218197E+02 -0.20723734368E+03  0.21327448481E+03  0.10000000000E+01 0.  0.
    9000005    1    3    3    0    0 -0.24503833492E+02  0.44014218197E+02 -0.81903587580E+03  0.82058421573E+03  0.10000000000E+01 0.  0.
<mgrwt>
<rscale>  0 0.12500837E+03</rscale>
<asrwt>0</asrwt>
<pdfrwt beam="2">  1        4 0.15847146E+00 0.12500837E+03</pdfrwt>
<pdfrwt beam="1">  1       -4 0.58349937E-03 0.12500837E+03</pdfrwt>
<totfact> 0.29498824E+03</totfact>
</mgrwt>
</event>
<event>
 5    1  0.3300771E-002  0.1249996E+03  0.7818608E-02  0.1235070E+00
         -4   -1    0    0    0  501 -0.00000000000E+00  0.00000000000E+00  0.17339857548E+02  0.17386303799E+02  0.12700000000E+01 0.  1.
          4   -1    0    0  501    0  0.00000000000E+00 -0.00000000000E+00 -0.22492461992E+03  0.22492820532E+03  0.12700000000E+01 0.  1.
         25    2    1    2    0    0  0.00000000000E+00  0.00000000000E+00 -0.20758476237E+03  0.24231450912E+03  0.12499955103E+03 0.  0.
    9000005    1    3    3    0    0 -0.37366131654E+02 -0.46085454831E+02 -0.14183512394E+03  0.15374751811E+03  0.10000000000E+01 0.  0.
    9000005    1    3    3    0    0  0.37366131654E+02  0.46085454831E+02 -0.65749638435E+02  0.88566991007E+02  0.10000000000E+01 0.  0.
<mgrwt>
<rscale>  0 0.12499955E+03</rscale>
<asrwt>0</asrwt>
<pdfrwt beam="2">  1        4 0.34607634E-01 0.12499955E+03</pdfrwt>
<pdfrwt beam="1">  1       -4 0.26715191E-02 0.12499955E+03</pdfrwt>
<totfact> 0.83454701E+03</totfact>
</mgrwt>
</event>
<event>
 5    1  0.3300771E-002  0.1249939E+03  0.7818608E-02  0.1235079E+00
         -4   -1    0    0    0  501 -0.00000000000E+00  0.00000000000E+00  0.78045614384E+02  0.78055946760E+02  0.12700000000E+01 0. -1.
          4   -1    0    0  501    0  0.00000000000E+00 -0.00000000000E+00 -0.50024292770E+02  0.50040411341E+02  0.12700000000E+01 0. -1.
         25    2    1    2    0    0  0.00000000000E+00  0.00000000000E+00  0.28021321614E+02  0.12809635810E+03  0.12499392983E+03 0.  0.
    9000005    1    3    3    0    0 -0.91996075991E+01 -0.51994103172E+02  0.48259471421E+02  0.71540171417E+02  0.10000000000E+01 0.  0.
    9000005    1    3    3    0    0  0.91996075991E+01  0.51994103172E+02 -0.20238149806E+02  0.56556186684E+02  0.10000000000E+01 0.  0.
<mgrwt>
<rscale>  0 0.12499393E+03</rscale>
<asrwt>0</asrwt>
<pdfrwt beam="2">  1        4 0.76980799E-02 0.12499393E+03</pdfrwt>
<pdfrwt beam="1">  1       -4 0.12009052E-01 0.12499393E+03</pdfrwt>
<totfact> 0.10386830E+04</totfact>
</mgrwt>
</event>
<event>
 5    1  0.3300771E-002  0.1249991E+03  0.7818608E-02  0.1235071E+00
          4   -1    0    0  501    0  0.00000000000E+00  0.00000000000E+00  0.35507485924E+02  0.35530190777E+02  0.12700000000E+01 0. -1.
         -4   -1    0    0    0  501 -0.00000000000E+00 -0.00000000000E+00 -0.10994894221E+03  0.10995627673E+03  0.12700000000E+01 0. -1.
         25    2    1    2    0    0  0.00000000000E+00  0.00000000000E+00 -0.74441456286E+02  0.14548646751E+03  0.12499912725E+03 0.  0.
    9000005    1    3    3    0    0  0.85332441900E+01  0.54871303845E+02 -0.70580608190E+02  0.89812574256E+02  0.10000000000E+01 0.  0.
    9000005    1    3    3    0    0 -0.85332441900E+01 -0.54871303845E+02 -0.38608480959E+01  0.55673893254E+02  0.10000000000E+01 0.  0.
<mgrwt>
<rscale>  0 0.12499913E+03</rscale>
<asrwt>0</asrwt>
<pdfrwt beam="1">  1        4 0.54650009E-02 0.12499913E+03</pdfrwt>
<pdfrwt beam="2">  1       -4 0.16917532E-01 0.12499913E+03</pdfrwt>
<totfact> 0.10021311E+04</totfact>
</mgrwt>
</event>
<event>
 5    1  0.3300771E-002  0.1249926E+03  0.7818608E-02  0.1235081E+00
          4   -1    0    0  501    0  0.00000000000E+00  0.00000000000E+00  0.15030911233E+03  0.15031447752E+03  0.12700000000E+01 0. -1.
         -4   -1    0    0    0  501 -0.00000000000E+00 -0.00000000000E+00 -0.25963668677E+02  0.25994710831E+02  0.12700000000E+01 0. -1.
         25    2    1    2    0    0  0.00000000000E+00  0.00000000000E+00  0.12434544366E+03  0.17630918835E+03  0.12499256193E+03 0.  0.
    9000005    1    3    3    0    0  0.43193264910E+02 -0.38968532112E+02  0.94356329609E+02  0.11085270211E+03  0.10000000000E+01 0.  0.
    9000005    1    3    3    0    0 -0.43193264910E+02  0.38968532112E+02  0.29989114047E+02  0.65456486232E+02  0.10000000000E+01 0.  0.
<mgrwt>
<rscale>  0 0.12499256E+03</rscale>
<asrwt>0</asrwt>
<pdfrwt beam="1">  1        4 0.23127279E-01 0.12499256E+03</pdfrwt>
<pdfrwt beam="2">  1       -4 0.39972111E-02 0.12499256E+03</pdfrwt>
<totfact> 0.94301343E+03</totfact>
</mgrwt>
</event>
<event>
 5    1  0.3300771E-002  0.1250000E+03  0.7818608E-02  0.1235069E+00
         -4   -1    0    0    0  501 -0.00000000000E+00  0.00000000000E+00  0.18775962439E+02  0.18818864618E+02  0.12700000000E+01 0.  1.
          4   -1    0    0  501    0  0.00000000000E+00 -0.00000000000E+00 -0.20776294041E+03  0.20776682196E+03  0.12700000000E+01 0.  1.
         25    2    1    2    0    0  0.00000000000E+00  0.00000000000E+00 -0.18898697797E+03  0.22658568658E+03  0.12499998208E+03 0.  0.
    9000005    1    3    3    0    0 -0.44655627822E+02  0.43282203714E+02 -0.10563444872E+03  0.12258511741E+03  0.10000000000E+01 0.  0.
    9000005    1    3    3    0    0  0.44655627822E+02 -0.43282203714E+02 -0.83352529250E+02  0.10400056917E+03  0.10000000000E+01 0.  0.
<mgrwt>
<rscale>  0 0.12499998E+03</rscale>
<asrwt>0</asrwt>
<pdfrwt beam="2">  1        4 0.31967126E-01 0.12499998E+03</pdfrwt>
<pdfrwt beam="1">  1       -4 0.28922085E-02 0.12499998E+03</pdfrwt>
<totfact> 0.85836675E+03</totfact>
</mgrwt>
</event>
<event>
 5    1  0.3300771E-002  0.1249997E+03  0.7818608E-02  0.1235070E+00
          4   -1    0    0  501    0  0.00000000000E+00  0.00000000000E+00  0.43788210876E+03  0.43788395047E+03  0.12700000000E+01 0.  1.
         -4   -1    0    0    0  501 -0.00000000000E+00 -0.00000000000E+00 -0.88736712518E+01  0.89640917825E+01  0.12700000000E+01 0.  1.
         25    2    1    2    0    0  0.00000000000E+00  0.00000000000E+00  0.42900843751E+03  0.44684804225E+03  0.12499973362E+03 0.  0.
    9000005    1    3    3    0    0 -0.36949186280E+02  0.45236363469E+02  0.29393078710E+03  0.29967962652E+03  0.10000000000E+01 0.  0.
    9000005    1    3    3    0    0  0.36949186280E+02 -0.45236363469E+02  0.13507765041E+03  0.14716841573E+03  0.10000000000E+01 0.  0.
<mgrwt>
<rscale>  0 0.12499973E+03</rscale>
<asrwt>0</asrwt>
<pdfrwt beam="1">  1        4 0.67373567E-01 0.12499973E+03</pdfrwt>
<pdfrwt beam="2">  1       -4 0.13722775E-02 0.12499973E+03</pdfrwt>
<totfact> 0.60238181E+03</totfact>
</mgrwt>
</event>
<event>
 5    1  0.3300771E-002  0.1249978E+03  0.7818608E-02  0.1235073E+00
          4   -1    0    0  501    0  0.00000000000E+00  0.00000000000E+00  0.28153797510E+02  0.28182427401E+02  0.12700000000E+01 0. -1.
         -4   -1    0    0    0  501 -0.00000000000E+00 -0.00000000000E+00 -0.13863994630E+03  0.13864576305E+03  0.12700000000E+01 0. -1.
         25    2    1    2    0    0  0.00000000000E+00  0.00000000000E+00 -0.11048614879E+03  0.16682819045E+03  0.12499782419E+03 0.  0.
    9000005    1    3    3    0    0  0.51339796647E+02 -0.82689635376E+01 -0.10149522130E+03  0.11404573830E+03  0.10000000000E+01 0.  0.
    9000005    1    3    3    0    0 -0.51339796647E+02  0.82689635376E+01 -0.89909274968E+01  0.52782452151E+02  0.10000000000E+01 0.  0.
<mgrwt>
<rscale>  0 0.12499782E+03</rscale>
<asrwt>0</asrwt>
<pdfrwt beam="1">  1        4 0.43340033E-02 0.12499782E+03</pdfrwt>
<pdfrwt beam="2">  1       -4 0.21331872E-01 0.12499782E+03</pdfrwt>
<totfact> 0.96046972E+03</totfact>
</mgrwt>
</event>
<event>
 5    1  0.3300771E-002  0.1249911E+03  0.7818608E-02  0.1235083E+00
         -4   -1    0    0    0  501 -0.00000000000E+00  0.00000000000E+00  0.63710540181E+02  0.63723196955E+02  0.12700000000E+01 0.  1.
          4   -1    0    0  501    0  0.00000000000E+00 -0.00000000000E+00 -0.61278382430E+02  0.61291541450E+02  0.12700000000E+01 0.  1.
         25    2    1    2    0    0  0.00000000000E+00  0.00000000000E+00  0.24321577505E+01  0.12501473840E+03  0.12499107739E+03 0.  0.
    9000005    1    3    3    0    0  0.54508538953E+02  0.27064824460E+02  0.15396449953E+02  0.62783247870E+02  0.10000000000E+01 0.  0.
    9000005    1    3    3    0    0 -0.54508538953E+02 -0.27064824460E+02 -0.12964292203E+02  0.62231490535E+02  0.10000000000E+01 0.  0.
<mgrwt>
<rscale>  0 0.12499108E+03</rscale>
<asrwt>0</asrwt>
<pdfrwt beam="2">  1        4 0.94294293E-02 0.12499108E+03</pdfrwt>
<pdfrwt beam="1">  1       -4 0.98036074E-02 0.12499108E+03</pdfrwt>
<totfact> 0.10454651E+04</totfact>
</mgrwt>
</event>
<event>
 5    1  0.3300771E-002  0.1249995E+03  0.7818608E-02  0.1235070E+00
         -4   -1    0    0    0  501 -0.00000000000E+00  0.00000000000E+00  0.33443936993E+02  0.33468041795E+02  0.12700000000E+01 0.  1.
          4   -1    0    0  501    0  0.00000000000E+00 -0.00000000000E+00 -0.11672943716E+03  0.11673634566E+03  0.12700000000E+01 0.  1.
         25    2    1    2    0    0  0.00000000000E+00  0.00000000000E+00 -0.83285500162E+02  0.15020438746E+03  0.12499953390E+03 0.  0.
    9000005    1    3    3    0    0 -0.51813501082E+02  0.19608473451E+02 -0.76388418660E+02  0.94368011692E+02  0.10000000000E+01 0.  0.
    9000005    1    3    3    0    0  0.51813501082E+02 -0.19608473451E+02 -0.68970815027E+01  0.55836375766E+02  0.10000000000E+01 0.  0.
<mgrwt>
<rscale>  0 0.12499953E+03</rscale>
<asrwt>0</asrwt>
<pdfrwt beam="2">  1        4 0.17960760E-01 0.12499953E+03</pdfrwt>
<pdfrwt beam="1">  1       -4 0.51476068E-02 0.12499953E+03</pdfrwt>
<totfact> 0.99264013E+03</totfact>
</mgrwt>
</event>
<event>
 5    1  0.3300771E-002  0.1249934E+03  0.7818608E-02  0.1235080E+00
          4   -1    0    0  501    0  0.00000000000E+00  0.00000000000E+00  0.90492746622E+01  0.91379577538E+01  0.12700000000E+01 0.  1.
         -4   -1    0    0    0  501 -0.00000000000E+00 -0.00000000000E+00 -0.42942453655E+03  0.42942641452E+03  0.12700000000E+01 0.  1.
         25    2    1    2    0    0  0.00000000000E+00  0.00000000000E+00 -0.42037526189E+03  0.43856437228E+03  0.12499339112E+03 0.  0.
    9000005    1    3    3    0    0 -0.27827391718E+02 -0.39571716127E+02 -0.34897225995E+03  0.35231083245E+03  0.10000000000E+01 0.  0.
    9000005    1    3    3    0    0  0.27827391718E+02  0.39571716127E+02 -0.71403001935E+02  0.86253539825E+02  0.10000000000E+01 0.  0.
<mgrwt>
<rscale>  0 0.12499339E+03</rscale>
<asrwt>0</asrwt>
<pdfrwt beam="1">  1        4 0.13991627E-02 0.12499339E+03</pdfrwt>
<pdfrwt beam="2">  1       -4 0.66072264E-01 0.12499339E+03</pdfrwt>
<totfact> 0.60976171E+03</totfact>
</mgrwt>
</event>
<event>
 5    1  0.3300771E-002  0.1250003E+03  0.7818608E-02  0.1235069E+00
          4   -1    0    0  501    0  0.00000000000E+00  0.00000000000E+00  0.60439514557E+02  0.60452856176E+02  0.12700000000E+01 0. -1.
         -4   -1    0    0    0  501 -0.00000000000E+00 -0.00000000000E+00 -0.64604370538E+02  0.64616852234E+02  0.12700000000E+01 0. -1.
         25    2    1    2    0    0  0.00000000000E+00  0.00000000000E+00 -0.41648559808E+01  0.12506970841E+03  0.12500034375E+03 0.  0.
    9000005    1    3    3    0    0 -0.27549555112E+02  0.54198688764E+02 -0.16540208795E+02  0.63016302316E+02  0.10000000000E+01 0.  0.
    9000005    1    3    3    0    0  0.27549555112E+02 -0.54198688764E+02  0.12375352814E+02  0.62053406094E+02  0.10000000000E+01 0.  0.
<mgrwt>
<rscale>  0 0.12500034E+03</rscale>
<asrwt>0</asrwt>
<pdfrwt beam="1">  1        4 0.93003733E-02 0.12500034E+03</pdfrwt>
<pdfrwt beam="2">  1       -4 0.99411203E-02 0.12500034E+03</pdfrwt>
<totfact> 0.10451268E+04</totfact>
</mgrwt>
</event>
<event>
 5    1  0.3300771E-002  0.1250454E+03  0.7818608E-02  0.1234998E+00
          4   -1    0    0  501    0  0.00000000000E+00  0.00000000000E+00  0.25055271138E+03  0.25055593004E+03  0.12700000000E+01 0.  1.
         -4   -1    0    0    0  501 -0.00000000000E+00 -0.00000000000E+00 -0.15572689531E+02  0.15624389884E+02  0.12700000000E+01 0.  1.
         25    2    1    2    0    0  0.00000000000E+00  0.00000000000E+00  0.23498002185E+03  0.26618031993E+03  0.12504539995E+03 0.  0.
    9000005    1    3    3    0    0  0.95357908839E+01  0.19046155839E+02  0.24260074614E+03  0.24353605357E+03  0.10000000000E+01 0.  0.
    9000005    1    3    3    0    0 -0.95357908839E+01 -0.19046155839E+02 -0.76207242936E+01  0.22644266356E+02  0.10000000000E+01 0.  0.
<mgrwt>
<rscale>  0 0.12504540E+03</rscale>
<asrwt>0</asrwt>
<pdfrwt beam="1">  1        4 0.38550794E-01 0.12504540E+03</pdfrwt>
<pdfrwt beam="2">  1       -4 0.24000230E-02 0.12504540E+03</pdfrwt>
<totfact> 0.79965684E+03</totfact>
</mgrwt>
</event>
<event>
 5    1  0.3300771E-002  0.1250009E+03  0.7818608E-02  0.1235068E+00
         -4   -1    0    0    0  501 -0.00000000000E+00  0.00000000000E+00  0.84073484407E+02  0.84083076064E+02  0.12700000000E+01 0.  1.
          4   -1    0    0  501    0  0.00000000000E+00 -0.00000000000E+00 -0.46442099801E+02  0.46459461188E+02  0.12700000000E+01 0.  1.
         25    2    1    2    0    0  0.00000000000E+00  0.00000000000E+00  0.37631384607E+02  0.13054253725E+03  0.12500093170E+03 0.  0.
    9000005    1    3    3    0    0 -0.51556463117E+02  0.10971501597E+02 -0.16241315058E+02  0.55165415354E+02  0.10000000000E+01 0.  0.
    9000005    1    3    3    0    0  0.51556463117E+02 -0.10971501597E+02  0.53872699665E+02  0.75377121898E+02  0.10000000000E+01 0.  0.
<mgrwt>
<rscale>  0 0.12500093E+03</rscale>
<asrwt>0</asrwt>
<pdfrwt beam="2">  1        4 0.71470118E-02 0.12500093E+03</pdfrwt>
<pdfrwt beam="1">  1       -4 0.12936455E-01 0.12500093E+03</pdfrwt>
<totfact> 0.10332689E+04</totfact>
</mgrwt>
</event>
<event>
 5    1  0.3300771E-002  0.1250051E+03  0.7818608E-02  0.1235061E+00
         -4   -1    0    0    0  501 -0.00000000000E+00  0.00000000000E+00  0.15745560187E+02  0.15796694768E+02  0.12700000000E+01 0.  1.
          4   -1    0    0  501    0  0.00000000000E+00 -0.00000000000E+00 -0.24765103565E+03  0.24765429203E+03  0.12700000000E+01 0.  1.
         25    2    1    2    0    0  0.00000000000E+00  0.00000000000E+00 -0.23190547546E+03  0.26345098679E+03  0.12500509147E+03 0.  0.
    9000005    1    3    3    0    0 -0.43844621227E+02  0.19298378023E+02 -0.31368080786E+02  0.57268968011E+02  0.10000000000E+01 0.  0.
    9000005    1    3    3    0    0  0.43844621227E+02 -0.19298378023E+02 -0.20053739468E+03  0.20618201878E+03  0.10000000000E+01 0.  0.
<mgrwt>
<rscale>  0 0.12500509E+03</rscale>
<asrwt>0</asrwt>
<pdfrwt beam="2">  1        4 0.38104340E-01 0.12500509E+03</pdfrwt>
<pdfrwt beam="1">  1       -4 0.24265780E-02 0.12500509E+03</pdfrwt>
<totfact> 0.80415079E+03</totfact>
</mgrwt>
</event>
<event>
 5    1  0.3300771E-002  0.1249903E+03  0.7818608E-02  0.1235084E+00
         -4   -1    0    0    0  501 -0.00000000000E+00  0.00000000000E+00  0.13010215621E+01  0.18181191119E+01  0.12700000000E+01 0. -1.
          4   -1    0    0  501    0  0.00000000000E+00 -0.00000000000E+00 -0.25037909058E+04  0.25037912279E+04  0.12700000000E+01 0. -1.
         25    2    1    2    0    0  0.00000000000E+00  0.00000000000E+00 -0.25024898842E+04  0.25056093470E+04  0.12499031594E+03 0.  0.
    9000005    1    3    3    0    0 -0.15981221566E+01 -0.61820740997E+02 -0.10716231793E+04  0.10734065382E+04  0.10000000000E+01 0.  0.
    9000005    1    3    3    0    0  0.15981221566E+01  0.61820740997E+02 -0.14308667050E+04  0.14322028087E+04  0.10000000000E+01 0.  0.
<mgrwt>
<rscale>  0 0.12499032E+03</rscale>
<asrwt>0</asrwt>
<pdfrwt beam="2">  1        4 0.38523519E+00 0.12499032E+03</pdfrwt>
<pdfrwt beam="1">  1       -4 0.23996068E-03 0.12499032E+03</pdfrwt>
<totfact> 0.46265822E+02</totfact>
</mgrwt>
</event>
<event>
 5    1  0.3300771E-002  0.1250005E+03  0.7818608E-02  0.1235068E+00
         -4   -1    0    0    0  501 -0.00000000000E+00  0.00000000000E+00  0.26755556671E+02  0.26785681114E+02  0.12700000000E+01 0.  1.
          4   -1    0    0  501    0  0.00000000000E+00 -0.00000000000E+00 -0.14588393021E+03  0.14588945813E+03  0.12700000000E+01 0.  1.
         25    2    1    2    0    0  0.00000000000E+00  0.00000000000E+00 -0.11912837354E+03  0.17267513924E+03  0.12500053732E+03 0.  0.
    9000005    1    3    3    0    0 -0.29800360211E+02  0.11660188135E+02 -0.13371387346E+03  0.13749335043E+03  0.10000000000E+01 0.  0.
    9000005    1    3    3    0    0  0.29800360211E+02 -0.11660188135E+02  0.14585499925E+02  0.35181788813E+02  0.10000000000E+01 0.  0.
<mgrwt>
<rscale>  0 0.12500054E+03</rscale>
<asrwt>0</asrwt>
<pdfrwt beam="2">  1        4 0.22446424E-01 0.12500054E+03</pdfrwt>
<pdfrwt beam="1">  1       -4 0.41189821E-02 0.12500054E+03</pdfrwt>
<totfact> 0.94951222E+03</totfact>
</mgrwt>
</event>
<event>
 5    1  0.3300771E-002  0.1249989E+03  0.7818608E-02  0.1235071E+00
          4   -1    0    0  501    0  0.00000000000E+00  0.00000000000E+00  0.14870068933E+01  0.19555279340E+01  0.12700000000E+01 0.  1.
         -4   -1    0    0    0  501 -0.00000000000E+00 -0.00000000000E+00 -0.22688960285E+04  0.22688963840E+04  0.12700000000E+01 0.  1.
         25    2    1    2    0    0  0.00000000000E+00  0.00000000000E+00 -0.22674090216E+04  0.22708519119E+04  0.12499893754E+03 0.  0.
    9000005    1    3    3    0    0  0.30367763684E+02 -0.37935374249E+02 -0.41988131565E+03  0.42268500437E+03  0.10000000000E+01 0.  0.
    9000005    1    3    3    0    0 -0.30367763684E+02  0.37935374249E+02 -0.18475277060E+04  0.18481669075E+04  0.10000000000E+01 0.  0.
<mgrwt>
<rscale>  0 0.12499894E+03</rscale>
<asrwt>0</asrwt>
<pdfrwt beam="1">  1        4 0.26483953E-03 0.12499894E+03</pdfrwt>
<pdfrwt beam="2">  1       -4 0.34909460E+00 0.12499894E+03</pdfrwt>
<totfact> 0.67275993E+02</totfact>
</mgrwt>
</event>
<event>
 5    1  0.3300771E-002  0.1249996E+03  0.7818608E-02  0.1235070E+00
          4   -1    0    0  501    0  0.00000000000E+00  0.00000000000E+00  0.57601828522E+03  0.57601968526E+03  0.12700000000E+01 0.  1.
         -4   -1    0    0    0  501 -0.00000000000E+00 -0.00000000000E+00 -0.67205392662E+01  0.68394844856E+01  0.12700000000E+01 0.  1.
         25    2    1    2    0    0  0.00000000000E+00  0.00000000000E+00  0.56929774595E+03  0.58285916974E+03  0.12499955284E+03 0.  0.
    9000005    1    3    3    0    0  0.49106117066E+02 -0.38144543555E+02  0.25560198120E+03  0.26305852909E+03  0.10000000000E+01 0.  0.
    9000005    1    3    3    0    0 -0.49106117066E+02  0.38144543555E+02  0.31369576475E+03  0.31980064065E+03  0.10000000000E+01 0.  0.
<mgrwt>
<rscale>  0 0.12499955E+03</rscale>
<asrwt>0</asrwt>
<pdfrwt beam="1">  1        4 0.88627495E-01 0.12499955E+03</pdfrwt>
<pdfrwt beam="2">  1       -4 0.10431860E-02 0.12499955E+03</pdfrwt>
<totfact> 0.49968251E+03</totfact>
</mgrwt>
</event>
<event>
 5    1  0.3300771E-002  0.1249927E+03  0.7818608E-02  0.1235081E+00
         -4   -1    0    0    0  501 -0.00000000000E+00  0.00000000000E+00  0.11255892468E+03  0.11256608915E+03  0.12700000000E+01 0. -1.
          4   -1    0    0  501    0  0.00000000000E+00 -0.00000000000E+00 -0.34680084720E+02  0.34703330909E+02  0.12700000000E+01 0. -1.
         25    2    1    2    0    0  0.00000000000E+00  0.00000000000E+00  0.77878839963E+02  0.14726942006E+03  0.12499267326E+03 0.  0.
    9000005    1    3    3    0    0 -0.57415640254E+02 -0.23493416285E+02  0.47779695040E+02  0.78309613794E+02  0.10000000000E+01 0.  0.
    9000005    1    3    3    0    0  0.57415640254E+02  0.23493416285E+02  0.30099144923E+02  0.68959806261E+02  0.10000000000E+01 0.  0.
<mgrwt>
<rscale>  0 0.12499267E+03</rscale>
<asrwt>0</asrwt>
<pdfrwt beam="2">  1        4 0.53377370E-02 0.12499267E+03</pdfrwt>
<pdfrwt beam="1">  1       -4 0.17319097E-01 0.12499267E+03</pdfrwt>
<totfact> 0.99867281E+03</totfact>
</mgrwt>
</event>
<event>
 5    1  0.3300771E-002  0.1249978E+03  0.7818608E-02  0.1235073E+00
          4   -1    0    0  501    0  0.00000000000E+00  0.00000000000E+00  0.22867766426E+02  0.22903005072E+02  0.12700000000E+01 0.  1.
         -4   -1    0    0    0  501 -0.00000000000E+00 -0.00000000000E+00 -0.17064404623E+03  0.17064877208E+03  0.12700000000E+01 0.  1.
         25    2    1    2    0    0  0.00000000000E+00  0.00000000000E+00 -0.14777627980E+03  0.19355177716E+03  0.12499784625E+03 0.  0.
    9000005    1    3    3    0    0  0.41553753771E+02 -0.99717762272E+01 -0.14449033148E+03  0.15068047872E+03  0.10000000000E+01 0.  0.
    9000005    1    3    3    0    0 -0.41553753771E+02  0.99717762272E+01 -0.32859483195E+01  0.42871298440E+02  0.10000000000E+01 0.  0.
<mgrwt>
<rscale>  0 0.12499785E+03</rscale>
<asrwt>0</asrwt>
<pdfrwt beam="1">  1        4 0.35211922E-02 0.12499785E+03</pdfrwt>
<pdfrwt beam="2">  1       -4 0.26256004E-01 0.12499785E+03</pdfrwt>
<totfact> 0.91237364E+03</totfact>
</mgrwt>
</event>
<event>
 5    1  0.3300771E-002  0.1250035E+03  0.7818608E-02  0.1235064E+00
          4   -1    0    0  501    0  0.00000000000E+00  0.00000000000E+00  0.16650735279E+03  0.16651219605E+03  0.12700000000E+01 0. -1.
         -4   -1    0    0    0  501 -0.00000000000E+00 -0.00000000000E+00 -0.23438877435E+02  0.23473258731E+02  0.12700000000E+01 0. -1.
         25    2    1    2    0    0  0.00000000000E+00  0.00000000000E+00  0.14306847536E+03  0.18998545478E+03  0.12500353750E+03 0.  0.
    9000005    1    3    3    0    0 -0.54834231693E+02 -0.29937943634E+02  0.73887617864E+02  0.96764939456E+02  0.10000000000E+01 0.  0.
    9000005    1    3    3    0    0  0.54834231693E+02  0.29937943634E+02  0.69180857495E+02  0.93220515328E+02  0.10000000000E+01 0.  0.
<mgrwt>
<rscale>  0 0.12500354E+03</rscale>
<asrwt>0</asrwt>
<pdfrwt beam="1">  1        4 0.25619533E-01 0.12500354E+03</pdfrwt>
<pdfrwt beam="2">  1       -4 0.36089984E-02 0.12500354E+03</pdfrwt>
<totfact> 0.91842567E+03</totfact>
</mgrwt>
</event>
<event>
 5    1  0.3300771E-002  0.1250056E+03  0.7818608E-02  0.1235060E+00
          4   -1    0    0  501    0  0.00000000000E+00  0.00000000000E+00  0.22717310511E+02  0.22752782178E+02  0.12700000000E+01 0. -1.
         -4   -1    0    0    0  501 -0.00000000000E+00 -0.00000000000E+00 -0.17179389267E+03  0.17179858689E+03  0.12700000000E+01 0. -1.
         25    2    1    2    0    0  0.00000000000E+00  0.00000000000E+00 -0.14907658215E+03  0.19455136907E+03  0.12500563131E+03 0.  0.
    9000005    1    3    3    0    0 -0.92319872609E+00  0.57564996273E+00  0.22710202618E+02  0.22758228659E+02  0.10000000000E+01 0.  0.
    9000005    1    3    3    0    0  0.92319872609E+00 -0.57564996273E+00 -0.17178678477E+03  0.17179314041E+03  0.10000000000E+01 0.  0.
<mgrwt>
<rscale>  0 0.12500563E+03</rscale>
<asrwt>0</asrwt>
<pdfrwt beam="1">  1        4 0.34980606E-02 0.12500563E+03</pdfrwt>
<pdfrwt beam="2">  1       -4 0.26432919E-01 0.12500563E+03</pdfrwt>
<totfact> 0.91049887E+03</totfact>
</mgrwt>
</event>
<event>
 5    1  0.3300771E-002  0.1250011E+03  0.7818608E-02  0.1235068E+00
          4   -1    0    0  501    0  0.00000000000E+00  0.00000000000E+00  0.46816047339E+02  0.46833270102E+02  0.12700000000E+01 0. -1.
         -4   -1    0    0    0  501 -0.00000000000E+00 -0.00000000000E+00 -0.83402277917E+02  0.83411946757E+02  0.12700000000E+01 0. -1.
         25    2    1    2    0    0  0.00000000000E+00  0.00000000000E+00 -0.36586230578E+02  0.13024521686E+03  0.12500105698E+03 0.  0.
    9000005    1    3    3    0    0 -0.12928696414E+02 -0.58221085762E+02 -0.37743617647E+02  0.70586306685E+02  0.10000000000E+01 0.  0.
    9000005    1    3    3    0    0  0.12928696414E+02  0.58221085762E+02  0.11573870691E+01  0.59658910174E+02  0.10000000000E+01 0.  0.
<mgrwt>
<rscale>  0 0.12500106E+03</rscale>
<asrwt>0</asrwt>
<pdfrwt beam="1">  1        4 0.72045374E-02 0.12500106E+03</pdfrwt>
<pdfrwt beam="2">  1       -4 0.12833188E-01 0.12500106E+03</pdfrwt>
<totfact> 0.10339018E+04</totfact>
</mgrwt>
</event>
<event>
 5    1  0.3300771E-002  0.1250129E+03  0.7818608E-02  0.1235049E+00
          4   -1    0    0  501    0  0.00000000000E+00  0.00000000000E+00  0.14824895339E+02  0.14879194260E+02  0.12700000000E+01 0. -1.
         -4   -1    0    0    0  501 -0.00000000000E+00 -0.00000000000E+00 -0.26300936798E+03  0.26301243420E+03  0.12700000000E+01 0. -1.
         25    2    1    2    0    0  0.00000000000E+00  0.00000000000E+00 -0.24818447264E+03  0.27789162846E+03  0.12501289817E+03 0.  0.
    9000005    1    3    3    0    0  0.24873123396E+02  0.49866737241E+02 -0.18699264985E+03  0.19512205116E+03  0.10000000000E+01 0.  0.
    9000005    1    3    3    0    0 -0.24873123396E+02 -0.49866737241E+02 -0.61191822789E+02  0.82769577302E+02  0.10000000000E+01 0.  0.
<mgrwt>
<rscale>  0 0.12501290E+03</rscale>
<asrwt>0</asrwt>
<pdfrwt beam="1">  1        4 0.22851660E-02 0.12501290E+03</pdfrwt>
<pdfrwt beam="2">  1       -4 0.40467389E-01 0.12501290E+03</pdfrwt>
<totfact> 0.78436001E+03</totfact>
</mgrwt>
</event>
<event>
 5    1  0.3300771E-002  0.1250010E+03  0.7818608E-02  0.1235068E+00
         -4   -1    0    0    0  501 -0.00000000000E+00  0.00000000000E+00  0.22287658774E+04  0.22287662392E+04  0.12700000000E+01 0.  1.
          4   -1    0    0  501    0  0.00000000000E+00 -0.00000000000E+00 -0.15222088856E+01  0.19824277771E+01  0.12700000000E+01 0.  1.
         25    2    1    2    0    0  0.00000000000E+00  0.00000000000E+00  0.22272436685E+04  0.22307486670E+04  0.12500102579E+03 0.  0.
    9000005    1    3    3    0    0 -0.25840042739E+02  0.47355204160E+02  0.16765700562E+04  0.16774380395E+04  0.10000000000E+01 0.  0.
    9000005    1    3    3    0    0  0.25840042739E+02 -0.47355204160E+02  0.55067361234E+03  0.55331062749E+03  0.10000000000E+01 0.  0.
<mgrwt>
<rscale>  0 0.12500103E+03</rscale>
<asrwt>0</asrwt>
<pdfrwt beam="2">  1        4 0.26961540E-03 0.12500103E+03</pdfrwt>
<pdfrwt beam="1">  1       -4 0.34292232E+00 0.12500103E+03</pdfrwt>
<totfact> 0.71419416E+02</totfact>
</mgrwt>
</event>
<event>
 5    1  0.3300771E-002  0.1250005E+03  0.7818608E-02  0.1235068E+00
         -4   -1    0    0    0  501 -0.00000000000E+00  0.00000000000E+00  0.48472999718E+02  0.48489633961E+02  0.12700000000E+01 0. -1.
          4   -1    0    0  501    0  0.00000000000E+00 -0.00000000000E+00 -0.80551342416E+02  0.80561353421E+02  0.12700000000E+01 0. -1.
         25    2    1    2    0    0  0.00000000000E+00  0.00000000000E+00 -0.32078342697E+02  0.12905098738E+03  0.12500054909E+03 0.  0.
    9000005    1    3    3    0    0  0.12125677082E+02  0.20014703861E+02  0.43783805737E+02  0.49655231951E+02  0.10000000000E+01 0.  0.
    9000005    1    3    3    0    0 -0.12125677082E+02 -0.20014703861E+02 -0.75862148434E+02  0.79395755431E+02  0.10000000000E+01 0.  0.
<mgrwt>
<rscale>  0 0.12500055E+03</rscale>
<asrwt>0</asrwt>
<pdfrwt beam="2">  1        4 0.12394564E-01 0.12500055E+03</pdfrwt>
<pdfrwt beam="1">  1       -4 0.74594342E-02 0.12500055E+03</pdfrwt>
<totfact> 0.10364723E+04</totfact>
</mgrwt>
</event>
<event>
 5    1  0.3300771E-002  0.1249993E+03  0.7818608E-02  0.1235070E+00
          4   -1    0    0  501    0  0.00000000000E+00  0.00000000000E+00  0.59293719545E+02  0.59307318920E+02  0.12700000000E+01 0. -1.
         -4   -1    0    0    0  501 -0.00000000000E+00 -0.00000000000E+00 -0.65851664193E+02  0.65863909518E+02  0.12700000000E+01 0. -1.
         25    2    1    2    0    0  0.00000000000E+00  0.00000000000E+00 -0.65579446480E+01  0.12517122844E+03  0.12499931916E+03 0.  0.
    9000005    1    3    3    0    0 -0.37213451100E+02  0.49731541059E+02  0.35963517003E+01  0.62225403690E+02  0.10000000000E+01 0.  0.
    9000005    1    3    3    0    0  0.37213451100E+02 -0.49731541059E+02 -0.10154296348E+02  0.62945824748E+02  0.10000000000E+01 0.  0.
<mgrwt>
<rscale>  0 0.12499932E+03</rscale>
<asrwt>0</asrwt>
<pdfrwt beam="1">  1        4 0.91240988E-02 0.12499932E+03</pdfrwt>
<pdfrwt beam="2">  1       -4 0.10133013E-01 0.12499932E+03</pdfrwt>
<totfact> 0.10449305E+04</totfact>
</mgrwt>
</event>
<event>
 5    1  0.3300771E-002  0.1250043E+03  0.7818608E-02  0.1235063E+00
          4   -1    0    0  501    0  0.00000000000E+00  0.00000000000E+00  0.25489576073E+03  0.25489892455E+03  0.12700000000E+01 0. -1.
         -4   -1    0    0    0  501 -0.00000000000E+00 -0.00000000000E+00 -0.15296375608E+02  0.15349006702E+02  0.12700000000E+01 0. -1.
         25    2    1    2    0    0  0.00000000000E+00  0.00000000000E+00  0.23959938512E+03  0.27024793125E+03  0.12500431591E+03 0.  0.
    9000005    1    3    3    0    0  0.80182534466E+01  0.84070079328E+01 -0.12951887270E+02  0.17427608975E+02  0.10000000000E+01 0.  0.
    9000005    1    3    3    0    0 -0.80182534466E+01 -0.84070079328E+01  0.25255127239E+03  0.25282032228E+03  0.10000000000E+01 0.  0.
<mgrwt>
<rscale>  0 0.12500432E+03</rscale>
<asrwt>0</asrwt>
<pdfrwt beam="1">  1        4 0.39219023E-01 0.12500432E+03</pdfrwt>
<pdfrwt beam="2">  1       -4 0.23575806E-02 0.12500432E+03</pdfrwt>
<totfact> 0.79481447E+03</totfact>
</mgrwt>
</event>
<event>
 5    1  0.3300771E-002  0.1250003E+03  0.7818608E-02  0.1235069E+00
         -4   -1    0    0    0  501 -0.00000000000E+00  0.00000000000E+00  0.21383457857E+03  0.21383834991E+03  0.12700000000E+01 0.  1.
          4   -1    0    0  501    0  0.00000000000E+00 -0.00000000000E+00 -0.18241703723E+02  0.18285859420E+02  0.12700000000E+01 0.  1.
         25    2    1    2    0    0  0.00000000000E+00  0.00000000000E+00  0.19559287485E+03  0.23212420933E+03  0.12500030347E+03 0.  0.
    9000005    1    3    3    0    0  0.44556053779E+00  0.62488030174E+02  0.96751681088E+02  0.11518177040E+03  0.10000000000E+01 0.  0.
    9000005    1    3    3    0    0 -0.44556053779E+00 -0.62488030174E+02  0.98841193759E+02  0.11694243893E+03  0.10000000000E+01 0.  0.
<mgrwt>
<rscale>  0 0.12500030E+03</rscale>
<asrwt>0</asrwt>
<pdfrwt beam="2">  1        4 0.28101027E-02 0.12500030E+03</pdfrwt>
<pdfrwt beam="1">  1       -4 0.32901313E-01 0.12500030E+03</pdfrwt>
<totfact> 0.84983911E+03</totfact>
</mgrwt>
</event>
<event>
 5    1  0.3300771E-002  0.1250021E+03  0.7818608E-02  0.1235066E+00
         -4   -1    0    0    0  501 -0.00000000000E+00  0.00000000000E+00  0.93475015989E+03  0.93475102264E+03  0.12700000000E+01 0. -1.
          4   -1    0    0  501    0  0.00000000000E+00 -0.00000000000E+00 -0.40816919209E+01  0.42747057135E+01  0.12700000000E+01 0. -1.
         25    2    1    2    0    0  0.00000000000E+00  0.00000000000E+00  0.93066846797E+03  0.93902572835E+03  0.12500208489E+03 0.  0.
    9000005    1    3    3    0    0 -0.42719413463E+02  0.25077742377E+02  0.17913097933E+03  0.18585679757E+03  0.10000000000E+01 0.  0.
    9000005    1    3    3    0    0  0.42719413463E+02 -0.25077742377E+02  0.75153748865E+03  0.75316893078E+03  0.10000000000E+01 0.  0.
<mgrwt>
<rscale>  0 0.12500208E+03</rscale>
<asrwt>0</asrwt>
<pdfrwt beam="2">  1        4 0.64286616E-03 0.12500208E+03</pdfrwt>
<pdfrwt beam="1">  1       -4 0.14382264E+00 0.12500208E+03</pdfrwt>
<totfact> 0.32707345E+03</totfact>
</mgrwt>
</event>
<event>
 5    1  0.3300771E-002  0.1249997E+03  0.7818608E-02  0.1235070E+00
          4   -1    0    0  501    0  0.00000000000E+00  0.00000000000E+00  0.45393039746E+03  0.45393217405E+03  0.12700000000E+01 0. -1.
         -4   -1    0    0    0  501 -0.00000000000E+00 -0.00000000000E+00 -0.85566886402E+01  0.86504231391E+01  0.12700000000E+01 0. -1.
         25    2    1    2    0    0  0.00000000000E+00  0.00000000000E+00  0.44537370882E+03  0.46258259719E+03  0.12499967486E+03 0.  0.
    9000005    1    3    3    0    0  0.39346543259E+02 -0.43756840919E+02  0.14484792705E+03  0.15634811660E+03  0.10000000000E+01 0.  0.
    9000005    1    3    3    0    0 -0.39346543259E+02  0.43756840919E+02  0.30052578177E+03  0.30623448059E+03  0.10000000000E+01 0.  0.
<mgrwt>
<rscale>  0 0.12499967E+03</rscale>
<asrwt>0</asrwt>
<pdfrwt beam="1">  1        4 0.69842781E-01 0.12499967E+03</pdfrwt>
<pdfrwt beam="2">  1       -4 0.13237609E-02 0.12499967E+03</pdfrwt>
<totfact> 0.58889482E+03</totfact>
</mgrwt>
</event>
<event>
 5    1  0.3300771E-002  0.1250229E+03  0.7818608E-02  0.1235033E+00
         -4   -1    0    0    0  501 -0.00000000000E+00  0.00000000000E+00  0.44634831342E+02  0.44652895415E+02  0.12700000000E+01 0.  1.
          4   -1    0    0  501    0  0.00000000000E+00 -0.00000000000E+00 -0.87507484646E+02  0.87516699944E+02  0.12700000000E+01 0.  1.
         25    2    1    2    0    0  0.00000000000E+00  0.00000000000E+00 -0.42872653303E+02  0.13216959536E+03  0.12502294804E+03 0.  0.
    9000005    1    3    3    0    0  0.42315047069E+02 -0.37471581849E+02  0.67723263974E+01  0.56934585794E+02  0.10000000000E+01 0.  0.
    9000005    1    3    3    0    0 -0.42315047069E+02  0.37471581849E+02 -0.49644979701E+02  0.75235009565E+02  0.10000000000E+01 0.  0.
<mgrwt>
<rscale>  0 0.12502295E+03</rscale>
<asrwt>0</asrwt>
<pdfrwt beam="2">  1        4 0.13464788E-01 0.12502295E+03</pdfrwt>
<pdfrwt beam="1">  1       -4 0.68689956E-02 0.12502295E+03</pdfrwt>
<totfact> 0.10292751E+04</totfact>
</mgrwt>
</event>
<event>
 5    1  0.3300771E-002  0.1249952E+03  0.7818608E-02  0.1235077E+00
          4   -1    0    0  501    0  0.00000000000E+00  0.00000000000E+00  0.37354465777E+02  0.37376048661E+02  0.12700000000E+01 0. -1.
         -4   -1    0    0    0  501 -0.00000000000E+00 -0.00000000000E+00 -0.10450877563E+03  0.10451649193E+03  0.12700000000E+01 0. -1.
         25    2    1    2    0    0  0.00000000000E+00  0.00000000000E+00 -0.67154309857E+02  0.14189254059E+03  0.12499516687E+03 0.  0.
    9000005    1    3    3    0    0  0.56976942329E+02 -0.25257722058E+02 -0.28421936713E+02  0.68506430116E+02  0.10000000000E+01 0.  0.
    9000005    1    3    3    0    0 -0.56976942329E+02  0.25257722058E+02 -0.38732373144E+02  0.73386110471E+02  0.10000000000E+01 0.  0.
<mgrwt>
<rscale>  0 0.12499517E+03</rscale>
<asrwt>0</asrwt>
<pdfrwt beam="1">  1        4 0.57490947E-02 0.12499517E+03</pdfrwt>
<pdfrwt beam="2">  1       -4 0.16080527E-01 0.12499517E+03</pdfrwt>
<totfact> 0.10095611E+04</totfact>
</mgrwt>
</event>
<event>
 5    1  0.3300771E-002  0.1250151E+03  0.7818608E-02  0.1235046E+00
          4   -1    0    0  501    0  0.00000000000E+00  0.00000000000E+00  0.24052139054E+03  0.24052474344E+03  0.12700000000E+01 0. -1.
         -4   -1    0    0    0  501 -0.00000000000E+00 -0.00000000000E+00 -0.16216394630E+02  0.16266049145E+02  0.12700000000E+01 0. -1.
         25    2    1    2    0    0  0.00000000000E+00  0.00000000000E+00  0.22430499591E+03  0.25679079258E+03  0.12501511895E+03 0.  0.
    9000005    1    3    3    0    0  0.57199152250E+02 -0.23238078024E+02  0.13211446863E+03  0.14583204075E+03  0.10000000000E+01 0.  0.
    9000005    1    3    3    0    0 -0.57199152250E+02  0.23238078024E+02  0.92190527275E+02  0.11095875183E+03  0.10000000000E+01 0.  0.
<mgrwt>
<rscale>  0 0.12501512E+03</rscale>
<asrwt>0</asrwt>
<pdfrwt beam="1">  1        4 0.37007370E-01 0.12501512E+03</pdfrwt>
<pdfrwt beam="2">  1       -4 0.24989073E-02 0.12501512E+03</pdfrwt>
<totfact> 0.81331164E+03</totfact>
</mgrwt>
</event>
<event>
 5    1  0.3300771E-002  0.1249989E+03  0.7818608E-02  0.1235071E+00
         -4   -1    0    0    0  501 -0.00000000000E+00  0.00000000000E+00  0.79870477155E+01  0.80873871683E+01  0.12700000000E+01 0. -1.
          4   -1    0    0  501    0  0.00000000000E+00 -0.00000000000E+00 -0.48591055036E+03  0.48591221003E+03  0.12700000000E+01 0. -1.
         25    2    1    2    0    0  0.00000000000E+00  0.00000000000E+00 -0.47792350265E+03  0.49399959720E+03  0.12499891058E+03 0.  0.
    9000005    1    3    3    0    0 -0.55483026839E+02  0.27904065053E+02 -0.26639317497E+03  0.27353852888E+03  0.10000000000E+01 0.  0.
    9000005    1    3    3    0    0  0.55483026839E+02 -0.27904065053E+02 -0.21153032768E+03  0.22046106831E+03  0.10000000000E+01 0.  0.
<mgrwt>
<rscale>  0 0.12499891E+03</rscale>
<asrwt>0</asrwt>
<pdfrwt beam="2">  1        4 0.74763293E-01 0.12499891E+03</pdfrwt>
<pdfrwt beam="1">  1       -4 0.12366230E-02 0.12499891E+03</pdfrwt>
<totfact> 0.56334307E+03</totfact>
</mgrwt>
</event>
<event>
 5    1  0.3300771E-002  0.1250025E+03  0.7818608E-02  0.1235065E+00
          4   -1    0    0  501    0  0.00000000000E+00  0.00000000000E+00  0.36759835607E+01  0.38891843796E+01  0.12700000000E+01 0.  1.
         -4   -1    0    0    0  501 -0.00000000000E+00 -0.00000000000E+00 -0.10325216174E+04  0.10325223984E+04  0.12700000000E+01 0.  1.
         25    2    1    2    0    0  0.00000000000E+00  0.00000000000E+00 -0.10288456338E+04  0.10364115828E+04  0.12500252297E+03 0.  0.
    9000005    1    3    3    0    0 -0.42147207635E+02 -0.27106948586E+02 -0.20483682566E+03  0.21087982103E+03  0.10000000000E+01 0.  0.
    9000005    1    3    3    0    0  0.42147207635E+02  0.27106948586E+02 -0.82400880813E+03  0.82553176175E+03  0.10000000000E+01 0.  0.
<mgrwt>
<rscale>  0 0.12500252E+03</rscale>
<asrwt>0</asrwt>
<pdfrwt beam="1">  1        4 0.58199690E-03 0.12500252E+03</pdfrwt>
<pdfrwt beam="2">  1       -4 0.15886572E+00 0.12500252E+03</pdfrwt>
<totfact> 0.29421299E+03</totfact>
</mgrwt>
</event>
<event>
 5    1  0.3300771E-002  0.1249973E+03  0.7818608E-02  0.1235073E+00
          4   -1    0    0  501    0  0.00000000000E+00  0.00000000000E+00  0.15266718414E+02  0.15319451398E+02  0.12700000000E+01 0. -1.
         -4   -1    0    0    0  501 -0.00000000000E+00 -0.00000000000E+00 -0.25536057873E+03  0.25536373679E+03  0.12700000000E+01 0. -1.
         25    2    1    2    0    0  0.00000000000E+00  0.00000000000E+00 -0.24009386032E+03  0.27068318819E+03  0.12499730640E+03 0.  0.
    9000005    1    3    3    0    0  0.17421766995E+02  0.42090643210E+02 -0.21268280875E+03  0.21750889027E+03  0.10000000000E+01 0.  0.
    9000005    1    3    3    0    0 -0.17421766995E+02 -0.42090643210E+02 -0.27411051567E+02  0.53174297918E+02  0.10000000000E+01 0.  0.
<mgrwt>
<rscale>  0 0.12499731E+03</rscale>
<asrwt>0</asrwt>
<pdfrwt beam="1">  1        4 0.23530254E-02 0.12499731E+03</pdfrwt>
<pdfrwt beam="2">  1       -4 0.39290539E-01 0.12499731E+03</pdfrwt>
<totfact> 0.79434577E+03</totfact>
</mgrwt>
</event>
<event>
 5    1  0.3300771E-002  0.1249959E+03  0.7818608E-02  0.1235076E+00
         -4   -1    0    0    0  501 -0.00000000000E+00  0.00000000000E+00  0.11358341934E+02  0.11429122079E+02  0.12700000000E+01 0. -1.
          4   -1    0    0  501    0  0.00000000000E+00 -0.00000000000E+00 -0.34274780009E+03  0.34275015298E+03  0.12700000000E+01 0. -1.
         25    2    1    2    0    0  0.00000000000E+00  0.00000000000E+00 -0.33138945816E+03  0.35417927506E+03  0.12499594355E+03 0.  0.
    9000005    1    3    3    0    0 -0.89979529747E+00  0.33270403022E+02 -0.31555765113E+03  0.31730956578E+03  0.10000000000E+01 0.  0.
    9000005    1    3    3    0    0  0.89979529747E+00 -0.33270403022E+02 -0.15831807034E+02  0.36869709285E+02  0.10000000000E+01 0.  0.
<mgrwt>
<rscale>  0 0.12499594E+03</rscale>
<asrwt>0</asrwt>
<pdfrwt beam="2">  1        4 0.52736048E-01 0.12499594E+03</pdfrwt>
<pdfrwt beam="1">  1       -4 0.17530631E-02 0.12499594E+03</pdfrwt>
<totfact> 0.69273439E+03</totfact>
</mgrwt>
</event>
<event>
 5    1  0.3300771E-002  0.1249999E+03  0.7818608E-02  0.1235069E+00
         -4   -1    0    0    0  501 -0.00000000000E+00  0.00000000000E+00  0.34627110660E+03  0.34627343555E+03  0.12700000000E+01 0.  1.
          4   -1    0    0  501    0  0.00000000000E+00 -0.00000000000E+00 -0.11242767663E+02  0.11314270844E+02  0.12700000000E+01 0.  1.
         25    2    1    2    0    0  0.00000000000E+00  0.00000000000E+00  0.33502833894E+03  0.35758770639E+03  0.12499991949E+03 0.  0.
    9000005    1    3    3    0    0  0.52260490283E+02 -0.29099031112E+02  0.11575736938E+03  0.13030226791E+03  0.10000000000E+01 0.  0.
    9000005    1    3    3    0    0 -0.52260490283E+02  0.29099031112E+02  0.21927096956E+03  0.22728543849E+03  0.10000000000E+01 0.  0.
<mgrwt>
<rscale>  0 0.12499992E+03</rscale>
<asrwt>0</asrwt>
<pdfrwt beam="2">  1        4 0.17353359E-02 0.12499992E+03</pdfrwt>
<pdfrwt beam="1">  1       -4 0.53278159E-01 0.12499992E+03</pdfrwt>
<totfact> 0.68897923E+03</totfact>
</mgrwt>
</event>
<event>
 5    1  0.3300771E-002  0.1249980E+03  0.7818608E-02  0.1235072E+00
          4   -1    0    0  501    0  0.00000000000E+00  0.00000000000E+00  0.24754237775E+02  0.24786794626E+02  0.12700000000E+01 0.  1.
         -4   -1    0    0    0  501 -0.00000000000E+00 -0.00000000000E+00 -0.15765738421E+03  0.15766249934E+03  0.12700000000E+01 0.  1.
         25    2    1    2    0    0  0.00000000000E+00  0.00000000000E+00 -0.13290314644E+03  0.18244929396E+03  0.12499799412E+03 0.  0.
    9000005    1    3    3    0    0  0.56298370435E+02 -0.27041801844E+02 -0.69499020583E+02  0.93444525910E+02  0.10000000000E+01 0.  0.
    9000005    1    3    3    0    0 -0.56298370435E+02  0.27041801844E+02 -0.63404125856E+02  0.89004768053E+02  0.10000000000E+01 0.  0.
<mgrwt>
<rscale>  0 0.12499799E+03</rscale>
<asrwt>0</asrwt>
<pdfrwt beam="1">  1        4 0.38112422E-02 0.12499799E+03</pdfrwt>
<pdfrwt beam="2">  1       -4 0.24257879E-01 0.12499799E+03</pdfrwt>
<totfact> 0.93182161E+03</totfact>
</mgrwt>
</event>
<event>
 5    1  0.3300771E-002  0.1250035E+03  0.7818608E-02  0.1235064E+00
         -4   -1    0    0    0  501 -0.00000000000E+00  0.00000000000E+00  0.38305253930E+01  0.40355699457E+01  0.12700000000E+01 0.  1.
          4   -1    0    0  501    0  0.00000000000E+00 -0.00000000000E+00 -0.99303710993E+03  0.99303792203E+03  0.12700000000E+01 0.  1.
         25    2    1    2    0    0  0.00000000000E+00  0.00000000000E+00 -0.98920658453E+03  0.99707349198E+03  0.12500352602E+03 0.  0.
    9000005    1    3    3    0    0 -0.50096987547E+02  0.11383079571E+02 -0.21077613003E+03  0.21694897937E+03  0.10000000000E+01 0.  0.
    9000005    1    3    3    0    0  0.50096987547E+02 -0.11383079571E+02 -0.77843045451E+03  0.78012451261E+03  0.10000000000E+01 0.  0.
<mgrwt>
<rscale>  0 0.12500353E+03</rscale>
<asrwt>0</asrwt>
<pdfrwt beam="2">  1        4 0.15279058E+00 0.12500353E+03</pdfrwt>
<pdfrwt beam="1">  1       -4 0.60514752E-03 0.12500353E+03</pdfrwt>
<totfact> 0.30698987E+03</totfact>
</mgrwt>
</event>
<event>
 5    1  0.3300771E-002  0.1249986E+03  0.7818608E-02  0.1235071E+00
         -4   -1    0    0    0  501 -0.00000000000E+00  0.00000000000E+00  0.14725331715E+04  0.14725337192E+04  0.12700000000E+01 0. -1.
          4   -1    0    0  501    0  0.00000000000E+00 -0.00000000000E+00 -0.25000977537E+01  0.28041734572E+01  0.12700000000E+01 0. -1.
         25    2    1    2    0    0  0.00000000000E+00  0.00000000000E+00  0.14700330737E+04  0.14753378926E+04  0.12499863795E+03 0.  0.
    9000005    1    3    3    0    0  0.37007188267E+02 -0.36565211305E+02  0.11436431539E+04  0.11448262794E+04  0.10000000000E+01 0.  0.
    9000005    1    3    3    0    0 -0.37007188267E+02  0.36565211305E+02  0.32638991989E+03  0.33051161321E+03  0.10000000000E+01 0.  0.
<mgrwt>
<rscale>  0 0.12499864E+03</rscale>
<asrwt>0</asrwt>
<pdfrwt beam="2">  1        4 0.40806326E-03 0.12499864E+03</pdfrwt>
<pdfrwt beam="1">  1       -4 0.22656685E+00 0.12499864E+03</pdfrwt>
<totfact> 0.18420238E+03</totfact>
</mgrwt>
</event>
<event>
 5    1  0.3300771E-002  0.1250013E+03  0.7818608E-02  0.1235067E+00
         -4   -1    0    0    0  501 -0.00000000000E+00  0.00000000000E+00  0.21010753737E+02  0.21049101468E+02  0.12700000000E+01 0. -1.
          4   -1    0    0  501    0  0.00000000000E+00 -0.00000000000E+00 -0.18571045908E+03  0.18571480155E+03  0.12700000000E+01 0. -1.
         25    2    1    2    0    0  0.00000000000E+00  0.00000000000E+00 -0.16469970535E+03  0.20676390301E+03  0.12500127459E+03 0.  0.
    9000005    1    3    3    0    0 -0.43951431758E+02  0.35423938346E+02 -0.38004514556E+02  0.68058260984E+02  0.10000000000E+01 0.  0.
    9000005    1    3    3    0    0  0.43951431758E+02 -0.35423938346E+02 -0.12669519079E+03  0.13870564203E+03  0.10000000000E+01 0.  0.
<mgrwt>
<rscale>  0 0.12500127E+03</rscale>
<asrwt>0</asrwt>
<pdfrwt beam="2">  1        4 0.28574123E-01 0.12500127E+03</pdfrwt>
<pdfrwt beam="1">  1       -4 0.32357076E-02 0.12500127E+03</pdfrwt>
<totfact> 0.89004583E+03</totfact>
</mgrwt>
</event>
<event>
 5    1  0.3300771E-002  0.1250016E+03  0.7818608E-02  0.1235067E+00
         -4   -1    0    0    0  501 -0.00000000000E+00  0.00000000000E+00  0.18047606511E+02  0.18092235925E+02  0.12700000000E+01 0. -1.
          4   -1    0    0  501    0  0.00000000000E+00 -0.00000000000E+00 -0.21613334871E+03  0.21613707994E+03  0.12700000000E+01 0. -1.
         25    2    1    2    0    0  0.00000000000E+00  0.00000000000E+00 -0.19808574220E+03  0.23422931587E+03  0.12500164458E+03 0.  0.
    9000005    1    3    3    0    0  0.14450234607E+02  0.15171204238E+02 -0.20936521678E+03  0.21041332828E+03  0.10000000000E+01 0.  0.
    9000005    1    3    3    0    0 -0.14450234607E+02 -0.15171204238E+02  0.11279474578E+02  0.23815987592E+02  0.10000000000E+01 0.  0.
<mgrwt>
<rscale>  0 0.12500164E+03</rscale>
<asrwt>0</asrwt>
<pdfrwt beam="2">  1        4 0.33255003E-01 0.12500164E+03</pdfrwt>
<pdfrwt beam="1">  1       -4 0.27802751E-02 0.12500164E+03</pdfrwt>
<totfact> 0.84661280E+03</totfact>
</mgrwt>
</event>
<event>
 5    1  0.3300771E-002  0.1250009E+03  0.7818608E-02  0.1235068E+00
          4   -1    0    0  501    0  0.00000000000E+00  0.00000000000E+00  0.28369510286E+02  0.28397922704E+02  0.12700000000E+01 0. -1.
         -4   -1    0    0    0  501 -0.00000000000E+00 -0.00000000000E+00 -0.13759349417E+03  0.13759935515E+03  0.12700000000E+01 0. -1.
         25    2    1    2    0    0  0.00000000000E+00  0.00000000000E+00 -0.10922398389E+03  0.16599727786E+03  0.12500087040E+03 0.  0.
    9000005    1    3    3    0    0 -0.52587554315E+02 -0.33667653635E+02 -0.57956425821E+02  0.85199231593E+02  0.10000000000E+01 0.  0.
    9000005    1    3    3    0    0  0.52587554315E+02  0.33667653635E+02 -0.51267558065E+02  0.80798046264E+02  0.10000000000E+01 0.  0.
<mgrwt>
<rscale>  0 0.12500087E+03</rscale>
<asrwt>0</asrwt>
<pdfrwt beam="1">  1        4 0.43671765E-02 0.12500087E+03</pdfrwt>
<pdfrwt beam="2">  1       -4 0.21170866E-01 0.12500087E+03</pdfrwt>
<totfact> 0.96196976E+03</totfact>
</mgrwt>
</event>
<event>
 5    1  0.3300771E-002  0.1250006E+03  0.7818608E-02  0.1235068E+00
         -4   -1    0    0    0  501 -0.00000000000E+00  0.00000000000E+00  0.11107231876E+03  0.11107957911E+03  0.12700000000E+01 0.  1.
          4   -1    0    0  501    0  0.00000000000E+00 -0.00000000000E+00 -0.35149003115E+02  0.35171939384E+02  0.12700000000E+01 0.  1.
         25    2    1    2    0    0  0.00000000000E+00  0.00000000000E+00  0.75923315643E+02  0.14625151849E+03  0.12500062721E+03 0.  0.
    9000005    1    3    3    0    0  0.44872917538E+02  0.43442316759E+02  0.40436874268E+02  0.74410714379E+02  0.10000000000E+01 0.  0.
    9000005    1    3    3    0    0 -0.44872917538E+02 -0.43442316759E+02  0.35486441375E+02  0.71840804110E+02  0.10000000000E+01 0.  0.
<mgrwt>
<rscale>  0 0.12500063E+03</rscale>
<asrwt>0</asrwt>
<pdfrwt beam="2">  1        4 0.54098619E-02 0.12500063E+03</pdfrwt>
<pdfrwt beam="1">  1       -4 0.17090371E-01 0.12500063E+03</pdfrwt>
<totfact> 0.10005481E+04</totfact>
</mgrwt>
</event>
<event>
 5    1  0.3300771E-002  0.1249994E+03  0.7818608E-02  0.1235070E+00
         -4   -1    0    0    0  501 -0.00000000000E+00  0.00000000000E+00  0.10596378945E+03  0.10597139980E+03  0.12700000000E+01 0.  1.
          4   -1    0    0  501    0  0.00000000000E+00 -0.00000000000E+00 -0.36843752831E+02  0.36865634711E+02  0.12700000000E+01 0.  1.
         25    2    1    2    0    0  0.00000000000E+00  0.00000000000E+00  0.69120036623E+02  0.14283703451E+03  0.12499935586E+03 0.  0.
    9000005    1    3    3    0    0  0.30979975097E+02 -0.36515707081E+02  0.80439958768E+02  0.93620204482E+02  0.10000000000E+01 0.  0.
    9000005    1    3    3    0    0 -0.30979975097E+02  0.36515707081E+02 -0.11319922145E+02  0.49216830028E+02  0.10000000000E+01 0.  0.
<mgrwt>
<rscale>  0 0.12499936E+03</rscale>
<asrwt>0</asrwt>
<pdfrwt beam="2">  1        4 0.56705383E-02 0.12499936E+03</pdfrwt>
<pdfrwt beam="1">  1       -4 0.16304390E-01 0.12499936E+03</pdfrwt>
<totfact> 0.10075268E+04</totfact>
</mgrwt>
</event>
<event>
 4    1  0.3300771E-002  0.1249318E+03  0.7818608E-02  0.1235176E+00
          4   -1    0    0  501    0  0.00000000000E+00  0.00000000000E+00  0.16598205008E+02  0.16646720682E+02  0.12700000000E+01 0. -1.
         -4   -1    0    0    0  501 -0.00000000000E+00 -0.00000000000E+00 -0.23469166880E+03  0.23469510499E+03  0.12700000000E+01 0. -1.
    9000005    1    1    2    0    0  0.28442090511E+02 -0.55268376700E+02 -0.96736254795E+02  0.11498890802E+03  0.10000000000E+01 0.  0.
    9000005    1    1    2    0    0 -0.28442090511E+02  0.55268376700E+02 -0.12135720900E+03  0.13635291765E+03  0.10000000000E+01 0.  0.
<mgrwt>
<rscale>  0 0.12493180E+03</rscale>
<asrwt>0</asrwt>
<pdfrwt beam="1">  1        4 0.25575665E-02 0.12493180E+03</pdfrwt>
<pdfrwt beam="2">  1       -4 0.36110404E-01 0.12493180E+03</pdfrwt>
<totfact> 0.82261580E+03</totfact>
</mgrwt>
</event>
<event>
 5    1  0.3300771E-002  0.1249913E+03  0.7818608E-02  0.1235083E+00
         -4   -1    0    0    0  501 -0.00000000000E+00  0.00000000000E+00  0.37410428396E+01  0.39507343023E+01  0.12700000000E+01 0.  1.
          4   -1    0    0  501    0  0.00000000000E+00 -0.00000000000E+00 -0.10153440729E+04  0.10153448671E+04  0.12700000000E+01 0.  1.
         25    2    1    2    0    0  0.00000000000E+00  0.00000000000E+00 -0.10116030300E+04  0.10192956015E+04  0.12499133065E+03 0.  0.
    9000005    1    3    3    0    0  0.74540962902E+00 -0.20696561528E+02 -0.25019787645E+02  0.32494508281E+02  0.10000000000E+01 0.  0.
    9000005    1    3    3    0    0 -0.74540962902E+00  0.20696561528E+02 -0.98658324240E+03  0.98680109317E+03  0.10000000000E+01 0.  0.
<mgrwt>
<rscale>  0 0.12499133E+03</rscale>
<asrwt>0</asrwt>
<pdfrwt beam="2">  1        4 0.15622276E+00 0.12499133E+03</pdfrwt>
<pdfrwt beam="1">  1       -4 0.59173707E-03 0.12499133E+03</pdfrwt>
<totfact> 0.29978872E+03</totfact>
</mgrwt>
</event>
<event>
 5    1  0.3300771E-002  0.1249998E+03  0.7818608E-02  0.1235070E+00
         -4   -1    0    0    0  501 -0.00000000000E+00  0.00000000000E+00  0.63274779748E+02  0.63287523670E+02  0.12700000000E+01 0. -1.
          4   -1    0    0  501    0  0.00000000000E+00 -0.00000000000E+00 -0.61709064065E+02  0.61722131264E+02  0.12700000000E+01 0. -1.
         25    2    1    2    0    0  0.00000000000E+00  0.00000000000E+00  0.15657156832E+01  0.12500965493E+03  0.12499984944E+03 0.  0.
    9000005    1    3    3    0    0  0.56955134933E+02  0.13633496391E+02 -0.21024378834E+02  0.62231697104E+02  0.10000000000E+01 0.  0.
    9000005    1    3    3    0    0 -0.56955134933E+02 -0.13633496391E+02  0.22590094517E+02  0.62777957830E+02  0.10000000000E+01 0.  0.
<mgrwt>
<rscale>  0 0.12499985E+03</rscale>
<asrwt>0</asrwt>
<pdfrwt beam="2">  1        4 0.94956877E-02 0.12499985E+03</pdfrwt>
<pdfrwt beam="1">  1       -4 0.97365669E-02 0.12499985E+03</pdfrwt>
<totfact> 0.10452688E+04</totfact>
</mgrwt>
</event>
<event>
 5    1  0.3300771E-002  0.1250012E+03  0.7818608E-02  0.1235067E+00
         -4   -1    0    0    0  501 -0.00000000000E+00  0.00000000000E+00  0.16144402673E+02  0.16194277930E+02  0.12700000000E+01 0.  1.
          4   -1    0    0  501    0  0.00000000000E+00 -0.00000000000E+00 -0.24153699805E+03  0.24154033685E+03  0.12700000000E+01 0.  1.
         25    2    1    2    0    0  0.00000000000E+00  0.00000000000E+00 -0.22539259537E+03  0.25773461478E+03  0.12500123842E+03 0.  0.
    9000005    1    3    3    0    0  0.49425496975E+01  0.61650978927E+02 -0.13114448730E+03  0.14500051224E+03  0.10000000000E+01 0.  0.
    9000005    1    3    3    0    0 -0.49425496975E+01 -0.61650978927E+02 -0.94248108071E+02  0.11273410254E+03  0.10000000000E+01 0.  0.
<mgrwt>
<rscale>  0 0.12500124E+03</rscale>
<asrwt>0</asrwt>
<pdfrwt beam="2">  1        4 0.37163629E-01 0.12500124E+03</pdfrwt>
<pdfrwt beam="1">  1       -4 0.24878478E-02 0.12500124E+03</pdfrwt>
<totfact> 0.81222792E+03</totfact>
</mgrwt>
</event>
<event>
 5    1  0.3300771E-002  0.1250042E+03  0.7818608E-02  0.1235063E+00
         -4   -1    0    0    0  501 -0.00000000000E+00  0.00000000000E+00  0.65474986090E+01  0.66695305708E+01  0.12700000000E+01 0.  1.
          4   -1    0    0  501    0  0.00000000000E+00 -0.00000000000E+00 -0.59101030551E+03  0.59101167003E+03  0.12700000000E+01 0.  1.
         25    2    1    2    0    0  0.00000000000E+00  0.00000000000E+00 -0.58446280690E+03  0.59768120061E+03  0.12500417956E+03 0.  0.
    9000005    1    3    3    0    0  0.27735260781E+02 -0.48686032855E+02 -0.15990652214E+03  0.16944223295E+03  0.10000000000E+01 0.  0.
    9000005    1    3    3    0    0 -0.27735260781E+02  0.48686032855E+02 -0.42455628476E+03  0.42823896765E+03  0.10000000000E+01 0.  0.
<mgrwt>
<rscale>  0 0.12500418E+03</rscale>
<asrwt>0</asrwt>
<pdfrwt beam="2">  1        4 0.90934113E-01 0.12500418E+03</pdfrwt>
<pdfrwt beam="1">  1       -4 0.10168000E-02 0.12500418E+03</pdfrwt>
<totfact> 0.49009832E+03</totfact>
</mgrwt>
</event>
<event>
 5    1  0.3300771E-002  0.1249972E+03  0.7818608E-02  0.1235074E+00
          4   -1    0    0  501    0  0.00000000000E+00  0.00000000000E+00  0.28112065890E+03  0.28112352759E+03  0.12700000000E+01 0.  1.
         -4   -1    0    0    0  501 -0.00000000000E+00 -0.00000000000E+00 -0.13862689116E+02  0.13920741702E+02  0.12700000000E+01 0.  1.
         25    2    1    2    0    0  0.00000000000E+00  0.00000000000E+00  0.26725796979E+03  0.29504426929E+03  0.12499719367E+03 0.  0.
    9000005    1    3    3    0    0  0.45855592313E+02  0.13203144253E+02  0.22886830526E+03  0.23379212886E+03  0.10000000000E+01 0.  0.
    9000005    1    3    3    0    0 -0.45855592313E+02 -0.13203144253E+02  0.38389664529E+02  0.61252140429E+02  0.10000000000E+01 0.  0.
<mgrwt>
<rscale>  0 0.12499719E+03</rscale>
<asrwt>0</asrwt>
<pdfrwt beam="1">  1        4 0.43254016E-01 0.12499719E+03</pdfrwt>
<pdfrwt beam="2">  1       -4 0.21374078E-02 0.12499719E+03</pdfrwt>
<totfact> 0.76229462E+03</totfact>
</mgrwt>
</event>
<event>
 5    1  0.3300771E-002  0.1249990E+03  0.7818608E-02  0.1235071E+00
         -4   -1    0    0    0  501 -0.00000000000E+00  0.00000000000E+00  0.85852670416E+01  0.86786928840E+01  0.12700000000E+01 0.  1.
          4   -1    0    0  501    0  0.00000000000E+00 -0.00000000000E+00 -0.45243077564E+03  0.45243255811E+03  0.12700000000E+01 0.  1.
         25    2    1    2    0    0  0.00000000000E+00  0.00000000000E+00 -0.44384550859E+03  0.46111125100E+03  0.12499900119E+03 0.  0.
    9000005    1    3    3    0    0 -0.38968918232E+01 -0.57268445008E+02 -0.31305676282E+03  0.31827723341E+03  0.10000000000E+01 0.  0.
    9000005    1    3    3    0    0  0.38968918232E+01  0.57268445008E+02 -0.13078874578E+03  0.14283401759E+03  0.10000000000E+01 0.  0.
<mgrwt>
<rscale>  0 0.12499900E+03</rscale>
<asrwt>0</asrwt>
<pdfrwt beam="2">  1        4 0.69612040E-01 0.12499900E+03</pdfrwt>
<pdfrwt beam="1">  1       -4 0.13281344E-02 0.12499900E+03</pdfrwt>
<totfact> 0.59014477E+03</totfact>
</mgrwt>
</event>
<event>
 5    1  0.3300771E-002  0.1250163E+03  0.7818608E-02  0.1235044E+00
          4   -1    0    0  501    0  0.00000000000E+00  0.00000000000E+00  0.16679093390E+03  0.16679576893E+03  0.12700000000E+01 0.  1.
         -4   -1    0    0    0  501 -0.00000000000E+00 -0.00000000000E+00 -0.23403762540E+02  0.23438195345E+02  0.12700000000E+01 0.  1.
         25    2    1    2    0    0  0.00000000000E+00  0.00000000000E+00  0.14338717136E+03  0.19023396427E+03  0.12501631994E+03 0.  0.
    9000005    1    3    3    0    0 -0.14934903815E+02 -0.60617493463E+02  0.76191718430E+02  0.98507409990E+02  0.10000000000E+01 0.  0.
    9000005    1    3    3    0    0  0.14934903815E+02  0.60617493463E+02  0.67195452934E+02  0.91726554284E+02  0.10000000000E+01 0.  0.
<mgrwt>
<rscale>  0 0.12501632E+03</rscale>
<asrwt>0</asrwt>
<pdfrwt beam="1">  1        4 0.25663164E-01 0.12501632E+03</pdfrwt>
<pdfrwt beam="2">  1       -4 0.36035994E-02 0.12501632E+03</pdfrwt>
<totfact> 0.91773069E+03</totfact>
</mgrwt>
</event>
<event>
 5    1  0.3300771E-002  0.1249976E+03  0.7818608E-02  0.1235073E+00
         -4   -1    0    0    0  501 -0.00000000000E+00  0.00000000000E+00  0.26999646821E+01  0.29837408206E+01  0.12700000000E+01 0.  1.
          4   -1    0    0  501    0  0.00000000000E+00 -0.00000000000E+00 -0.13742068065E+04  0.13742073933E+04  0.12700000000E+01 0.  1.
         25    2    1    2    0    0  0.00000000000E+00  0.00000000000E+00 -0.13715068418E+04  0.13771911341E+04  0.12499761149E+03 0.  0.
    9000005    1    3    3    0    0  0.18997278499E+02 -0.59346423079E+02 -0.63383402925E+03  0.63689047030E+03  0.10000000000E+01 0.  0.
    9000005    1    3    3    0    0 -0.18997278499E+02  0.59346423079E+02 -0.73767281254E+03  0.74030066384E+03  0.10000000000E+01 0.  0.
<mgrwt>
<rscale>  0 0.12499761E+03</rscale>
<asrwt>0</asrwt>
<pdfrwt beam="2">  1        4 0.21143778E+00 0.12499761E+03</pdfrwt>
<pdfrwt beam="1">  1       -4 0.43725435E-03 0.12499761E+03</pdfrwt>
<totfact> 0.20476874E+03</totfact>
</mgrwt>
</event>
<event>
 5    1  0.3300771E-002  0.1250003E+03  0.7818608E-02  0.1235069E+00
         -4   -1    0    0    0  501 -0.00000000000E+00  0.00000000000E+00  0.26054069592E+03  0.26054379120E+03  0.12700000000E+01 0.  1.
          4   -1    0    0  501    0  0.00000000000E+00 -0.00000000000E+00 -0.14962847702E+02  0.15016647807E+02  0.12700000000E+01 0.  1.
         25    2    1    2    0    0  0.00000000000E+00  0.00000000000E+00  0.24557784822E+03  0.27556043900E+03  0.12500030403E+03 0.  0.
    9000005    1    3    3    0    0  0.48942077702E+02  0.23196620878E+02  0.54065089014E+02  0.76533940445E+02  0.10000000000E+01 0.  0.
    9000005    1    3    3    0    0 -0.48942077702E+02 -0.23196620878E+02  0.19151275921E+03  0.19902649856E+03  0.10000000000E+01 0.  0.
<mgrwt>
<rscale>  0 0.12500030E+03</rscale>
<asrwt>0</asrwt>
<pdfrwt beam="2">  1        4 0.23063534E-02 0.12500030E+03</pdfrwt>
<pdfrwt beam="1">  1       -4 0.40087555E-01 0.12500030E+03</pdfrwt>
<totfact> 0.78769935E+03</totfact>
</mgrwt>
</event>
<event>
 5    1  0.3300771E-002  0.1250001E+03  0.7818608E-02  0.1235069E+00
         -4   -1    0    0    0  501 -0.00000000000E+00  0.00000000000E+00  0.59940997923E+01  0.61271634807E+01  0.12700000000E+01 0. -1.
          4   -1    0    0  501    0  0.00000000000E+00 -0.00000000000E+00 -0.64439581766E+03  0.64439706914E+03  0.12700000000E+01 0. -1.
         25    2    1    2    0    0  0.00000000000E+00  0.00000000000E+00 -0.63840171787E+03  0.65052423262E+03  0.12500009541E+03 0.  0.
    9000005    1    3    3    0    0 -0.31942437706E+02 -0.52226217440E+02 -0.38448365076E+03  0.38932836374E+03  0.10000000000E+01 0.  0.
    9000005    1    3    3    0    0  0.31942437706E+02  0.52226217440E+02 -0.25391806711E+03  0.26119586888E+03  0.10000000000E+01 0.  0.
<mgrwt>
<rscale>  0 0.12500010E+03</rscale>
<asrwt>0</asrwt>
<pdfrwt beam="2">  1        4 0.99148096E-01 0.12500010E+03</pdfrwt>
<pdfrwt beam="1">  1       -4 0.93250164E-03 0.12500010E+03</pdfrwt>
<totfact> 0.45825904E+03</totfact>
</mgrwt>
</event>
<event>
 5    1  0.3300771E-002  0.1249981E+03  0.7818608E-02  0.1235072E+00
          4   -1    0    0  501    0  0.00000000000E+00  0.00000000000E+00  0.48058337585E+01  0.49708085977E+01  0.12700000000E+01 0. -1.
         -4   -1    0    0    0  501 -0.00000000000E+00 -0.00000000000E+00 -0.79890817293E+03  0.79890918237E+03  0.12700000000E+01 0. -1.
         25    2    1    2    0    0  0.00000000000E+00  0.00000000000E+00 -0.79410233918E+03  0.80387999097E+03  0.12499805918E+03 0.  0.
    9000005    1    3    3    0    0  0.49731076880E+02  0.24687919751E+02 -0.21261584529E+03  0.21974797168E+03  0.10000000000E+01 0.  0.
    9000005    1    3    3    0    0 -0.49731076880E+02 -0.24687919751E+02 -0.58148649389E+03  0.58413201930E+03  0.10000000000E+01 0.  0.
<mgrwt>
<rscale>  0 0.12499806E+03</rscale>
<asrwt>0</asrwt>
<pdfrwt beam="1">  1        4 0.75212769E-03 0.12499806E+03</pdfrwt>
<pdfrwt beam="2">  1       -4 0.12292161E+00 0.12499806E+03</pdfrwt>
<totfact> 0.38093741E+03</totfact>
</mgrwt>
</event>
<event>
 5    1  0.3300771E-002  0.1249986E+03  0.7818608E-02  0.1235072E+00
         -4   -1    0    0    0  501 -0.00000000000E+00  0.00000000000E+00  0.74279056181E+01  0.75356938547E+01  0.12700000000E+01 0.  1.
          4   -1    0    0  501    0  0.00000000000E+00 -0.00000000000E+00 -0.52197987505E+03  0.52198142003E+03  0.12700000000E+01 0.  1.
         25    2    1    2    0    0  0.00000000000E+00  0.00000000000E+00 -0.51455196944E+03  0.52951711389E+03  0.12499857860E+03 0.  0.
    9000005    1    3    3    0    0  0.15452670103E+02 -0.26208632258E+02 -0.48850665422E+03  0.48945421506E+03  0.10000000000E+01 0.  0.
    9000005    1    3    3    0    0 -0.15452670103E+02  0.26208632258E+02 -0.26045315212E+02  0.40062898830E+02  0.10000000000E+01 0.  0.
<mgrwt>
<rscale>  0 0.12499858E+03</rscale>
<asrwt>0</asrwt>
<pdfrwt beam="2">  1        4 0.80312978E-01 0.12499858E+03</pdfrwt>
<pdfrwt beam="1">  1       -4 0.11511654E-02 0.12499858E+03</pdfrwt>
<totfact> 0.53646477E+03</totfact>
</mgrwt>
</event>
<event>
 4    1  0.3300771E-002  0.1249278E+03  0.7818608E-02  0.1235182E+00
         -4   -1    0    0    0  501 -0.00000000000E+00  0.00000000000E+00  0.90321885801E+01  0.91210377998E+01  0.12700000000E+01 0. -1.
          4   -1    0    0  501    0  0.00000000000E+00 -0.00000000000E+00 -0.42977726847E+03  0.42977914490E+03  0.12700000000E+01 0. -1.
    9000005    1    1    2    0    0  0.49029507546E+02 -0.14978876788E+02 -0.85049230941E+02  0.99310780098E+02  0.10000000000E+01 0.  0.
    9000005    1    1    2    0    0 -0.49029507546E+02  0.14978876788E+02 -0.33569584895E+03  0.33958940260E+03  0.10000000000E+01 0.  0.
<mgrwt>
<rscale>  0 0.12492777E+03</rscale>
<asrwt>0</asrwt>
<pdfrwt beam="2">  1        4 0.66126543E-01 0.12492777E+03</pdfrwt>
<pdfrwt beam="1">  1       -4 0.13965467E-02 0.12492777E+03</pdfrwt>
<totfact> 0.61034566E+03</totfact>
</mgrwt>
</event>
<event>
 5    1  0.3300771E-002  0.1249870E+03  0.7818608E-02  0.1235090E+00
          4   -1    0    0  501    0  0.00000000000E+00  0.00000000000E+00  0.53276642445E+03  0.53276793815E+03  0.12700000000E+01 0. -1.
         -4   -1    0    0    0  501 -0.00000000000E+00 -0.00000000000E+00 -0.72739473574E+01  0.73839833531E+01  0.12700000000E+01 0. -1.
         25    2    1    2    0    0  0.00000000000E+00  0.00000000000E+00  0.52549247710E+03  0.54015192151E+03  0.12498701862E+03 0.  0.
    9000005    1    3    3    0    0  0.12295651612E+02  0.60309866371E+02  0.30928710583E+03  0.31535373291E+03  0.10000000000E+01 0.  0.
    9000005    1    3    3    0    0 -0.12295651612E+02 -0.60309866371E+02  0.21620537127E+03  0.22479818859E+03  0.10000000000E+01 0.  0.
<mgrwt>
<rscale>  0 0.12498702E+03</rscale>
<asrwt>0</asrwt>
<pdfrwt beam="1">  1        4 0.81972678E-01 0.12498702E+03</pdfrwt>
<pdfrwt beam="2">  1       -4 0.11276491E-02 0.12498702E+03</pdfrwt>
<totfact> 0.52893382E+03</totfact>
</mgrwt>
</event>
<event>
 5    1  0.3300771E-002  0.1250031E+03  0.7818608E-02  0.1235064E+00
          4   -1    0    0  501    0  0.00000000000E+00  0.00000000000E+00  0.74115139138E+02  0.74126019382E+02  0.12700000000E+01 0. -1.
         -4   -1    0    0    0  501 -0.00000000000E+00 -0.00000000000E+00 -0.52685365445E+02  0.52700670130E+02  0.12700000000E+01 0. -1.
         25    2    1    2    0    0  0.00000000000E+00  0.00000000000E+00  0.21429773693E+02  0.12682668951E+03  0.12500309585E+03 0.  0.
    9000005    1    3    3    0    0 -0.58147498523E+02  0.15773942085E+02  0.27555057173E+02  0.66258810805E+02  0.10000000000E+01 0.  0.
    9000005    1    3    3    0    0  0.58147498523E+02 -0.15773942085E+02 -0.61252834804E+01  0.60567878707E+02  0.10000000000E+01 0.  0.
<mgrwt>
<rscale>  0 0.12500310E+03</rscale>
<asrwt>0</asrwt>
<pdfrwt beam="1">  1        4 0.11404343E-01 0.12500310E+03</pdfrwt>
<pdfrwt beam="2">  1       -4 0.81074551E-02 0.12500310E+03</pdfrwt>
<totfact> 0.10412186E+04</totfact>
</mgrwt>
</event>
<event>
 5    1  0.3300771E-002  0.1250021E+03  0.7818608E-02  0.1235066E+00
         -4   -1    0    0    0  501 -0.00000000000E+00  0.00000000000E+00  0.59007258719E+03  0.59007395389E+03  0.12700000000E+01 0.  1.
          4   -1    0    0  501    0  0.00000000000E+00 -0.00000000000E+00 -0.65578718503E+01  0.66797143057E+01  0.12700000000E+01 0.  1.
         25    2    1    2    0    0  0.00000000000E+00  0.00000000000E+00  0.58351471534E+03  0.59675366819E+03  0.12500206991E+03 0.  0.
    9000005    1    3    3    0    0 -0.19166280961E+02 -0.18140803266E+02  0.56218991945E+03  0.56280986185E+03  0.10000000000E+01 0.  0.
    9000005    1    3    3    0    0  0.19166280961E+02  0.18140803266E+02  0.21324795896E+02  0.33943806342E+02  0.10000000000E+01 0.  0.
<mgrwt>
<rscale>  0 0.12500207E+03</rscale>
<asrwt>0</asrwt>
<pdfrwt beam="2">  1        4 0.10183809E-02 0.12500207E+03</pdfrwt>
<pdfrwt beam="1">  1       -4 0.90789885E-01 0.12500207E+03</pdfrwt>
<totfact> 0.49070940E+03</totfact>
</mgrwt>
</event>
<event>
 5    1  0.3300771E-002  0.1249966E+03  0.7818608E-02  0.1235075E+00
          4   -1    0    0  501    0  0.00000000000E+00  0.00000000000E+00  0.74657497924E+02  0.74668299139E+02  0.12700000000E+01 0. -1.
         -4   -1    0    0    0  501 -0.00000000000E+00 -0.00000000000E+00 -0.52297153855E+02  0.52312572115E+02  0.12700000000E+01 0. -1.
         25    2    1    2    0    0  0.00000000000E+00  0.00000000000E+00  0.22360344069E+02  0.12698087125E+03  0.12499662666E+03 0.  0.
    9000005    1    3    3    0    0 -0.97089770477E+01  0.39855485144E+02  0.59069952037E+02  0.71923453511E+02  0.10000000000E+01 0.  0.
    9000005    1    3    3    0    0  0.97089770477E+01 -0.39855485144E+02 -0.36709607968E+02  0.55057417743E+02  0.10000000000E+01 0.  0.
<mgrwt>
<rscale>  0 0.12499663E+03</rscale>
<asrwt>0</asrwt>
<pdfrwt beam="1">  1        4 0.11487786E-01 0.12499663E+03</pdfrwt>
<pdfrwt beam="2">  1       -4 0.80477328E-02 0.12499663E+03</pdfrwt>
<totfact> 0.10410354E+04</totfact>
</mgrwt>
</event>
<event>
 5    1  0.3300771E-002  0.1250018E+03  0.7818608E-02  0.1235067E+00
         -4   -1    0    0    0  501 -0.00000000000E+00  0.00000000000E+00  0.80700624757E+01  0.81693823733E+01  0.12700000000E+01 0. -1.
          4   -1    0    0  501    0  0.00000000000E+00 -0.00000000000E+00 -0.48099509031E+03  0.48099676693E+03  0.12700000000E+01 0. -1.
         25    2    1    2    0    0  0.00000000000E+00  0.00000000000E+00 -0.47292502783E+03  0.48916614931E+03  0.12500175870E+03 0.  0.
    9000005    1    3    3    0    0  0.12634105691E+01 -0.10104286363E+02 -0.47774584243E+03  0.47785539944E+03  0.10000000000E+01 0.  0.
    9000005    1    3    3    0    0 -0.12634105691E+01  0.10104286363E+02  0.48208146017E+01  0.11310749869E+02  0.10000000000E+01 0.  0.
<mgrwt>
<rscale>  0 0.12500176E+03</rscale>
<asrwt>0</asrwt>
<pdfrwt beam="2">  1        4 0.74006991E-01 0.12500176E+03</pdfrwt>
<pdfrwt beam="1">  1       -4 0.12493174E-02 0.12500176E+03</pdfrwt>
<totfact> 0.56712663E+03</totfact>
</mgrwt>
</event>
<event>
 5    1  0.3300771E-002  0.1249991E+03  0.7818608E-02  0.1235071E+00
          4   -1    0    0  501    0  0.00000000000E+00  0.00000000000E+00  0.64508373195E+03  0.64508498210E+03  0.12700000000E+01 0. -1.
         -4   -1    0    0    0  501 -0.00000000000E+00 -0.00000000000E+00 -0.59874634938E+01  0.61206714574E+01  0.12700000000E+01 0. -1.
         25    2    1    2    0    0  0.00000000000E+00  0.00000000000E+00  0.63909626846E+03  0.65120565356E+03  0.12499905146E+03 0.  0.
    9000005    1    3    3    0    0 -0.26675283242E+02  0.50710955023E+02  0.44947928281E+03  0.45311786256E+03  0.10000000000E+01 0.  0.
    9000005    1    3    3    0    0  0.26675283242E+02 -0.50710955023E+02  0.18961698565E+03  0.19808779099E+03  0.10000000000E+01 0.  0.
<mgrwt>
<rscale>  0 0.12499905E+03</rscale>
<asrwt>0</asrwt>
<pdfrwt beam="1">  1        4 0.99253982E-01 0.12499905E+03</pdfrwt>
<pdfrwt beam="2">  1       -4 0.93149127E-03 0.12499905E+03</pdfrwt>
<totfact> 0.45787829E+03</totfact>
</mgrwt>
</event>
<event>
 5    1  0.3300771E-002  0.1249966E+03  0.7818608E-02  0.1235075E+00
         -4   -1    0    0    0  501 -0.00000000000E+00  0.00000000000E+00  0.56083716339E+02  0.56098093893E+02  0.12700000000E+01 0. -1.
          4   -1    0    0  501    0  0.00000000000E+00 -0.00000000000E+00 -0.69617426583E+02  0.69629009644E+02  0.12700000000E+01 0. -1.
         25    2    1    2    0    0  0.00000000000E+00  0.00000000000E+00 -0.13533710244E+02  0.12572710354E+03  0.12499657296E+03 0.  0.
    9000005    1    3    3    0    0 -0.28653410483E+02  0.50750565559E+02 -0.29446315177E+02  0.65304849088E+02  0.10000000000E+01 0.  0.
    9000005    1    3    3    0    0  0.28653410483E+02 -0.50750565559E+02  0.15912604934E+02  0.60422254449E+02  0.10000000000E+01 0.  0.
<mgrwt>
<rscale>  0 0.12499657E+03</rscale>
<asrwt>0</asrwt>
<pdfrwt beam="2">  1        4 0.10712370E-01 0.12499657E+03</pdfrwt>
<pdfrwt beam="1">  1       -4 0.86302610E-02 0.12499657E+03</pdfrwt>
<totfact> 0.10437755E+04</totfact>
</mgrwt>
</event>
<event>
 5    1  0.3300771E-002  0.1249964E+03  0.7818608E-02  0.1235075E+00
          4   -1    0    0  501    0  0.00000000000E+00  0.00000000000E+00  0.88084874344E+02  0.88094029243E+02  0.12700000000E+01 0.  1.
         -4   -1    0    0    0  501 -0.00000000000E+00 -0.00000000000E+00 -0.44323322879E+02  0.44341513856E+02  0.12700000000E+01 0.  1.
         25    2    1    2    0    0  0.00000000000E+00  0.00000000000E+00  0.43761551466E+02  0.13243554310E+03  0.12499639870E+03 0.  0.
    9000005    1    3    3    0    0 -0.13630510435E+02  0.60353877697E+02  0.31156436883E+02  0.69282789545E+02  0.10000000000E+01 0.  0.
    9000005    1    3    3    0    0  0.13630510435E+02 -0.60353877697E+02  0.12605114582E+02  0.63152753554E+02  0.10000000000E+01 0.  0.
<mgrwt>
<rscale>  0 0.12499640E+03</rscale>
<asrwt>0</asrwt>
<pdfrwt beam="1">  1        4 0.13553623E-01 0.12499640E+03</pdfrwt>
<pdfrwt beam="2">  1       -4 0.68210763E-02 0.12499640E+03</pdfrwt>
<totfact> 0.10293247E+04</totfact>
</mgrwt>
</event>
<event>
 5    1  0.3300771E-002  0.1249997E+03  0.7818608E-02  0.1235070E+00
         -4   -1    0    0    0  501 -0.00000000000E+00  0.00000000000E+00  0.10704425905E+04  0.10704433439E+04  0.12700000000E+01 0. -1.
          4   -1    0    0  501    0  0.00000000000E+00 -0.00000000000E+00 -0.35378991174E+01  0.37589400321E+01  0.12700000000E+01 0. -1.
         25    2    1    2    0    0  0.00000000000E+00  0.00000000000E+00  0.10669046914E+04  0.10742022839E+04  0.12499970507E+03 0.  0.
    9000005    1    3    3    0    0  0.48171450156E+02 -0.22159782345E+01  0.87502460381E+03  0.87635292916E+03  0.10000000000E+01 0.  0.
    9000005    1    3    3    0    0 -0.48171450156E+02  0.22159782345E+01  0.19188008755E+03  0.19784935473E+03  0.10000000000E+01 0.  0.
<mgrwt>
<rscale>  0 0.12499971E+03</rscale>
<asrwt>0</asrwt>
<pdfrwt beam="2">  1        4 0.56135299E-03 0.12499971E+03</pdfrwt>
<pdfrwt beam="1">  1       -4 0.16470062E+00 0.12499971E+03</pdfrwt>
<totfact> 0.28251118E+03</totfact>
</mgrwt>
</event>
<event>
 5    1  0.3300771E-002  0.1249995E+03  0.7818608E-02  0.1235070E+00
          4   -1    0    0  501    0  0.00000000000E+00  0.00000000000E+00  0.77395244013E+03  0.77395348212E+03  0.12700000000E+01 0. -1.
         -4   -1    0    0    0  501 -0.00000000000E+00 -0.00000000000E+00 -0.49661518447E+01  0.51259695809E+01  0.12700000000E+01 0. -1.
         25    2    1    2    0    0  0.00000000000E+00  0.00000000000E+00  0.76898628829E+03  0.77907945170E+03  0.12499952196E+03 0.  0.
    9000005    1    3    3    0    0  0.38266644208E+02  0.31005835481E+02  0.62422963563E+03  0.62617037289E+03  0.10000000000E+01 0.  0.
    9000005    1    3    3    0    0 -0.38266644208E+02 -0.31005835481E+02  0.14475665266E+03  0.15290907881E+03  0.10000000000E+01 0.  0.
<mgrwt>
<rscale>  0 0.12499952E+03</rscale>
<asrwt>0</asrwt>
<pdfrwt beam="1">  1        4 0.11908189E+00 0.12499952E+03</pdfrwt>
<pdfrwt beam="2">  1       -4 0.77639779E-03 0.12499952E+03</pdfrwt>
<totfact> 0.39216339E+03</totfact>
</mgrwt>
</event>
<event>
 5    1  0.3300771E-002  0.1250022E+03  0.7818608E-02  0.1235066E+00
         -4   -1    0    0    0  501 -0.00000000000E+00  0.00000000000E+00  0.72382627160E+01  0.73488330466E+01  0.12700000000E+01 0. -1.
          4   -1    0    0  501    0  0.00000000000E+00 -0.00000000000E+00 -0.53548384307E+03  0.53548534909E+03  0.12700000000E+01 0. -1.
         25    2    1    2    0    0  0.00000000000E+00  0.00000000000E+00 -0.52824558035E+03  0.54283418214E+03  0.12500222451E+03 0.  0.
    9000005    1    3    3    0    0 -0.56584064388E+02  0.14583908906E+02 -0.16790294181E+03  0.17778313928E+03  0.10000000000E+01 0.  0.
    9000005    1    3    3    0    0  0.56584064388E+02 -0.14583908906E+02 -0.36034263854E+03  0.36505104286E+03  0.10000000000E+01 0.  0.
<mgrwt>
<rscale>  0 0.12500222E+03</rscale>
<asrwt>0</asrwt>
<pdfrwt beam="2">  1        4 0.82390720E-01 0.12500222E+03</pdfrwt>
<pdfrwt beam="1">  1       -4 0.11222006E-02 0.12500222E+03</pdfrwt>
<totfact> 0.52685106E+03</totfact>
</mgrwt>
</event>
<event>
 5    1  0.3300771E-002  0.1249993E+03  0.7818608E-02  0.1235070E+00
         -4   -1    0    0    0  501 -0.00000000000E+00  0.00000000000E+00  0.47488292069E+02  0.47505271114E+02  0.12700000000E+01 0.  1.
          4   -1    0    0  501    0  0.00000000000E+00 -0.00000000000E+00 -0.82219549021E+02  0.82229356931E+02  0.12700000000E+01 0.  1.
         25    2    1    2    0    0  0.00000000000E+00  0.00000000000E+00 -0.34731256952E+02  0.12973462804E+03  0.12499925402E+03 0.  0.
    9000005    1    3    3    0    0  0.52115732694E+02  0.33251708743E+02 -0.26848362970E+02  0.67405936850E+02  0.10000000000E+01 0.  0.
    9000005    1    3    3    0    0 -0.52115732694E+02 -0.33251708743E+02 -0.78828939825E+01  0.62328691195E+02  0.10000000000E+01 0.  0.
<mgrwt>
<rscale>  0 0.12499925E+03</rscale>
<asrwt>0</asrwt>
<pdfrwt beam="2">  1        4 0.12651222E-01 0.12499925E+03</pdfrwt>
<pdfrwt beam="1">  1       -4 0.73079516E-02 0.12499925E+03</pdfrwt>
<totfact> 0.10350362E+04</totfact>
</mgrwt>
</event>
<event>
 5    1  0.3300771E-002  0.1249985E+03  0.7818608E-02  0.1235072E+00
          4   -1    0    0  501    0  0.00000000000E+00  0.00000000000E+00  0.11616104066E+03  0.11616798297E+03  0.12700000000E+01 0. -1.
         -4   -1    0    0    0  501 -0.00000000000E+00 -0.00000000000E+00 -0.33607129487E+02  0.33631117322E+02  0.12700000000E+01 0. -1.
         25    2    1    2    0    0  0.00000000000E+00  0.00000000000E+00  0.82553911176E+02  0.14979910029E+03  0.12499848878E+03 0.  0.
    9000005    1    3    3    0    0 -0.30162069488E+02 -0.49803792955E+02  0.14081100967E+02  0.59911982382E+02  0.10000000000E+01 0.  0.
    9000005    1    3    3    0    0  0.30162069488E+02  0.49803792955E+02  0.68472810209E+02  0.89887117912E+02  0.10000000000E+01 0.  0.
<mgrwt>
<rscale>  0 0.12499849E+03</rscale>
<asrwt>0</asrwt>
<pdfrwt beam="1">  1        4 0.17873308E-01 0.12499849E+03</pdfrwt>
<pdfrwt beam="2">  1       -4 0.51727069E-02 0.12499849E+03</pdfrwt>
<totfact> 0.99347138E+03</totfact>
</mgrwt>
</event>
<event>
 5    1  0.3300771E-002  0.1250016E+03  0.7818608E-02  0.1235067E+00
          4   -1    0    0  501    0  0.00000000000E+00  0.00000000000E+00  0.28140048053E+02  0.28168691919E+02  0.12700000000E+01 0.  1.
         -4   -1    0    0    0  501 -0.00000000000E+00 -0.00000000000E+00 -0.13871590101E+03  0.13872171457E+03  0.12700000000E+01 0.  1.
         25    2    1    2    0    0  0.00000000000E+00  0.00000000000E+00 -0.11057585296E+03  0.16689040649E+03  0.12500155407E+03 0.  0.
    9000005    1    3    3    0    0 -0.34722024307E+02  0.50734388743E+02 -0.40316269000E+02  0.73525497068E+02  0.10000000000E+01 0.  0.
    9000005    1    3    3    0    0  0.34722024307E+02 -0.50734388743E+02 -0.70259583957E+02  0.93364909419E+02  0.10000000000E+01 0.  0.
<mgrwt>
<rscale>  0 0.12500155E+03</rscale>
<asrwt>0</asrwt>
<pdfrwt beam="1">  1        4 0.43318888E-02 0.12500155E+03</pdfrwt>
<pdfrwt beam="2">  1       -4 0.21343558E-01 0.12500155E+03</pdfrwt>
<totfact> 0.96027221E+03</totfact>
</mgrwt>
</event>
<event>
 5    1  0.3300771E-002  0.1249968E+03  0.7818608E-02  0.1235074E+00
          4   -1    0    0  501    0  0.00000000000E+00  0.00000000000E+00  0.11124863524E+04  0.11124870773E+04  0.12700000000E+01 0. -1.
         -4   -1    0    0    0  501 -0.00000000000E+00 -0.00000000000E+00 -0.33955037498E+01  0.36252373322E+01  0.12700000000E+01 0. -1.
         25    2    1    2    0    0  0.00000000000E+00  0.00000000000E+00  0.11090908486E+04  0.11161123146E+04  0.12499675328E+03 0.  0.
    9000005    1    3    3    0    0 -0.49794814883E+02  0.30213608648E+02  0.75671902881E+03  0.75895788704E+03  0.10000000000E+01 0.  0.
    9000005    1    3    3    0    0  0.49794814883E+02 -0.30213608648E+02  0.35237181983E+03  0.35715442759E+03  0.10000000000E+01 0.  0.
<mgrwt>
<rscale>  0 0.12499675E+03</rscale>
<asrwt>0</asrwt>
<pdfrwt beam="1">  1        4 0.17116966E+00 0.12499675E+03</pdfrwt>
<pdfrwt beam="2">  1       -4 0.54011220E-03 0.12499675E+03</pdfrwt>
<totfact> 0.27018437E+03</totfact>
</mgrwt>
</event>
<event>
 5    1  0.3300771E-002  0.1249830E+03  0.7818608E-02  0.1235096E+00
         -4   -1    0    0    0  501 -0.00000000000E+00  0.00000000000E+00  0.56950265590E+01  0.58349145245E+01  0.12700000000E+01 0.  1.
          4   -1    0    0  501    0  0.00000000000E+00 -0.00000000000E+00 -0.67725909930E+03  0.67726029005E+03  0.12700000000E+01 0.  1.
         25    2    1    2    0    0  0.00000000000E+00  0.00000000000E+00 -0.67156407274E+03  0.68309520458E+03  0.12498301774E+03 0.  0.
    9000005    1    3    3    0    0  0.54266895768E+02 -0.26263391282E+02 -0.42551073202E+03  0.42976161387E+03  0.10000000000E+01 0.  0.
    9000005    1    3    3    0    0 -0.54266895768E+02  0.26263391282E+02 -0.24605334072E+03  0.25333359070E+03  0.10000000000E+01 0.  0.
<mgrwt>
<rscale>  0 0.12498302E+03</rscale>
<asrwt>0</asrwt>
<pdfrwt beam="2">  1        4 0.10420450E+00 0.12498302E+03</pdfrwt>
<pdfrwt beam="1">  1       -4 0.88701068E-03 0.12498302E+03</pdfrwt>
<totfact> 0.44010604E+03</totfact>
</mgrwt>
</event>
<event>
 5    1  0.3300771E-002  0.1250006E+03  0.7818608E-02  0.1235068E+00
         -4   -1    0    0    0  501 -0.00000000000E+00  0.00000000000E+00  0.59058880201E+02  0.59072533640E+02  0.12700000000E+01 0. -1.
          4   -1    0    0  501    0  0.00000000000E+00 -0.00000000000E+00 -0.66114883946E+02  0.66127080528E+02  0.12700000000E+01 0. -1.
         25    2    1    2    0    0  0.00000000000E+00  0.00000000000E+00 -0.70560037445E+01  0.12519961417E+03  0.12500062479E+03 0.  0.
    9000005    1    3    3    0    0 -0.50561760449E+01  0.49773652844E+02  0.33979008893E+02  0.60485985806E+02  0.10000000000E+01 0.  0.
    9000005    1    3    3    0    0  0.50561760449E+01 -0.49773652844E+02 -0.41035012638E+02  0.64713628362E+02  0.10000000000E+01 0.  0.
<mgrwt>
<rscale>  0 0.12500062E+03</rscale>
<asrwt>0</asrwt>
<pdfrwt beam="2">  1        4 0.10173509E-01 0.12500062E+03</pdfrwt>
<pdfrwt beam="1">  1       -4 0.90879700E-02 0.12500062E+03</pdfrwt>
<totfact> 0.10448381E+04</totfact>
</mgrwt>
</event>
<event>
 5    1  0.3300771E-002  0.1250000E+03  0.7818608E-02  0.1235069E+00
          4   -1    0    0  501    0  0.00000000000E+00  0.00000000000E+00  0.60839264427E+02  0.60852518403E+02  0.12700000000E+01 0. -1.
         -4   -1    0    0    0  501 -0.00000000000E+00 -0.00000000000E+00 -0.64179565176E+02  0.64192129472E+02  0.12700000000E+01 0. -1.
         25    2    1    2    0    0  0.00000000000E+00  0.00000000000E+00 -0.33403007490E+01  0.12504464788E+03  0.12500002541E+03 0.  0.
    9000005    1    3    3    0    0 -0.58098622043E+02 -0.93805902560E+01  0.19356540270E+02  0.61960640798E+02  0.10000000000E+01 0.  0.
    9000005    1    3    3    0    0  0.58098622043E+02  0.93805902560E+01 -0.22696841019E+02  0.63084007078E+02  0.10000000000E+01 0.  0.
<mgrwt>
<rscale>  0 0.12500003E+03</rscale>
<asrwt>0</asrwt>
<pdfrwt beam="1">  1        4 0.93618728E-02 0.12500003E+03</pdfrwt>
<pdfrwt beam="2">  1       -4 0.98757653E-02 0.12500003E+03</pdfrwt>
<totfact> 0.10451887E+04</totfact>
</mgrwt>
</event>
<event>
 5    1  0.3300771E-002  0.1250009E+03  0.7818608E-02  0.1235068E+00
         -4   -1    0    0    0  501 -0.00000000000E+00  0.00000000000E+00  0.17074567015E+01  0.21279822338E+01  0.12700000000E+01 0.  1.
          4   -1    0    0  501    0  0.00000000000E+00 -0.00000000000E+00 -0.20365339190E+04  0.20365343150E+04  0.12700000000E+01 0.  1.
         25    2    1    2    0    0  0.00000000000E+00  0.00000000000E+00 -0.20348264623E+04  0.20386622973E+04  0.12500092183E+03 0.  0.
    9000005    1    3    3    0    0  0.51198003564E+02 -0.16961156755E+02 -0.50260317869E+03  0.50548973445E+03  0.10000000000E+01 0.  0.
    9000005    1    3    3    0    0 -0.51198003564E+02  0.16961156755E+02 -0.15322232837E+04  0.15331725628E+04  0.10000000000E+01 0.  0.
<mgrwt>
<rscale>  0 0.12500092E+03</rscale>
<asrwt>0</asrwt>
<pdfrwt beam="2">  1        4 0.31334356E+00 0.12500092E+03</pdfrwt>
<pdfrwt beam="1">  1       -4 0.29506585E-03 0.12500092E+03</pdfrwt>
<totfact> 0.93649267E+02</totfact>
</mgrwt>
</event>
<event>
 5    1  0.3300771E-002  0.1249993E+03  0.7818608E-02  0.1235070E+00
          4   -1    0    0  501    0  0.00000000000E+00  0.00000000000E+00  0.81770425983E+02  0.81780287756E+02  0.12700000000E+01 0.  1.
         -4   -1    0    0    0  501 -0.00000000000E+00 -0.00000000000E+00 -0.47749243727E+02  0.47766130014E+02  0.12700000000E+01 0.  1.
         25    2    1    2    0    0  0.00000000000E+00  0.00000000000E+00  0.34021182256E+02  0.12954641777E+03  0.12499933406E+03 0.  0.
    9000005    1    3    3    0    0 -0.33402940510E+02 -0.52422596945E+02  0.23672751270E+02  0.66522810057E+02  0.10000000000E+01 0.  0.
    9000005    1    3    3    0    0  0.33402940510E+02  0.52422596945E+02  0.10348430986E+02  0.63023607712E+02  0.10000000000E+01 0.  0.
<mgrwt>
<rscale>  0 0.12499933E+03</rscale>
<asrwt>0</asrwt>
<pdfrwt beam="1">  1        4 0.12582123E-01 0.12499933E+03</pdfrwt>
<pdfrwt beam="2">  1       -4 0.73480951E-02 0.12499933E+03</pdfrwt>
<totfact> 0.10354376E+04</totfact>
</mgrwt>
</event>
<event>
 4    1  0.3300771E-002  0.1249384E+03  0.7818608E-02  0.1235166E+00
          4   -1    0    0  501    0  0.00000000000E+00  0.00000000000E+00  0.97017341217E+01  0.97845053512E+01  0.12700000000E+01 0. -1.
         -4   -1    0    0    0  501 -0.00000000000E+00 -0.00000000000E+00 -0.40044529040E+03  0.40044730427E+03  0.12700000000E+01 0. -1.
    9000005    1    1    2    0    0 -0.99663540716E+01  0.57359605357E+02 -0.26966464923E+03  0.27587945843E+03  0.10000000000E+01 0.  0.
    9000005    1    1    2    0    0  0.99663540716E+01 -0.57359605357E+02 -0.12107890704E+03  0.13435235119E+03  0.10000000000E+01 0.  0.
<mgrwt>
<rscale>  0 0.12493843E+03</rscale>
<asrwt>0</asrwt>
<pdfrwt beam="1">  1        4 0.14990967E-02 0.12493843E+03</pdfrwt>
<pdfrwt beam="2">  1       -4 0.61613477E-01 0.12493843E+03</pdfrwt>
<totfact> 0.63656129E+03</totfact>
</mgrwt>
</event>
<event>
 5    1  0.3300771E-002  0.1249806E+03  0.7818608E-02  0.1235100E+00
          4   -1    0    0  501    0  0.00000000000E+00  0.00000000000E+00  0.19440708421E+03  0.19441123242E+03  0.12700000000E+01 0.  1.
         -4   -1    0    0    0  501 -0.00000000000E+00 -0.00000000000E+00 -0.20062470004E+02  0.20102626760E+02  0.12700000000E+01 0.  1.
         25    2    1    2    0    0  0.00000000000E+00  0.00000000000E+00  0.17434461421E+03  0.21451385918E+03  0.12498060361E+03 0.  0.
    9000005    1    3    3    0    0  0.20698579751E+02  0.24904579697E+02  0.17888803608E+03  0.18179823637E+03  0.10000000000E+01 0.  0.
    9000005    1    3    3    0    0 -0.20698579751E+02 -0.24904579697E+02 -0.45434218761E+01  0.32715622812E+02  0.10000000000E+01 0.  0.
<mgrwt>
<rscale>  0 0.12498060E+03</rscale>
<asrwt>0</asrwt>
<pdfrwt beam="1">  1        4 0.29912190E-01 0.12498060E+03</pdfrwt>
<pdfrwt beam="2">  1       -4 0.30899419E-02 0.12498060E+03</pdfrwt>
<totfact> 0.87782018E+03</totfact>
</mgrwt>
</event>
<event>
 5    1  0.3300771E-002  0.1250022E+03  0.7818608E-02  0.1235066E+00
          4   -1    0    0  501    0  0.00000000000E+00  0.00000000000E+00  0.46562784592E+01  0.48263681054E+01  0.12700000000E+01 0.  1.
         -4   -1    0    0    0  501 -0.00000000000E+00 -0.00000000000E+00 -0.82373140726E+03  0.82373238628E+03  0.12700000000E+01 0.  1.
         25    2    1    2    0    0  0.00000000000E+00  0.00000000000E+00 -0.81907512880E+03  0.82855875438E+03  0.12500217138E+03 0.  0.
    9000005    1    3    3    0    0  0.30352181385E+02  0.46157104382E+02 -0.21587471622E+03  0.22283318044E+03  0.10000000000E+01 0.  0.
    9000005    1    3    3    0    0 -0.30352181385E+02 -0.46157104382E+02 -0.60320041258E+03  0.60572557395E+03  0.10000000000E+01 0.  0.
<mgrwt>
<rscale>  0 0.12500217E+03</rscale>
<asrwt>0</asrwt>
<pdfrwt beam="1">  1        4 0.72951031E-03 0.12500217E+03</pdfrwt>
<pdfrwt beam="2">  1       -4 0.12674095E+00 0.12500217E+03</pdfrwt>
<totfact> 0.37019405E+03</totfact>
</mgrwt>
</event>
<event>
 5    1  0.3300771E-002  0.1250004E+03  0.7818608E-02  0.1235069E+00
         -4   -1    0    0    0  501 -0.00000000000E+00  0.00000000000E+00  0.12866620705E+03  0.12867247467E+03  0.12700000000E+01 0. -1.
          4   -1    0    0  501    0  0.00000000000E+00 -0.00000000000E+00 -0.30339489656E+02  0.30366058892E+02  0.12700000000E+01 0. -1.
         25    2    1    2    0    0  0.00000000000E+00  0.00000000000E+00  0.98326717394E+02  0.15903853356E+03  0.12500044721E+03 0.  0.
    9000005    1    3    3    0    0  0.49685649815E+02  0.21871502871E+02  0.88548331794E+02  0.10386930971E+03  0.10000000000E+01 0.  0.
    9000005    1    3    3    0    0 -0.49685649815E+02 -0.21871502871E+02  0.97783855994E+01  0.55169223851E+02  0.10000000000E+01 0.  0.
<mgrwt>
<rscale>  0 0.12500045E+03</rscale>
<asrwt>0</asrwt>
<pdfrwt beam="2">  1        4 0.46701397E-02 0.12500045E+03</pdfrwt>
<pdfrwt beam="1">  1       -4 0.19797327E-01 0.12500045E+03</pdfrwt>
<totfact> 0.97527488E+03</totfact>
</mgrwt>
</event>
<event>
 5    1  0.3300771E-002  0.1250008E+03  0.7818608E-02  0.1235068E+00
          4   -1    0    0  501    0  0.00000000000E+00  0.00000000000E+00  0.24225706365E+02  0.24258972544E+02  0.12700000000E+01 0. -1.
         -4   -1    0    0    0  501 -0.00000000000E+00 -0.00000000000E+00 -0.16109968291E+03  0.16110468874E+03  0.12700000000E+01 0. -1.
         25    2    1    2    0    0  0.00000000000E+00  0.00000000000E+00 -0.13687397655E+03  0.18536366128E+03  0.12500080587E+03 0.  0.
    9000005    1    3    3    0    0  0.24566968623E+01 -0.60300843285E+02 -0.92488931946E+02  0.11044197387E+03  0.10000000000E+01 0.  0.
    9000005    1    3    3    0    0 -0.24566968623E+01  0.60300843285E+02 -0.44385044600E+02  0.74921687411E+02  0.10000000000E+01 0.  0.
<mgrwt>
<rscale>  0 0.12500081E+03</rscale>
<asrwt>0</asrwt>
<pdfrwt beam="1">  1        4 0.37299759E-02 0.12500081E+03</pdfrwt>
<pdfrwt beam="2">  1       -4 0.24787510E-01 0.12500081E+03</pdfrwt>
<totfact> 0.92658666E+03</totfact>
</mgrwt>
</event>
<event>
 5    1  0.3300771E-002  0.1249975E+03  0.7818608E-02  0.1235073E+00
         -4   -1    0    0    0  501 -0.00000000000E+00  0.00000000000E+00  0.91600127966E+02  0.91608931570E+02  0.12700000000E+01 0. -1.
          4   -1    0    0  501    0  0.00000000000E+00 -0.00000000000E+00 -0.42622540658E+02  0.42641457200E+02  0.12700000000E+01 0. -1.
         25    2    1    2    0    0  0.00000000000E+00  0.00000000000E+00  0.48977587308E+02  0.13425038877E+03  0.12499745128E+03 0.  0.
    9000005    1    3    3    0    0 -0.12569036987E+02 -0.22807201084E+02  0.85500047008E+02  0.89383483656E+02  0.10000000000E+01 0.  0.
    9000005    1    3    3    0    0  0.12569036987E+02  0.22807201084E+02 -0.36522459700E+02  0.44866905115E+02  0.10000000000E+01 0.  0.
<mgrwt>
<rscale>  0 0.12499745E+03</rscale>
<asrwt>0</asrwt>
<pdfrwt beam="2">  1        4 0.65594464E-02 0.12499745E+03</pdfrwt>
<pdfrwt beam="1">  1       -4 0.14094459E-01 0.12499745E+03</pdfrwt>
<totfact> 0.10254484E+04</totfact>
</mgrwt>
</event>
<event>
 5    1  0.3300771E-002  0.1250007E+03  0.7818608E-02  0.1235068E+00
          4   -1    0    0  501    0  0.00000000000E+00  0.00000000000E+00  0.10879082475E+02  0.10952960124E+02  0.12700000000E+01 0. -1.
         -4   -1    0    0    0  501 -0.00000000000E+00 -0.00000000000E+00 -0.35777439083E+03  0.35777664490E+03  0.12700000000E+01 0. -1.
         25    2    1    2    0    0  0.00000000000E+00  0.00000000000E+00 -0.34689530836E+03  0.36872960502E+03  0.12500066664E+03 0.  0.
    9000005    1    3    3    0    0  0.31600542470E+02  0.53046465961E+02 -0.20185947445E+03  0.21109421891E+03  0.10000000000E+01 0.  0.
    9000005    1    3    3    0    0 -0.31600542470E+02 -0.53046465961E+02 -0.14503583391E+03  0.15763538611E+03  0.10000000000E+01 0.  0.
<mgrwt>
<rscale>  0 0.12500067E+03</rscale>
<asrwt>0</asrwt>
<pdfrwt beam="1">  1        4 0.16795616E-02 0.12500067E+03</pdfrwt>
<pdfrwt beam="2">  1       -4 0.55048061E-01 0.12500067E+03</pdfrwt>
<totfact> 0.67711060E+03</totfact>
</mgrwt>
</event>
<event>
 5    1  0.3300771E-002  0.1250124E+03  0.7818608E-02  0.1235050E+00
          4   -1    0    0  501    0  0.00000000000E+00  0.00000000000E+00  0.40457937942E+02  0.40477866081E+02  0.12700000000E+01 0.  1.
         -4   -1    0    0    0  501 -0.00000000000E+00 -0.00000000000E+00 -0.96522200995E+02  0.96530555706E+02  0.12700000000E+01 0.  1.
         25    2    1    2    0    0  0.00000000000E+00  0.00000000000E+00 -0.56064263054E+02  0.13700842179E+03  0.12501242358E+03 0.  0.
    9000005    1    3    3    0    0  0.13837731140E+01 -0.36357409682E+02  0.27659926810E+02  0.45714851175E+02  0.10000000000E+01 0.  0.
    9000005    1    3    3    0    0 -0.13837731140E+01  0.36357409682E+02 -0.83724189864E+02  0.91293570612E+02  0.10000000000E+01 0.  0.
<mgrwt>
<rscale>  0 0.12501242E+03</rscale>
<asrwt>0</asrwt>
<pdfrwt beam="1">  1        4 0.62264738E-02 0.12501242E+03</pdfrwt>
<pdfrwt beam="2">  1       -4 0.14851745E-01 0.12501242E+03</pdfrwt>
<totfact> 0.10193054E+04</totfact>
</mgrwt>
</event>
<event>
 5    1  0.3300771E-002  0.1250005E+03  0.7818608E-02  0.1235069E+00
          4   -1    0    0  501    0  0.00000000000E+00  0.00000000000E+00  0.57212756659E+02  0.57226850555E+02  0.12700000000E+01 0. -1.
         -4   -1    0    0    0  501 -0.00000000000E+00 -0.00000000000E+00 -0.68247989251E+02  0.68259804694E+02  0.12700000000E+01 0. -1.
         25    2    1    2    0    0  0.00000000000E+00  0.00000000000E+00 -0.11035232593E+02  0.12548665525E+03  0.12500049715E+03 0.  0.
    9000005    1    3    3    0    0  0.29449255241E+02  0.51310462060E+02 -0.25726954652E+02  0.64520526553E+02  0.10000000000E+01 0.  0.
    9000005    1    3    3    0    0 -0.29449255241E+02 -0.51310462060E+02  0.14691722059E+02  0.60966128696E+02  0.10000000000E+01 0.  0.
<mgrwt>
<rscale>  0 0.12500050E+03</rscale>
<asrwt>0</asrwt>
<pdfrwt beam="1">  1        4 0.88039555E-02 0.12500050E+03</pdfrwt>
<pdfrwt beam="2">  1       -4 0.10501684E-01 0.12500050E+03</pdfrwt>
<totfact> 0.10442132E+04</totfact>
</mgrwt>
</event>
<event>
 5    1  0.3300771E-002  0.1250012E+03  0.7818608E-02  0.1235067E+00
         -4   -1    0    0    0  501 -0.00000000000E+00  0.00000000000E+00  0.34516969464E+01  0.36779222137E+01  0.12700000000E+01 0. -1.
          4   -1    0    0  501    0  0.00000000000E+00 -0.00000000000E+00 -0.10955750824E+04  0.10955758185E+04  0.12700000000E+01 0. -1.
         25    2    1    2    0    0  0.00000000000E+00  0.00000000000E+00 -0.10921233854E+04  0.10992537407E+04  0.12500118964E+03 0.  0.
    9000005    1    3    3    0    0  0.44714385998E+02  0.26461547973E+02 -0.85141993902E+03  0.85300439764E+03  0.10000000000E+01 0.  0.
    9000005    1    3    3    0    0 -0.44714385998E+02 -0.26461547973E+02 -0.24070344640E+03  0.24624934303E+03  0.10000000000E+01 0.  0.
<mgrwt>
<rscale>  0 0.12500119E+03</rscale>
<asrwt>0</asrwt>
<pdfrwt beam="2">  1        4 0.16856720E+00 0.12500119E+03</pdfrwt>
<pdfrwt beam="1">  1       -4 0.54848974E-03 0.12500119E+03</pdfrwt>
<totfact> 0.27504576E+03</totfact>
</mgrwt>
</event>
<event>
 5    1  0.3300771E-002  0.1249979E+03  0.7818608E-02  0.1235073E+00
         -4   -1    0    0    0  501 -0.00000000000E+00  0.00000000000E+00  0.54897309972E+02  0.54911998162E+02  0.12700000000E+01 0. -1.
          4   -1    0    0  501    0  0.00000000000E+00 -0.00000000000E+00 -0.71123313747E+02  0.71134651601E+02  0.12700000000E+01 0. -1.
         25    2    1    2    0    0  0.00000000000E+00  0.00000000000E+00 -0.16226003775E+02  0.12604664976E+03  0.12499789885E+03 0.  0.
    9000005    1    3    3    0    0 -0.15409617398E+01  0.43713959832E+02  0.36891415774E+02  0.57229899573E+02  0.10000000000E+01 0.  0.
    9000005    1    3    3    0    0  0.15409617398E+01 -0.43713959832E+02 -0.53117419548E+02  0.68816750190E+02  0.10000000000E+01 0.  0.
<mgrwt>
<rscale>  0 0.12499790E+03</rscale>
<asrwt>0</asrwt>
<pdfrwt beam="2">  1        4 0.10944050E-01 0.12499790E+03</pdfrwt>
<pdfrwt beam="1">  1       -4 0.84477420E-02 0.12499790E+03</pdfrwt>
<totfact> 0.10430429E+04</totfact>
</mgrwt>
</event>
<event>
 5    1  0.3300771E-002  0.1250000E+03  0.7818608E-02  0.1235069E+00
          4   -1    0    0  501    0  0.00000000000E+00  0.00000000000E+00  0.24526071066E+02  0.24558930391E+02  0.12700000000E+01 0. -1.
         -4   -1    0    0    0  501 -0.00000000000E+00 -0.00000000000E+00 -0.15912728701E+03  0.15913235488E+03  0.12700000000E+01 0. -1.
         25    2    1    2    0    0  0.00000000000E+00  0.00000000000E+00 -0.13460121594E+03  0.18369128528E+03  0.12500000381E+03 0.  0.
    9000005    1    3    3    0    0  0.44637273327E+02  0.40739428011E+02 -0.90677830760E+02  0.10897548420E+03  0.10000000000E+01 0.  0.
    9000005    1    3    3    0    0 -0.44637273327E+02 -0.40739428011E+02 -0.43923385184E+02  0.74715801078E+02  0.10000000000E+01 0.  0.
<mgrwt>
<rscale>  0 0.12500000E+03</rscale>
<asrwt>0</asrwt>
<pdfrwt beam="1">  1        4 0.37761593E-02 0.12500000E+03</pdfrwt>
<pdfrwt beam="2">  1       -4 0.24484038E-01 0.12500000E+03</pdfrwt>
<totfact> 0.92956740E+03</totfact>
</mgrwt>
</event>
<event>
 5    1  0.3300771E-002  0.1249969E+03  0.7818608E-02  0.1235074E+00
          4   -1    0    0  501    0  0.00000000000E+00  0.00000000000E+00  0.27444977206E+03  0.27445271047E+03  0.12700000000E+01 0. -1.
         -4   -1    0    0    0  501 -0.00000000000E+00 -0.00000000000E+00 -0.14200967452E+02  0.14257642743E+02  0.12700000000E+01 0. -1.
         25    2    1    2    0    0  0.00000000000E+00  0.00000000000E+00  0.26024880461E+03  0.28871035322E+03  0.12499691097E+03 0.  0.
    9000005    1    3    3    0    0  0.53669060380E+02 -0.11963478710E+02  0.61545580596E+02  0.82536969631E+02  0.10000000000E+01 0.  0.
    9000005    1    3    3    0    0 -0.53669060380E+02  0.11963478710E+02  0.19870322402E+03  0.20617338359E+03  0.10000000000E+01 0.  0.
<mgrwt>
<rscale>  0 0.12499691E+03</rscale>
<asrwt>0</asrwt>
<pdfrwt beam="1">  1        4 0.42227625E-01 0.12499691E+03</pdfrwt>
<pdfrwt beam="2">  1       -4 0.21893500E-02 0.12499691E+03</pdfrwt>
<totfact> 0.77042459E+03</totfact>
</mgrwt>
</event>
<event>
 5    1  0.3300771E-002  0.1249949E+03  0.7818608E-02  0.1235077E+00
         -4   -1    0    0    0  501 -0.00000000000E+00  0.00000000000E+00  0.30917625581E+02  0.30943698414E+02  0.12700000000E+01 0.  1.
          4   -1    0    0  501    0  0.00000000000E+00 -0.00000000000E+00 -0.12625093364E+03  0.12625732116E+03  0.12700000000E+01 0.  1.
         25    2    1    2    0    0  0.00000000000E+00  0.00000000000E+00 -0.95333308063E+02  0.15720101957E+03  0.12499488361E+03 0.  0.
    9000005    1    3    3    0    0 -0.52126450561E+02 -0.22522161351E+02 -0.14858471322E+02  0.58704248313E+02  0.10000000000E+01 0.  0.
    9000005    1    3    3    0    0  0.52126450561E+02  0.22522161351E+02 -0.80474836741E+02  0.98496771259E+02  0.10000000000E+01 0.  0.
<mgrwt>
<rscale>  0 0.12499488E+03</rscale>
<asrwt>0</asrwt>
<pdfrwt beam="2">  1        4 0.19425717E-01 0.12499488E+03</pdfrwt>
<pdfrwt beam="1">  1       -4 0.47590548E-02 0.12499488E+03</pdfrwt>
<totfact> 0.97896398E+03</totfact>
</mgrwt>
</event>
<event>
 5    1  0.3300771E-002  0.1249958E+03  0.7818608E-02  0.1235076E+00
          4   -1    0    0  501    0  0.00000000000E+00  0.00000000000E+00  0.56368235087E+02  0.56382540088E+02  0.12700000000E+01 0. -1.
         -4   -1    0    0    0  501 -0.00000000000E+00 -0.00000000000E+00 -0.69265232627E+02  0.69276874575E+02  0.12700000000E+01 0. -1.
         25    2    1    2    0    0  0.00000000000E+00  0.00000000000E+00 -0.12896997541E+02  0.12565941466E+03  0.12499582372E+03 0.  0.
    9000005    1    3    3    0    0 -0.39611083507E+02 -0.37746196852E+02  0.23897440737E+02  0.59715165471E+02  0.10000000000E+01 0.  0.
    9000005    1    3    3    0    0  0.39611083507E+02  0.37746196852E+02 -0.36794438278E+02  0.65944249193E+02  0.10000000000E+01 0.  0.
<mgrwt>
<rscale>  0 0.12499582E+03</rscale>
<asrwt>0</asrwt>
<pdfrwt beam="1">  1        4 0.86740321E-02 0.12499582E+03</pdfrwt>
<pdfrwt beam="2">  1       -4 0.10658186E-01 0.12499582E+03</pdfrwt>
<totfact> 0.10439421E+04</totfact>
</mgrwt>
</event>
<event>
 5    1  0.3300771E-002  0.1250081E+03  0.7818608E-02  0.1235057E+00
         -4   -1    0    0    0  501 -0.00000000000E+00  0.00000000000E+00  0.49022397575E+01  0.50640749046E+01  0.12700000000E+01 0. -1.
          4   -1    0    0  501    0  0.00000000000E+00 -0.00000000000E+00 -0.78383000992E+03  0.78383103878E+03  0.12700000000E+01 0. -1.
         25    2    1    2    0    0  0.00000000000E+00  0.00000000000E+00 -0.77892777016E+03  0.78889511368E+03  0.12500811678E+03 0.  0.
    9000005    1    3    3    0    0  0.40215878367E+02 -0.37683164906E+02 -0.20349262098E+03  0.21082595804E+03  0.10000000000E+01 0.  0.
    9000005    1    3    3    0    0 -0.40215878367E+02  0.37683164906E+02 -0.57543514918E+03  0.57806915564E+03  0.10000000000E+01 0.  0.
<mgrwt>
<rscale>  0 0.12500812E+03</rscale>
<asrwt>0</asrwt>
<pdfrwt beam="2">  1        4 0.12060166E+00 0.12500812E+03</pdfrwt>
<pdfrwt beam="1">  1       -4 0.76671936E-03 0.12500812E+03</pdfrwt>
<totfact> 0.38758466E+03</totfact>
</mgrwt>
</event>
<event>
 5    1  0.3300771E-002  0.1250039E+03  0.7818608E-02  0.1235063E+00
         -4   -1    0    0    0  501 -0.00000000000E+00  0.00000000000E+00  0.52744135867E+02  0.52759423503E+02  0.12700000000E+01 0. -1.
          4   -1    0    0  501    0  0.00000000000E+00 -0.00000000000E+00 -0.74033578794E+02  0.74044471022E+02  0.12700000000E+01 0. -1.
         25    2    1    2    0    0  0.00000000000E+00  0.00000000000E+00 -0.21289442927E+02  0.12680389453E+03  0.12500394908E+03 0.  0.
    9000005    1    3    3    0    0  0.36258729566E+02 -0.44314366269E+02  0.14756575466E+02  0.59137255999E+02  0.10000000000E+01 0.  0.
    9000005    1    3    3    0    0 -0.36258729566E+02  0.44314366269E+02 -0.36046018392E+02  0.67666638527E+02  0.10000000000E+01 0.  0.
<mgrwt>
<rscale>  0 0.12500395E+03</rscale>
<asrwt>0</asrwt>
<pdfrwt beam="2">  1        4 0.11391795E-01 0.12500395E+03</pdfrwt>
<pdfrwt beam="1">  1       -4 0.81164963E-02 0.12500395E+03</pdfrwt>
<totfact> 0.10412481E+04</totfact>
</mgrwt>
</event>
<event>
 5    1  0.3300771E-002  0.1249971E+03  0.7818608E-02  0.1235074E+00
          4   -1    0    0  501    0  0.00000000000E+00  0.00000000000E+00  0.41686888583E+01  0.43578511674E+01  0.12700000000E+01 0.  1.
         -4   -1    0    0    0  501 -0.00000000000E+00 -0.00000000000E+00 -0.91602535126E+03  0.91602623164E+03  0.12700000000E+01 0.  1.
         25    2    1    2    0    0  0.00000000000E+00  0.00000000000E+00 -0.91185666240E+03  0.92038408281E+03  0.12499714844E+03 0.  0.
    9000005    1    3    3    0    0 -0.16539955567E+02 -0.59012406880E+02 -0.36603722021E+03  0.37113377760E+03  0.10000000000E+01 0.  0.
    9000005    1    3    3    0    0  0.16539955567E+02  0.59012406880E+02 -0.54581944220E+03  0.54925030521E+03  0.10000000000E+01 0.  0.
<mgrwt>
<rscale>  0 0.12499715E+03</rscale>
<asrwt>0</asrwt>
<pdfrwt beam="1">  1        4 0.65595614E-03 0.12499715E+03</pdfrwt>
<pdfrwt beam="2">  1       -4 0.14094144E+00 0.12499715E+03</pdfrwt>
<totfact> 0.33393426E+03</totfact>
</mgrwt>
</event>
<event>
 5    1  0.3300771E-002  0.1250027E+03  0.7818608E-02  0.1235065E+00
         -4   -1    0    0    0  501 -0.00000000000E+00  0.00000000000E+00  0.58545912798E+03  0.58546050544E+03  0.12700000000E+01 0.  1.
          4   -1    0    0  501    0  0.00000000000E+00 -0.00000000000E+00 -0.66105739026E+01  0.67314624950E+01  0.12700000000E+01 0.  1.
         25    2    1    2    0    0  0.00000000000E+00  0.00000000000E+00  0.57884855408E+03  0.59219196794E+03  0.12500271331E+03 0.  0.
    9000005    1    3    3    0    0 -0.14920412664E+02  0.57721258387E+02  0.37818728580E+03  0.38285896297E+03  0.10000000000E+01 0.  0.
    9000005    1    3    3    0    0  0.14920412664E+02 -0.57721258387E+02  0.20066126828E+03  0.20933300497E+03  0.10000000000E+01 0.  0.
<mgrwt>
<rscale>  0 0.12500271E+03</rscale>
<asrwt>0</asrwt>
<pdfrwt beam="2">  1        4 0.10264167E-02 0.12500271E+03</pdfrwt>
<pdfrwt beam="1">  1       -4 0.90080018E-01 0.12500271E+03</pdfrwt>
<totfact> 0.49361286E+03</totfact>
</mgrwt>
</event>
<event>
 5    1  0.3300771E-002  0.1250029E+03  0.7818608E-02  0.1235065E+00
          4   -1    0    0  501    0  0.00000000000E+00  0.00000000000E+00  0.22757989167E+03  0.22758343524E+03  0.12700000000E+01 0. -1.
         -4   -1    0    0    0  501 -0.00000000000E+00 -0.00000000000E+00 -0.17137932931E+02  0.17184924939E+02  0.12700000000E+01 0. -1.
         25    2    1    2    0    0  0.00000000000E+00  0.00000000000E+00  0.21044195874E+03  0.24476836018E+03  0.12500292854E+03 0.  0.
    9000005    1    3    3    0    0 -0.17025225783E+01  0.19900887062E+02 -0.10729177394E+02  0.22694914332E+02  0.10000000000E+01 0.  0.
    9000005    1    3    3    0    0  0.17025225783E+01 -0.19900887062E+02  0.22117113614E+03  0.22207344584E+03  0.10000000000E+01 0.  0.
<mgrwt>
<rscale>  0 0.12500293E+03</rscale>
<asrwt>0</asrwt>
<pdfrwt beam="1">  1        4 0.35016178E-01 0.12500293E+03</pdfrwt>
<pdfrwt beam="2">  1       -4 0.26404924E-02 0.12500293E+03</pdfrwt>
<totfact> 0.83086868E+03</totfact>
</mgrwt>
</event>
<event>
 4    1  0.3300771E-002  0.1251028E+03  0.7818608E-02  0.1234909E+00
         -4   -1    0    0    0  501 -0.00000000000E+00  0.00000000000E+00  0.56263221853E+03  0.56263365188E+03  0.12700000000E+01 0.  1.
          4   -1    0    0  501    0  0.00000000000E+00 -0.00000000000E+00 -0.68948035689E+01  0.70107928406E+01  0.12700000000E+01 0.  1.
    9000005    1    1    2    0    0 -0.51040440889E+02  0.10678166455E+02  0.12062569367E+03  0.13141806504E+03  0.10000000000E+01 0.  0.
    9000005    1    1    2    0    0  0.51040440889E+02 -0.10678166455E+02  0.43511172128E+03  0.43822637968E+03  0.10000000000E+01 0.  0.
<mgrwt>
<rscale>  0 0.12510283E+03</rscale>
<asrwt>0</asrwt>
<pdfrwt beam="2">  1        4 0.10697718E-02 0.12510283E+03</pdfrwt>
<pdfrwt beam="1">  1       -4 0.86567813E-01 0.12510283E+03</pdfrwt>
<totfact> 0.50727022E+03</totfact>
</mgrwt>
</event>
<event>
 5    1  0.3300771E-002  0.1250017E+03  0.7818608E-02  0.1235067E+00
          4   -1    0    0  501    0  0.00000000000E+00  0.00000000000E+00  0.19620880174E+03  0.19621291185E+03  0.12700000000E+01 0. -1.
         -4   -1    0    0    0  501 -0.00000000000E+00 -0.00000000000E+00 -0.19884595316E+02  0.19925110562E+02  0.12700000000E+01 0. -1.
         25    2    1    2    0    0  0.00000000000E+00  0.00000000000E+00  0.17632420642E+03  0.21613802242E+03  0.12500167585E+03 0.  0.
    9000005    1    3    3    0    0  0.53964973049E+02  0.31513985703E+02  0.88285948307E+02  0.10817004336E+03  0.10000000000E+01 0.  0.
    9000005    1    3    3    0    0 -0.53964973049E+02 -0.31513985703E+02  0.88038258113E+02  0.10796797906E+03  0.10000000000E+01 0.  0.
<mgrwt>
<rscale>  0 0.12500168E+03</rscale>
<asrwt>0</asrwt>
<pdfrwt beam="1">  1        4 0.30189403E-01 0.12500168E+03</pdfrwt>
<pdfrwt beam="2">  1       -4 0.30626012E-02 0.12500168E+03</pdfrwt>
<totfact> 0.87479893E+03</totfact>
</mgrwt>
</event>
<event>
 5    1  0.3300771E-002  0.1249930E+03  0.7818608E-02  0.1235080E+00
          4   -1    0    0  501    0  0.00000000000E+00  0.00000000000E+00  0.37110182133E+02  0.37131907007E+02  0.12700000000E+01 0.  1.
         -4   -1    0    0    0  501 -0.00000000000E+00 -0.00000000000E+00 -0.10519273301E+03  0.10520039914E+03  0.12700000000E+01 0.  1.
         25    2    1    2    0    0  0.00000000000E+00  0.00000000000E+00 -0.68082550878E+02  0.14233230614E+03  0.12499300636E+03 0.  0.
    9000005    1    3    3    0    0  0.59816291964E+02 -0.74799807708E+01 -0.15299900772E+02  0.62201494036E+02  0.10000000000E+01 0.  0.
    9000005    1    3    3    0    0 -0.59816291964E+02  0.74799807708E+01 -0.52782650106E+02  0.80130812107E+02  0.10000000000E+01 0.  0.
<mgrwt>
<rscale>  0 0.12499301E+03</rscale>
<asrwt>0</asrwt>
<pdfrwt beam="1">  1        4 0.57115197E-02 0.12499301E+03</pdfrwt>
<pdfrwt beam="2">  1       -4 0.16185758E-01 0.12499301E+03</pdfrwt>
<totfact> 0.10087063E+04</totfact>
</mgrwt>
</event>
<event>
 5    1  0.3300771E-002  0.1249993E+03  0.7818608E-02  0.1235070E+00
          4   -1    0    0  501    0  0.00000000000E+00  0.00000000000E+00  0.23992647602E+02  0.24026236471E+02  0.12700000000E+01 0.  1.
         -4   -1    0    0    0  501 -0.00000000000E+00 -0.00000000000E+00 -0.16265839361E+03  0.16266335147E+03  0.12700000000E+01 0.  1.
         25    2    1    2    0    0  0.00000000000E+00  0.00000000000E+00 -0.13866574601E+03  0.18668958794E+03  0.12499925252E+03 0.  0.
    9000005    1    3    3    0    0  0.58469994121E+02  0.89893263905E+01 -0.39251951163E+02  0.71001858226E+02  0.10000000000E+01 0.  0.
    9000005    1    3    3    0    0 -0.58469994121E+02 -0.89893263905E+01 -0.99413794847E+02  0.11568772972E+03  0.10000000000E+01 0.  0.
<mgrwt>
<rscale>  0 0.12499925E+03</rscale>
<asrwt>0</asrwt>
<pdfrwt beam="1">  1        4 0.36941418E-02 0.12499925E+03</pdfrwt>
<pdfrwt beam="2">  1       -4 0.25027333E-01 0.12499925E+03</pdfrwt>
<totfact> 0.92428075E+03</totfact>
</mgrwt>
</event>
<event>
 5    1  0.3300771E-002  0.1250007E+03  0.7818608E-02  0.1235068E+00
          4   -1    0    0  501    0  0.00000000000E+00  0.00000000000E+00  0.52916120588E+02  0.52931358551E+02  0.12700000000E+01 0.  1.
         -4   -1    0    0    0  501 -0.00000000000E+00 -0.00000000000E+00 -0.73789170498E+02  0.73800098799E+02  0.12700000000E+01 0.  1.
         25    2    1    2    0    0  0.00000000000E+00  0.00000000000E+00 -0.20873049910E+02  0.12673145735E+03  0.12500071228E+03 0.  0.
    9000005    1    3    3    0    0 -0.55561423505E+02 -0.28029242433E+02 -0.16223827231E+02  0.64318914662E+02  0.10000000000E+01 0.  0.
    9000005    1    3    3    0    0  0.55561423505E+02  0.28029242433E+02 -0.46492226786E+01  0.62412542688E+02  0.10000000000E+01 0.  0.
<mgrwt>
<rscale>  0 0.12500071E+03</rscale>
<asrwt>0</asrwt>
<pdfrwt beam="1">  1        4 0.81429544E-02 0.12500071E+03</pdfrwt>
<pdfrwt beam="2">  1       -4 0.11354193E-01 0.12500071E+03</pdfrwt>
<totfact> 0.10414818E+04</totfact>
</mgrwt>
</event>
<event>
 5    1  0.3300771E-002  0.1249968E+03  0.7818608E-02  0.1235074E+00
         -4   -1    0    0    0  501 -0.00000000000E+00  0.00000000000E+00  0.24748383070E+01  0.27816765890E+01  0.12700000000E+01 0. -1.
          4   -1    0    0  501    0  0.00000000000E+00 -0.00000000000E+00 -0.14858684660E+04  0.14858690088E+04  0.12700000000E+01 0. -1.
         25    2    1    2    0    0  0.00000000000E+00  0.00000000000E+00 -0.14833936277E+04  0.14886506854E+04  0.12499683304E+03 0.  0.
    9000005    1    3    3    0    0 -0.10868215316E+02 -0.26481197858E+02 -0.14032568214E+04  0.14035491009E+04  0.10000000000E+01 0.  0.
    9000005    1    3    3    0    0  0.10868215316E+02  0.26481197858E+02 -0.80136806330E+02  0.85101584433E+02  0.10000000000E+01 0.  0.
<mgrwt>
<rscale>  0 0.12499683E+03</rscale>
<asrwt>0</asrwt>
<pdfrwt beam="2">  1        4 0.22861812E+00 0.12499683E+03</pdfrwt>
<pdfrwt beam="1">  1       -4 0.40439024E-03 0.12499683E+03</pdfrwt>
<totfact> 0.18156027E+03</totfact>
</mgrwt>
</event>
<event>
 5    1  0.3300771E-002  0.1249911E+03  0.7818608E-02  0.1235083E+00
         -4   -1    0    0    0  501 -0.00000000000E+00  0.00000000000E+00  0.15794250873E+03  0.15794761462E+03  0.12700000000E+01 0.  1.
          4   -1    0    0  501    0  0.00000000000E+00 -0.00000000000E+00 -0.24706761453E+02  0.24739380782E+02  0.12700000000E+01 0.  1.
         25    2    1    2    0    0  0.00000000000E+00  0.00000000000E+00  0.13323574728E+03  0.18268699540E+03  0.12499109543E+03 0.  0.
    9000005    1    3    3    0    0 -0.14204293497E+02 -0.58365010700E+02  0.41452148153E+02  0.72989841857E+02  0.10000000000E+01 0.  0.
    9000005    1    3    3    0    0  0.14204293497E+02  0.58365010700E+02  0.91783599126E+02  0.10969715355E+03  0.10000000000E+01 0.  0.
<mgrwt>
<rscale>  0 0.12499110E+03</rscale>
<asrwt>0</asrwt>
<pdfrwt beam="2">  1        4 0.38039422E-02 0.12499110E+03</pdfrwt>
<pdfrwt beam="1">  1       -4 0.24301749E-01 0.12499110E+03</pdfrwt>
<totfact> 0.93154151E+03</totfact>
</mgrwt>
</event>
<event>
 5    1  0.3300771E-002  0.1249930E+03  0.7818608E-02  0.1235080E+00
         -4   -1    0    0    0  501 -0.00000000000E+00  0.00000000000E+00  0.11275829728E+03  0.11276544907E+03  0.12700000000E+01 0.  1.
          4   -1    0    0  501    0  0.00000000000E+00 -0.00000000000E+00 -0.34618902737E+02  0.34642189982E+02  0.12700000000E+01 0.  1.
         25    2    1    2    0    0  0.00000000000E+00  0.00000000000E+00  0.78139394539E+02  0.14740763906E+03  0.12499298810E+03 0.  0.
    9000005    1    3    3    0    0  0.19322523563E+02 -0.27043432988E+02  0.10147499596E+03  0.10678427782E+03  0.10000000000E+01 0.  0.
    9000005    1    3    3    0    0 -0.19322523563E+02  0.27043432988E+02 -0.23335601418E+02  0.40623361237E+02  0.10000000000E+01 0.  0.
<mgrwt>
<rscale>  0 0.12499299E+03</rscale>
<asrwt>0</asrwt>
<pdfrwt beam="2">  1        4 0.53283266E-02 0.12499299E+03</pdfrwt>
<pdfrwt beam="1">  1       -4 0.17349772E-01 0.12499299E+03</pdfrwt>
<totfact> 0.99838738E+03</totfact>
</mgrwt>
</event>
<event>
 5    1  0.3300771E-002  0.1250009E+03  0.7818608E-02  0.1235068E+00
         -4   -1    0    0    0  501 -0.00000000000E+00  0.00000000000E+00  0.39692815799E+02  0.39713127880E+02  0.12700000000E+01 0.  1.
          4   -1    0    0  501    0  0.00000000000E+00 -0.00000000000E+00 -0.98363920597E+02  0.98372118891E+02  0.12700000000E+01 0.  1.
         25    2    1    2    0    0  0.00000000000E+00  0.00000000000E+00 -0.58671104798E+02  0.13808524677E+03  0.12500094735E+03 0.  0.
    9000005    1    3    3    0    0  0.31279584497E+02  0.43737426162E+02  0.58398355049E+01  0.54096936441E+02  0.10000000000E+01 0.  0.
    9000005    1    3    3    0    0 -0.31279584497E+02 -0.43737426162E+02 -0.64510940303E+02  0.83988310331E+02  0.10000000000E+01 0.  0.
<mgrwt>
<rscale>  0 0.12500095E+03</rscale>
<asrwt>0</asrwt>
<pdfrwt beam="2">  1        4 0.15135104E-01 0.12500095E+03</pdfrwt>
<pdfrwt beam="1">  1       -4 0.61087802E-02 0.12500095E+03</pdfrwt>
<totfact> 0.10173208E+04</totfact>
</mgrwt>
</event>
<event>
 5    1  0.3300771E-002  0.1250060E+03  0.7818608E-02  0.1235060E+00
          4   -1    0    0  501    0  0.00000000000E+00  0.00000000000E+00  0.11015070534E+04  0.11015077856E+04  0.12700000000E+01 0. -1.
         -4   -1    0    0    0  501 -0.00000000000E+00 -0.00000000000E+00 -0.34321664010E+01  0.36595991863E+01  0.12700000000E+01 0. -1.
         25    2    1    2    0    0  0.00000000000E+00  0.00000000000E+00  0.10980748870E+04  0.11051673847E+04  0.12500596302E+03 0.  0.
    9000005    1    3    3    0    0  0.35419937680E+02  0.33411600221E+01  0.10032823100E+04  0.10039134071E+04  0.10000000000E+01 0.  0.
    9000005    1    3    3    0    0 -0.35419937680E+02 -0.33411600221E+01  0.94792576981E+02  0.10125397763E+03  0.10000000000E+01 0.  0.
<mgrwt>
<rscale>  0 0.12500596E+03</rscale>
<asrwt>0</asrwt>
<pdfrwt beam="1">  1        4 0.16948021E+00 0.12500596E+03</pdfrwt>
<pdfrwt beam="2">  1       -4 0.54557662E-03 0.12500596E+03</pdfrwt>
<totfact> 0.27329085E+03</totfact>
</mgrwt>
</event>
<event>
 5    1  0.3300771E-002  0.1250004E+03  0.7818608E-02  0.1235069E+00
          4   -1    0    0  501    0  0.00000000000E+00  0.00000000000E+00  0.55125636595E+03  0.55125782888E+03  0.12700000000E+01 0. -1.
         -4   -1    0    0    0  501 -0.00000000000E+00 -0.00000000000E+00 -0.70277430073E+01  0.71415734804E+01  0.12700000000E+01 0. -1.
         25    2    1    2    0    0  0.00000000000E+00  0.00000000000E+00  0.54422862294E+03  0.55839940236E+03  0.12500039410E+03 0.  0.
    9000005    1    3    3    0    0  0.18218359312E+02 -0.57436523957E+02  0.34611485324E+03  0.35132229438E+03  0.10000000000E+01 0.  0.
    9000005    1    3    3    0    0 -0.18218359312E+02  0.57436523957E+02  0.19811376971E+03  0.20707710798E+03  0.10000000000E+01 0.  0.
<mgrwt>
<rscale>  0 0.12500039E+03</rscale>
<asrwt>0</asrwt>
<pdfrwt beam="1">  1        4 0.84817567E-01 0.12500039E+03</pdfrwt>
<pdfrwt beam="2">  1       -4 0.10900596E-02 0.12500039E+03</pdfrwt>
<totfact> 0.51602999E+03</totfact>
</mgrwt>
</event>
<event>
 5    1  0.3300771E-002  0.1249986E+03  0.7818608E-02  0.1235072E+00
          4   -1    0    0  501    0  0.00000000000E+00  0.00000000000E+00  0.55390519396E+01  0.56827806916E+01  0.12700000000E+01 0.  1.
         -4   -1    0    0    0  501 -0.00000000000E+00 -0.00000000000E+00 -0.69602739600E+03  0.69602855464E+03  0.12700000000E+01 0.  1.
         25    2    1    2    0    0  0.00000000000E+00  0.00000000000E+00 -0.69048834406E+03  0.70171133533E+03  0.12499857942E+03 0.  0.
    9000005    1    3    3    0    0  0.11088380160E+02  0.51713760084E+02 -0.53209839747E+03  0.53472139451E+03  0.10000000000E+01 0.  0.
    9000005    1    3    3    0    0 -0.11088380160E+02 -0.51713760084E+02 -0.15838994658E+03  0.16698994082E+03  0.10000000000E+01 0.  0.
<mgrwt>
<rscale>  0 0.12499858E+03</rscale>
<asrwt>0</asrwt>
<pdfrwt beam="1">  1        4 0.86330757E-03 0.12499858E+03</pdfrwt>
<pdfrwt beam="2">  1       -4 0.10709221E+00 0.12499858E+03</pdfrwt>
<totfact> 0.42997865E+03</totfact>
</mgrwt>
</event>
<event>
 5    1  0.3300771E-002  0.1249983E+03  0.7818608E-02  0.1235072E+00
          4   -1    0    0  501    0  0.00000000000E+00  0.00000000000E+00  0.10382588147E+02  0.10459973070E+02  0.12700000000E+01 0.  1.
         -4   -1    0    0    0  501 -0.00000000000E+00 -0.00000000000E+00 -0.37474546300E+03  0.37474761498E+03  0.12700000000E+01 0.  1.
         25    2    1    2    0    0  0.00000000000E+00  0.00000000000E+00 -0.36436287485E+03  0.38520758805E+03  0.12499832529E+03 0.  0.
    9000005    1    3    3    0    0 -0.10814525608E+02  0.60949933599E+02 -0.20856501138E+03  0.21755967535E+03  0.10000000000E+01 0.  0.
    9000005    1    3    3    0    0  0.10814525608E+02 -0.60949933599E+02 -0.15579786347E+03  0.16764791270E+03  0.10000000000E+01 0.  0.
<mgrwt>
<rscale>  0 0.12499833E+03</rscale>
<asrwt>0</asrwt>
<pdfrwt beam="1">  1        4 0.16034398E-02 0.12499833E+03</pdfrwt>
<pdfrwt beam="2">  1       -4 0.57659256E-01 0.12499833E+03</pdfrwt>
<totfact> 0.66019813E+03</totfact>
</mgrwt>
</event>
<event>
 5    1  0.3300771E-002  0.1250021E+03  0.7818608E-02  0.1235066E+00
         -4   -1    0    0    0  501 -0.00000000000E+00  0.00000000000E+00  0.29328289131E+02  0.29355773595E+02  0.12700000000E+01 0.  1.
          4   -1    0    0  501    0  0.00000000000E+00 -0.00000000000E+00 -0.13310213177E+03  0.13310819052E+03  0.12700000000E+01 0.  1.
         25    2    1    2    0    0  0.00000000000E+00  0.00000000000E+00 -0.10377384264E+03  0.16246396411E+03  0.12500211686E+03 0.  0.
    9000005    1    3    3    0    0 -0.43393331394E+01 -0.41263100981E+02  0.88505834457E+01  0.42435906283E+02  0.10000000000E+01 0.  0.
    9000005    1    3    3    0    0  0.43393331394E+01  0.41263100981E+02 -0.11262442609E+03  0.12002805783E+03  0.10000000000E+01 0.  0.
<mgrwt>
<rscale>  0 0.12500212E+03</rscale>
<asrwt>0</asrwt>
<pdfrwt beam="2">  1        4 0.20479831E-01 0.12500212E+03</pdfrwt>
<pdfrwt beam="1">  1       -4 0.45146248E-02 0.12500212E+03</pdfrwt>
<totfact> 0.96865237E+03</totfact>
</mgrwt>
</event>
<event>
 5    1  0.3300771E-002  0.1249984E+03  0.7818608E-02  0.1235072E+00
          4   -1    0    0  501    0  0.00000000000E+00  0.00000000000E+00  0.37330560957E+01  0.39431723033E+01  0.12700000000E+01 0.  1.
         -4   -1    0    0    0  501 -0.00000000000E+00 -0.00000000000E+00 -0.10175159261E+04  0.10175167186E+04  0.12700000000E+01 0.  1.
         25    2    1    2    0    0  0.00000000000E+00  0.00000000000E+00 -0.10137828700E+04  0.10214598909E+04  0.12499840538E+03 0.  0.
    9000005    1    3    3    0    0 -0.18523790209E+02 -0.57496906936E+02 -0.37611092623E+03  0.38093234825E+03  0.10000000000E+01 0.  0.
    9000005    1    3    3    0    0  0.18523790209E+02  0.57496906936E+02 -0.63767194372E+03  0.64052754267E+03  0.10000000000E+01 0.  0.
<mgrwt>
<rscale>  0 0.12499841E+03</rscale>
<asrwt>0</asrwt>
<pdfrwt beam="1">  1        4 0.59054088E-03 0.12499841E+03</pdfrwt>
<pdfrwt beam="2">  1       -4 0.15655692E+00 0.12499841E+03</pdfrwt>
<totfact> 0.29903972E+03</totfact>
</mgrwt>
</event>
<event>
 5    1  0.3300771E-002  0.1249981E+03  0.7818608E-02  0.1235072E+00
         -4   -1    0    0    0  501 -0.00000000000E+00  0.00000000000E+00  0.69502718241E+02  0.69514320416E+02  0.12700000000E+01 0.  1.
          4   -1    0    0  501    0  0.00000000000E+00 -0.00000000000E+00 -0.56177652419E+02  0.56192005938E+02  0.12700000000E+01 0.  1.
         25    2    1    2    0    0  0.00000000000E+00  0.00000000000E+00  0.13325065822E+02  0.12570632635E+03  0.12499809241E+03 0.  0.
    9000005    1    3    3    0    0  0.10217527220E+02  0.37227900940E+02 -0.42756677163E+02  0.57614650159E+02  0.10000000000E+01 0.  0.
    9000005    1    3    3    0    0 -0.10217527220E+02 -0.37227900940E+02  0.56081742985E+02  0.68091676195E+02  0.10000000000E+01 0.  0.
<mgrwt>
<rscale>  0 0.12499809E+03</rscale>
<asrwt>0</asrwt>
<pdfrwt beam="2">  1        4 0.86447124E-02 0.12499809E+03</pdfrwt>
<pdfrwt beam="1">  1       -4 0.10694722E-01 0.12499809E+03</pdfrwt>
<totfact> 0.10437854E+04</totfact>
</mgrwt>
</event>
<event>
 5    1  0.3300771E-002  0.1249995E+03  0.7818608E-02  0.1235070E+00
          4   -1    0    0  501    0  0.00000000000E+00  0.00000000000E+00  0.29627277504E+01  0.32234540051E+01  0.12700000000E+01 0.  1.
         -4   -1    0    0    0  501 -0.00000000000E+00 -0.00000000000E+00 -0.12626237970E+04  0.12626244357E+04  0.12700000000E+01 0.  1.
         25    2    1    2    0    0  0.00000000000E+00  0.00000000000E+00 -0.12596610692E+04  0.12658478897E+04  0.12499948204E+03 0.  0.
    9000005    1    3    3    0    0  0.29008880920E+02  0.46658667376E+02 -0.93137725757E+03  0.93299686084E+03  0.10000000000E+01 0.  0.
    9000005    1    3    3    0    0 -0.29008880920E+02 -0.46658667376E+02 -0.32828381166E+03  0.33285102886E+03  0.10000000000E+01 0.  0.
<mgrwt>
<rscale>  0 0.12499948E+03</rscale>
<asrwt>0</asrwt>
<pdfrwt beam="1">  1        4 0.47591027E-03 0.12499948E+03</pdfrwt>
<pdfrwt beam="2">  1       -4 0.19426951E+00 0.12499948E+03</pdfrwt>
<totfact> 0.23049517E+03</totfact>
</mgrwt>
</event>
<event>
 5    1  0.3300771E-002  0.1249998E+03  0.7818608E-02  0.1235070E+00
         -4   -1    0    0    0  501 -0.00000000000E+00  0.00000000000E+00  0.29189750046E+01  0.31832868356E+01  0.12700000000E+01 0.  1.
          4   -1    0    0  501    0  0.00000000000E+00 -0.00000000000E+00 -0.12799937436E+04  0.12799943736E+04  0.12700000000E+01 0.  1.
         25    2    1    2    0    0  0.00000000000E+00  0.00000000000E+00 -0.12770747686E+04  0.12831776605E+04  0.12499977506E+03 0.  0.
    9000005    1    3    3    0    0 -0.36779353323E+02 -0.44252085389E+02 -0.38829045954E+03  0.39253209914E+03  0.10000000000E+01 0.  0.
    9000005    1    3    3    0    0  0.36779353323E+02  0.44252085389E+02 -0.88878430905E+03  0.89064556132E+03  0.10000000000E+01 0.  0.
<mgrwt>
<rscale>  0 0.12499978E+03</rscale>
<asrwt>0</asrwt>
<pdfrwt beam="2">  1        4 0.19694207E+00 0.12499978E+03</pdfrwt>
<pdfrwt beam="1">  1       -4 0.46945424E-03 0.12499978E+03</pdfrwt>
<totfact> 0.22629245E+03</totfact>
</mgrwt>
</event>
<event>
 5    1  0.3300771E-002  0.1249966E+03  0.7818608E-02  0.1235075E+00
          4   -1    0    0  501    0  0.00000000000E+00  0.00000000000E+00  0.15256774116E+02  0.15309541353E+02  0.12700000000E+01 0.  1.
         -4   -1    0    0    0  501 -0.00000000000E+00 -0.00000000000E+00 -0.25552353987E+03  0.25552669592E+03  0.12700000000E+01 0.  1.
         25    2    1    2    0    0  0.00000000000E+00  0.00000000000E+00 -0.24026676575E+03  0.27083623727E+03  0.12499659473E+03 0.  0.
    9000005    1    3    3    0    0  0.26324750390E+02  0.30232023661E+02 -0.22400339041E+03  0.22756424731E+03  0.10000000000E+01 0.  0.
    9000005    1    3    3    0    0 -0.26324750390E+02 -0.30232023661E+02 -0.16263375342E+02  0.43271989962E+02  0.10000000000E+01 0.  0.
<mgrwt>
<rscale>  0 0.12499659E+03</rscale>
<asrwt>0</asrwt>
<pdfrwt beam="1">  1        4 0.23514980E-02 0.12499659E+03</pdfrwt>
<pdfrwt beam="2">  1       -4 0.39315612E-01 0.12499659E+03</pdfrwt>
<totfact> 0.79415012E+03</totfact>
</mgrwt>
</event>
<event>
 5    1  0.3300771E-002  0.1250005E+03  0.7818608E-02  0.1235068E+00
         -4   -1    0    0    0  501 -0.00000000000E+00  0.00000000000E+00  0.17375729132E+02  0.17422079751E+02  0.12700000000E+01 0. -1.
          4   -1    0    0  501    0  0.00000000000E+00 -0.00000000000E+00 -0.22446493531E+03  0.22446852804E+03  0.12700000000E+01 0. -1.
         25    2    1    2    0    0  0.00000000000E+00  0.00000000000E+00 -0.20708920618E+03  0.24189060780E+03  0.12500050730E+03 0.  0.
    9000005    1    3    3    0    0  0.33906751527E+02 -0.41321199179E+02 -0.40894240137E+02  0.67308604035E+02  0.10000000000E+01 0.  0.
    9000005    1    3    3    0    0 -0.33906751527E+02  0.41321199179E+02 -0.16619496604E+03  0.17458200376E+03  0.10000000000E+01 0.  0.
<mgrwt>
<rscale>  0 0.12500051E+03</rscale>
<asrwt>0</asrwt>
<pdfrwt beam="2">  1        4 0.34536907E-01 0.12500051E+03</pdfrwt>
<pdfrwt beam="1">  1       -4 0.26770311E-02 0.12500051E+03</pdfrwt>
<totfact> 0.83515655E+03</totfact>
</mgrwt>
</event>
<event>
 5    1  0.3300771E-002  0.1250013E+03  0.7818608E-02  0.1235067E+00
          4   -1    0    0  501    0  0.00000000000E+00  0.00000000000E+00  0.21991815531E+02  0.22028455469E+02  0.12700000000E+01 0. -1.
         -4   -1    0    0    0  501 -0.00000000000E+00 -0.00000000000E+00 -0.17743987390E+03  0.17744441876E+03  0.12700000000E+01 0. -1.
         25    2    1    2    0    0  0.00000000000E+00  0.00000000000E+00 -0.15544805836E+03  0.19947287423E+03  0.12500131480E+03 0.  0.
    9000005    1    3    3    0    0  0.19007305277E+01 -0.27419051487E+02  0.11836918983E+02  0.29942107675E+02  0.10000000000E+01 0.  0.
    9000005    1    3    3    0    0 -0.19007305277E+01  0.27419051487E+02 -0.16728497735E+03  0.16953076655E+03  0.10000000000E+01 0.  0.
<mgrwt>
<rscale>  0 0.12500131E+03</rscale>
<asrwt>0</asrwt>
<pdfrwt beam="1">  1        4 0.33865244E-02 0.12500131E+03</pdfrwt>
<pdfrwt beam="2">  1       -4 0.27301609E-01 0.12500131E+03</pdfrwt>
<totfact> 0.90221832E+03</totfact>
</mgrwt>
</event>
<event>
 5    1  0.3300771E-002  0.1249982E+03  0.7818608E-02  0.1235072E+00
          4   -1    0    0  501    0  0.00000000000E+00  0.00000000000E+00  0.87045146188E+02  0.87054410428E+02  0.12700000000E+01 0.  1.
         -4   -1    0    0    0  501 -0.00000000000E+00 -0.00000000000E+00 -0.44854238949E+02  0.44872214695E+02  0.12700000000E+01 0.  1.
         25    2    1    2    0    0  0.00000000000E+00  0.00000000000E+00  0.42190907239E+02  0.13192662512E+03  0.12499824704E+03 0.  0.
    9000005    1    3    3    0    0  0.12541210022E+02  0.11857565744E+02 -0.42294006080E+02  0.45690992159E+02  0.10000000000E+01 0.  0.
    9000005    1    3    3    0    0 -0.12541210022E+02 -0.11857565744E+02  0.84484913319E+02  0.86235632964E+02  0.10000000000E+01 0.  0.
<mgrwt>
<rscale>  0 0.12499825E+03</rscale>
<asrwt>0</asrwt>
<pdfrwt beam="1">  1        4 0.13393656E-01 0.12499825E+03</pdfrwt>
<pdfrwt beam="2">  1       -4 0.69027475E-02 0.12499825E+03</pdfrwt>
<totfact> 0.10303672E+04</totfact>
</mgrwt>
</event>
<event>
 5    1  0.3300771E-002  0.1249991E+03  0.7818608E-02  0.1235071E+00
         -4   -1    0    0    0  501 -0.00000000000E+00  0.00000000000E+00  0.44578294361E+03  0.44578475267E+03  0.12700000000E+01 0. -1.
          4   -1    0    0  501    0  0.00000000000E+00 -0.00000000000E+00 -0.87146927087E+01  0.88067456536E+01  0.12700000000E+01 0. -1.
         25    2    1    2    0    0  0.00000000000E+00  0.00000000000E+00  0.43706825090E+03  0.45459149832E+03  0.12499909761E+03 0.  0.
    9000005    1    3    3    0    0  0.26034660464E+02  0.20437876896E+02  0.25762498693E+02  0.41954936497E+02  0.10000000000E+01 0.  0.
    9000005    1    3    3    0    0 -0.26034660464E+02 -0.20437876896E+02  0.41130575220E+03  0.41263656182E+03  0.10000000000E+01 0.  0.
<mgrwt>
<rscale>  0 0.12499910E+03</rscale>
<asrwt>0</asrwt>
<pdfrwt beam="2">  1        4 0.13479420E-02 0.12499910E+03</pdfrwt>
<pdfrwt beam="1">  1       -4 0.68589216E-01 0.12499910E+03</pdfrwt>
<totfact> 0.59569267E+03</totfact>
</mgrwt>
</event>
<event>
 5    1  0.3300771E-002  0.1250007E+03  0.7818608E-02  0.1235068E+00
         -4   -1    0    0    0  501 -0.00000000000E+00  0.00000000000E+00  0.18987866514E+03  0.18988291228E+03  0.12700000000E+01 0.  1.
          4   -1    0    0  501    0  0.00000000000E+00 -0.00000000000E+00 -0.20548493428E+02  0.20587702207E+02  0.12700000000E+01 0.  1.
         25    2    1    2    0    0  0.00000000000E+00  0.00000000000E+00  0.16933017171E+03  0.21047061448E+03  0.12500069004E+03 0.  0.
    9000005    1    3    3    0    0 -0.13009601331E+02 -0.18821304345E+02  0.18258096795E+03  0.18401168735E+03  0.10000000000E+01 0.  0.
    9000005    1    3    3    0    0  0.13009601331E+02  0.18821304345E+02 -0.13250796240E+02  0.26458927133E+02  0.10000000000E+01 0.  0.
<mgrwt>
<rscale>  0 0.12500069E+03</rscale>
<asrwt>0</asrwt>
<pdfrwt beam="2">  1        4 0.31646494E-02 0.12500069E+03</pdfrwt>
<pdfrwt beam="1">  1       -4 0.29215446E-01 0.12500069E+03</pdfrwt>
<totfact> 0.88397716E+03</totfact>
</mgrwt>
</event>
<event>
 5    1  0.3300771E-002  0.1250002E+03  0.7818608E-02  0.1235069E+00
         -4   -1    0    0    0  501 -0.00000000000E+00  0.00000000000E+00  0.20487440748E+03  0.20487834375E+03  0.12700000000E+01 0.  1.
          4   -1    0    0  501    0  0.00000000000E+00 -0.00000000000E+00 -0.19041332694E+02  0.19083638300E+02  0.12700000000E+01 0.  1.
         25    2    1    2    0    0  0.00000000000E+00  0.00000000000E+00  0.18583307478E+03  0.22396198205E+03  0.12500015089E+03 0.  0.
    9000005    1    3    3    0    0 -0.51895780452E+02 -0.13554166516E+02  0.15037299951E+03  0.15965564958E+03  0.10000000000E+01 0.  0.
    9000005    1    3    3    0    0  0.51895780452E+02  0.13554166516E+02  0.35460075270E+02  0.64306332478E+02  0.10000000000E+01 0.  0.
<mgrwt>
<rscale>  0 0.12500015E+03</rscale>
<asrwt>0</asrwt>
<pdfrwt beam="2">  1        4 0.29329929E-02 0.12500015E+03</pdfrwt>
<pdfrwt beam="1">  1       -4 0.31522696E-01 0.12500015E+03</pdfrwt>
<totfact> 0.86244983E+03</totfact>
</mgrwt>
</event>
<event>
 5    1  0.3300771E-002  0.1250155E+03  0.7818608E-02  0.1235045E+00
          4   -1    0    0  501    0  0.00000000000E+00  0.00000000000E+00  0.78943157713E+02  0.78953372630E+02  0.12700000000E+01 0.  1.
         -4   -1    0    0    0  501 -0.00000000000E+00 -0.00000000000E+00 -0.49472489422E+02  0.49488787716E+02  0.12700000000E+01 0.  1.
         25    2    1    2    0    0  0.00000000000E+00  0.00000000000E+00  0.29470668290E+02  0.12844216035E+03  0.12501547210E+03 0.  0.
    9000005    1    3    3    0    0 -0.26040605309E+02  0.32519170643E+02 -0.33131475694E+02  0.53238184284E+02  0.10000000000E+01 0.  0.
    9000005    1    3    3    0    0  0.26040605309E+02 -0.32519170643E+02  0.62602143984E+02  0.75203976062E+02  0.10000000000E+01 0.  0.
<mgrwt>
<rscale>  0 0.12501547E+03</rscale>
<asrwt>0</asrwt>
<pdfrwt beam="1">  1        4 0.12147141E-01 0.12501547E+03</pdfrwt>
<pdfrwt beam="2">  1       -4 0.76131918E-02 0.12501547E+03</pdfrwt>
<totfact> 0.10374326E+04</totfact>
</mgrwt>
</event>
<event>
 5    1  0.3300771E-002  0.1249998E+03  0.7818608E-02  0.1235070E+00
         -4   -1    0    0    0  501 -0.00000000000E+00  0.00000000000E+00  0.10527751576E+03  0.10528517571E+03  0.12700000000E+01 0. -1.
          4   -1    0    0  501    0  0.00000000000E+00 -0.00000000000E+00 -0.37084303689E+02  0.37106043714E+02  0.12700000000E+01 0. -1.
         25    2    1    2    0    0  0.00000000000E+00  0.00000000000E+00  0.68193212071E+02  0.14239121943E+03  0.12499978079E+03 0.  0.
    9000005    1    3    3    0    0  0.70264173002E+01  0.56650284685E+02  0.51301406734E+01  0.57323150980E+02  0.10000000000E+01 0.  0.
    9000005    1    3    3    0    0 -0.70264173002E+01 -0.56650284685E+02  0.63063071398E+02  0.85068068446E+02  0.10000000000E+01 0.  0.
<mgrwt>
<rscale>  0 0.12499978E+03</rscale>
<asrwt>0</asrwt>
<pdfrwt beam="2">  1        4 0.57075390E-02 0.12499978E+03</pdfrwt>
<pdfrwt beam="1">  1       -4 0.16198802E-01 0.12499978E+03</pdfrwt>
<totfact> 0.10084315E+04</totfact>
</mgrwt>
</event>
<event>
 5    1  0.3300771E-002  0.1250001E+03  0.7818608E-02  0.1235069E+00
          4   -1    0    0  501    0  0.00000000000E+00  0.00000000000E+00  0.37382693552E+02  0.37404260148E+02  0.12700000000E+01 0. -1.
         -4   -1    0    0    0  501 -0.00000000000E+00 -0.00000000000E+00 -0.10443814981E+03  0.10444587132E+03  0.12700000000E+01 0. -1.
         25    2    1    2    0    0  0.00000000000E+00  0.00000000000E+00 -0.67055456256E+02  0.14185013147E+03  0.12500010233E+03 0.  0.
    9000005    1    3    3    0    0 -0.41865161887E+02  0.22179874227E+02 -0.79771603049E+02  0.92785490533E+02  0.10000000000E+01 0.  0.
    9000005    1    3    3    0    0  0.41865161887E+02 -0.22179874227E+02  0.12716146793E+02  0.49064640932E+02  0.10000000000E+01 0.  0.
<mgrwt>
<rscale>  0 0.12500010E+03</rscale>
<asrwt>0</asrwt>
<pdfrwt beam="1">  1        4 0.57534366E-02 0.12500010E+03</pdfrwt>
<pdfrwt beam="2">  1       -4 0.16069660E-01 0.12500010E+03</pdfrwt>
<totfact> 0.10095361E+04</totfact>
</mgrwt>
</event>
<event>
 5    1  0.3300771E-002  0.1250155E+03  0.7818608E-02  0.1235045E+00
         -4   -1    0    0    0  501 -0.00000000000E+00  0.00000000000E+00  0.16951450607E+03  0.16951926341E+03  0.12700000000E+01 0. -1.
          4   -1    0    0  501    0  0.00000000000E+00 -0.00000000000E+00 -0.23026901756E+02  0.23061897244E+02  0.12700000000E+01 0. -1.
         25    2    1    2    0    0  0.00000000000E+00  0.00000000000E+00  0.14648760431E+03  0.19258116065E+03  0.12501553992E+03 0.  0.
    9000005    1    3    3    0    0 -0.54748002302E+01  0.59737391554E+02  0.46222402332E+02  0.75736648095E+02  0.10000000000E+01 0.  0.
    9000005    1    3    3    0    0  0.54748002302E+01 -0.59737391554E+02  0.10026520198E+03  0.11684451256E+03  0.10000000000E+01 0.  0.
<mgrwt>
<rscale>  0 0.12501554E+03</rscale>
<asrwt>0</asrwt>
<pdfrwt beam="2">  1        4 0.35456580E-02 0.12501554E+03</pdfrwt>
<pdfrwt beam="1">  1       -4 0.26082214E-01 0.12501554E+03</pdfrwt>
<totfact> 0.91368329E+03</totfact>
</mgrwt>
</event>
<event>
 5    1  0.3300771E-002  0.1249996E+03  0.7818608E-02  0.1235070E+00
         -4   -1    0    0    0  501 -0.00000000000E+00  0.00000000000E+00  0.95396228217E+01  0.96237884214E+01  0.12700000000E+01 0. -1.
          4   -1    0    0  501    0  0.00000000000E+00 -0.00000000000E+00 -0.40758998272E+03  0.40759196130E+03  0.12700000000E+01 0. -1.
         25    2    1    2    0    0  0.00000000000E+00  0.00000000000E+00 -0.39805035990E+03  0.41721574972E+03  0.12499957119E+03 0.  0.
    9000005    1    3    3    0    0  0.84256321569E+01  0.45853252518E+01  0.70840049871E+01  0.11966604011E+02  0.10000000000E+01 0.  0.
    9000005    1    3    3    0    0 -0.84256321569E+01 -0.45853252518E+01 -0.40513436489E+03  0.40524914571E+03  0.10000000000E+01 0.  0.
<mgrwt>
<rscale>  0 0.12499957E+03</rscale>
<asrwt>0</asrwt>
<pdfrwt beam="2">  1        4 0.62712764E-01 0.12499957E+03</pdfrwt>
<pdfrwt beam="1">  1       -4 0.14742611E-02 0.12499957E+03</pdfrwt>
<totfact> 0.62912754E+03</totfact>
</mgrwt>
</event>
<event>
 5    1  0.3300771E-002  0.1250020E+03  0.7818608E-02  0.1235066E+00
         -4   -1    0    0    0  501 -0.00000000000E+00  0.00000000000E+00  0.22691861928E+03  0.22692217317E+03  0.12700000000E+01 0.  1.
          4   -1    0    0  501    0  0.00000000000E+00 -0.00000000000E+00 -0.17187749799E+02  0.17234605976E+02  0.12700000000E+01 0.  1.
         25    2    1    2    0    0  0.00000000000E+00  0.00000000000E+00  0.20973086949E+03  0.24415677915E+03  0.12500198074E+03 0.  0.
    9000005    1    3    3    0    0  0.24882559037E+02 -0.33308882337E+02  0.19599435194E+03  0.20035820268E+03  0.10000000000E+01 0.  0.
    9000005    1    3    3    0    0 -0.24882559037E+02  0.33308882337E+02  0.13736517542E+02  0.43798576472E+02  0.10000000000E+01 0.  0.
<mgrwt>
<rscale>  0 0.12500198E+03</rscale>
<asrwt>0</asrwt>
<pdfrwt beam="2">  1        4 0.26481470E-02 0.12500198E+03</pdfrwt>
<pdfrwt beam="1">  1       -4 0.34914434E-01 0.12500198E+03</pdfrwt>
<totfact> 0.83178486E+03</totfact>
</mgrwt>
</event>
<event>
 5    1  0.3300771E-002  0.1250014E+03  0.7818608E-02  0.1235067E+00
         -4   -1    0    0    0  501 -0.00000000000E+00  0.00000000000E+00  0.14667664077E+02  0.14722542902E+02  0.12700000000E+01 0.  1.
          4   -1    0    0  501    0  0.00000000000E+00 -0.00000000000E+00 -0.26576941619E+03  0.26577245057E+03  0.12700000000E+01 0.  1.
         25    2    1    2    0    0  0.00000000000E+00  0.00000000000E+00 -0.25110175211E+03  0.28049499347E+03  0.12500140579E+03 0.  0.
    9000005    1    3    3    0    0  0.38016219821E+02  0.98085381735E+00 -0.23682702642E+03  0.23986295147E+03  0.10000000000E+01 0.  0.
    9000005    1    3    3    0    0 -0.38016219821E+02 -0.98085381735E+00 -0.14274725690E+02  0.40632042001E+02  0.10000000000E+01 0.  0.
<mgrwt>
<rscale>  0 0.12500141E+03</rscale>
<asrwt>0</asrwt>
<pdfrwt beam="2">  1        4 0.40892054E-01 0.12500141E+03</pdfrwt>
<pdfrwt beam="1">  1       -4 0.22610188E-02 0.12500141E+03</pdfrwt>
<totfact> 0.78110079E+03</totfact>
</mgrwt>
</event>
<event>
 5    1  0.3300771E-002  0.1250507E+03  0.7818608E-02  0.1234990E+00
         -4   -1    0    0    0  501 -0.00000000000E+00  0.00000000000E+00  0.94094652609E+02  0.94103222843E+02  0.12700000000E+01 0.  1.
          4   -1    0    0  501    0  0.00000000000E+00 -0.00000000000E+00 -0.41527593905E+02  0.41547008985E+02  0.12700000000E+01 0.  1.
         25    2    1    2    0    0  0.00000000000E+00  0.00000000000E+00  0.52567058703E+02  0.13565023183E+03  0.12505074864E+03 0.  0.
    9000005    1    3    3    0    0  0.16144562172E+02 -0.17528997370E+02  0.88979642735E+02  0.92121058709E+02  0.10000000000E+01 0.  0.
    9000005    1    3    3    0    0 -0.16144562172E+02  0.17528997370E+02 -0.36412584032E+02  0.43529173119E+02  0.10000000000E+01 0.  0.
<mgrwt>
<rscale>  0 0.12505075E+03</rscale>
<asrwt>0</asrwt>
<pdfrwt beam="2">  1        4 0.63910133E-02 0.12505075E+03</pdfrwt>
<pdfrwt beam="1">  1       -4 0.14478253E-01 0.12505075E+03</pdfrwt>
<totfact> 0.10212692E+04</totfact>
</mgrwt>
</event>
<event>
 5    1  0.3300771E-002  0.1249855E+03  0.7818608E-02  0.1235092E+00
          4   -1    0    0  501    0  0.00000000000E+00  0.00000000000E+00  0.72565684327E+01  0.73668640152E+01  0.12700000000E+01 0. -1.
         -4   -1    0    0    0  501 -0.00000000000E+00 -0.00000000000E+00 -0.53400991435E+03  0.53401142452E+03  0.12700000000E+01 0. -1.
         25    2    1    2    0    0  0.00000000000E+00  0.00000000000E+00 -0.52675334591E+03  0.54137828854E+03  0.12498545463E+03 0.  0.
    9000005    1    3    3    0    0 -0.17151489046E+02  0.22706248595E+02 -0.50433568654E+03  0.50513882450E+03  0.10000000000E+01 0.  0.
    9000005    1    3    3    0    0  0.17151489046E+02 -0.22706248595E+02 -0.22417659374E+02  0.36239464035E+02  0.10000000000E+01 0.  0.
<mgrwt>
<rscale>  0 0.12498545E+03</rscale>
<asrwt>0</asrwt>
<pdfrwt beam="1">  1        4 0.11249960E-02 0.12498545E+03</pdfrwt>
<pdfrwt beam="2">  1       -4 0.82163941E-01 0.12498545E+03</pdfrwt>
<totfact> 0.52807898E+03</totfact>
</mgrwt>
</event>
<event>
 5    1  0.3300771E-002  0.1249896E+03  0.7818608E-02  0.1235085E+00
          4   -1    0    0  501    0  0.00000000000E+00  0.00000000000E+00  0.80267979379E+01  0.81266466107E+01  0.12700000000E+01 0.  1.
         -4   -1    0    0    0  501 -0.00000000000E+00 -0.00000000000E+00 -0.48346204225E+03  0.48346371032E+03  0.12700000000E+01 0.  1.
         25    2    1    2    0    0  0.00000000000E+00  0.00000000000E+00 -0.47543524431E+03  0.49159035693E+03  0.12498962954E+03 0.  0.
    9000005    1    3    3    0    0 -0.98324651733E+01 -0.36047073715E+02 -0.43470540029E+03  0.43630935577E+03  0.10000000000E+01 0.  0.
    9000005    1    3    3    0    0  0.98324651733E+01  0.36047073715E+02 -0.40729844022E+02  0.55281001156E+02  0.10000000000E+01 0.  0.
<mgrwt>
<rscale>  0 0.12498963E+03</rscale>
<asrwt>0</asrwt>
<pdfrwt beam="1">  1        4 0.12427013E-02 0.12498963E+03</pdfrwt>
<pdfrwt beam="2">  1       -4 0.74386562E-01 0.12498963E+03</pdfrwt>
<totfact> 0.56535710E+03</totfact>
</mgrwt>
</event>
<event>
 5    1  0.3300771E-002  0.1250007E+03  0.7818608E-02  0.1235068E+00
         -4   -1    0    0    0  501 -0.00000000000E+00  0.00000000000E+00  0.11095328344E+03  0.11096055158E+03  0.12700000000E+01 0. -1.
          4   -1    0    0  501    0  0.00000000000E+00 -0.00000000000E+00 -0.35186799214E+02  0.35209710861E+02  0.12700000000E+01 0. -1.
         25    2    1    2    0    0  0.00000000000E+00  0.00000000000E+00  0.75766484225E+02  0.14617026244E+03  0.12500074195E+03 0.  0.
    9000005    1    3    3    0    0  0.45195189853E+02 -0.42555204258E+02  0.29471539862E+02  0.68724975498E+02  0.10000000000E+01 0.  0.
    9000005    1    3    3    0    0 -0.45195189853E+02  0.42555204258E+02  0.46294944363E+02  0.77445286938E+02  0.10000000000E+01 0.  0.
<mgrwt>
<rscale>  0 0.12500074E+03</rscale>
<asrwt>0</asrwt>
<pdfrwt beam="2">  1        4 0.54156753E-02 0.12500074E+03</pdfrwt>
<pdfrwt beam="1">  1       -4 0.17072057E-01 0.12500074E+03</pdfrwt>
<totfact> 0.10007098E+04</totfact>
</mgrwt>
</event>
<event>
 5    1  0.3300771E-002  0.1249979E+03  0.7818608E-02  0.1235073E+00
          4   -1    0    0  501    0  0.00000000000E+00  0.00000000000E+00  0.35432091817E+02  0.35454844952E+02  0.12700000000E+01 0.  1.
         -4   -1    0    0    0  501 -0.00000000000E+00 -0.00000000000E+00 -0.11018063845E+03  0.11018795755E+03  0.12700000000E+01 0.  1.
         25    2    1    2    0    0  0.00000000000E+00  0.00000000000E+00 -0.74748546633E+02  0.14564280250E+03  0.12499792277E+03 0.  0.
    9000005    1    3    3    0    0  0.16746549453E+02 -0.50027612403E+02 -0.76401301615E+02  0.92851320990E+02  0.10000000000E+01 0.  0.
    9000005    1    3    3    0    0 -0.16746549453E+02  0.50027612403E+02  0.16527549814E+01  0.52791481513E+02  0.10000000000E+01 0.  0.
<mgrwt>
<rscale>  0 0.12499792E+03</rscale>
<asrwt>0</asrwt>
<pdfrwt beam="1">  1        4 0.54534044E-02 0.12499792E+03</pdfrwt>
<pdfrwt beam="2">  1       -4 0.16953180E-01 0.12499792E+03</pdfrwt>
<totfact> 0.10018413E+04</totfact>
</mgrwt>
</event>
<event>
 5    1  0.3300771E-002  0.1249990E+03  0.7818608E-02  0.1235071E+00
         -4   -1    0    0    0  501 -0.00000000000E+00  0.00000000000E+00  0.88347483294E+02  0.88356610983E+02  0.12700000000E+01 0.  1.
          4   -1    0    0  501    0  0.00000000000E+00 -0.00000000000E+00 -0.44193402679E+02  0.44211647112E+02  0.12700000000E+01 0.  1.
         25    2    1    2    0    0  0.00000000000E+00  0.00000000000E+00  0.44154080615E+02  0.13256825809E+03  0.12499904087E+03 0.  0.
    9000005    1    3    3    0    0  0.37407973727E+02 -0.22703946148E+02 -0.25237994643E+02  0.50525063509E+02  0.10000000000E+01 0.  0.
    9000005    1    3    3    0    0 -0.37407973727E+02  0.22703946148E+02  0.69392075259E+02  0.82043194585E+02  0.10000000000E+01 0.  0.
<mgrwt>
<rscale>  0 0.12499904E+03</rscale>
<asrwt>0</asrwt>
<pdfrwt beam="2">  1        4 0.68010907E-02 0.12499904E+03</pdfrwt>
<pdfrwt beam="1">  1       -4 0.13594026E-01 0.12499904E+03</pdfrwt>
<totfact> 0.10289807E+04</totfact>
</mgrwt>
</event>
<event>
 5    1  0.3300771E-002  0.1250008E+03  0.7818608E-02  0.1235068E+00
         -4   -1    0    0    0  501 -0.00000000000E+00  0.00000000000E+00  0.14941352972E+03  0.14941892706E+03  0.12700000000E+01 0.  1.
          4   -1    0    0  501    0  0.00000000000E+00 -0.00000000000E+00 -0.26122916293E+02  0.26153769435E+02  0.12700000000E+01 0.  1.
         25    2    1    2    0    0  0.00000000000E+00  0.00000000000E+00  0.12329061343E+03  0.17557269649E+03  0.12500078558E+03 0.  0.
    9000005    1    3    3    0    0  0.23391335296E+02 -0.21585957724E+02  0.13718195651E+03  0.14082967489E+03  0.10000000000E+01 0.  0.
    9000005    1    3    3    0    0 -0.23391335296E+02  0.21585957724E+02 -0.13891343079E+02  0.34743021606E+02  0.10000000000E+01 0.  0.
<mgrwt>
<rscale>  0 0.12500079E+03</rscale>
<asrwt>0</asrwt>
<pdfrwt beam="2">  1        4 0.40216986E-02 0.12500079E+03</pdfrwt>
<pdfrwt beam="1">  1       -4 0.22989486E-01 0.12500079E+03</pdfrwt>
<totfact> 0.94418392E+03</totfact>
</mgrwt>
</event>
<event>
 5    1  0.3300771E-002  0.1250005E+03  0.7818608E-02  0.1235068E+00
         -4   -1    0    0    0  501 -0.00000000000E+00  0.00000000000E+00  0.14148726172E+02  0.14205609888E+02  0.12700000000E+01 0.  1.
          4   -1    0    0  501    0  0.00000000000E+00 -0.00000000000E+00 -0.27547511672E+03  0.27547804420E+03  0.12700000000E+01 0.  1.
         25    2    1    2    0    0  0.00000000000E+00  0.00000000000E+00 -0.26132639055E+03  0.28968365408E+03  0.12500054818E+03 0.  0.
    9000005    1    3    3    0    0  0.51564121104E+02 -0.20355295200E+02 -0.19751245560E+03  0.20514718313E+03  0.10000000000E+01 0.  0.
    9000005    1    3    3    0    0 -0.51564121104E+02  0.20355295200E+02 -0.63813934954E+02  0.84536470960E+02  0.10000000000E+01 0.  0.
<mgrwt>
<rscale>  0 0.12500055E+03</rscale>
<asrwt>0</asrwt>
<pdfrwt beam="2">  1        4 0.42385384E-01 0.12500055E+03</pdfrwt>
<pdfrwt beam="1">  1       -4 0.21813282E-02 0.12500055E+03</pdfrwt>
<totfact> 0.76910461E+03</totfact>
</mgrwt>
</event>
<event>
 5    1  0.3300771E-002  0.1249965E+03  0.7818608E-02  0.1235075E+00
          4   -1    0    0  501    0  0.00000000000E+00  0.00000000000E+00  0.42950594823E+02  0.42969366945E+02  0.12700000000E+01 0. -1.
         -4   -1    0    0    0  501 -0.00000000000E+00 -0.00000000000E+00 -0.90899320050E+02  0.90908191520E+02  0.12700000000E+01 0. -1.
         25    2    1    2    0    0  0.00000000000E+00  0.00000000000E+00 -0.47948725227E+02  0.13387755847E+03  0.12499648159E+03 0.  0.
    9000005    1    3    3    0    0 -0.35972477182E+02 -0.88433286589E+01  0.29928397395E+02  0.47633313416E+02  0.10000000000E+01 0.  0.
    9000005    1    3    3    0    0  0.35972477182E+02  0.88433286589E+01 -0.77877122621E+02  0.86244245050E+02  0.10000000000E+01 0.  0.
<mgrwt>
<rscale>  0 0.12499648E+03</rscale>
<asrwt>0</asrwt>
<pdfrwt beam="1">  1        4 0.66099102E-02 0.12499648E+03</pdfrwt>
<pdfrwt beam="2">  1       -4 0.13986637E-01 0.12499648E+03</pdfrwt>
<totfact> 0.10262598E+04</totfact>
</mgrwt>
</event>
<event>
 5    1  0.3300771E-002  0.1249992E+03  0.7818608E-02  0.1235071E+00
          4   -1    0    0  501    0  0.00000000000E+00  0.00000000000E+00  0.85820011323E+03  0.85820105293E+03  0.12700000000E+01 0.  1.
         -4   -1    0    0    0  501 -0.00000000000E+00 -0.00000000000E+00 -0.44620664667E+01  0.46392819653E+01  0.12700000000E+01 0.  1.
         25    2    1    2    0    0  0.00000000000E+00  0.00000000000E+00  0.85373804677E+03  0.86284033490E+03  0.12499916411E+03 0.  0.
    9000005    1    3    3    0    0 -0.45492669910E+02  0.37211515035E+02  0.57344812757E+03  0.57645297717E+03  0.10000000000E+01 0.  0.
    9000005    1    3    3    0    0  0.45492669910E+02 -0.37211515035E+02  0.28028991919E+03  0.28638735773E+03  0.10000000000E+01 0.  0.
<mgrwt>
<rscale>  0 0.12499916E+03</rscale>
<asrwt>0</asrwt>
<pdfrwt beam="1">  1        4 0.13204444E+00 0.12499916E+03</pdfrwt>
<pdfrwt beam="2">  1       -4 0.70017629E-03 0.12499916E+03</pdfrwt>
<totfact> 0.35608234E+03</totfact>
</mgrwt>
</event>
<event>
 5    1  0.3300771E-002  0.1250033E+03  0.7818608E-02  0.1235064E+00
         -4   -1    0    0    0  501 -0.00000000000E+00  0.00000000000E+00  0.28631979363E+02  0.28660131581E+02  0.12700000000E+01 0. -1.
          4   -1    0    0  501    0  0.00000000000E+00 -0.00000000000E+00 -0.13633862134E+03  0.13634453626E+03  0.12700000000E+01 0. -1.
         25    2    1    2    0    0  0.00000000000E+00  0.00000000000E+00 -0.10770664198E+03  0.16500466784E+03  0.12500327869E+03 0.  0.
    9000005    1    3    3    0    0  0.41938013843E+01 -0.61959613030E+02 -0.63081386664E+02  0.88525945125E+02  0.10000000000E+01 0.  0.
    9000005    1    3    3    0    0 -0.41938013843E+01  0.61959613030E+02 -0.44625255312E+02  0.76478722718E+02  0.10000000000E+01 0.  0.
<mgrwt>
<rscale>  0 0.12500328E+03</rscale>
<asrwt>0</asrwt>
<pdfrwt beam="2">  1        4 0.20977793E-01 0.12500328E+03</pdfrwt>
<pdfrwt beam="1">  1       -4 0.44075405E-02 0.12500328E+03</pdfrwt>
<totfact> 0.96379409E+03</totfact>
</mgrwt>
</event>
<event>
 5    1  0.3300771E-002  0.1249986E+03  0.7818608E-02  0.1235071E+00
          4   -1    0    0  501    0  0.00000000000E+00  0.00000000000E+00  0.90742273464E+02  0.90751160287E+02  0.12700000000E+01 0. -1.
         -4   -1    0    0    0  501 -0.00000000000E+00 -0.00000000000E+00 -0.43026411302E+02  0.43045150360E+02  0.12700000000E+01 0. -1.
         25    2    1    2    0    0  0.00000000000E+00  0.00000000000E+00  0.47715862163E+02  0.13379631065E+03  0.12499859696E+03 0.  0.
    9000005    1    3    3    0    0 -0.92570913672E+01 -0.31427328933E+02 -0.33102024485E+02  0.46584490654E+02  0.10000000000E+01 0.  0.
    9000005    1    3    3    0    0  0.92570913672E+01  0.31427328933E+02  0.80817886648E+02  0.87211819994E+02  0.10000000000E+01 0.  0.
<mgrwt>
<rscale>  0 0.12499860E+03</rscale>
<asrwt>0</asrwt>
<pdfrwt beam="1">  1        4 0.13962475E-01 0.12499860E+03</pdfrwt>
<pdfrwt beam="2">  1       -4 0.66215731E-02 0.12499860E+03</pdfrwt>
<totfact> 0.10263829E+04</totfact>
</mgrwt>
</event>
<event>
 5    1  0.3300771E-002  0.1250000E+03  0.7818608E-02  0.1235069E+00
          4   -1    0    0  501    0  0.00000000000E+00  0.00000000000E+00  0.18141834922E+03  0.18142279442E+03  0.12700000000E+01 0. -1.
         -4   -1    0    0    0  501 -0.00000000000E+00 -0.00000000000E+00 -0.21508274186E+02  0.21545736433E+02  0.12700000000E+01 0. -1.
         25    2    1    2    0    0  0.00000000000E+00  0.00000000000E+00  0.15991007504E+03  0.20296853085E+03  0.12499996967E+03 0.  0.
    9000005    1    3    3    0    0 -0.30493676648E+02 -0.19005204603E+01  0.16847200562E+03  0.17122293354E+03  0.10000000000E+01 0.  0.
    9000005    1    3    3    0    0  0.30493676648E+02  0.19005204603E+01 -0.85619305784E+01  0.31745597313E+02  0.10000000000E+01 0.  0.
<mgrwt>
<rscale>  0 0.12499997E+03</rscale>
<asrwt>0</asrwt>
<pdfrwt beam="1">  1        4 0.27913740E-01 0.12499997E+03</pdfrwt>
<pdfrwt beam="2">  1       -4 0.33121888E-02 0.12499997E+03</pdfrwt>
<totfact> 0.89637303E+03</totfact>
</mgrwt>
</event>
<event>
 5    1  0.3300771E-002  0.1249971E+03  0.7818608E-02  0.1235074E+00
         -4   -1    0    0    0  501 -0.00000000000E+00  0.00000000000E+00  0.43554015701E+02  0.43572527855E+02  0.12700000000E+01 0.  1.
          4   -1    0    0  501    0  0.00000000000E+00 -0.00000000000E+00 -0.89641266175E+02  0.89650262138E+02  0.12700000000E+01 0.  1.
         25    2    1    2    0    0  0.00000000000E+00  0.00000000000E+00 -0.46087250474E+02  0.13322278999E+03  0.12499710844E+03 0.  0.
    9000005    1    3    3    0    0 -0.54662782278E+01 -0.45941345178E+02  0.21727650152E+02  0.51123166721E+02  0.10000000000E+01 0.  0.
    9000005    1    3    3    0    0  0.54662782278E+01  0.45941345178E+02 -0.67814900626E+02  0.82099623272E+02  0.10000000000E+01 0.  0.
<mgrwt>
<rscale>  0 0.12499711E+03</rscale>
<asrwt>0</asrwt>
<pdfrwt beam="2">  1        4 0.13793080E-01 0.12499711E+03</pdfrwt>
<pdfrwt beam="1">  1       -4 0.67027338E-02 0.12499711E+03</pdfrwt>
<totfact> 0.10276337E+04</totfact>
</mgrwt>
</event>
<event>
 5    1  0.3300771E-002  0.1249924E+03  0.7818608E-02  0.1235081E+00
         -4   -1    0    0    0  501 -0.00000000000E+00  0.00000000000E+00  0.37484727509E+02  0.37506235434E+02  0.12700000000E+01 0. -1.
          4   -1    0    0  501    0  0.00000000000E+00 -0.00000000000E+00 -0.10414109430E+03  0.10414883784E+03  0.12700000000E+01 0. -1.
         25    2    1    2    0    0  0.00000000000E+00  0.00000000000E+00 -0.66656366795E+02  0.14165507327E+03  0.12499235396E+03 0.  0.
    9000005    1    3    3    0    0 -0.44461226587E+02  0.37027760619E+02 -0.60073250622E+02  0.83412536026E+02  0.10000000000E+01 0.  0.
    9000005    1    3    3    0    0  0.44461226587E+02 -0.37027760619E+02 -0.65831161732E+01  0.58242537244E+02  0.10000000000E+01 0.  0.
<mgrwt>
<rscale>  0 0.12499235E+03</rscale>
<asrwt>0</asrwt>
<pdfrwt beam="2">  1        4 0.16023957E-01 0.12499235E+03</pdfrwt>
<pdfrwt beam="1">  1       -4 0.57691313E-02 0.12499235E+03</pdfrwt>
<totfact> 0.10101138E+04</totfact>
</mgrwt>
</event>
<event>
 5    1  0.3300771E-002  0.1249993E+03  0.7818608E-02  0.1235070E+00
          4   -1    0    0  501    0  0.00000000000E+00  0.00000000000E+00  0.45656975357E+02  0.45674635179E+02  0.12700000000E+01 0. -1.
         -4   -1    0    0    0  501 -0.00000000000E+00 -0.00000000000E+00 -0.85516653042E+02  0.85526082849E+02  0.12700000000E+01 0. -1.
         25    2    1    2    0    0  0.00000000000E+00  0.00000000000E+00 -0.39859677686E+02  0.13120071803E+03  0.12499933802E+03 0.  0.
    9000005    1    3    3    0    0 -0.37347486486E+02  0.42184037622E+02  0.84462013186E+01  0.56979523459E+02  0.10000000000E+01 0.  0.
    9000005    1    3    3    0    0  0.37347486486E+02 -0.42184037622E+02 -0.48305879004E+02  0.74221194569E+02  0.10000000000E+01 0.  0.
<mgrwt>
<rscale>  0 0.12499934E+03</rscale>
<asrwt>0</asrwt>
<pdfrwt beam="1">  1        4 0.70262339E-02 0.12499934E+03</pdfrwt>
<pdfrwt beam="2">  1       -4 0.13158492E-01 0.12499934E+03</pdfrwt>
<totfact> 0.10318942E+04</totfact>
</mgrwt>
</event>
<event>
 5    1  0.3300771E-002  0.1250005E+03  0.7818608E-02  0.1235069E+00
         -4   -1    0    0    0  501 -0.00000000000E+00  0.00000000000E+00  0.78217450078E+02  0.78227759757E+02  0.12700000000E+01 0. -1.
          4   -1    0    0  501    0  0.00000000000E+00 -0.00000000000E+00 -0.49919617068E+02  0.49935769426E+02  0.12700000000E+01 0. -1.
         25    2    1    2    0    0  0.00000000000E+00  0.00000000000E+00  0.28297833010E+02  0.12816352918E+03  0.12500049144E+03 0.  0.
    9000005    1    3    3    0    0 -0.22169387002E+02  0.49259767111E+02 -0.18067086863E+02  0.56968640528E+02  0.10000000000E+01 0.  0.
    9000005    1    3    3    0    0  0.22169387002E+02 -0.49259767111E+02  0.46364919873E+02  0.71194888656E+02  0.10000000000E+01 0.  0.
<mgrwt>
<rscale>  0 0.12500049E+03</rscale>
<asrwt>0</asrwt>
<pdfrwt beam="2">  1        4 0.76819766E-02 0.12500049E+03</pdfrwt>
<pdfrwt beam="1">  1       -4 0.12035489E-01 0.12500049E+03</pdfrwt>
<totfact> 0.10383842E+04</totfact>
</mgrwt>
</event>
<event>
 5    1  0.3300771E-002  0.1250045E+03  0.7818608E-02  0.1235062E+00
         -4   -1    0    0    0  501 -0.00000000000E+00  0.00000000000E+00  0.12186996442E+04  0.12187003059E+04  0.12700000000E+01 0.  1.
          4   -1    0    0  501    0  0.00000000000E+00 -0.00000000000E+00 -0.30790085560E+01  0.33306446355E+01  0.12700000000E+01 0.  1.
         25    2    1    2    0    0  0.00000000000E+00  0.00000000000E+00  0.12156206356E+04  0.12220309505E+04  0.12500445726E+03 0.  0.
    9000005    1    3    3    0    0 -0.23420317380E+02 -0.52930107433E+02  0.83820257102E+03  0.84019917734E+03  0.10000000000E+01 0.  0.
    9000005    1    3    3    0    0  0.23420317380E+02  0.52930107433E+02  0.37741806458E+03  0.38183177318E+03  0.10000000000E+01 0.  0.
<mgrwt>
<rscale>  0 0.12500446E+03</rscale>
<asrwt>0</asrwt>
<pdfrwt beam="2">  1        4 0.49310073E-03 0.12500446E+03</pdfrwt>
<pdfrwt beam="1">  1       -4 0.18751182E+00 0.12500446E+03</pdfrwt>
<totfact> 0.24140897E+03</totfact>
</mgrwt>
</event>
<event>
 5    1  0.3300771E-002  0.1250216E+03  0.7818608E-02  0.1235036E+00
         -4   -1    0    0    0  501 -0.00000000000E+00  0.00000000000E+00  0.64716052247E+03  0.64716176860E+03  0.12700000000E+01 0. -1.
          4   -1    0    0  501    0  0.00000000000E+00 -0.00000000000E+00 -0.59700243264E+01  0.61036129020E+01  0.12700000000E+01 0. -1.
         25    2    1    2    0    0  0.00000000000E+00  0.00000000000E+00  0.64119049814E+03  0.65326538150E+03  0.12502161319E+03 0.  0.
    9000005    1    3    3    0    0 -0.18098659361E+02  0.75566129104E+01  0.63069066183E+03  0.63099633501E+03  0.10000000000E+01 0.  0.
    9000005    1    3    3    0    0  0.18098659361E+02 -0.75566129104E+01  0.10499836307E+02  0.22269046495E+02  0.10000000000E+01 0.  0.
<mgrwt>
<rscale>  0 0.12502161E+03</rscale>
<asrwt>0</asrwt>
<pdfrwt beam="2">  1        4 0.92883749E-03 0.12502161E+03</pdfrwt>
<pdfrwt beam="1">  1       -4 0.99573496E-01 0.12502161E+03</pdfrwt>
<totfact> 0.45647365E+03</totfact>
</mgrwt>
</event>
<event>
 5    1  0.3300771E-002  0.1250020E+03  0.7818608E-02  0.1235066E+00
         -4   -1    0    0    0  501 -0.00000000000E+00  0.00000000000E+00  0.59917768870E+01  0.61248910410E+01  0.12700000000E+01 0. -1.
          4   -1    0    0  501    0  0.00000000000E+00 -0.00000000000E+00 -0.64466014823E+03  0.64466139920E+03  0.12700000000E+01 0. -1.
         25    2    1    2    0    0  0.00000000000E+00  0.00000000000E+00 -0.63866837135E+03  0.65078629024E+03  0.12500202802E+03 0.  0.
    9000005    1    3    3    0    0  0.18863151213E+02 -0.52457759652E+02 -0.46637994078E+03  0.46970084541E+03  0.10000000000E+01 0.  0.
    9000005    1    3    3    0    0 -0.18863151213E+02  0.52457759652E+02 -0.17228843057E+03  0.18108544483E+03  0.10000000000E+01 0.  0.
<mgrwt>
<rscale>  0 0.12500203E+03</rscale>
<asrwt>0</asrwt>
<pdfrwt beam="2">  1        4 0.99188766E-01 0.12500203E+03</pdfrwt>
<pdfrwt beam="1">  1       -4 0.93214812E-03 0.12500203E+03</pdfrwt>
<totfact> 0.45808920E+03</totfact>
</mgrwt>
</event>
<event>
 5    1  0.3300771E-002  0.1249947E+03  0.7818608E-02  0.1235078E+00
         -4   -1    0    0    0  501 -0.00000000000E+00  0.00000000000E+00  0.23792673067E+02  0.23826543847E+02  0.12700000000E+01 0. -1.
          4   -1    0    0  501    0  0.00000000000E+00 -0.00000000000E+00 -0.16401157246E+03  0.16401648942E+03  0.12700000000E+01 0. -1.
         25    2    1    2    0    0  0.00000000000E+00  0.00000000000E+00 -0.14021889939E+03  0.18784303326E+03  0.12499466148E+03 0.  0.
    9000005    1    3    3    0    0 -0.35349378259E+02  0.49308925936E+02 -0.92599801791E+02  0.11070985508E+03  0.10000000000E+01 0.  0.
    9000005    1    3    3    0    0  0.35349378259E+02 -0.49308925936E+02 -0.47619097601E+02  0.77133178183E+02  0.10000000000E+01 0.  0.
<mgrwt>
<rscale>  0 0.12499466E+03</rscale>
<asrwt>0</asrwt>
<pdfrwt beam="2">  1        4 0.25235532E-01 0.12499466E+03</pdfrwt>
<pdfrwt beam="1">  1       -4 0.36633950E-02 0.12499466E+03</pdfrwt>
<totfact> 0.92235012E+03</totfact>
</mgrwt>
</event>
<event>
 5    1  0.3300771E-002  0.1249981E+03  0.7818608E-02  0.1235072E+00
         -4   -1    0    0    0  501 -0.00000000000E+00  0.00000000000E+00  0.62251204112E+03  0.62251333659E+03  0.12700000000E+01 0.  1.
          4   -1    0    0  501    0  0.00000000000E+00 -0.00000000000E+00 -0.62092114682E+01  0.63377604133E+01  0.12700000000E+01 0.  1.
         25    2    1    2    0    0  0.00000000000E+00  0.00000000000E+00  0.61630282965E+03  0.62885109701E+03  0.12499809748E+03 0.  0.
    9000005    1    3    3    0    0  0.14534286077E+01  0.59946001618E+02  0.21964563983E+03  0.22768584203E+03  0.10000000000E+01 0.  0.
    9000005    1    3    3    0    0 -0.14534286077E+01 -0.59946001618E+02  0.39665718982E+03  0.40116525498E+03  0.10000000000E+01 0.  0.
<mgrwt>
<rscale>  0 0.12499810E+03</rscale>
<asrwt>0</asrwt>
<pdfrwt beam="2">  1        4 0.96525119E-03 0.12499810E+03</pdfrwt>
<pdfrwt beam="1">  1       -4 0.95781086E-01 0.12499810E+03</pdfrwt>
<totfact> 0.47097617E+03</totfact>
</mgrwt>
</event>
<event>
 5    1  0.3300771E-002  0.1250019E+03  0.7818608E-02  0.1235066E+00
         -4   -1    0    0    0  501 -0.00000000000E+00  0.00000000000E+00  0.41683819868E+02  0.41703162216E+02  0.12700000000E+01 0.  1.
          4   -1    0    0  501    0  0.00000000000E+00 -0.00000000000E+00 -0.93668861154E+02  0.93677470343E+02  0.12700000000E+01 0.  1.
         25    2    1    2    0    0  0.00000000000E+00  0.00000000000E+00 -0.51985041286E+02  0.13538063256E+03  0.12500188460E+03 0.  0.
    9000005    1    3    3    0    0 -0.41123793945E+02  0.28031435772E+02  0.14940234261E+02  0.51972477521E+02  0.10000000000E+01 0.  0.
    9000005    1    3    3    0    0  0.41123793945E+02 -0.28031435772E+02 -0.66925275547E+02  0.83408155038E+02  0.10000000000E+01 0.  0.
<mgrwt>
<rscale>  0 0.12500188E+03</rscale>
<asrwt>0</asrwt>
<pdfrwt beam="2">  1        4 0.14412744E-01 0.12500188E+03</pdfrwt>
<pdfrwt beam="1">  1       -4 0.64150455E-02 0.12500188E+03</pdfrwt>
<totfact> 0.10229620E+04</totfact>
</mgrwt>
</event>
<event>
 5    1  0.3300771E-002  0.1249956E+03  0.7818608E-02  0.1235076E+00
         -4   -1    0    0    0  501 -0.00000000000E+00  0.00000000000E+00  0.25261409210E+03  0.25261728450E+03  0.12700000000E+01 0. -1.
          4   -1    0    0  501    0  0.00000000000E+00 -0.00000000000E+00 -0.15432839339E+02  0.15485006622E+02  0.12700000000E+01 0. -1.
         25    2    1    2    0    0  0.00000000000E+00  0.00000000000E+00  0.23718125277E+03  0.26810229113E+03  0.12499556729E+03 0.  0.
    9000005    1    3    3    0    0 -0.56705087616E+02  0.12728975060E+02  0.16785223393E+03  0.17763126472E+03  0.10000000000E+01 0.  0.
    9000005    1    3    3    0    0  0.56705087616E+02 -0.12728975060E+02  0.69329018831E+02  0.90471026410E+02  0.10000000000E+01 0.  0.
<mgrwt>
<rscale>  0 0.12499557E+03</rscale>
<asrwt>0</asrwt>
<pdfrwt beam="2">  1        4 0.23785417E-02 0.12499557E+03</pdfrwt>
<pdfrwt beam="1">  1       -4 0.38867960E-01 0.12499557E+03</pdfrwt>
<totfact> 0.79790167E+03</totfact>
</mgrwt>
</event>
<event>
 5    1  0.3300771E-002  0.1250040E+03  0.7818608E-02  0.1235063E+00
         -4   -1    0    0    0  501 -0.00000000000E+00  0.00000000000E+00  0.59567881217E+03  0.59568016600E+03  0.12700000000E+01 0.  1.
          4   -1    0    0  501    0  0.00000000000E+00 -0.00000000000E+00 -0.64952011679E+01  0.66181975047E+01  0.12700000000E+01 0.  1.
         25    2    1    2    0    0  0.00000000000E+00  0.00000000000E+00  0.58918361100E+03  0.60229836351E+03  0.12500396477E+03 0.  0.
    9000005    1    3    3    0    0  0.29926630682E+02  0.51362755275E+02  0.20169081093E+03  0.21027106093E+03  0.10000000000E+01 0.  0.
    9000005    1    3    3    0    0 -0.29926630682E+02 -0.51362755275E+02  0.38749280007E+03  0.39202730257E+03  0.10000000000E+01 0.  0.
<mgrwt>
<rscale>  0 0.12500396E+03</rscale>
<asrwt>0</asrwt>
<pdfrwt beam="2">  1        4 0.10088263E-02 0.12500396E+03</pdfrwt>
<pdfrwt beam="1">  1       -4 0.91652536E-01 0.12500396E+03</pdfrwt>
<totfact> 0.48718585E+03</totfact>
</mgrwt>
</event>
<event>
 5    1  0.3300771E-002  0.1249997E+03  0.7818608E-02  0.1235070E+00
          4   -1    0    0  501    0  0.00000000000E+00  0.00000000000E+00  0.13734711928E+03  0.13735299077E+03  0.12700000000E+01 0. -1.
         -4   -1    0    0    0  501 -0.00000000000E+00 -0.00000000000E+00 -0.28419912681E+02  0.28448274759E+02  0.12700000000E+01 0. -1.
         25    2    1    2    0    0  0.00000000000E+00  0.00000000000E+00  0.10892720660E+03  0.16580126553E+03  0.12499969326E+03 0.  0.
    9000005    1    3    3    0    0 -0.27048040722E+02  0.32793284069E+02 -0.62947424609E+01  0.42983947812E+02  0.10000000000E+01 0.  0.
    9000005    1    3    3    0    0  0.27048040722E+02 -0.32793284069E+02  0.11522194906E+03  0.12281731772E+03  0.10000000000E+01 0.  0.
<mgrwt>
<rscale>  0 0.12499969E+03</rscale>
<asrwt>0</asrwt>
<pdfrwt beam="1">  1        4 0.21132959E-01 0.12499969E+03</pdfrwt>
<pdfrwt beam="2">  1       -4 0.43749277E-02 0.12499969E+03</pdfrwt>
<totfact> 0.96236523E+03</totfact>
</mgrwt>
</event>
<event>
 5    1  0.3300771E-002  0.1250128E+03  0.7818608E-02  0.1235049E+00
         -4   -1    0    0    0  501 -0.00000000000E+00  0.00000000000E+00  0.75545383510E+03  0.75545490261E+03  0.12700000000E+01 0.  1.
          4   -1    0    0  501    0  0.00000000000E+00 -0.00000000000E+00 -0.50927403908E+01  0.52487050487E+01  0.12700000000E+01 0.  1.
         25    2    1    2    0    0  0.00000000000E+00  0.00000000000E+00  0.75036109471E+03  0.76070360765E+03  0.12501282431E+03 0.  0.
    9000005    1    3    3    0    0  0.18881762482E+02  0.66599154607E+00  0.12671178237E+02  0.22771105750E+02  0.10000000000E+01 0.  0.
    9000005    1    3    3    0    0 -0.18881762482E+02 -0.66599154607E+00  0.73768991647E+03  0.73793250191E+03  0.10000000000E+01 0.  0.
<mgrwt>
<rscale>  0 0.12501282E+03</rscale>
<asrwt>0</asrwt>
<pdfrwt beam="2">  1        4 0.79557787E-03 0.12501282E+03</pdfrwt>
<pdfrwt beam="1">  1       -4 0.11623575E+00 0.12501282E+03</pdfrwt>
<totfact> 0.40056111E+03</totfact>
</mgrwt>
</event>
<event>
 4    1  0.3300771E-002  0.1249341E+03  0.7818608E-02  0.1235172E+00
          4   -1    0    0  501    0  0.00000000000E+00  0.00000000000E+00  0.16520435792E+02  0.16569179182E+02  0.12700000000E+01 0.  1.
         -4   -1    0    0    0  501 -0.00000000000E+00 -0.00000000000E+00 -0.23580184067E+03  0.23580526068E+03  0.12700000000E+01 0.  1.
    9000005    1    1    2    0    0 -0.47756698955E+01  0.41406330489E+02 -0.15673349643E+02  0.44541498813E+02  0.10000000000E+01 0.  0.
    9000005    1    1    2    0    0  0.47756698955E+01 -0.41406330489E+02 -0.20360805523E+03  0.20783294104E+03  0.10000000000E+01 0.  0.
<mgrwt>
<rscale>  0 0.12493408E+03</rscale>
<asrwt>0</asrwt>
<pdfrwt beam="1">  1        4 0.25456182E-02 0.12493408E+03</pdfrwt>
<pdfrwt beam="2">  1       -4 0.36281216E-01 0.12493408E+03</pdfrwt>
<totfact> 0.82108754E+03</totfact>
</mgrwt>
</event>
<event>
 5    1  0.3300771E-002  0.1249984E+03  0.7818608E-02  0.1235072E+00
          4   -1    0    0  501    0  0.00000000000E+00  0.00000000000E+00  0.10722226822E+03  0.10722978925E+03  0.12700000000E+01 0.  1.
         -4   -1    0    0    0  501 -0.00000000000E+00 -0.00000000000E+00 -0.36410501060E+02  0.36432643158E+02  0.12700000000E+01 0.  1.
         25    2    1    2    0    0  0.00000000000E+00  0.00000000000E+00  0.70811767163E+02  0.14366243241E+03  0.12499835246E+03 0.  0.
    9000005    1    3    3    0    0 -0.16554915176E+02  0.42682230008E+02 -0.13481332284E+02  0.47734518905E+02  0.10000000000E+01 0.  0.
    9000005    1    3    3    0    0  0.16554915176E+02 -0.42682230008E+02  0.84293099447E+02  0.95927913504E+02  0.10000000000E+01 0.  0.
<mgrwt>
<rscale>  0 0.12499835E+03</rscale>
<asrwt>0</asrwt>
<pdfrwt beam="1">  1        4 0.16498015E-01 0.12499835E+03</pdfrwt>
<pdfrwt beam="2">  1       -4 0.56038974E-02 0.12499835E+03</pdfrwt>
<totfact> 0.10058609E+04</totfact>
</mgrwt>
</event>
<event>
 5    1  0.3300771E-002  0.1250002E+03  0.7818608E-02  0.1235069E+00
         -4   -1    0    0    0  501 -0.00000000000E+00  0.00000000000E+00  0.14694785882E+02  0.14749563794E+02  0.12700000000E+01 0. -1.
          4   -1    0    0  501    0  0.00000000000E+00 -0.00000000000E+00 -0.26527578559E+03  0.26527882561E+03  0.12700000000E+01 0. -1.
         25    2    1    2    0    0  0.00000000000E+00  0.00000000000E+00 -0.25058099970E+03  0.28002838941E+03  0.12500024584E+03 0.  0.
    9000005    1    3    3    0    0 -0.25376333640E+02 -0.50050127327E+02 -0.63682672360E+02  0.84884959288E+02  0.10000000000E+01 0.  0.
    9000005    1    3    3    0    0  0.25376333640E+02  0.50050127327E+02 -0.18689832734E+03  0.19514343012E+03  0.10000000000E+01 0.  0.
<mgrwt>
<rscale>  0 0.12500025E+03</rscale>
<asrwt>0</asrwt>
<pdfrwt beam="2">  1        4 0.40816103E-01 0.12500025E+03</pdfrwt>
<pdfrwt beam="1">  1       -4 0.22651840E-02 0.12500025E+03</pdfrwt>
<totfact> 0.78173915E+03</totfact>
</mgrwt>
</event>
<event>
 5    1  0.3300771E-002  0.1250030E+03  0.7818608E-02  0.1235065E+00
          4   -1    0    0  501    0  0.00000000000E+00  0.00000000000E+00  0.11388055597E+02  0.11458652202E+02  0.12700000000E+01 0. -1.
         -4   -1    0    0    0  501 -0.00000000000E+00 -0.00000000000E+00 -0.34189750013E+03  0.34189985887E+03  0.12700000000E+01 0. -1.
         25    2    1    2    0    0  0.00000000000E+00  0.00000000000E+00 -0.33050944453E+03  0.35335851107E+03  0.12500297765E+03 0.  0.
    9000005    1    3    3    0    0 -0.50657552654E+01  0.61732149333E+02 -0.18872159010E+03  0.19862869558E+03  0.10000000000E+01 0.  0.
    9000005    1    3    3    0    0  0.50657552654E+01 -0.61732149333E+02 -0.14178785443E+03  0.15472981549E+03  0.10000000000E+01 0.  0.
<mgrwt>
<rscale>  0 0.12500298E+03</rscale>
<asrwt>0</asrwt>
<pdfrwt beam="1">  1        4 0.17576208E-02 0.12500298E+03</pdfrwt>
<pdfrwt beam="2">  1       -4 0.52605220E-01 0.12500298E+03</pdfrwt>
<totfact> 0.69352086E+03</totfact>
</mgrwt>
</event>
<event>
 5    1  0.3300771E-002  0.1250074E+03  0.7818608E-02  0.1235058E+00
          4   -1    0    0  501    0  0.00000000000E+00  0.00000000000E+00  0.12164903749E+03  0.12165566663E+03  0.12700000000E+01 0.  1.
         -4   -1    0    0    0  501 -0.00000000000E+00 -0.00000000000E+00 -0.32094561002E+02  0.32119678484E+02  0.12700000000E+01 0.  1.
         25    2    1    2    0    0  0.00000000000E+00  0.00000000000E+00  0.89554476487E+02  0.15377534511E+03  0.12500740980E+03 0.  0.
    9000005    1    3    3    0    0 -0.52955216961E+02  0.28456278086E+02  0.23767630321E+02  0.64652262273E+02  0.10000000000E+01 0.  0.
    9000005    1    3    3    0    0  0.52955216961E+02 -0.28456278086E+02  0.65786846166E+02  0.89123082837E+02  0.10000000000E+01 0.  0.
<mgrwt>
<rscale>  0 0.12500741E+03</rscale>
<asrwt>0</asrwt>
<pdfrwt beam="1">  1        4 0.18717679E-01 0.12500741E+03</pdfrwt>
<pdfrwt beam="2">  1       -4 0.49400668E-02 0.12500741E+03</pdfrwt>
<totfact> 0.98539966E+03</totfact>
</mgrwt>
</event>
<event>
 5    1  0.3300771E-002  0.1250345E+03  0.7818608E-02  0.1235015E+00
         -4   -1    0    0    0  501 -0.00000000000E+00  0.00000000000E+00  0.97183315920E+02  0.97191613801E+02  0.12700000000E+01 0. -1.
          4   -1    0    0  501    0  0.00000000000E+00 -0.00000000000E+00 -0.40196821212E+02  0.40216878739E+02  0.12700000000E+01 0. -1.
         25    2    1    2    0    0  0.00000000000E+00  0.00000000000E+00  0.56986494708E+02  0.13740849254E+03  0.12503452820E+03 0.  0.
    9000005    1    3    3    0    0  0.45651010080E+00  0.43591768241E+02 -0.20739346748E+02  0.48286345517E+02  0.10000000000E+01 0.  0.
    9000005    1    3    3    0    0 -0.45651010080E+00 -0.43591768241E+02  0.77725841456E+02  0.89122147023E+02  0.10000000000E+01 0.  0.
<mgrwt>
<rscale>  0 0.12503453E+03</rscale>
<asrwt>0</asrwt>
<pdfrwt beam="2">  1        4 0.61863075E-02 0.12503453E+03</pdfrwt>
<pdfrwt beam="1">  1       -4 0.14953461E-01 0.12503453E+03</pdfrwt>
<totfact> 0.10179625E+04</totfact>
</mgrwt>
</event>
<event>
 5    1  0.3300771E-002  0.1250205E+03  0.7818608E-02  0.1235037E+00
         -4   -1    0    0    0  501 -0.00000000000E+00  0.00000000000E+00  0.30389199133E+03  0.30389464506E+03  0.12700000000E+01 0. -1.
          4   -1    0    0  501    0  0.00000000000E+00 -0.00000000000E+00 -0.12824222903E+02  0.12886954375E+02  0.12700000000E+01 0. -1.
         25    2    1    2    0    0  0.00000000000E+00  0.00000000000E+00  0.29106776843E+03  0.31678159944E+03  0.12502054200E+03 0.  0.
    9000005    1    3    3    0    0  0.30957179162E+02 -0.53373662733E+02  0.17080109508E+03  0.18160701775E+03  0.10000000000E+01 0.  0.
    9000005    1    3    3    0    0 -0.30957179162E+02  0.53373662733E+02  0.12026667335E+03  0.13517458169E+03  0.10000000000E+01 0.  0.
<mgrwt>
<rscale>  0 0.12502054E+03</rscale>
<asrwt>0</asrwt>
<pdfrwt beam="2">  1        4 0.19779870E-02 0.12502054E+03</pdfrwt>
<pdfrwt beam="1">  1       -4 0.46757645E-01 0.12502054E+03</pdfrwt>
<totfact> 0.73507067E+03</totfact>
</mgrwt>
</event>
<event>
 5    1  0.3300771E-002  0.1249945E+03  0.7818608E-02  0.1235078E+00
          4   -1    0    0  501    0  0.00000000000E+00  0.00000000000E+00  0.11592663261E+02  0.11662021329E+02  0.12700000000E+01 0. -1.
         -4   -1    0    0    0  501 -0.00000000000E+00 -0.00000000000E+00 -0.33585342761E+03  0.33585582879E+03  0.12700000000E+01 0. -1.
         25    2    1    2    0    0  0.00000000000E+00  0.00000000000E+00 -0.32426076434E+03  0.34751785012E+03  0.12499445132E+03 0.  0.
    9000005    1    3    3    0    0  0.12533236200E+02 -0.30050449982E+02 -0.13840467417E+02  0.35393079721E+02  0.10000000000E+01 0.  0.
    9000005    1    3    3    0    0 -0.12533236200E+02  0.30050449982E+02 -0.31042029693E+03  0.31212477040E+03  0.10000000000E+01 0.  0.
<mgrwt>
<rscale>  0 0.12499445E+03</rscale>
<asrwt>0</asrwt>
<pdfrwt beam="1">  1        4 0.17890069E-02 0.12499445E+03</pdfrwt>
<pdfrwt beam="2">  1       -4 0.51675271E-01 0.12499445E+03</pdfrwt>
<totfact> 0.70007089E+03</totfact>
</mgrwt>
</event>
<event>
 5    1  0.3300771E-002  0.1250391E+03  0.7818608E-02  0.1235008E+00
          4   -1    0    0  501    0  0.00000000000E+00  0.00000000000E+00  0.10448693813E+03  0.10449465603E+03  0.12700000000E+01 0.  1.
         -4   -1    0    0    0  501 -0.00000000000E+00 -0.00000000000E+00 -0.37388554167E+02  0.37410117384E+02  0.12700000000E+01 0.  1.
         25    2    1    2    0    0  0.00000000000E+00  0.00000000000E+00  0.67098383963E+02  0.14190477342E+03  0.12503908025E+03 0.  0.
    9000005    1    3    3    0    0 -0.60487127104E+02  0.13972491893E+02  0.25227329511E+02  0.67017469582E+02  0.10000000000E+01 0.  0.
    9000005    1    3    3    0    0  0.60487127104E+02 -0.13972491893E+02  0.41871054452E+02  0.74887303836E+02  0.10000000000E+01 0.  0.
<mgrwt>
<rscale>  0 0.12503908E+03</rscale>
<asrwt>0</asrwt>
<pdfrwt beam="1">  1        4 0.16077166E-01 0.12503908E+03</pdfrwt>
<pdfrwt beam="2">  1       -4 0.57543376E-02 0.12503908E+03</pdfrwt>
<totfact> 0.10085379E+04</totfact>
</mgrwt>
</event>
<event>
 5    1  0.3300771E-002  0.1249994E+03  0.7818608E-02  0.1235070E+00
         -4   -1    0    0    0  501 -0.00000000000E+00  0.00000000000E+00  0.19362160237E+03  0.19362576741E+03  0.12700000000E+01 0. -1.
          4   -1    0    0  501    0  0.00000000000E+00 -0.00000000000E+00 -0.20150099861E+02  0.20190082328E+02  0.12700000000E+01 0. -1.
         25    2    1    2    0    0  0.00000000000E+00  0.00000000000E+00  0.17347150251E+03  0.21381584973E+03  0.12499942166E+03 0.  0.
    9000005    1    3    3    0    0  0.25128818882E+02 -0.47388206702E+02  0.14158271196E+03  0.15140595761E+03  0.10000000000E+01 0.  0.
    9000005    1    3    3    0    0 -0.25128818882E+02  0.47388206702E+02  0.31888790549E+02  0.62409892128E+02  0.10000000000E+01 0.  0.
<mgrwt>
<rscale>  0 0.12499942E+03</rscale>
<asrwt>0</asrwt>
<pdfrwt beam="2">  1        4 0.31034113E-02 0.12499942E+03</pdfrwt>
<pdfrwt beam="1">  1       -4 0.29791335E-01 0.12499942E+03</pdfrwt>
<totfact> 0.87857605E+03</totfact>
</mgrwt>
</event>
<event>
 5    1  0.3300771E-002  0.1249991E+03  0.7818608E-02  0.1235071E+00
          4   -1    0    0  501    0  0.00000000000E+00  0.00000000000E+00  0.38457160583E+02  0.38478124956E+02  0.12700000000E+01 0. -1.
         -4   -1    0    0    0  501 -0.00000000000E+00 -0.00000000000E+00 -0.10151999768E+03  0.10152794113E+03  0.12700000000E+01 0. -1.
         25    2    1    2    0    0  0.00000000000E+00  0.00000000000E+00 -0.63062837098E+02  0.14000606608E+03  0.12499910846E+03 0.  0.
    9000005    1    3    3    0    0 -0.11582508161E+02 -0.37288194982E+01 -0.10018581876E+03  0.10092698782E+03  0.10000000000E+01 0.  0.
    9000005    1    3    3    0    0  0.11582508161E+02  0.37288194982E+01  0.37122981662E+02  0.39079078260E+02  0.10000000000E+01 0.  0.
<mgrwt>
<rscale>  0 0.12499911E+03</rscale>
<asrwt>0</asrwt>
<pdfrwt beam="1">  1        4 0.59187100E-02 0.12499911E+03</pdfrwt>
<pdfrwt beam="2">  1       -4 0.15620685E-01 0.12499911E+03</pdfrwt>
<totfact> 0.10133664E+04</totfact>
</mgrwt>
</event>
<event>
 5    1  0.3300771E-002  0.1249825E+03  0.7818608E-02  0.1235097E+00
          4   -1    0    0  501    0  0.00000000000E+00  0.00000000000E+00  0.20450535927E+03  0.20450930265E+03  0.12700000000E+01 0. -1.
         -4   -1    0    0    0  501 -0.00000000000E+00 -0.00000000000E+00 -0.19070371233E+02  0.19112612563E+02  0.12700000000E+01 0. -1.
         25    2    1    2    0    0  0.00000000000E+00  0.00000000000E+00  0.18543498804E+03  0.22362191522E+03  0.12498250348E+03 0.  0.
    9000005    1    3    3    0    0 -0.44193756664E+02  0.40059480192E+02  0.59421235021E+02  0.84200553755E+02  0.10000000000E+01 0.  0.
    9000005    1    3    3    0    0  0.44193756664E+02 -0.40059480192E+02  0.12601375302E+03  0.13942136146E+03  0.10000000000E+01 0.  0.
<mgrwt>
<rscale>  0 0.12498250E+03</rscale>
<asrwt>0</asrwt>
<pdfrwt beam="1">  1        4 0.31465917E-01 0.12498250E+03</pdfrwt>
<pdfrwt beam="2">  1       -4 0.29374558E-02 0.12498250E+03</pdfrwt>
<totfact> 0.86332176E+03</totfact>
</mgrwt>
</event>
<event>
 5    1  0.3300771E-002  0.1250010E+03  0.7818608E-02  0.1235068E+00
         -4   -1    0    0    0  501 -0.00000000000E+00  0.00000000000E+00  0.45955678156E+01  0.47678237748E+01  0.12700000000E+01 0. -1.
          4   -1    0    0  501    0  0.00000000000E+00 -0.00000000000E+00 -0.83420739960E+03  0.83420836633E+03  0.12700000000E+01 0. -1.
         25    2    1    2    0    0  0.00000000000E+00  0.00000000000E+00 -0.82961183178E+03  0.83897619010E+03  0.12500102447E+03 0.  0.
    9000005    1    3    3    0    0 -0.57337160564E+02 -0.18570370713E+02 -0.52568308061E+03  0.52912768770E+03  0.10000000000E+01 0.  0.
    9000005    1    3    3    0    0  0.57337160564E+02  0.18570370713E+02 -0.30392875118E+03  0.30984850240E+03  0.10000000000E+01 0.  0.
<mgrwt>
<rscale>  0 0.12500102E+03</rscale>
<asrwt>0</asrwt>
<pdfrwt beam="2">  1        4 0.12835281E+00 0.12500102E+03</pdfrwt>
<pdfrwt beam="1">  1       -4 0.72033592E-03 0.12500102E+03</pdfrwt>
<totfact> 0.36581936E+03</totfact>
</mgrwt>
</event>
<event>
 5    1  0.3300771E-002  0.1249995E+03  0.7818608E-02  0.1235070E+00
         -4   -1    0    0    0  501 -0.00000000000E+00  0.00000000000E+00  0.29568030382E+03  0.29568303125E+03  0.12700000000E+01 0. -1.
          4   -1    0    0  501    0  0.00000000000E+00 -0.00000000000E+00 -0.13177634778E+02  0.13238691716E+02  0.12700000000E+01 0. -1.
         25    2    1    2    0    0  0.00000000000E+00  0.00000000000E+00  0.28250266904E+03  0.30892172296E+03  0.12499949161E+03 0.  0.
    9000005    1    3    3    0    0 -0.31523855169E+02  0.29855309857E+02  0.30173002241E+02  0.52881972690E+02  0.10000000000E+01 0.  0.
    9000005    1    3    3    0    0  0.31523855169E+02 -0.29855309857E+02  0.25232966680E+03  0.25603975027E+03  0.10000000000E+01 0.  0.
<mgrwt>
<rscale>  0 0.12499949E+03</rscale>
<asrwt>0</asrwt>
<pdfrwt beam="2">  1        4 0.20322348E-02 0.12499949E+03</pdfrwt>
<pdfrwt beam="1">  1       -4 0.45494187E-01 0.12499949E+03</pdfrwt>
<totfact> 0.74494008E+03</totfact>
</mgrwt>
</event>
<event>
 5    1  0.3300771E-002  0.1250003E+03  0.7818608E-02  0.1235069E+00
         -4   -1    0    0    0  501 -0.00000000000E+00  0.00000000000E+00  0.89494340224E+01  0.90390967094E+01  0.12700000000E+01 0. -1.
          4   -1    0    0  501    0  0.00000000000E+00 -0.00000000000E+00 -0.43421623828E+03  0.43421809553E+03  0.12700000000E+01 0. -1.
         25    2    1    2    0    0  0.00000000000E+00  0.00000000000E+00 -0.42526680426E+03  0.44325719224E+03  0.12500033468E+03 0.  0.
    9000005    1    3    3    0    0  0.49380628422E+01  0.24709146883E+02 -0.98458148250E+01  0.27071506679E+02  0.10000000000E+01 0.  0.
    9000005    1    3    3    0    0 -0.49380628422E+01 -0.24709146883E+02 -0.41542098944E+03  0.41618568556E+03  0.10000000000E+01 0.  0.
<mgrwt>
<rscale>  0 0.12500033E+03</rscale>
<asrwt>0</asrwt>
<pdfrwt beam="2">  1        4 0.66809522E-01 0.12500033E+03</pdfrwt>
<pdfrwt beam="1">  1       -4 0.13838763E-02 0.12500033E+03</pdfrwt>
<totfact> 0.60551969E+03</totfact>
</mgrwt>
</event>
<event>
 5    1  0.3300771E-002  0.1250014E+03  0.7818608E-02  0.1235067E+00
          4   -1    0    0  501    0  0.00000000000E+00  0.00000000000E+00  0.28936135115E+02  0.28963991703E+02  0.12700000000E+01 0.  1.
         -4   -1    0    0    0  501 -0.00000000000E+00 -0.00000000000E+00 -0.13490279505E+03  0.13490877292E+03  0.12700000000E+01 0.  1.
         25    2    1    2    0    0  0.00000000000E+00  0.00000000000E+00 -0.10596665993E+03  0.16387276463E+03  0.12500139987E+03 0.  0.
    9000005    1    3    3    0    0 -0.36291245597E+02 -0.34827569293E+02 -0.43656399308E+01  0.50498246523E+02  0.10000000000E+01 0.  0.
    9000005    1    3    3    0    0  0.36291245597E+02  0.34827569293E+02 -0.10160102000E+03  0.11337451810E+03  0.10000000000E+01 0.  0.
<mgrwt>
<rscale>  0 0.12500140E+03</rscale>
<asrwt>0</asrwt>
<pdfrwt beam="1">  1        4 0.44543158E-02 0.12500140E+03</pdfrwt>
<pdfrwt beam="2">  1       -4 0.20756878E-01 0.12500140E+03</pdfrwt>
<totfact> 0.96598261E+03</totfact>
</mgrwt>
</event>
<event>
 5    1  0.3300771E-002  0.1249985E+03  0.7818608E-02  0.1235072E+00
          4   -1    0    0  501    0  0.00000000000E+00  0.00000000000E+00  0.36247148785E+01  0.38407626782E+01  0.12700000000E+01 0. -1.
         -4   -1    0    0    0  501 -0.00000000000E+00 -0.00000000000E+00 -0.10462424341E+04  0.10462432049E+04  0.12700000000E+01 0. -1.
         25    2    1    2    0    0  0.00000000000E+00  0.00000000000E+00 -0.10426177192E+04  0.10500839676E+04  0.12499852216E+03 0.  0.
    9000005    1    3    3    0    0  0.52010105171E+02 -0.25661556174E+01 -0.23108423239E+03  0.23688089550E+03  0.10000000000E+01 0.  0.
    9000005    1    3    3    0    0 -0.52010105171E+02  0.25661556174E+01 -0.81153348681E+03  0.81320307206E+03  0.10000000000E+01 0.  0.
<mgrwt>
<rscale>  0 0.12499852E+03</rscale>
<asrwt>0</asrwt>
<pdfrwt beam="1">  1        4 0.57432763E-03 0.12499852E+03</pdfrwt>
<pdfrwt beam="2">  1       -4 0.16097682E+00 0.12499852E+03</pdfrwt>
<totfact> 0.28993127E+03</totfact>
</mgrwt>
</event>
<event>
 5    1  0.3300771E-002  0.1250020E+03  0.7818608E-02  0.1235066E+00
          4   -1    0    0  501    0  0.00000000000E+00  0.00000000000E+00  0.51399492656E+02  0.51415180105E+02  0.12700000000E+01 0.  1.
         -4   -1    0    0    0  501 -0.00000000000E+00 -0.00000000000E+00 -0.75967717067E+02  0.75978332018E+02  0.12700000000E+01 0.  1.
         25    2    1    2    0    0  0.00000000000E+00  0.00000000000E+00 -0.24568224411E+02  0.12739351212E+03  0.12500203711E+03 0.  0.
    9000005    1    3    3    0    0 -0.61020208063E+02 -0.59253776778E+01 -0.24632076348E+02  0.66078098322E+02  0.10000000000E+01 0.  0.
    9000005    1    3    3    0    0  0.61020208063E+02  0.59253776778E+01  0.63851937460E-01  0.61315413802E+02  0.10000000000E+01 0.  0.
<mgrwt>
<rscale>  0 0.12500204E+03</rscale>
<asrwt>0</asrwt>
<pdfrwt beam="1">  1        4 0.79096375E-02 0.12500204E+03</pdfrwt>
<pdfrwt beam="2">  1       -4 0.11689364E-01 0.12500204E+03</pdfrwt>
<totfact> 0.10400129E+04</totfact>
</mgrwt>
</event>
<event>
 5    1  0.3300771E-002  0.1250012E+03  0.7818608E-02  0.1235067E+00
         -4   -1    0    0    0  501 -0.00000000000E+00  0.00000000000E+00  0.17322283148E+03  0.17322748698E+03  0.12700000000E+01 0.  1.
          4   -1    0    0  501    0  0.00000000000E+00 -0.00000000000E+00 -0.22528028236E+02  0.22563797469E+02  0.12700000000E+01 0.  1.
         25    2    1    2    0    0  0.00000000000E+00  0.00000000000E+00  0.15069480324E+03  0.19579128445E+03  0.12500121336E+03 0.  0.
    9000005    1    3    3    0    0  0.12871890861E+02 -0.60575940099E+02  0.88470443421E+02  0.10799606221E+03  0.10000000000E+01 0.  0.
    9000005    1    3    3    0    0 -0.12871890861E+02  0.60575940099E+02  0.62224359824E+02  0.87795222243E+02  0.10000000000E+01 0.  0.
<mgrwt>
<rscale>  0 0.12500121E+03</rscale>
<asrwt>0</asrwt>
<pdfrwt beam="2">  1        4 0.34689601E-02 0.12500121E+03</pdfrwt>
<pdfrwt beam="1">  1       -4 0.26652776E-01 0.12500121E+03</pdfrwt>
<totfact> 0.90846832E+03</totfact>
</mgrwt>
</event>
<event>
 5    1  0.3300771E-002  0.1250187E+03  0.7818608E-02  0.1235040E+00
         -4   -1    0    0    0  501 -0.00000000000E+00  0.00000000000E+00  0.10137836811E+03  0.10138632265E+03  0.12700000000E+01 0. -1.
          4   -1    0    0  501    0  0.00000000000E+00 -0.00000000000E+00 -0.38522995876E+02  0.38543924440E+02  0.12700000000E+01 0. -1.
         25    2    1    2    0    0  0.00000000000E+00  0.00000000000E+00  0.62855372236E+02  0.13993024709E+03  0.12501870353E+03 0.  0.
    9000005    1    3    3    0    0 -0.44302294927E+02  0.43698749252E+02  0.37968027209E+02  0.72902984247E+02  0.10000000000E+01 0.  0.
    9000005    1    3    3    0    0  0.44302294927E+02 -0.43698749252E+02  0.24887345028E+02  0.67027262845E+02  0.10000000000E+01 0.  0.
<mgrwt>
<rscale>  0 0.12501870E+03</rscale>
<asrwt>0</asrwt>
<pdfrwt beam="2">  1        4 0.59288367E-02 0.12501870E+03</pdfrwt>
<pdfrwt beam="1">  1       -4 0.15598893E-01 0.12501870E+03</pdfrwt>
<totfact> 0.10130762E+04</totfact>
</mgrwt>
</event>
<event>
 5    1  0.3300771E-002  0.1249998E+03  0.7818608E-02  0.1235070E+00
          4   -1    0    0  501    0  0.00000000000E+00  0.00000000000E+00  0.13406886020E+02  0.13466903607E+02  0.12700000000E+01 0. -1.
         -4   -1    0    0    0  501 -0.00000000000E+00 -0.00000000000E+00 -0.29064865564E+03  0.29065143029E+03  0.12700000000E+01 0. -1.
         25    2    1    2    0    0  0.00000000000E+00  0.00000000000E+00 -0.27724176962E+03  0.30411833389E+03  0.12499984875E+03 0.  0.
    9000005    1    3    3    0    0  0.29621167306E+01  0.61843061572E+02 -0.15925111353E+03  0.17086619198E+03  0.10000000000E+01 0.  0.
    9000005    1    3    3    0    0 -0.29621167306E+01 -0.61843061572E+02 -0.11799065609E+03  0.13325214192E+03  0.10000000000E+01 0.  0.
<mgrwt>
<rscale>  0 0.12499985E+03</rscale>
<asrwt>0</asrwt>
<pdfrwt beam="1">  1        4 0.20674282E-02 0.12499985E+03</pdfrwt>
<pdfrwt beam="2">  1       -4 0.44720003E-01 0.12499985E+03</pdfrwt>
<totfact> 0.75085384E+03</totfact>
</mgrwt>
</event>
<event>
 5    1  0.3300771E-002  0.1249987E+03  0.7818608E-02  0.1235071E+00
         -4   -1    0    0    0  501 -0.00000000000E+00  0.00000000000E+00  0.12507092767E+02  0.12571406821E+02  0.12700000000E+01 0.  1.
          4   -1    0    0  501    0  0.00000000000E+00 -0.00000000000E+00 -0.31144956530E+03  0.31145215463E+03  0.12700000000E+01 0.  1.
         25    2    1    2    0    0  0.00000000000E+00  0.00000000000E+00 -0.29894247253E+03  0.32402356145E+03  0.12499866597E+03 0.  0.
    9000005    1    3    3    0    0  0.58889166848E+02  0.17410839190E+02 -0.17948897959E+03  0.18970599644E+03  0.10000000000E+01 0.  0.
    9000005    1    3    3    0    0 -0.58889166848E+02 -0.17410839190E+02 -0.11945349295E+03  0.13431756501E+03  0.10000000000E+01 0.  0.
<mgrwt>
<rscale>  0 0.12499867E+03</rscale>
<asrwt>0</asrwt>
<pdfrwt beam="2">  1        4 0.47920458E-01 0.12499867E+03</pdfrwt>
<pdfrwt beam="1">  1       -4 0.19293148E-02 0.12499867E+03</pdfrwt>
<totfact> 0.72682269E+03</totfact>
</mgrwt>
</event>
<event>
 5    1  0.3300771E-002  0.1249996E+03  0.7818608E-02  0.1235070E+00
         -4   -1    0    0    0  501 -0.00000000000E+00  0.00000000000E+00  0.12858819611E+03  0.12859446753E+03  0.12700000000E+01 0. -1.
          4   -1    0    0  501    0  0.00000000000E+00 -0.00000000000E+00 -0.30357498590E+02  0.30384052078E+02  0.12700000000E+01 0. -1.
         25    2    1    2    0    0  0.00000000000E+00  0.00000000000E+00  0.98230697523E+02  0.15897851961E+03  0.12499959904E+03 0.  0.
    9000005    1    3    3    0    0 -0.41000893317E+01  0.62307423692E+02  0.52281971138E+02  0.81445873350E+02  0.10000000000E+01 0.  0.
    9000005    1    3    3    0    0  0.41000893317E+01 -0.62307423692E+02  0.45948726386E+02  0.77532646260E+02  0.10000000000E+01 0.  0.
<mgrwt>
<rscale>  0 0.12499960E+03</rscale>
<asrwt>0</asrwt>
<pdfrwt beam="2">  1        4 0.46729094E-02 0.12499960E+03</pdfrwt>
<pdfrwt beam="1">  1       -4 0.19785324E-01 0.12499960E+03</pdfrwt>
<totfact> 0.97540959E+03</totfact>
</mgrwt>
</event>
<event>
 5    1  0.3300771E-002  0.1249899E+03  0.7818608E-02  0.1235085E+00
          4   -1    0    0  501    0  0.00000000000E+00  0.00000000000E+00  0.43274169126E+02  0.43292800944E+02  0.12700000000E+01 0.  1.
         -4   -1    0    0    0  501 -0.00000000000E+00 -0.00000000000E+00 -0.90210292109E+02  0.90219231333E+02  0.12700000000E+01 0.  1.
         25    2    1    2    0    0  0.00000000000E+00  0.00000000000E+00 -0.46936122983E+02  0.13351203228E+03  0.12498985208E+03 0.  0.
    9000005    1    3    3    0    0 -0.49362308787E+02 -0.70334214826E+01 -0.63699145647E+02  0.80899244142E+02  0.10000000000E+01 0.  0.
    9000005    1    3    3    0    0  0.49362308787E+02  0.70334214826E+01  0.16763022665E+02  0.52612788135E+02  0.10000000000E+01 0.  0.
<mgrwt>
<rscale>  0 0.12498985E+03</rscale>
<asrwt>0</asrwt>
<pdfrwt beam="1">  1        4 0.66596853E-02 0.12498985E+03</pdfrwt>
<pdfrwt beam="2">  1       -4 0.13880627E-01 0.12498985E+03</pdfrwt>
<totfact> 0.10271880E+04</totfact>
</mgrwt>
</event>
<event>
 5    1  0.3300771E-002  0.1249957E+03  0.7818608E-02  0.1235076E+00
          4   -1    0    0  501    0  0.00000000000E+00  0.00000000000E+00  0.35537871807E+02  0.35560557259E+02  0.12700000000E+01 0. -1.
         -4   -1    0    0    0  501 -0.00000000000E+00 -0.00000000000E+00 -0.10984891904E+03  0.10985626024E+03  0.12700000000E+01 0. -1.
         25    2    1    2    0    0  0.00000000000E+00  0.00000000000E+00 -0.74311047236E+02  0.14541681750E+03  0.12499567621E+03 0.  0.
    9000005    1    3    3    0    0 -0.20979946916E+02 -0.57040530287E+02 -0.20248541705E+02  0.64068585978E+02  0.10000000000E+01 0.  0.
    9000005    1    3    3    0    0  0.20979946916E+02  0.57040530287E+02 -0.54062505531E+02  0.81348231525E+02  0.10000000000E+01 0.  0.
<mgrwt>
<rscale>  0 0.12499568E+03</rscale>
<asrwt>0</asrwt>
<pdfrwt beam="1">  1        4 0.54696747E-02 0.12499568E+03</pdfrwt>
<pdfrwt beam="2">  1       -4 0.16902143E-01 0.12499568E+03</pdfrwt>
<totfact> 0.10023502E+04</totfact>
</mgrwt>
</event>
<event>
 5    1  0.3300771E-002  0.1250010E+03  0.7818608E-02  0.1235068E+00
         -4   -1    0    0    0  501 -0.00000000000E+00  0.00000000000E+00  0.54209258110E+01  0.55677047918E+01  0.12700000000E+01 0.  1.
          4   -1    0    0  501    0  0.00000000000E+00 -0.00000000000E+00 -0.71082588971E+03  0.71082702424E+03  0.12700000000E+01 0.  1.
         25    2    1    2    0    0  0.00000000000E+00  0.00000000000E+00 -0.70540496390E+03  0.71639472903E+03  0.12500097873E+03 0.  0.
    9000005    1    3    3    0    0 -0.51486609961E+02 -0.47899569232E+01 -0.15158234528E+03  0.16016248653E+03  0.10000000000E+01 0.  0.
    9000005    1    3    3    0    0  0.51486609961E+02  0.47899569232E+01 -0.55382261862E+03  0.55623224249E+03  0.10000000000E+01 0.  0.
<mgrwt>
<rscale>  0 0.12500098E+03</rscale>
<asrwt>0</asrwt>
<pdfrwt beam="2">  1        4 0.10936913E+00 0.12500098E+03</pdfrwt>
<pdfrwt beam="1">  1       -4 0.84536711E-03 0.12500098E+03</pdfrwt>
<totfact> 0.42234371E+03</totfact>
</mgrwt>
</event>
<event>
 5    1  0.3300771E-002  0.1249995E+03  0.7818608E-02  0.1235070E+00
         -4   -1    0    0    0  501 -0.00000000000E+00  0.00000000000E+00  0.20900206161E+03  0.20900592015E+03  0.12700000000E+01 0. -1.
          4   -1    0    0  501    0  0.00000000000E+00 -0.00000000000E+00 -0.18664234035E+02  0.18707392446E+02  0.12700000000E+01 0. -1.
         25    2    1    2    0    0  0.00000000000E+00  0.00000000000E+00  0.19033782758E+03  0.22771331260E+03  0.12499945651E+03 0.  0.
    9000005    1    3    3    0    0  0.37815331268E+02 -0.48863972287E+02  0.78125515482E+02  0.99610658244E+02  0.10000000000E+01 0.  0.
    9000005    1    3    3    0    0 -0.37815331268E+02  0.48863972287E+02  0.11221231210E+03  0.12810265435E+03  0.10000000000E+01 0.  0.
<mgrwt>
<rscale>  0 0.12499946E+03</rscale>
<asrwt>0</asrwt>
<pdfrwt beam="2">  1        4 0.28750373E-02 0.12499946E+03</pdfrwt>
<pdfrwt beam="1">  1       -4 0.32157780E-01 0.12499946E+03</pdfrwt>
<totfact> 0.85663000E+03</totfact>
</mgrwt>
</event>
<event>
 5    1  0.3300771E-002  0.1249913E+03  0.7818608E-02  0.1235083E+00
          4   -1    0    0  501    0  0.00000000000E+00  0.00000000000E+00  0.21038206943E+02  0.21076504724E+02  0.12700000000E+01 0. -1.
         -4   -1    0    0    0  501 -0.00000000000E+00 -0.00000000000E+00 -0.18543902375E+03  0.18544337257E+03  0.12700000000E+01 0. -1.
         25    2    1    2    0    0  0.00000000000E+00  0.00000000000E+00 -0.16440081681E+03  0.20651987730E+03  0.12499132430E+03 0.  0.
    9000005    1    3    3    0    0  0.14404895072E+02 -0.39426760138E+01  0.18054109224E+02  0.23452005374E+02  0.10000000000E+01 0.  0.
    9000005    1    3    3    0    0 -0.14404895072E+02  0.39426760138E+01 -0.18245492603E+03  0.18306787192E+03  0.10000000000E+01 0.  0.
<mgrwt>
<rscale>  0 0.12499132E+03</rscale>
<asrwt>0</asrwt>
<pdfrwt beam="1">  1        4 0.32399278E-02 0.12499132E+03</pdfrwt>
<pdfrwt beam="2">  1       -4 0.28532360E-01 0.12499132E+03</pdfrwt>
<totfact> 0.89064683E+03</totfact>
</mgrwt>
</event>
<event>
 5    1  0.3300771E-002  0.1249986E+03  0.7818608E-02  0.1235072E+00
         -4   -1    0    0    0  501 -0.00000000000E+00  0.00000000000E+00  0.94172059329E+02  0.94180622520E+02  0.12700000000E+01 0.  1.
          4   -1    0    0  501    0  0.00000000000E+00 -0.00000000000E+00 -0.41458808071E+02  0.41478255348E+02  0.12700000000E+01 0.  1.
         25    2    1    2    0    0  0.00000000000E+00  0.00000000000E+00  0.52713251258E+02  0.13565887787E+03  0.12499857714E+03 0.  0.
    9000005    1    3    3    0    0 -0.10544818308E+02  0.61247383644E+02  0.33450583987E+02  0.70585953032E+02  0.10000000000E+01 0.  0.
    9000005    1    3    3    0    0  0.10544818308E+02 -0.61247383644E+02  0.19262667271E+02  0.65072924836E+02  0.10000000000E+01 0.  0.
<mgrwt>
<rscale>  0 0.12499858E+03</rscale>
<asrwt>0</asrwt>
<pdfrwt beam="2">  1        4 0.63804329E-02 0.12499858E+03</pdfrwt>
<pdfrwt beam="1">  1       -4 0.14490164E-01 0.12499858E+03</pdfrwt>
<totfact> 0.10224530E+04</totfact>
</mgrwt>
</event>
<event>
 5    1  0.3300771E-002  0.1249981E+03  0.7818608E-02  0.1235072E+00
          4   -1    0    0  501    0  0.00000000000E+00  0.00000000000E+00  0.24439975498E+02  0.24472950421E+02  0.12700000000E+01 0. -1.
         -4   -1    0    0    0  501 -0.00000000000E+00 -0.00000000000E+00 -0.15968227256E+03  0.15968732282E+03  0.12700000000E+01 0. -1.
         25    2    1    2    0    0  0.00000000000E+00  0.00000000000E+00 -0.13524229706E+03  0.18416027324E+03  0.12499810929E+03 0.  0.
    9000005    1    3    3    0    0  0.17032905791E+02 -0.21617538752E+02 -0.15027988413E+03  0.15278246443E+03  0.10000000000E+01 0.  0.
    9000005    1    3    3    0    0 -0.17032905791E+02  0.21617538752E+02  0.15037587068E+02  0.31377808818E+02  0.10000000000E+01 0.  0.
<mgrwt>
<rscale>  0 0.12499811E+03</rscale>
<asrwt>0</asrwt>
<pdfrwt beam="1">  1        4 0.37629214E-02 0.12499811E+03</pdfrwt>
<pdfrwt beam="2">  1       -4 0.24569428E-01 0.12499811E+03</pdfrwt>
<totfact> 0.92877392E+03</totfact>
</mgrwt>
</event>
<event>
 5    1  0.3300771E-002  0.1250027E+03  0.7818608E-02  0.1235065E+00
         -4   -1    0    0    0  501 -0.00000000000E+00  0.00000000000E+00  0.27140198113E+03  0.27140495253E+03  0.12700000000E+01 0.  1.
          4   -1    0    0  501    0  0.00000000000E+00 -0.00000000000E+00 -0.14362406043E+02  0.14418446773E+02  0.12700000000E+01 0.  1.
         25    2    1    2    0    0  0.00000000000E+00  0.00000000000E+00  0.25703957508E+03  0.28582339931E+03  0.12500268970E+03 0.  0.
    9000005    1    3    3    0    0  0.49507843811E+02 -0.32346450085E+02  0.17471117581E+03  0.18445138759E+03  0.10000000000E+01 0.  0.
    9000005    1    3    3    0    0 -0.49507843811E+02  0.32346450085E+02  0.82328399272E+02  0.10137201171E+03  0.10000000000E+01 0.  0.
<mgrwt>
<rscale>  0 0.12500269E+03</rscale>
<asrwt>0</asrwt>
<pdfrwt beam="2">  1        4 0.22141405E-02 0.12500269E+03</pdfrwt>
<pdfrwt beam="1">  1       -4 0.41758687E-01 0.12500269E+03</pdfrwt>
<totfact> 0.77407622E+03</totfact>
</mgrwt>
</event>
<event>
 5    1  0.3300771E-002  0.1249990E+03  0.7818608E-02  0.1235071E+00
          4   -1    0    0  501    0  0.00000000000E+00  0.00000000000E+00  0.16480421572E+04  0.16480426465E+04  0.12700000000E+01 0.  1.
         -4   -1    0    0    0  501 -0.00000000000E+00 -0.00000000000E+00 -0.21995504820E+01  0.25398665955E+01  0.12700000000E+01 0.  1.
         25    2    1    2    0    0  0.00000000000E+00  0.00000000000E+00  0.16458426067E+04  0.16505825131E+04  0.12499898629E+03 0.  0.
    9000005    1    3    3    0    0  0.19074269688E+01  0.49711660525E+00 -0.18537027280E+01  0.28847211935E+01  0.10000000000E+01 0.  0.
    9000005    1    3    3    0    0 -0.19074269688E+01 -0.49711660525E+00  0.16476963094E+04  0.16476977919E+04  0.10000000000E+01 0.  0.
<mgrwt>
<rscale>  0 0.12499899E+03</rscale>
<asrwt>0</asrwt>
<pdfrwt beam="1">  1        4 0.25357151E+00 0.12499899E+03</pdfrwt>
<pdfrwt beam="2">  1       -4 0.36460769E-03 0.12499899E+03</pdfrwt>
<totfact> 0.15149583E+03</totfact>
</mgrwt>
</event>
<event>
 5    1  0.3300771E-002  0.1249909E+03  0.7818608E-02  0.1235084E+00
          4   -1    0    0  501    0  0.00000000000E+00  0.00000000000E+00  0.11539561825E+02  0.11609237146E+02  0.12700000000E+01 0. -1.
         -4   -1    0    0    0  501 -0.00000000000E+00 -0.00000000000E+00 -0.33737023227E+03  0.33737262266E+03  0.12700000000E+01 0. -1.
         25    2    1    2    0    0  0.00000000000E+00  0.00000000000E+00 -0.32583067044E+03  0.34898185980E+03  0.12499085035E+03 0.  0.
    9000005    1    3    3    0    0  0.41884939947E+02  0.35843891966E+02 -0.24505814457E+03  0.25118444817E+03  0.10000000000E+01 0.  0.
    9000005    1    3    3    0    0 -0.41884939947E+02 -0.35843891966E+02 -0.80772525876E+02  0.97797411632E+02  0.10000000000E+01 0.  0.
<mgrwt>
<rscale>  0 0.12499085E+03</rscale>
<asrwt>0</asrwt>
<pdfrwt beam="1">  1        4 0.17808610E-02 0.12499085E+03</pdfrwt>
<pdfrwt beam="2">  1       -4 0.51908649E-01 0.12499085E+03</pdfrwt>
<totfact> 0.69850856E+03</totfact>
</mgrwt>
</event>
<event>
 5    1  0.3300771E-002  0.1249988E+03  0.7818608E-02  0.1235071E+00
          4   -1    0    0  501    0  0.00000000000E+00  0.00000000000E+00  0.13269373636E+04  0.13269379713E+04  0.12700000000E+01 0. -1.
         -4   -1    0    0    0  501 -0.00000000000E+00 -0.00000000000E+00 -0.28061399698E+01  0.30801495954E+01  0.12700000000E+01 0. -1.
         25    2    1    2    0    0  0.00000000000E+00  0.00000000000E+00  0.13241312236E+04  0.13300181209E+04  0.12499881863E+03 0.  0.
    9000005    1    3    3    0    0  0.51577399441E+02  0.35089293786E+02  0.62269743234E+03  0.62581513158E+03  0.10000000000E+01 0.  0.
    9000005    1    3    3    0    0 -0.51577399441E+02 -0.35089293786E+02  0.70143379128E+03  0.70420298935E+03  0.10000000000E+01 0.  0.
<mgrwt>
<rscale>  0 0.12499882E+03</rscale>
<asrwt>0</asrwt>
<pdfrwt beam="1">  1        4 0.20416528E+00 0.12499882E+03</pdfrwt>
<pdfrwt beam="2">  1       -4 0.45283837E-03 0.12499882E+03</pdfrwt>
<totfact> 0.21531500E+03</totfact>
</mgrwt>
</event>
<event>
 5    1  0.3300771E-002  0.1249989E+03  0.7818608E-02  0.1235071E+00
          4   -1    0    0  501    0  0.00000000000E+00  0.00000000000E+00  0.79182479991E+01  0.80194483211E+01  0.12700000000E+01 0.  1.
         -4   -1    0    0    0  501 -0.00000000000E+00 -0.00000000000E+00 -0.49007904112E+03  0.49008068667E+03  0.12700000000E+01 0.  1.
         25    2    1    2    0    0  0.00000000000E+00  0.00000000000E+00 -0.48216079312E+03  0.49810013499E+03  0.12499885621E+03 0.  0.
    9000005    1    3    3    0    0 -0.42536954207E+02 -0.50792698124E+01 -0.42237899031E+03  0.42454705618E+03  0.10000000000E+01 0.  0.
    9000005    1    3    3    0    0  0.42536954207E+02  0.50792698124E+01 -0.59781802808E+02  0.73553078807E+02  0.10000000000E+01 0.  0.
<mgrwt>
<rscale>  0 0.12499886E+03</rscale>
<asrwt>0</asrwt>
<pdfrwt beam="1">  1        4 0.12261036E-02 0.12499886E+03</pdfrwt>
<pdfrwt beam="2">  1       -4 0.75404663E-01 0.12499886E+03</pdfrwt>
<totfact> 0.56013493E+03</totfact>
</mgrwt>
</event>
<event>
 5    1  0.3300771E-002  0.1249992E+03  0.7818608E-02  0.1235070E+00
          4   -1    0    0  501    0  0.00000000000E+00  0.00000000000E+00  0.55863773083E+02  0.55878207229E+02  0.12700000000E+01 0. -1.
         -4   -1    0    0    0  501 -0.00000000000E+00 -0.00000000000E+00 -0.69894489145E+02  0.69906026298E+02  0.12700000000E+01 0. -1.
         25    2    1    2    0    0  0.00000000000E+00  0.00000000000E+00 -0.14030716061E+02  0.12578423353E+03  0.12499924964E+03 0.  0.
    9000005    1    3    3    0    0  0.29261426596E+02 -0.52192431278E+02 -0.25154153756E+02  0.64915425133E+02  0.10000000000E+01 0.  0.
    9000005    1    3    3    0    0 -0.29261426596E+02  0.52192431278E+02  0.11123437695E+02  0.60868808393E+02  0.10000000000E+01 0.  0.
<mgrwt>
<rscale>  0 0.12499925E+03</rscale>
<asrwt>0</asrwt>
<pdfrwt beam="1">  1        4 0.85964244E-02 0.12499925E+03</pdfrwt>
<pdfrwt beam="2">  1       -4 0.10754996E-01 0.12499925E+03</pdfrwt>
<totfact> 0.10435868E+04</totfact>
</mgrwt>
</event>
<event>
 5    1  0.3300771E-002  0.1250020E+03  0.7818608E-02  0.1235066E+00
          4   -1    0    0  501    0  0.00000000000E+00  0.00000000000E+00  0.15297606868E+02  0.15350233741E+02  0.12700000000E+01 0. -1.
         -4   -1    0    0    0  501 -0.00000000000E+00 -0.00000000000E+00 -0.25486600521E+03  0.25486916941E+03  0.12700000000E+01 0. -1.
         25    2    1    2    0    0  0.00000000000E+00  0.00000000000E+00 -0.23956839834E+03  0.27021940315E+03  0.12500203339E+03 0.  0.
    9000005    1    3    3    0    0  0.27554579610E+02 -0.53993933614E+02 -0.15262366289E+03  0.16422418274E+03  0.10000000000E+01 0.  0.
    9000005    1    3    3    0    0 -0.27554579610E+02  0.53993933614E+02 -0.86944735459E+02  0.10599522040E+03  0.10000000000E+01 0.  0.
<mgrwt>
<rscale>  0 0.12500203E+03</rscale>
<asrwt>0</asrwt>
<pdfrwt beam="1">  1        4 0.23577698E-02 0.12500203E+03</pdfrwt>
<pdfrwt beam="2">  1       -4 0.39214443E-01 0.12500203E+03</pdfrwt>
<totfact> 0.79489370E+03</totfact>
</mgrwt>
</event>
<event>
 5    1  0.3300771E-002  0.1249946E+03  0.7818608E-02  0.1235078E+00
          4   -1    0    0  501    0  0.00000000000E+00  0.00000000000E+00  0.46962183285E+03  0.46962355008E+03  0.12700000000E+01 0.  1.
         -4   -1    0    0    0  501 -0.00000000000E+00 -0.00000000000E+00 -0.82669252629E+01  0.83639077770E+01  0.12700000000E+01 0.  1.
         25    2    1    2    0    0  0.00000000000E+00  0.00000000000E+00  0.46135490758E+03  0.47798745785E+03  0.12499463634E+03 0.  0.
    9000005    1    3    3    0    0  0.50273900543E+02  0.25504472148E+02  0.33378343205E+03  0.33851192399E+03  0.10000000000E+01 0.  0.
    9000005    1    3    3    0    0 -0.50273900543E+02 -0.25504472148E+02  0.12757147553E+03  0.13947553386E+03  0.10000000000E+01 0.  0.
<mgrwt>
<rscale>  0 0.12499464E+03</rscale>
<asrwt>0</asrwt>
<pdfrwt beam="1">  1        4 0.72257098E-01 0.12499464E+03</pdfrwt>
<pdfrwt beam="2">  1       -4 0.12794271E-02 0.12499464E+03</pdfrwt>
<totfact> 0.57620456E+03</totfact>
</mgrwt>
</event>
<event>
 5    1  0.3300771E-002  0.1249980E+03  0.7818608E-02  0.1235072E+00
         -4   -1    0    0    0  501 -0.00000000000E+00  0.00000000000E+00  0.74208672018E+02  0.74219538551E+02  0.12700000000E+01 0. -1.
          4   -1    0    0  501    0  0.00000000000E+00 -0.00000000000E+00 -0.52614649379E+02  0.52629974627E+02  0.12700000000E+01 0. -1.
         25    2    1    2    0    0  0.00000000000E+00  0.00000000000E+00  0.21594022640E+02  0.12684951318E+03  0.12499798870E+03 0.  0.
    9000005    1    3    3    0    0 -0.69808935885E+01 -0.36044629466E+02  0.62114583135E+02  0.72160720802E+02  0.10000000000E+01 0.  0.
    9000005    1    3    3    0    0  0.69808935885E+01  0.36044629466E+02 -0.40520560496E+02  0.54688792376E+02  0.10000000000E+01 0.  0.
<mgrwt>
<rscale>  0 0.12499799E+03</rscale>
<asrwt>0</asrwt>
<pdfrwt beam="2">  1        4 0.80965762E-02 0.12499799E+03</pdfrwt>
<pdfrwt beam="1">  1       -4 0.11418733E-01 0.12499799E+03</pdfrwt>
<totfact> 0.10412889E+04</totfact>
</mgrwt>
</event>
<event>
 5    1  0.3300771E-002  0.1250047E+03  0.7818608E-02  0.1235062E+00
         -4   -1    0    0    0  501 -0.00000000000E+00  0.00000000000E+00  0.31894520043E+03  0.31894772891E+03  0.12700000000E+01 0.  1.
          4   -1    0    0  501    0  0.00000000000E+00 -0.00000000000E+00 -0.12212820005E+02  0.12278675518E+02  0.12700000000E+01 0.  1.
         25    2    1    2    0    0  0.00000000000E+00  0.00000000000E+00  0.30673238042E+03  0.33122640442E+03  0.12500471107E+03 0.  0.
    9000005    1    3    3    0    0 -0.25349837099E+02 -0.35804354445E+01  0.23068284127E+01  0.25724603326E+02  0.10000000000E+01 0.  0.
    9000005    1    3    3    0    0  0.25349837099E+02  0.35804354445E+01  0.30442555201E+03  0.30550180110E+03  0.10000000000E+01 0.  0.
<mgrwt>
<rscale>  0 0.12500471E+03</rscale>
<asrwt>0</asrwt>
<pdfrwt beam="2">  1        4 0.18841560E-02 0.12500471E+03</pdfrwt>
<pdfrwt beam="1">  1       -4 0.49073744E-01 0.12500471E+03</pdfrwt>
<totfact> 0.71832999E+03</totfact>
</mgrwt>
</event>
<event>
 5    1  0.3300771E-002  0.1249997E+03  0.7818608E-02  0.1235070E+00
          4   -1    0    0  501    0  0.00000000000E+00  0.00000000000E+00  0.21172270974E+03  0.21172651869E+03  0.12700000000E+01 0. -1.
         -4   -1    0    0    0  501 -0.00000000000E+00 -0.00000000000E+00 -0.18423919485E+02  0.18467639513E+02  0.12700000000E+01 0. -1.
         25    2    1    2    0    0  0.00000000000E+00  0.00000000000E+00  0.19329879025E+03  0.23019415821E+03  0.12499971264E+03 0.  0.
    9000005    1    3    3    0    0  0.48672168155E+02 -0.35520552264E+02  0.66136034699E+02  0.89474379975E+02  0.10000000000E+01 0.  0.
    9000005    1    3    3    0    0 -0.48672168155E+02  0.35520552264E+02  0.12716275555E+03  0.14071977823E+03  0.10000000000E+01 0.  0.
<mgrwt>
<rscale>  0 0.12499971E+03</rscale>
<asrwt>0</asrwt>
<pdfrwt beam="1">  1        4 0.32576384E-01 0.12499971E+03</pdfrwt>
<pdfrwt beam="2">  1       -4 0.28381049E-02 0.12499971E+03</pdfrwt>
<totfact> 0.85280335E+03</totfact>
</mgrwt>
</event>
<event>
 5    1  0.3300771E-002  0.1250009E+03  0.7818608E-02  0.1235068E+00
          4   -1    0    0  501    0  0.00000000000E+00  0.00000000000E+00  0.13428928263E+02  0.13488847775E+02  0.12700000000E+01 0.  1.
         -4   -1    0    0    0  501 -0.00000000000E+00 -0.00000000000E+00 -0.29017863133E+03  0.29018141046E+03  0.12700000000E+01 0.  1.
         25    2    1    2    0    0  0.00000000000E+00  0.00000000000E+00 -0.27674970306E+03  0.30367025824E+03  0.12500091037E+03 0.  0.
    9000005    1    3    3    0    0 -0.48089322414E+02  0.39465233926E+02 -0.15279199813E+03  0.16497418681E+03  0.10000000000E+01 0.  0.
    9000005    1    3    3    0    0  0.48089322414E+02 -0.39465233926E+02 -0.12395770493E+03  0.13869607143E+03  0.10000000000E+01 0.  0.
<mgrwt>
<rscale>  0 0.12500091E+03</rscale>
<asrwt>0</asrwt>
<pdfrwt beam="1">  1        4 0.20708121E-02 0.12500091E+03</pdfrwt>
<pdfrwt beam="2">  1       -4 0.44647685E-01 0.12500091E+03</pdfrwt>
<totfact> 0.75139226E+03</totfact>
</mgrwt>
</event>
<event>
 5    1  0.3300771E-002  0.1250001E+03  0.7818608E-02  0.1235069E+00
          4   -1    0    0  501    0  0.00000000000E+00  0.00000000000E+00  0.62513019523E+03  0.62513148528E+03  0.12700000000E+01 0. -1.
         -4   -1    0    0    0  501 -0.00000000000E+00 -0.00000000000E+00 -0.61828694523E+01  0.63119549003E+01  0.12700000000E+01 0. -1.
         25    2    1    2    0    0  0.00000000000E+00  0.00000000000E+00  0.61894732578E+03  0.63144344018E+03  0.12500010424E+03 0.  0.
    9000005    1    3    3    0    0 -0.27417087394E+02  0.32583377792E+02  0.54051666008E+03  0.54219243172E+03  0.10000000000E+01 0.  0.
    9000005    1    3    3    0    0  0.27417087394E+02 -0.32583377792E+02  0.78430665696E+02  0.89251008460E+02  0.10000000000E+01 0.  0.
<mgrwt>
<rscale>  0 0.12500010E+03</rscale>
<asrwt>0</asrwt>
<pdfrwt beam="1">  1        4 0.96183891E-01 0.12500010E+03</pdfrwt>
<pdfrwt beam="2">  1       -4 0.96123971E-03 0.12500010E+03</pdfrwt>
<totfact> 0.46941015E+03</totfact>
</mgrwt>
</event>
<event>
 5    1  0.3300771E-002  0.1250059E+03  0.7818608E-02  0.1235060E+00
          4   -1    0    0  501    0  0.00000000000E+00  0.00000000000E+00  0.17298130830E+03  0.17298597030E+03  0.12700000000E+01 0. -1.
         -4   -1    0    0    0  501 -0.00000000000E+00 -0.00000000000E+00 -0.22561233780E+02  0.22596950451E+02  0.12700000000E+01 0. -1.
         25    2    1    2    0    0  0.00000000000E+00  0.00000000000E+00  0.15042007452E+03  0.19558292075E+03  0.12500592015E+03 0.  0.
    9000005    1    3    3    0    0 -0.35960376888E+02 -0.42529777680E+02  0.11956522741E+03  0.13190441350E+03  0.10000000000E+01 0.  0.
    9000005    1    3    3    0    0  0.35960376888E+02  0.42529777680E+02  0.30854847108E+02  0.63678507249E+02  0.10000000000E+01 0.  0.
<mgrwt>
<rscale>  0 0.12500592E+03</rscale>
<asrwt>0</asrwt>
<pdfrwt beam="1">  1        4 0.26615615E-01 0.12500592E+03</pdfrwt>
<pdfrwt beam="2">  1       -4 0.34740650E-02 0.12500592E+03</pdfrwt>
<totfact> 0.90872831E+03</totfact>
</mgrwt>
</event>
<event>
 5    1  0.3300771E-002  0.1250009E+03  0.7818608E-02  0.1235068E+00
          4   -1    0    0  501    0  0.00000000000E+00  0.00000000000E+00  0.31313403635E+02  0.31339147200E+02  0.12700000000E+01 0.  1.
         -4   -1    0    0    0  501 -0.00000000000E+00 -0.00000000000E+00 -0.12466852434E+03  0.12467499292E+03  0.12700000000E+01 0.  1.
         25    2    1    2    0    0  0.00000000000E+00  0.00000000000E+00 -0.93355120702E+02  0.15601414012E+03  0.12500093342E+03 0.  0.
    9000005    1    3    3    0    0  0.21475607674E+02 -0.58644426314E+02 -0.43904107297E+02  0.76347502253E+02  0.10000000000E+01 0.  0.
    9000005    1    3    3    0    0 -0.21475607674E+02  0.58644426314E+02 -0.49451013405E+02  0.79666637870E+02  0.10000000000E+01 0.  0.
<mgrwt>
<rscale>  0 0.12500093E+03</rscale>
<asrwt>0</asrwt>
<pdfrwt beam="1">  1        4 0.48199246E-02 0.12500093E+03</pdfrwt>
<pdfrwt beam="2">  1       -4 0.19182251E-01 0.12500093E+03</pdfrwt>
<totfact> 0.98114718E+03</totfact>
</mgrwt>
</event>
<event>
 5    1  0.3300771E-002  0.1250005E+03  0.7818608E-02  0.1235068E+00
          4   -1    0    0  501    0  0.00000000000E+00  0.00000000000E+00  0.87018715931E+01  0.87940587457E+01  0.12700000000E+01 0. -1.
         -4   -1    0    0    0  501 -0.00000000000E+00 -0.00000000000E+00 -0.44644296397E+03  0.44644477035E+03  0.12700000000E+01 0. -1.
         25    2    1    2    0    0  0.00000000000E+00  0.00000000000E+00 -0.43774109237E+03  0.45523882910E+03  0.12500051026E+03 0.  0.
    9000005    1    3    3    0    0  0.61969348217E+02  0.76899603986E+01 -0.22775130897E+03  0.23615883288E+03  0.10000000000E+01 0.  0.
    9000005    1    3    3    0    0 -0.61969348217E+02 -0.76899603986E+01 -0.20998978341E+03  0.21907999622E+03  0.10000000000E+01 0.  0.
<mgrwt>
<rscale>  0 0.12500051E+03</rscale>
<asrwt>0</asrwt>
<pdfrwt beam="1">  1        4 0.13459801E-02 0.12500051E+03</pdfrwt>
<pdfrwt beam="2">  1       -4 0.68690745E-01 0.12500051E+03</pdfrwt>
<totfact> 0.59511966E+03</totfact>
</mgrwt>
</event>
<event>
 5    1  0.3300771E-002  0.1249762E+03  0.7818608E-02  0.1235106E+00
         -4   -1    0    0    0  501 -0.00000000000E+00  0.00000000000E+00  0.10555032909E+02  0.10631162669E+02  0.12700000000E+01 0.  1.
          4   -1    0    0  501    0  0.00000000000E+00 -0.00000000000E+00 -0.36853684779E+03  0.36853903603E+03  0.12700000000E+01 0.  1.
         25    2    1    2    0    0  0.00000000000E+00  0.00000000000E+00 -0.35798181488E+03  0.37917019870E+03  0.12497623693E+03 0.  0.
    9000005    1    3    3    0    0 -0.26218855225E+02 -0.25971375781E+02 -0.26030331861E+02  0.45172103184E+02  0.10000000000E+01 0.  0.
    9000005    1    3    3    0    0  0.26218855225E+02  0.25971375781E+02 -0.33195148302E+03  0.33399809552E+03  0.10000000000E+01 0.  0.
<mgrwt>
<rscale>  0 0.12497624E+03</rscale>
<asrwt>0</asrwt>
<pdfrwt beam="2">  1        4 0.56703991E-01 0.12497624E+03</pdfrwt>
<pdfrwt beam="1">  1       -4 0.16298760E-02 0.12497624E+03</pdfrwt>
<totfact> 0.66665356E+03</totfact>
</mgrwt>
</event>
<event>
 5    1  0.3300771E-002  0.1250003E+03  0.7818608E-02  0.1235069E+00
         -4   -1    0    0    0  501 -0.00000000000E+00  0.00000000000E+00  0.74434345276E+01  0.75510010970E+01  0.12700000000E+01 0.  1.
          4   -1    0    0  501    0  0.00000000000E+00 -0.00000000000E+00 -0.52092043006E+03  0.52092197818E+03  0.12700000000E+01 0.  1.
         25    2    1    2    0    0  0.00000000000E+00  0.00000000000E+00 -0.51347699553E+03  0.52847297927E+03  0.12500025955E+03 0.  0.
    9000005    1    3    3    0    0 -0.23786005021E+02 -0.16382625953E+00 -0.50105361642E+03  0.50161890654E+03  0.10000000000E+01 0.  0.
    9000005    1    3    3    0    0  0.23786005021E+02  0.16382625953E+00 -0.12423379110E+02  0.26854072734E+02  0.10000000000E+01 0.  0.
<mgrwt>
<rscale>  0 0.12500026E+03</rscale>
<asrwt>0</asrwt>
<pdfrwt beam="2">  1        4 0.80149970E-01 0.12500026E+03</pdfrwt>
<pdfrwt beam="1">  1       -4 0.11535376E-02 0.12500026E+03</pdfrwt>
<totfact> 0.53720670E+03</totfact>
</mgrwt>
</event>
<event>
 5    1  0.3300771E-002  0.1250005E+03  0.7818608E-02  0.1235068E+00
         -4   -1    0    0    0  501 -0.00000000000E+00  0.00000000000E+00  0.87202125987E+02  0.87211373551E+02  0.12700000000E+01 0. -1.
          4   -1    0    0  501    0  0.00000000000E+00 -0.00000000000E+00 -0.44775093091E+02  0.44793100599E+02  0.12700000000E+01 0. -1.
         25    2    1    2    0    0  0.00000000000E+00  0.00000000000E+00  0.42427032896E+02  0.13200447415E+03  0.12500051230E+03 0.  0.
    9000005    1    3    3    0    0  0.51714571821E+02 -0.18526046600E+02  0.52676709534E+02  0.76114696798E+02  0.10000000000E+01 0.  0.
    9000005    1    3    3    0    0 -0.51714571821E+02  0.18526046600E+02 -0.10249676638E+02  0.55889777352E+02  0.10000000000E+01 0.  0.
<mgrwt>
<rscale>  0 0.12500051E+03</rscale>
<asrwt>0</asrwt>
<pdfrwt beam="2">  1        4 0.68905724E-02 0.12500051E+03</pdfrwt>
<pdfrwt beam="1">  1       -4 0.13417808E-01 0.12500051E+03</pdfrwt>
<totfact> 0.10301484E+04</totfact>
</mgrwt>
</event>
<event>
 5    1  0.3300771E-002  0.1250056E+03  0.7818608E-02  0.1235061E+00
         -4   -1    0    0    0  501 -0.00000000000E+00  0.00000000000E+00  0.21956650057E+03  0.21957017346E+03  0.12700000000E+01 0.  1.
          4   -1    0    0  501    0  0.00000000000E+00 -0.00000000000E+00 -0.17765830680E+02  0.17811166154E+02  0.12700000000E+01 0.  1.
         25    2    1    2    0    0  0.00000000000E+00  0.00000000000E+00  0.20180066989E+03  0.23738133962E+03  0.12500555999E+03 0.  0.
    9000005    1    3    3    0    0 -0.45396374285E+02 -0.31747190294E+02  0.45965285460E+02  0.71989737861E+02  0.10000000000E+01 0.  0.
    9000005    1    3    3    0    0  0.45396374285E+02  0.31747190294E+02  0.15583538443E+03  0.16539160176E+03  0.10000000000E+01 0.  0.
<mgrwt>
<rscale>  0 0.12500556E+03</rscale>
<asrwt>0</asrwt>
<pdfrwt beam="2">  1        4 0.27369746E-02 0.12500556E+03</pdfrwt>
<pdfrwt beam="1">  1       -4 0.33783232E-01 0.12500556E+03</pdfrwt>
<totfact> 0.84178485E+03</totfact>
</mgrwt>
</event>
<event>
 5    1  0.3300771E-002  0.1249935E+03  0.7818608E-02  0.1235079E+00
         -4   -1    0    0    0  501 -0.00000000000E+00  0.00000000000E+00  0.15343387812E+02  0.15395858195E+02  0.12700000000E+01 0.  1.
          4   -1    0    0  501    0  0.00000000000E+00 -0.00000000000E+00 -0.25407353354E+03  0.25407670760E+03  0.12700000000E+01 0.  1.
         25    2    1    2    0    0  0.00000000000E+00  0.00000000000E+00 -0.23873014573E+03  0.26947256580E+03  0.12499352478E+03 0.  0.
    9000005    1    3    3    0    0 -0.39364739774E+02  0.41239216938E+02 -0.17452346258E+03  0.18360200092E+03  0.10000000000E+01 0.  0.
    9000005    1    3    3    0    0  0.39364739774E+02 -0.41239216938E+02 -0.64206683144E+02  0.85870564872E+02  0.10000000000E+01 0.  0.
<mgrwt>
<rscale>  0 0.12499352E+03</rscale>
<asrwt>0</asrwt>
<pdfrwt beam="2">  1        4 0.39092513E-01 0.12499352E+03</pdfrwt>
<pdfrwt beam="1">  1       -4 0.23648017E-02 0.12499352E+03</pdfrwt>
<totfact> 0.79606296E+03</totfact>
</mgrwt>
</event>
<event>
 5    1  0.3300771E-002  0.1250061E+03  0.7818608E-02  0.1235060E+00
          4   -1    0    0  501    0  0.00000000000E+00  0.00000000000E+00  0.10136077939E+04  0.10136085896E+04  0.12700000000E+01 0.  1.
         -4   -1    0    0    0  501 -0.00000000000E+00 -0.00000000000E+00 -0.37487426703E+01  0.39580262263E+01  0.12700000000E+01 0.  1.
         25    2    1    2    0    0  0.00000000000E+00  0.00000000000E+00  0.10098590513E+04  0.10175666158E+04  0.12500605640E+03 0.  0.
    9000005    1    3    3    0    0 -0.26898832944E+02  0.47708468015E+02  0.74994409850E+03  0.75194201639E+03  0.10000000000E+01 0.  0.
    9000005    1    3    3    0    0  0.26898832944E+02 -0.47708468015E+02  0.25991495277E+03  0.26562459940E+03  0.10000000000E+01 0.  0.
<mgrwt>
<rscale>  0 0.12500606E+03</rscale>
<asrwt>0</asrwt>
<pdfrwt beam="1">  1        4 0.15595594E+00 0.12500606E+03</pdfrwt>
<pdfrwt beam="2">  1       -4 0.59288913E-03 0.12500606E+03</pdfrwt>
<totfact> 0.30025449E+03</totfact>
</mgrwt>
</event>
<event>
 5    1  0.3300771E-002  0.1250004E+03  0.7818608E-02  0.1235069E+00
          4   -1    0    0  501    0  0.00000000000E+00  0.00000000000E+00  0.15740498957E+02  0.15791649927E+02  0.12700000000E+01 0.  1.
         -4   -1    0    0    0  501 -0.00000000000E+00 -0.00000000000E+00 -0.24771163515E+03  0.24771489073E+03  0.12700000000E+01 0.  1.
         25    2    1    2    0    0  0.00000000000E+00  0.00000000000E+00 -0.23197113619E+03  0.26350654066E+03  0.12500035577E+03 0.  0.
    9000005    1    3    3    0    0 -0.60260756060E+02 -0.16475502268E+02 -0.11267161502E+03  0.12883591785E+03  0.10000000000E+01 0.  0.
    9000005    1    3    3    0    0  0.60260756060E+02  0.16475502268E+02 -0.11929952117E+03  0.13467062281E+03  0.10000000000E+01 0.  0.
<mgrwt>
<rscale>  0 0.12500036E+03</rscale>
<asrwt>0</asrwt>
<pdfrwt beam="1">  1        4 0.24258005E-02 0.12500036E+03</pdfrwt>
<pdfrwt beam="2">  1       -4 0.38113665E-01 0.12500036E+03</pdfrwt>
<totfact> 0.80415837E+03</totfact>
</mgrwt>
</event>
<event>
 5    1  0.3300771E-002  0.1250038E+03  0.7818608E-02  0.1235063E+00
          4   -1    0    0  501    0  0.00000000000E+00  0.00000000000E+00  0.49919728880E+02  0.49935881203E+02  0.12700000000E+01 0. -1.
         -4   -1    0    0    0  501 -0.00000000000E+00 -0.00000000000E+00 -0.78221456849E+02  0.78231766000E+02  0.12700000000E+01 0. -1.
         25    2    1    2    0    0  0.00000000000E+00  0.00000000000E+00 -0.28301727969E+02  0.12816764720E+03  0.12500383188E+03 0.  0.
    9000005    1    3    3    0    0  0.39449858017E+02 -0.19023706971E+02  0.31556528815E+02  0.53990806952E+02  0.10000000000E+01 0.  0.
    9000005    1    3    3    0    0 -0.39449858017E+02  0.19023706971E+02 -0.59858256783E+02  0.74176840251E+02  0.10000000000E+01 0.  0.
<mgrwt>
<rscale>  0 0.12500383E+03</rscale>
<asrwt>0</asrwt>
<pdfrwt beam="1">  1        4 0.76819938E-02 0.12500383E+03</pdfrwt>
<pdfrwt beam="2">  1       -4 0.12036106E-01 0.12500383E+03</pdfrwt>
<totfact> 0.10382970E+04</totfact>
</mgrwt>
</event>
<event>
 5    1  0.3300771E-002  0.1249959E+03  0.7818608E-02  0.1235076E+00
          4   -1    0    0  501    0  0.00000000000E+00  0.00000000000E+00  0.46167258329E+02  0.46184723033E+02  0.12700000000E+01 0. -1.
         -4   -1    0    0    0  501 -0.00000000000E+00 -0.00000000000E+00 -0.84567042092E+02  0.84576577775E+02  0.12700000000E+01 0. -1.
         25    2    1    2    0    0  0.00000000000E+00  0.00000000000E+00 -0.38399783763E+02  0.13076130081E+03  0.12499589752E+03 0.  0.
    9000005    1    3    3    0    0  0.28653205802E+02 -0.15100860076E+02  0.36706167436E+02  0.48963097385E+02  0.10000000000E+01 0.  0.
    9000005    1    3    3    0    0 -0.28653205802E+02  0.15100860076E+02 -0.75105951198E+02  0.81798203422E+02  0.10000000000E+01 0.  0.
<mgrwt>
<rscale>  0 0.12499590E+03</rscale>
<asrwt>0</asrwt>
<pdfrwt beam="1">  1        4 0.71047321E-02 0.12499590E+03</pdfrwt>
<pdfrwt beam="2">  1       -4 0.13012391E-01 0.12499590E+03</pdfrwt>
<totfact> 0.10329165E+04</totfact>
</mgrwt>
</event>
<event>
 5    1  0.3300771E-002  0.1249992E+03  0.7818608E-02  0.1235070E+00
          4   -1    0    0  501    0  0.00000000000E+00  0.00000000000E+00  0.28824624297E+02  0.28852588547E+02  0.12700000000E+01 0.  1.
         -4   -1    0    0    0  501 -0.00000000000E+00 -0.00000000000E+00 -0.13541947608E+03  0.13542543115E+03  0.12700000000E+01 0.  1.
         25    2    1    2    0    0  0.00000000000E+00  0.00000000000E+00 -0.10659485179E+03  0.16427801970E+03  0.12499922131E+03 0.  0.
    9000005    1    3    3    0    0  0.25636379638E+02 -0.31548746455E+02 -0.11567369483E+03  0.12261301334E+03  0.10000000000E+01 0.  0.
    9000005    1    3    3    0    0 -0.25636379638E+02  0.31548746455E+02  0.90788430474E+01  0.41665006359E+02  0.10000000000E+01 0.  0.
<mgrwt>
<rscale>  0 0.12499922E+03</rscale>
<asrwt>0</asrwt>
<pdfrwt beam="1">  1        4 0.44371669E-02 0.12499922E+03</pdfrwt>
<pdfrwt beam="2">  1       -4 0.20836374E-01 0.12499922E+03</pdfrwt>
<totfact> 0.96525988E+03</totfact>
</mgrwt>
</event>
<event>
 5    1  0.3300771E-002  0.1250002E+03  0.7818608E-02  0.1235069E+00
          4   -1    0    0  501    0  0.00000000000E+00  0.00000000000E+00  0.47034376857E+01  0.48718811627E+01  0.12700000000E+01 0. -1.
         -4   -1    0    0    0  501 -0.00000000000E+00 -0.00000000000E+00 -0.81573402928E+03  0.81573501790E+03  0.12700000000E+01 0. -1.
         25    2    1    2    0    0  0.00000000000E+00  0.00000000000E+00 -0.81103059160E+03  0.82060689906E+03  0.12500024914E+03 0.  0.
    9000005    1    3    3    0    0 -0.17981570148E+02 -0.43263731123E+02 -0.13403083414E+03  0.14198715363E+03  0.10000000000E+01 0.  0.
    9000005    1    3    3    0    0  0.17981570148E+02  0.43263731123E+02 -0.67699975745E+03  0.67861974543E+03  0.10000000000E+01 0.  0.
<mgrwt>
<rscale>  0 0.12500025E+03</rscale>
<asrwt>0</asrwt>
<pdfrwt beam="1">  1        4 0.73663968E-03 0.12500025E+03</pdfrwt>
<pdfrwt beam="2">  1       -4 0.12551047E+00 0.12500025E+03</pdfrwt>
<totfact> 0.37361000E+03</totfact>
</mgrwt>
</event>
<event>
 5    1  0.3300771E-002  0.1250007E+03  0.7818608E-02  0.1235068E+00
          4   -1    0    0  501    0  0.00000000000E+00  0.00000000000E+00  0.11515145694E+02  0.11584967862E+02  0.12700000000E+01 0. -1.
         -4   -1    0    0    0  501 -0.00000000000E+00 -0.00000000000E+00 -0.33813440597E+03  0.33813679096E+03  0.12700000000E+01 0. -1.
         25    2    1    2    0    0  0.00000000000E+00  0.00000000000E+00 -0.32661926028E+03  0.34972175882E+03  0.12500066964E+03 0.  0.
    9000005    1    3    3    0    0 -0.63647178641E+01 -0.40894507946E+02 -0.32309316806E+02  0.52514401511E+02  0.10000000000E+01 0.  0.
    9000005    1    3    3    0    0  0.63647178641E+01  0.40894507946E+02 -0.29430994347E+03  0.29720735731E+03  0.10000000000E+01 0.  0.
<mgrwt>
<rscale>  0 0.12500067E+03</rscale>
<asrwt>0</asrwt>
<pdfrwt beam="1">  1        4 0.17771155E-02 0.12500067E+03</pdfrwt>
<pdfrwt beam="2">  1       -4 0.52026225E-01 0.12500067E+03</pdfrwt>
<totfact> 0.69754146E+03</totfact>
</mgrwt>
</event>
<event>
 5    1  0.3300771E-002  0.1249767E+03  0.7818608E-02  0.1235106E+00
          4   -1    0    0  501    0  0.00000000000E+00  0.00000000000E+00  0.29758001924E+02  0.29785089870E+02  0.12700000000E+01 0.  1.
         -4   -1    0    0    0  501 -0.00000000000E+00 -0.00000000000E+00 -0.13112849637E+03  0.13113464630E+03  0.12700000000E+01 0.  1.
         25    2    1    2    0    0  0.00000000000E+00  0.00000000000E+00 -0.10137049444E+03  0.16091973617E+03  0.12497673521E+03 0.  0.
    9000005    1    3    3    0    0  0.12280474166E+02  0.17258224647E+02  0.25000297990E+02  0.32782179050E+02  0.10000000000E+01 0.  0.
    9000005    1    3    3    0    0 -0.12280474166E+02 -0.17258224647E+02 -0.12637079243E+03  0.12813755712E+03  0.10000000000E+01 0.  0.
<mgrwt>
<rscale>  0 0.12497674E+03</rscale>
<asrwt>0</asrwt>
<pdfrwt beam="1">  1        4 0.45807110E-02 0.12497674E+03</pdfrwt>
<pdfrwt beam="2">  1       -4 0.20176171E-01 0.12497674E+03</pdfrwt>
<totfact> 0.97216583E+03</totfact>
</mgrwt>
</event>
<event>
 5    1  0.3300771E-002  0.1249931E+03  0.7818608E-02  0.1235080E+00
         -4   -1    0    0    0  501 -0.00000000000E+00  0.00000000000E+00  0.91574505735E+01  0.92450960517E+01  0.12700000000E+01 0.  1.
          4   -1    0    0  501    0  0.00000000000E+00 -0.00000000000E+00 -0.42439796767E+03  0.42439986789E+03  0.12700000000E+01 0.  1.
         25    2    1    2    0    0  0.00000000000E+00  0.00000000000E+00 -0.41524051710E+03  0.43364496394E+03  0.12499307065E+03 0.  0.
    9000005    1    3    3    0    0 -0.42190105404E+02 -0.10388570000E+02 -0.36342814179E+03  0.36601767939E+03  0.10000000000E+01 0.  0.
    9000005    1    3    3    0    0  0.42190105404E+02  0.10388570000E+02 -0.51812375308E+02  0.67627284550E+02  0.10000000000E+01 0.  0.
<mgrwt>
<rscale>  0 0.12499307E+03</rscale>
<asrwt>0</asrwt>
<pdfrwt beam="2">  1        4 0.65298868E-01 0.12499307E+03</pdfrwt>
<pdfrwt beam="1">  1       -4 0.14157270E-02 0.12499307E+03</pdfrwt>
<totfact> 0.61416370E+03</totfact>
</mgrwt>
</event>
<event>
 5    1  0.3300771E-002  0.1250023E+03  0.7818608E-02  0.1235066E+00
         -4   -1    0    0    0  501 -0.00000000000E+00  0.00000000000E+00  0.12891777055E+02  0.12954181396E+02  0.12700000000E+01 0. -1.
          4   -1    0    0  501    0  0.00000000000E+00 -0.00000000000E+00 -0.30221881714E+03  0.30222148556E+03  0.12700000000E+01 0. -1.
         25    2    1    2    0    0  0.00000000000E+00  0.00000000000E+00 -0.28932704009E+03  0.31517566696E+03  0.12500225964E+03 0.  0.
    9000005    1    3    3    0    0  0.33357309403E+02 -0.24833604935E+02 -0.27048824609E+02  0.49619118669E+02  0.10000000000E+01 0.  0.
    9000005    1    3    3    0    0 -0.33357309403E+02  0.24833604935E+02 -0.26227821548E+03  0.26555654829E+03  0.10000000000E+01 0.  0.
<mgrwt>
<rscale>  0 0.12500226E+03</rscale>
<asrwt>0</asrwt>
<pdfrwt beam="2">  1        4 0.46500203E-01 0.12500226E+03</pdfrwt>
<pdfrwt beam="1">  1       -4 0.19883561E-02 0.12500226E+03</pdfrwt>
<totfact> 0.73729921E+03</totfact>
</mgrwt>
</event>
<event>
 5    1  0.3300771E-002  0.1250026E+03  0.7818608E-02  0.1235065E+00
          4   -1    0    0  501    0  0.00000000000E+00  0.00000000000E+00  0.69018933614E+02  0.69030617100E+02  0.12700000000E+01 0. -1.
         -4   -1    0    0    0  501 -0.00000000000E+00 -0.00000000000E+00 -0.56575556731E+02  0.56589809325E+02  0.12700000000E+01 0. -1.
         25    2    1    2    0    0  0.00000000000E+00  0.00000000000E+00  0.12443376883E+02  0.12562042642E+03  0.12500261560E+03 0.  0.
    9000005    1    3    3    0    0  0.14815317702E+02 -0.60566021304E+02  0.10446858888E+02  0.63228739003E+02  0.10000000000E+01 0.  0.
    9000005    1    3    3    0    0 -0.14815317702E+02  0.60566021304E+02  0.19965179943E+01  0.62391687422E+02  0.10000000000E+01 0.  0.
<mgrwt>
<rscale>  0 0.12500262E+03</rscale>
<asrwt>0</asrwt>
<pdfrwt beam="1">  1        4 0.10620293E-01 0.12500262E+03</pdfrwt>
<pdfrwt beam="2">  1       -4 0.87059269E-02 0.12500262E+03</pdfrwt>
<totfact> 0.10438681E+04</totfact>
</mgrwt>
</event>
<event>
 5    1  0.3300771E-002  0.1249953E+03  0.7818608E-02  0.1235077E+00
          4   -1    0    0  501    0  0.00000000000E+00  0.00000000000E+00  0.42254838016E+03  0.42255028869E+03  0.12700000000E+01 0.  1.
         -4   -1    0    0    0  501 -0.00000000000E+00 -0.00000000000E+00 -0.91982540486E+01  0.92855143930E+01  0.12700000000E+01 0.  1.
         25    2    1    2    0    0  0.00000000000E+00  0.00000000000E+00  0.41335012611E+03  0.43183580308E+03  0.12499533620E+03 0.  0.
    9000005    1    3    3    0    0 -0.57813856087E+02  0.23607096486E+02  0.19878055844E+03  0.20836133848E+03  0.10000000000E+01 0.  0.
    9000005    1    3    3    0    0  0.57813856087E+02 -0.23607096486E+02  0.21456956767E+03  0.22347446461E+03  0.10000000000E+01 0.  0.
<mgrwt>
<rscale>  0 0.12499534E+03</rscale>
<asrwt>0</asrwt>
<pdfrwt beam="1">  1        4 0.65014293E-01 0.12499534E+03</pdfrwt>
<pdfrwt beam="2">  1       -4 0.14219754E-02 0.12499534E+03</pdfrwt>
<totfact> 0.61576274E+03</totfact>
</mgrwt>
</event>
<event>
 5    1  0.3300771E-002  0.1250004E+03  0.7818608E-02  0.1235069E+00
          4   -1    0    0  501    0  0.00000000000E+00  0.00000000000E+00  0.64543564992E+02  0.64556058445E+02  0.12700000000E+01 0. -1.
         -4   -1    0    0    0  501 -0.00000000000E+00 -0.00000000000E+00 -0.60496473146E+02  0.60509802207E+02  0.12700000000E+01 0. -1.
         25    2    1    2    0    0  0.00000000000E+00  0.00000000000E+00  0.40470918457E+01  0.12506586065E+03  0.12500036219E+03 0.  0.
    9000005    1    3    3    0    0 -0.33367431337E+02 -0.46941202871E+02 -0.22246341501E+02  0.61747564416E+02  0.10000000000E+01 0.  0.
    9000005    1    3    3    0    0  0.33367431337E+02  0.46941202871E+02  0.26293433347E+02  0.63318296236E+02  0.10000000000E+01 0.  0.
<mgrwt>
<rscale>  0 0.12500036E+03</rscale>
<asrwt>0</asrwt>
<pdfrwt beam="1">  1        4 0.99317655E-02 0.12500036E+03</pdfrwt>
<pdfrwt beam="2">  1       -4 0.93091361E-02 0.12500036E+03</pdfrwt>
<totfact> 0.10451347E+04</totfact>
</mgrwt>
</event>
<event>
 5    1  0.3300771E-002  0.1250006E+03  0.7818608E-02  0.1235068E+00
          4   -1    0    0  501    0  0.00000000000E+00  0.00000000000E+00  0.33604658310E+02  0.33628647908E+02  0.12700000000E+01 0.  1.
         -4   -1    0    0    0  501 -0.00000000000E+00 -0.00000000000E+00 -0.11617347319E+03  0.11618041476E+03  0.12700000000E+01 0.  1.
         25    2    1    2    0    0  0.00000000000E+00  0.00000000000E+00 -0.82568814884E+02  0.14980906267E+03  0.12500058426E+03 0.  0.
    9000005    1    3    3    0    0  0.13501039725E+02 -0.60921130184E+02 -0.45370518775E+02  0.77156633872E+02  0.10000000000E+01 0.  0.
    9000005    1    3    3    0    0 -0.13501039725E+02  0.60921130184E+02 -0.37198296109E+02  0.72652428796E+02  0.10000000000E+01 0.  0.
<mgrwt>
<rscale>  0 0.12500058E+03</rscale>
<asrwt>0</asrwt>
<pdfrwt beam="1">  1        4 0.51723268E-02 0.12500058E+03</pdfrwt>
<pdfrwt beam="2">  1       -4 0.17875221E-01 0.12500058E+03</pdfrwt>
<totfact> 0.99340466E+03</totfact>
</mgrwt>
</event>
<event>
 5    1  0.3300771E-002  0.1250352E+03  0.7818608E-02  0.1235014E+00
          4   -1    0    0  501    0  0.00000000000E+00  0.00000000000E+00  0.79062011238E+01  0.80075536970E+01  0.12700000000E+01 0.  1.
         -4   -1    0    0    0  501 -0.00000000000E+00 -0.00000000000E+00 -0.49110194029E+03  0.49110358241E+03  0.12700000000E+01 0.  1.
         25    2    1    2    0    0  0.00000000000E+00  0.00000000000E+00 -0.48319573917E+03  0.49911113611E+03  0.12503521039E+03 0.  0.
    9000005    1    3    3    0    0  0.76645836935E+01  0.61077922758E+02 -0.19820085728E+03  0.20754237716E+03  0.10000000000E+01 0.  0.
    9000005    1    3    3    0    0 -0.76645836935E+01 -0.61077922758E+02 -0.28499488189E+03  0.29156875895E+03  0.10000000000E+01 0.  0.
<mgrwt>
<rscale>  0 0.12503521E+03</rscale>
<asrwt>0</asrwt>
<pdfrwt beam="1">  1        4 0.12242617E-02 0.12503521E+03</pdfrwt>
<pdfrwt beam="2">  1       -4 0.75562044E-01 0.12503521E+03</pdfrwt>
<totfact> 0.55890124E+03</totfact>
</mgrwt>
</event>
<event>
 5    1  0.3300771E-002  0.1250012E+03  0.7818608E-02  0.1235067E+00
         -4   -1    0    0    0  501 -0.00000000000E+00  0.00000000000E+00  0.93162095580E+03  0.93162182144E+03  0.12700000000E+01 0.  1.
          4   -1    0    0  501    0  0.00000000000E+00 -0.00000000000E+00 -0.40959857157E+01  0.42883562099E+01  0.12700000000E+01 0.  1.
         25    2    1    2    0    0  0.00000000000E+00  0.00000000000E+00  0.92752497008E+03  0.93591017765E+03  0.12500116200E+03 0.  0.
    9000005    1    3    3    0    0 -0.52895111665E+00 -0.42992569036E+02  0.12421253026E+03  0.13144730296E+03  0.10000000000E+01 0.  0.
    9000005    1    3    3    0    0  0.52895111665E+00  0.42992569036E+02  0.80331243982E+03  0.80446287469E+03  0.10000000000E+01 0.  0.
<mgrwt>
<rscale>  0 0.12500116E+03</rscale>
<asrwt>0</asrwt>
<pdfrwt beam="2">  1        4 0.64501566E-03 0.12500116E+03</pdfrwt>
<pdfrwt beam="1">  1       -4 0.14334123E+00 0.12500116E+03</pdfrwt>
<totfact> 0.32820710E+03</totfact>
</mgrwt>
</event>
<event>
 5    1  0.3300771E-002  0.1249999E+03  0.7818608E-02  0.1235069E+00
         -4   -1    0    0    0  501 -0.00000000000E+00  0.00000000000E+00  0.13019192360E+03  0.13019811776E+03  0.12700000000E+01 0.  1.
          4   -1    0    0  501    0  0.00000000000E+00 -0.00000000000E+00 -0.29983400812E+02  0.30010285308E+02  0.12700000000E+01 0.  1.
         25    2    1    2    0    0  0.00000000000E+00  0.00000000000E+00  0.10020852278E+03  0.16020840307E+03  0.12499993751E+03 0.  0.
    9000005    1    3    3    0    0 -0.22084141850E+02  0.24871313516E+02  0.11791108770E+03  0.12251659545E+03  0.10000000000E+01 0.  0.
    9000005    1    3    3    0    0  0.22084141850E+02 -0.24871313516E+02 -0.17702564918E+02  0.37691807624E+02  0.10000000000E+01 0.  0.
<mgrwt>
<rscale>  0 0.12499994E+03</rscale>
<asrwt>0</asrwt>
<pdfrwt beam="2">  1        4 0.46153755E-02 0.12499994E+03</pdfrwt>
<pdfrwt beam="1">  1       -4 0.20032071E-01 0.12499994E+03</pdfrwt>
<totfact> 0.97302759E+03</totfact>
</mgrwt>
</event>
<event>
 5    1  0.3300771E-002  0.1250007E+03  0.7818608E-02  0.1235068E+00
         -4   -1    0    0    0  501 -0.00000000000E+00  0.00000000000E+00  0.17805622426E+02  0.17850856842E+02  0.12700000000E+01 0. -1.
          4   -1    0    0  501    0  0.00000000000E+00 -0.00000000000E+00 -0.21905997899E+03  0.21906366037E+03  0.12700000000E+01 0. -1.
         25    2    1    2    0    0  0.00000000000E+00  0.00000000000E+00 -0.20125435656E+03  0.23691451721E+03  0.12500068972E+03 0.  0.
    9000005    1    3    3    0    0  0.43582118406E+02 -0.37115823574E+02 -0.14813503700E+03  0.15881427704E+03  0.10000000000E+01 0.  0.
    9000005    1    3    3    0    0 -0.43582118406E+02  0.37115823574E+02 -0.53119319562E+02  0.78100240173E+02  0.10000000000E+01 0.  0.
<mgrwt>
<rscale>  0 0.12500069E+03</rscale>
<asrwt>0</asrwt>
<pdfrwt beam="2">  1        4 0.33705296E-01 0.12500069E+03</pdfrwt>
<pdfrwt beam="1">  1       -4 0.27430894E-02 0.12500069E+03</pdfrwt>
<totfact> 0.84257757E+03</totfact>
</mgrwt>
</event>
<event>
 5    1  0.3300771E-002  0.1249958E+03  0.7818608E-02  0.1235076E+00
          4   -1    0    0  501    0  0.00000000000E+00  0.00000000000E+00  0.48900393108E+01  0.50522652802E+01  0.12700000000E+01 0. -1.
         -4   -1    0    0    0  501 -0.00000000000E+00 -0.00000000000E+00 -0.78556761966E+03  0.78556864624E+03  0.12700000000E+01 0. -1.
         25    2    1    2    0    0  0.00000000000E+00  0.00000000000E+00 -0.78067758034E+03  0.79062091152E+03  0.12499576503E+03 0.  0.
    9000005    1    3    3    0    0 -0.34844985919E+02  0.44829485440E+02 -0.55541627624E+03  0.55831182660E+03  0.10000000000E+01 0.  0.
    9000005    1    3    3    0    0  0.34844985919E+02 -0.44829485440E+02 -0.22526130410E+03  0.23230908492E+03  0.10000000000E+01 0.  0.
<mgrwt>
<rscale>  0 0.12499577E+03</rscale>
<asrwt>0</asrwt>
<pdfrwt beam="1">  1        4 0.76487225E-03 0.12499577E+03</pdfrwt>
<pdfrwt beam="2">  1       -4 0.12086902E+00 0.12499577E+03</pdfrwt>
<totfact> 0.38690487E+03</totfact>
</mgrwt>
</event>
<event>
 5    1  0.3300771E-002  0.1249955E+03  0.7818608E-02  0.1235076E+00
         -4   -1    0    0    0  501 -0.00000000000E+00  0.00000000000E+00  0.27690228681E+03  0.27690519919E+03  0.12700000000E+01 0.  1.
          4   -1    0    0  501    0  0.00000000000E+00 -0.00000000000E+00 -0.14074365892E+02  0.14131548934E+02  0.12700000000E+01 0.  1.
         25    2    1    2    0    0  0.00000000000E+00  0.00000000000E+00  0.26282792092E+03  0.29103674813E+03  0.12499549090E+03 0.  0.
    9000005    1    3    3    0    0 -0.46473742839E+02 -0.35960888695E+02  0.18091452588E+03  0.19022108180E+03  0.10000000000E+01 0.  0.
    9000005    1    3    3    0    0  0.46473742839E+02  0.35960888695E+02  0.81913395040E+02  0.10081566632E+03  0.10000000000E+01 0.  0.
<mgrwt>
<rscale>  0 0.12499549E+03</rscale>
<asrwt>0</asrwt>
<pdfrwt beam="2">  1        4 0.21699100E-02 0.12499549E+03</pdfrwt>
<pdfrwt beam="1">  1       -4 0.42604971E-01 0.12499549E+03</pdfrwt>
<totfact> 0.76744794E+03</totfact>
</mgrwt>
</event>
<event>
 5    1  0.3300771E-002  0.1249959E+03  0.7818608E-02  0.1235076E+00
         -4   -1    0    0    0  501 -0.00000000000E+00  0.00000000000E+00  0.26207859619E+03  0.26208167330E+03  0.12700000000E+01 0.  1.
          4   -1    0    0  501    0  0.00000000000E+00 -0.00000000000E+00 -0.14873677391E+02  0.14927798871E+02  0.12700000000E+01 0.  1.
         25    2    1    2    0    0  0.00000000000E+00  0.00000000000E+00  0.24720491880E+03  0.27700947217E+03  0.12499590311E+03 0.  0.
    9000005    1    3    3    0    0 -0.34807951147E+02  0.51897236023E+02  0.12421892644E+03  0.13905487498E+03  0.10000000000E+01 0.  0.
    9000005    1    3    3    0    0  0.34807951147E+02 -0.51897236023E+02  0.12298599236E+03  0.13795459719E+03  0.10000000000E+01 0.  0.
<mgrwt>
<rscale>  0 0.12499590E+03</rscale>
<asrwt>0</asrwt>
<pdfrwt beam="2">  1        4 0.22926579E-02 0.12499590E+03</pdfrwt>
<pdfrwt beam="1">  1       -4 0.40324185E-01 0.12499590E+03</pdfrwt>
<totfact> 0.78583461E+03</totfact>
</mgrwt>
</event>
<event>
 5    1  0.3300771E-002  0.1249950E+03  0.7818608E-02  0.1235077E+00
          4   -1    0    0  501    0  0.00000000000E+00  0.00000000000E+00  0.29807380461E+03  0.29807651014E+03  0.12700000000E+01 0.  1.
         -4   -1    0    0    0  501 -0.00000000000E+00 -0.00000000000E+00 -0.13070388316E+02  0.13131943905E+02  0.12700000000E+01 0.  1.
         25    2    1    2    0    0  0.00000000000E+00  0.00000000000E+00  0.28500341630E+03  0.31120845404E+03  0.12499501817E+03 0.  0.
    9000005    1    3    3    0    0  0.17844033502E+02 -0.29460518667E+02  0.27231880529E+03  0.27449018818E+03  0.10000000000E+01 0.  0.
    9000005    1    3    3    0    0 -0.17844033502E+02  0.29460518667E+02  0.12684611007E+02  0.36718265866E+02  0.10000000000E+01 0.  0.
<mgrwt>
<rscale>  0 0.12499502E+03</rscale>
<asrwt>0</asrwt>
<pdfrwt beam="1">  1        4 0.45862450E-01 0.12499502E+03</pdfrwt>
<pdfrwt beam="2">  1       -4 0.20157722E-02 0.12499502E+03</pdfrwt>
<totfact> 0.74222244E+03</totfact>
</mgrwt>
</event>
<event>
 5    1  0.3300771E-002  0.1249997E+03  0.7818608E-02  0.1235070E+00
         -4   -1    0    0    0  501 -0.00000000000E+00  0.00000000000E+00  0.31573452524E+02  0.31598984228E+02  0.12700000000E+01 0.  1.
          4   -1    0    0  501    0  0.00000000000E+00 -0.00000000000E+00 -0.12364013687E+03  0.12364665925E+03  0.12700000000E+01 0.  1.
         25    2    1    2    0    0  0.00000000000E+00  0.00000000000E+00 -0.92066684343E+02  0.15524564348E+03  0.12499974182E+03 0.  0.
    9000005    1    3    3    0    0  0.44634462598E+02 -0.26866076423E+02 -0.31681341254E+01  0.52202091793E+02  0.10000000000E+01 0.  0.
    9000005    1    3    3    0    0 -0.44634462598E+02  0.26866076423E+02 -0.88898550217E+02  0.10304355169E+03  0.10000000000E+01 0.  0.
<mgrwt>
<rscale>  0 0.12499974E+03</rscale>
<asrwt>0</asrwt>
<pdfrwt beam="2">  1        4 0.19024025E-01 0.12499974E+03</pdfrwt>
<pdfrwt beam="1">  1       -4 0.48599200E-02 0.12499974E+03</pdfrwt>
<totfact> 0.98267868E+03</totfact>
</mgrwt>
</event>
<event>
 5    1  0.3300771E-002  0.1250066E+03  0.7818608E-02  0.1235059E+00
          4   -1    0    0  501    0  0.00000000000E+00  0.00000000000E+00  0.36273271843E+02  0.36295497657E+02  0.12700000000E+01 0. -1.
         -4   -1    0    0    0  501 -0.00000000000E+00 -0.00000000000E+00 -0.10764191659E+03  0.10764940830E+03  0.12700000000E+01 0. -1.
         25    2    1    2    0    0  0.00000000000E+00  0.00000000000E+00 -0.71368644751E+02  0.14394490596E+03  0.12500660982E+03 0.  0.
    9000005    1    3    3    0    0  0.37676344919E+02  0.43566278142E+02 -0.77587524721E+01  0.58126807907E+02  0.10000000000E+01 0.  0.
    9000005    1    3    3    0    0 -0.37676344919E+02 -0.43566278142E+02 -0.63609892279E+02  0.85818098053E+02  0.10000000000E+01 0.  0.
<mgrwt>
<rscale>  0 0.12500661E+03</rscale>
<asrwt>0</asrwt>
<pdfrwt beam="1">  1        4 0.55827894E-02 0.12500661E+03</pdfrwt>
<pdfrwt beam="2">  1       -4 0.16562581E-01 0.12500661E+03</pdfrwt>
<totfact> 0.10050973E+04</totfact>
</mgrwt>
</event>
<event>
 5    1  0.3300771E-002  0.1249975E+03  0.7818608E-02  0.1235073E+00
          4   -1    0    0  501    0  0.00000000000E+00  0.00000000000E+00  0.35634667081E+02  0.35657290951E+02  0.12700000000E+01 0.  1.
         -4   -1    0    0    0  501 -0.00000000000E+00 -0.00000000000E+00 -0.10955397446E+03  0.10956133542E+03  0.12700000000E+01 0.  1.
         25    2    1    2    0    0  0.00000000000E+00  0.00000000000E+00 -0.73919307380E+02  0.14521862638E+03  0.12499754175E+03 0.  0.
    9000005    1    3    3    0    0 -0.50255582498E+02 -0.30179902179E+02 -0.11809337731E+02  0.59807278198E+02  0.10000000000E+01 0.  0.
    9000005    1    3    3    0    0  0.50255582498E+02  0.30179902179E+02 -0.62109969648E+02  0.85411348178E+02  0.10000000000E+01 0.  0.
<mgrwt>
<rscale>  0 0.12499754E+03</rscale>
<asrwt>0</asrwt>
<pdfrwt beam="1">  1        4 0.54845630E-02 0.12499754E+03</pdfrwt>
<pdfrwt beam="2">  1       -4 0.16856764E-01 0.12499754E+03</pdfrwt>
<totfact> 0.10027103E+04</totfact>
</mgrwt>
</event>
<event>
 5    1  0.3300771E-002  0.1250011E+03  0.7818608E-02  0.1235068E+00
          4   -1    0    0  501    0  0.00000000000E+00  0.00000000000E+00  0.15849023234E+02  0.15899825077E+02  0.12700000000E+01 0. -1.
         -4   -1    0    0    0  501 -0.00000000000E+00 -0.00000000000E+00 -0.24602375393E+03  0.24602703185E+03  0.12700000000E+01 0. -1.
         25    2    1    2    0    0  0.00000000000E+00  0.00000000000E+00 -0.23017473070E+03  0.26192685692E+03  0.12500108690E+03 0.  0.
    9000005    1    3    3    0    0 -0.49356024487E+02 -0.28419124284E+02 -0.61188234294E+02  0.83598228416E+02  0.10000000000E+01 0.  0.
    9000005    1    3    3    0    0  0.49356024487E+02  0.28419124284E+02 -0.16898649641E+03  0.17832862851E+03  0.10000000000E+01 0.  0.
<mgrwt>
<rscale>  0 0.12500109E+03</rscale>
<asrwt>0</asrwt>
<pdfrwt beam="1">  1        4 0.24424714E-02 0.12500109E+03</pdfrwt>
<pdfrwt beam="2">  1       -4 0.37853965E-01 0.12500109E+03</pdfrwt>
<totfact> 0.80634463E+03</totfact>
</mgrwt>
</event>
<event>
 5    1  0.3300771E-002  0.1249984E+03  0.7818608E-02  0.1235072E+00
         -4   -1    0    0    0  501 -0.00000000000E+00  0.00000000000E+00  0.24661735648E+03  0.24662062651E+03  0.12700000000E+01 0.  1.
          4   -1    0    0  501    0  0.00000000000E+00 -0.00000000000E+00 -0.15810068773E+02  0.15860995385E+02  0.12700000000E+01 0.  1.
         25    2    1    2    0    0  0.00000000000E+00  0.00000000000E+00  0.23080728771E+03  0.26248162189E+03  0.12499839107E+03 0.  0.
    9000005    1    3    3    0    0 -0.40159914541E+02 -0.44323555804E+02  0.77387515338E+02  0.97812186691E+02  0.10000000000E+01 0.  0.
    9000005    1    3    3    0    0  0.40159914541E+02  0.44323555804E+02  0.15341977237E+03  0.16466943520E+03  0.10000000000E+01 0.  0.
<mgrwt>
<rscale>  0 0.12499839E+03</rscale>
<asrwt>0</asrwt>
<pdfrwt beam="2">  1        4 0.24364874E-02 0.12499839E+03</pdfrwt>
<pdfrwt beam="1">  1       -4 0.37945298E-01 0.12499839E+03</pdfrwt>
<totfact> 0.80561943E+03</totfact>
</mgrwt>
</event>
<event>
 5    1  0.3300771E-002  0.1249997E+03  0.7818608E-02  0.1235070E+00
          4   -1    0    0  501    0  0.00000000000E+00  0.00000000000E+00  0.38136901730E+02  0.38158042056E+02  0.12700000000E+01 0.  1.
         -4   -1    0    0    0  501 -0.00000000000E+00 -0.00000000000E+00 -0.10237303863E+03  0.10238091589E+03  0.12700000000E+01 0.  1.
         25    2    1    2    0    0  0.00000000000E+00  0.00000000000E+00 -0.64236136904E+02  0.14053895795E+03  0.12499966967E+03 0.  0.
    9000005    1    3    3    0    0 -0.43299316177E+02 -0.44303570831E+02 -0.22874575705E+02  0.66044556048E+02  0.10000000000E+01 0.  0.
    9000005    1    3    3    0    0  0.43299316177E+02  0.44303570831E+02 -0.41361561198E+02  0.74494401901E+02  0.10000000000E+01 0.  0.
<mgrwt>
<rscale>  0 0.12499967E+03</rscale>
<asrwt>0</asrwt>
<pdfrwt beam="1">  1        4 0.58694478E-02 0.12499967E+03</pdfrwt>
<pdfrwt beam="2">  1       -4 0.15751930E-01 0.12499967E+03</pdfrwt>
<totfact> 0.10122503E+04</totfact>
</mgrwt>
</event>
<event>
 5    1  0.3300771E-002  0.1249979E+03  0.7818608E-02  0.1235073E+00
         -4   -1    0    0    0  501 -0.00000000000E+00  0.00000000000E+00  0.32340705539E+02  0.32365632000E+02  0.12700000000E+01 0. -1.
          4   -1    0    0  501    0  0.00000000000E+00 -0.00000000000E+00 -0.12070543530E+03  0.12071211625E+03  0.12700000000E+01 0. -1.
         25    2    1    2    0    0  0.00000000000E+00  0.00000000000E+00 -0.88364729758E+02  0.15307774825E+03  0.12499788616E+03 0.  0.
    9000005    1    3    3    0    0 -0.55307028688E+02 -0.28663275051E+02 -0.38100053018E+02  0.73027835781E+02  0.10000000000E+01 0.  0.
    9000005    1    3    3    0    0  0.55307028688E+02  0.28663275051E+02 -0.50264676740E+02  0.80049912472E+02  0.10000000000E+01 0.  0.
<mgrwt>
<rscale>  0 0.12499789E+03</rscale>
<asrwt>0</asrwt>
<pdfrwt beam="2">  1        4 0.18572498E-01 0.12499789E+03</pdfrwt>
<pdfrwt beam="1">  1       -4 0.49779246E-02 0.12499789E+03</pdfrwt>
<totfact> 0.98698389E+03</totfact>
</mgrwt>
</event>
<event>
 5    1  0.3300771E-002  0.1249540E+03  0.7818608E-02  0.1235141E+00
         -4   -1    0    0    0  501 -0.00000000000E+00  0.00000000000E+00  0.18024542595E+03  0.18024990007E+03  0.12700000000E+01 0. -1.
          4   -1    0    0  501    0  0.00000000000E+00 -0.00000000000E+00 -0.21632515277E+02  0.21669762740E+02  0.12700000000E+01 0. -1.
         25    2    1    2    0    0  0.00000000000E+00  0.00000000000E+00  0.15861291067E+03  0.20191966281E+03  0.12495397072E+03 0.  0.
    9000005    1    3    3    0    0  0.17516191455E+02 -0.67827704673E+01  0.17558183646E+03  0.17658653469E+03  0.10000000000E+01 0.  0.
    9000005    1    3    3    0    0 -0.17516191455E+02  0.67827704673E+01 -0.16968925786E+02  0.25333128126E+02  0.10000000000E+01 0.  0.
<mgrwt>
<rscale>  0 0.12495397E+03</rscale>
<asrwt>0</asrwt>
<pdfrwt beam="2">  1        4 0.33312886E-02 0.12495397E+03</pdfrwt>
<pdfrwt beam="1">  1       -4 0.27733275E-01 0.12495397E+03</pdfrwt>
<totfact> 0.89905300E+03</totfact>
</mgrwt>
</event>
<event>
 5    1  0.3300771E-002  0.1249975E+03  0.7818608E-02  0.1235073E+00
          4   -1    0    0  501    0  0.00000000000E+00  0.00000000000E+00  0.11514933148E+03  0.11515633478E+03  0.12700000000E+01 0.  1.
         -4   -1    0    0    0  501 -0.00000000000E+00 -0.00000000000E+00 -0.33902082919E+02  0.33925862203E+02  0.12700000000E+01 0.  1.
         25    2    1    2    0    0  0.00000000000E+00  0.00000000000E+00  0.81247248559E+02  0.14908219698E+03  0.12499754421E+03 0.  0.
    9000005    1    3    3    0    0  0.64127514814E+01  0.56638714339E+02  0.10075406418E+02  0.57892842027E+02  0.10000000000E+01 0.  0.
    9000005    1    3    3    0    0 -0.64127514814E+01 -0.56638714339E+02  0.71171842141E+02  0.91189354956E+02  0.10000000000E+01 0.  0.
<mgrwt>
<rscale>  0 0.12499754E+03</rscale>
<asrwt>0</asrwt>
<pdfrwt beam="1">  1        4 0.17717649E-01 0.12499754E+03</pdfrwt>
<pdfrwt beam="2">  1       -4 0.52180731E-02 0.12499754E+03</pdfrwt>
<totfact> 0.99492463E+03</totfact>
</mgrwt>
</event>
<event>
 5    1  0.3300771E-002  0.1249985E+03  0.7818608E-02  0.1235072E+00
         -4   -1    0    0    0  501 -0.00000000000E+00  0.00000000000E+00  0.39958138759E+02  0.39978316036E+02  0.12700000000E+01 0.  1.
          4   -1    0    0  501    0  0.00000000000E+00 -0.00000000000E+00 -0.97707273773E+02  0.97715527160E+02  0.12700000000E+01 0.  1.
         25    2    1    2    0    0  0.00000000000E+00  0.00000000000E+00 -0.57749135014E+02  0.13769384320E+03  0.12499852743E+03 0.  0.
    9000005    1    3    3    0    0  0.59271751811E+02  0.23138913551E-01 -0.70642493156E+01  0.59699620741E+02  0.10000000000E+01 0.  0.
    9000005    1    3    3    0    0 -0.59271751811E+02 -0.23138913551E-01 -0.50684885698E+02  0.77994222456E+02  0.10000000000E+01 0.  0.
<mgrwt>
<rscale>  0 0.12499853E+03</rscale>
<asrwt>0</asrwt>
<pdfrwt beam="2">  1        4 0.15034075E-01 0.12499853E+03</pdfrwt>
<pdfrwt beam="1">  1       -4 0.61495930E-02 0.12499853E+03</pdfrwt>
<totfact> 0.10181936E+04</totfact>
</mgrwt>
</event>
<event>
 5    1  0.3300771E-002  0.1249984E+03  0.7818608E-02  0.1235072E+00
         -4   -1    0    0    0  501 -0.00000000000E+00  0.00000000000E+00  0.16086721929E+03  0.16087223235E+03  0.12700000000E+01 0.  1.
          4   -1    0    0  501    0  0.00000000000E+00 -0.00000000000E+00 -0.24259830478E+02  0.24293049929E+02  0.12700000000E+01 0.  1.
         25    2    1    2    0    0  0.00000000000E+00  0.00000000000E+00  0.13660738881E+03  0.18516528228E+03  0.12499841233E+03 0.  0.
    9000005    1    3    3    0    0  0.10130000040E+02  0.30087441259E+02 -0.11431540890E+02  0.33757238474E+02  0.10000000000E+01 0.  0.
    9000005    1    3    3    0    0 -0.10130000040E+02 -0.30087441259E+02  0.14803892970E+03  0.15140804381E+03  0.10000000000E+01 0.  0.
<mgrwt>
<rscale>  0 0.12499841E+03</rscale>
<asrwt>0</asrwt>
<pdfrwt beam="2">  1        4 0.37352225E-02 0.12499841E+03</pdfrwt>
<pdfrwt beam="1">  1       -4 0.24751744E-01 0.12499841E+03</pdfrwt>
<totfact> 0.92698710E+03</totfact>
</mgrwt>
</event>
<event>
 5    1  0.3300771E-002  0.1250007E+03  0.7818608E-02  0.1235068E+00
         -4   -1    0    0    0  501 -0.00000000000E+00  0.00000000000E+00  0.24751334639E+03  0.24751660458E+03  0.12700000000E+01 0.  1.
          4   -1    0    0  501    0  0.00000000000E+00 -0.00000000000E+00 -0.15753248601E+02  0.15804358307E+02  0.12700000000E+01 0.  1.
         25    2    1    2    0    0  0.00000000000E+00  0.00000000000E+00  0.23176009779E+03  0.26332096289E+03  0.12500074627E+03 0.  0.
    9000005    1    3    3    0    0 -0.57004314073E+02 -0.70814177661E+01  0.16772263768E+03  0.17728937219E+03  0.10000000000E+01 0.  0.
    9000005    1    3    3    0    0  0.57004314073E+02  0.70814177661E+01  0.64037460109E+02  0.86031590696E+02  0.10000000000E+01 0.  0.
<mgrwt>
<rscale>  0 0.12500075E+03</rscale>
<asrwt>0</asrwt>
<pdfrwt beam="2">  1        4 0.24277590E-02 0.12500075E+03</pdfrwt>
<pdfrwt beam="1">  1       -4 0.38083156E-01 0.12500075E+03</pdfrwt>
<totfact> 0.80440923E+03</totfact>
</mgrwt>
</event>
<event>
 5    1  0.3300771E-002  0.1250061E+03  0.7818608E-02  0.1235060E+00
          4   -1    0    0  501    0  0.00000000000E+00  0.00000000000E+00  0.64533392626E+02  0.64545888048E+02  0.12700000000E+01 0. -1.
         -4   -1    0    0    0  501 -0.00000000000E+00 -0.00000000000E+00 -0.60511544481E+02  0.60524870223E+02  0.12700000000E+01 0. -1.
         25    2    1    2    0    0  0.00000000000E+00  0.00000000000E+00  0.40218481451E+01  0.12507075827E+03  0.12500607710E+03 0.  0.
    9000005    1    3    3    0    0 -0.42570082781E+02 -0.25000614731E+02 -0.36328443349E+02  0.61302516107E+02  0.10000000000E+01 0.  0.
    9000005    1    3    3    0    0  0.42570082781E+02  0.25000614731E+02  0.40350291495E+02  0.63768242163E+02  0.10000000000E+01 0.  0.
<mgrwt>
<rscale>  0 0.12500608E+03</rscale>
<asrwt>0</asrwt>
<pdfrwt beam="1">  1        4 0.99302005E-02 0.12500608E+03</pdfrwt>
<pdfrwt beam="2">  1       -4 0.93114547E-02 0.12500608E+03</pdfrwt>
<totfact> 0.10449891E+04</totfact>
</mgrwt>
</event>
<event>
 5    1  0.3300771E-002  0.1250059E+03  0.7818608E-02  0.1235060E+00
          4   -1    0    0  501    0  0.00000000000E+00  0.00000000000E+00  0.18389682148E+03  0.18390120677E+03  0.12700000000E+01 0.  1.
         -4   -1    0    0    0  501 -0.00000000000E+00 -0.00000000000E+00 -0.21219899222E+02  0.21257869672E+02  0.12700000000E+01 0.  1.
         25    2    1    2    0    0  0.00000000000E+00  0.00000000000E+00  0.16267692226E+03  0.20515907644E+03  0.12500586230E+03 0.  0.
    9000005    1    3    3    0    0 -0.14331070590E+02 -0.40726090481E+02  0.15549476291E+03  0.16138034367E+03  0.10000000000E+01 0.  0.
    9000005    1    3    3    0    0  0.14331070590E+02  0.40726090481E+02  0.71821593464E+01  0.43778732770E+02  0.10000000000E+01 0.  0.
<mgrwt>
<rscale>  0 0.12500586E+03</rscale>
<asrwt>0</asrwt>
<pdfrwt beam="1">  1        4 0.28295077E-01 0.12500586E+03</pdfrwt>
<pdfrwt beam="2">  1       -4 0.32678580E-02 0.12500586E+03</pdfrwt>
<totfact> 0.89260916E+03</totfact>
</mgrwt>
</event>
<event>
 5    1  0.3300771E-002  0.1249985E+03  0.7818608E-02  0.1235072E+00
         -4   -1    0    0    0  501 -0.00000000000E+00  0.00000000000E+00  0.15105404743E+02  0.15158698903E+02  0.12700000000E+01 0.  1.
          4   -1    0    0  501    0  0.00000000000E+00 -0.00000000000E+00 -0.25808297694E+03  0.25808610169E+03  0.12700000000E+01 0.  1.
         25    2    1    2    0    0  0.00000000000E+00  0.00000000000E+00 -0.24297757220E+03  0.27324480060E+03  0.12499848184E+03 0.  0.
    9000005    1    3    3    0    0  0.53028358961E+02  0.20174705593E+02 -0.64228934333E+02  0.85705201741E+02  0.10000000000E+01 0.  0.
    9000005    1    3    3    0    0 -0.53028358961E+02 -0.20174705593E+02 -0.17874863786E+03  0.18753959885E+03  0.10000000000E+01 0.  0.
<mgrwt>
<rscale>  0 0.12499848E+03</rscale>
<asrwt>0</asrwt>
<pdfrwt beam="2">  1        4 0.39709410E-01 0.12499848E+03</pdfrwt>
<pdfrwt beam="1">  1       -4 0.23282485E-02 0.12499848E+03</pdfrwt>
<totfact> 0.79085078E+03</totfact>
</mgrwt>
</event>
<event>
 5    1  0.3300771E-002  0.1249999E+03  0.7818608E-02  0.1235070E+00
          4   -1    0    0  501    0  0.00000000000E+00  0.00000000000E+00  0.85156744867E+02  0.85166214524E+02  0.12700000000E+01 0.  1.
         -4   -1    0    0    0  501 -0.00000000000E+00 -0.00000000000E+00 -0.45850370282E+02  0.45867955645E+02  0.12700000000E+01 0.  1.
         25    2    1    2    0    0  0.00000000000E+00  0.00000000000E+00  0.39306374584E+02  0.13103417017E+03  0.12499985068E+03 0.  0.
    9000005    1    3    3    0    0  0.28824660946E+02  0.48180684533E+02  0.48418752399E+02  0.74145903627E+02  0.10000000000E+01 0.  0.
    9000005    1    3    3    0    0 -0.28824660946E+02 -0.48180684533E+02 -0.91123778145E+01  0.56888266542E+02  0.10000000000E+01 0.  0.
<mgrwt>
<rscale>  0 0.12499985E+03</rscale>
<asrwt>0</asrwt>
<pdfrwt beam="1">  1        4 0.13103119E-01 0.12499985E+03</pdfrwt>
<pdfrwt beam="2">  1       -4 0.70559843E-02 0.12499985E+03</pdfrwt>
<totfact> 0.10322392E+04</totfact>
</mgrwt>
</event>
<event>
 5    1  0.3300771E-002  0.1250143E+03  0.7818608E-02  0.1235047E+00
          4   -1    0    0  501    0  0.00000000000E+00  0.00000000000E+00  0.72300256220E+02  0.72311409539E+02  0.12700000000E+01 0.  1.
         -4   -1    0    0    0  501 -0.00000000000E+00 -0.00000000000E+00 -0.54017752672E+02  0.54032679960E+02  0.12700000000E+01 0.  1.
         25    2    1    2    0    0  0.00000000000E+00  0.00000000000E+00  0.18282503548E+02  0.12634408950E+03  0.12501431524E+03 0.  0.
    9000005    1    3    3    0    0 -0.47963068878E+02  0.12200667949E+02 -0.29433220313E+02  0.57590161769E+02  0.10000000000E+01 0.  0.
    9000005    1    3    3    0    0  0.47963068878E+02 -0.12200667949E+02  0.47715723862E+02  0.68753927730E+02  0.10000000000E+01 0.  0.
<mgrwt>
<rscale>  0 0.12501432E+03</rscale>
<asrwt>0</asrwt>
<pdfrwt beam="1">  1        4 0.11125123E-01 0.12501432E+03</pdfrwt>
<pdfrwt beam="2">  1       -4 0.83124297E-02 0.12501432E+03</pdfrwt>
<totfact> 0.10420063E+04</totfact>
</mgrwt>
</event>
<event>
 5    1  0.3300771E-002  0.1249949E+03  0.7818608E-02  0.1235077E+00
         -4   -1    0    0    0  501 -0.00000000000E+00  0.00000000000E+00  0.10428894749E+03  0.10429668005E+03  0.12700000000E+01 0.  1.
          4   -1    0    0  501    0  0.00000000000E+00 -0.00000000000E+00 -0.37433081253E+02  0.37454618835E+02  0.12700000000E+01 0.  1.
         25    2    1    2    0    0  0.00000000000E+00  0.00000000000E+00  0.66855866238E+02  0.14175129888E+03  0.12499489543E+03 0.  0.
    9000005    1    3    3    0    0 -0.45836570836E+02 -0.42373635181E+02  0.30138232904E+02  0.69324088649E+02  0.10000000000E+01 0.  0.
    9000005    1    3    3    0    0  0.45836570836E+02  0.42373635181E+02  0.36717633334E+02  0.72427210233E+02  0.10000000000E+01 0.  0.
<mgrwt>
<rscale>  0 0.12499490E+03</rscale>
<asrwt>0</asrwt>
<pdfrwt beam="2">  1        4 0.57611871E-02 0.12499490E+03</pdfrwt>
<pdfrwt beam="1">  1       -4 0.16046705E-01 0.12499490E+03</pdfrwt>
<totfact> 0.10098579E+04</totfact>
</mgrwt>
</event>
<event>
 5    1  0.3300771E-002  0.1249948E+03  0.7818608E-02  0.1235077E+00
         -4   -1    0    0    0  501 -0.00000000000E+00  0.00000000000E+00  0.38247570367E+02  0.38268649557E+02  0.12700000000E+01 0.  1.
          4   -1    0    0  501    0  0.00000000000E+00 -0.00000000000E+00 -0.10206897803E+03  0.10207687876E+03  0.12700000000E+01 0.  1.
         25    2    1    2    0    0  0.00000000000E+00  0.00000000000E+00 -0.63821407668E+02  0.14034552832E+03  0.12499478086E+03 0.  0.
    9000005    1    3    3    0    0  0.46633586127E+02  0.38732009719E+02 -0.48941341870E+02  0.77917359272E+02  0.10000000000E+01 0.  0.
    9000005    1    3    3    0    0 -0.46633586127E+02 -0.38732009719E+02 -0.14880065799E+02  0.62428169044E+02  0.10000000000E+01 0.  0.
<mgrwt>
<rscale>  0 0.12499478E+03</rscale>
<asrwt>0</asrwt>
<pdfrwt beam="2">  1        4 0.15705149E-01 0.12499478E+03</pdfrwt>
<pdfrwt beam="1">  1       -4 0.58864709E-02 0.12499478E+03</pdfrwt>
<totfact> 0.10127620E+04</totfact>
</mgrwt>
</event>
<event>
 5    1  0.3300771E-002  0.1250045E+03  0.7818608E-02  0.1235062E+00
         -4   -1    0    0    0  501 -0.00000000000E+00  0.00000000000E+00  0.35836886079E+03  0.35837111112E+03  0.12700000000E+01 0. -1.
          4   -1    0    0  501    0  0.00000000000E+00 -0.00000000000E+00 -0.10861580324E+02  0.10935576214E+02  0.12700000000E+01 0. -1.
         25    2    1    2    0    0  0.00000000000E+00  0.00000000000E+00  0.34750728047E+03  0.36930668734E+03  0.12500447725E+03 0.  0.
    9000005    1    3    3    0    0 -0.22472872296E+02 -0.36339457988E+02  0.30849079954E+03  0.31143724825E+03  0.10000000000E+01 0.  0.
    9000005    1    3    3    0    0  0.22472872296E+02  0.36339457988E+02  0.39016480929E+02  0.57869439087E+02  0.10000000000E+01 0.  0.
<mgrwt>
<rscale>  0 0.12500448E+03</rscale>
<asrwt>0</asrwt>
<pdfrwt beam="2">  1        4 0.16768773E-02 0.12500448E+03</pdfrwt>
<pdfrwt beam="1">  1       -4 0.55139542E-01 0.12500448E+03</pdfrwt>
<totfact> 0.67644831E+03</totfact>
</mgrwt>
</event>
<event>
 5    1  0.3300771E-002  0.1249739E+03  0.7818608E-02  0.1235110E+00
          4   -1    0    0  501    0  0.00000000000E+00  0.00000000000E+00  0.17658913678E+02  0.17704522933E+02  0.12700000000E+01 0.  1.
         -4   -1    0    0    0  501 -0.00000000000E+00 -0.00000000000E+00 -0.22078058570E+03  0.22078423839E+03  0.12700000000E+01 0.  1.
         25    2    1    2    0    0  0.00000000000E+00  0.00000000000E+00 -0.20312167202E+03  0.23848876132E+03  0.12497389981E+03 0.  0.
    9000005    1    3    3    0    0  0.10127319601E+02  0.52848094128E+02 -0.40969853260E+02  0.67638838927E+02  0.10000000000E+01 0.  0.
    9000005    1    3    3    0    0 -0.10127319601E+02 -0.52848094128E+02 -0.16215181876E+03  0.17084992239E+03  0.10000000000E+01 0.  0.
<mgrwt>
<rscale>  0 0.12497390E+03</rscale>
<asrwt>0</asrwt>
<pdfrwt beam="1">  1        4 0.27205455E-02 0.12497390E+03</pdfrwt>
<pdfrwt beam="2">  1       -4 0.33970031E-01 0.12497390E+03</pdfrwt>
<totfact> 0.84071871E+03</totfact>
</mgrwt>
</event>
<event>
 5    1  0.3300771E-002  0.1250088E+03  0.7818608E-02  0.1235056E+00
          4   -1    0    0  501    0  0.00000000000E+00  0.00000000000E+00  0.30235385214E+03  0.30235651937E+03  0.12700000000E+01 0. -1.
         -4   -1    0    0    0  501 -0.00000000000E+00 -0.00000000000E+00 -0.12887336856E+02  0.12949762594E+02  0.12700000000E+01 0. -1.
         25    2    1    2    0    0  0.00000000000E+00  0.00000000000E+00  0.28946651529E+03  0.31530628196E+03  0.12500875159E+03 0.  0.
    9000005    1    3    3    0    0  0.47511231766E+02 -0.20927643642E+02  0.56977213386E+02  0.77088820575E+02  0.10000000000E+01 0.  0.
    9000005    1    3    3    0    0 -0.47511231766E+02  0.20927643642E+02  0.23248930190E+03  0.23821746139E+03  0.10000000000E+01 0.  0.
<mgrwt>
<rscale>  0 0.12500875E+03</rscale>
<asrwt>0</asrwt>
<pdfrwt beam="1">  1        4 0.46520983E-01 0.12500875E+03</pdfrwt>
<pdfrwt beam="2">  1       -4 0.19876744E-02 0.12500875E+03</pdfrwt>
<totfact> 0.73703576E+03</totfact>
</mgrwt>
</event>
<event>
 5    1  0.3300771E-002  0.1249964E+03  0.7818608E-02  0.1235075E+00
         -4   -1    0    0    0  501 -0.00000000000E+00  0.00000000000E+00  0.45452305053E+03  0.45452482480E+03  0.12700000000E+01 0.  1.
          4   -1    0    0  501    0  0.00000000000E+00 -0.00000000000E+00 -0.85449529538E+01  0.86388147904E+01  0.12700000000E+01 0.  1.
         25    2    1    2    0    0  0.00000000000E+00  0.00000000000E+00  0.44597809758E+03  0.46316363959E+03  0.12499637405E+03 0.  0.
    9000005    1    3    3    0    0  0.43949232184E+02  0.38170875926E+02  0.30719847094E+03  0.31266667767E+03  0.10000000000E+01 0.  0.
    9000005    1    3    3    0    0 -0.43949232184E+02 -0.38170875926E+02  0.13877962663E+03  0.15049696192E+03  0.10000000000E+01 0.  0.
<mgrwt>
<rscale>  0 0.12499637E+03</rscale>
<asrwt>0</asrwt>
<pdfrwt beam="2">  1        4 0.13219647E-02 0.12499637E+03</pdfrwt>
<pdfrwt beam="1">  1       -4 0.69933982E-01 0.12499637E+03</pdfrwt>
<totfact> 0.58844849E+03</totfact>
</mgrwt>
</event>
<event>
 5    1  0.3300771E-002  0.1250142E+03  0.7818608E-02  0.1235047E+00
          4   -1    0    0  501    0  0.00000000000E+00  0.00000000000E+00  0.14421080849E+02  0.14476894448E+02  0.12700000000E+01 0. -1.
         -4   -1    0    0    0  501 -0.00000000000E+00 -0.00000000000E+00 -0.27035186946E+03  0.27035485241E+03  0.12700000000E+01 0. -1.
         25    2    1    2    0    0  0.00000000000E+00  0.00000000000E+00 -0.25593078861E+03  0.28483174686E+03  0.12501422102E+03 0.  0.
    9000005    1    3    3    0    0 -0.22212442663E+02  0.42347868793E+02 -0.36278636942E+02  0.60032275475E+02  0.10000000000E+01 0.  0.
    9000005    1    3    3    0    0  0.22212442663E+02 -0.42347868793E+02 -0.21965215167E+03  0.22479947138E+03  0.10000000000E+01 0.  0.
<mgrwt>
<rscale>  0 0.12501422E+03</rscale>
<asrwt>0</asrwt>
<pdfrwt beam="1">  1        4 0.22231508E-02 0.12501422E+03</pdfrwt>
<pdfrwt beam="2">  1       -4 0.41597114E-01 0.12501422E+03</pdfrwt>
<totfact> 0.77517285E+03</totfact>
</mgrwt>
</event>
<event>
 5    1  0.3300771E-002  0.1249994E+03  0.7818608E-02  0.1235070E+00
         -4   -1    0    0    0  501 -0.00000000000E+00  0.00000000000E+00  0.36705911176E+03  0.36706130881E+03  0.12700000000E+01 0.  1.
          4   -1    0    0  501    0  0.00000000000E+00 -0.00000000000E+00 -0.10601791196E+02  0.10677587581E+02  0.12700000000E+01 0.  1.
         25    2    1    2    0    0  0.00000000000E+00  0.00000000000E+00  0.35645732056E+03  0.37773889639E+03  0.12499940985E+03 0.  0.
    9000005    1    3    3    0    0  0.52042271128E+02  0.15183720092E+01  0.28267147824E+03  0.28742802238E+03  0.10000000000E+01 0.  0.
    9000005    1    3    3    0    0 -0.52042271128E+02 -0.15183720092E+01  0.73785842327E+02  0.90310874016E+02  0.10000000000E+01 0.  0.
<mgrwt>
<rscale>  0 0.12499941E+03</rscale>
<asrwt>0</asrwt>
<pdfrwt beam="2">  1        4 0.16370442E-02 0.12499941E+03</pdfrwt>
<pdfrwt beam="1">  1       -4 0.56476637E-01 0.12499941E+03</pdfrwt>
<totfact> 0.66777867E+03</totfact>
</mgrwt>
</event>
<event>
 5    1  0.3300771E-002  0.1249998E+03  0.7818608E-02  0.1235070E+00
         -4   -1    0    0    0  501 -0.00000000000E+00  0.00000000000E+00  0.73881640951E+01  0.74965237741E+01  0.12700000000E+01 0.  1.
          4   -1    0    0  501    0  0.00000000000E+00 -0.00000000000E+00 -0.52475775791E+03  0.52475929471E+03  0.12700000000E+01 0.  1.
         25    2    1    2    0    0  0.00000000000E+00  0.00000000000E+00 -0.51736959381E+03  0.53225581848E+03  0.12499983883E+03 0.  0.
    9000005    1    3    3    0    0 -0.33618060454E+02 -0.29619639619E+02 -0.73190888999E+02  0.85821927689E+02  0.10000000000E+01 0.  0.
    9000005    1    3    3    0    0  0.33618060454E+02  0.29619639619E+02 -0.44417870481E+03  0.44643389079E+03  0.10000000000E+01 0.  0.
<mgrwt>
<rscale>  0 0.12499984E+03</rscale>
<asrwt>0</asrwt>
<pdfrwt beam="2">  1        4 0.80740387E-01 0.12499984E+03</pdfrwt>
<pdfrwt beam="1">  1       -4 0.11450946E-02 0.12499984E+03</pdfrwt>
<totfact> 0.53445978E+03</totfact>
</mgrwt>
</event>
<event>
 5    1  0.3300771E-002  0.1249971E+03  0.7818608E-02  0.1235074E+00
         -4   -1    0    0    0  501 -0.00000000000E+00  0.00000000000E+00  0.34434905026E+02  0.34458316618E+02  0.12700000000E+01 0. -1.
          4   -1    0    0  501    0  0.00000000000E+00 -0.00000000000E+00 -0.11336785521E+03  0.11337496856E+03  0.12700000000E+01 0. -1.
         25    2    1    2    0    0  0.00000000000E+00  0.00000000000E+00 -0.78932950187E+02  0.14783328518E+03  0.12499707829E+03 0.  0.
    9000005    1    3    3    0    0 -0.45126611994E+01  0.35498732060E+02 -0.10005623587E+03  0.10626746644E+03  0.10000000000E+01 0.  0.
    9000005    1    3    3    0    0  0.45126611994E+01 -0.35498732060E+02  0.21123285679E+02  0.41565818732E+02  0.10000000000E+01 0.  0.
<mgrwt>
<rscale>  0 0.12499708E+03</rscale>
<asrwt>0</asrwt>
<pdfrwt beam="2">  1        4 0.17443556E-01 0.12499708E+03</pdfrwt>
<pdfrwt beam="1">  1       -4 0.53000258E-02 0.12499708E+03</pdfrwt>
<totfact> 0.99743926E+03</totfact>
</mgrwt>
</event>
<event>
 5    1  0.3300771E-002  0.1250089E+03  0.7818608E-02  0.1235055E+00
          4   -1    0    0  501    0  0.00000000000E+00  0.00000000000E+00  0.14004627134E+02  0.14062093768E+02  0.12700000000E+01 0. -1.
         -4   -1    0    0    0  501 -0.00000000000E+00 -0.00000000000E+00 -0.27833506883E+03  0.27833796623E+03  0.12700000000E+01 0. -1.
         25    2    1    2    0    0  0.00000000000E+00  0.00000000000E+00 -0.26433044170E+03  0.29240005999E+03  0.12500885039E+03 0.  0.
    9000005    1    3    3    0    0  0.21025222292E+02  0.51437427795E+02 -0.65269877880E+02  0.85726459796E+02  0.10000000000E+01 0.  0.
    9000005    1    3    3    0    0 -0.21025222292E+02 -0.51437427795E+02 -0.19906056382E+03  0.20667360020E+03  0.10000000000E+01 0.  0.
<mgrwt>
<rscale>  0 0.12500885E+03</rscale>
<asrwt>0</asrwt>
<pdfrwt beam="1">  1        4 0.21592016E-02 0.12500885E+03</pdfrwt>
<pdfrwt beam="2">  1       -4 0.42825419E-01 0.12500885E+03</pdfrwt>
<totfact> 0.76547113E+03</totfact>
</mgrwt>
</event>
<event>
 5    1  0.3300771E-002  0.1250035E+03  0.7818608E-02  0.1235064E+00
         -4   -1    0    0    0  501 -0.00000000000E+00  0.00000000000E+00  0.26666880399E+03  0.26667182814E+03  0.12700000000E+01 0.  1.
          4   -1    0    0  501    0  0.00000000000E+00 -0.00000000000E+00 -0.14618494163E+02  0.14673556883E+02  0.12700000000E+01 0.  1.
         25    2    1    2    0    0  0.00000000000E+00  0.00000000000E+00  0.25205030983E+03  0.28134538502E+03  0.12500346790E+03 0.  0.
    9000005    1    3    3    0    0 -0.27884022838E+02  0.53259603524E+02  0.87607161896E+02  0.10625497124E+03  0.10000000000E+01 0.  0.
    9000005    1    3    3    0    0  0.27884022838E+02 -0.53259603524E+02  0.16444314793E+03  0.17509041378E+03  0.10000000000E+01 0.  0.
<mgrwt>
<rscale>  0 0.12500347E+03</rscale>
<asrwt>0</asrwt>
<pdfrwt beam="2">  1        4 0.22534672E-02 0.12500347E+03</pdfrwt>
<pdfrwt beam="1">  1       -4 0.41030440E-01 0.12500347E+03</pdfrwt>
<totfact> 0.77994040E+03</totfact>
</mgrwt>
</event>
<event>
 5    1  0.3300771E-002  0.1249996E+03  0.7818608E-02  0.1235070E+00
          4   -1    0    0  501    0  0.00000000000E+00  0.00000000000E+00  0.16248372624E+03  0.16248868943E+03  0.12700000000E+01 0. -1.
         -4   -1    0    0    0  501 -0.00000000000E+00 -0.00000000000E+00 -0.24018610223E+02  0.24052162835E+02  0.12700000000E+01 0. -1.
         25    2    1    2    0    0  0.00000000000E+00  0.00000000000E+00  0.13846511602E+03  0.18654085227E+03  0.12499960484E+03 0.  0.
    9000005    1    3    3    0    0 -0.79785383403E+01 -0.48418182941E+02  0.11487854365E+02  0.50407819941E+02  0.10000000000E+01 0.  0.
    9000005    1    3    3    0    0  0.79785383403E+01  0.48418182941E+02  0.12697726165E+03  0.13613303233E+03  0.10000000000E+01 0.  0.
<mgrwt>
<rscale>  0 0.12499960E+03</rscale>
<asrwt>0</asrwt>
<pdfrwt beam="1">  1        4 0.25000459E-01 0.12499960E+03</pdfrwt>
<pdfrwt beam="2">  1       -4 0.36981336E-02 0.12499960E+03</pdfrwt>
<totfact> 0.92453521E+03</totfact>
</mgrwt>
</event>
<event>
 5    1  0.3300771E-002  0.1249981E+03  0.7818608E-02  0.1235072E+00
          4   -1    0    0  501    0  0.00000000000E+00  0.00000000000E+00  0.61461427005E+03  0.61461558217E+03  0.12700000000E+01 0.  1.
         -4   -1    0    0    0  501 -0.00000000000E+00 -0.00000000000E+00 -0.62906434737E+01  0.64175614772E+01  0.12700000000E+01 0.  1.
         25    2    1    2    0    0  0.00000000000E+00  0.00000000000E+00  0.60832362657E+03  0.62103314365E+03  0.12499812343E+03 0.  0.
    9000005    1    3    3    0    0  0.26853288344E+02  0.47712905526E+02  0.45383277090E+03  0.45712449551E+03  0.10000000000E+01 0.  0.
    9000005    1    3    3    0    0 -0.26853288344E+02 -0.47712905526E+02  0.15449085567E+03  0.16390864814E+03  0.10000000000E+01 0.  0.
<mgrwt>
<rscale>  0 0.12499812E+03</rscale>
<asrwt>0</asrwt>
<pdfrwt beam="1">  1        4 0.94565916E-01 0.12499812E+03</pdfrwt>
<pdfrwt beam="2">  1       -4 0.97765505E-03 0.12499812E+03</pdfrwt>
<totfact> 0.47568247E+03</totfact>
</mgrwt>
</event>
<event>
 5    1  0.3300771E-002  0.1249999E+03  0.7818608E-02  0.1235070E+00
          4   -1    0    0  501    0  0.00000000000E+00  0.00000000000E+00  0.11663029085E+02  0.11731971166E+02  0.12700000000E+01 0.  1.
         -4   -1    0    0    0  501 -0.00000000000E+00 -0.00000000000E+00 -0.33386792119E+03  0.33387033666E+03  0.12700000000E+01 0.  1.
         25    2    1    2    0    0  0.00000000000E+00  0.00000000000E+00 -0.32220489211E+03  0.34560230782E+03  0.12499985071E+03 0.  0.
    9000005    1    3    3    0    0 -0.28781277084E+02  0.43222923610E+02 -0.25722355867E+03  0.26241482841E+03  0.10000000000E+01 0.  0.
    9000005    1    3    3    0    0  0.28781277084E+02 -0.43222923610E+02 -0.64981333440E+02  0.83187479416E+02  0.10000000000E+01 0.  0.
<mgrwt>
<rscale>  0 0.12499985E+03</rscale>
<asrwt>0</asrwt>
<pdfrwt beam="1">  1        4 0.17998015E-02 0.12499985E+03</pdfrwt>
<pdfrwt beam="2">  1       -4 0.51369777E-01 0.12499985E+03</pdfrwt>
<totfact> 0.70211316E+03</totfact>
</mgrwt>
</event>
<event>
 5    1  0.3300771E-002  0.1250127E+03  0.7818608E-02  0.1235049E+00
          4   -1    0    0  501    0  0.00000000000E+00  0.00000000000E+00  0.83113745838E+01  0.84078444011E+01  0.12700000000E+01 0.  1.
         -4   -1    0    0    0  501 -0.00000000000E+00 -0.00000000000E+00 -0.46727426288E+03  0.46727598873E+03  0.12700000000E+01 0.  1.
         25    2    1    2    0    0  0.00000000000E+00  0.00000000000E+00 -0.45896288829E+03  0.47568383313E+03  0.12501270446E+03 0.  0.
    9000005    1    3    3    0    0  0.43300427620E+02  0.38872682985E+02 -0.31625334057E+03  0.32156366078E+03  0.10000000000E+01 0.  0.
    9000005    1    3    3    0    0 -0.43300427620E+02 -0.38872682985E+02 -0.14270954773E+03  0.15412017236E+03  0.10000000000E+01 0.  0.
<mgrwt>
<rscale>  0 0.12501270E+03</rscale>
<asrwt>0</asrwt>
<pdfrwt beam="1">  1        4 0.12862269E-02 0.12501270E+03</pdfrwt>
<pdfrwt beam="2">  1       -4 0.71895881E-01 0.12501270E+03</pdfrwt>
<totfact> 0.57785477E+03</totfact>
</mgrwt>
</event>
<event>
 5    1  0.3300771E-002  0.1250015E+03  0.7818608E-02  0.1235067E+00
         -4   -1    0    0    0  501 -0.00000000000E+00  0.00000000000E+00  0.26055322375E+02  0.26086255463E+02  0.12700000000E+01 0. -1.
          4   -1    0    0  501    0  0.00000000000E+00 -0.00000000000E+00 -0.14980247950E+03  0.14980786283E+03  0.12700000000E+01 0. -1.
         25    2    1    2    0    0  0.00000000000E+00  0.00000000000E+00 -0.12374715713E+03  0.17589411829E+03  0.12500152780E+03 0.  0.
    9000005    1    3    3    0    0  0.14999393412E+02  0.57411620564E+02 -0.89457369931E+02  0.10735314161E+03  0.10000000000E+01 0.  0.
    9000005    1    3    3    0    0 -0.14999393412E+02 -0.57411620564E+02 -0.34289787198E+02  0.68540976682E+02  0.10000000000E+01 0.  0.
<mgrwt>
<rscale>  0 0.12500153E+03</rscale>
<asrwt>0</asrwt>
<pdfrwt beam="2">  1        4 0.23049328E-01 0.12500153E+03</pdfrwt>
<pdfrwt beam="1">  1       -4 0.40113048E-02 0.12500153E+03</pdfrwt>
<totfact> 0.94358106E+03</totfact>
</mgrwt>
</event>
<event>
 5    1  0.3300771E-002  0.1249968E+03  0.7818608E-02  0.1235074E+00
          4   -1    0    0  501    0  0.00000000000E+00  0.00000000000E+00  0.72519585843E+02  0.72530705434E+02  0.12700000000E+01 0. -1.
         -4   -1    0    0    0  501 -0.00000000000E+00 -0.00000000000E+00 -0.53839221117E+02  0.53854197891E+02  0.12700000000E+01 0. -1.
         25    2    1    2    0    0  0.00000000000E+00  0.00000000000E+00  0.18680364725E+02  0.12638490333E+03  0.12499675101E+03 0.  0.
    9000005    1    3    3    0    0 -0.31342500200E+02 -0.19719937795E+02 -0.41555886836E+02  0.55669740400E+02  0.10000000000E+01 0.  0.
    9000005    1    3    3    0    0  0.31342500200E+02  0.19719937795E+02  0.60236251562E+02  0.70715162926E+02  0.10000000000E+01 0.  0.
<mgrwt>
<rscale>  0 0.12499675E+03</rscale>
<asrwt>0</asrwt>
<pdfrwt beam="1">  1        4 0.11158867E-01 0.12499675E+03</pdfrwt>
<pdfrwt beam="2">  1       -4 0.82849645E-02 0.12499675E+03</pdfrwt>
<totfact> 0.10423304E+04</totfact>
</mgrwt>
</event>
<event>
 4    1  0.3300771E-002  0.1248215E+03  0.7818608E-02  0.1235349E+00
          4   -1    0    0  501    0  0.00000000000E+00  0.00000000000E+00  0.78792141717E+02  0.78802376210E+02  0.12700000000E+01 0. -1.
         -4   -1    0    0    0  501 -0.00000000000E+00 -0.00000000000E+00 -0.49413519614E+02  0.49429837352E+02  0.12700000000E+01 0. -1.
    9000005    1    1    2    0    0 -0.31095084300E+02  0.37052516244E+02 -0.25812658941E+02  0.54836909005E+02  0.10000000000E+01 0.  0.
    9000005    1    1    2    0    0  0.31095084300E+02 -0.37052516244E+02  0.55191281045E+02  0.73395304557E+02  0.10000000000E+01 0.  0.
<mgrwt>
<rscale>  0 0.12482146E+03</rscale>
<asrwt>0</asrwt>
<pdfrwt beam="1">  1        4 0.12123910E-01 0.12482146E+03</pdfrwt>
<pdfrwt beam="2">  1       -4 0.76041224E-02 0.12482146E+03</pdfrwt>
<totfact> 0.10424433E+04</totfact>
</mgrwt>
</event>
<event>
 5    1  0.3300771E-002  0.1250051E+03  0.7818608E-02  0.1235061E+00
          4   -1    0    0  501    0  0.00000000000E+00  0.00000000000E+00  0.53907083229E+02  0.53922041154E+02  0.12700000000E+01 0. -1.
         -4   -1    0    0    0  501 -0.00000000000E+00 -0.00000000000E+00 -0.72437932259E+02  0.72449064383E+02  0.12700000000E+01 0. -1.
         25    2    1    2    0    0  0.00000000000E+00  0.00000000000E+00 -0.18530849031E+02  0.12637110554E+03  0.12500505569E+03 0.  0.
    9000005    1    3    3    0    0 -0.20807123597E+02 -0.50905798686E+02  0.20744483216E+02  0.58784949741E+02  0.10000000000E+01 0.  0.
    9000005    1    3    3    0    0  0.20807123597E+02  0.50905798686E+02 -0.39275332246E+02  0.67586155796E+02  0.10000000000E+01 0.  0.
<mgrwt>
<rscale>  0 0.12500506E+03</rscale>
<asrwt>0</asrwt>
<pdfrwt beam="1">  1        4 0.82954044E-02 0.12500506E+03</pdfrwt>
<pdfrwt beam="2">  1       -4 0.11146304E-01 0.12500506E+03</pdfrwt>
<totfact> 0.10421651E+04</totfact>
</mgrwt>
</event>
<event>
 5    1  0.3300771E-002  0.1249932E+03  0.7818608E-02  0.1235080E+00
          4   -1    0    0  501    0  0.00000000000E+00  0.00000000000E+00  0.15868477836E+03  0.15868986037E+03  0.12700000000E+01 0. -1.
         -4   -1    0    0    0  501 -0.00000000000E+00 -0.00000000000E+00 -0.24591858553E+02  0.24624630090E+02  0.12700000000E+01 0. -1.
         25    2    1    2    0    0  0.00000000000E+00  0.00000000000E+00  0.13409291981E+03  0.18331449046E+03  0.12499316489E+03 0.  0.
    9000005    1    3    3    0    0 -0.21149618589E+02 -0.47845631859E+01  0.15299730616E+03  0.15452952503E+03  0.10000000000E+01 0.  0.
    9000005    1    3    3    0    0  0.21149618589E+02  0.47845631859E+01 -0.18904386356E+02  0.28784965431E+02  0.10000000000E+01 0.  0.
<mgrwt>
<rscale>  0 0.12499316E+03</rscale>
<asrwt>0</asrwt>
<pdfrwt beam="1">  1        4 0.24415953E-01 0.12499316E+03</pdfrwt>
<pdfrwt beam="2">  1       -4 0.37862749E-02 0.12499316E+03</pdfrwt>
<totfact> 0.93038018E+03</totfact>
</mgrwt>
</event>
<event>
 5    1  0.3300771E-002  0.1249967E+03  0.7818608E-02  0.1235074E+00
         -4   -1    0    0    0  501 -0.00000000000E+00  0.00000000000E+00  0.48426773399E+02  0.48443423515E+02  0.12700000000E+01 0.  1.
          4   -1    0    0  501    0  0.00000000000E+00 -0.00000000000E+00 -0.80623304569E+02  0.80633306640E+02  0.12700000000E+01 0.  1.
         25    2    1    2    0    0  0.00000000000E+00  0.00000000000E+00 -0.32196531170E+02  0.12907673015E+03  0.12499674255E+03 0.  0.
    9000005    1    3    3    0    0 -0.90573661871E+01  0.60064217263E+02 -0.94620800980E+00  0.60758879081E+02  0.10000000000E+01 0.  0.
    9000005    1    3    3    0    0  0.90573661871E+01 -0.60064217263E+02 -0.31250323160E+02  0.68317851073E+02  0.10000000000E+01 0.  0.
<mgrwt>
<rscale>  0 0.12499674E+03</rscale>
<asrwt>0</asrwt>
<pdfrwt beam="2">  1        4 0.12405635E-01 0.12499674E+03</pdfrwt>
<pdfrwt beam="1">  1       -4 0.74523230E-02 0.12499674E+03</pdfrwt>
<totfact> 0.10365060E+04</totfact>
</mgrwt>
</event>
<event>
 5    1  0.3300771E-002  0.1249995E+03  0.7818608E-02  0.1235070E+00
          4   -1    0    0  501    0  0.00000000000E+00  0.00000000000E+00  0.52560084927E+02  0.52575426081E+02  0.12700000000E+01 0.  1.
         -4   -1    0    0    0  501 -0.00000000000E+00 -0.00000000000E+00 -0.74287459896E+02  0.74298314905E+02  0.12700000000E+01 0.  1.
         25    2    1    2    0    0  0.00000000000E+00  0.00000000000E+00 -0.21727374968E+02  0.12687374099E+03  0.12499946931E+03 0.  0.
    9000005    1    3    3    0    0  0.11734679131E+02 -0.56542640053E+02  0.13378403803E+02  0.59285365198E+02  0.10000000000E+01 0.  0.
    9000005    1    3    3    0    0 -0.11734679131E+02  0.56542640053E+02 -0.35105778771E+02  0.67588375787E+02  0.10000000000E+01 0.  0.
<mgrwt>
<rscale>  0 0.12499947E+03</rscale>
<asrwt>0</asrwt>
<pdfrwt beam="1">  1        4 0.80881821E-02 0.12499947E+03</pdfrwt>
<pdfrwt beam="2">  1       -4 0.11430855E-01 0.12499947E+03</pdfrwt>
<totfact> 0.10412015E+04</totfact>
</mgrwt>
</event>
<event>
 5    1  0.3300771E-002  0.1250014E+03  0.7818608E-02  0.1235067E+00
          4   -1    0    0  501    0  0.00000000000E+00  0.00000000000E+00  0.12249891810E+03  0.12250550124E+03  0.12700000000E+01 0. -1.
         -4   -1    0    0    0  501 -0.00000000000E+00 -0.00000000000E+00 -0.31868659400E+02  0.31893954787E+02  0.12700000000E+01 0. -1.
         25    2    1    2    0    0  0.00000000000E+00  0.00000000000E+00  0.90630258697E+02  0.15439945603E+03  0.12500139292E+03 0.  0.
    9000005    1    3    3    0    0 -0.50247278392E+02  0.37150918884E+02  0.46053452093E+02  0.77633112842E+02  0.10000000000E+01 0.  0.
    9000005    1    3    3    0    0  0.50247278392E+02 -0.37150918884E+02  0.44576806604E+02  0.76766343190E+02  0.10000000000E+01 0.  0.
<mgrwt>
<rscale>  0 0.12500139E+03</rscale>
<asrwt>0</asrwt>
<pdfrwt beam="1">  1        4 0.18848440E-01 0.12500139E+03</pdfrwt>
<pdfrwt beam="2">  1       -4 0.49053228E-02 0.12500139E+03</pdfrwt>
<totfact> 0.98430438E+03</totfact>
</mgrwt>
</event>
<event>
 5    1  0.3300771E-002  0.1250017E+03  0.7818608E-02  0.1235067E+00
          4   -1    0    0  501    0  0.00000000000E+00  0.00000000000E+00  0.10017892818E+02  0.10098072911E+02  0.12700000000E+01 0. -1.
         -4   -1    0    0    0  501 -0.00000000000E+00 -0.00000000000E+00 -0.38830273756E+03  0.38830481441E+03  0.12700000000E+01 0. -1.
         25    2    1    2    0    0  0.00000000000E+00  0.00000000000E+00 -0.37828484474E+03  0.39840288733E+03  0.12500174745E+03 0.  0.
    9000005    1    3    3    0    0 -0.43537279491E+02  0.36462398143E+02 -0.10600909729E+03  0.12026607955E+03  0.10000000000E+01 0.  0.
    9000005    1    3    3    0    0  0.43537279491E+02 -0.36462398143E+02 -0.27227574746E+03  0.27813680777E+03  0.10000000000E+01 0.  0.
<mgrwt>
<rscale>  0 0.12500175E+03</rscale>
<asrwt>0</asrwt>
<pdfrwt beam="1">  1        4 0.15475420E-02 0.12500175E+03</pdfrwt>
<pdfrwt beam="2">  1       -4 0.59745198E-01 0.12500175E+03</pdfrwt>
<totfact> 0.64705928E+03</totfact>
</mgrwt>
</event>
<event>
 5    1  0.3300771E-002  0.1250282E+03  0.7818608E-02  0.1235025E+00
         -4   -1    0    0    0  501 -0.00000000000E+00  0.00000000000E+00  0.18296071462E+02  0.18340096263E+02  0.12700000000E+01 0. -1.
          4   -1    0    0  501    0  0.00000000000E+00 -0.00000000000E+00 -0.21329599068E+03  0.21329977155E+03  0.12700000000E+01 0. -1.
         25    2    1    2    0    0  0.00000000000E+00  0.00000000000E+00 -0.19499991922E+03  0.23163986781E+03  0.12502823626E+03 0.  0.
    9000005    1    3    3    0    0 -0.13287408387E+01  0.56986545773E+02 -0.14501668799E+03  0.15582063967E+03  0.10000000000E+01 0.  0.
    9000005    1    3    3    0    0  0.13287408387E+01 -0.56986545773E+02 -0.49983231231E+02  0.75819228139E+02  0.10000000000E+01 0.  0.
<mgrwt>
<rscale>  0 0.12502824E+03</rscale>
<asrwt>0</asrwt>
<pdfrwt beam="2">  1        4 0.32818443E-01 0.12502824E+03</pdfrwt>
<pdfrwt beam="1">  1       -4 0.28184577E-02 0.12502824E+03</pdfrwt>
<totfact> 0.85004872E+03</totfact>
</mgrwt>
</event>
<event>
 5    1  0.3300771E-002  0.1249905E+03  0.7818608E-02  0.1235084E+00
         -4   -1    0    0    0  501 -0.00000000000E+00  0.00000000000E+00  0.33382821412E+03  0.33383062988E+03  0.12700000000E+01 0. -1.
          4   -1    0    0  501    0  0.00000000000E+00 -0.00000000000E+00 -0.11662669168E+02  0.11731613364E+02  0.12700000000E+01 0. -1.
         25    2    1    2    0    0  0.00000000000E+00  0.00000000000E+00  0.32216554495E+03  0.34556224324E+03  0.12499050203E+03 0.  0.
    9000005    1    3    3    0    0  0.35375964481E+02 -0.42857715162E+02  0.82086893205E+02  0.99133751305E+02  0.10000000000E+01 0.  0.
    9000005    1    3    3    0    0 -0.35375964481E+02  0.42857715162E+02  0.24007865175E+03  0.24642849193E+03  0.10000000000E+01 0.  0.
<mgrwt>
<rscale>  0 0.12499050E+03</rscale>
<asrwt>0</asrwt>
<pdfrwt beam="2">  1        4 0.17997464E-02 0.12499050E+03</pdfrwt>
<pdfrwt beam="1">  1       -4 0.51363666E-01 0.12499050E+03</pdfrwt>
<totfact> 0.70230308E+03</totfact>
</mgrwt>
</event>
<event>
 5    1  0.3300771E-002  0.1250015E+03  0.7818608E-02  0.1235067E+00
         -4   -1    0    0    0  501 -0.00000000000E+00  0.00000000000E+00  0.53182941043E+02  0.53198102579E+02  0.12700000000E+01 0.  1.
          4   -1    0    0  501    0  0.00000000000E+00 -0.00000000000E+00 -0.73419942329E+02  0.73430925581E+02  0.12700000000E+01 0.  1.
         25    2    1    2    0    0  0.00000000000E+00  0.00000000000E+00 -0.20237001286E+02  0.12662902816E+03  0.12500149820E+03 0.  0.
    9000005    1    3    3    0    0 -0.24879517648E+02  0.21544567066E+01 -0.68150596917E+02  0.72588814167E+02  0.10000000000E+01 0.  0.
    9000005    1    3    3    0    0  0.24879517648E+02 -0.21544567066E+01  0.47913595631E+02  0.54040213993E+02  0.10000000000E+01 0.  0.
<mgrwt>
<rscale>  0 0.12500150E+03</rscale>
<asrwt>0</asrwt>
<pdfrwt beam="2">  1        4 0.11297387E-01 0.12500150E+03</pdfrwt>
<pdfrwt beam="1">  1       -4 0.81840021E-02 0.12500150E+03</pdfrwt>
<totfact> 0.10416864E+04</totfact>
</mgrwt>
</event>
<event>
 5    1  0.3300771E-002  0.1249988E+03  0.7818608E-02  0.1235071E+00
          4   -1    0    0  501    0  0.00000000000E+00  0.00000000000E+00  0.26879303926E+04  0.26879306926E+04  0.12700000000E+01 0. -1.
         -4   -1    0    0    0  501 -0.00000000000E+00 -0.00000000000E+00 -0.11754023295E+01  0.17304538815E+01  0.12700000000E+01 0. -1.
         25    2    1    2    0    0  0.00000000000E+00  0.00000000000E+00  0.26867549903E+04  0.26896611465E+04  0.12499882116E+03 0.  0.
    9000005    1    3    3    0    0  0.28102085645E+02  0.39054216144E+02  0.48531308343E+03  0.48769329293E+03  0.10000000000E+01 0.  0.
    9000005    1    3    3    0    0 -0.28102085645E+02 -0.39054216144E+02  0.22014419068E+04  0.22019678536E+04  0.10000000000E+01 0.  0.
<mgrwt>
<rscale>  0 0.12499882E+03</rscale>
<asrwt>0</asrwt>
<pdfrwt beam="1">  1        4 0.41356908E+00 0.12499882E+03</pdfrwt>
<pdfrwt beam="2">  1       -4 0.22355123E-03 0.12499882E+03</pdfrwt>
<totfact> 0.33450182E+02</totfact>
</mgrwt>
</event>
<event>
 5    1  0.3300771E-002  0.1250059E+03  0.7818608E-02  0.1235060E+00
         -4   -1    0    0    0  501 -0.00000000000E+00  0.00000000000E+00  0.35541224992E+02  0.35563908306E+02  0.12700000000E+01 0. -1.
          4   -1    0    0  501    0  0.00000000000E+00 -0.00000000000E+00 -0.10985657214E+03  0.10986391283E+03  0.12700000000E+01 0. -1.
         25    2    1    2    0    0  0.00000000000E+00  0.00000000000E+00 -0.74315347149E+02  0.14542782114E+03  0.12500592122E+03 0.  0.
    9000005    1    3    3    0    0  0.54624469760E+02 -0.13831149316E+02 -0.68600607859E+02  0.88781624149E+02  0.10000000000E+01 0.  0.
    9000005    1    3    3    0    0 -0.54624469760E+02  0.13831149316E+02 -0.57147392902E+01  0.56646196988E+02  0.10000000000E+01 0.  0.
<mgrwt>
<rscale>  0 0.12500592E+03</rscale>
<asrwt>0</asrwt>
<pdfrwt beam="2">  1        4 0.16903321E-01 0.12500592E+03</pdfrwt>
<pdfrwt beam="1">  1       -4 0.54701903E-02 0.12500592E+03</pdfrwt>
<totfact> 0.10020967E+04</totfact>
</mgrwt>
</event>
<event>
 5    1  0.3300771E-002  0.1249974E+03  0.7818608E-02  0.1235073E+00
          4   -1    0    0  501    0  0.00000000000E+00  0.00000000000E+00  0.69995234132E+03  0.69995349347E+03  0.12700000000E+01 0. -1.
         -4   -1    0    0    0  501 -0.00000000000E+00 -0.00000000000E+00 -0.55070732415E+01  0.56516153166E+01  0.12700000000E+01 0. -1.
         25    2    1    2    0    0  0.00000000000E+00  0.00000000000E+00  0.69444526808E+03  0.70560510878E+03  0.12499735672E+03 0.  0.
    9000005    1    3    3    0    0  0.13614937613E+02  0.60682684966E+02  0.38171237839E+03  0.38674680942E+03  0.10000000000E+01 0.  0.
    9000005    1    3    3    0    0 -0.13614937613E+02 -0.60682684966E+02  0.31273288969E+03  0.31885829936E+03  0.10000000000E+01 0.  0.
<mgrwt>
<rscale>  0 0.12499736E+03</rscale>
<asrwt>0</asrwt>
<pdfrwt beam="1">  1        4 0.10769611E+00 0.12499736E+03</pdfrwt>
<pdfrwt beam="2">  1       -4 0.85844985E-03 0.12499736E+03</pdfrwt>
<totfact> 0.42794954E+03</totfact>
</mgrwt>
</event>
<event>
 5    1  0.3300771E-002  0.1249809E+03  0.7818608E-02  0.1235099E+00
         -4   -1    0    0    0  501 -0.00000000000E+00  0.00000000000E+00  0.91295914235E+01  0.92175018069E+01  0.12700000000E+01 0. -1.
          4   -1    0    0  501    0  0.00000000000E+00 -0.00000000000E+00 -0.42559799563E+03  0.42559989049E+03  0.12700000000E+01 0. -1.
         25    2    1    2    0    0  0.00000000000E+00  0.00000000000E+00 -0.41646840421E+03  0.43481739230E+03  0.12498093031E+03 0.  0.
    9000005    1    3    3    0    0  0.73939284154E-01  0.36906302860E+02 -0.38364204660E+03  0.38541445300E+03  0.10000000000E+01 0.  0.
    9000005    1    3    3    0    0 -0.73939284154E-01 -0.36906302860E+02 -0.32826357605E+02  0.49402939300E+02  0.10000000000E+01 0.  0.
<mgrwt>
<rscale>  0 0.12498093E+03</rscale>
<asrwt>0</asrwt>
<pdfrwt beam="2">  1        4 0.65483507E-01 0.12498093E+03</pdfrwt>
<pdfrwt beam="1">  1       -4 0.14114610E-02 0.12498093E+03</pdfrwt>
<totfact> 0.61327523E+03</totfact>
</mgrwt>
</event>
<event>
 5    1  0.3300771E-002  0.1250028E+03  0.7818608E-02  0.1235065E+00
          4   -1    0    0  501    0  0.00000000000E+00  0.00000000000E+00  0.61442712711E+02  0.61455836543E+02  0.12700000000E+01 0.  1.
         -4   -1    0    0    0  501 -0.00000000000E+00 -0.00000000000E+00 -0.63552100591E+02  0.63564788912E+02  0.12700000000E+01 0.  1.
         25    2    1    2    0    0  0.00000000000E+00  0.00000000000E+00 -0.21093878801E+01  0.12502062546E+03  0.12500282906E+03 0.  0.
    9000005    1    3    3    0    0 -0.28124651448E+02 -0.36888780312E+02 -0.42937244584E+02  0.63216968485E+02  0.10000000000E+01 0.  0.
    9000005    1    3    3    0    0  0.28124651448E+02  0.36888780312E+02  0.40827856704E+02  0.61803656971E+02  0.10000000000E+01 0.  0.
<mgrwt>
<rscale>  0 0.12500283E+03</rscale>
<asrwt>0</asrwt>
<pdfrwt beam="1">  1        4 0.94547105E-02 0.12500283E+03</pdfrwt>
<pdfrwt beam="2">  1       -4 0.97792318E-02 0.12500283E+03</pdfrwt>
<totfact> 0.10451746E+04</totfact>
</mgrwt>
</event>
<event>
 5    1  0.3300771E-002  0.1249964E+03  0.7818608E-02  0.1235075E+00
          4   -1    0    0  501    0  0.00000000000E+00  0.00000000000E+00  0.46246563396E+02  0.46263998162E+02  0.12700000000E+01 0.  1.
         -4   -1    0    0    0  501 -0.00000000000E+00 -0.00000000000E+00 -0.84422714870E+02  0.84432266853E+02  0.12700000000E+01 0.  1.
         25    2    1    2    0    0  0.00000000000E+00  0.00000000000E+00 -0.38176151474E+02  0.13069626502E+03  0.12499638054E+03 0.  0.
    9000005    1    3    3    0    0  0.40340869787E+02  0.20910242727E+02  0.25768056481E+02  0.52245734380E+02  0.10000000000E+01 0.  0.
    9000005    1    3    3    0    0 -0.40340869787E+02 -0.20910242727E+02 -0.63944207955E+02  0.78450530636E+02  0.10000000000E+01 0.  0.
<mgrwt>
<rscale>  0 0.12499638E+03</rscale>
<asrwt>0</asrwt>
<pdfrwt beam="1">  1        4 0.71169318E-02 0.12499638E+03</pdfrwt>
<pdfrwt beam="2">  1       -4 0.12990186E-01 0.12499638E+03</pdfrwt>
<totfact> 0.10330449E+04</totfact>
</mgrwt>
</event>
<event>
 5    1  0.3300771E-002  0.1249987E+03  0.7818608E-02  0.1235071E+00
          4   -1    0    0  501    0  0.00000000000E+00  0.00000000000E+00  0.79128933928E+02  0.79139124866E+02  0.12700000000E+01 0.  1.
         -4   -1    0    0    0  501 -0.00000000000E+00 -0.00000000000E+00 -0.49343065988E+02  0.49359407017E+02  0.12700000000E+01 0.  1.
         25    2    1    2    0    0  0.00000000000E+00  0.00000000000E+00  0.29785867940E+02  0.12849853188E+03  0.12499869906E+03 0.  0.
    9000005    1    3    3    0    0  0.11550941534E+02 -0.61145350416E+02  0.89883739320E+01  0.62880593141E+02  0.10000000000E+01 0.  0.
    9000005    1    3    3    0    0 -0.11550941534E+02  0.61145350416E+02  0.20797494008E+02  0.65617938742E+02  0.10000000000E+01 0.  0.
<mgrwt>
<rscale>  0 0.12499870E+03</rscale>
<asrwt>0</asrwt>
<pdfrwt beam="1">  1        4 0.12175723E-01 0.12499870E+03</pdfrwt>
<pdfrwt beam="2">  1       -4 0.75932819E-02 0.12499870E+03</pdfrwt>
<totfact> 0.10377040E+04</totfact>
</mgrwt>
</event>
<event>
 5    1  0.3300771E-002  0.1249969E+03  0.7818608E-02  0.1235074E+00
          4   -1    0    0  501    0  0.00000000000E+00  0.00000000000E+00  0.12740633563E+02  0.12803774583E+02  0.12700000000E+01 0. -1.
         -4   -1    0    0    0  501 -0.00000000000E+00 -0.00000000000E+00 -0.30576025648E+03  0.30576289400E+03  0.12700000000E+01 0. -1.
         25    2    1    2    0    0  0.00000000000E+00  0.00000000000E+00 -0.29301962292E+03  0.31856666858E+03  0.12499689161E+03 0.  0.
    9000005    1    3    3    0    0  0.50363865367E+01  0.61868309589E+02 -0.16488849993E+03  0.17618816739E+03  0.10000000000E+01 0.  0.
    9000005    1    3    3    0    0 -0.50363865367E+01 -0.61868309589E+02 -0.12813112299E+03  0.14237850119E+03  0.10000000000E+01 0.  0.
<mgrwt>
<rscale>  0 0.12499689E+03</rscale>
<asrwt>0</asrwt>
<pdfrwt beam="1">  1        4 0.19651576E-02 0.12499689E+03</pdfrwt>
<pdfrwt beam="2">  1       -4 0.47045094E-01 0.12499689E+03</pdfrwt>
<totfact> 0.73331981E+03</totfact>
</mgrwt>
</event>
<event>
 5    1  0.3300771E-002  0.1250031E+03  0.7818608E-02  0.1235064E+00
         -4   -1    0    0    0  501 -0.00000000000E+00  0.00000000000E+00  0.41393931219E+03  0.41394126042E+03  0.12700000000E+01 0. -1.
          4   -1    0    0  501    0  0.00000000000E+00 -0.00000000000E+00 -0.93925255361E+01  0.94779974650E+01  0.12700000000E+01 0. -1.
         25    2    1    2    0    0  0.00000000000E+00  0.00000000000E+00  0.40454678665E+03  0.42341925788E+03  0.12500306138E+03 0.  0.
    9000005    1    3    3    0    0  0.54208623693E+02  0.30492550601E+02  0.22289706644E+03  0.23141407207E+03  0.10000000000E+01 0.  0.
    9000005    1    3    3    0    0 -0.54208623693E+02 -0.30492550601E+02  0.18164972021E+03  0.19200518581E+03  0.10000000000E+01 0.  0.
<mgrwt>
<rscale>  0 0.12500306E+03</rscale>
<asrwt>0</asrwt>
<pdfrwt beam="2">  1        4 0.14517286E-02 0.12500306E+03</pdfrwt>
<pdfrwt beam="1">  1       -4 0.63689694E-01 0.12500306E+03</pdfrwt>
<totfact> 0.62332849E+03</totfact>
</mgrwt>
</event>
<event>
 5    1  0.3300771E-002  0.1250013E+03  0.7818608E-02  0.1235067E+00
          4   -1    0    0  501    0  0.00000000000E+00  0.00000000000E+00  0.20494951831E+02  0.20534262844E+02  0.12700000000E+01 0. -1.
         -4   -1    0    0    0  501 -0.00000000000E+00 -0.00000000000E+00 -0.19037556791E+03  0.19037980396E+03  0.12700000000E+01 0. -1.
         25    2    1    2    0    0  0.00000000000E+00  0.00000000000E+00 -0.16988061608E+03  0.21091406681E+03  0.12500127942E+03 0.  0.
    9000005    1    3    3    0    0  0.20825834301E+02  0.11231241858E+02 -0.18253358568E+03  0.18406348380E+03  0.10000000000E+01 0.  0.
    9000005    1    3    3    0    0 -0.20825834301E+02 -0.11231241858E+02  0.12652969602E+02  0.26850583006E+02  0.10000000000E+01 0.  0.
<mgrwt>
<rscale>  0 0.12500128E+03</rscale>
<asrwt>0</asrwt>
<pdfrwt beam="1">  1        4 0.31564194E-02 0.12500128E+03</pdfrwt>
<pdfrwt beam="2">  1       -4 0.29291898E-01 0.12500128E+03</pdfrwt>
<totfact> 0.88324293E+03</totfact>
</mgrwt>
</event>
<event>
 5    1  0.3300771E-002  0.1250005E+03  0.7818608E-02  0.1235068E+00
          4   -1    0    0  501    0  0.00000000000E+00  0.00000000000E+00  0.18935643619E+03  0.18936069504E+03  0.12700000000E+01 0.  1.
         -4   -1    0    0    0  501 -0.00000000000E+00 -0.00000000000E+00 -0.20605218172E+02  0.20644319217E+02  0.12700000000E+01 0.  1.
         25    2    1    2    0    0  0.00000000000E+00  0.00000000000E+00  0.16875121801E+03  0.21000501425E+03  0.12500052972E+03 0.  0.
    9000005    1    3    3    0    0  0.37328281019E+02  0.38491331467E+02  0.30449429944E+02  0.61669692280E+02  0.10000000000E+01 0.  0.
    9000005    1    3    3    0    0 -0.37328281019E+02 -0.38491331467E+02  0.13830178807E+03  0.14833532197E+03  0.10000000000E+01 0.  0.
<mgrwt>
<rscale>  0 0.12500053E+03</rscale>
<asrwt>0</asrwt>
<pdfrwt beam="1">  1        4 0.29135094E-01 0.12500053E+03</pdfrwt>
<pdfrwt beam="2">  1       -4 0.31733690E-02 0.12500053E+03</pdfrwt>
<totfact> 0.88474014E+03</totfact>
</mgrwt>
</event>
<event>
 5    1  0.3300771E-002  0.1250001E+03  0.7818608E-02  0.1235069E+00
          4   -1    0    0  501    0  0.00000000000E+00  0.00000000000E+00  0.15227046513E+02  0.15279916410E+02  0.12700000000E+01 0. -1.
         -4   -1    0    0    0  501 -0.00000000000E+00 -0.00000000000E+00 -0.25603519791E+03  0.25603834765E+03  0.12700000000E+01 0. -1.
         25    2    1    2    0    0  0.00000000000E+00  0.00000000000E+00 -0.24080815139E+03  0.27131826406E+03  0.12500013854E+03 0.  0.
    9000005    1    3    3    0    0 -0.22455594216E+02 -0.30623970071E+00  0.61762413961E+01  0.23312946020E+02  0.10000000000E+01 0.  0.
    9000005    1    3    3    0    0  0.22455594216E+02  0.30623970071E+00 -0.24698439279E+03  0.24800531804E+03  0.10000000000E+01 0.  0.
<mgrwt>
<rscale>  0 0.12500014E+03</rscale>
<asrwt>0</asrwt>
<pdfrwt beam="1">  1        4 0.23469319E-02 0.12500014E+03</pdfrwt>
<pdfrwt beam="2">  1       -4 0.39394337E-01 0.12500014E+03</pdfrwt>
<totfact> 0.79343238E+03</totfact>
</mgrwt>
</event>
<event>
 5    1  0.3300771E-002  0.1250036E+03  0.7818608E-02  0.1235064E+00
          4   -1    0    0  501    0  0.00000000000E+00  0.00000000000E+00  0.17899075559E+04  0.17899080064E+04  0.12700000000E+01 0. -1.
         -4   -1    0    0    0  501 -0.00000000000E+00 -0.00000000000E+00 -0.19972566399E+01  0.23668405281E+01  0.12700000000E+01 0. -1.
         25    2    1    2    0    0  0.00000000000E+00  0.00000000000E+00  0.17879102992E+04  0.17922748469E+04  0.12500355564E+03 0.  0.
    9000005    1    3    3    0    0  0.55505130675E+01 -0.62095515826E+02  0.95614043145E+03  0.95817127171E+03  0.10000000000E+01 0.  0.
    9000005    1    3    3    0    0 -0.55505130675E+01  0.62095515826E+02  0.83176986777E+03  0.83410357523E+03  0.10000000000E+01 0.  0.
<mgrwt>
<rscale>  0 0.12500356E+03</rscale>
<asrwt>0</asrwt>
<pdfrwt beam="1">  1        4 0.27540010E+00 0.12500356E+03</pdfrwt>
<pdfrwt beam="2">  1       -4 0.33573293E-03 0.12500356E+03</pdfrwt>
<totfact> 0.12821755E+03</totfact>
</mgrwt>
</event>
<event>
 5    1  0.3300771E-002  0.1250049E+03  0.7818608E-02  0.1235062E+00
         -4   -1    0    0    0  501 -0.00000000000E+00  0.00000000000E+00  0.55820901688E+01  0.57247384789E+01  0.12700000000E+01 0. -1.
          4   -1    0    0  501    0  0.00000000000E+00 -0.00000000000E+00 -0.69086511084E+03  0.69086627815E+03  0.12700000000E+01 0. -1.
         25    2    1    2    0    0  0.00000000000E+00  0.00000000000E+00 -0.68528302067E+03  0.69659101662E+03  0.12500490398E+03 0.  0.
    9000005    1    3    3    0    0  0.35857252639E+02  0.42845332667E+02 -0.18660214845E+03  0.19478918580E+03  0.10000000000E+01 0.  0.
    9000005    1    3    3    0    0 -0.35857252639E+02 -0.42845332667E+02 -0.49868087222E+03  0.50180183082E+03  0.10000000000E+01 0.  0.
<mgrwt>
<rscale>  0 0.12500490E+03</rscale>
<asrwt>0</asrwt>
<pdfrwt beam="2">  1        4 0.10629794E+00 0.12500490E+03</pdfrwt>
<pdfrwt beam="1">  1       -4 0.86984639E-03 0.12500490E+03</pdfrwt>
<totfact> 0.43262635E+03</totfact>
</mgrwt>
</event>
<event>
 5    1  0.3300771E-002  0.1250001E+03  0.7818608E-02  0.1235069E+00
         -4   -1    0    0    0  501 -0.00000000000E+00  0.00000000000E+00  0.61711855054E+02  0.61724921662E+02  0.12700000000E+01 0.  1.
          4   -1    0    0  501    0  0.00000000000E+00 -0.00000000000E+00 -0.63272190518E+02  0.63284934960E+02  0.12700000000E+01 0.  1.
         25    2    1    2    0    0  0.00000000000E+00  0.00000000000E+00 -0.15603354639E+01  0.12500985662E+03  0.12500011842E+03 0.  0.
    9000005    1    3    3    0    0  0.26579118108E+02  0.55485624902E+02  0.10182132815E+02  0.62368100170E+02  0.10000000000E+01 0.  0.
    9000005    1    3    3    0    0 -0.26579118108E+02 -0.55485624902E+02 -0.11742468279E+02  0.62641756452E+02  0.10000000000E+01 0.  0.
<mgrwt>
<rscale>  0 0.12500012E+03</rscale>
<asrwt>0</asrwt>
<pdfrwt beam="2">  1        4 0.97361686E-02 0.12500012E+03</pdfrwt>
<pdfrwt beam="1">  1       -4 0.94961171E-02 0.12500012E+03</pdfrwt>
<totfact> 0.10452620E+04</totfact>
</mgrwt>
</event>
<event>
 5    1  0.3300771E-002  0.1250012E+03  0.7818608E-02  0.1235067E+00
          4   -1    0    0  501    0  0.00000000000E+00  0.00000000000E+00  0.22805281358E+02  0.22840616406E+02  0.12700000000E+01 0.  1.
         -4   -1    0    0    0  501 -0.00000000000E+00 -0.00000000000E+00 -0.17112013176E+03  0.17112484447E+03  0.12700000000E+01 0.  1.
         25    2    1    2    0    0  0.00000000000E+00  0.00000000000E+00 -0.14831485040E+03  0.19396546087E+03  0.12500122064E+03 0.  0.
    9000005    1    3    3    0    0  0.19611610395E+02 -0.56441680394E+02 -0.45754472095E+02  0.75264535238E+02  0.10000000000E+01 0.  0.
    9000005    1    3    3    0    0 -0.19611610395E+02  0.56441680394E+02 -0.10256037831E+03  0.11870092563E+03  0.10000000000E+01 0.  0.
<mgrwt>
<rscale>  0 0.12500122E+03</rscale>
<asrwt>0</asrwt>
<pdfrwt beam="1">  1        4 0.35115855E-02 0.12500122E+03</pdfrwt>
<pdfrwt beam="2">  1       -4 0.26329254E-01 0.12500122E+03</pdfrwt>
<totfact> 0.91159388E+03</totfact>
</mgrwt>
</event>
<event>
 5    1  0.3300771E-002  0.1250001E+03  0.7818608E-02  0.1235069E+00
         -4   -1    0    0    0  501 -0.00000000000E+00  0.00000000000E+00  0.37360371497E+03  0.37360587353E+03  0.12700000000E+01 0. -1.
          4   -1    0    0  501    0  0.00000000000E+00 -0.00000000000E+00 -0.10414845706E+02  0.10491992713E+02  0.12700000000E+01 0. -1.
         25    2    1    2    0    0  0.00000000000E+00  0.00000000000E+00  0.36318886926E+03  0.38409786625E+03  0.12500006439E+03 0.  0.
    9000005    1    3    3    0    0 -0.52134425800E+02 -0.11154385731E+02  0.81418211644E+02  0.97325967048E+02  0.10000000000E+01 0.  0.
    9000005    1    3    3    0    0  0.52134425800E+02  0.11154385731E+02  0.28177065762E+03  0.28677189920E+03  0.10000000000E+01 0.  0.
<mgrwt>
<rscale>  0 0.12500006E+03</rscale>
<asrwt>0</asrwt>
<pdfrwt beam="2">  1        4 0.16083844E-02 0.12500006E+03</pdfrwt>
<pdfrwt beam="1">  1       -4 0.57483594E-01 0.12500006E+03</pdfrwt>
<totfact> 0.66129271E+03</totfact>
</mgrwt>
</event>
<event>
 5    1  0.3300771E-002  0.1250179E+03  0.7818608E-02  0.1235041E+00
          4   -1    0    0  501    0  0.00000000000E+00  0.00000000000E+00  0.61055648981E+02  0.61068855994E+02  0.12700000000E+01 0. -1.
         -4   -1    0    0    0  501 -0.00000000000E+00 -0.00000000000E+00 -0.63970368543E+02  0.63982973919E+02  0.12700000000E+01 0. -1.
         25    2    1    2    0    0  0.00000000000E+00  0.00000000000E+00 -0.29147195625E+01  0.12505182991E+03  0.12501785702E+03 0.  0.
    9000005    1    3    3    0    0 -0.44411821981E+02 -0.34657350154E+02  0.25620724125E+02  0.61894776484E+02  0.10000000000E+01 0.  0.
    9000005    1    3    3    0    0  0.44411821981E+02  0.34657350154E+02 -0.28535443688E+02  0.63157053429E+02  0.10000000000E+01 0.  0.
<mgrwt>
<rscale>  0 0.12501786E+03</rscale>
<asrwt>0</asrwt>
<pdfrwt beam="1">  1        4 0.93951624E-02 0.12501786E+03</pdfrwt>
<pdfrwt beam="2">  1       -4 0.98435807E-02 0.12501786E+03</pdfrwt>
<totfact> 0.10447520E+04</totfact>
</mgrwt>
</event>
<event>
 5    1  0.3300771E-002  0.1250005E+03  0.7818608E-02  0.1235069E+00
         -4   -1    0    0    0  501 -0.00000000000E+00  0.00000000000E+00  0.12284589206E+03  0.12285245661E+03  0.12700000000E+01 0. -1.
          4   -1    0    0  501    0  0.00000000000E+00 -0.00000000000E+00 -0.31778125635E+02  0.31803493030E+02  0.12700000000E+01 0. -1.
         25    2    1    2    0    0  0.00000000000E+00  0.00000000000E+00  0.91067766422E+02  0.15465594964E+03  0.12500049871E+03 0.  0.
    9000005    1    3    3    0    0  0.34288176650E+02  0.13430692523E+02 -0.16934235434E+02  0.40544184408E+02  0.10000000000E+01 0.  0.
    9000005    1    3    3    0    0 -0.34288176650E+02 -0.13430692523E+02  0.10800200186E+03  0.11411176523E+03  0.10000000000E+01 0.  0.
<mgrwt>
<rscale>  0 0.12500050E+03</rscale>
<asrwt>0</asrwt>
<pdfrwt beam="2">  1        4 0.48913987E-02 0.12500050E+03</pdfrwt>
<pdfrwt beam="1">  1       -4 0.18901824E-01 0.12500050E+03</pdfrwt>
<totfact> 0.98381979E+03</totfact>
</mgrwt>
</event>
<event>
 5    1  0.3300771E-002  0.1250004E+03  0.7818608E-02  0.1235069E+00
         -4   -1    0    0    0  501 -0.00000000000E+00  0.00000000000E+00  0.18536760938E+02  0.18580215447E+02  0.12700000000E+01 0.  1.
          4   -1    0    0  501    0  0.00000000000E+00 -0.00000000000E+00 -0.21043913218E+03  0.21044296437E+03  0.12700000000E+01 0.  1.
         25    2    1    2    0    0  0.00000000000E+00  0.00000000000E+00 -0.19190237124E+03  0.22902317982E+03  0.12500038722E+03 0.  0.
    9000005    1    3    3    0    0 -0.27040029492E+02 -0.48986984739E+02 -0.44965657579E+02  0.71789959119E+02  0.10000000000E+01 0.  0.
    9000005    1    3    3    0    0  0.27040029492E+02  0.48986984739E+02 -0.14693671367E+03  0.15723322070E+03  0.10000000000E+01 0.  0.
<mgrwt>
<rscale>  0 0.12500039E+03</rscale>
<asrwt>0</asrwt>
<pdfrwt beam="2">  1        4 0.32378887E-01 0.12500039E+03</pdfrwt>
<pdfrwt beam="1">  1       -4 0.28554470E-02 0.12500039E+03</pdfrwt>
<totfact> 0.85459077E+03</totfact>
</mgrwt>
</event>
<event>
 5    1  0.3300771E-002  0.1249983E+03  0.7818608E-02  0.1235072E+00
         -4   -1    0    0    0  501 -0.00000000000E+00  0.00000000000E+00  0.76695402061E+02  0.76705916313E+02  0.12700000000E+01 0. -1.
          4   -1    0    0  501    0  0.00000000000E+00 -0.00000000000E+00 -0.50908704215E+02  0.50924542854E+02  0.12700000000E+01 0. -1.
         25    2    1    2    0    0  0.00000000000E+00  0.00000000000E+00  0.25786697846E+02  0.12763045917E+03  0.12499832127E+03 0.  0.
    9000005    1    3    3    0    0 -0.27529799773E+01 -0.27204722011E+02  0.70267955195E+02  0.75407302868E+02  0.10000000000E+01 0.  0.
    9000005    1    3    3    0    0  0.27529799773E+01  0.27204722011E+02 -0.44481257349E+02  0.52223156299E+02  0.10000000000E+01 0.  0.
<mgrwt>
<rscale>  0 0.12499832E+03</rscale>
<asrwt>0</asrwt>
<pdfrwt beam="2">  1        4 0.78341355E-02 0.12499832E+03</pdfrwt>
<pdfrwt beam="1">  1       -4 0.11801320E-01 0.12499832E+03</pdfrwt>
<totfact> 0.10395870E+04</totfact>
</mgrwt>
</event>
<event>
 5    1  0.3300771E-002  0.1250004E+03  0.7818608E-02  0.1235069E+00
         -4   -1    0    0    0  501 -0.00000000000E+00  0.00000000000E+00  0.68029315144E+03  0.68029433689E+03  0.12700000000E+01 0. -1.
          4   -1    0    0  501    0  0.00000000000E+00 -0.00000000000E+00 -0.56706206107E+01  0.58110961195E+01  0.12700000000E+01 0. -1.
         25    2    1    2    0    0  0.00000000000E+00  0.00000000000E+00  0.67462253083E+03  0.68610543301E+03  0.12500042438E+03 0.  0.
    9000005    1    3    3    0    0 -0.48461423590E+02 -0.39455845995E+02  0.33700252557E+03  0.34274914384E+03  0.10000000000E+01 0.  0.
    9000005    1    3    3    0    0  0.48461423590E+02  0.39455845995E+02  0.33762000526E+03  0.34335628917E+03  0.10000000000E+01 0.  0.
<mgrwt>
<rscale>  0 0.12500042E+03</rscale>
<asrwt>0</asrwt>
<pdfrwt beam="2">  1        4 0.88330078E-03 0.12500042E+03</pdfrwt>
<pdfrwt beam="1">  1       -4 0.10467131E+00 0.12500042E+03</pdfrwt>
<totfact> 0.43830006E+03</totfact>
</mgrwt>
</event>
<event>
 5    1  0.3300771E-002  0.1250005E+03  0.7818608E-02  0.1235068E+00
         -4   -1    0    0    0  501 -0.00000000000E+00  0.00000000000E+00  0.11707676712E+03  0.11708365513E+03  0.12700000000E+01 0.  1.
          4   -1    0    0  501    0  0.00000000000E+00 -0.00000000000E+00 -0.33345190619E+02  0.33369366752E+02  0.12700000000E+01 0.  1.
         25    2    1    2    0    0  0.00000000000E+00  0.00000000000E+00  0.83731576496E+02  0.15045302188E+03  0.12500053956E+03 0.  0.
    9000005    1    3    3    0    0  0.92800328861E+01  0.47212467954E+01  0.11603132617E+03  0.11650183618E+03  0.10000000000E+01 0.  0.
    9000005    1    3    3    0    0 -0.92800328861E+01 -0.47212467954E+01 -0.32299749669E+02  0.33951185699E+02  0.10000000000E+01 0.  0.
<mgrwt>
<rscale>  0 0.12500054E+03</rscale>
<asrwt>0</asrwt>
<pdfrwt beam="2">  1        4 0.51324189E-02 0.12500054E+03</pdfrwt>
<pdfrwt beam="1">  1       -4 0.18014200E-01 0.12500054E+03</pdfrwt>
<totfact> 0.99212267E+03</totfact>
</mgrwt>
</event>
<event>
 5    1  0.3300771E-002  0.1249984E+03  0.7818608E-02  0.1235072E+00
         -4   -1    0    0    0  501 -0.00000000000E+00  0.00000000000E+00  0.58000540906E+02  0.58014443421E+02  0.12700000000E+01 0. -1.
          4   -1    0    0  501    0  0.00000000000E+00 -0.00000000000E+00 -0.67318780329E+02  0.67330758833E+02  0.12700000000E+01 0. -1.
         25    2    1    2    0    0  0.00000000000E+00  0.00000000000E+00 -0.93182394230E+01  0.12534520225E+03  0.12499836056E+03 0.  0.
    9000005    1    3    3    0    0 -0.62137573581E+02 -0.45366237194E+00 -0.11300462678E+02  0.63166322648E+02  0.10000000000E+01 0.  0.
    9000005    1    3    3    0    0  0.62137573581E+02  0.45366237194E+00  0.19822232547E+01  0.62178879606E+02  0.10000000000E+01 0.  0.
<mgrwt>
<rscale>  0 0.12499836E+03</rscale>
<asrwt>0</asrwt>
<pdfrwt beam="2">  1        4 0.10358726E-01 0.12499836E+03</pdfrwt>
<pdfrwt beam="1">  1       -4 0.89251510E-02 0.12499836E+03</pdfrwt>
<totfact> 0.10445756E+04</totfact>
</mgrwt>
</event>
<event>
 5    1  0.3300771E-002  0.1249990E+03  0.7818608E-02  0.1235071E+00
          4   -1    0    0  501    0  0.00000000000E+00  0.00000000000E+00  0.92810737715E+03  0.92810824607E+03  0.12700000000E+01 0.  1.
         -4   -1    0    0    0  501 -0.00000000000E+00 -0.00000000000E+00 -0.41120697669E+01  0.43037213859E+01  0.12700000000E+01 0.  1.
         25    2    1    2    0    0  0.00000000000E+00  0.00000000000E+00  0.92399530739E+03  0.93241196746E+03  0.12499899594E+03 0.  0.
    9000005    1    3    3    0    0  0.59584408383E+02  0.72827974898E+01  0.33240084599E+03  0.33777901545E+03  0.10000000000E+01 0.  0.
    9000005    1    3    3    0    0 -0.59584408383E+02 -0.72827974898E+01  0.59159446140E+03  0.59463295201E+03  0.10000000000E+01 0.  0.
<mgrwt>
<rscale>  0 0.12499900E+03</rscale>
<asrwt>0</asrwt>
<pdfrwt beam="1">  1        4 0.14280071E+00 0.12499900E+03</pdfrwt>
<pdfrwt beam="2">  1       -4 0.64743471E-03 0.12499900E+03</pdfrwt>
<totfact> 0.32949448E+03</totfact>
</mgrwt>
</event>
<event>
 5    1  0.3300771E-002  0.1250017E+03  0.7818608E-02  0.1235067E+00
         -4   -1    0    0    0  501 -0.00000000000E+00  0.00000000000E+00  0.30986587634E+02  0.31012602490E+02  0.12700000000E+01 0. -1.
          4   -1    0    0  501    0  0.00000000000E+00 -0.00000000000E+00 -0.12598401822E+03  0.12599041927E+03  0.12700000000E+01 0. -1.
         25    2    1    2    0    0  0.00000000000E+00  0.00000000000E+00 -0.94997430585E+02  0.15700302176E+03  0.12500174808E+03 0.  0.
    9000005    1    3    3    0    0 -0.56400926432E+02 -0.26682898544E+02 -0.43090565365E+02  0.75834282489E+02  0.10000000000E+01 0.  0.
    9000005    1    3    3    0    0  0.56400926432E+02  0.26682898544E+02 -0.51906865221E+02  0.81168739267E+02  0.10000000000E+01 0.  0.
<mgrwt>
<rscale>  0 0.12500175E+03</rscale>
<asrwt>0</asrwt>
<pdfrwt beam="2">  1        4 0.19384650E-01 0.12500175E+03</pdfrwt>
<pdfrwt beam="1">  1       -4 0.47696610E-02 0.12500175E+03</pdfrwt>
<totfact> 0.97919861E+03</totfact>
</mgrwt>
</event>
<event>
 5    1  0.3300771E-002  0.1249777E+03  0.7818608E-02  0.1235104E+00
          4   -1    0    0  501    0  0.00000000000E+00  0.00000000000E+00  0.21216352842E+02  0.21254329627E+02  0.12700000000E+01 0.  1.
         -4   -1    0    0    0  501 -0.00000000000E+00 -0.00000000000E+00 -0.18384469980E+03  0.18384908633E+03  0.12700000000E+01 0.  1.
         25    2    1    2    0    0  0.00000000000E+00  0.00000000000E+00 -0.16262834696E+03  0.20510341595E+03  0.12497772603E+03 0.  0.
    9000005    1    3    3    0    0  0.40185650611E+02 -0.41654005704E+02 -0.42689755024E+02  0.71926058492E+02  0.10000000000E+01 0.  0.
    9000005    1    3    3    0    0 -0.40185650611E+02  0.41654005704E+02 -0.11993859193E+03  0.13317735746E+03  0.10000000000E+01 0.  0.
<mgrwt>
<rscale>  0 0.12497773E+03</rscale>
<asrwt>0</asrwt>
<pdfrwt beam="1">  1        4 0.32673131E-02 0.12497773E+03</pdfrwt>
<pdfrwt beam="2">  1       -4 0.28287058E-01 0.12497773E+03</pdfrwt>
<totfact> 0.89326348E+03</totfact>
</mgrwt>
</event>
<event>
 5    1  0.3300771E-002  0.1250011E+03  0.7818608E-02  0.1235068E+00
          4   -1    0    0  501    0  0.00000000000E+00  0.00000000000E+00  0.10763553339E+03  0.10764302554E+03  0.12700000000E+01 0. -1.
         -4   -1    0    0    0  501 -0.00000000000E+00 -0.00000000000E+00 -0.36272213573E+02  0.36294440036E+02  0.12700000000E+01 0. -1.
         25    2    1    2    0    0  0.00000000000E+00  0.00000000000E+00  0.71363319818E+02  0.14393746558E+03  0.12500108232E+03 0.  0.
    9000005    1    3    3    0    0 -0.57970340881E+01  0.16295603168E+01  0.10730632729E+03  0.10747980716E+03  0.10000000000E+01 0.  0.
    9000005    1    3    3    0    0  0.57970340881E+01 -0.16295603168E+01 -0.35943007474E+02  0.36457658418E+02  0.10000000000E+01 0.  0.
<mgrwt>
<rscale>  0 0.12500108E+03</rscale>
<asrwt>0</asrwt>
<pdfrwt beam="1">  1        4 0.16561599E-01 0.12500108E+03</pdfrwt>
<pdfrwt beam="2">  1       -4 0.55826266E-02 0.12500108E+03</pdfrwt>
<totfact> 0.10052376E+04</totfact>
</mgrwt>
</event>
<event>
 5    1  0.3300771E-002  0.1250037E+03  0.7818608E-02  0.1235064E+00
         -4   -1    0    0    0  501 -0.00000000000E+00  0.00000000000E+00  0.13618910447E+03  0.13619502588E+03  0.12700000000E+01 0.  1.
          4   -1    0    0  501    0  0.00000000000E+00 -0.00000000000E+00 -0.28663615457E+02  0.28691736634E+02  0.12700000000E+01 0.  1.
         25    2    1    2    0    0  0.00000000000E+00  0.00000000000E+00  0.10752548901E+03  0.16488676252E+03  0.12500365461E+03 0.  0.
    9000005    1    3    3    0    0 -0.55365826806E+01 -0.57345530761E+02  0.85702272825E+02  0.10327169609E+03  0.10000000000E+01 0.  0.
    9000005    1    3    3    0    0  0.55365826806E+01  0.57345530761E+02  0.21823216184E+02  0.61615066426E+02  0.10000000000E+01 0.  0.
<mgrwt>
<rscale>  0 0.12500365E+03</rscale>
<asrwt>0</asrwt>
<pdfrwt beam="2">  1        4 0.44124057E-02 0.12500365E+03</pdfrwt>
<pdfrwt beam="1">  1       -4 0.20954788E-01 0.12500365E+03</pdfrwt>
<totfact> 0.96400927E+03</totfact>
</mgrwt>
</event>
<event>
 5    1  0.3300771E-002  0.1250013E+03  0.7818608E-02  0.1235067E+00
         -4   -1    0    0    0  501 -0.00000000000E+00  0.00000000000E+00  0.58484750139E+02  0.58498537578E+02  0.12700000000E+01 0.  1.
          4   -1    0    0  501    0  0.00000000000E+00 -0.00000000000E+00 -0.66764557483E+02  0.66776635404E+02  0.12700000000E+01 0.  1.
         25    2    1    2    0    0  0.00000000000E+00  0.00000000000E+00 -0.82798073444E+01  0.12527517298E+03  0.12500125502E+03 0.  0.
    9000005    1    3    3    0    0  0.37891513002E+02 -0.34796075672E+01  0.45541440490E+02  0.59353999261E+02  0.10000000000E+01 0.  0.
    9000005    1    3    3    0    0 -0.37891513002E+02  0.34796075672E+01 -0.53821247834E+02  0.65921173722E+02  0.10000000000E+01 0.  0.
<mgrwt>
<rscale>  0 0.12500126E+03</rscale>
<asrwt>0</asrwt>
<pdfrwt beam="2">  1        4 0.10273460E-01 0.12500126E+03</pdfrwt>
<pdfrwt beam="1">  1       -4 0.89996435E-02 0.12500126E+03</pdfrwt>
<totfact> 0.10446592E+04</totfact>
</mgrwt>
</event>
<event>
 5    1  0.3300771E-002  0.1249976E+03  0.7818608E-02  0.1235073E+00
         -4   -1    0    0    0  501 -0.00000000000E+00  0.00000000000E+00  0.13382024705E+02  0.13442153295E+02  0.12700000000E+01 0. -1.
          4   -1    0    0  501    0  0.00000000000E+00 -0.00000000000E+00 -0.29117573579E+03  0.29117850541E+03  0.12700000000E+01 0. -1.
         25    2    1    2    0    0  0.00000000000E+00  0.00000000000E+00 -0.27779371109E+03  0.30462065871E+03  0.12499759914E+03 0.  0.
    9000005    1    3    3    0    0  0.22823391792E+01  0.17670754785E+02 -0.28486625650E+03  0.28542468138E+03  0.10000000000E+01 0.  0.
    9000005    1    3    3    0    0 -0.22823391792E+01 -0.17670754785E+02  0.70725454183E+01  0.19195977326E+02  0.10000000000E+01 0.  0.
<mgrwt>
<rscale>  0 0.12499760E+03</rscale>
<asrwt>0</asrwt>
<pdfrwt beam="2">  1        4 0.44801101E-01 0.12499760E+03</pdfrwt>
<pdfrwt beam="1">  1       -4 0.20636116E-02 0.12499760E+03</pdfrwt>
<totfact> 0.75026863E+03</totfact>
</mgrwt>
</event>
<event>
 5    1  0.3300771E-002  0.1250053E+03  0.7818608E-02  0.1235061E+00
          4   -1    0    0  501    0  0.00000000000E+00  0.00000000000E+00  0.27535910894E+02  0.27565182546E+02  0.12700000000E+01 0. -1.
         -4   -1    0    0    0  501 -0.00000000000E+00 -0.00000000000E+00 -0.14176473795E+03  0.14177042648E+03  0.12700000000E+01 0. -1.
         25    2    1    2    0    0  0.00000000000E+00  0.00000000000E+00 -0.11422882705E+03  0.16933560903E+03  0.12500529411E+03 0.  0.
    9000005    1    3    3    0    0 -0.48291002967E+02 -0.38758982036E+02 -0.68552895897E+02  0.92383868678E+02  0.10000000000E+01 0.  0.
    9000005    1    3    3    0    0  0.48291002967E+02  0.38758982036E+02 -0.45675931155E+02  0.76951740350E+02  0.10000000000E+01 0.  0.
<mgrwt>
<rscale>  0 0.12500529E+03</rscale>
<asrwt>0</asrwt>
<pdfrwt beam="1">  1        4 0.42389833E-02 0.12500529E+03</pdfrwt>
<pdfrwt beam="2">  1       -4 0.21812648E-01 0.12500529E+03</pdfrwt>
<totfact> 0.95561179E+03</totfact>
</mgrwt>
</event>
<event>
 5    1  0.3300771E-002  0.1250032E+03  0.7818608E-02  0.1235064E+00
         -4   -1    0    0    0  501 -0.00000000000E+00  0.00000000000E+00  0.10322888321E+04  0.10322896133E+04  0.12700000000E+01 0. -1.
          4   -1    0    0  501    0  0.00000000000E+00 -0.00000000000E+00 -0.36769002936E+01  0.38900508698E+01  0.12700000000E+01 0. -1.
         25    2    1    2    0    0  0.00000000000E+00  0.00000000000E+00  0.10286119318E+04  0.10361796642E+04  0.12500316090E+03 0.  0.
    9000005    1    3    3    0    0 -0.51769852513E+02 -0.14885960031E+01  0.80420551532E+03  0.80587210178E+03  0.10000000000E+01 0.  0.
    9000005    1    3    3    0    0  0.51769852513E+02  0.14885960031E+01  0.22440641645E+03  0.23030756239E+03  0.10000000000E+01 0.  0.
<mgrwt>
<rscale>  0 0.12500316E+03</rscale>
<asrwt>0</asrwt>
<pdfrwt beam="2">  1        4 0.58213322E-03 0.12500316E+03</pdfrwt>
<pdfrwt beam="1">  1       -4 0.15883013E+00 0.12500316E+03</pdfrwt>
<totfact> 0.29428214E+03</totfact>
</mgrwt>
</event>
<event>
 5    1  0.3300771E-002  0.1249982E+03  0.7818608E-02  0.1235072E+00
         -4   -1    0    0    0  501 -0.00000000000E+00  0.00000000000E+00  0.16851812174E+03  0.16852290721E+03  0.12700000000E+01 0.  1.
          4   -1    0    0  501    0  0.00000000000E+00 -0.00000000000E+00 -0.23156825622E+02  0.23191625059E+02  0.12700000000E+01 0.  1.
         25    2    1    2    0    0  0.00000000000E+00  0.00000000000E+00  0.14536129612E+03  0.19171453227E+03  0.12499822188E+03 0.  0.
    9000005    1    3    3    0    0 -0.59405414838E+02  0.61964656407E+01  0.10086720596E+03  0.11722880506E+03  0.10000000000E+01 0.  0.
    9000005    1    3    3    0    0  0.59405414838E+02 -0.61964656407E+01  0.44494090160E+02  0.74485727208E+02  0.10000000000E+01 0.  0.
<mgrwt>
<rscale>  0 0.12499822E+03</rscale>
<asrwt>0</asrwt>
<pdfrwt beam="2">  1        4 0.35656336E-02 0.12499822E+03</pdfrwt>
<pdfrwt beam="1">  1       -4 0.25928910E-01 0.12499822E+03</pdfrwt>
<totfact> 0.91553490E+03</totfact>
</mgrwt>
</event>
<event>
 5    1  0.3300771E-002  0.1250043E+03  0.7818608E-02  0.1235063E+00
         -4   -1    0    0    0  501 -0.00000000000E+00  0.00000000000E+00  0.49046201636E+02  0.49062641540E+02  0.12700000000E+01 0. -1.
          4   -1    0    0  501    0  0.00000000000E+00 -0.00000000000E+00 -0.79614875222E+02  0.79625003966E+02  0.12700000000E+01 0. -1.
         25    2    1    2    0    0  0.00000000000E+00  0.00000000000E+00 -0.30568673586E+02  0.12868764551E+03  0.12500426513E+03 0.  0.
    9000005    1    3    3    0    0  0.51772013106E+02  0.17980628900E+02  0.15631750735E+02  0.56999964805E+02  0.10000000000E+01 0.  0.
    9000005    1    3    3    0    0 -0.51772013106E+02 -0.17980628900E+02 -0.46200424321E+02  0.71687680701E+02  0.10000000000E+01 0.  0.
<mgrwt>
<rscale>  0 0.12500427E+03</rscale>
<asrwt>0</asrwt>
<pdfrwt beam="2">  1        4 0.12250486E-01 0.12500427E+03</pdfrwt>
<pdfrwt beam="1">  1       -4 0.75476132E-02 0.12500427E+03</pdfrwt>
<totfact> 0.10371665E+04</totfact>
</mgrwt>
</event>
<event>
 5    1  0.3300771E-002  0.1250023E+03  0.7818608E-02  0.1235066E+00
          4   -1    0    0  501    0  0.00000000000E+00  0.00000000000E+00  0.13336338255E+03  0.13336942942E+03  0.12700000000E+01 0. -1.
         -4   -1    0    0    0  501 -0.00000000000E+00 -0.00000000000E+00 -0.29270892033E+02  0.29298430341E+02  0.12700000000E+01 0. -1.
         25    2    1    2    0    0  0.00000000000E+00  0.00000000000E+00  0.10409249052E+03  0.16266785976E+03  0.12500234405E+03 0.  0.
    9000005    1    3    3    0    0  0.56135081776E+02 -0.27303563881E+02  0.55898784948E+02  0.83799201459E+02  0.10000000000E+01 0.  0.
    9000005    1    3    3    0    0 -0.56135081776E+02  0.27303563881E+02  0.48193705568E+02  0.78868658306E+02  0.10000000000E+01 0.  0.
<mgrwt>
<rscale>  0 0.12500234E+03</rscale>
<asrwt>0</asrwt>
<pdfrwt beam="1">  1        4 0.20520027E-01 0.12500234E+03</pdfrwt>
<pdfrwt beam="2">  1       -4 0.45057976E-02 0.12500234E+03</pdfrwt>
<totfact> 0.96825794E+03</totfact>
</mgrwt>
</event>
<event>
 5    1  0.3300771E-002  0.1250030E+03  0.7818608E-02  0.1235065E+00
          4   -1    0    0  501    0  0.00000000000E+00  0.00000000000E+00  0.12821622993E+02  0.12884367124E+02  0.12700000000E+01 0. -1.
         -4   -1    0    0    0  501 -0.00000000000E+00 -0.00000000000E+00 -0.30386784766E+03  0.30387050160E+03  0.12700000000E+01 0. -1.
         25    2    1    2    0    0  0.00000000000E+00  0.00000000000E+00 -0.29104622467E+03  0.31675486872E+03  0.12500296783E+03 0.  0.
    9000005    1    3    3    0    0 -0.12073620334E+02  0.23365145304E+02 -0.18723674367E+01  0.26385755302E+02  0.10000000000E+01 0.  0.
    9000005    1    3    3    0    0  0.12073620334E+02 -0.23365145304E+02 -0.28917385723E+03  0.29036911342E+03  0.10000000000E+01 0.  0.
<mgrwt>
<rscale>  0 0.12500297E+03</rscale>
<asrwt>0</asrwt>
<pdfrwt beam="1">  1        4 0.19775882E-02 0.12500297E+03</pdfrwt>
<pdfrwt beam="2">  1       -4 0.46753925E-01 0.12500297E+03</pdfrwt>
<totfact> 0.73538923E+03</totfact>
</mgrwt>
</event>
<event>
 5    1  0.3300771E-002  0.1249988E+03  0.7818608E-02  0.1235071E+00
          4   -1    0    0  501    0  0.00000000000E+00  0.00000000000E+00  0.20879104112E+03  0.20879490356E+03  0.12700000000E+01 0. -1.
         -4   -1    0    0    0  501 -0.00000000000E+00 -0.00000000000E+00 -0.18682932961E+02  0.18726048276E+02  0.12700000000E+01 0. -1.
         25    2    1    2    0    0  0.00000000000E+00  0.00000000000E+00  0.19010810816E+03  0.22752095183E+03  0.12499876294E+03 0.  0.
    9000005    1    3    3    0    0  0.43393328121E+02 -0.30714808260E+02  0.15483800357E+03  0.16371373712E+03  0.10000000000E+01 0.  0.
    9000005    1    3    3    0    0 -0.43393328121E+02  0.30714808260E+02  0.35270104584E+02  0.63807214712E+02  0.10000000000E+01 0.  0.
<mgrwt>
<rscale>  0 0.12499876E+03</rscale>
<asrwt>0</asrwt>
<pdfrwt beam="1">  1        4 0.32125311E-01 0.12499876E+03</pdfrwt>
<pdfrwt beam="2">  1       -4 0.28779112E-02 0.12499876E+03</pdfrwt>
<totfact> 0.85694083E+03</totfact>
</mgrwt>
</event>
<event>
 5    1  0.3300771E-002  0.1249910E+03  0.7818608E-02  0.1235083E+00
          4   -1    0    0  501    0  0.00000000000E+00  0.00000000000E+00  0.42685870489E+03  0.42686059415E+03  0.12700000000E+01 0.  1.
         -4   -1    0    0    0  501 -0.00000000000E+00 -0.00000000000E+00 -0.91038476333E+01  0.91920042282E+01  0.12700000000E+01 0.  1.
         25    2    1    2    0    0  0.00000000000E+00  0.00000000000E+00  0.41775485725E+03  0.43605259838E+03  0.12499099085E+03 0.  0.
    9000005    1    3    3    0    0  0.56160580823E+02  0.27088756386E+02  0.19454608062E+03  0.20429632655E+03  0.10000000000E+01 0.  0.
    9000005    1    3    3    0    0 -0.56160580823E+02 -0.27088756386E+02  0.22320877664E+03  0.23175627182E+03  0.10000000000E+01 0.  0.
<mgrwt>
<rscale>  0 0.12499099E+03</rscale>
<asrwt>0</asrwt>
<pdfrwt beam="1">  1        4 0.65677492E-01 0.12499099E+03</pdfrwt>
<pdfrwt beam="2">  1       -4 0.14075186E-02 0.12499099E+03</pdfrwt>
<totfact> 0.61203321E+03</totfact>
</mgrwt>
</event>
<event>
 5    1  0.3300771E-002  0.1249802E+03  0.7818608E-02  0.1235100E+00
          4   -1    0    0  501    0  0.00000000000E+00  0.00000000000E+00  0.92454455377E+02  0.92463177639E+02  0.12700000000E+01 0.  1.
         -4   -1    0    0    0  501 -0.00000000000E+00 -0.00000000000E+00 -0.42216869341E+02  0.42235967575E+02  0.12700000000E+01 0.  1.
         25    2    1    2    0    0  0.00000000000E+00  0.00000000000E+00  0.50237586036E+02  0.13469914521E+03  0.12498017711E+03 0.  0.
    9000005    1    3    3    0    0  0.57322556495E+02 -0.23338530674E+02  0.34355468240E+02  0.70794496221E+02  0.10000000000E+01 0.  0.
    9000005    1    3    3    0    0 -0.57322556495E+02  0.23338530674E+02  0.15882117796E+02  0.63904648992E+02  0.10000000000E+01 0.  0.
<mgrwt>
<rscale>  0 0.12498018E+03</rscale>
<asrwt>0</asrwt>
<pdfrwt beam="1">  1        4 0.14225902E-01 0.12498018E+03</pdfrwt>
<pdfrwt beam="2">  1       -4 0.64970430E-02 0.12498018E+03</pdfrwt>
<totfact> 0.10248997E+04</totfact>
</mgrwt>
</event>
<event>
 5    1  0.3300771E-002  0.1250014E+03  0.7818608E-02  0.1235067E+00
          4   -1    0    0  501    0  0.00000000000E+00  0.00000000000E+00  0.14913676947E+03  0.14914217683E+03  0.12700000000E+01 0.  1.
         -4   -1    0    0    0  501 -0.00000000000E+00 -0.00000000000E+00 -0.26171688788E+02  0.26202484501E+02  0.12700000000E+01 0.  1.
         25    2    1    2    0    0  0.00000000000E+00  0.00000000000E+00  0.12296508068E+03  0.17534466133E+03  0.12500135675E+03 0.  0.
    9000005    1    3    3    0    0  0.11035428145E+01 -0.55687359505E+02  0.10123326525E+03  0.11554857770E+03  0.10000000000E+01 0.  0.
    9000005    1    3    3    0    0 -0.11035428145E+01  0.55687359505E+02  0.21731815436E+02  0.59796083630E+02  0.10000000000E+01 0.  0.
<mgrwt>
<rscale>  0 0.12500136E+03</rscale>
<asrwt>0</asrwt>
<pdfrwt beam="1">  1        4 0.22946903E-01 0.12500136E+03</pdfrwt>
<pdfrwt beam="2">  1       -4 0.40291986E-02 0.12500136E+03</pdfrwt>
<totfact> 0.94458880E+03</totfact>
</mgrwt>
</event>
<event>
 5    1  0.3300771E-002  0.1249994E+03  0.7818608E-02  0.1235070E+00
         -4   -1    0    0    0  501 -0.00000000000E+00  0.00000000000E+00  0.74816376031E+02  0.74827154312E+02  0.12700000000E+01 0. -1.
          4   -1    0    0  501    0  0.00000000000E+00 -0.00000000000E+00 -0.52188389996E+02  0.52203840379E+02  0.12700000000E+01 0. -1.
         25    2    1    2    0    0  0.00000000000E+00  0.00000000000E+00  0.22627986035E+02  0.12703099469E+03  0.12499939144E+03 0.  0.
    9000005    1    3    3    0    0  0.30423163923E+02 -0.52973915880E+02 -0.20684525675E+01  0.61131687059E+02  0.10000000000E+01 0.  0.
    9000005    1    3    3    0    0 -0.30423163923E+02  0.52973915880E+02  0.24696438603E+02  0.65899307632E+02  0.10000000000E+01 0.  0.
<mgrwt>
<rscale>  0 0.12499939E+03</rscale>
<asrwt>0</asrwt>
<pdfrwt beam="2">  1        4 0.80310007E-02 0.12499939E+03</pdfrwt>
<pdfrwt beam="1">  1       -4 0.11512229E-01 0.12499939E+03</pdfrwt>
<totfact> 0.10408615E+04</totfact>
</mgrwt>
</event>
<event>
 5    1  0.3300771E-002  0.1249996E+03  0.7818608E-02  0.1235070E+00
          4   -1    0    0  501    0  0.00000000000E+00  0.00000000000E+00  0.75092330914E+02  0.75103069592E+02  0.12700000000E+01 0. -1.
         -4   -1    0    0    0  501 -0.00000000000E+00 -0.00000000000E+00 -0.51996751015E+02  0.52012258325E+02  0.12700000000E+01 0. -1.
         25    2    1    2    0    0  0.00000000000E+00  0.00000000000E+00  0.23095579899E+02  0.12711532792E+03  0.12499960312E+03 0.  0.
    9000005    1    3    3    0    0  0.12344616761E+02 -0.45148287939E+02 -0.30559175640E+02  0.55907250715E+02  0.10000000000E+01 0.  0.
    9000005    1    3    3    0    0 -0.12344616761E+02  0.45148287939E+02  0.53654755539E+02  0.71208077201E+02  0.10000000000E+01 0.  0.
<mgrwt>
<rscale>  0 0.12499960E+03</rscale>
<asrwt>0</asrwt>
<pdfrwt beam="1">  1        4 0.11554685E-01 0.12499960E+03</pdfrwt>
<pdfrwt beam="2">  1       -4 0.80015191E-02 0.12499960E+03</pdfrwt>
<totfact> 0.10406734E+04</totfact>
</mgrwt>
</event>
<event>
 5    1  0.3300771E-002  0.1249965E+03  0.7818608E-02  0.1235075E+00
          4   -1    0    0  501    0  0.00000000000E+00  0.00000000000E+00  0.11274032721E+03  0.11274748015E+03  0.12700000000E+01 0. -1.
         -4   -1    0    0    0  501 -0.00000000000E+00 -0.00000000000E+00 -0.34626383159E+02  0.34649665376E+02  0.12700000000E+01 0. -1.
         25    2    1    2    0    0  0.00000000000E+00  0.00000000000E+00  0.78113944054E+02  0.14739714553E+03  0.12499652097E+03 0.  0.
    9000005    1    3    3    0    0 -0.61154948334E+02 -0.12630338165E+02  0.36271585318E+02  0.72222441452E+02  0.10000000000E+01 0.  0.
    9000005    1    3    3    0    0  0.61154948334E+02  0.12630338165E+02  0.41842358737E+02  0.75174704074E+02  0.10000000000E+01 0.  0.
<mgrwt>
<rscale>  0 0.12499652E+03</rscale>
<asrwt>0</asrwt>
<pdfrwt beam="1">  1        4 0.17347006E-01 0.12499652E+03</pdfrwt>
<pdfrwt beam="2">  1       -4 0.53294772E-02 0.12499652E+03</pdfrwt>
<totfact> 0.99832910E+03</totfact>
</mgrwt>
</event>
<event>
 5    1  0.3300771E-002  0.1249992E+03  0.7818608E-02  0.1235071E+00
         -4   -1    0    0    0  501 -0.00000000000E+00  0.00000000000E+00  0.18168234854E+03  0.18168678728E+03  0.12700000000E+01 0.  1.
          4   -1    0    0  501    0  0.00000000000E+00 -0.00000000000E+00 -0.21476689756E+02  0.21514207001E+02  0.12700000000E+01 0.  1.
         25    2    1    2    0    0  0.00000000000E+00  0.00000000000E+00  0.16020565878E+03  0.20320099428E+03  0.12499916387E+03 0.  0.
    9000005    1    3    3    0    0 -0.42421029889E+02  0.10487857781E+02  0.15272376953E+03  0.15885555929E+03  0.10000000000E+01 0.  0.
    9000005    1    3    3    0    0  0.42421029889E+02 -0.10487857781E+02  0.74818892565E+01  0.44345434991E+02  0.10000000000E+01 0.  0.
<mgrwt>
<rscale>  0 0.12499916E+03</rscale>
<asrwt>0</asrwt>
<pdfrwt beam="2">  1        4 0.33073336E-02 0.12499916E+03</pdfrwt>
<pdfrwt beam="1">  1       -4 0.27954357E-01 0.12499916E+03</pdfrwt>
<totfact> 0.89600103E+03</totfact>
</mgrwt>
</event>
<event>
 5    1  0.3300771E-002  0.1249902E+03  0.7818608E-02  0.1235085E+00
          4   -1    0    0  501    0  0.00000000000E+00  0.00000000000E+00  0.36948589417E+03  0.36948807679E+03  0.12700000000E+01 0. -1.
         -4   -1    0    0    0  501 -0.00000000000E+00 -0.00000000000E+00 -0.10530090457E+02  0.10606399249E+02  0.12700000000E+01 0. -1.
         25    2    1    2    0    0  0.00000000000E+00  0.00000000000E+00  0.35895580372E+03  0.38009447604E+03  0.12499016640E+03 0.  0.
    9000005    1    3    3    0    0  0.39051343416E+02  0.42436091247E+02  0.25263934854E+03  0.25913986512E+03  0.10000000000E+01 0.  0.
    9000005    1    3    3    0    0 -0.39051343416E+02 -0.42436091247E+02  0.10631645518E+03  0.12095461092E+03  0.10000000000E+01 0.  0.
<mgrwt>
<rscale>  0 0.12499017E+03</rscale>
<asrwt>0</asrwt>
<pdfrwt beam="1">  1        4 0.56850028E-01 0.12499017E+03</pdfrwt>
<pdfrwt beam="2">  1       -4 0.16260515E-02 0.12499017E+03</pdfrwt>
<totfact> 0.66550378E+03</totfact>
</mgrwt>
</event>
<event>
 5    1  0.3300771E-002  0.1249975E+03  0.7818608E-02  0.1235073E+00
         -4   -1    0    0    0  501 -0.00000000000E+00  0.00000000000E+00  0.67331192834E+02  0.67343169130E+02  0.12700000000E+01 0. -1.
          4   -1    0    0  501    0  0.00000000000E+00 -0.00000000000E+00 -0.57989027669E+02  0.58002932943E+02  0.12700000000E+01 0. -1.
         25    2    1    2    0    0  0.00000000000E+00  0.00000000000E+00  0.93421651647E+01  0.12534610207E+03  0.12499747699E+03 0.  0.
    9000005    1    3    3    0    0 -0.42629308571E+02 -0.29041093433E+02 -0.30704058642E+02  0.60036507845E+02  0.10000000000E+01 0.  0.
    9000005    1    3    3    0    0  0.42629308571E+02  0.29041093433E+02  0.40046223807E+02  0.65309594228E+02  0.10000000000E+01 0.  0.
<mgrwt>
<rscale>  0 0.12499748E+03</rscale>
<asrwt>0</asrwt>
<pdfrwt beam="2">  1        4 0.89233797E-02 0.12499748E+03</pdfrwt>
<pdfrwt beam="1">  1       -4 0.10360636E-01 0.12499748E+03</pdfrwt>
<totfact> 0.10445945E+04</totfact>
</mgrwt>
</event>
<event>
 5    1  0.3300771E-002  0.1250006E+03  0.7818608E-02  0.1235068E+00
          4   -1    0    0  501    0  0.00000000000E+00  0.00000000000E+00  0.55419171502E+03  0.55419317020E+03  0.12700000000E+01 0. -1.
         -4   -1    0    0    0  501 -0.00000000000E+00 -0.00000000000E+00 -0.69899391657E+01  0.71043753801E+01  0.12700000000E+01 0. -1.
         25    2    1    2    0    0  0.00000000000E+00  0.00000000000E+00  0.54720177586E+03  0.56129754558E+03  0.12500060471E+03 0.  0.
    9000005    1    3    3    0    0 -0.61631699285E+02  0.68884653613E+01  0.30820010871E+03  0.31437910923E+03  0.10000000000E+01 0.  0.
    9000005    1    3    3    0    0  0.61631699285E+02 -0.68884653613E+01  0.23900166715E+03  0.24691843635E+03  0.10000000000E+01 0.  0.
<mgrwt>
<rscale>  0 0.12500060E+03</rscale>
<asrwt>0</asrwt>
<pdfrwt beam="1">  1        4 0.85269191E-01 0.12500060E+03</pdfrwt>
<pdfrwt beam="2">  1       -4 0.10842898E-02 0.12500060E+03</pdfrwt>
<totfact> 0.51404762E+03</totfact>
</mgrwt>
</event>
<event>
 5    1  0.3300771E-002  0.1250015E+03  0.7818608E-02  0.1235067E+00
         -4   -1    0    0    0  501 -0.00000000000E+00  0.00000000000E+00  0.40338544033E+02  0.40358531126E+02  0.12700000000E+01 0. -1.
          4   -1    0    0  501    0  0.00000000000E+00 -0.00000000000E+00 -0.96790871500E+02  0.96799203022E+02  0.12700000000E+01 0. -1.
         25    2    1    2    0    0  0.00000000000E+00  0.00000000000E+00 -0.56452327467E+02  0.13715773415E+03  0.12500151503E+03 0.  0.
    9000005    1    3    3    0    0 -0.12103827017E+02  0.13926919363E+02  0.37286862969E+02  0.41614563094E+02  0.10000000000E+01 0.  0.
    9000005    1    3    3    0    0  0.12103827017E+02 -0.13926919363E+02 -0.93739190437E+02  0.95543171054E+02  0.10000000000E+01 0.  0.
<mgrwt>
<rscale>  0 0.12500152E+03</rscale>
<asrwt>0</asrwt>
<pdfrwt beam="2">  1        4 0.14893082E-01 0.12500152E+03</pdfrwt>
<pdfrwt beam="1">  1       -4 0.62081082E-02 0.12500152E+03</pdfrwt>
<totfact> 0.10192441E+04</totfact>
</mgrwt>
</event>
<event>
 5    1  0.3300771E-002  0.1249977E+03  0.7818608E-02  0.1235073E+00
         -4   -1    0    0    0  501 -0.00000000000E+00  0.00000000000E+00  0.68567445713E+02  0.68579206117E+02  0.12700000000E+01 0. -1.
          4   -1    0    0  501    0  0.00000000000E+00 -0.00000000000E+00 -0.56943641654E+02  0.56957802142E+02  0.12700000000E+01 0. -1.
         25    2    1    2    0    0  0.00000000000E+00  0.00000000000E+00  0.11623804059E+02  0.12553700826E+03  0.12499771047E+03 0.  0.
    9000005    1    3    3    0    0 -0.45874593307E+02 -0.16826677344E+02 -0.33311161355E+02  0.59145996080E+02  0.10000000000E+01 0.  0.
    9000005    1    3    3    0    0  0.45874593307E+02  0.16826677344E+02  0.44934965414E+02  0.66391012179E+02  0.10000000000E+01 0.  0.
<mgrwt>
<rscale>  0 0.12499771E+03</rscale>
<asrwt>0</asrwt>
<pdfrwt beam="2">  1        4 0.87625542E-02 0.12499771E+03</pdfrwt>
<pdfrwt beam="1">  1       -4 0.10550832E-01 0.12499771E+03</pdfrwt>
<totfact> 0.10441676E+04</totfact>
</mgrwt>
</event>
<event>
 5    1  0.3300771E-002  0.1250011E+03  0.7818608E-02  0.1235068E+00
         -4   -1    0    0    0  501 -0.00000000000E+00  0.00000000000E+00  0.50747372287E+02  0.50763261262E+02  0.12700000000E+01 0. -1.
          4   -1    0    0  501    0  0.00000000000E+00 -0.00000000000E+00 -0.76942628582E+02  0.76953109054E+02  0.12700000000E+01 0. -1.
         25    2    1    2    0    0  0.00000000000E+00  0.00000000000E+00 -0.26195256295E+02  0.12771637032E+03  0.12500111917E+03 0.  0.
    9000005    1    3    3    0    0  0.27152128017E+02  0.31884749259E+02 -0.60488833591E+02  0.73578354700E+02  0.10000000000E+01 0.  0.
    9000005    1    3    3    0    0 -0.27152128017E+02 -0.31884749259E+02  0.34293577296E+02  0.54138015616E+02  0.10000000000E+01 0.  0.
<mgrwt>
<rscale>  0 0.12500112E+03</rscale>
<asrwt>0</asrwt>
<pdfrwt beam="2">  1        4 0.11839356E-01 0.12500112E+03</pdfrwt>
<pdfrwt beam="1">  1       -4 0.78093165E-02 0.12500112E+03</pdfrwt>
<totfact> 0.10393355E+04</totfact>
</mgrwt>
</event>
<event>
 5    1  0.3300771E-002  0.1249977E+03  0.7818608E-02  0.1235073E+00
          4   -1    0    0  501    0  0.00000000000E+00  0.00000000000E+00  0.23373465434E+02  0.23407942805E+02  0.12700000000E+01 0.  1.
         -4   -1    0    0    0  501 -0.00000000000E+00 -0.00000000000E+00 -0.16695711148E+03  0.16696194170E+03  0.12700000000E+01 0.  1.
         25    2    1    2    0    0  0.00000000000E+00  0.00000000000E+00 -0.14358364605E+03  0.19036988450E+03  0.12499771803E+03 0.  0.
    9000005    1    3    3    0    0 -0.19542790615E+02  0.27818796992E+02 -0.15164778144E+03  0.15541510785E+03  0.10000000000E+01 0.  0.
    9000005    1    3    3    0    0  0.19542790615E+02 -0.27818796992E+02  0.80641353943E+01  0.34954776652E+02  0.10000000000E+01 0.  0.
<mgrwt>
<rscale>  0 0.12499772E+03</rscale>
<asrwt>0</asrwt>
<pdfrwt beam="1">  1        4 0.35989415E-02 0.12499772E+03</pdfrwt>
<pdfrwt beam="2">  1       -4 0.25688732E-01 0.12499772E+03</pdfrwt>
<totfact> 0.91787688E+03</totfact>
</mgrwt>
</event>
<event>
 5    1  0.3300771E-002  0.1250057E+03  0.7818608E-02  0.1235060E+00
         -4   -1    0    0    0  501 -0.00000000000E+00  0.00000000000E+00  0.10385916014E+03  0.10386692470E+03  0.12700000000E+01 0. -1.
          4   -1    0    0  501    0  0.00000000000E+00 -0.00000000000E+00 -0.37594579892E+02  0.37616025006E+02  0.12700000000E+01 0. -1.
         25    2    1    2    0    0  0.00000000000E+00  0.00000000000E+00  0.66264580252E+02  0.14148294970E+03  0.12500572171E+03 0.  0.
    9000005    1    3    3    0    0 -0.51262251663E+02 -0.21627381894E+02  0.91945672030E+00  0.55654357366E+02  0.10000000000E+01 0.  0.
    9000005    1    3    3    0    0  0.51262251663E+02  0.21627381894E+02  0.65345123532E+02  0.85828592337E+02  0.10000000000E+01 0.  0.
<mgrwt>
<rscale>  0 0.12500572E+03</rscale>
<asrwt>0</asrwt>
<pdfrwt beam="2">  1        4 0.57860284E-02 0.12500572E+03</pdfrwt>
<pdfrwt beam="1">  1       -4 0.15980579E-01 0.12500572E+03</pdfrwt>
<totfact> 0.10101641E+04</totfact>
</mgrwt>
</event>
<event>
 5    1  0.3300771E-002  0.1250118E+03  0.7818608E-02  0.1235051E+00
         -4   -1    0    0    0  501 -0.00000000000E+00  0.00000000000E+00  0.48853538142E+03  0.48853703216E+03  0.12700000000E+01 0. -1.
          4   -1    0    0  501    0  0.00000000000E+00 -0.00000000000E+00 -0.79452585966E+01  0.80461191992E+01  0.12700000000E+01 0. -1.
         25    2    1    2    0    0  0.00000000000E+00  0.00000000000E+00  0.48059012282E+03  0.49658315136E+03  0.12501183970E+03 0.  0.
    9000005    1    3    3    0    0  0.56501377064E+02  0.79928641641E+01  0.13904465491E+03  0.15030205437E+03  0.10000000000E+01 0.  0.
    9000005    1    3    3    0    0 -0.56501377064E+02 -0.79928641641E+01  0.34154546791E+03  0.34628109700E+03  0.10000000000E+01 0.  0.
<mgrwt>
<rscale>  0 0.12501184E+03</rscale>
<asrwt>0</asrwt>
<pdfrwt beam="2">  1        4 0.12302326E-02 0.12501184E+03</pdfrwt>
<pdfrwt beam="1">  1       -4 0.75167195E-01 0.12501184E+03</pdfrwt>
<totfact> 0.56115826E+03</totfact>
</mgrwt>
</event>
<event>
 5    1  0.3300771E-002  0.1250019E+03  0.7818608E-02  0.1235066E+00
         -4   -1    0    0    0  501 -0.00000000000E+00  0.00000000000E+00  0.51632470398E+02  0.51648087084E+02  0.12700000000E+01 0.  1.
          4   -1    0    0  501    0  0.00000000000E+00 -0.00000000000E+00 -0.75624853113E+02  0.75635516184E+02  0.12700000000E+01 0.  1.
         25    2    1    2    0    0  0.00000000000E+00  0.00000000000E+00 -0.23992382715E+02  0.12728360327E+03  0.12500192491E+03 0.  0.
    9000005    1    3    3    0    0 -0.39050959281E+02 -0.23786347224E+02 -0.55371893863E+02  0.71817925096E+02  0.10000000000E+01 0.  0.
    9000005    1    3    3    0    0  0.39050959281E+02  0.23786347224E+02  0.31379511148E+02  0.55465678171E+02  0.10000000000E+01 0.  0.
<mgrwt>
<rscale>  0 0.12500192E+03</rscale>
<asrwt>0</asrwt>
<pdfrwt beam="2">  1        4 0.11636614E-01 0.12500192E+03</pdfrwt>
<pdfrwt beam="1">  1       -4 0.79454785E-02 0.12500192E+03</pdfrwt>
<totfact> 0.10402538E+04</totfact>
</mgrwt>
</event>
<event>
 5    1  0.3300771E-002  0.1249874E+03  0.7818608E-02  0.1235089E+00
         -4   -1    0    0    0  501 -0.00000000000E+00  0.00000000000E+00  0.21953488694E+02  0.21990192492E+02  0.12700000000E+01 0.  1.
          4   -1    0    0  501    0  0.00000000000E+00 -0.00000000000E+00 -0.17770947977E+03  0.17771401774E+03  0.12700000000E+01 0.  1.
         25    2    1    2    0    0  0.00000000000E+00  0.00000000000E+00 -0.15575599108E+03  0.19970421023E+03  0.12498737067E+03 0.  0.
    9000005    1    3    3    0    0 -0.46191205868E+02 -0.18163942242E+02 -0.13852909446E+03  0.14715592515E+03  0.10000000000E+01 0.  0.
    9000005    1    3    3    0    0  0.46191205868E+02  0.18163942242E+02 -0.17226896623E+02  0.52548285078E+02  0.10000000000E+01 0.  0.
<mgrwt>
<rscale>  0 0.12498737E+03</rscale>
<asrwt>0</asrwt>
<pdfrwt beam="2">  1        4 0.27343092E-01 0.12498737E+03</pdfrwt>
<pdfrwt beam="1">  1       -4 0.33806324E-02 0.12498737E+03</pdfrwt>
<totfact> 0.90210911E+03</totfact>
</mgrwt>
</event>
<event>
 5    1  0.3300771E-002  0.1250043E+03  0.7818608E-02  0.1235063E+00
         -4   -1    0    0    0  501 -0.00000000000E+00  0.00000000000E+00  0.13791638812E+03  0.13792223538E+03  0.12700000000E+01 0.  1.
          4   -1    0    0  501    0  0.00000000000E+00 -0.00000000000E+00 -0.28304579852E+02  0.28333057382E+02  0.12700000000E+01 0.  1.
         25    2    1    2    0    0  0.00000000000E+00  0.00000000000E+00  0.10961180827E+03  0.16625529277E+03  0.12500429537E+03 0.  0.
    9000005    1    3    3    0    0  0.51993011325E+02 -0.12482720108E+01  0.87202816535E+01  0.52743480372E+02  0.10000000000E+01 0.  0.
    9000005    1    3    3    0    0 -0.51993011325E+02  0.12482720108E+01  0.10089152662E+03  0.11351181239E+03  0.10000000000E+01 0.  0.
<mgrwt>
<rscale>  0 0.12500430E+03</rscale>
<asrwt>0</asrwt>
<pdfrwt beam="2">  1        4 0.43571912E-02 0.12500430E+03</pdfrwt>
<pdfrwt beam="1">  1       -4 0.21220546E-01 0.12500430E+03</pdfrwt>
<totfact> 0.96140911E+03</totfact>
</mgrwt>
</event>
<event>
 5    1  0.3300771E-002  0.1250015E+03  0.7818608E-02  0.1235067E+00
         -4   -1    0    0    0  501 -0.00000000000E+00  0.00000000000E+00  0.29841386730E+02  0.29868399053E+02  0.12700000000E+01 0.  1.
          4   -1    0    0  501    0  0.00000000000E+00 -0.00000000000E+00 -0.13081421766E+03  0.13082038236E+03  0.12700000000E+01 0.  1.
         25    2    1    2    0    0  0.00000000000E+00  0.00000000000E+00 -0.10097283093E+03  0.16068878141E+03  0.12500148754E+03 0.  0.
    9000005    1    3    3    0    0  0.59403855173E+01  0.61507061942E+02 -0.38500519321E+02  0.72812751883E+02  0.10000000000E+01 0.  0.
    9000005    1    3    3    0    0 -0.59403855173E+01 -0.61507061942E+02 -0.62472311606E+02  0.87876029531E+02  0.10000000000E+01 0.  0.
<mgrwt>
<rscale>  0 0.12500149E+03</rscale>
<asrwt>0</asrwt>
<pdfrwt beam="2">  1        4 0.20127816E-01 0.12500149E+03</pdfrwt>
<pdfrwt beam="1">  1       -4 0.45935347E-02 0.12500149E+03</pdfrwt>
<totfact> 0.97206908E+03</totfact>
</mgrwt>
</event>
<event>
 4    1  0.3300771E-002  0.1249009E+03  0.7818608E-02  0.1235224E+00
         -4   -1    0    0    0  501 -0.00000000000E+00  0.00000000000E+00  0.75137805603E+02  0.75148537782E+02  0.12700000000E+01 0.  1.
          4   -1    0    0  501    0  0.00000000000E+00 -0.00000000000E+00 -0.51883180668E+02  0.51898721913E+02  0.12700000000E+01 0.  1.
    9000005    1    1    2    0    0  0.46425780681E+02  0.40510201669E+02  0.13226940895E+01  0.61637481055E+02  0.10000000000E+01 0.  0.
    9000005    1    1    2    0    0 -0.46425780681E+02 -0.40510201669E+02  0.21931930845E+02  0.65409778640E+02  0.10000000000E+01 0.  0.
<mgrwt>
<rscale>  0 0.12490088E+03</rscale>
<asrwt>0</asrwt>
<pdfrwt beam="2">  1        4 0.79840488E-02 0.12490088E+03</pdfrwt>
<pdfrwt beam="1">  1       -4 0.11561683E-01 0.12490088E+03</pdfrwt>
<totfact> 0.10431443E+04</totfact>
</mgrwt>
</event>
<event>
 5    1  0.3300771E-002  0.1250056E+03  0.7818608E-02  0.1235061E+00
          4   -1    0    0  501    0  0.00000000000E+00  0.00000000000E+00  0.40344031712E+02  0.40364016089E+02  0.12700000000E+01 0. -1.
         -4   -1    0    0    0  501 -0.00000000000E+00 -0.00000000000E+00 -0.96783970792E+02  0.96792302908E+02  0.12700000000E+01 0. -1.
         25    2    1    2    0    0  0.00000000000E+00  0.00000000000E+00 -0.56439939079E+02  0.13715631900E+03  0.12500555635E+03 0.  0.
    9000005    1    3    3    0    0 -0.12646455906E+02  0.37997077615E+02 -0.80861494166E+02  0.90240190564E+02  0.10000000000E+01 0.  0.
    9000005    1    3    3    0    0  0.12646455906E+02 -0.37997077615E+02  0.24421555086E+02  0.46916128433E+02  0.10000000000E+01 0.  0.
<mgrwt>
<rscale>  0 0.12500556E+03</rscale>
<asrwt>0</asrwt>
<pdfrwt beam="1">  1        4 0.62089523E-02 0.12500556E+03</pdfrwt>
<pdfrwt beam="2">  1       -4 0.14892020E-01 0.12500556E+03</pdfrwt>
<totfact> 0.10191542E+04</totfact>
</mgrwt>
</event>
<event>
 5    1  0.3300771E-002  0.1249970E+03  0.7818608E-02  0.1235074E+00
         -4   -1    0    0    0  501 -0.00000000000E+00  0.00000000000E+00  0.61175719033E+02  0.61188900130E+02  0.12700000000E+01 0.  1.
          4   -1    0    0  501    0  0.00000000000E+00 -0.00000000000E+00 -0.63823553125E+02  0.63836187492E+02  0.12700000000E+01 0.  1.
         25    2    1    2    0    0  0.00000000000E+00  0.00000000000E+00 -0.26478340925E+01  0.12502508762E+03  0.12499704600E+03 0.  0.
    9000005    1    3    3    0    0 -0.18278418771E+02 -0.27497229353E+02  0.51743307010E+02  0.61388663735E+02  0.10000000000E+01 0.  0.
    9000005    1    3    3    0    0  0.18278418771E+02  0.27497229353E+02 -0.54391141102E+02  0.63636423888E+02  0.10000000000E+01 0.  0.
<mgrwt>
<rscale>  0 0.12499705E+03</rscale>
<asrwt>0</asrwt>
<pdfrwt beam="2">  1        4 0.98209939E-02 0.12499705E+03</pdfrwt>
<pdfrwt beam="1">  1       -4 0.94136349E-02 0.12499705E+03</pdfrwt>
<totfact> 0.10453016E+04</totfact>
</mgrwt>
</event>
<event>
 5    1  0.3300771E-002  0.1250054E+03  0.7818608E-02  0.1235061E+00
         -4   -1    0    0    0  501 -0.00000000000E+00  0.00000000000E+00  0.44241998875E+02  0.44260223276E+02  0.12700000000E+01 0.  1.
          4   -1    0    0  501    0  0.00000000000E+00 -0.00000000000E+00 -0.88259479206E+02  0.88268615995E+02  0.12700000000E+01 0.  1.
         25    2    1    2    0    0  0.00000000000E+00  0.00000000000E+00 -0.44017480331E+02  0.13252883927E+03  0.12500541854E+03 0.  0.
    9000005    1    3    3    0    0 -0.61054402569E+02  0.95640131891E+01 -0.31867788338E+02  0.69538955664E+02  0.10000000000E+01 0.  0.
    9000005    1    3    3    0    0  0.61054402569E+02 -0.95640131891E+01 -0.12149691993E+02  0.62989883607E+02  0.10000000000E+01 0.  0.
<mgrwt>
<rscale>  0 0.12500542E+03</rscale>
<asrwt>0</asrwt>
<pdfrwt beam="2">  1        4 0.13580486E-01 0.12500542E+03</pdfrwt>
<pdfrwt beam="1">  1       -4 0.68085661E-02 0.12500542E+03</pdfrwt>
<totfact> 0.10289166E+04</totfact>
</mgrwt>
</event>
<event>
 5    1  0.3300771E-002  0.1250068E+03  0.7818608E-02  0.1235059E+00
         -4   -1    0    0    0  501 -0.00000000000E+00  0.00000000000E+00  0.71185299640E+01  0.72309313957E+01  0.12700000000E+01 0. -1.
          4   -1    0    0  501    0  0.00000000000E+00 -0.00000000000E+00 -0.54439145605E+03  0.54439293743E+03  0.12700000000E+01 0. -1.
         25    2    1    2    0    0  0.00000000000E+00  0.00000000000E+00 -0.53727292609E+03  0.55162386883E+03  0.12500678202E+03 0.  0.
    9000005    1    3    3    0    0  0.19368673814E+02  0.18396197788E+01 -0.53070873857E+03  0.53106618695E+03  0.10000000000E+01 0.  0.
    9000005    1    3    3    0    0 -0.19368673814E+02 -0.18396197788E+01 -0.65641875150E+01  0.20557681872E+02  0.10000000000E+01 0.  0.
<mgrwt>
<rscale>  0 0.12500678E+03</rscale>
<asrwt>0</asrwt>
<pdfrwt beam="2">  1        4 0.83761259E-01 0.12500678E+03</pdfrwt>
<pdfrwt beam="1">  1       -4 0.11039191E-02 0.12500678E+03</pdfrwt>
<totfact> 0.52063194E+03</totfact>
</mgrwt>
</event>
<event>
 5    1  0.3300771E-002  0.1249826E+03  0.7818608E-02  0.1235096E+00
          4   -1    0    0  501    0  0.00000000000E+00  0.00000000000E+00  0.34197094194E+03  0.34197330017E+03  0.12700000000E+01 0.  1.
         -4   -1    0    0    0  501 -0.00000000000E+00 -0.00000000000E+00 -0.11381862198E+02  0.11452496981E+02  0.12700000000E+01 0.  1.
         25    2    1    2    0    0  0.00000000000E+00  0.00000000000E+00  0.33058907974E+03  0.35342579716E+03  0.12498261659E+03 0.  0.
    9000005    1    3    3    0    0  0.33522733374E+02 -0.51691794075E+02  0.13585982356E+03  0.14918011558E+03  0.10000000000E+01 0.  0.
    9000005    1    3    3    0    0 -0.33522733374E+02  0.51691794075E+02  0.19472925618E+03  0.20424568157E+03  0.10000000000E+01 0.  0.
<mgrwt>
<rscale>  0 0.12498262E+03</rscale>
<asrwt>0</asrwt>
<pdfrwt beam="1">  1        4 0.52616515E-01 0.12498262E+03</pdfrwt>
<pdfrwt beam="2">  1       -4 0.17566710E-02 0.12498262E+03</pdfrwt>
<totfact> 0.69376002E+03</totfact>
</mgrwt>
</event>
<event>
 4    1  0.3300771E-002  0.1251963E+03  0.7818608E-02  0.1234763E+00
         -4   -1    0    0    0  501 -0.00000000000E+00  0.00000000000E+00  0.38707843504E+02  0.38728672179E+02  0.12700000000E+01 0. -1.
          4   -1    0    0  501    0  0.00000000000E+00 -0.00000000000E+00 -0.10118145307E+03  0.10118942309E+03  0.12700000000E+01 0. -1.
    9000005    1    1    2    0    0  0.79726127240E+01 -0.39781525497E+02 -0.84500207064E+02  0.93741225287E+02  0.10000000000E+01 0.  0.
    9000005    1    1    2    0    0 -0.79726127240E+01  0.39781525497E+02  0.22026597494E+02  0.46176869986E+02  0.10000000000E+01 0.  0.
<mgrwt>
<rscale>  0 0.12519633E+03</rscale>
<asrwt>0</asrwt>
<pdfrwt beam="2">  1        4 0.15568593E-01 0.12519633E+03</pdfrwt>
<pdfrwt beam="1">  1       -4 0.59572682E-02 0.12519633E+03</pdfrwt>
<totfact> 0.10090582E+04</totfact>
</mgrwt>
</event>
<event>
 5    1  0.3300771E-002  0.1250025E+03  0.7818608E-02  0.1235065E+00
          4   -1    0    0  501    0  0.00000000000E+00  0.00000000000E+00  0.20253872534E+03  0.20254270701E+03  0.12700000000E+01 0. -1.
         -4   -1    0    0    0  501 -0.00000000000E+00 -0.00000000000E+00 -0.19262116313E+02  0.19303938066E+02  0.12700000000E+01 0. -1.
         25    2    1    2    0    0  0.00000000000E+00  0.00000000000E+00  0.18327660903E+03  0.22184664507E+03  0.12500247403E+03 0.  0.
    9000005    1    3    3    0    0  0.42445718120E+01  0.47395601841E+02  0.16353261514E+03  0.17031816015E+03  0.10000000000E+01 0.  0.
    9000005    1    3    3    0    0 -0.42445718120E+01 -0.47395601841E+02  0.19743993892E+02  0.51528484924E+02  0.10000000000E+01 0.  0.
<mgrwt>
<rscale>  0 0.12500247E+03</rscale>
<asrwt>0</asrwt>
<pdfrwt beam="1">  1        4 0.31163327E-01 0.12500247E+03</pdfrwt>
<pdfrwt beam="2">  1       -4 0.29669259E-02 0.12500247E+03</pdfrwt>
<totfact> 0.86572199E+03</totfact>
</mgrwt>
</event>
<event>
 5    1  0.3300771E-002  0.1250156E+03  0.7818608E-02  0.1235045E+00
         -4   -1    0    0    0  501 -0.00000000000E+00  0.00000000000E+00  0.46776935036E+02  0.46794172194E+02  0.12700000000E+01 0.  1.
          4   -1    0    0  501    0  0.00000000000E+00 -0.00000000000E+00 -0.83491423249E+02  0.83501081766E+02  0.12700000000E+01 0.  1.
         25    2    1    2    0    0  0.00000000000E+00  0.00000000000E+00 -0.36714488213E+02  0.13029525396E+03  0.12501559727E+03 0.  0.
    9000005    1    3    3    0    0  0.36662572744E+01 -0.68410279769E+01  0.46277810640E+02  0.46934815051E+02  0.10000000000E+01 0.  0.
    9000005    1    3    3    0    0 -0.36662572744E+01  0.68410279769E+01 -0.82992298854E+02  0.83360438910E+02  0.10000000000E+01 0.  0.
<mgrwt>
<rscale>  0 0.12501560E+03</rscale>
<asrwt>0</asrwt>
<pdfrwt beam="2">  1        4 0.12846903E-01 0.12501560E+03</pdfrwt>
<pdfrwt beam="1">  1       -4 0.71985205E-02 0.12501560E+03</pdfrwt>
<totfact> 0.10334557E+04</totfact>
</mgrwt>
</event>
<event>
 5    1  0.3300771E-002  0.1250013E+03  0.7818608E-02  0.1235067E+00
          4   -1    0    0  501    0  0.00000000000E+00  0.00000000000E+00  0.41439461423E+03  0.41439656032E+03  0.12700000000E+01 0.  1.
         -4   -1    0    0    0  501 -0.00000000000E+00 -0.00000000000E+00 -0.93818525096E+01  0.94674207952E+01  0.12700000000E+01 0.  1.
         25    2    1    2    0    0  0.00000000000E+00  0.00000000000E+00  0.40501276172E+03  0.42386398111E+03  0.12500134931E+03 0.  0.
    9000005    1    3    3    0    0  0.65307275279E+01 -0.61343975173E+02  0.16866540514E+03  0.17959608176E+03  0.10000000000E+01 0.  0.
    9000005    1    3    3    0    0 -0.65307275279E+01  0.61343975173E+02  0.23634735658E+03  0.24426789935E+03  0.10000000000E+01 0.  0.
<mgrwt>
<rscale>  0 0.12500135E+03</rscale>
<asrwt>0</asrwt>
<pdfrwt beam="1">  1        4 0.63759750E-01 0.12500135E+03</pdfrwt>
<pdfrwt beam="2">  1       -4 0.14500938E-02 0.12500135E+03</pdfrwt>
<totfact> 0.62294293E+03</totfact>
</mgrwt>
</event>
<event>
 5    1  0.3300771E-002  0.1250019E+03  0.7818608E-02  0.1235066E+00
          4   -1    0    0  501    0  0.00000000000E+00  0.00000000000E+00  0.26614424706E+02  0.26644708713E+02  0.12700000000E+01 0. -1.
         -4   -1    0    0    0  501 -0.00000000000E+00 -0.00000000000E+00 -0.14665991263E+03  0.14666541130E+03  0.12700000000E+01 0. -1.
         25    2    1    2    0    0  0.00000000000E+00  0.00000000000E+00 -0.12004548792E+03  0.17331012002E+03  0.12500191410E+03 0.  0.
    9000005    1    3    3    0    0  0.48642364061E+02  0.29850093860E+02 -0.95323379517E+02  0.11110650011E+03  0.10000000000E+01 0.  0.
    9000005    1    3    3    0    0 -0.48642364061E+02 -0.29850093860E+02 -0.24722108407E+02  0.62203619902E+02  0.10000000000E+01 0.  0.
<mgrwt>
<rscale>  0 0.12500191E+03</rscale>
<asrwt>0</asrwt>
<pdfrwt beam="1">  1        4 0.40972795E-02 0.12500191E+03</pdfrwt>
<pdfrwt beam="2">  1       -4 0.22565815E-01 0.12500191E+03</pdfrwt>
<totfact> 0.94831180E+03</totfact>
</mgrwt>
</event>
<event>
 5    1  0.3300771E-002  0.1249987E+03  0.7818608E-02  0.1235071E+00
         -4   -1    0    0    0  501 -0.00000000000E+00  0.00000000000E+00  0.14140177451E+03  0.14140747764E+03  0.12700000000E+01 0. -1.
          4   -1    0    0  501    0  0.00000000000E+00 -0.00000000000E+00 -0.27603747082E+02  0.27632946875E+02  0.12700000000E+01 0. -1.
         25    2    1    2    0    0  0.00000000000E+00  0.00000000000E+00  0.11379802742E+03  0.16904042452E+03  0.12499869630E+03 0.  0.
    9000005    1    3    3    0    0 -0.21360337883E+02  0.41802938188E+02  0.11268058074E+03  0.12207236769E+03  0.10000000000E+01 0.  0.
    9000005    1    3    3    0    0  0.21360337883E+02 -0.41802938188E+02  0.11174466813E+01  0.46968056834E+02  0.10000000000E+01 0.  0.
<mgrwt>
<rscale>  0 0.12499870E+03</rscale>
<asrwt>0</asrwt>
<pdfrwt beam="2">  1        4 0.42494151E-02 0.12499870E+03</pdfrwt>
<pdfrwt beam="1">  1       -4 0.21756804E-01 0.12499870E+03</pdfrwt>
<totfact> 0.95630423E+03</totfact>
</mgrwt>
</event>
<event>
 5    1  0.3300771E-002  0.1250017E+03  0.7818608E-02  0.1235067E+00
         -4   -1    0    0    0  501 -0.00000000000E+00  0.00000000000E+00  0.26936566865E+04  0.26936569859E+04  0.12700000000E+01 0. -1.
          4   -1    0    0  501    0  0.00000000000E+00 -0.00000000000E+00 -0.11718010404E+01  0.17280097448E+01  0.12700000000E+01 0. -1.
         25    2    1    2    0    0  0.00000000000E+00  0.00000000000E+00  0.26924848854E+04  0.26953849956E+04  0.12500166502E+03 0.  0.
    9000005    1    3    3    0    0  0.24317667299E+02  0.57567273817E+02  0.13436813944E+04  0.13451342050E+04  0.10000000000E+01 0.  0.
    9000005    1    3    3    0    0 -0.24317667299E+02 -0.57567273817E+02  0.13488034911E+04  0.13502507906E+04  0.10000000000E+01 0.  0.
<mgrwt>
<rscale>  0 0.12500167E+03</rscale>
<asrwt>0</asrwt>
<pdfrwt beam="2">  1        4 0.22308760E-03 0.12500167E+03</pdfrwt>
<pdfrwt beam="1">  1       -4 0.41444745E+00 0.12500167E+03</pdfrwt>
<totfact> 0.33098964E+02</totfact>
</mgrwt>
</event>
<event>
 5    1  0.3300771E-002  0.1249896E+03  0.7818608E-02  0.1235085E+00
          4   -1    0    0  501    0  0.00000000000E+00  0.00000000000E+00  0.42334853953E+01  0.44198754046E+01  0.12700000000E+01 0.  1.
         -4   -1    0    0    0  501 -0.00000000000E+00 -0.00000000000E+00 -0.90249177568E+03  0.90249266926E+03  0.12700000000E+01 0.  1.
         25    2    1    2    0    0  0.00000000000E+00  0.00000000000E+00 -0.89825829028E+03  0.90691254466E+03  0.12498963000E+03 0.  0.
    9000005    1    3    3    0    0  0.13287085231E+01 -0.62460995075E+02 -0.44036021496E+03  0.44477102007E+03  0.10000000000E+01 0.  0.
    9000005    1    3    3    0    0 -0.13287085231E+01  0.62460995075E+02 -0.45789807532E+03  0.46214152460E+03  0.10000000000E+01 0.  0.
<mgrwt>
<rscale>  0 0.12498963E+03</rscale>
<asrwt>0</asrwt>
<pdfrwt beam="1">  1        4 0.66571259E-03 0.12498963E+03</pdfrwt>
<pdfrwt beam="2">  1       -4 0.13885915E+00 0.12498963E+03</pdfrwt>
<totfact> 0.33904317E+03</totfact>
</mgrwt>
</event>
<event>
 5    1  0.3300771E-002  0.1249980E+03  0.7818608E-02  0.1235072E+00
         -4   -1    0    0    0  501 -0.00000000000E+00  0.00000000000E+00  0.32592215228E+02  0.32616949482E+02  0.12700000000E+01 0. -1.
          4   -1    0    0  501    0  0.00000000000E+00 -0.00000000000E+00 -0.11977492289E+03  0.11978165574E+03  0.12700000000E+01 0. -1.
         25    2    1    2    0    0  0.00000000000E+00  0.00000000000E+00 -0.87182707657E+02  0.15239860522E+03  0.12499804142E+03 0.  0.
    9000005    1    3    3    0    0 -0.15369062362E+02  0.58728579895E+02 -0.25512780899E+02  0.65857088940E+02  0.10000000000E+01 0.  0.
    9000005    1    3    3    0    0  0.15369062362E+02 -0.58728579895E+02 -0.61669926758E+02  0.86541516284E+02  0.10000000000E+01 0.  0.
<mgrwt>
<rscale>  0 0.12499804E+03</rscale>
<asrwt>0</asrwt>
<pdfrwt beam="2">  1        4 0.18429332E-01 0.12499804E+03</pdfrwt>
<pdfrwt beam="1">  1       -4 0.50166076E-02 0.12499804E+03</pdfrwt>
<totfact> 0.98832059E+03</totfact>
</mgrwt>
</event>
<event>
 5    1  0.3300771E-002  0.1250029E+03  0.7818608E-02  0.1235065E+00
         -4   -1    0    0    0  501 -0.00000000000E+00  0.00000000000E+00  0.16331194693E+03  0.16331688495E+03  0.12700000000E+01 0.  1.
          4   -1    0    0  501    0  0.00000000000E+00 -0.00000000000E+00 -0.23897902417E+02  0.23931624264E+02  0.12700000000E+01 0.  1.
         25    2    1    2    0    0  0.00000000000E+00  0.00000000000E+00  0.13941404451E+03  0.18724850921E+03  0.12500291355E+03 0.  0.
    9000005    1    3    3    0    0 -0.39793847593E+02 -0.47377465115E+02  0.56540568543E+02  0.83821300385E+02  0.10000000000E+01 0.  0.
    9000005    1    3    3    0    0  0.39793847593E+02  0.47377465115E+02  0.82873475970E+02  0.10342720883E+03  0.10000000000E+01 0.  0.
<mgrwt>
<rscale>  0 0.12500291E+03</rscale>
<asrwt>0</asrwt>
<pdfrwt beam="2">  1        4 0.36795742E-02 0.12500291E+03</pdfrwt>
<pdfrwt beam="1">  1       -4 0.25127889E-01 0.12500291E+03</pdfrwt>
<totfact> 0.92322254E+03</totfact>
</mgrwt>
</event>
<event>
 5    1  0.3300771E-002  0.1250007E+03  0.7818608E-02  0.1235068E+00
         -4   -1    0    0    0  501 -0.00000000000E+00  0.00000000000E+00  0.20384580669E+02  0.20424104119E+02  0.12700000000E+01 0.  1.
          4   -1    0    0  501    0  0.00000000000E+00 -0.00000000000E+00 -0.19140259813E+03  0.19140681145E+03  0.12700000000E+01 0.  1.
         25    2    1    2    0    0  0.00000000000E+00  0.00000000000E+00 -0.17101801746E+03  0.21183091557E+03  0.12500069798E+03 0.  0.
    9000005    1    3    3    0    0  0.36777256031E+02  0.17134924405E+02 -0.49625051893E+01  0.40887634479E+02  0.10000000000E+01 0.  0.
    9000005    1    3    3    0    0 -0.36777256031E+02 -0.17134924405E+02 -0.16605551227E+03  0.17094328109E+03  0.10000000000E+01 0.  0.
<mgrwt>
<rscale>  0 0.12500070E+03</rscale>
<asrwt>0</asrwt>
<pdfrwt beam="2">  1        4 0.29449917E-01 0.12500070E+03</pdfrwt>
<pdfrwt beam="1">  1       -4 0.31394538E-02 0.12500070E+03</pdfrwt>
<totfact> 0.88176364E+03</totfact>
</mgrwt>
</event>
<event>
 5    1  0.3300771E-002  0.1250016E+03  0.7818608E-02  0.1235067E+00
         -4   -1    0    0    0  501 -0.00000000000E+00  0.00000000000E+00  0.23745322501E+02  0.23779260726E+02  0.12700000000E+01 0. -1.
          4   -1    0    0  501    0  0.00000000000E+00 -0.00000000000E+00 -0.16435639481E+03  0.16436130145E+03  0.12700000000E+01 0. -1.
         25    2    1    2    0    0  0.00000000000E+00  0.00000000000E+00 -0.14061107231E+03  0.18814056218E+03  0.12500158991E+03 0.  0.
    9000005    1    3    3    0    0  0.19795987091E+01 -0.50867735007E+02 -0.15748755698E+02  0.53296046587E+02  0.10000000000E+01 0.  0.
    9000005    1    3    3    0    0 -0.19795987091E+01  0.50867735007E+02 -0.12486231661E+03  0.13484451559E+03  0.10000000000E+01 0.  0.
<mgrwt>
<rscale>  0 0.12500159E+03</rscale>
<asrwt>0</asrwt>
<pdfrwt beam="2">  1        4 0.25288587E-01 0.12500159E+03</pdfrwt>
<pdfrwt beam="1">  1       -4 0.36561147E-02 0.12500159E+03</pdfrwt>
<totfact> 0.92168578E+03</totfact>
</mgrwt>
</event>
<event>
 5    1  0.3300771E-002  0.1250089E+03  0.7818608E-02  0.1235055E+00
          4   -1    0    0  501    0  0.00000000000E+00  0.00000000000E+00  0.54128216227E+03  0.54128365215E+03  0.12700000000E+01 0.  1.
         -4   -1    0    0    0  501 -0.00000000000E+00 -0.00000000000E+00 -0.71603099041E+01  0.72720655884E+01  0.12700000000E+01 0.  1.
         25    2    1    2    0    0  0.00000000000E+00  0.00000000000E+00  0.53412185236E+03  0.54855571774E+03  0.12500888887E+03 0.  0.
    9000005    1    3    3    0    0 -0.58119502273E+02 -0.21313679711E+02  0.22940059182E+03  0.23760846158E+03  0.10000000000E+01 0.  0.
    9000005    1    3    3    0    0  0.58119502273E+02  0.21313679711E+02  0.30472126054E+03  0.31094725616E+03  0.10000000000E+01 0.  0.
<mgrwt>
<rscale>  0 0.12500889E+03</rscale>
<asrwt>0</asrwt>
<pdfrwt beam="1">  1        4 0.83282912E-01 0.12500889E+03</pdfrwt>
<pdfrwt beam="2">  1       -4 0.11102970E-02 0.12500889E+03</pdfrwt>
<totfact> 0.52274531E+03</totfact>
</mgrwt>
</event>
<event>
 5    1  0.3300771E-002  0.1250021E+03  0.7818608E-02  0.1235066E+00
         -4   -1    0    0    0  501 -0.00000000000E+00  0.00000000000E+00  0.18258190746E+03  0.18258632433E+03  0.12700000000E+01 0.  1.
          4   -1    0    0  501    0  0.00000000000E+00 -0.00000000000E+00 -0.21371687643E+02  0.21409388891E+02  0.12700000000E+01 0.  1.
         25    2    1    2    0    0  0.00000000000E+00  0.00000000000E+00  0.16121021981E+03  0.20399571322E+03  0.12500206414E+03 0.  0.
    9000005    1    3    3    0    0  0.11209336165E+02  0.49099677053E+02  0.20224445352E+02  0.54281264666E+02  0.10000000000E+01 0.  0.
    9000005    1    3    3    0    0 -0.11209336165E+02 -0.49099677053E+02  0.14098577446E+03  0.14971444855E+03  0.10000000000E+01 0.  0.
<mgrwt>
<rscale>  0 0.12500206E+03</rscale>
<asrwt>0</asrwt>
<pdfrwt beam="2">  1        4 0.32911919E-02 0.12500206E+03</pdfrwt>
<pdfrwt beam="1">  1       -4 0.28092763E-01 0.12500206E+03</pdfrwt>
<totfact> 0.89461814E+03</totfact>
</mgrwt>
</event>
<event>
 5    1  0.3300771E-002  0.1250052E+03  0.7818608E-02  0.1235061E+00
         -4   -1    0    0    0  501 -0.00000000000E+00  0.00000000000E+00  0.24569190131E+03  0.24569518365E+03  0.12700000000E+01 0.  1.
          4   -1    0    0  501    0  0.00000000000E+00 -0.00000000000E+00 -0.15871538280E+02  0.15922268286E+02  0.12700000000E+01 0.  1.
         25    2    1    2    0    0  0.00000000000E+00  0.00000000000E+00  0.22982036303E+03  0.26161745193E+03  0.12500516747E+03 0.  0.
    9000005    1    3    3    0    0 -0.32795360704E+02 -0.39101752966E+02  0.39419655960E+02  0.64493348841E+02  0.10000000000E+01 0.  0.
    9000005    1    3    3    0    0  0.32795360704E+02  0.39101752966E+02  0.19040070707E+03  0.19712410309E+03  0.10000000000E+01 0.  0.
<mgrwt>
<rscale>  0 0.12500517E+03</rscale>
<asrwt>0</asrwt>
<pdfrwt beam="2">  1        4 0.24459300E-02 0.12500517E+03</pdfrwt>
<pdfrwt beam="1">  1       -4 0.37802908E-01 0.12500517E+03</pdfrwt>
<totfact> 0.80670330E+03</totfact>
</mgrwt>
</event>
<event>
 5    1  0.3300771E-002  0.1249999E+03  0.7818608E-02  0.1235069E+00
          4   -1    0    0  501    0  0.00000000000E+00  0.00000000000E+00  0.27114006769E+03  0.27114304197E+03  0.12700000000E+01 0. -1.
         -4   -1    0    0    0  501 -0.00000000000E+00 -0.00000000000E+00 -0.14375695108E+02  0.14431684234E+02  0.12700000000E+01 0. -1.
         25    2    1    2    0    0  0.00000000000E+00  0.00000000000E+00  0.25676437258E+03  0.28557472620E+03  0.12499992487E+03 0.  0.
    9000005    1    3    3    0    0  0.59259963805E+02 -0.14956191121E+02  0.98610927399E+02  0.11601959302E+03  0.10000000000E+01 0.  0.
    9000005    1    3    3    0    0 -0.59259963805E+02  0.14956191121E+02  0.15815344519E+03  0.16955513318E+03  0.10000000000E+01 0.  0.
<mgrwt>
<rscale>  0 0.12499992E+03</rscale>
<asrwt>0</asrwt>
<pdfrwt beam="1">  1        4 0.41718388E-01 0.12499992E+03</pdfrwt>
<pdfrwt beam="2">  1       -4 0.22161813E-02 0.12499992E+03</pdfrwt>
<totfact> 0.77444828E+03</totfact>
</mgrwt>
</event>
<event>
 5    1  0.3300771E-002  0.1250001E+03  0.7818608E-02  0.1235069E+00
         -4   -1    0    0    0  501 -0.00000000000E+00  0.00000000000E+00  0.63670540786E+01  0.64924785437E+01  0.12700000000E+01 0. -1.
          4   -1    0    0  501    0  0.00000000000E+00 -0.00000000000E+00 -0.60740088405E+03  0.60740221175E+03  0.12700000000E+01 0. -1.
         25    2    1    2    0    0  0.00000000000E+00  0.00000000000E+00 -0.60103382997E+03  0.61389469030E+03  0.12500010403E+03 0.  0.
    9000005    1    3    3    0    0 -0.19645621937E+02 -0.38598170901E+02 -0.79270284327E+02  0.90335747274E+02  0.10000000000E+01 0.  0.
    9000005    1    3    3    0    0  0.19645621937E+02  0.38598170901E+02 -0.52176354564E+03  0.52355894302E+03  0.10000000000E+01 0.  0.
<mgrwt>
<rscale>  0 0.12500010E+03</rscale>
<asrwt>0</asrwt>
<pdfrwt beam="2">  1        4 0.93455994E-01 0.12500010E+03</pdfrwt>
<pdfrwt beam="1">  1       -4 0.98929743E-03 0.12500010E+03</pdfrwt>
<totfact> 0.48002029E+03</totfact>
</mgrwt>
</event>
<event>
 5    1  0.3300771E-002  0.1250020E+03  0.7818608E-02  0.1235066E+00
          4   -1    0    0  501    0  0.00000000000E+00  0.00000000000E+00  0.11602463173E+03  0.11603158220E+03  0.12700000000E+01 0. -1.
         -4   -1    0    0    0  501 -0.00000000000E+00 -0.00000000000E+00 -0.33648537391E+02  0.33672495728E+02  0.12700000000E+01 0. -1.
         25    2    1    2    0    0  0.00000000000E+00  0.00000000000E+00  0.82376094342E+02  0.14970407793E+03  0.12500196011E+03 0.  0.
    9000005    1    3    3    0    0 -0.50242597516E+02  0.11415866948E+02  0.83542484659E+02  0.98157971487E+02  0.10000000000E+01 0.  0.
    9000005    1    3    3    0    0  0.50242597516E+02 -0.11415866948E+02 -0.11663903166E+01  0.51546106446E+02  0.10000000000E+01 0.  0.
<mgrwt>
<rscale>  0 0.12500196E+03</rscale>
<asrwt>0</asrwt>
<pdfrwt beam="1">  1        4 0.17852321E-01 0.12500196E+03</pdfrwt>
<pdfrwt beam="2">  1       -4 0.51790757E-02 0.12500196E+03</pdfrwt>
<totfact> 0.99358335E+03</totfact>
</mgrwt>
</event>
<event>
 5    1  0.3300771E-002  0.1249640E+03  0.7818608E-02  0.1235126E+00
          4   -1    0    0  501    0  0.00000000000E+00  0.00000000000E+00  0.13739905145E+02  0.13798474314E+02  0.12700000000E+01 0.  1.
         -4   -1    0    0    0  501 -0.00000000000E+00 -0.00000000000E+00 -0.28347153515E+03  0.28347438004E+03  0.12700000000E+01 0.  1.
         25    2    1    2    0    0  0.00000000000E+00  0.00000000000E+00 -0.26973163001E+03  0.29727285436E+03  0.12496398566E+03 0.  0.
    9000005    1    3    3    0    0 -0.15157256676E+02  0.24911998699E+02 -0.34314767039E+01  0.29378991499E+02  0.10000000000E+01 0.  0.
    9000005    1    3    3    0    0  0.15157256676E+02 -0.24911998699E+02 -0.26630015330E+03  0.26789386286E+03  0.10000000000E+01 0.  0.
<mgrwt>
<rscale>  0 0.12496399E+03</rscale>
<asrwt>0</asrwt>
<pdfrwt beam="1">  1        4 0.21185559E-02 0.12496399E+03</pdfrwt>
<pdfrwt beam="2">  1       -4 0.43615725E-01 0.12496399E+03</pdfrwt>
<totfact> 0.76002964E+03</totfact>
</mgrwt>
</event>
<event>
 5    1  0.3300771E-002  0.1249995E+03  0.7818608E-02  0.1235070E+00
          4   -1    0    0  501    0  0.00000000000E+00  0.00000000000E+00  0.35396389585E+02  0.35419165654E+02  0.12700000000E+01 0.  1.
         -4   -1    0    0    0  501 -0.00000000000E+00 -0.00000000000E+00 -0.11029443042E+03  0.11030174197E+03  0.12700000000E+01 0.  1.
         25    2    1    2    0    0  0.00000000000E+00  0.00000000000E+00 -0.74898040831E+02  0.14572090762E+03  0.12499946559E+03 0.  0.
    9000005    1    3    3    0    0 -0.35400925789E+02 -0.50955756438E+02 -0.28764061124E+02  0.68396534073E+02  0.10000000000E+01 0.  0.
    9000005    1    3    3    0    0  0.35400925789E+02  0.50955756438E+02 -0.46133979707E+02  0.77324373547E+02  0.10000000000E+01 0.  0.
<mgrwt>
<rscale>  0 0.12499947E+03</rscale>
<asrwt>0</asrwt>
<pdfrwt beam="1">  1        4 0.54479129E-02 0.12499947E+03</pdfrwt>
<pdfrwt beam="2">  1       -4 0.16970688E-01 0.12499947E+03</pdfrwt>
<totfact> 0.10016482E+04</totfact>
</mgrwt>
</event>
<event>
 5    1  0.3300771E-002  0.1250009E+03  0.7818608E-02  0.1235068E+00
         -4   -1    0    0    0  501 -0.00000000000E+00  0.00000000000E+00  0.33298624785E+02  0.33322834702E+02  0.12700000000E+01 0. -1.
          4   -1    0    0  501    0  0.00000000000E+00 -0.00000000000E+00 -0.11724108920E+03  0.11724796756E+03  0.12700000000E+01 0. -1.
         25    2    1    2    0    0  0.00000000000E+00  0.00000000000E+00 -0.83942464413E+02  0.15057080226E+03  0.12500091664E+03 0.  0.
    9000005    1    3    3    0    0 -0.16764473752E+01  0.59543253936E+02 -0.64733792465E+02  0.87975413906E+02  0.10000000000E+01 0.  0.
    9000005    1    3    3    0    0  0.16764473752E+01 -0.59543253936E+02 -0.19208671948E+02  0.62595388353E+02  0.10000000000E+01 0.  0.
<mgrwt>
<rscale>  0 0.12500092E+03</rscale>
<asrwt>0</asrwt>
<pdfrwt beam="2">  1        4 0.18039482E-01 0.12500092E+03</pdfrwt>
<pdfrwt beam="1">  1       -4 0.51252568E-02 0.12500092E+03</pdfrwt>
<totfact> 0.99187993E+03</totfact>
</mgrwt>
</event>
<event>
 5    1  0.3300771E-002  0.1250002E+03  0.7818608E-02  0.1235069E+00
         -4   -1    0    0    0  501 -0.00000000000E+00  0.00000000000E+00  0.62864718805E+02  0.62877545837E+02  0.12700000000E+01 0.  1.
          4   -1    0    0  501    0  0.00000000000E+00 -0.00000000000E+00 -0.62111974760E+02  0.62124957212E+02  0.12700000000E+01 0.  1.
         25    2    1    2    0    0  0.00000000000E+00  0.00000000000E+00  0.75274404532E+00  0.12500250305E+03  0.12500023658E+03 0.  0.
    9000005    1    3    3    0    0 -0.43460676978E+01  0.62318171212E+02  0.20562889672E+01  0.62511367702E+02  0.10000000000E+01 0.  0.
    9000005    1    3    3    0    0  0.43460676978E+01 -0.62318171212E+02 -0.13035449219E+01  0.62491135347E+02  0.10000000000E+01 0.  0.
<mgrwt>
<rscale>  0 0.12500024E+03</rscale>
<asrwt>0</asrwt>
<pdfrwt beam="2">  1        4 0.95576738E-02 0.12500024E+03</pdfrwt>
<pdfrwt beam="1">  1       -4 0.96734805E-02 0.12500024E+03</pdfrwt>
<totfact> 0.10452752E+04</totfact>
</mgrwt>
</event>
<event>
 5    1  0.3300771E-002  0.1250048E+03  0.7818608E-02  0.1235062E+00
         -4   -1    0    0    0  501 -0.00000000000E+00  0.00000000000E+00  0.10871962690E+03  0.10872704435E+03  0.12700000000E+01 0. -1.
          4   -1    0    0  501    0  0.00000000000E+00 -0.00000000000E+00 -0.35912452085E+02  0.35934901068E+02  0.12700000000E+01 0. -1.
         25    2    1    2    0    0  0.00000000000E+00  0.00000000000E+00  0.72807174812E+02  0.14466194542E+03  0.12500477490E+03 0.  0.
    9000005    1    3    3    0    0 -0.59742733069E+02 -0.10362808871E+01  0.57593627794E+02  0.82995746850E+02  0.10000000000E+01 0.  0.
    9000005    1    3    3    0    0  0.59742733069E+02  0.10362808871E+01  0.15213547018E+02  0.61666198566E+02  0.10000000000E+01 0.  0.
<mgrwt>
<rscale>  0 0.12500477E+03</rscale>
<asrwt>0</asrwt>
<pdfrwt beam="2">  1        4 0.55272900E-02 0.12500477E+03</pdfrwt>
<pdfrwt beam="1">  1       -4 0.16728394E-01 0.12500477E+03</pdfrwt>
<totfact> 0.10036782E+04</totfact>
</mgrwt>
</event>
<event>
 5    1  0.3300771E-002  0.1250014E+03  0.7818608E-02  0.1235067E+00
          4   -1    0    0  501    0  0.00000000000E+00  0.00000000000E+00  0.15513545908E+03  0.15514065735E+03  0.12700000000E+01 0.  1.
         -4   -1    0    0    0  501 -0.00000000000E+00 -0.00000000000E+00 -0.25158543902E+02  0.25190578224E+02  0.12700000000E+01 0.  1.
         25    2    1    2    0    0  0.00000000000E+00  0.00000000000E+00  0.12997691518E+03  0.18033123558E+03  0.12500142418E+03 0.  0.
    9000005    1    3    3    0    0  0.43642236877E+02 -0.36264115153E+02  0.27214370713E+02  0.62939279157E+02  0.10000000000E+01 0.  0.
    9000005    1    3    3    0    0 -0.43642236877E+02  0.36264115153E+02  0.10276254447E+03  0.11739195642E+03  0.10000000000E+01 0.  0.
<mgrwt>
<rscale>  0 0.12500142E+03</rscale>
<asrwt>0</asrwt>
<pdfrwt beam="1">  1        4 0.23869857E-01 0.12500142E+03</pdfrwt>
<pdfrwt beam="2">  1       -4 0.38734094E-02 0.12500142E+03</pdfrwt>
<totfact> 0.93554427E+03</totfact>
</mgrwt>
</event>
<event>
 5    1  0.3300771E-002  0.1249986E+03  0.7818608E-02  0.1235072E+00
          4   -1    0    0  501    0  0.00000000000E+00  0.00000000000E+00  0.41028376376E+02  0.41048027578E+02  0.12700000000E+01 0. -1.
         -4   -1    0    0    0  501 -0.00000000000E+00 -0.00000000000E+00 -0.95159625003E+02  0.95168099333E+02  0.12700000000E+01 0. -1.
         25    2    1    2    0    0  0.00000000000E+00  0.00000000000E+00 -0.54131248627E+02  0.13621612691E+03  0.12499856460E+03 0.  0.
    9000005    1    3    3    0    0  0.24318848924E+02  0.44720241778E+02 -0.66565618420E+02  0.83805059474E+02  0.10000000000E+01 0.  0.
    9000005    1    3    3    0    0 -0.24318848924E+02 -0.44720241778E+02  0.12434369793E+02  0.52411067437E+02  0.10000000000E+01 0.  0.
<mgrwt>
<rscale>  0 0.12499856E+03</rscale>
<asrwt>0</asrwt>
<pdfrwt beam="1">  1        4 0.63142215E-02 0.12499856E+03</pdfrwt>
<pdfrwt beam="2">  1       -4 0.14642106E-01 0.12499856E+03</pdfrwt>
<totfact> 0.10212832E+04</totfact>
</mgrwt>
</event>
<event>
 5    1  0.3300771E-002  0.1249985E+03  0.7818608E-02  0.1235072E+00
         -4   -1    0    0    0  501 -0.00000000000E+00  0.00000000000E+00  0.23566410271E+03  0.23566752471E+03  0.12700000000E+01 0. -1.
          4   -1    0    0  501    0  0.00000000000E+00 -0.00000000000E+00 -0.16547223557E+02  0.16595888269E+02  0.12700000000E+01 0. -1.
         25    2    1    2    0    0  0.00000000000E+00  0.00000000000E+00  0.21911687915E+03  0.25226341298E+03  0.12499849120E+03 0.  0.
    9000005    1    3    3    0    0  0.60586211806E+02 -0.24119212407E+01  0.79041961435E+02  0.99624987290E+02  0.10000000000E+01 0.  0.
    9000005    1    3    3    0    0 -0.60586211806E+02  0.24119212407E+01  0.14007491771E+03  0.15263842569E+03  0.10000000000E+01 0.  0.
<mgrwt>
<rscale>  0 0.12499849E+03</rscale>
<asrwt>0</asrwt>
<pdfrwt beam="2">  1        4 0.25497333E-02 0.12499849E+03</pdfrwt>
<pdfrwt beam="1">  1       -4 0.36260023E-01 0.12499849E+03</pdfrwt>
<totfact> 0.82006945E+03</totfact>
</mgrwt>
</event>
<event>
 5    1  0.3300771E-002  0.1249961E+03  0.7818608E-02  0.1235075E+00
          4   -1    0    0  501    0  0.00000000000E+00  0.00000000000E+00  0.14885883978E+02  0.14939961238E+02  0.12700000000E+01 0. -1.
         -4   -1    0    0    0  501 -0.00000000000E+00 -0.00000000000E+00 -0.26186520736E+03  0.26186828698E+03  0.12700000000E+01 0. -1.
         25    2    1    2    0    0  0.00000000000E+00  0.00000000000E+00 -0.24697932338E+03  0.27680824822E+03  0.12499608035E+03 0.  0.
    9000005    1    3    3    0    0  0.39574181155E+02 -0.41004429496E+02 -0.66703947949E+02  0.87737652831E+02  0.10000000000E+01 0.  0.
    9000005    1    3    3    0    0 -0.39574181155E+02  0.41004429496E+02 -0.18027537543E+03  0.18907059539E+03  0.10000000000E+01 0.  0.
<mgrwt>
<rscale>  0 0.12499608E+03</rscale>
<asrwt>0</asrwt>
<pdfrwt beam="1">  1        4 0.22945329E-02 0.12499608E+03</pdfrwt>
<pdfrwt beam="2">  1       -4 0.40291348E-01 0.12499608E+03</pdfrwt>
<totfact> 0.78610072E+03</totfact>
</mgrwt>
</event>
<event>
 5    1  0.3300771E-002  0.1249990E+03  0.7818608E-02  0.1235071E+00
          4   -1    0    0  501    0  0.00000000000E+00  0.00000000000E+00  0.30648486554E+02  0.30674788150E+02  0.12700000000E+01 0. -1.
         -4   -1    0    0    0  501 -0.00000000000E+00 -0.00000000000E+00 -0.12736704834E+03  0.12737337989E+03  0.12700000000E+01 0. -1.
         25    2    1    2    0    0  0.00000000000E+00  0.00000000000E+00 -0.96718561788E+02  0.15804816804E+03  0.12499897290E+03 0.  0.
    9000005    1    3    3    0    0 -0.12324697182E+02 -0.60610768111E+02 -0.37076900235E+02  0.72119760833E+02  0.10000000000E+01 0.  0.
    9000005    1    3    3    0    0  0.12324697182E+02  0.60610768111E+02 -0.59641661553E+02  0.85928407202E+02  0.10000000000E+01 0.  0.
<mgrwt>
<rscale>  0 0.12499897E+03</rscale>
<asrwt>0</asrwt>
<pdfrwt beam="1">  1        4 0.47176621E-02 0.12499897E+03</pdfrwt>
<pdfrwt beam="2">  1       -4 0.19597440E-01 0.12499897E+03</pdfrwt>
<totfact> 0.97722664E+03</totfact>
</mgrwt>
</event>
<event>
 5    1  0.3300771E-002  0.1249997E+03  0.7818608E-02  0.1235070E+00
         -4   -1    0    0    0  501 -0.00000000000E+00  0.00000000000E+00  0.16739764217E+02  0.16787870801E+02  0.12700000000E+01 0. -1.
          4   -1    0    0  501    0  0.00000000000E+00 -0.00000000000E+00 -0.23296583898E+03  0.23296930062E+03  0.12700000000E+01 0. -1.
         25    2    1    2    0    0  0.00000000000E+00  0.00000000000E+00 -0.21622607477E+03  0.24975717143E+03  0.12499971708E+03 0.  0.
    9000005    1    3    3    0    0  0.18510161708E+02 -0.46528234566E+02 -0.18281302355E+03  0.18954974090E+03  0.10000000000E+01 0.  0.
    9000005    1    3    3    0    0 -0.18510161708E+02  0.46528234566E+02 -0.33413051221E+02  0.60207430523E+02  0.10000000000E+01 0.  0.
<mgrwt>
<rscale>  0 0.12499972E+03</rscale>
<asrwt>0</asrwt>
<pdfrwt beam="2">  1        4 0.35844863E-01 0.12499972E+03</pdfrwt>
<pdfrwt beam="1">  1       -4 0.25793153E-02 0.12499972E+03</pdfrwt>
<totfact> 0.82365857E+03</totfact>
</mgrwt>
</event>
<event>
 5    1  0.3300771E-002  0.1249954E+03  0.7818608E-02  0.1235077E+00
          4   -1    0    0  501    0  0.00000000000E+00  0.00000000000E+00  0.83575005845E+02  0.83584654704E+02  0.12700000000E+01 0.  1.
         -4   -1    0    0    0  501 -0.00000000000E+00 -0.00000000000E+00 -0.46715004607E+02  0.46732264609E+02  0.12700000000E+01 0.  1.
         25    2    1    2    0    0  0.00000000000E+00  0.00000000000E+00  0.36860001238E+02  0.13031691931E+03  0.12499535899E+03 0.  0.
    9000005    1    3    3    0    0  0.57157942996E+02 -0.43728763193E+01  0.44364906866E+02  0.72494120148E+02  0.10000000000E+01 0.  0.
    9000005    1    3    3    0    0 -0.57157942996E+02  0.43728763193E+01 -0.75049056279E+01  0.57822799165E+02  0.10000000000E+01 0.  0.
<mgrwt>
<rscale>  0 0.12499536E+03</rscale>
<asrwt>0</asrwt>
<pdfrwt beam="1">  1        4 0.12859763E-01 0.12499536E+03</pdfrwt>
<pdfrwt beam="2">  1       -4 0.71889937E-02 0.12499536E+03</pdfrwt>
<totfact> 0.10338816E+04</totfact>
</mgrwt>
</event>
<event>
 5    1  0.3300771E-002  0.1249983E+03  0.7818608E-02  0.1235072E+00
         -4   -1    0    0    0  501 -0.00000000000E+00  0.00000000000E+00  0.62218481268E+03  0.62218610884E+03  0.12700000000E+01 0.  1.
          4   -1    0    0  501    0  0.00000000000E+00 -0.00000000000E+00 -0.62125675404E+01  0.63410484499E+01  0.12700000000E+01 0.  1.
         25    2    1    2    0    0  0.00000000000E+00  0.00000000000E+00  0.61597224514E+03  0.62852715729E+03  0.12499832265E+03 0.  0.
    9000005    1    3    3    0    0 -0.47367407055E+02 -0.21760422555E+02  0.13467741176E+03  0.14441673199E+03  0.10000000000E+01 0.  0.
    9000005    1    3    3    0    0  0.47367407055E+02  0.21760422555E+02  0.48129483338E+03  0.48411042530E+03  0.10000000000E+01 0.  0.
<mgrwt>
<rscale>  0 0.12499832E+03</rscale>
<asrwt>0</asrwt>
<pdfrwt beam="2">  1        4 0.96576235E-03 0.12499832E+03</pdfrwt>
<pdfrwt beam="1">  1       -4 0.95730735E-01 0.12499832E+03</pdfrwt>
<totfact> 0.47116751E+03</totfact>
</mgrwt>
</event>
<event>
 5    1  0.3300771E-002  0.1250011E+03  0.7818608E-02  0.1235068E+00
         -4   -1    0    0    0  501 -0.00000000000E+00  0.00000000000E+00  0.48513233618E+02  0.48529854070E+02  0.12700000000E+01 0.  1.
          4   -1    0    0  501    0  0.00000000000E+00 -0.00000000000E+00 -0.80485300291E+02  0.80495319510E+02  0.12700000000E+01 0.  1.
         25    2    1    2    0    0  0.00000000000E+00  0.00000000000E+00 -0.31972066673E+02  0.12902517358E+03  0.12500112947E+03 0.  0.
    9000005    1    3    3    0    0  0.13233175832E+02  0.60506704455E+02 -0.74031613930E+01  0.62385775824E+02  0.10000000000E+01 0.  0.
    9000005    1    3    3    0    0 -0.13233175832E+02 -0.60506704455E+02 -0.24568905280E+02  0.66639397756E+02  0.10000000000E+01 0.  0.
<mgrwt>
<rscale>  0 0.12500113E+03</rscale>
<asrwt>0</asrwt>
<pdfrwt beam="2">  1        4 0.12384403E-01 0.12500113E+03</pdfrwt>
<pdfrwt beam="1">  1       -4 0.74656236E-02 0.12500113E+03</pdfrwt>
<totfact> 0.10365142E+04</totfact>
</mgrwt>
</event>
<event>
 5    1  0.3300771E-002  0.1250000E+03  0.7818608E-02  0.1235069E+00
         -4   -1    0    0    0  501 -0.00000000000E+00  0.00000000000E+00  0.79152943887E+02  0.79163131734E+02  0.12700000000E+01 0. -1.
          4   -1    0    0  501    0  0.00000000000E+00 -0.00000000000E+00 -0.49329162154E+02  0.49345507787E+02  0.12700000000E+01 0. -1.
         25    2    1    2    0    0  0.00000000000E+00  0.00000000000E+00  0.29823781734E+02  0.12850863952E+03  0.12500004990E+03 0.  0.
    9000005    1    3    3    0    0 -0.31461081762E+02  0.18743098307E+02 -0.37146870337E+02  0.52172726358E+02  0.10000000000E+01 0.  0.
    9000005    1    3    3    0    0  0.31461081762E+02 -0.18743098307E+02  0.66970652071E+02  0.76335913164E+02  0.10000000000E+01 0.  0.
<mgrwt>
<rscale>  0 0.12500005E+03</rscale>
<asrwt>0</asrwt>
<pdfrwt beam="2">  1        4 0.75911430E-02 0.12500005E+03</pdfrwt>
<pdfrwt beam="1">  1       -4 0.12179417E-01 0.12500005E+03</pdfrwt>
<totfact> 0.10376506E+04</totfact>
</mgrwt>
</event>
<event>
 5    1  0.3300771E-002  0.1250080E+03  0.7818608E-02  0.1235057E+00
         -4   -1    0    0    0  501 -0.00000000000E+00  0.00000000000E+00  0.11814444912E+02  0.11882508513E+02  0.12700000000E+01 0.  1.
          4   -1    0    0  501    0  0.00000000000E+00 -0.00000000000E+00 -0.32965638897E+03  0.32965883530E+03  0.12700000000E+01 0.  1.
         25    2    1    2    0    0  0.00000000000E+00  0.00000000000E+00 -0.31784194406E+03  0.34154134381E+03  0.12500795226E+03 0.  0.
    9000005    1    3    3    0    0  0.44313679530E+02  0.37809180861E+02 -0.97068494208E+02  0.11321010961E+03  0.10000000000E+01 0.  0.
    9000005    1    3    3    0    0 -0.44313679530E+02 -0.37809180861E+02 -0.22077344985E+03  0.22833123420E+03  0.10000000000E+01 0.  0.
<mgrwt>
<rscale>  0 0.12500795E+03</rscale>
<asrwt>0</asrwt>
<pdfrwt beam="2">  1        4 0.50721784E-01 0.12500795E+03</pdfrwt>
<pdfrwt beam="1">  1       -4 0.18230310E-02 0.12500795E+03</pdfrwt>
<totfact> 0.70652809E+03</totfact>
</mgrwt>
</event>
<event>
 5    1  0.3300771E-002  0.1250006E+03  0.7818608E-02  0.1235068E+00
          4   -1    0    0  501    0  0.00000000000E+00  0.00000000000E+00  0.40010313356E+02  0.40030464334E+02  0.12700000000E+01 0.  1.
         -4   -1    0    0    0  501 -0.00000000000E+00 -0.00000000000E+00 -0.97583173865E+02  0.97591437747E+02  0.12700000000E+01 0.  1.
         25    2    1    2    0    0  0.00000000000E+00  0.00000000000E+00 -0.57572860509E+02  0.13762190208E+03  0.12500061466E+03 0.  0.
    9000005    1    3    3    0    0  0.10421973502E+02 -0.52218753508E+02 -0.64797950317E+02  0.83876040172E+02  0.10000000000E+01 0.  0.
    9000005    1    3    3    0    0 -0.10421973502E+02  0.52218753508E+02  0.72250898082E+01  0.53745861909E+02  0.10000000000E+01 0.  0.
<mgrwt>
<rscale>  0 0.12500061E+03</rscale>
<asrwt>0</asrwt>
<pdfrwt beam="1">  1        4 0.61576186E-02 0.12500061E+03</pdfrwt>
<pdfrwt beam="2">  1       -4 0.15014982E-01 0.12500061E+03</pdfrwt>
<totfact> 0.10182957E+04</totfact>
</mgrwt>
</event>
<event>
 5    1  0.3300771E-002  0.1249945E+03  0.7818608E-02  0.1235078E+00
          4   -1    0    0  501    0  0.00000000000E+00  0.00000000000E+00  0.99654365846E+02  0.99662457988E+02  0.12700000000E+01 0. -1.
         -4   -1    0    0    0  501 -0.00000000000E+00 -0.00000000000E+00 -0.39174573569E+02  0.39195154220E+02  0.12700000000E+01 0. -1.
         25    2    1    2    0    0  0.00000000000E+00  0.00000000000E+00  0.60479792277E+02  0.13885761221E+03  0.12499452466E+03 0.  0.
    9000005    1    3    3    0    0 -0.49661762819E+02  0.29723227559E+02  0.40651399080E+01  0.58028323303E+02  0.10000000000E+01 0.  0.
    9000005    1    3    3    0    0  0.49661762819E+02 -0.29723227559E+02  0.56414652369E+02  0.80829288904E+02  0.10000000000E+01 0.  0.
<mgrwt>
<rscale>  0 0.12499452E+03</rscale>
<asrwt>0</asrwt>
<pdfrwt beam="1">  1        4 0.15333646E-01 0.12499452E+03</pdfrwt>
<pdfrwt beam="2">  1       -4 0.60290632E-02 0.12499452E+03</pdfrwt>
<totfact> 0.10158571E+04</totfact>
</mgrwt>
</event>
<event>
 5    1  0.3300771E-002  0.1250025E+03  0.7818608E-02  0.1235065E+00
          4   -1    0    0  501    0  0.00000000000E+00  0.00000000000E+00  0.10383699336E+03  0.10384475957E+03  0.12700000000E+01 0.  1.
         -4   -1    0    0    0  501 -0.00000000000E+00 -0.00000000000E+00 -0.37600640056E+02  0.37622081716E+02  0.12700000000E+01 0.  1.
         25    2    1    2    0    0  0.00000000000E+00  0.00000000000E+00  0.66236353307E+02  0.14146684129E+03  0.12500245071E+03 0.  0.
    9000005    1    3    3    0    0  0.30807401411E+02 -0.53887789512E+02  0.24924911509E+02  0.66897242499E+02  0.10000000000E+01 0.  0.
    9000005    1    3    3    0    0 -0.30807401411E+02  0.53887789512E+02  0.41311441797E+02  0.74569598789E+02  0.10000000000E+01 0.  0.
<mgrwt>
<rscale>  0 0.12500245E+03</rscale>
<asrwt>0</asrwt>
<pdfrwt beam="1">  1        4 0.15977169E-01 0.12500245E+03</pdfrwt>
<pdfrwt beam="2">  1       -4 0.57869607E-02 0.12500245E+03</pdfrwt>
<totfact> 0.10102717E+04</totfact>
</mgrwt>
</event>
<event>
 5    1  0.3300771E-002  0.1250009E+03  0.7818608E-02  0.1235068E+00
          4   -1    0    0  501    0  0.00000000000E+00  0.00000000000E+00  0.13909994258E+03  0.13910574009E+03  0.12700000000E+01 0. -1.
         -4   -1    0    0    0  501 -0.00000000000E+00 -0.00000000000E+00 -0.28061987128E+02  0.28090710592E+02  0.12700000000E+01 0. -1.
         25    2    1    2    0    0  0.00000000000E+00  0.00000000000E+00  0.11103795545E+03  0.16719645068E+03  0.12500090228E+03 0.  0.
    9000005    1    3    3    0    0 -0.49761802768E+02 -0.37430032566E+02  0.48433428414E+02  0.78892593699E+02  0.10000000000E+01 0.  0.
    9000005    1    3    3    0    0  0.49761802768E+02  0.37430032566E+02  0.62604527041E+02  0.88303856986E+02  0.10000000000E+01 0.  0.
<mgrwt>
<rscale>  0 0.12500090E+03</rscale>
<asrwt>0</asrwt>
<pdfrwt beam="1">  1        4 0.21402646E-01 0.12500090E+03</pdfrwt>
<pdfrwt beam="2">  1       -4 0.43198843E-02 0.12500090E+03</pdfrwt>
<totfact> 0.95971084E+03</totfact>
</mgrwt>
</event>
<event>
 5    1  0.3300771E-002  0.1249998E+03  0.7818608E-02  0.1235070E+00
         -4   -1    0    0    0  501 -0.00000000000E+00  0.00000000000E+00  0.37376039391E+03  0.37376255157E+03  0.12700000000E+01 0.  1.
          4   -1    0    0  501    0  0.00000000000E+00 -0.00000000000E+00 -0.10410406636E+02  0.10487586297E+02  0.12700000000E+01 0.  1.
         25    2    1    2    0    0  0.00000000000E+00  0.00000000000E+00  0.36334998727E+03  0.38425013786E+03  0.12499982079E+03 0.  0.
    9000005    1    3    3    0    0 -0.29351070827E+02 -0.36726159884E+02  0.30823081940E+03  0.31179726459E+03  0.10000000000E+01 0.  0.
    9000005    1    3    3    0    0  0.29351070827E+02  0.36726159884E+02  0.55119167870E+02  0.72452873271E+02  0.10000000000E+01 0.  0.
<mgrwt>
<rscale>  0 0.12499982E+03</rscale>
<asrwt>0</asrwt>
<pdfrwt beam="2">  1        4 0.16077037E-02 0.12499982E+03</pdfrwt>
<pdfrwt beam="1">  1       -4 0.57507709E-01 0.12499982E+03</pdfrwt>
<totfact> 0.66114235E+03</totfact>
</mgrwt>
</event>
<event>
 5    1  0.3300771E-002  0.1250068E+03  0.7818608E-02  0.1235059E+00
         -4   -1    0    0    0  501 -0.00000000000E+00  0.00000000000E+00  0.15251361379E+03  0.15251890142E+03  0.12700000000E+01 0.  1.
          4   -1    0    0  501    0  0.00000000000E+00 -0.00000000000E+00 -0.25593796266E+02  0.25625286482E+02  0.12700000000E+01 0.  1.
         25    2    1    2    0    0  0.00000000000E+00  0.00000000000E+00  0.12691981752E+03  0.17814418790E+03  0.12500684623E+03 0.  0.
    9000005    1    3    3    0    0 -0.47777289168E+02  0.22632960692E+02  0.15964950331E+02  0.55234046647E+02  0.10000000000E+01 0.  0.
    9000005    1    3    3    0    0  0.47777289168E+02 -0.22632960692E+02  0.11095486719E+03  0.12291014126E+03  0.10000000000E+01 0.  0.
<mgrwt>
<rscale>  0 0.12500685E+03</rscale>
<asrwt>0</asrwt>
<pdfrwt beam="2">  1        4 0.39403361E-02 0.12500685E+03</pdfrwt>
<pdfrwt beam="1">  1       -4 0.23466462E-01 0.12500685E+03</pdfrwt>
<totfact> 0.93937702E+03</totfact>
</mgrwt>
</event>
<event>
 5    1  0.3300771E-002  0.1250003E+03  0.7818608E-02  0.1235069E+00
          4   -1    0    0  501    0  0.00000000000E+00  0.00000000000E+00  0.32208837824E+02  0.32233866259E+02  0.12700000000E+01 0. -1.
         -4   -1    0    0    0  501 -0.00000000000E+00 -0.00000000000E+00 -0.12120394406E+03  0.12121059754E+03  0.12700000000E+01 0. -1.
         25    2    1    2    0    0  0.00000000000E+00  0.00000000000E+00 -0.88995106240E+02  0.15344446380E+03  0.12500029815E+03 0.  0.
    9000005    1    3    3    0    0  0.59634958770E+02 -0.10281976127E+02 -0.63641918398E+02  0.87825629050E+02  0.10000000000E+01 0.  0.
    9000005    1    3    3    0    0 -0.59634958770E+02  0.10281976127E+02 -0.25353187842E+02  0.65618834753E+02  0.10000000000E+01 0.  0.
<mgrwt>
<rscale>  0 0.12500030E+03</rscale>
<asrwt>0</asrwt>
<pdfrwt beam="1">  1        4 0.49576430E-02 0.12500030E+03</pdfrwt>
<pdfrwt beam="2">  1       -4 0.18649197E-01 0.12500030E+03</pdfrwt>
<totfact> 0.98620813E+03</totfact>
</mgrwt>
</event>
<event>
 5    1  0.3300771E-002  0.1249899E+03  0.7818608E-02  0.1235085E+00
         -4   -1    0    0    0  501 -0.00000000000E+00  0.00000000000E+00  0.12394388448E+03  0.12395039089E+03  0.12700000000E+01 0. -1.
          4   -1    0    0  501    0  0.00000000000E+00 -0.00000000000E+00 -0.31491043981E+02  0.31516642445E+02  0.12700000000E+01 0. -1.
         25    2    1    2    0    0  0.00000000000E+00  0.00000000000E+00  0.92452840504E+02  0.15546703333E+03  0.12498988253E+03 0.  0.
    9000005    1    3    3    0    0 -0.43724802413E+02  0.34404860814E+02  0.10846640174E+02  0.56693936155E+02  0.10000000000E+01 0.  0.
    9000005    1    3    3    0    0  0.43724802413E+02 -0.34404860814E+02  0.81606200330E+02  0.98773097177E+02  0.10000000000E+01 0.  0.
<mgrwt>
<rscale>  0 0.12498988E+03</rscale>
<asrwt>0</asrwt>
<pdfrwt beam="2">  1        4 0.48472457E-02 0.12498988E+03</pdfrwt>
<pdfrwt beam="1">  1       -4 0.19070759E-01 0.12498988E+03</pdfrwt>
<totfact> 0.98246245E+03</totfact>
</mgrwt>
</event>
<event>
 5    1  0.3300771E-002  0.1249922E+03  0.7818608E-02  0.1235081E+00
          4   -1    0    0  501    0  0.00000000000E+00  0.00000000000E+00  0.48862641728E+02  0.48879143371E+02  0.12700000000E+01 0. -1.
         -4   -1    0    0    0  501 -0.00000000000E+00 -0.00000000000E+00 -0.79898463330E+02  0.79908556128E+02  0.12700000000E+01 0. -1.
         25    2    1    2    0    0  0.00000000000E+00  0.00000000000E+00 -0.31035821601E+02  0.12878769950E+03  0.12499219704E+03 0.  0.
    9000005    1    3    3    0    0 -0.27606968005E+02  0.51464488191E+01  0.41999507824E+02  0.50533051316E+02  0.10000000000E+01 0.  0.
    9000005    1    3    3    0    0  0.27606968005E+02 -0.51464488191E+01 -0.73035329425E+02  0.78254648182E+02  0.10000000000E+01 0.  0.
<mgrwt>
<rscale>  0 0.12499220E+03</rscale>
<asrwt>0</asrwt>
<pdfrwt beam="1">  1        4 0.75193752E-02 0.12499220E+03</pdfrwt>
<pdfrwt beam="2">  1       -4 0.12294117E-01 0.12499220E+03</pdfrwt>
<totfact> 0.10372338E+04</totfact>
</mgrwt>
</event>
<event>
 5    1  0.3300771E-002  0.1250002E+03  0.7818608E-02  0.1235069E+00
         -4   -1    0    0    0  501 -0.00000000000E+00  0.00000000000E+00  0.12043453253E+03  0.12044122851E+03  0.12700000000E+01 0. -1.
          4   -1    0    0  501    0  0.00000000000E+00 -0.00000000000E+00 -0.32414709642E+02  0.32439579238E+02  0.12700000000E+01 0. -1.
         25    2    1    2    0    0  0.00000000000E+00  0.00000000000E+00  0.88019822886E+02  0.15288080775E+03  0.12500020863E+03 0.  0.
    9000005    1    3    3    0    0 -0.18986762298E+02 -0.53814486777E+02  0.75161957487E+02  0.94375929044E+02  0.10000000000E+01 0.  0.
    9000005    1    3    3    0    0  0.18986762298E+02  0.53814486777E+02  0.12857865399E+02  0.58504878705E+02  0.10000000000E+01 0.  0.
<mgrwt>
<rscale>  0 0.12500021E+03</rscale>
<asrwt>0</asrwt>
<pdfrwt beam="2">  1        4 0.49893065E-02 0.12500021E+03</pdfrwt>
<pdfrwt beam="1">  1       -4 0.18530818E-01 0.12500021E+03</pdfrwt>
<totfact> 0.98732057E+03</totfact>
</mgrwt>
</event>
<event>
 5    1  0.3300771E-002  0.1249986E+03  0.7818608E-02  0.1235072E+00
          4   -1    0    0  501    0  0.00000000000E+00  0.00000000000E+00  0.60488487611E+02  0.60501818431E+02  0.12700000000E+01 0. -1.
         -4   -1    0    0    0  501 -0.00000000000E+00 -0.00000000000E+00 -0.64550240013E+02  0.64562732173E+02  0.12700000000E+01 0. -1.
         25    2    1    2    0    0  0.00000000000E+00  0.00000000000E+00 -0.40617524015E+01  0.12506455060E+03  0.12499857593E+03 0.  0.
    9000005    1    3    3    0    0  0.10472576907E+02  0.36258758252E+02 -0.51864680065E+02  0.64150740099E+02  0.10000000000E+01 0.  0.
    9000005    1    3    3    0    0 -0.10472576907E+02 -0.36258758252E+02  0.47802927664E+02  0.60913810505E+02  0.10000000000E+01 0.  0.
<mgrwt>
<rscale>  0 0.12499858E+03</rscale>
<asrwt>0</asrwt>
<pdfrwt beam="1">  1        4 0.93079075E-02 0.12499858E+03</pdfrwt>
<pdfrwt beam="2">  1       -4 0.99327926E-02 0.12499858E+03</pdfrwt>
<totfact> 0.10451797E+04</totfact>
</mgrwt>
</event>
<event>
 5    1  0.3300771E-002  0.1250003E+03  0.7818608E-02  0.1235069E+00
          4   -1    0    0  501    0  0.00000000000E+00  0.00000000000E+00  0.13188207752E+02  0.13249215966E+02  0.12700000000E+01 0. -1.
         -4   -1    0    0    0  501 -0.00000000000E+00 -0.00000000000E+00 -0.29544834344E+03  0.29545107301E+03  0.12700000000E+01 0. -1.
         25    2    1    2    0    0  0.00000000000E+00  0.00000000000E+00 -0.28226013569E+03  0.30870028897E+03  0.12500033685E+03 0.  0.
    9000005    1    3    3    0    0  0.38331729880E+02  0.36812730422E+02 -0.22231828015E+03  0.22858459337E+03  0.10000000000E+01 0.  0.
    9000005    1    3    3    0    0 -0.38331729880E+02 -0.36812730422E+02 -0.59941855535E+02  0.80115695602E+02  0.10000000000E+01 0.  0.
<mgrwt>
<rscale>  0 0.12500034E+03</rscale>
<asrwt>0</asrwt>
<pdfrwt beam="1">  1        4 0.20338582E-02 0.12500034E+03</pdfrwt>
<pdfrwt beam="2">  1       -4 0.45458489E-01 0.12500034E+03</pdfrwt>
<totfact> 0.74519737E+03</totfact>
</mgrwt>
</event>
<event>
 5    1  0.3300771E-002  0.1250004E+03  0.7818608E-02  0.1235069E+00
         -4   -1    0    0    0  501 -0.00000000000E+00  0.00000000000E+00  0.44233058873E+02  0.44251286956E+02  0.12700000000E+01 0. -1.
          4   -1    0    0  501    0  0.00000000000E+00 -0.00000000000E+00 -0.88270187274E+02  0.88279322955E+02  0.12700000000E+01 0. -1.
         25    2    1    2    0    0  0.00000000000E+00  0.00000000000E+00 -0.44037128401E+02  0.13253060991E+03  0.12500037554E+03 0.  0.
    9000005    1    3    3    0    0  0.63800962195E+01  0.44175296180E+02  0.24355479726E+02  0.50856187559E+02  0.10000000000E+01 0.  0.
    9000005    1    3    3    0    0 -0.63800962195E+01 -0.44175296180E+02 -0.68392608127E+02  0.81674422353E+02  0.10000000000E+01 0.  0.
<mgrwt>
<rscale>  0 0.12500038E+03</rscale>
<asrwt>0</asrwt>
<pdfrwt beam="2">  1        4 0.13582134E-01 0.12500038E+03</pdfrwt>
<pdfrwt beam="1">  1       -4 0.68071909E-02 0.12500038E+03</pdfrwt>
<totfact> 0.10290299E+04</totfact>
</mgrwt>
</event>
<event>
 5    1  0.3300771E-002  0.1250008E+03  0.7818608E-02  0.1235068E+00
          4   -1    0    0  501    0  0.00000000000E+00  0.00000000000E+00  0.48542837421E+02  0.48559447740E+02  0.12700000000E+01 0.  1.
         -4   -1    0    0    0  501 -0.00000000000E+00 -0.00000000000E+00 -0.80435833824E+02  0.80445859203E+02  0.12700000000E+01 0.  1.
         25    2    1    2    0    0  0.00000000000E+00  0.00000000000E+00 -0.31892996403E+02  0.12900530694E+03  0.12500082400E+03 0.  0.
    9000005    1    3    3    0    0  0.16098339593E+02  0.49884918488E+02 -0.51060589858E+02  0.73183642072E+02  0.10000000000E+01 0.  0.
    9000005    1    3    3    0    0 -0.16098339593E+02 -0.49884918488E+02  0.19167593455E+02  0.55821664872E+02  0.10000000000E+01 0.  0.
<mgrwt>
<rscale>  0 0.12500082E+03</rscale>
<asrwt>0</asrwt>
<pdfrwt beam="1">  1        4 0.74701777E-02 0.12500082E+03</pdfrwt>
<pdfrwt beam="2">  1       -4 0.12376793E-01 0.12500082E+03</pdfrwt>
<totfact> 0.10365640E+04</totfact>
</mgrwt>
</event>
<event>
 5    1  0.3300771E-002  0.1250008E+03  0.7818608E-02  0.1235068E+00
         -4   -1    0    0    0  501 -0.00000000000E+00  0.00000000000E+00  0.37745306530E+02  0.37766666056E+02  0.12700000000E+01 0. -1.
          4   -1    0    0  501    0  0.00000000000E+00 -0.00000000000E+00 -0.10343654805E+03  0.10344434432E+03  0.12700000000E+01 0. -1.
         25    2    1    2    0    0  0.00000000000E+00  0.00000000000E+00 -0.65691241516E+02  0.14121101038E+03  0.12500084095E+03 0.  0.
    9000005    1    3    3    0    0  0.44083142656E+01 -0.24246530946E+01 -0.10321293093E+03  0.10334031783E+03  0.10000000000E+01 0.  0.
    9000005    1    3    3    0    0 -0.44083142656E+01  0.24246530946E+01  0.37521689416E+02  0.37870692547E+02  0.10000000000E+01 0.  0.
<mgrwt>
<rscale>  0 0.12500084E+03</rscale>
<asrwt>0</asrwt>
<pdfrwt beam="2">  1        4 0.15915558E-01 0.12500084E+03</pdfrwt>
<pdfrwt beam="1">  1       -4 0.58092130E-02 0.12500084E+03</pdfrwt>
<totfact> 0.10108357E+04</totfact>
</mgrwt>
</event>
<event>
 5    1  0.3300771E-002  0.1249972E+03  0.7818608E-02  0.1235074E+00
         -4   -1    0    0    0  501 -0.00000000000E+00  0.00000000000E+00  0.37048929800E+02  0.37070690570E+02  0.12700000000E+01 0.  1.
          4   -1    0    0  501    0  0.00000000000E+00 -0.00000000000E+00 -0.10537356453E+03  0.10538121750E+03  0.12700000000E+01 0.  1.
         25    2    1    2    0    0  0.00000000000E+00  0.00000000000E+00 -0.68324634732E+02  0.14245190807E+03  0.12499716158E+03 0.  0.
    9000005    1    3    3    0    0  0.36271050471E+02  0.26994893940E+02  0.14997833495E+02  0.47647123844E+02  0.10000000000E+01 0.  0.
    9000005    1    3    3    0    0 -0.36271050471E+02 -0.26994893940E+02 -0.83322468227E+02  0.94804784228E+02  0.10000000000E+01 0.  0.
<mgrwt>
<rscale>  0 0.12499716E+03</rscale>
<asrwt>0</asrwt>
<pdfrwt beam="2">  1        4 0.16213580E-01 0.12499716E+03</pdfrwt>
<pdfrwt beam="1">  1       -4 0.57020980E-02 0.12499716E+03</pdfrwt>
<totfact> 0.10083664E+04</totfact>
</mgrwt>
</event>
<event>
 5    1  0.3300771E-002  0.1250025E+03  0.7818608E-02  0.1235065E+00
         -4   -1    0    0    0  501 -0.00000000000E+00  0.00000000000E+00  0.43356532031E+01  0.45178300873E+01  0.12700000000E+01 0.  1.
          4   -1    0    0  501    0  0.00000000000E+00 -0.00000000000E+00 -0.88227392402E+03  0.88227483808E+03  0.12700000000E+01 0.  1.
         25    2    1    2    0    0  0.00000000000E+00  0.00000000000E+00 -0.87793827082E+03  0.88679266817E+03  0.12500251576E+03 0.  0.
    9000005    1    3    3    0    0  0.28047337996E+02 -0.44956793868E+02 -0.67400462907E+03  0.67608505862E+03  0.10000000000E+01 0.  0.
    9000005    1    3    3    0    0 -0.28047337996E+02  0.44956793868E+02 -0.20393364175E+03  0.21070760955E+03  0.10000000000E+01 0.  0.
<mgrwt>
<rscale>  0 0.12500252E+03</rscale>
<asrwt>0</asrwt>
<pdfrwt beam="2">  1        4 0.13574839E+00 0.12500252E+03</pdfrwt>
<pdfrwt beam="1">  1       -4 0.68110819E-03 0.12500252E+03</pdfrwt>
<totfact> 0.34665282E+03</totfact>
</mgrwt>
</event>
<event>
 5    1  0.3300771E-002  0.1250018E+03  0.7818608E-02  0.1235067E+00
          4   -1    0    0  501    0  0.00000000000E+00  0.00000000000E+00  0.15842421017E+02  0.15893243963E+02  0.12700000000E+01 0.  1.
         -4   -1    0    0    0  501 -0.00000000000E+00 -0.00000000000E+00 -0.24612859456E+03  0.24613187108E+03  0.12700000000E+01 0.  1.
         25    2    1    2    0    0  0.00000000000E+00  0.00000000000E+00 -0.23028617354E+03  0.26202511504E+03  0.12500175673E+03 0.  0.
    9000005    1    3    3    0    0 -0.18219720948E+02 -0.23748022561E+02 -0.15068561759E+00  0.29949115398E+02  0.10000000000E+01 0.  0.
    9000005    1    3    3    0    0  0.18219720948E+02  0.23748022561E+02 -0.23013548793E+03  0.23207599964E+03  0.10000000000E+01 0.  0.
<mgrwt>
<rscale>  0 0.12500176E+03</rscale>
<asrwt>0</asrwt>
<pdfrwt beam="1">  1        4 0.24414572E-02 0.12500176E+03</pdfrwt>
<pdfrwt beam="2">  1       -4 0.37870096E-01 0.12500176E+03</pdfrwt>
<totfact> 0.80619551E+03</totfact>
</mgrwt>
</event>
<event>
 5    1  0.3300771E-002  0.1249986E+03  0.7818608E-02  0.1235071E+00
          4   -1    0    0  501    0  0.00000000000E+00  0.00000000000E+00  0.56979776463E+01  0.58377948968E+01  0.12700000000E+01 0. -1.
         -4   -1    0    0    0  501 -0.00000000000E+00 -0.00000000000E+00 -0.67708601222E+03  0.67708720328E+03  0.12700000000E+01 0. -1.
         25    2    1    2    0    0  0.00000000000E+00  0.00000000000E+00 -0.67138803457E+03  0.68292499817E+03  0.12499864065E+03 0.  0.
    9000005    1    3    3    0    0 -0.88403548330E+01  0.61046383410E+02 -0.28096328540E+03  0.28765635843E+03  0.10000000000E+01 0.  0.
    9000005    1    3    3    0    0  0.88403548330E+01 -0.61046383410E+02 -0.39042474917E+03  0.39526863975E+03  0.10000000000E+01 0.  0.
<mgrwt>
<rscale>  0 0.12499864E+03</rscale>
<asrwt>0</asrwt>
<pdfrwt beam="1">  1        4 0.88745927E-03 0.12499864E+03</pdfrwt>
<pdfrwt beam="2">  1       -4 0.10417786E+00 0.12499864E+03</pdfrwt>
<totfact> 0.44004851E+03</totfact>
</mgrwt>
</event>
<event>
 5    1  0.3300771E-002  0.1249938E+03  0.7818608E-02  0.1235079E+00
         -4   -1    0    0    0  501 -0.00000000000E+00  0.00000000000E+00  0.31908302535E+03  0.31908555274E+03  0.12700000000E+01 0.  1.
          4   -1    0    0  501    0  0.00000000000E+00 -0.00000000000E+00 -0.12205379390E+02  0.12271274834E+02  0.12700000000E+01 0.  1.
         25    2    1    2    0    0  0.00000000000E+00  0.00000000000E+00  0.30687764596E+03  0.33135682758E+03  0.12499383021E+03 0.  0.
    9000005    1    3    3    0    0 -0.51000182644E+02  0.35391416533E+02  0.17242502534E+03  0.18326199922E+03  0.10000000000E+01 0.  0.
    9000005    1    3    3    0    0  0.51000182644E+02 -0.35391416533E+02  0.13445262062E+03  0.14809482836E+03  0.10000000000E+01 0.  0.
<mgrwt>
<rscale>  0 0.12499383E+03</rscale>
<asrwt>0</asrwt>
<pdfrwt beam="2">  1        4 0.18830143E-02 0.12499383E+03</pdfrwt>
<pdfrwt beam="1">  1       -4 0.49094951E-01 0.12499383E+03</pdfrwt>
<totfact> 0.71835256E+03</totfact>
</mgrwt>
</event>
<event>
 5    1  0.3300771E-002  0.1249930E+03  0.7818608E-02  0.1235080E+00
          4   -1    0    0  501    0  0.00000000000E+00  0.00000000000E+00  0.56475466524E+01  0.57885821399E+01  0.12700000000E+01 0.  1.
         -4   -1    0    0    0  501 -0.00000000000E+00 -0.00000000000E+00 -0.68292383470E+03  0.68292501558E+03  0.12700000000E+01 0.  1.
         25    2    1    2    0    0  0.00000000000E+00  0.00000000000E+00 -0.67727628805E+03  0.68871359772E+03  0.12499299712E+03 0.  0.
    9000005    1    3    3    0    0 -0.64445950230E+01  0.40045463503E+02 -0.60056054268E+03  0.60192951197E+03  0.10000000000E+01 0.  0.
    9000005    1    3    3    0    0  0.64445950230E+01 -0.40045463503E+02 -0.76715745362E+02  0.86784085745E+02  0.10000000000E+01 0.  0.
<mgrwt>
<rscale>  0 0.12499300E+03</rscale>
<asrwt>0</asrwt>
<pdfrwt beam="1">  1        4 0.87979359E-03 0.12499300E+03</pdfrwt>
<pdfrwt beam="2">  1       -4 0.10507608E+00 0.12499300E+03</pdfrwt>
<totfact> 0.43695937E+03</totfact>
</mgrwt>
</event>
<event>
 5    1  0.3300771E-002  0.1250025E+03  0.7818608E-02  0.1235065E+00
          4   -1    0    0  501    0  0.00000000000E+00  0.00000000000E+00  0.10731203843E+02  0.10806092537E+02  0.12700000000E+01 0.  1.
         -4   -1    0    0    0  501 -0.00000000000E+00 -0.00000000000E+00 -0.36268159705E+03  0.36268382062E+03  0.12700000000E+01 0.  1.
         25    2    1    2    0    0  0.00000000000E+00  0.00000000000E+00 -0.35195039321E+03  0.37348991316E+03  0.12500254378E+03 0.  0.
    9000005    1    3    3    0    0  0.13207123766E+02 -0.25268930441E+02 -0.34212973719E+03  0.34331720614E+03  0.10000000000E+01 0.  0.
    9000005    1    3    3    0    0 -0.13207123766E+02  0.25268930441E+02 -0.98206560145E+01  0.30172707011E+02  0.10000000000E+01 0.  0.
<mgrwt>
<rscale>  0 0.12500254E+03</rscale>
<asrwt>0</asrwt>
<pdfrwt beam="1">  1        4 0.16568864E-02 0.12500254E+03</pdfrwt>
<pdfrwt beam="2">  1       -4 0.55803091E-01 0.12500254E+03</pdfrwt>
<totfact> 0.67211626E+03</totfact>
</mgrwt>
</event>
<event>
 5    1  0.3300771E-002  0.1249986E+03  0.7818608E-02  0.1235072E+00
          4   -1    0    0  501    0  0.00000000000E+00  0.00000000000E+00  0.65745617198E+01  0.66961004926E+01  0.12700000000E+01 0.  1.
         -4   -1    0    0    0  501 -0.00000000000E+00 -0.00000000000E+00 -0.58856887837E+03  0.58857024856E+03  0.12700000000E+01 0.  1.
         25    2    1    2    0    0  0.00000000000E+00  0.00000000000E+00 -0.58199431665E+03  0.59526634905E+03  0.12499856678E+03 0.  0.
    9000005    1    3    3    0    0  0.14401660751E+01 -0.20765139743E+02 -0.57159841376E+03  0.57197815668E+03  0.10000000000E+01 0.  0.
    9000005    1    3    3    0    0 -0.14401660751E+01  0.20765139743E+02 -0.10395902890E+02  0.23288192369E+02  0.10000000000E+01 0.  0.
<mgrwt>
<rscale>  0 0.12499857E+03</rscale>
<asrwt>0</asrwt>
<pdfrwt beam="1">  1        4 0.10209260E-02 0.12499857E+03</pdfrwt>
<pdfrwt beam="2">  1       -4 0.90558472E-01 0.12499857E+03</pdfrwt>
<totfact> 0.49169344E+03</totfact>
</mgrwt>
</event>
<event>
 5    1  0.3300771E-002  0.1249983E+03  0.7818608E-02  0.1235072E+00
          4   -1    0    0  501    0  0.00000000000E+00  0.00000000000E+00  0.10573070489E+02  0.10649071301E+02  0.12700000000E+01 0. -1.
         -4   -1    0    0    0  501 -0.00000000000E+00 -0.00000000000E+00 -0.36804229621E+03  0.36804448740E+03  0.12700000000E+01 0. -1.
         25    2    1    2    0    0  0.00000000000E+00  0.00000000000E+00 -0.35746922573E+03  0.37869355870E+03  0.12499825622E+03 0.  0.
    9000005    1    3    3    0    0  0.66306725799E+01  0.53952653698E+02 -0.85342282923E+02  0.10118873413E+03  0.10000000000E+01 0.  0.
    9000005    1    3    3    0    0 -0.66306725799E+01 -0.53952653698E+02 -0.27212694280E+03  0.27750482457E+03  0.10000000000E+01 0.  0.
<mgrwt>
<rscale>  0 0.12499826E+03</rscale>
<asrwt>0</asrwt>
<pdfrwt beam="1">  1        4 0.16326413E-02 0.12499826E+03</pdfrwt>
<pdfrwt beam="2">  1       -4 0.56627897E-01 0.12499826E+03</pdfrwt>
<totfact> 0.66681704E+03</totfact>
</mgrwt>
</event>
<event>
 5    1  0.3300771E-002  0.1250097E+03  0.7818608E-02  0.1235054E+00
          4   -1    0    0  501    0  0.00000000000E+00  0.00000000000E+00  0.59257791824E+01  0.60603431354E+01  0.12700000000E+01 0. -1.
         -4   -1    0    0    0  501 -0.00000000000E+00 -0.00000000000E+00 -0.65176094285E+03  0.65176218019E+03  0.12700000000E+01 0. -1.
         25    2    1    2    0    0  0.00000000000E+00  0.00000000000E+00 -0.64583516367E+03  0.65782252332E+03  0.12500965388E+03 0.  0.
    9000005    1    3    3    0    0 -0.54501602263E+01 -0.13567932274E+00 -0.65053304727E+03  0.65055666029E+03  0.10000000000E+01 0.  0.
    9000005    1    3    3    0    0  0.54501602263E+01  0.13567932274E+00  0.46978836001E+01  0.72658630383E+01  0.10000000000E+01 0.  0.
<mgrwt>
<rscale>  0 0.12500965E+03</rscale>
<asrwt>0</asrwt>
<pdfrwt beam="1">  1        4 0.92210510E-03 0.12500965E+03</pdfrwt>
<pdfrwt beam="2">  1       -4 0.10028130E+00 0.12500965E+03</pdfrwt>
<totfact> 0.45398857E+03</totfact>
</mgrwt>
</event>
<event>
 5    1  0.3300771E-002  0.1249960E+03  0.7818608E-02  0.1235075E+00
          4   -1    0    0  501    0  0.00000000000E+00  0.00000000000E+00  0.29896524825E+01  0.32482182757E+01  0.12700000000E+01 0. -1.
         -4   -1    0    0    0  501 -0.00000000000E+00 -0.00000000000E+00 -0.12520920288E+04  0.12520926729E+04  0.12700000000E+01 0. -1.
         25    2    1    2    0    0  0.00000000000E+00  0.00000000000E+00 -0.12491023763E+04  0.12553408911E+04  0.12499602590E+03 0.  0.
    9000005    1    3    3    0    0  0.17225103695E+02  0.60066645186E+02 -0.61909123033E+03  0.62223762144E+03  0.10000000000E+01 0.  0.
    9000005    1    3    3    0    0 -0.17225103695E+02 -0.60066645186E+02 -0.63001114596E+03  0.63310326969E+03  0.10000000000E+01 0.  0.
<mgrwt>
<rscale>  0 0.12499603E+03</rscale>
<asrwt>0</asrwt>
<pdfrwt beam="1">  1        4 0.47988676E-03 0.12499603E+03</pdfrwt>
<pdfrwt beam="2">  1       -4 0.19264908E+00 0.12499603E+03</pdfrwt>
<totfact> 0.23309774E+03</totfact>
</mgrwt>
</event>
<event>
 5    1  0.3300771E-002  0.1250190E+03  0.7818608E-02  0.1235040E+00
          4   -1    0    0  501    0  0.00000000000E+00  0.00000000000E+00  0.32777424068E+03  0.32777670105E+03  0.12700000000E+01 0. -1.
         -4   -1    0    0    0  501 -0.00000000000E+00 -0.00000000000E+00 -0.11884782206E+02  0.11952445277E+02  0.12700000000E+01 0. -1.
         25    2    1    2    0    0  0.00000000000E+00  0.00000000000E+00  0.31588945847E+03  0.33972914633E+03  0.12501897013E+03 0.  0.
    9000005    1    3    3    0    0 -0.60660567691E+02 -0.13195996616E+02  0.17765248003E+03  0.18818937925E+03  0.10000000000E+01 0.  0.
    9000005    1    3    3    0    0  0.60660567691E+02  0.13195996616E+02  0.13823697844E+03  0.15153976708E+03  0.10000000000E+01 0.  0.
<mgrwt>
<rscale>  0 0.12501897E+03</rscale>
<asrwt>0</asrwt>
<pdfrwt beam="1">  1        4 0.50432202E-01 0.12501897E+03</pdfrwt>
<pdfrwt beam="2">  1       -4 0.18338221E-02 0.12501897E+03</pdfrwt>
<totfact> 0.70839690E+03</totfact>
</mgrwt>
</event>
<event>
 5    1  0.3300771E-002  0.1250079E+03  0.7818608E-02  0.1235057E+00
          4   -1    0    0  501    0  0.00000000000E+00  0.00000000000E+00  0.19971906172E+03  0.19972309960E+03  0.12700000000E+01 0.  1.
         -4   -1    0    0    0  501 -0.00000000000E+00 -0.00000000000E+00 -0.19536334683E+02  0.19577570658E+02  0.12700000000E+01 0.  1.
         25    2    1    2    0    0  0.00000000000E+00  0.00000000000E+00  0.18018272704E+03  0.21930067026E+03  0.12500787517E+03 0.  0.
    9000005    1    3    3    0    0  0.41806116036E+02  0.42870276710E+02  0.58703197372E+02  0.83861059765E+02  0.10000000000E+01 0.  0.
    9000005    1    3    3    0    0 -0.41806116036E+02 -0.42870276710E+02  0.12147952967E+03  0.13543961050E+03  0.10000000000E+01 0.  0.
<mgrwt>
<rscale>  0 0.12500788E+03</rscale>
<asrwt>0</asrwt>
<pdfrwt beam="1">  1        4 0.30729493E-01 0.12500788E+03</pdfrwt>
<pdfrwt beam="2">  1       -4 0.30090724E-02 0.12500788E+03</pdfrwt>
<totfact> 0.86963829E+03</totfact>
</mgrwt>
</event>
<event>
 5    1  0.3300771E-002  0.1250109E+03  0.7818608E-02  0.1235052E+00
          4   -1    0    0  501    0  0.00000000000E+00  0.00000000000E+00  0.12253548053E+01  0.17647646866E+01  0.12700000000E+01 0. -1.
         -4   -1    0    0    0  501 -0.00000000000E+00 -0.00000000000E+00 -0.26126882784E+04  0.26126885871E+04  0.12700000000E+01 0. -1.
         25    2    1    2    0    0  0.00000000000E+00  0.00000000000E+00 -0.26114629236E+04  0.26144533517E+04  0.12501090826E+03 0.  0.
    9000005    1    3    3    0    0  0.50663897281E+02 -0.35269223352E+02 -0.11016924927E+04  0.11034210879E+04  0.10000000000E+01 0.  0.
    9000005    1    3    3    0    0 -0.50663897281E+02  0.35269223352E+02 -0.15097704308E+04  0.15110322639E+04  0.10000000000E+01 0.  0.
<mgrwt>
<rscale>  0 0.12501091E+03</rscale>
<asrwt>0</asrwt>
<pdfrwt beam="1">  1        4 0.23003503E-03 0.12501091E+03</pdfrwt>
<pdfrwt beam="2">  1       -4 0.40198991E+00 0.12501091E+03</pdfrwt>
<totfact> 0.38305023E+02</totfact>
</mgrwt>
</event>
<event>
 5    1  0.3300771E-002  0.1250103E+03  0.7818608E-02  0.1235053E+00
          4   -1    0    0  501    0  0.00000000000E+00  0.00000000000E+00  0.73240529476E+03  0.73240639586E+03  0.12700000000E+01 0.  1.
         -4   -1    0    0    0  501 -0.00000000000E+00 -0.00000000000E+00 -0.52576230917E+01  0.54088354176E+01  0.12700000000E+01 0.  1.
         25    2    1    2    0    0  0.00000000000E+00  0.00000000000E+00  0.72714767167E+03  0.73781523127E+03  0.12501031593E+03 0.  0.
    9000005    1    3    3    0    0 -0.29905312612E+02 -0.46653167831E+02  0.19302147362E+03  0.20082115195E+03  0.10000000000E+01 0.  0.
    9000005    1    3    3    0    0  0.29905312612E+02  0.46653167831E+02  0.53412619805E+03  0.53699407932E+03  0.10000000000E+01 0.  0.
<mgrwt>
<rscale>  0 0.12501032E+03</rscale>
<asrwt>0</asrwt>
<pdfrwt beam="1">  1        4 0.11268952E+00 0.12501032E+03</pdfrwt>
<pdfrwt beam="2">  1       -4 0.82058102E-03 0.12501032E+03</pdfrwt>
<totfact> 0.41154520E+03</totfact>
</mgrwt>
</event>
<event>
 5    1  0.3300771E-002  0.1250058E+03  0.7818608E-02  0.1235060E+00
         -4   -1    0    0    0  501 -0.00000000000E+00  0.00000000000E+00  0.57393097680E+02  0.57407147302E+02  0.12700000000E+01 0.  1.
          4   -1    0    0  501    0  0.00000000000E+00 -0.00000000000E+00 -0.68039375478E+02  0.68051227141E+02  0.12700000000E+01 0.  1.
         25    2    1    2    0    0  0.00000000000E+00  0.00000000000E+00 -0.10646277798E+02  0.12545837444E+03  0.12500584181E+03 0.  0.
    9000005    1    3    3    0    0  0.49059836612E+02  0.33979405188E+02  0.13295233162E+02  0.61149249956E+02  0.10000000000E+01 0.  0.
    9000005    1    3    3    0    0 -0.49059836612E+02 -0.33979405188E+02 -0.23941510959E+02  0.64309124488E+02  0.10000000000E+01 0.  0.
<mgrwt>
<rscale>  0 0.12500584E+03</rscale>
<asrwt>0</asrwt>
<pdfrwt beam="2">  1        4 0.10469589E-01 0.12500584E+03</pdfrwt>
<pdfrwt beam="1">  1       -4 0.88316997E-02 0.12500584E+03</pdfrwt>
<totfact> 0.10441499E+04</totfact>
</mgrwt>
</event>
<event>
 5    1  0.3300771E-002  0.1249938E+03  0.7818608E-02  0.1235079E+00
          4   -1    0    0  501    0  0.00000000000E+00  0.00000000000E+00  0.60489732658E+02  0.60503063204E+02  0.12700000000E+01 0.  1.
         -4   -1    0    0    0  501 -0.00000000000E+00 -0.00000000000E+00 -0.64544021566E+02  0.64556514930E+02  0.12700000000E+01 0.  1.
         25    2    1    2    0    0  0.00000000000E+00  0.00000000000E+00 -0.40542889082E+01  0.12505957813E+03  0.12499384315E+03 0.  0.
    9000005    1    3    3    0    0  0.71078362547E+01 -0.27005396831E+02  0.53904423042E+02  0.60716551432E+02  0.10000000000E+01 0.  0.
    9000005    1    3    3    0    0 -0.71078362547E+01  0.27005396831E+02 -0.57958711951E+02  0.64343026702E+02  0.10000000000E+01 0.  0.
<mgrwt>
<rscale>  0 0.12499384E+03</rscale>
<asrwt>0</asrwt>
<pdfrwt beam="1">  1        4 0.93080992E-02 0.12499384E+03</pdfrwt>
<pdfrwt beam="2">  1       -4 0.99318359E-02 0.12499384E+03</pdfrwt>
<totfact> 0.10453023E+04</totfact>
</mgrwt>
</event>
<event>
 5    1  0.3300771E-002  0.1250006E+03  0.7818608E-02  0.1235068E+00
         -4   -1    0    0    0  501 -0.00000000000E+00  0.00000000000E+00  0.15801504430E+02  0.15852458556E+02  0.12700000000E+01 0. -1.
          4   -1    0    0  501    0  0.00000000000E+00 -0.00000000000E+00 -0.24675916259E+03  0.24676243074E+03  0.12700000000E+01 0. -1.
         25    2    1    2    0    0  0.00000000000E+00  0.00000000000E+00 -0.23095765816E+03  0.26261488929E+03  0.12500056086E+03 0.  0.
    9000005    1    3    3    0    0 -0.50693545479E+02  0.35950893840E+02 -0.10170500937E+03  0.11919400678E+03  0.10000000000E+01 0.  0.
    9000005    1    3    3    0    0  0.50693545479E+02 -0.35950893840E+02 -0.12925264880E+03  0.14342088252E+03  0.10000000000E+01 0.  0.
<mgrwt>
<rscale>  0 0.12500056E+03</rscale>
<asrwt>0</asrwt>
<pdfrwt beam="2">  1        4 0.37967116E-01 0.12500056E+03</pdfrwt>
<pdfrwt beam="1">  1       -4 0.24351718E-02 0.12500056E+03</pdfrwt>
<totfact> 0.80539489E+03</totfact>
</mgrwt>
</event>
<event>
 5    1  0.3300771E-002  0.1250010E+03  0.7818608E-02  0.1235068E+00
          4   -1    0    0  501    0  0.00000000000E+00  0.00000000000E+00  0.75914781711E+02  0.75925404064E+02  0.12700000000E+01 0. -1.
         -4   -1    0    0    0  501 -0.00000000000E+00 -0.00000000000E+00 -0.51434515623E+02  0.51450192394E+02  0.12700000000E+01 0. -1.
         25    2    1    2    0    0  0.00000000000E+00  0.00000000000E+00  0.24480266088E+02  0.12737559646E+03  0.12500103658E+03 0.  0.
    9000005    1    3    3    0    0 -0.27278626592E+02 -0.19695092484E+02 -0.41422332563E+02  0.53374429943E+02  0.10000000000E+01 0.  0.
    9000005    1    3    3    0    0  0.27278626592E+02  0.19695092484E+02  0.65902598651E+02  0.74001166516E+02  0.10000000000E+01 0.  0.
<mgrwt>
<rscale>  0 0.12500104E+03</rscale>
<asrwt>0</asrwt>
<pdfrwt beam="1">  1        4 0.11681220E-01 0.12500104E+03</pdfrwt>
<pdfrwt beam="2">  1       -4 0.79150255E-02 0.12500104E+03</pdfrwt>
<totfact> 0.10400752E+04</totfact>
</mgrwt>
</event>
<event>
 5    1  0.3300771E-002  0.1250028E+03  0.7818608E-02  0.1235065E+00
         -4   -1    0    0    0  501 -0.00000000000E+00  0.00000000000E+00  0.66260367422E+02  0.66272537230E+02  0.12700000000E+01 0.  1.
          4   -1    0    0  501    0  0.00000000000E+00 -0.00000000000E+00 -0.58931217008E+02  0.58944900018E+02  0.12700000000E+01 0.  1.
         25    2    1    2    0    0  0.00000000000E+00  0.00000000000E+00  0.73291504141E+01  0.12521743725E+03  0.12500276055E+03 0.  0.
    9000005    1    3    3    0    0  0.46916718336E+02 -0.94089281558E+01  0.43929578577E+02  0.64965485162E+02  0.10000000000E+01 0.  0.
    9000005    1    3    3    0    0 -0.46916718336E+02  0.94089281558E+01 -0.36600428163E+02  0.60251952086E+02  0.10000000000E+01 0.  0.
<mgrwt>
<rscale>  0 0.12500276E+03</rscale>
<asrwt>0</asrwt>
<pdfrwt beam="2">  1        4 0.90683298E-02 0.12500276E+03</pdfrwt>
<pdfrwt beam="1">  1       -4 0.10195891E-01 0.12500276E+03</pdfrwt>
<totfact> 0.10447490E+04</totfact>
</mgrwt>
</event>
<event>
 5    1  0.3300771E-002  0.1250013E+03  0.7818608E-02  0.1235067E+00
         -4   -1    0    0    0  501 -0.00000000000E+00  0.00000000000E+00  0.26761923957E+01  0.29622467383E+01  0.12700000000E+01 0.  1.
          4   -1    0    0  501    0  0.00000000000E+00 -0.00000000000E+00 -0.13853210153E+04  0.13853215974E+04  0.12700000000E+01 0.  1.
         25    2    1    2    0    0  0.00000000000E+00  0.00000000000E+00 -0.13826448229E+04  0.13882838441E+04  0.12500130279E+03 0.  0.
    9000005    1    3    3    0    0 -0.29187758885E+02  0.37514151078E+02 -0.24072247227E+03  0.24537225894E+03  0.10000000000E+01 0.  0.
    9000005    1    3    3    0    0  0.29187758885E+02 -0.37514151078E+02 -0.11419223506E+04  0.11429115852E+04  0.10000000000E+01 0.  0.
<mgrwt>
<rscale>  0 0.12500130E+03</rscale>
<asrwt>0</asrwt>
<pdfrwt beam="2">  1        4 0.21314782E+00 0.12500130E+03</pdfrwt>
<pdfrwt beam="1">  1       -4 0.43377197E-03 0.12500130E+03</pdfrwt>
<totfact> 0.20233250E+03</totfact>
</mgrwt>
</event>
<event>
 5    1  0.3300771E-002  0.1249945E+03  0.7818608E-02  0.1235078E+00
          4   -1    0    0  501    0  0.00000000000E+00  0.00000000000E+00  0.15463267703E+01  0.20010063670E+01  0.12700000000E+01 0.  1.
         -4   -1    0    0    0  501 -0.00000000000E+00 -0.00000000000E+00 -0.22017110333E+04  0.22017113995E+04  0.12700000000E+01 0.  1.
         25    2    1    2    0    0  0.00000000000E+00  0.00000000000E+00 -0.22001647065E+04  0.22037124059E+04  0.12499452900E+03 0.  0.
    9000005    1    3    3    0    0  0.32086252091E+02 -0.42551829955E+02 -0.16753660678E+04  0.16762137832E+04  0.10000000000E+01 0.  0.
    9000005    1    3    3    0    0 -0.32086252091E+02  0.42551829955E+02 -0.52479863866E+03  0.52749862270E+03  0.10000000000E+01 0.  0.
<mgrwt>
<rscale>  0 0.12499453E+03</rscale>
<asrwt>0</asrwt>
<pdfrwt beam="1">  1        4 0.27290172E-03 0.12499453E+03</pdfrwt>
<pdfrwt beam="2">  1       -4 0.33875759E+00 0.12499453E+03</pdfrwt>
<totfact> 0.74322904E+02</totfact>
</mgrwt>
</event>
<event>
 5    1  0.3300771E-002  0.1249993E+03  0.7818608E-02  0.1235070E+00
         -4   -1    0    0    0  501 -0.00000000000E+00  0.00000000000E+00  0.41915295631E+03  0.41915488031E+03  0.12700000000E+01 0.  1.
          4   -1    0    0  501    0  0.00000000000E+00 -0.00000000000E+00 -0.92740578475E+01  0.93606115697E+01  0.12700000000E+01 0.  1.
         25    2    1    2    0    0  0.00000000000E+00  0.00000000000E+00  0.40987889847E+03  0.42851549188E+03  0.12499926149E+03 0.  0.
    9000005    1    3    3    0    0  0.30315476572E+02 -0.85878741154E+01  0.19933203028E+02  0.37297617680E+02  0.10000000000E+01 0.  0.
    9000005    1    3    3    0    0 -0.30315476572E+02  0.85878741154E+01  0.38994569544E+03  0.39121787420E+03  0.10000000000E+01 0.  0.
<mgrwt>
<rscale>  0 0.12499926E+03</rscale>
<asrwt>0</asrwt>
<pdfrwt beam="2">  1        4 0.14335846E-02 0.12499926E+03</pdfrwt>
<pdfrwt beam="1">  1       -4 0.64491856E-01 0.12499926E+03</pdfrwt>
<totfact> 0.61871801E+03</totfact>
</mgrwt>
</event>
<event>
 5    1  0.3300771E-002  0.1249938E+03  0.7818608E-02  0.1235079E+00
         -4   -1    0    0    0  501 -0.00000000000E+00  0.00000000000E+00  0.32352862372E+02  0.32377779474E+02  0.12700000000E+01 0. -1.
          4   -1    0    0  501    0  0.00000000000E+00 -0.00000000000E+00 -0.12065220355E+03  0.12065888745E+03  0.12700000000E+01 0. -1.
         25    2    1    2    0    0  0.00000000000E+00  0.00000000000E+00 -0.88299341178E+02  0.15303666693E+03  0.12499379093E+03 0.  0.
    9000005    1    3    3    0    0  0.58252180340E+01 -0.48793181414E+02  0.31134799035E+01  0.49248365199E+02  0.10000000000E+01 0.  0.
    9000005    1    3    3    0    0 -0.58252180340E+01  0.48793181414E+02 -0.91412821082E+02  0.10378830173E+03  0.10000000000E+01 0.  0.
<mgrwt>
<rscale>  0 0.12499379E+03</rscale>
<asrwt>0</asrwt>
<pdfrwt beam="2">  1        4 0.18564308E-01 0.12499379E+03</pdfrwt>
<pdfrwt beam="1">  1       -4 0.49797943E-02 0.12499379E+03</pdfrwt>
<totfact> 0.98715581E+03</totfact>
</mgrwt>
</event>
<event>
 5    1  0.3300771E-002  0.1249997E+03  0.7818608E-02  0.1235070E+00
         -4   -1    0    0    0  501 -0.00000000000E+00  0.00000000000E+00  0.37018178664E+03  0.37018396516E+03  0.12700000000E+01 0. -1.
          4   -1    0    0  501    0  0.00000000000E+00 -0.00000000000E+00 -0.10511759007E+02  0.10588199914E+02  0.12700000000E+01 0. -1.
         25    2    1    2    0    0  0.00000000000E+00  0.00000000000E+00  0.35967002763E+03  0.38077216507E+03  0.12499965167E+03 0.  0.
    9000005    1    3    3    0    0  0.57476392564E+02  0.17352870498E+02  0.12702339205E+03  0.14050124535E+03  0.10000000000E+01 0.  0.
    9000005    1    3    3    0    0 -0.57476392564E+02 -0.17352870498E+02  0.23264663559E+03  0.24027091973E+03  0.10000000000E+01 0.  0.
<mgrwt>
<rscale>  0 0.12499965E+03</rscale>
<asrwt>0</asrwt>
<pdfrwt beam="2">  1        4 0.16232416E-02 0.12499965E+03</pdfrwt>
<pdfrwt beam="1">  1       -4 0.56957083E-01 0.12499965E+03</pdfrwt>
<totfact> 0.66467339E+03</totfact>
</mgrwt>
</event>
<event>
 5    1  0.3300771E-002  0.1250119E+03  0.7818608E-02  0.1235051E+00
         -4   -1    0    0    0  501 -0.00000000000E+00  0.00000000000E+00  0.28720474833E+02  0.28748540391E+02  0.12700000000E+01 0. -1.
          4   -1    0    0  501    0  0.00000000000E+00 -0.00000000000E+00 -0.13593774622E+03  0.13594367859E+03  0.12700000000E+01 0. -1.
         25    2    1    2    0    0  0.00000000000E+00  0.00000000000E+00 -0.10721727139E+03  0.16469221898E+03  0.12501193426E+03 0.  0.
    9000005    1    3    3    0    0 -0.24518928404E+02  0.55837247903E+02 -0.71624928340E+02  0.94075004455E+02  0.10000000000E+01 0.  0.
    9000005    1    3    3    0    0  0.24518928404E+02 -0.55837247903E+02 -0.35592343049E+02  0.70617214524E+02  0.10000000000E+01 0.  0.
<mgrwt>
<rscale>  0 0.12501193E+03</rscale>
<asrwt>0</asrwt>
<pdfrwt beam="2">  1        4 0.20916114E-01 0.12501193E+03</pdfrwt>
<pdfrwt beam="1">  1       -4 0.44211499E-02 0.12501193E+03</pdfrwt>
<totfact> 0.96419859E+03</totfact>
</mgrwt>
</event>
<event>
 5    1  0.3300771E-002  0.1249919E+03  0.7818608E-02  0.1235082E+00
         -4   -1    0    0    0  501 -0.00000000000E+00  0.00000000000E+00  0.19436407891E+02  0.19477855418E+02  0.12700000000E+01 0. -1.
          4   -1    0    0  501    0  0.00000000000E+00 -0.00000000000E+00 -0.20069242062E+03  0.20069643892E+03  0.12700000000E+01 0. -1.
         25    2    1    2    0    0  0.00000000000E+00  0.00000000000E+00 -0.18125601273E+03  0.22017429434E+03  0.12499191068E+03 0.  0.
    9000005    1    3    3    0    0  0.50679781323E+02 -0.32400349894E+02 -0.60811048352E+02  0.85540671671E+02  0.10000000000E+01 0.  0.
    9000005    1    3    3    0    0 -0.50679781323E+02  0.32400349894E+02 -0.12044496438E+03  0.13463362267E+03  0.10000000000E+01 0.  0.
<mgrwt>
<rscale>  0 0.12499191E+03</rscale>
<asrwt>0</asrwt>
<pdfrwt beam="2">  1        4 0.30879253E-01 0.12499191E+03</pdfrwt>
<pdfrwt beam="1">  1       -4 0.29937141E-02 0.12499191E+03</pdfrwt>
<totfact> 0.86856471E+03</totfact>
</mgrwt>
</event>
<event>
 5    1  0.3300771E-002  0.1249981E+03  0.7818608E-02  0.1235072E+00
         -4   -1    0    0    0  501 -0.00000000000E+00  0.00000000000E+00  0.32530378859E+03  0.32530626764E+03  0.12700000000E+01 0.  1.
          4   -1    0    0  501    0  0.00000000000E+00 -0.00000000000E+00 -0.11971535256E+02  0.12038710745E+02  0.12700000000E+01 0.  1.
         25    2    1    2    0    0  0.00000000000E+00  0.00000000000E+00  0.31333225333E+03  0.33734497839E+03  0.12499813386E+03 0.  0.
    9000005    1    3    3    0    0 -0.17893782360E+02 -0.43775417393E+02  0.46422247667E+02  0.66275936007E+02  0.10000000000E+01 0.  0.
    9000005    1    3    3    0    0  0.17893782360E+02  0.43775417393E+02  0.26691000566E+03  0.27106904238E+03  0.10000000000E+01 0.  0.
<mgrwt>
<rscale>  0 0.12499813E+03</rscale>
<asrwt>0</asrwt>
<pdfrwt beam="2">  1        4 0.18471327E-02 0.12499813E+03</pdfrwt>
<pdfrwt beam="1">  1       -4 0.50052095E-01 0.12499813E+03</pdfrwt>
<totfact> 0.71142512E+03</totfact>
</mgrwt>
</event>
<event>
 5    1  0.3300771E-002  0.1250128E+03  0.7818608E-02  0.1235049E+00
         -4   -1    0    0    0  501 -0.00000000000E+00  0.00000000000E+00  0.27096302155E+03  0.27096599777E+03  0.12700000000E+01 0.  1.
          4   -1    0    0  501    0  0.00000000000E+00 -0.00000000000E+00 -0.14388111518E+02  0.14444052514E+02  0.12700000000E+01 0.  1.
         25    2    1    2    0    0  0.00000000000E+00  0.00000000000E+00  0.25657491003E+03  0.28541005028E+03  0.12501284872E+03 0.  0.
    9000005    1    3    3    0    0 -0.33286545533E+02 -0.52768770430E+02  0.13668082048E+03  0.15025040410E+03  0.10000000000E+01 0.  0.
    9000005    1    3    3    0    0  0.33286545533E+02  0.52768770430E+02  0.11989408955E+03  0.13515964618E+03  0.10000000000E+01 0.  0.
<mgrwt>
<rscale>  0 0.12501285E+03</rscale>
<asrwt>0</asrwt>
<pdfrwt beam="2">  1        4 0.22180879E-02 0.12501285E+03</pdfrwt>
<pdfrwt beam="1">  1       -4 0.41691146E-01 0.12501285E+03</pdfrwt>
<totfact> 0.77444087E+03</totfact>
</mgrwt>
</event>
<event>
 5    1  0.3300771E-002  0.1250000E+03  0.7818608E-02  0.1235069E+00
          4   -1    0    0  501    0  0.00000000000E+00  0.00000000000E+00  0.74672463090E+01  0.75744747303E+01  0.12700000000E+01 0.  1.
         -4   -1    0    0    0  501 -0.00000000000E+00 -0.00000000000E+00 -0.51928038462E+03  0.51928193763E+03  0.12700000000E+01 0.  1.
         25    2    1    2    0    0  0.00000000000E+00  0.00000000000E+00 -0.51181313831E+03  0.52685641236E+03  0.12499996280E+03 0.  0.
    9000005    1    3    3    0    0 -0.17011190387E+02 -0.60079455123E+02 -0.24530544104E+03  0.25312977093E+03  0.10000000000E+01 0.  0.
    9000005    1    3    3    0    0  0.17011190387E+02  0.60079455123E+02 -0.26650769727E+03  0.27372664144E+03  0.10000000000E+01 0.  0.
<mgrwt>
<rscale>  0 0.12499996E+03</rscale>
<asrwt>0</asrwt>
<pdfrwt beam="1">  1        4 0.11571753E-02 0.12499996E+03</pdfrwt>
<pdfrwt beam="2">  1       -4 0.79897630E-01 0.12499996E+03</pdfrwt>
<totfact> 0.53839286E+03</totfact>
</mgrwt>
</event>
<event>
 5    1  0.3300771E-002  0.1250079E+03  0.7818608E-02  0.1235057E+00
         -4   -1    0    0    0  501 -0.00000000000E+00  0.00000000000E+00  0.54297902586E+01  0.55763359164E+01  0.12700000000E+01 0. -1.
          4   -1    0    0  501    0  0.00000000000E+00 -0.00000000000E+00 -0.70977416530E+03  0.70977530150E+03  0.12700000000E+01 0. -1.
         25    2    1    2    0    0  0.00000000000E+00  0.00000000000E+00 -0.70434437504E+03  0.71535163742E+03  0.12500786579E+03 0.  0.
    9000005    1    3    3    0    0  0.39916563144E+02  0.13608532502E+02 -0.61610183585E+03  0.61754432740E+03  0.10000000000E+01 0.  0.
    9000005    1    3    3    0    0 -0.39916563144E+02 -0.13608532502E+02 -0.88242539188E+02  0.97807310016E+02  0.10000000000E+01 0.  0.
<mgrwt>
<rscale>  0 0.12500787E+03</rscale>
<asrwt>0</asrwt>
<pdfrwt beam="2">  1        4 0.10920731E+00 0.12500787E+03</pdfrwt>
<pdfrwt beam="1">  1       -4 0.84671305E-03 0.12500787E+03</pdfrwt>
<totfact> 0.42281345E+03</totfact>
</mgrwt>
</event>
<event>
 5    1  0.3300771E-002  0.1249940E+03  0.7818608E-02  0.1235079E+00
          4   -1    0    0  501    0  0.00000000000E+00  0.00000000000E+00  0.48943307642E+02  0.48959782097E+02  0.12700000000E+01 0.  1.
         -4   -1    0    0    0  501 -0.00000000000E+00 -0.00000000000E+00 -0.79769139486E+02  0.79779248645E+02  0.12700000000E+01 0.  1.
         25    2    1    2    0    0  0.00000000000E+00  0.00000000000E+00 -0.30825831844E+02  0.12873903074E+03  0.12499402437E+03 0.  0.
    9000005    1    3    3    0    0 -0.43262552543E+02  0.32593366166E+01 -0.61733763899E+02  0.75460780097E+02  0.10000000000E+01 0.  0.
    9000005    1    3    3    0    0  0.43262552543E+02 -0.32593366166E+01  0.30907932056E+02  0.53278250644E+02  0.10000000000E+01 0.  0.
<mgrwt>
<rscale>  0 0.12499402E+03</rscale>
<asrwt>0</asrwt>
<pdfrwt beam="1">  1        4 0.75317845E-02 0.12499402E+03</pdfrwt>
<pdfrwt beam="2">  1       -4 0.12274220E-01 0.12499402E+03</pdfrwt>
<totfact> 0.10372957E+04</totfact>
</mgrwt>
</event>
<event>
 5    1  0.3300771E-002  0.1249904E+03  0.7818608E-02  0.1235084E+00
         -4   -1    0    0    0  501 -0.00000000000E+00  0.00000000000E+00  0.49185311193E+02  0.49201704616E+02  0.12700000000E+01 0. -1.
          4   -1    0    0  501    0  0.00000000000E+00 -0.00000000000E+00 -0.79372185573E+02  0.79382345283E+02  0.12700000000E+01 0. -1.
         25    2    1    2    0    0  0.00000000000E+00  0.00000000000E+00 -0.30186874380E+02  0.12858404990E+03  0.12499044165E+03 0.  0.
    9000005    1    3    3    0    0 -0.41810094157E+02 -0.38465478598E+02 -0.41860259033E+02  0.70575904553E+02  0.10000000000E+01 0.  0.
    9000005    1    3    3    0    0  0.41810094157E+02  0.38465478598E+02  0.11673384653E+02  0.58008145346E+02  0.10000000000E+01 0.  0.
<mgrwt>
<rscale>  0 0.12499044E+03</rscale>
<asrwt>0</asrwt>
<pdfrwt beam="2">  1        4 0.12213148E-01 0.12499044E+03</pdfrwt>
<pdfrwt beam="1">  1       -4 0.75690135E-02 0.12499044E+03</pdfrwt>
<totfact> 0.10377133E+04</totfact>
</mgrwt>
</event>
<event>
 5    1  0.3300771E-002  0.1250003E+03  0.7818608E-02  0.1235069E+00
          4   -1    0    0  501    0  0.00000000000E+00  0.00000000000E+00  0.34328172767E+01  0.36602096190E+01  0.12700000000E+01 0. -1.
         -4   -1    0    0    0  501 -0.00000000000E+00 -0.00000000000E+00 -0.11012114427E+04  0.11012121750E+04  0.12700000000E+01 0. -1.
         25    2    1    2    0    0  0.00000000000E+00  0.00000000000E+00 -0.10977786254E+04  0.11048723847E+04  0.12500030369E+03 0.  0.
    9000005    1    3    3    0    0  0.12785042961E+02  0.59023372462E+02 -0.69087862049E+03  0.69351386726E+03  0.10000000000E+01 0.  0.
    9000005    1    3    3    0    0 -0.12785042961E+02 -0.59023372462E+02 -0.40690000495E+03  0.41135851741E+03  0.10000000000E+01 0.  0.
<mgrwt>
<rscale>  0 0.12500030E+03</rscale>
<asrwt>0</asrwt>
<pdfrwt beam="1">  1        4 0.54567466E-03 0.12500030E+03</pdfrwt>
<pdfrwt beam="2">  1       -4 0.16943442E+00 0.12500030E+03</pdfrwt>
<totfact> 0.27341097E+03</totfact>
</mgrwt>
</event>
<event>
 5    1  0.3300771E-002  0.1250007E+03  0.7818608E-02  0.1235068E+00
          4   -1    0    0  501    0  0.00000000000E+00  0.00000000000E+00  0.30368410927E+02  0.30394954882E+02  0.12700000000E+01 0.  1.
         -4   -1    0    0    0  501 -0.00000000000E+00 -0.00000000000E+00 -0.12854425890E+03  0.12855053247E+03  0.12700000000E+01 0.  1.
         25    2    1    2    0    0  0.00000000000E+00  0.00000000000E+00 -0.98175847977E+02  0.15894548735E+03  0.12500068329E+03 0.  0.
    9000005    1    3    3    0    0 -0.38648859477E+02  0.48272285830E+02 -0.60556267154E+02  0.86556394389E+02  0.10000000000E+01 0.  0.
    9000005    1    3    3    0    0  0.38648859477E+02 -0.48272285830E+02 -0.37619580824E+02  0.72389092959E+02  0.10000000000E+01 0.  0.
<mgrwt>
<rscale>  0 0.12500068E+03</rscale>
<asrwt>0</asrwt>
<pdfrwt beam="1">  1        4 0.46745877E-02 0.12500068E+03</pdfrwt>
<pdfrwt beam="2">  1       -4 0.19778564E-01 0.12500068E+03</pdfrwt>
<totfact> 0.97544974E+03</totfact>
</mgrwt>
</event>
<event>
 5    1  0.3300771E-002  0.1249972E+03  0.7818608E-02  0.1235074E+00
         -4   -1    0    0    0  501 -0.00000000000E+00  0.00000000000E+00  0.14256950456E+03  0.14257516099E+03  0.12700000000E+01 0.  1.
          4   -1    0    0  501    0  0.00000000000E+00 -0.00000000000E+00 -0.27376757606E+02  0.27406199244E+02  0.12700000000E+01 0.  1.
         25    2    1    2    0    0  0.00000000000E+00  0.00000000000E+00  0.11519274695E+03  0.16998136023E+03  0.12499717547E+03 0.  0.
    9000005    1    3    3    0    0 -0.20238363652E+02  0.20201033767E+02 -0.17964605249E+02  0.33784614402E+02  0.10000000000E+01 0.  0.
    9000005    1    3    3    0    0  0.20238363652E+02 -0.20201033767E+02  0.13315735220E+03  0.13619674583E+03  0.10000000000E+01 0.  0.
<mgrwt>
<rscale>  0 0.12499718E+03</rscale>
<asrwt>0</asrwt>
<pdfrwt beam="2">  1        4 0.42145088E-02 0.12499718E+03</pdfrwt>
<pdfrwt beam="1">  1       -4 0.21936469E-01 0.12499718E+03</pdfrwt>
<totfact> 0.95458163E+03</totfact>
</mgrwt>
</event>
<event>
 5    1  0.3300771E-002  0.1250020E+03  0.7818608E-02  0.1235066E+00
          4   -1    0    0  501    0  0.00000000000E+00  0.00000000000E+00  0.41553747169E+03  0.41553941242E+03  0.12700000000E+01 0.  1.
         -4   -1    0    0    0  501 -0.00000000000E+00 -0.00000000000E+00 -0.93559124755E+01  0.94417158530E+01  0.12700000000E+01 0.  1.
         25    2    1    2    0    0  0.00000000000E+00  0.00000000000E+00  0.40618155921E+03  0.42498112828E+03  0.12500200137E+03 0.  0.
    9000005    1    3    3    0    0  0.93137300071E+01 -0.35419980362E+02  0.30937101589E+02  0.47952318299E+02  0.10000000000E+01 0.  0.
    9000005    1    3    3    0    0 -0.93137300071E+01  0.35419980362E+02  0.37524445763E+03  0.37702880998E+03  0.10000000000E+01 0.  0.
<mgrwt>
<rscale>  0 0.12500200E+03</rscale>
<asrwt>0</asrwt>
<pdfrwt beam="1">  1        4 0.63935591E-01 0.12500200E+03</pdfrwt>
<pdfrwt beam="2">  1       -4 0.14461207E-02 0.12500200E+03</pdfrwt>
<totfact> 0.62190824E+03</totfact>
</mgrwt>
</event>
<event>
 5    1  0.3300771E-002  0.1250049E+03  0.7818608E-02  0.1235062E+00
          4   -1    0    0  501    0  0.00000000000E+00  0.00000000000E+00  0.14549954450E+02  0.14605275571E+02  0.12700000000E+01 0. -1.
         -4   -1    0    0    0  501 -0.00000000000E+00 -0.00000000000E+00 -0.26792640200E+03  0.26792941195E+03  0.12700000000E+01 0. -1.
         25    2    1    2    0    0  0.00000000000E+00  0.00000000000E+00 -0.25337644755E+03  0.28253468752E+03  0.12500490182E+03 0.  0.
    9000005    1    3    3    0    0 -0.28645109595E+02  0.44574418201E+02 -0.20158664431E+03  0.20843607228E+03  0.10000000000E+01 0.  0.
    9000005    1    3    3    0    0  0.28645109595E+02 -0.44574418201E+02 -0.51789803238E+02  0.74098615244E+02  0.10000000000E+01 0.  0.
<mgrwt>
<rscale>  0 0.12500490E+03</rscale>
<asrwt>0</asrwt>
<pdfrwt beam="1">  1        4 0.22429417E-02 0.12500490E+03</pdfrwt>
<pdfrwt beam="2">  1       -4 0.41223930E-01 0.12500490E+03</pdfrwt>
<totfact> 0.77834742E+03</totfact>
</mgrwt>
</event>
<event>
 5    1  0.3300771E-002  0.1249995E+03  0.7818608E-02  0.1235070E+00
         -4   -1    0    0    0  501 -0.00000000000E+00  0.00000000000E+00  0.17514600824E+02  0.17560584900E+02  0.12700000000E+01 0. -1.
          4   -1    0    0  501    0  0.00000000000E+00 -0.00000000000E+00 -0.22268617597E+03  0.22268979741E+03  0.12700000000E+01 0. -1.
         25    2    1    2    0    0  0.00000000000E+00  0.00000000000E+00 -0.20517157515E+03  0.24025038231E+03  0.12499948380E+03 0.  0.
    9000005    1    3    3    0    0 -0.54703631171E+02 -0.13178756399E+02 -0.15483659783E+03  0.16474689348E+03  0.10000000000E+01 0.  0.
    9000005    1    3    3    0    0  0.54703631171E+02  0.13178756399E+02 -0.50334977320E+02  0.75503488829E+02  0.10000000000E+01 0.  0.
<mgrwt>
<rscale>  0 0.12499948E+03</rscale>
<asrwt>0</asrwt>
<pdfrwt beam="2">  1        4 0.34263225E-01 0.12499948E+03</pdfrwt>
<pdfrwt beam="1">  1       -4 0.26983699E-02 0.12499948E+03</pdfrwt>
<totfact> 0.83761056E+03</totfact>
</mgrwt>
</event>
<event>
 5    1  0.3300771E-002  0.1249998E+03  0.7818608E-02  0.1235070E+00
          4   -1    0    0  501    0  0.00000000000E+00  0.00000000000E+00  0.27159452833E+02  0.27189129780E+02  0.12700000000E+01 0.  1.
         -4   -1    0    0    0  501 -0.00000000000E+00 -0.00000000000E+00 -0.14371497044E+03  0.14372058179E+03  0.12700000000E+01 0.  1.
         25    2    1    2    0    0  0.00000000000E+00  0.00000000000E+00 -0.11655551761E+03  0.17090971157E+03  0.12499976329E+03 0.  0.
    9000005    1    3    3    0    0 -0.36207924160E+02  0.30474496308E+02 -0.11407764655E+03  0.12350877759E+03  0.10000000000E+01 0.  0.
    9000005    1    3    3    0    0  0.36207924160E+02 -0.30474496308E+02 -0.24778710529E+01  0.47400933980E+02  0.10000000000E+01 0.  0.
<mgrwt>
<rscale>  0 0.12499976E+03</rscale>
<asrwt>0</asrwt>
<pdfrwt beam="1">  1        4 0.41810919E-02 0.12499976E+03</pdfrwt>
<pdfrwt beam="2">  1       -4 0.22112709E-01 0.12499976E+03</pdfrwt>
<totfact> 0.95279856E+03</totfact>
</mgrwt>
</event>
<event>
 5    1  0.3300771E-002  0.1250021E+03  0.7818608E-02  0.1235066E+00
         -4   -1    0    0    0  501 -0.00000000000E+00  0.00000000000E+00  0.26420368283E+03  0.26420673519E+03  0.12700000000E+01 0.  1.
          4   -1    0    0  501    0  0.00000000000E+00 -0.00000000000E+00 -0.14755067407E+02  0.14809622351E+02  0.12700000000E+01 0.  1.
         25    2    1    2    0    0  0.00000000000E+00  0.00000000000E+00  0.24944861543E+03  0.27901635755E+03  0.12500206414E+03 0.  0.
    9000005    1    3    3    0    0 -0.15052468697E+02 -0.28618132099E+01  0.25995701220E+03  0.26041009001E+03  0.10000000000E+01 0.  0.
    9000005    1    3    3    0    0  0.15052468697E+02  0.28618132099E+01 -0.10508396774E+02  0.18606267532E+02  0.10000000000E+01 0.  0.
<mgrwt>
<rscale>  0 0.12500206E+03</rscale>
<asrwt>0</asrwt>
<pdfrwt beam="2">  1        4 0.22744418E-02 0.12500206E+03</pdfrwt>
<pdfrwt beam="1">  1       -4 0.40651150E-01 0.12500206E+03</pdfrwt>
<totfact> 0.78305117E+03</totfact>
</mgrwt>
</event>
<event>
 5    1  0.3300771E-002  0.1249605E+03  0.7818608E-02  0.1235131E+00
         -4   -1    0    0    0  501 -0.00000000000E+00  0.00000000000E+00  0.41868168731E+02  0.41887425952E+02  0.12700000000E+01 0.  1.
          4   -1    0    0  501    0  0.00000000000E+00 -0.00000000000E+00 -0.93194819241E+02  0.93203472218E+02  0.12700000000E+01 0.  1.
         25    2    1    2    0    0  0.00000000000E+00  0.00000000000E+00 -0.51326650510E+02  0.13509089817E+03  0.12496049662E+03 0.  0.
    9000005    1    3    3    0    0 -0.43314584742E+02 -0.31389681272E+02 -0.60548799841E+02  0.80799891732E+02  0.10000000000E+01 0.  0.
    9000005    1    3    3    0    0  0.43314584742E+02  0.31389681272E+02  0.92221493311E+01  0.54291006438E+02  0.10000000000E+01 0.  0.
<mgrwt>
<rscale>  0 0.12496050E+03</rscale>
<asrwt>0</asrwt>
<pdfrwt beam="2">  1        4 0.14339811E-01 0.12496050E+03</pdfrwt>
<pdfrwt beam="1">  1       -4 0.64434037E-02 0.12496050E+03</pdfrwt>
<totfact> 0.10245280E+04</totfact>
</mgrwt>
</event>
<event>
 5    1  0.3300771E-002  0.1250021E+03  0.7818608E-02  0.1235066E+00
         -4   -1    0    0    0  501 -0.00000000000E+00  0.00000000000E+00  0.21077410151E+03  0.21077792761E+03  0.12700000000E+01 0.  1.
          4   -1    0    0  501    0  0.00000000000E+00 -0.00000000000E+00 -0.18507741794E+02  0.18551264278E+02  0.12700000000E+01 0.  1.
         25    2    1    2    0    0  0.00000000000E+00  0.00000000000E+00  0.19226635972E+03  0.22932919189E+03  0.12500210068E+03 0.  0.
    9000005    1    3    3    0    0 -0.48131790590E+02 -0.13349228445E+02  0.16503491102E+03  0.17243083547E+03  0.10000000000E+01 0.  0.
    9000005    1    3    3    0    0  0.48131790590E+02  0.13349228445E+02  0.27231448705E+02  0.56898356426E+02  0.10000000000E+01 0.  0.
<mgrwt>
<rscale>  0 0.12500210E+03</rscale>
<asrwt>0</asrwt>
<pdfrwt beam="2">  1        4 0.28509870E-02 0.12500210E+03</pdfrwt>
<pdfrwt beam="1">  1       -4 0.32430428E-01 0.12500210E+03</pdfrwt>
<totfact> 0.85408702E+03</totfact>
</mgrwt>
</event>
<event>
 5    1  0.3300771E-002  0.1249962E+03  0.7818608E-02  0.1235075E+00
         -4   -1    0    0    0  501 -0.00000000000E+00  0.00000000000E+00  0.13990420537E+04  0.13990426302E+04  0.12700000000E+01 0.  1.
          4   -1    0    0  501    0  0.00000000000E+00 -0.00000000000E+00 -0.26468868177E+01  0.29357979879E+01  0.12700000000E+01 0.  1.
         25    2    1    2    0    0  0.00000000000E+00  0.00000000000E+00  0.13963951669E+04  0.14019784282E+04  0.12499620321E+03 0.  0.
    9000005    1    3    3    0    0  0.27650078118E+02  0.22917555305E+02  0.12717893438E+04  0.12722966934E+04  0.10000000000E+01 0.  0.
    9000005    1    3    3    0    0 -0.27650078118E+02 -0.22917555305E+02  0.12460582315E+03  0.12968173473E+03  0.10000000000E+01 0.  0.
<mgrwt>
<rscale>  0 0.12499620E+03</rscale>
<asrwt>0</asrwt>
<pdfrwt beam="2">  1        4 0.42948102E-03 0.12499620E+03</pdfrwt>
<pdfrwt beam="1">  1       -4 0.21525982E+00 0.12499620E+03</pdfrwt>
<totfact> 0.19940119E+03</totfact>
</mgrwt>
</event>
<event>
 5    1  0.3300771E-002  0.1250008E+03  0.7818608E-02  0.1235068E+00
          4   -1    0    0  501    0  0.00000000000E+00  0.00000000000E+00  0.19391408676E+03  0.19391824552E+03  0.12700000000E+01 0.  1.
         -4   -1    0    0    0  501 -0.00000000000E+00 -0.00000000000E+00 -0.20120108058E+02  0.20160150006E+02  0.12700000000E+01 0.  1.
         25    2    1    2    0    0  0.00000000000E+00  0.00000000000E+00  0.17379397870E+03  0.21407839552E+03  0.12500084958E+03 0.  0.
    9000005    1    3    3    0    0 -0.33772295516E+02  0.52561033948E+02  0.89362718521E+02  0.10904093587E+03  0.10000000000E+01 0.  0.
    9000005    1    3    3    0    0  0.33772295516E+02 -0.52561033948E+02  0.84431260183E+02  0.10503745965E+03  0.10000000000E+01 0.  0.
<mgrwt>
<rscale>  0 0.12500085E+03</rscale>
<asrwt>0</asrwt>
<pdfrwt beam="1">  1        4 0.29836335E-01 0.12500085E+03</pdfrwt>
<pdfrwt beam="2">  1       -4 0.30988014E-02 0.12500085E+03</pdfrwt>
<totfact> 0.87812460E+03</totfact>
</mgrwt>
</event>
<event>
 5    1  0.3300771E-002  0.1249977E+03  0.7818608E-02  0.1235073E+00
          4   -1    0    0  501    0  0.00000000000E+00  0.00000000000E+00  0.24653737744E+01  0.27732594267E+01  0.12700000000E+01 0.  1.
         -4   -1    0    0    0  501 -0.00000000000E+00 -0.00000000000E+00 -0.14909618854E+04  0.14909624263E+04  0.12700000000E+01 0.  1.
         25    2    1    2    0    0  0.00000000000E+00  0.00000000000E+00 -0.14884965117E+04  0.14937356858E+04  0.12499773466E+03 0.  0.
    9000005    1    3    3    0    0 -0.48347238413E+02  0.39494897695E+02 -0.77763593266E+03  0.78013841475E+03  0.10000000000E+01 0.  0.
    9000005    1    3    3    0    0  0.48347238413E+02 -0.39494897695E+02 -0.71086057900E+03  0.71359727100E+03  0.10000000000E+01 0.  0.
<mgrwt>
<rscale>  0 0.12499773E+03</rscale>
<asrwt>0</asrwt>
<pdfrwt beam="1">  1        4 0.40301458E-03 0.12499773E+03</pdfrwt>
<pdfrwt beam="2">  1       -4 0.22940180E+00 0.12499773E+03</pdfrwt>
<totfact> 0.18054923E+03</totfact>
</mgrwt>
</event>
<event>
 5    1  0.3300771E-002  0.1249986E+03  0.7818608E-02  0.1235072E+00
         -4   -1    0    0    0  501 -0.00000000000E+00  0.00000000000E+00  0.97038444004E+03  0.97038527110E+03  0.12700000000E+01 0. -1.
          4   -1    0    0  501    0  0.00000000000E+00 -0.00000000000E+00 -0.39243486986E+01  0.41247318347E+01  0.12700000000E+01 0. -1.
         25    2    1    2    0    0  0.00000000000E+00  0.00000000000E+00  0.96646009134E+03  0.97451000294E+03  0.12499855066E+03 0.  0.
    9000005    1    3    3    0    0 -0.59272290572E+02  0.53369583077E+01  0.33459653951E+03  0.33984927807E+03  0.10000000000E+01 0.  0.
    9000005    1    3    3    0    0  0.59272290572E+02 -0.53369583077E+01  0.63186355183E+03  0.63466072486E+03  0.10000000000E+01 0.  0.
<mgrwt>
<rscale>  0 0.12499855E+03</rscale>
<asrwt>0</asrwt>
<pdfrwt beam="2">  1        4 0.61922295E-03 0.12499855E+03</pdfrwt>
<pdfrwt beam="1">  1       -4 0.14930564E+00 0.12499855E+03</pdfrwt>
<totfact> 0.31462381E+03</totfact>
</mgrwt>
</event>
<event>
 5    1  0.3300771E-002  0.1249986E+03  0.7818608E-02  0.1235071E+00
         -4   -1    0    0    0  501 -0.00000000000E+00  0.00000000000E+00  0.12514982061E+03  0.12515626432E+03  0.12700000000E+01 0. -1.
          4   -1    0    0  501    0  0.00000000000E+00 -0.00000000000E+00 -0.31191732642E+02  0.31217576543E+02  0.12700000000E+01 0. -1.
         25    2    1    2    0    0  0.00000000000E+00  0.00000000000E+00  0.93958087966E+02  0.15637384086E+03  0.12499862324E+03 0.  0.
    9000005    1    3    3    0    0  0.39115220315E+02  0.39040492803E+02  0.83473300899E+02  0.10011469673E+03  0.10000000000E+01 0.  0.
    9000005    1    3    3    0    0 -0.39115220315E+02 -0.39040492803E+02  0.10484787068E+02  0.56259144132E+02  0.10000000000E+01 0.  0.
<mgrwt>
<rscale>  0 0.12499862E+03</rscale>
<asrwt>0</asrwt>
<pdfrwt beam="2">  1        4 0.48012118E-02 0.12499862E+03</pdfrwt>
<pdfrwt beam="1">  1       -4 0.19256302E-01 0.12499862E+03</pdfrwt>
<totfact> 0.98049506E+03</totfact>
</mgrwt>
</event>
<event>
 5    1  0.3300771E-002  0.1249985E+03  0.7818608E-02  0.1235072E+00
         -4   -1    0    0    0  501 -0.00000000000E+00  0.00000000000E+00  0.14290816353E+03  0.14291380655E+03  0.12700000000E+01 0.  1.
          4   -1    0    0  501    0  0.00000000000E+00 -0.00000000000E+00 -0.27312414527E+02  0.27341925450E+02  0.12700000000E+01 0.  1.
         25    2    1    2    0    0  0.00000000000E+00  0.00000000000E+00  0.11559574900E+03  0.17025573200E+03  0.12499854836E+03 0.  0.
    9000005    1    3    3    0    0 -0.29836356175E+02  0.40285416384E+02  0.69793488879E+01  0.50624443048E+02  0.10000000000E+01 0.  0.
    9000005    1    3    3    0    0  0.29836356175E+02 -0.40285416384E+02  0.10861640011E+03  0.11963128895E+03  0.10000000000E+01 0.  0.
<mgrwt>
<rscale>  0 0.12499855E+03</rscale>
<asrwt>0</asrwt>
<pdfrwt beam="2">  1        4 0.42046140E-02 0.12499855E+03</pdfrwt>
<pdfrwt beam="1">  1       -4 0.21988576E-01 0.12499855E+03</pdfrwt>
<totfact> 0.95404101E+03</totfact>
</mgrwt>
</event>
<event>
 5    1  0.3300771E-002  0.1250002E+03  0.7818608E-02  0.1235069E+00
          4   -1    0    0  501    0  0.00000000000E+00  0.00000000000E+00  0.12260899485E+03  0.12261557209E+03  0.12700000000E+01 0.  1.
         -4   -1    0    0    0  501 -0.00000000000E+00 -0.00000000000E+00 -0.31839413297E+02  0.31864731900E+02  0.12700000000E+01 0.  1.
         25    2    1    2    0    0  0.00000000000E+00  0.00000000000E+00  0.90769581558E+02  0.15448030399E+03  0.12500018954E+03 0.  0.
    9000005    1    3    3    0    0 -0.23344752449E+02 -0.37632052153E+02 -0.91060111525E+01  0.45222430886E+02  0.10000000000E+01 0.  0.
    9000005    1    3    3    0    0  0.23344752449E+02  0.37632052153E+02  0.99875592710E+02  0.10925787310E+03  0.10000000000E+01 0.  0.
<mgrwt>
<rscale>  0 0.12500019E+03</rscale>
<asrwt>0</asrwt>
<pdfrwt beam="1">  1        4 0.18865376E-01 0.12500019E+03</pdfrwt>
<pdfrwt beam="2">  1       -4 0.49008249E-02 0.12500019E+03</pdfrwt>
<totfact> 0.98417199E+03</totfact>
</mgrwt>
</event>
<event>
 5    1  0.3300771E-002  0.1250012E+03  0.7818608E-02  0.1235067E+00
         -4   -1    0    0    0  501 -0.00000000000E+00  0.00000000000E+00  0.14176142129E+03  0.14176710996E+03  0.12700000000E+01 0. -1.
          4   -1    0    0  501    0  0.00000000000E+00 -0.00000000000E+00 -0.27534765022E+02  0.27564037890E+02  0.12700000000E+01 0. -1.
         25    2    1    2    0    0  0.00000000000E+00  0.00000000000E+00  0.11422665627E+03  0.16933114785E+03  0.12500123451E+03 0.  0.
    9000005    1    3    3    0    0 -0.61794619518E+02 -0.29791152446E+01  0.45158943199E+02  0.76601437845E+02  0.10000000000E+01 0.  0.
    9000005    1    3    3    0    0  0.61794619518E+02  0.29791152446E+01  0.69067713068E+02  0.92729710004E+02  0.10000000000E+01 0.  0.
<mgrwt>
<rscale>  0 0.12500123E+03</rscale>
<asrwt>0</asrwt>
<pdfrwt beam="2">  1        4 0.42388070E-02 0.12500123E+03</pdfrwt>
<pdfrwt beam="1">  1       -4 0.21812139E-01 0.12500123E+03</pdfrwt>
<totfact> 0.95570721E+03</totfact>
</mgrwt>
</event>
<event>
 5    1  0.3300771E-002  0.1249972E+03  0.7818608E-02  0.1235074E+00
         -4   -1    0    0    0  501 -0.00000000000E+00  0.00000000000E+00  0.15322411519E+02  0.15374953488E+02  0.12700000000E+01 0. -1.
          4   -1    0    0  501    0  0.00000000000E+00 -0.00000000000E+00 -0.25443529104E+03  0.25443846059E+03  0.12700000000E+01 0. -1.
         25    2    1    2    0    0  0.00000000000E+00  0.00000000000E+00 -0.23911287952E+03  0.26981341407E+03  0.12499723702E+03 0.  0.
    9000005    1    3    3    0    0 -0.54524658016E+02 -0.27173373600E+02 -0.89510877316E+02  0.10827985834E+03  0.10000000000E+01 0.  0.
    9000005    1    3    3    0    0  0.54524658016E+02  0.27173373600E+02 -0.14960200220E+03  0.16153355573E+03  0.10000000000E+01 0.  0.
<mgrwt>
<rscale>  0 0.12499724E+03</rscale>
<asrwt>0</asrwt>
<pdfrwt beam="2">  1        4 0.39148173E-01 0.12499724E+03</pdfrwt>
<pdfrwt beam="1">  1       -4 0.23615798E-02 0.12499724E+03</pdfrwt>
<totfact> 0.79553202E+03</totfact>
</mgrwt>
</event>
<event>
 5    1  0.3300771E-002  0.1250007E+03  0.7818608E-02  0.1235068E+00
         -4   -1    0    0    0  501 -0.00000000000E+00  0.00000000000E+00  0.37799051675E+02  0.37820380849E+02  0.12700000000E+01 0. -1.
          4   -1    0    0  501    0  0.00000000000E+00 -0.00000000000E+00 -0.10328932820E+03  0.10329713558E+03  0.12700000000E+01 0. -1.
         25    2    1    2    0    0  0.00000000000E+00  0.00000000000E+00 -0.65490276525E+02  0.14111751643E+03  0.12500070850E+03 0.  0.
    9000005    1    3    3    0    0  0.14603353571E+02 -0.60657225566E+02 -0.28716041575E+02  0.68688921906E+02  0.10000000000E+01 0.  0.
    9000005    1    3    3    0    0 -0.14603353571E+02  0.60657225566E+02 -0.36774234950E+02  0.72428594527E+02  0.10000000000E+01 0.  0.
<mgrwt>
<rscale>  0 0.12500071E+03</rscale>
<asrwt>0</asrwt>
<pdfrwt beam="2">  1        4 0.15892907E-01 0.12500071E+03</pdfrwt>
<pdfrwt beam="1">  1       -4 0.58174801E-02 0.12500071E+03</pdfrwt>
<totfact> 0.10110316E+04</totfact>
</mgrwt>
</event>
<event>
 5    1  0.3300771E-002  0.1250029E+03  0.7818608E-02  0.1235065E+00
          4   -1    0    0  501    0  0.00000000000E+00  0.00000000000E+00  0.52274210639E+01  0.53794824081E+01  0.12700000000E+01 0. -1.
         -4   -1    0    0    0  501 -0.00000000000E+00 -0.00000000000E+00 -0.73643022748E+03  0.73643132256E+03  0.12700000000E+01 0. -1.
         25    2    1    2    0    0  0.00000000000E+00  0.00000000000E+00 -0.73120280641E+03  0.74181080497E+03  0.12500290499E+03 0.  0.
    9000005    1    3    3    0    0  0.61115813528E+02 -0.11660634712E+02 -0.40036599949E+03  0.40517286016E+03  0.10000000000E+01 0.  0.
    9000005    1    3    3    0    0 -0.61115813528E+02  0.11660634712E+02 -0.33083680693E+03  0.33663794481E+03  0.10000000000E+01 0.  0.
<mgrwt>
<rscale>  0 0.12500290E+03</rscale>
<asrwt>0</asrwt>
<pdfrwt beam="1">  1        4 0.81600047E-03 0.12500290E+03</pdfrwt>
<pdfrwt beam="2">  1       -4 0.11330866E+00 0.12500290E+03</pdfrwt>
<totfact> 0.40966344E+03</totfact>
</mgrwt>
</event>
<event>
 5    1  0.3300771E-002  0.1250062E+03  0.7818608E-02  0.1235060E+00
         -4   -1    0    0    0  501 -0.00000000000E+00  0.00000000000E+00  0.91554946736E+02  0.91563754684E+02  0.12700000000E+01 0.  1.
          4   -1    0    0  501    0  0.00000000000E+00 -0.00000000000E+00 -0.42649572058E+02  0.42668476616E+02  0.12700000000E+01 0.  1.
         25    2    1    2    0    0  0.00000000000E+00  0.00000000000E+00  0.48905374678E+02  0.13423223130E+03  0.12500622484E+03 0.  0.
    9000005    1    3    3    0    0 -0.28850697019E+02 -0.23160649107E+02 -0.29631894705E+02  0.47411259942E+02  0.10000000000E+01 0.  0.
    9000005    1    3    3    0    0  0.28850697019E+02  0.23160649107E+02  0.78537269383E+02  0.86820971358E+02  0.10000000000E+01 0.  0.
<mgrwt>
<rscale>  0 0.12500622E+03</rscale>
<asrwt>0</asrwt>
<pdfrwt beam="2">  1        4 0.65636044E-02 0.12500622E+03</pdfrwt>
<pdfrwt beam="1">  1       -4 0.14087508E-01 0.12500622E+03</pdfrwt>
<totfact> 0.10252839E+04</totfact>
</mgrwt>
</event>
<event>
 5    1  0.3300771E-002  0.1250005E+03  0.7818608E-02  0.1235068E+00
         -4   -1    0    0    0  501 -0.00000000000E+00  0.00000000000E+00  0.44865082493E+02  0.44883053897E+02  0.12700000000E+01 0.  1.
          4   -1    0    0  501    0  0.00000000000E+00 -0.00000000000E+00 -0.87027305451E+02  0.87036571590E+02  0.12700000000E+01 0.  1.
         25    2    1    2    0    0  0.00000000000E+00  0.00000000000E+00 -0.42162222958E+02  0.13191962549E+03  0.12500053817E+03 0.  0.
    9000005    1    3    3    0    0  0.60405007786E+02  0.14821461460E+02 -0.14675291516E+02  0.63912478175E+02  0.10000000000E+01 0.  0.
    9000005    1    3    3    0    0 -0.60405007786E+02 -0.14821461460E+02 -0.27486931442E+02  0.68007147312E+02  0.10000000000E+01 0.  0.
<mgrwt>
<rscale>  0 0.12500054E+03</rscale>
<asrwt>0</asrwt>
<pdfrwt beam="2">  1        4 0.13390911E-01 0.12500054E+03</pdfrwt>
<pdfrwt beam="1">  1       -4 0.69044156E-02 0.12500054E+03</pdfrwt>
<totfact> 0.10303289E+04</totfact>
</mgrwt>
</event>
<event>
 5    1  0.3300771E-002  0.1249965E+03  0.7818608E-02  0.1235075E+00
         -4   -1    0    0    0  501 -0.00000000000E+00  0.00000000000E+00  0.27609025685E+03  0.27609317780E+03  0.12700000000E+01 0. -1.
          4   -1    0    0  501    0  0.00000000000E+00 -0.00000000000E+00 -0.14116155708E+02  0.14173170146E+02  0.12700000000E+01 0. -1.
         25    2    1    2    0    0  0.00000000000E+00  0.00000000000E+00  0.26197410114E+03  0.29026634794E+03  0.12499649227E+03 0.  0.
    9000005    1    3    3    0    0  0.26856952166E+02 -0.40255992555E+02  0.39173931664E+02  0.62269075296E+02  0.10000000000E+01 0.  0.
    9000005    1    3    3    0    0 -0.26856952166E+02  0.40255992555E+02  0.22280016948E+03  0.22799727265E+03  0.10000000000E+01 0.  0.
<mgrwt>
<rscale>  0 0.12499649E+03</rscale>
<asrwt>0</asrwt>
<pdfrwt beam="2">  1        4 0.21763266E-02 0.12499649E+03</pdfrwt>
<pdfrwt beam="1">  1       -4 0.42480035E-01 0.12499649E+03</pdfrwt>
<totfact> 0.76842245E+03</totfact>
</mgrwt>
</event>
<event>
 5    1  0.3300771E-002  0.1250032E+03  0.7818608E-02  0.1235064E+00
         -4   -1    0    0    0  501 -0.00000000000E+00  0.00000000000E+00  0.45735708122E+02  0.45753337555E+02  0.12700000000E+01 0. -1.
          4   -1    0    0  501    0  0.00000000000E+00 -0.00000000000E+00 -0.85374719578E+02  0.85384165060E+02  0.12700000000E+01 0. -1.
         25    2    1    2    0    0  0.00000000000E+00  0.00000000000E+00 -0.39639011456E+02  0.13113750261E+03  0.12500317341E+03 0.  0.
    9000005    1    3    3    0    0  0.39805579294E+02 -0.24438955340E+02 -0.63374395619E+02  0.78734113960E+02  0.10000000000E+01 0.  0.
    9000005    1    3    3    0    0 -0.39805579294E+02  0.24438955340E+02  0.23735384163E+02  0.52403388654E+02  0.10000000000E+01 0.  0.
<mgrwt>
<rscale>  0 0.12500317E+03</rscale>
<asrwt>0</asrwt>
<pdfrwt beam="2">  1        4 0.13136655E-01 0.12500317E+03</pdfrwt>
<pdfrwt beam="1">  1       -4 0.70383455E-02 0.12500317E+03</pdfrwt>
<totfact> 0.10319404E+04</totfact>
</mgrwt>
</event>
<event>
 5    1  0.3300771E-002  0.1249971E+03  0.7818608E-02  0.1235074E+00
         -4   -1    0    0    0  501 -0.00000000000E+00  0.00000000000E+00  0.25215134861E+02  0.25247097379E+02  0.12700000000E+01 0. -1.
          4   -1    0    0  501    0  0.00000000000E+00 -0.00000000000E+00 -0.15477711764E+03  0.15478232795E+03  0.12700000000E+01 0. -1.
         25    2    1    2    0    0  0.00000000000E+00  0.00000000000E+00 -0.12956198278E+03  0.18002942533E+03  0.12499714637E+03 0.  0.
    9000005    1    3    3    0    0  0.52562466034E+02 -0.19879071429E+02 -0.25414442861E+02  0.61683743583E+02  0.10000000000E+01 0.  0.
    9000005    1    3    3    0    0 -0.52562466034E+02  0.19879071429E+02 -0.10414753992E+03  0.11834568174E+03  0.10000000000E+01 0.  0.
<mgrwt>
<rscale>  0 0.12499715E+03</rscale>
<asrwt>0</asrwt>
<pdfrwt beam="2">  1        4 0.23814723E-01 0.12499715E+03</pdfrwt>
<pdfrwt beam="1">  1       -4 0.38821111E-02 0.12499715E+03</pdfrwt>
<totfact> 0.93617697E+03</totfact>
</mgrwt>
</event>
<event>
 5    1  0.3300771E-002  0.1250062E+03  0.7818608E-02  0.1235060E+00
          4   -1    0    0  501    0  0.00000000000E+00  0.00000000000E+00  0.42986807100E+01  0.44823605217E+01  0.12700000000E+01 0.  1.
         -4   -1    0    0    0  501 -0.00000000000E+00 -0.00000000000E+00 -0.88960515592E+03  0.88960606244E+03  0.12700000000E+01 0.  1.
         25    2    1    2    0    0  0.00000000000E+00  0.00000000000E+00 -0.88530647521E+03  0.89408842296E+03  0.12500621198E+03 0.  0.
    9000005    1    3    3    0    0 -0.14364500179E+02 -0.34646692327E+02 -0.80019258682E+03  0.80107172473E+03  0.10000000000E+01 0.  0.
    9000005    1    3    3    0    0  0.14364500179E+02  0.34646692327E+02 -0.85113888382E+02  0.93016698233E+02  0.10000000000E+01 0.  0.
<mgrwt>
<rscale>  0 0.12500621E+03</rscale>
<asrwt>0</asrwt>
<pdfrwt beam="1">  1        4 0.67553515E-03 0.12500621E+03</pdfrwt>
<pdfrwt beam="2">  1       -4 0.13687639E+00 0.12500621E+03</pdfrwt>
<totfact> 0.34382663E+03</totfact>
</mgrwt>
</event>
<event>
 5    1  0.3300771E-002  0.1250087E+03  0.7818608E-02  0.1235056E+00
          4   -1    0    0  501    0  0.00000000000E+00  0.00000000000E+00  0.16335752843E+02  0.16385045650E+02  0.12700000000E+01 0. -1.
         -4   -1    0    0    0  501 -0.00000000000E+00 -0.00000000000E+00 -0.23874461136E+03  0.23874798922E+03  0.12700000000E+01 0. -1.
         25    2    1    2    0    0  0.00000000000E+00  0.00000000000E+00 -0.22240885852E+03  0.25513303487E+03  0.12500866023E+03 0.  0.
    9000005    1    3    3    0    0  0.48281041663E+02  0.32980255901E+02 -0.66163567696E+02  0.88302740351E+02  0.10000000000E+01 0.  0.
    9000005    1    3    3    0    0 -0.48281041663E+02 -0.32980255901E+02 -0.15624529083E+03  0.16683029452E+03  0.10000000000E+01 0.  0.
<mgrwt>
<rscale>  0 0.12500866E+03</rscale>
<asrwt>0</asrwt>
<pdfrwt beam="1">  1        4 0.25172445E-02 0.12500866E+03</pdfrwt>
<pdfrwt beam="2">  1       -4 0.36733989E-01 0.12500866E+03</pdfrwt>
<totfact> 0.81578227E+03</totfact>
</mgrwt>
</event>
<event>
 5    1  0.3300771E-002  0.1249986E+03  0.7818608E-02  0.1235071E+00
         -4   -1    0    0    0  501 -0.00000000000E+00  0.00000000000E+00  0.34783773565E+02  0.34806950504E+02  0.12700000000E+01 0.  1.
          4   -1    0    0  501    0  0.00000000000E+00 -0.00000000000E+00 -0.11223421528E+03  0.11224140047E+03  0.12700000000E+01 0.  1.
         25    2    1    2    0    0  0.00000000000E+00  0.00000000000E+00 -0.77450441714E+02  0.14704835097E+03  0.12499858640E+03 0.  0.
    9000005    1    3    3    0    0 -0.43531088889E+02  0.14003394458E+02 -0.88830902269E+02  0.99914863529E+02  0.10000000000E+01 0.  0.
    9000005    1    3    3    0    0  0.43531088889E+02 -0.14003394458E+02  0.11380460555E+02  0.47133487444E+02  0.10000000000E+01 0.  0.
<mgrwt>
<rscale>  0 0.12499859E+03</rscale>
<asrwt>0</asrwt>
<pdfrwt beam="2">  1        4 0.17269138E-01 0.12499859E+03</pdfrwt>
<pdfrwt beam="1">  1       -4 0.53536854E-02 0.12499859E+03</pdfrwt>
<totfact> 0.99898532E+03</totfact>
</mgrwt>
</event>
<event>
 5    1  0.3300771E-002  0.1249968E+03  0.7818608E-02  0.1235074E+00
          4   -1    0    0  501    0  0.00000000000E+00  0.00000000000E+00  0.13898697064E+03  0.13899277286E+03  0.12700000000E+01 0. -1.
         -4   -1    0    0    0  501 -0.00000000000E+00 -0.00000000000E+00 -0.28082988283E+02  0.28111690289E+02  0.12700000000E+01 0. -1.
         25    2    1    2    0    0  0.00000000000E+00  0.00000000000E+00  0.11090398236E+03  0.16710446315E+03  0.12499683317E+03 0.  0.
    9000005    1    3    3    0    0 -0.32514092168E+02  0.74365495280E+01  0.12609873219E+03  0.13043909965E+03  0.10000000000E+01 0.  0.
    9000005    1    3    3    0    0  0.32514092168E+02 -0.74365495280E+01 -0.15194749828E+02  0.36665363502E+02  0.10000000000E+01 0.  0.
<mgrwt>
<rscale>  0 0.12499683E+03</rscale>
<asrwt>0</asrwt>
<pdfrwt beam="1">  1        4 0.21385265E-01 0.12499683E+03</pdfrwt>
<pdfrwt beam="2">  1       -4 0.43231139E-02 0.12499683E+03</pdfrwt>
<totfact> 0.95997146E+03</totfact>
</mgrwt>
</event>
<event>
 5    1  0.3300771E-002  0.1249936E+03  0.7818608E-02  0.1235079E+00
          4   -1    0    0  501    0  0.00000000000E+00  0.00000000000E+00  0.96748954872E+01  0.97578943778E+01  0.12700000000E+01 0.  1.
         -4   -1    0    0    0  501 -0.00000000000E+00 -0.00000000000E+00 -0.40190130386E+03  0.40190331044E+03  0.12700000000E+01 0.  1.
         25    2    1    2    0    0  0.00000000000E+00  0.00000000000E+00 -0.39222640837E+03  0.41166120482E+03  0.12499356835E+03 0.  0.
    9000005    1    3    3    0    0  0.44987548644E+02  0.22059037154E+02 -0.73131394006E+02  0.88654844438E+02  0.10000000000E+01 0.  0.
    9000005    1    3    3    0    0 -0.44987548644E+02 -0.22059037154E+02 -0.31909501437E+03  0.32300636038E+03  0.10000000000E+01 0.  0.
<mgrwt>
<rscale>  0 0.12499357E+03</rscale>
<asrwt>0</asrwt>
<pdfrwt beam="1">  1        4 0.14949847E-02 0.12499357E+03</pdfrwt>
<pdfrwt beam="2">  1       -4 0.61837496E-01 0.12499357E+03</pdfrwt>
<totfact> 0.63443228E+03</totfact>
</mgrwt>
</event>
<event>
 5    1  0.3300771E-002  0.1250005E+03  0.7818608E-02  0.1235069E+00
         -4   -1    0    0    0  501 -0.00000000000E+00  0.00000000000E+00  0.53436322361E+03  0.53436473278E+03  0.12700000000E+01 0.  1.
          4   -1    0    0  501    0  0.00000000000E+00 -0.00000000000E+00 -0.72534659333E+01  0.73638079854E+01  0.12700000000E+01 0.  1.
         25    2    1    2    0    0  0.00000000000E+00  0.00000000000E+00  0.52710975767E+03  0.54172854077E+03  0.12500046100E+03 0.  0.
    9000005    1    3    3    0    0  0.30947856700E+01  0.61195390957E+02  0.31677883029E+03  0.32265195008E+03  0.10000000000E+01 0.  0.
    9000005    1    3    3    0    0 -0.30947856700E+01 -0.61195390957E+02  0.21033092739E+03  0.21907659069E+03  0.10000000000E+01 0.  0.
<mgrwt>
<rscale>  0 0.12500046E+03</rscale>
<asrwt>0</asrwt>
<pdfrwt beam="2">  1        4 0.11245221E-02 0.12500046E+03</pdfrwt>
<pdfrwt beam="1">  1       -4 0.82218310E-01 0.12500046E+03</pdfrwt>
<totfact> 0.52765600E+03</totfact>
</mgrwt>
</event>
<event>
 5    1  0.3300771E-002  0.1249996E+03  0.7818608E-02  0.1235070E+00
         -4   -1    0    0    0  501 -0.00000000000E+00  0.00000000000E+00  0.11551955082E+02  0.11621556102E+02  0.12700000000E+01 0.  1.
          4   -1    0    0  501    0  0.00000000000E+00 -0.00000000000E+00 -0.33705777492E+03  0.33706016753E+03  0.12700000000E+01 0.  1.
         25    2    1    2    0    0  0.00000000000E+00  0.00000000000E+00 -0.32550581984E+03  0.34868172363E+03  0.12499962258E+03 0.  0.
    9000005    1    3    3    0    0  0.58162805458E+02 -0.14790519927E+02 -0.21135323483E+03  0.21971085838E+03  0.10000000000E+01 0.  0.
    9000005    1    3    3    0    0 -0.58162805458E+02  0.14790519927E+02 -0.11415258501E+03  0.12897086525E+03  0.10000000000E+01 0.  0.
<mgrwt>
<rscale>  0 0.12499962E+03</rscale>
<asrwt>0</asrwt>
<pdfrwt beam="2">  1        4 0.51860573E-01 0.12499962E+03</pdfrwt>
<pdfrwt beam="1">  1       -4 0.17827621E-02 0.12499962E+03</pdfrwt>
<totfact> 0.69870413E+03</totfact>
</mgrwt>
</event>
<event>
 5    1  0.3300771E-002  0.1250016E+03  0.7818608E-02  0.1235067E+00
         -4   -1    0    0    0  501 -0.00000000000E+00  0.00000000000E+00  0.20006971906E+03  0.20007374986E+03  0.12700000000E+01 0.  1.
          4   -1    0    0  501    0  0.00000000000E+00 -0.00000000000E+00 -0.19500067302E+02  0.19541379808E+02  0.12700000000E+01 0.  1.
         25    2    1    2    0    0  0.00000000000E+00  0.00000000000E+00  0.18056965175E+03  0.21961512967E+03  0.12500162417E+03 0.  0.
    9000005    1    3    3    0    0 -0.27596180641E+02 -0.55468956328E+02  0.10466535798E+03  0.12163137532E+03  0.10000000000E+01 0.  0.
    9000005    1    3    3    0    0  0.27596180641E+02  0.55468956328E+02  0.75904293778E+02  0.97983754348E+02  0.10000000000E+01 0.  0.
<mgrwt>
<rscale>  0 0.12500162E+03</rscale>
<asrwt>0</asrwt>
<pdfrwt beam="2">  1        4 0.30034983E-02 0.12500162E+03</pdfrwt>
<pdfrwt beam="1">  1       -4 0.30783445E-01 0.12500162E+03</pdfrwt>
<totfact> 0.86926132E+03</totfact>
</mgrwt>
</event>
<event>
 5    1  0.3300771E-002  0.1250014E+03  0.7818608E-02  0.1235067E+00
          4   -1    0    0  501    0  0.00000000000E+00  0.00000000000E+00  0.33258465239E+02  0.33282704368E+02  0.12700000000E+01 0. -1.
         -4   -1    0    0    0  501 -0.00000000000E+00 -0.00000000000E+00 -0.11738348456E+03  0.11739035458E+03  0.12700000000E+01 0. -1.
         25    2    1    2    0    0  0.00000000000E+00  0.00000000000E+00 -0.84125019322E+02  0.15067305894E+03  0.12500140726E+03 0.  0.
    9000005    1    3    3    0    0  0.49602946403E+02 -0.28270010056E+02 -0.72691555723E+02  0.92437589940E+02  0.10000000000E+01 0.  0.
    9000005    1    3    3    0    0 -0.49602946403E+02  0.28270010056E+02 -0.11433463599E+02  0.58235469005E+02  0.10000000000E+01 0.  0.
<mgrwt>
<rscale>  0 0.12500141E+03</rscale>
<asrwt>0</asrwt>
<pdfrwt beam="1">  1        4 0.51190800E-02 0.12500141E+03</pdfrwt>
<pdfrwt beam="2">  1       -4 0.18061390E-01 0.12500141E+03</pdfrwt>
<totfact> 0.99166563E+03</totfact>
</mgrwt>
</event>
<event>
 5    1  0.3300771E-002  0.1250008E+03  0.7818608E-02  0.1235068E+00
         -4   -1    0    0    0  501 -0.00000000000E+00  0.00000000000E+00  0.23172316992E+02  0.23207093200E+02  0.12700000000E+01 0. -1.
          4   -1    0    0  501    0  0.00000000000E+00 -0.00000000000E+00 -0.16841263556E+03  0.16841742403E+03  0.12700000000E+01 0. -1.
         25    2    1    2    0    0  0.00000000000E+00  0.00000000000E+00 -0.14524031857E+03  0.19162451723E+03  0.12500082186E+03 0.  0.
    9000005    1    3    3    0    0 -0.29591544655E+02 -0.23221261218E+02 -0.14912238253E+03  0.15379652616E+03  0.10000000000E+01 0.  0.
    9000005    1    3    3    0    0  0.29591544655E+02  0.23221261218E+02  0.38820639620E+01  0.37827991068E+02  0.10000000000E+01 0.  0.
<mgrwt>
<rscale>  0 0.12500082E+03</rscale>
<asrwt>0</asrwt>
<pdfrwt beam="2">  1        4 0.25912679E-01 0.12500082E+03</pdfrwt>
<pdfrwt beam="1">  1       -4 0.35680154E-02 0.12500082E+03</pdfrwt>
<totfact> 0.91563735E+03</totfact>
</mgrwt>
</event>
<event>
 5    1  0.3300771E-002  0.1250052E+03  0.7818608E-02  0.1235061E+00
          4   -1    0    0  501    0  0.00000000000E+00  0.00000000000E+00  0.74121185679E+01  0.75201330882E+01  0.12700000000E+01 0.  1.
         -4   -1    0    0    0  501 -0.00000000000E+00 -0.00000000000E+00 -0.52313103847E+03  0.52313258005E+03  0.12700000000E+01 0.  1.
         25    2    1    2    0    0  0.00000000000E+00  0.00000000000E+00 -0.51571891990E+03  0.53065271314E+03  0.12500519036E+03 0.  0.
    9000005    1    3    3    0    0 -0.52537296307E+02  0.18663540354E+02 -0.13801083072E+03  0.14885054464E+03  0.10000000000E+01 0.  0.
    9000005    1    3    3    0    0  0.52537296307E+02 -0.18663540354E+02 -0.37770808918E+03  0.38180216850E+03  0.10000000000E+01 0.  0.
<mgrwt>
<rscale>  0 0.12500519E+03</rscale>
<asrwt>0</asrwt>
<pdfrwt beam="1">  1        4 0.11487537E-02 0.12500519E+03</pdfrwt>
<pdfrwt beam="2">  1       -4 0.80490097E-01 0.12500519E+03</pdfrwt>
<totfact> 0.53556037E+03</totfact>
</mgrwt>
</event>
<event>
 5    1  0.3300771E-002  0.1249956E+03  0.7818608E-02  0.1235076E+00
          4   -1    0    0  501    0  0.00000000000E+00  0.00000000000E+00  0.96746837483E+01  0.97576844399E+01  0.12700000000E+01 0. -1.
         -4   -1    0    0    0  501 -0.00000000000E+00 -0.00000000000E+00 -0.40192307305E+03  0.40192507953E+03  0.12700000000E+01 0. -1.
         25    2    1    2    0    0  0.00000000000E+00  0.00000000000E+00 -0.39224838931E+03  0.41168276397E+03  0.12499559686E+03 0.  0.
    9000005    1    3    3    0    0  0.14064881942E+02 -0.99216008744E+01  0.17295648794E+01  0.17327736800E+02  0.10000000000E+01 0.  0.
    9000005    1    3    3    0    0 -0.14064881942E+02  0.99216008744E+01 -0.39397795419E+03  0.39435502717E+03  0.10000000000E+01 0.  0.
<mgrwt>
<rscale>  0 0.12499560E+03</rscale>
<asrwt>0</asrwt>
<pdfrwt beam="1">  1        4 0.14949522E-02 0.12499560E+03</pdfrwt>
<pdfrwt beam="2">  1       -4 0.61840845E-01 0.12499560E+03</pdfrwt>
<totfact> 0.63438349E+03</totfact>
</mgrwt>
</event>
<event>
 5    1  0.3300771E-002  0.1250009E+03  0.7818608E-02  0.1235068E+00
         -4   -1    0    0    0  501 -0.00000000000E+00  0.00000000000E+00  0.19860395054E+02  0.19900959567E+02  0.12700000000E+01 0. -1.
          4   -1    0    0  501    0  0.00000000000E+00 -0.00000000000E+00 -0.19644488370E+03  0.19644898888E+03  0.12700000000E+01 0. -1.
         25    2    1    2    0    0  0.00000000000E+00  0.00000000000E+00 -0.17658448865E+03  0.21634994845E+03  0.12500087425E+03 0.  0.
    9000005    1    3    3    0    0  0.19827419775E+02  0.50806126610E+02 -0.14110014361E+03  0.15127669881E+03  0.10000000000E+01 0.  0.
    9000005    1    3    3    0    0 -0.19827419775E+02 -0.50806126610E+02 -0.35484345043E+02  0.65073249644E+02  0.10000000000E+01 0.  0.
<mgrwt>
<rscale>  0 0.12500087E+03</rscale>
<asrwt>0</asrwt>
<pdfrwt beam="2">  1        4 0.30225725E-01 0.12500087E+03</pdfrwt>
<pdfrwt beam="1">  1       -4 0.30588817E-02 0.12500087E+03</pdfrwt>
<totfact> 0.87447530E+03</totfact>
</mgrwt>
</event>
<event>
 5    1  0.3300771E-002  0.1249983E+03  0.7818608E-02  0.1235072E+00
         -4   -1    0    0    0  501 -0.00000000000E+00  0.00000000000E+00  0.10959539394E+02  0.11032878307E+02  0.12700000000E+01 0.  1.
          4   -1    0    0  501    0  0.00000000000E+00 -0.00000000000E+00 -0.35515201860E+03  0.35515428931E+03  0.12700000000E+01 0.  1.
         25    2    1    2    0    0  0.00000000000E+00  0.00000000000E+00 -0.34419247920E+03  0.36618716761E+03  0.12499831593E+03 0.  0.
    9000005    1    3    3    0    0 -0.30109922069E+02  0.52965661835E+02 -0.21281321882E+03  0.22136493590E+03  0.10000000000E+01 0.  0.
    9000005    1    3    3    0    0  0.30109922069E+02 -0.52965661835E+02 -0.13137926038E+03  0.14482223172E+03  0.10000000000E+01 0.  0.
<mgrwt>
<rscale>  0 0.12499832E+03</rscale>
<asrwt>0</asrwt>
<pdfrwt beam="2">  1        4 0.54644579E-01 0.12499832E+03</pdfrwt>
<pdfrwt beam="1">  1       -4 0.16918994E-02 0.12499832E+03</pdfrwt>
<totfact> 0.67982261E+03</totfact>
</mgrwt>
</event>
<event>
 5    1  0.3300771E-002  0.1249984E+03  0.7818608E-02  0.1235072E+00
          4   -1    0    0  501    0  0.00000000000E+00  0.00000000000E+00  0.30213562540E+03  0.30213829455E+03  0.12700000000E+01 0. -1.
         -4   -1    0    0    0  501 -0.00000000000E+00 -0.00000000000E+00 -0.12894534998E+02  0.12956926056E+02  0.12700000000E+01 0. -1.
         25    2    1    2    0    0  0.00000000000E+00  0.00000000000E+00  0.28924109040E+03  0.31509522060E+03  0.12499835868E+03 0.  0.
    9000005    1    3    3    0    0 -0.32175759983E+02 -0.33053180865E+02  0.38347136559E+02  0.59994126196E+02  0.10000000000E+01 0.  0.
    9000005    1    3    3    0    0  0.32175759983E+02  0.33053180865E+02  0.25089395384E+03  0.25510109441E+03  0.10000000000E+01 0.  0.
<mgrwt>
<rscale>  0 0.12499836E+03</rscale>
<asrwt>0</asrwt>
<pdfrwt beam="1">  1        4 0.46487409E-01 0.12499836E+03</pdfrwt>
<pdfrwt beam="2">  1       -4 0.19887792E-02 0.12499836E+03</pdfrwt>
<totfact> 0.73745988E+03</totfact>
</mgrwt>
</event>
<event>
 5    1  0.3300771E-002  0.1250000E+03  0.7818608E-02  0.1235069E+00
         -4   -1    0    0    0  501 -0.00000000000E+00  0.00000000000E+00  0.12578282610E+02  0.12642234510E+02  0.12700000000E+01 0.  1.
          4   -1    0    0  501    0  0.00000000000E+00 -0.00000000000E+00 -0.30970234152E+03  0.30970494546E+03  0.12700000000E+01 0.  1.
         25    2    1    2    0    0  0.00000000000E+00  0.00000000000E+00 -0.29712405891E+03  0.32234717997E+03  0.12499999221E+03 0.  0.
    9000005    1    3    3    0    0  0.47628822901E+02  0.31383641251E+02 -0.21439978237E+03  0.22185965021E+03  0.10000000000E+01 0.  0.
    9000005    1    3    3    0    0 -0.47628822901E+02 -0.31383641251E+02 -0.82724276537E+02  0.10048752976E+03  0.10000000000E+01 0.  0.
<mgrwt>
<rscale>  0 0.12499999E+03</rscale>
<asrwt>0</asrwt>
<pdfrwt beam="2">  1        4 0.47651628E-01 0.12499999E+03</pdfrwt>
<pdfrwt beam="1">  1       -4 0.19402403E-02 0.12499999E+03</pdfrwt>
<totfact> 0.72877841E+03</totfact>
</mgrwt>
</event>
<event>
 5    1  0.3300771E-002  0.1250104E+03  0.7818608E-02  0.1235053E+00
          4   -1    0    0  501    0  0.00000000000E+00  0.00000000000E+00  0.10559146700E+03  0.10559910418E+03  0.12700000000E+01 0.  1.
         -4   -1    0    0    0  501 -0.00000000000E+00 -0.00000000000E+00 -0.36980264821E+02  0.37002065972E+02  0.12700000000E+01 0.  1.
         25    2    1    2    0    0  0.00000000000E+00  0.00000000000E+00  0.68611202184E+02  0.14260117015E+03  0.12501038623E+03 0.  0.
    9000005    1    3    3    0    0  0.54004656411E+02 -0.61346999282E+01 -0.88616857433E+00  0.54368398468E+02  0.10000000000E+01 0.  0.
    9000005    1    3    3    0    0 -0.54004656411E+02  0.61346999282E+01  0.69497370758E+02  0.88232771687E+02  0.10000000000E+01 0.  0.
<mgrwt>
<rscale>  0 0.12501039E+03</rscale>
<asrwt>0</asrwt>
<pdfrwt beam="1">  1        4 0.16247105E-01 0.12501039E+03</pdfrwt>
<pdfrwt beam="2">  1       -4 0.56915360E-02 0.12501039E+03</pdfrwt>
<totfact> 0.10077599E+04</totfact>
</mgrwt>
</event>
<event>
 5    1  0.3300771E-002  0.1250014E+03  0.7818608E-02  0.1235067E+00
          4   -1    0    0  501    0  0.00000000000E+00  0.00000000000E+00  0.44542820482E+03  0.44543001532E+03  0.12700000000E+01 0.  1.
         -4   -1    0    0    0  501 -0.00000000000E+00 -0.00000000000E+00 -0.87220256679E+01  0.88140020281E+01  0.12700000000E+01 0.  1.
         25    2    1    2    0    0  0.00000000000E+00  0.00000000000E+00  0.43670617915E+03  0.45424401735E+03  0.12500136154E+03 0.  0.
    9000005    1    3    3    0    0  0.25088082644E+02  0.72725285773E+01  0.42465672675E+03  0.42546050009E+03  0.10000000000E+01 0.  0.
    9000005    1    3    3    0    0 -0.25088082644E+02 -0.72725285773E+01  0.12049452403E+02  0.28783517260E+02  0.10000000000E+01 0.  0.
<mgrwt>
<rscale>  0 0.12500136E+03</rscale>
<asrwt>0</asrwt>
<pdfrwt beam="1">  1        4 0.68534618E-01 0.12500136E+03</pdfrwt>
<pdfrwt beam="2">  1       -4 0.13490647E-02 0.12500136E+03</pdfrwt>
<totfact> 0.59596109E+03</totfact>
</mgrwt>
</event>
<event>
 5    1  0.3300771E-002  0.1249999E+03  0.7818608E-02  0.1235069E+00
          4   -1    0    0  501    0  0.00000000000E+00  0.00000000000E+00  0.44768773130E+02  0.44786783179E+02  0.12700000000E+01 0.  1.
         -4   -1    0    0    0  501 -0.00000000000E+00 -0.00000000000E+00 -0.87213602320E+02  0.87222848667E+02  0.12700000000E+01 0.  1.
         25    2    1    2    0    0  0.00000000000E+00  0.00000000000E+00 -0.42444829190E+02  0.13200963185E+03  0.12499991750E+03 0.  0.
    9000005    1    3    3    0    0  0.15866926203E+02 -0.60409029602E+02 -0.19049192547E+02  0.65306063587E+02  0.10000000000E+01 0.  0.
    9000005    1    3    3    0    0 -0.15866926203E+02  0.60409029602E+02 -0.23395636643E+02  0.66703568259E+02  0.10000000000E+01 0.  0.
<mgrwt>
<rscale>  0 0.12499992E+03</rscale>
<asrwt>0</asrwt>
<pdfrwt beam="1">  1        4 0.68896002E-02 0.12499992E+03</pdfrwt>
<pdfrwt beam="2">  1       -4 0.13419574E-01 0.12499992E+03</pdfrwt>
<totfact> 0.10301512E+04</totfact>
</mgrwt>
</event>
<event>
 5    1  0.3300771E-002  0.1249951E+03  0.7818608E-02  0.1235077E+00
          4   -1    0    0  501    0  0.00000000000E+00  0.00000000000E+00  0.17242578067E+03  0.17243045770E+03  0.12700000000E+01 0. -1.
         -4   -1    0    0    0  501 -0.00000000000E+00 -0.00000000000E+00 -0.22630107994E+02  0.22665716133E+02  0.12700000000E+01 0. -1.
         25    2    1    2    0    0  0.00000000000E+00  0.00000000000E+00  0.14979567268E+03  0.19509617383E+03  0.12499509386E+03 0.  0.
    9000005    1    3    3    0    0 -0.23924568013E+02  0.49124186732E+02  0.12222403103E+03  0.13388534064E+03  0.10000000000E+01 0.  0.
    9000005    1    3    3    0    0  0.23924568013E+02 -0.49124186732E+02  0.27571641650E+02  0.61210833191E+02  0.10000000000E+01 0.  0.
<mgrwt>
<rscale>  0 0.12499509E+03</rscale>
<asrwt>0</asrwt>
<pdfrwt beam="1">  1        4 0.26530141E-01 0.12499509E+03</pdfrwt>
<pdfrwt beam="2">  1       -4 0.34846541E-02 0.12499509E+03</pdfrwt>
<totfact> 0.90978074E+03</totfact>
</mgrwt>
</event>
<event>
 5    1  0.3300771E-002  0.1250033E+03  0.7818608E-02  0.1235064E+00
         -4   -1    0    0    0  501 -0.00000000000E+00  0.00000000000E+00  0.98549335331E+01  0.99364286815E+01  0.12700000000E+01 0. -1.
          4   -1    0    0  501    0  0.00000000000E+00 -0.00000000000E+00 -0.39468108913E+03  0.39468313242E+03  0.12700000000E+01 0. -1.
         25    2    1    2    0    0  0.00000000000E+00  0.00000000000E+00 -0.38482615560E+03  0.40461956110E+03  0.12500327674E+03 0.  0.
    9000005    1    3    3    0    0 -0.36647113258E+02  0.42538578983E+02 -0.28123045189E+03  0.28678233677E+03  0.10000000000E+01 0.  0.
    9000005    1    3    3    0    0  0.36647113258E+02 -0.42538578983E+02 -0.10359570371E+03  0.11783722433E+03  0.10000000000E+01 0.  0.
<mgrwt>
<rscale>  0 0.12500328E+03</rscale>
<asrwt>0</asrwt>
<pdfrwt beam="2">  1        4 0.60726582E-01 0.12500328E+03</pdfrwt>
<pdfrwt beam="1">  1       -4 0.15225700E-02 0.12500328E+03</pdfrwt>
<totfact> 0.64101332E+03</totfact>
</mgrwt>
</event>
<event>
 5    1  0.3300771E-002  0.1250484E+03  0.7818608E-02  0.1234994E+00
         -4   -1    0    0    0  501 -0.00000000000E+00  0.00000000000E+00  0.96688182565E+02  0.96696522935E+02  0.12700000000E+01 0. -1.
          4   -1    0    0  501    0  0.00000000000E+00 -0.00000000000E+00 -0.40411740383E+02  0.40431691293E+02  0.12700000000E+01 0. -1.
         25    2    1    2    0    0  0.00000000000E+00  0.00000000000E+00  0.56276442182E+02  0.13712821423E+03  0.12504842739E+03 0.  0.
    9000005    1    3    3    0    0  0.92613426404E+01 -0.57330365182E+02  0.27563745215E+01  0.58147578109E+02  0.10000000000E+01 0.  0.
    9000005    1    3    3    0    0 -0.92613426404E+01  0.57330365182E+02  0.53520067660E+02  0.78980636119E+02  0.10000000000E+01 0.  0.
<mgrwt>
<rscale>  0 0.12504843E+03</rscale>
<asrwt>0</asrwt>
<pdfrwt beam="2">  1        4 0.62193671E-02 0.12504843E+03</pdfrwt>
<pdfrwt beam="1">  1       -4 0.14877281E-01 0.12504843E+03</pdfrwt>
<totfact> 0.10182284E+04</totfact>
</mgrwt>
</event>
<event>
 5    1  0.3300771E-002  0.1249818E+03  0.7818608E-02  0.1235098E+00
         -4   -1    0    0    0  501 -0.00000000000E+00  0.00000000000E+00  0.47324738519E+02  0.47341776223E+02  0.12700000000E+01 0. -1.
          4   -1    0    0  501    0  0.00000000000E+00 -0.00000000000E+00 -0.82480645106E+02  0.82490421972E+02  0.12700000000E+01 0. -1.
         25    2    1    2    0    0  0.00000000000E+00  0.00000000000E+00 -0.35155906586E+02  0.12983219819E+03  0.12498184636E+03 0.  0.
    9000005    1    3    3    0    0 -0.49986348346E+02 -0.30759901745E+02 -0.39841169614E+02  0.70944523203E+02  0.10000000000E+01 0.  0.
    9000005    1    3    3    0    0  0.49986348346E+02  0.30759901745E+02  0.46852630273E+01  0.58887674992E+02  0.10000000000E+01 0.  0.
<mgrwt>
<rscale>  0 0.12498185E+03</rscale>
<asrwt>0</asrwt>
<pdfrwt beam="2">  1        4 0.12691393E-01 0.12498185E+03</pdfrwt>
<pdfrwt beam="1">  1       -4 0.72827917E-02 0.12498185E+03</pdfrwt>
<totfact> 0.10352340E+04</totfact>
</mgrwt>
</event>
<event>
 5    1  0.3300771E-002  0.1250036E+03  0.7818608E-02  0.1235064E+00
         -4   -1    0    0    0  501 -0.00000000000E+00  0.00000000000E+00  0.12028524340E+03  0.12029194769E+03  0.12700000000E+01 0. -1.
          4   -1    0    0  501    0  0.00000000000E+00 -0.00000000000E+00 -0.32456715103E+02  0.32481552538E+02  0.12700000000E+01 0. -1.
         25    2    1    2    0    0  0.00000000000E+00  0.00000000000E+00  0.87828528297E+02  0.15277350023E+03  0.12500356791E+03 0.  0.
    9000005    1    3    3    0    0 -0.40281823896E+02  0.30382011937E+02 -0.11528870441E+01  0.50477927199E+02  0.10000000000E+01 0.  0.
    9000005    1    3    3    0    0  0.40281823896E+02 -0.30382011937E+02  0.88981415341E+02  0.10229557303E+03  0.10000000000E+01 0.  0.
<mgrwt>
<rscale>  0 0.12500357E+03</rscale>
<asrwt>0</asrwt>
<pdfrwt beam="2">  1        4 0.49957670E-02 0.12500357E+03</pdfrwt>
<pdfrwt beam="1">  1       -4 0.18507848E-01 0.12500357E+03</pdfrwt>
<totfact> 0.98745761E+03</totfact>
</mgrwt>
</event>
<event>
 5    1  0.3300771E-002  0.1250004E+03  0.7818608E-02  0.1235069E+00
          4   -1    0    0  501    0  0.00000000000E+00  0.00000000000E+00  0.42447028559E+03  0.42447218549E+03  0.12700000000E+01 0. -1.
         -4   -1    0    0    0  501 -0.00000000000E+00 -0.00000000000E+00 -0.91569583342E+01  0.92446084792E+01  0.12700000000E+01 0. -1.
         25    2    1    2    0    0  0.00000000000E+00  0.00000000000E+00  0.41531332726E+03  0.43371679397E+03  0.12500039027E+03 0.  0.
    9000005    1    3    3    0    0  0.54840451251E+02  0.29830407832E+02  0.21743738731E+03  0.22622410509E+03  0.10000000000E+01 0.  0.
    9000005    1    3    3    0    0 -0.54840451251E+02 -0.29830407832E+02  0.19787593995E+03  0.20749268887E+03  0.10000000000E+01 0.  0.
<mgrwt>
<rscale>  0 0.12500039E+03</rscale>
<asrwt>0</asrwt>
<pdfrwt beam="1">  1        4 0.65309984E-01 0.12500039E+03</pdfrwt>
<pdfrwt beam="2">  1       -4 0.14156518E-02 0.12500039E+03</pdfrwt>
<totfact> 0.61400010E+03</totfact>
</mgrwt>
</event>
<event>
 5    1  0.3300771E-002  0.1250007E+03  0.7818608E-02  0.1235068E+00
          4   -1    0    0  501    0  0.00000000000E+00  0.00000000000E+00  0.23275437993E+02  0.23310060355E+02  0.12700000000E+01 0. -1.
         -4   -1    0    0    0  501 -0.00000000000E+00 -0.00000000000E+00 -0.16766716376E+03  0.16767197352E+03  0.12700000000E+01 0. -1.
         25    2    1    2    0    0  0.00000000000E+00  0.00000000000E+00 -0.14439172577E+03  0.19098203387E+03  0.12500066717E+03 0.  0.
    9000005    1    3    3    0    0 -0.28600691423E+02 -0.46974382680E+02 -0.11753717281E+03  0.12977125711E+03  0.10000000000E+01 0.  0.
    9000005    1    3    3    0    0  0.28600691423E+02  0.46974382680E+02 -0.26854552954E+02  0.61210776767E+02  0.10000000000E+01 0.  0.
<mgrwt>
<rscale>  0 0.12500067E+03</rscale>
<asrwt>0</asrwt>
<pdfrwt beam="1">  1        4 0.35838700E-02 0.12500067E+03</pdfrwt>
<pdfrwt beam="2">  1       -4 0.25797981E-01 0.12500067E+03</pdfrwt>
<totfact> 0.91675355E+03</totfact>
</mgrwt>
</event>
<event>
 5    1  0.3300771E-002  0.1250008E+03  0.7818608E-02  0.1235068E+00
          4   -1    0    0  501    0  0.00000000000E+00  0.00000000000E+00  0.89772997617E+03  0.89773087450E+03  0.12700000000E+01 0. -1.
         -4   -1    0    0    0  501 -0.00000000000E+00 -0.00000000000E+00 -0.42577196272E+01  0.44430931145E+01  0.12700000000E+01 0. -1.
         25    2    1    2    0    0  0.00000000000E+00  0.00000000000E+00  0.89347225655E+03  0.90217396761E+03  0.12500077845E+03 0.  0.
    9000005    1    3    3    0    0 -0.20054046492E+02 -0.57914839409E+02  0.35863563150E+03  0.36383624007E+03  0.10000000000E+01 0.  0.
    9000005    1    3    3    0    0  0.20054046492E+02  0.57914839409E+02  0.53483662505E+03  0.53833772754E+03  0.10000000000E+01 0.  0.
<mgrwt>
<rscale>  0 0.12500078E+03</rscale>
<asrwt>0</asrwt>
<pdfrwt beam="1">  1        4 0.13812657E+00 0.12500078E+03</pdfrwt>
<pdfrwt beam="2">  1       -4 0.66936268E-03 0.12500078E+03</pdfrwt>
<totfact> 0.34076244E+03</totfact>
</mgrwt>
</event>
<event>
 5    1  0.3300771E-002  0.1249949E+03  0.7818608E-02  0.1235077E+00
          4   -1    0    0  501    0  0.00000000000E+00  0.00000000000E+00  0.10842120102E+03  0.10842863889E+03  0.12700000000E+01 0.  1.
         -4   -1    0    0    0  501 -0.00000000000E+00 -0.00000000000E+00 -0.36005671366E+02  0.36028062264E+02  0.12700000000E+01 0.  1.
         25    2    1    2    0    0  0.00000000000E+00  0.00000000000E+00  0.72415529654E+02  0.14445670115E+03  0.12499491818E+03 0.  0.
    9000005    1    3    3    0    0  0.53989361412E+02  0.25503067664E+02  0.57507636762E+02  0.82905885750E+02  0.10000000000E+01 0.  0.
    9000005    1    3    3    0    0 -0.53989361412E+02 -0.25503067664E+02  0.14907892892E+02  0.61550815400E+02  0.10000000000E+01 0.  0.
<mgrwt>
<rscale>  0 0.12499492E+03</rscale>
<asrwt>0</asrwt>
<pdfrwt beam="1">  1        4 0.16682479E-01 0.12499492E+03</pdfrwt>
<pdfrwt beam="2">  1       -4 0.55416286E-02 0.12499492E+03</pdfrwt>
<totfact> 0.10043188E+04</totfact>
</mgrwt>
</event>
<event>
 5    1  0.3300771E-002  0.1249889E+03  0.7818608E-02  0.1235087E+00
          4   -1    0    0  501    0  0.00000000000E+00  0.00000000000E+00  0.15885415106E+03  0.15885922764E+03  0.12700000000E+01 0.  1.
         -4   -1    0    0    0  501 -0.00000000000E+00 -0.00000000000E+00 -0.24563942906E+02  0.24596751636E+02  0.12700000000E+01 0.  1.
         25    2    1    2    0    0  0.00000000000E+00  0.00000000000E+00  0.13429020815E+03  0.18345597928E+03  0.12498894483E+03 0.  0.
    9000005    1    3    3    0    0 -0.60180086205E+02 -0.16807064895E+02  0.68117473352E+02  0.92439766237E+02  0.10000000000E+01 0.  0.
    9000005    1    3    3    0    0  0.60180086205E+02  0.16807064895E+02  0.66172734798E+02  0.91016213043E+02  0.10000000000E+01 0.  0.
<mgrwt>
<rscale>  0 0.12498894E+03</rscale>
<asrwt>0</asrwt>
<pdfrwt beam="1">  1        4 0.24442014E-01 0.12498894E+03</pdfrwt>
<pdfrwt beam="2">  1       -4 0.37819825E-02 0.12498894E+03</pdfrwt>
<totfact> 0.93021637E+03</totfact>
</mgrwt>
</event>
<event>
 5    1  0.3300771E-002  0.1250017E+03  0.7818608E-02  0.1235067E+00
         -4   -1    0    0    0  501 -0.00000000000E+00  0.00000000000E+00  0.29390748643E+03  0.29391023031E+03  0.12700000000E+01 0.  1.
          4   -1    0    0  501    0  0.00000000000E+00 -0.00000000000E+00 -0.13257967205E+02  0.13318655878E+02  0.12700000000E+01 0.  1.
         25    2    1    2    0    0  0.00000000000E+00  0.00000000000E+00  0.28064951922E+03  0.30722888618E+03  0.12500174345E+03 0.  0.
    9000005    1    3    3    0    0 -0.16214347278E+01  0.59489501079E+02  0.93450432522E+02  0.11079536600E+03  0.10000000000E+01 0.  0.
    9000005    1    3    3    0    0  0.16214347278E+01 -0.59489501079E+02  0.18719908670E+03  0.19643352018E+03  0.10000000000E+01 0.  0.
<mgrwt>
<rscale>  0 0.12500174E+03</rscale>
<asrwt>0</asrwt>
<pdfrwt beam="2">  1        4 0.20445669E-02 0.12500174E+03</pdfrwt>
<pdfrwt beam="1">  1       -4 0.45221411E-01 0.12500174E+03</pdfrwt>
<totfact> 0.74698028E+03</totfact>
</mgrwt>
</event>
<event>
 5    1  0.3300771E-002  0.1250011E+03  0.7818608E-02  0.1235068E+00
         -4   -1    0    0    0  501 -0.00000000000E+00  0.00000000000E+00  0.12848500642E+03  0.12849128288E+03  0.12700000000E+01 0. -1.
          4   -1    0    0  501    0  0.00000000000E+00 -0.00000000000E+00 -0.30382631834E+02  0.30409163375E+02  0.12700000000E+01 0. -1.
         25    2    1    2    0    0  0.00000000000E+00  0.00000000000E+00  0.98102374587E+02  0.15890044625E+03  0.12500110367E+03 0.  0.
    9000005    1    3    3    0    0  0.54892883269E+02  0.24993901557E+02  0.28264365253E+02  0.66616800372E+02  0.10000000000E+01 0.  0.
    9000005    1    3    3    0    0 -0.54892883269E+02 -0.24993901557E+02  0.69838009334E+02  0.92283645878E+02  0.10000000000E+01 0.  0.
<mgrwt>
<rscale>  0 0.12500110E+03</rscale>
<asrwt>0</asrwt>
<pdfrwt beam="2">  1        4 0.46767748E-02 0.12500110E+03</pdfrwt>
<pdfrwt beam="1">  1       -4 0.19769448E-01 0.12500110E+03</pdfrwt>
<totfact> 0.97552769E+03</totfact>
</mgrwt>
</event>
<event>
 5    1  0.3300771E-002  0.1250000E+03  0.7818608E-02  0.1235069E+00
          4   -1    0    0  501    0  0.00000000000E+00  0.00000000000E+00  0.35133540060E+03  0.35133769597E+03  0.12700000000E+01 0. -1.
         -4   -1    0    0    0  501 -0.00000000000E+00 -0.00000000000E+00 -0.11079679634E+02  0.11152228512E+02  0.12700000000E+01 0. -1.
         25    2    1    2    0    0  0.00000000000E+00  0.00000000000E+00  0.34025572096E+03  0.36248992449E+03  0.12499995883E+03 0.  0.
    9000005    1    3    3    0    0 -0.48058632961E+02 -0.37920426009E+02  0.20653965071E+03  0.21542334652E+03  0.10000000000E+01 0.  0.
    9000005    1    3    3    0    0  0.48058632961E+02  0.37920426009E+02  0.13371607025E+03  0.14706657796E+03  0.10000000000E+01 0.  0.
<mgrwt>
<rscale>  0 0.12499996E+03</rscale>
<asrwt>0</asrwt>
<pdfrwt beam="1">  1        4 0.54057363E-01 0.12499996E+03</pdfrwt>
<pdfrwt beam="2">  1       -4 0.17103232E-02 0.12499996E+03</pdfrwt>
<totfact> 0.68372076E+03</totfact>
</mgrwt>
</event>
<event>
 5    1  0.3300771E-002  0.1249982E+03  0.7818608E-02  0.1235072E+00
         -4   -1    0    0    0  501 -0.00000000000E+00  0.00000000000E+00  0.54812660971E+02  0.54827371839E+02  0.12700000000E+01 0. -1.
          4   -1    0    0  501    0  0.00000000000E+00 -0.00000000000E+00 -0.71233516040E+02  0.71244836356E+02  0.12700000000E+01 0. -1.
         25    2    1    2    0    0  0.00000000000E+00  0.00000000000E+00 -0.16420855069E+02  0.12607220819E+03  0.12499822878E+03 0.  0.
    9000005    1    3    3    0    0 -0.57290156941E+02  0.17505404732E+02 -0.26154806928E+02  0.65373352390E+02  0.10000000000E+01 0.  0.
    9000005    1    3    3    0    0  0.57290156941E+02 -0.17505404732E+02  0.97339518597E+01  0.60698855805E+02  0.10000000000E+01 0.  0.
<mgrwt>
<rscale>  0 0.12499823E+03</rscale>
<asrwt>0</asrwt>
<pdfrwt beam="2">  1        4 0.10961005E-01 0.12499823E+03</pdfrwt>
<pdfrwt beam="1">  1       -4 0.84347195E-02 0.12499823E+03</pdfrwt>
<totfact> 0.10429792E+04</totfact>
</mgrwt>
</event>
<event>
 5    1  0.3300771E-002  0.1250094E+03  0.7818608E-02  0.1235055E+00
          4   -1    0    0  501    0  0.00000000000E+00  0.00000000000E+00  0.30173593318E+03  0.30173860587E+03  0.12700000000E+01 0.  1.
         -4   -1    0    0    0  501 -0.00000000000E+00 -0.00000000000E+00 -0.12913989447E+02  0.12976286967E+02  0.12700000000E+01 0.  1.
         25    2    1    2    0    0  0.00000000000E+00  0.00000000000E+00  0.28882194373E+03  0.31471489283E+03  0.12500939401E+03 0.  0.
    9000005    1    3    3    0    0  0.39624465609E+02 -0.18446068594E+02  0.25687107823E+03  0.26056497568E+03  0.10000000000E+01 0.  0.
    9000005    1    3    3    0    0 -0.39624465609E+02  0.18446068594E+02  0.31950865501E+02  0.54149917152E+02  0.10000000000E+01 0.  0.
<mgrwt>
<rscale>  0 0.12500939E+03</rscale>
<asrwt>0</asrwt>
<pdfrwt beam="1">  1        4 0.46425907E-01 0.12500939E+03</pdfrwt>
<pdfrwt beam="2">  1       -4 0.19917655E-02 0.12500939E+03</pdfrwt>
<totfact> 0.73773792E+03</totfact>
</mgrwt>
</event>
<event>
 5    1  0.3300771E-002  0.1250047E+03  0.7818608E-02  0.1235062E+00
          4   -1    0    0  501    0  0.00000000000E+00  0.00000000000E+00  0.38779929880E+02  0.38800719858E+02  0.12700000000E+01 0.  1.
         -4   -1    0    0    0  501 -0.00000000000E+00 -0.00000000000E+00 -0.10068440984E+03  0.10069241920E+03  0.12700000000E+01 0.  1.
         25    2    1    2    0    0  0.00000000000E+00  0.00000000000E+00 -0.61904479961E+02  0.13949313906E+03  0.12500468474E+03 0.  0.
    9000005    1    3    3    0    0 -0.62766312367E+01  0.21622732307E+02 -0.96006666085E+02  0.98616522880E+02  0.10000000000E+01 0.  0.
    9000005    1    3    3    0    0  0.62766312367E+01 -0.21622732307E+02  0.34102186124E+02  0.40876616182E+02  0.10000000000E+01 0.  0.
<mgrwt>
<rscale>  0 0.12500468E+03</rscale>
<asrwt>0</asrwt>
<pdfrwt beam="1">  1        4 0.59683585E-02 0.12500468E+03</pdfrwt>
<pdfrwt beam="2">  1       -4 0.15492124E-01 0.12500468E+03</pdfrwt>
<totfact> 0.10143031E+04</totfact>
</mgrwt>
</event>
<event>
 5    1  0.3300771E-002  0.1249988E+03  0.7818608E-02  0.1235071E+00
         -4   -1    0    0    0  501 -0.00000000000E+00  0.00000000000E+00  0.47856733015E+02  0.47873581387E+02  0.12700000000E+01 0.  1.
          4   -1    0    0  501    0  0.00000000000E+00 -0.00000000000E+00 -0.81586151184E+02  0.81596035229E+02  0.12700000000E+01 0.  1.
         25    2    1    2    0    0  0.00000000000E+00  0.00000000000E+00 -0.33729418170E+02  0.12946961662E+03  0.12499883190E+03 0.  0.
    9000005    1    3    3    0    0 -0.16049020019E+02  0.27617724672E+02 -0.72496728249E+02  0.79228059212E+02  0.10000000000E+01 0.  0.
    9000005    1    3    3    0    0  0.16049020019E+02 -0.27617724672E+02  0.38767310079E+02  0.50241557404E+02  0.10000000000E+01 0.  0.
<mgrwt>
<rscale>  0 0.12499883E+03</rscale>
<asrwt>0</asrwt>
<pdfrwt beam="2">  1        4 0.12553772E-01 0.12499883E+03</pdfrwt>
<pdfrwt beam="1">  1       -4 0.73646307E-02 0.12499883E+03</pdfrwt>
<totfact> 0.10356140E+04</totfact>
</mgrwt>
</event>
<event>
 5    1  0.3300771E-002  0.1250083E+03  0.7818608E-02  0.1235056E+00
          4   -1    0    0  501    0  0.00000000000E+00  0.00000000000E+00  0.34909544957E+02  0.34932638451E+02  0.12700000000E+01 0.  1.
         -4   -1    0    0    0  501 -0.00000000000E+00 -0.00000000000E+00 -0.11184750978E+03  0.11185471981E+03  0.12700000000E+01 0.  1.
         25    2    1    2    0    0  0.00000000000E+00  0.00000000000E+00 -0.76937964822E+02  0.14678735826E+03  0.12500831218E+03 0.  0.
    9000005    1    3    3    0    0  0.91319144984E+01  0.48933155139E+02 -0.82840298323E+02  0.96650714227E+02  0.10000000000E+01 0.  0.
    9000005    1    3    3    0    0 -0.91319144984E+01 -0.48933155139E+02  0.59023335016E+01  0.50136644034E+02  0.10000000000E+01 0.  0.
<mgrwt>
<rscale>  0 0.12500831E+03</rscale>
<asrwt>0</asrwt>
<pdfrwt beam="1">  1        4 0.53730303E-02 0.12500831E+03</pdfrwt>
<pdfrwt beam="2">  1       -4 0.17209640E-01 0.12500831E+03</pdfrwt>
<totfact> 0.99929287E+03</totfact>
</mgrwt>
</event>
<event>
 5    1  0.3300771E-002  0.1249986E+03  0.7818608E-02  0.1235071E+00
         -4   -1    0    0    0  501 -0.00000000000E+00  0.00000000000E+00  0.18893061417E+03  0.18893488262E+03  0.12700000000E+01 0. -1.
          4   -1    0    0  501    0  0.00000000000E+00 -0.00000000000E+00 -0.20651122085E+02  0.20690136378E+02  0.12700000000E+01 0. -1.
         25    2    1    2    0    0  0.00000000000E+00  0.00000000000E+00  0.16827949209E+03  0.20962501900E+03  0.12499864453E+03 0.  0.
    9000005    1    3    3    0    0  0.34700615618E+01  0.40826161902E+02  0.50109821985E+01  0.41290758838E+02  0.10000000000E+01 0.  0.
    9000005    1    3    3    0    0 -0.34700615618E+01 -0.40826161902E+02  0.16326850989E+03  0.16833426016E+03  0.10000000000E+01 0.  0.
<mgrwt>
<rscale>  0 0.12499864E+03</rscale>
<asrwt>0</asrwt>
<pdfrwt beam="2">  1        4 0.31804252E-02 0.12499864E+03</pdfrwt>
<pdfrwt beam="1">  1       -4 0.29069577E-01 0.12499864E+03</pdfrwt>
<totfact> 0.88539840E+03</totfact>
</mgrwt>
</event>
<event>
 5    1  0.3300771E-002  0.1250122E+03  0.7818608E-02  0.1235050E+00
         -4   -1    0    0    0  501 -0.00000000000E+00  0.00000000000E+00  0.23508725861E+02  0.23543005152E+02  0.12700000000E+01 0.  1.
          4   -1    0    0  501    0  0.00000000000E+00 -0.00000000000E+00 -0.16603625022E+03  0.16604110722E+03  0.12700000000E+01 0.  1.
         25    2    1    2    0    0  0.00000000000E+00  0.00000000000E+00 -0.14252752436E+03  0.18958411238E+03  0.12501216127E+03 0.  0.
    9000005    1    3    3    0    0 -0.30122741792E+02 -0.47140279431E+02 -0.11352082617E+03  0.12656051316E+03  0.10000000000E+01 0.  0.
    9000005    1    3    3    0    0  0.30122741792E+02  0.47140279431E+02 -0.29006698195E+02  0.63023599215E+02  0.10000000000E+01 0.  0.
<mgrwt>
<rscale>  0 0.12501216E+03</rscale>
<asrwt>0</asrwt>
<pdfrwt beam="2">  1        4 0.25547048E-01 0.12501216E+03</pdfrwt>
<pdfrwt beam="1">  1       -4 0.36197376E-02 0.12501216E+03</pdfrwt>
<totfact> 0.91894692E+03</totfact>
</mgrwt>
</event>
<event>
 4    1  0.3300771E-002  0.1247736E+03  0.7818608E-02  0.1235424E+00
          4   -1    0    0  501    0  0.00000000000E+00  0.00000000000E+00  0.96723250763E+02  0.96731588109E+02  0.12700000000E+01 0.  1.
         -4   -1    0    0    0  501 -0.00000000000E+00 -0.00000000000E+00 -0.40219586094E+02  0.40239632274E+02  0.12700000000E+01 0.  1.
    9000005    1    1    2    0    0 -0.28556920773E+02 -0.69349292166E+01  0.88653685302E+02  0.93402713478E+02  0.10000000000E+01 0.  0.
    9000005    1    1    2    0    0  0.28556920773E+02  0.69349292166E+01 -0.32150020633E+02  0.43568506906E+02  0.10000000000E+01 0.  0.
<mgrwt>
<rscale>  0 0.12477360E+03</rscale>
<asrwt>0</asrwt>
<pdfrwt beam="1">  1        4 0.14882683E-01 0.12477360E+03</pdfrwt>
<pdfrwt beam="2">  1       -4 0.61898120E-02 0.12477360E+03</pdfrwt>
<totfact> 0.10248914E+04</totfact>
</mgrwt>
</event>
<event>
 5    1  0.3300771E-002  0.1249990E+03  0.7818608E-02  0.1235071E+00
          4   -1    0    0  501    0  0.00000000000E+00  0.00000000000E+00  0.26189620656E+03  0.26189928582E+03  0.12700000000E+01 0. -1.
         -4   -1    0    0    0  501 -0.00000000000E+00 -0.00000000000E+00 -0.14884802616E+02  0.14938883791E+02  0.12700000000E+01 0. -1.
         25    2    1    2    0    0  0.00000000000E+00  0.00000000000E+00  0.24701140395E+03  0.27683816961E+03  0.12499895388E+03 0.  0.
    9000005    1    3    3    0    0 -0.11718510318E+02 -0.60096265906E+02  0.95817227938E+02  0.11371378909E+03  0.10000000000E+01 0.  0.
    9000005    1    3    3    0    0  0.11718510318E+02  0.60096265906E+02  0.15119417601E+03  0.16312438052E+03  0.10000000000E+01 0.  0.
<mgrwt>
<rscale>  0 0.12499895E+03</rscale>
<asrwt>0</asrwt>
<pdfrwt beam="1">  1        4 0.40296121E-01 0.12499895E+03</pdfrwt>
<pdfrwt beam="2">  1       -4 0.22943666E-02 0.12499895E+03</pdfrwt>
<totfact> 0.78601044E+03</totfact>
</mgrwt>
</event>
<event>
 5    1  0.3300771E-002  0.1250007E+03  0.7818608E-02  0.1235068E+00
          4   -1    0    0  501    0  0.00000000000E+00  0.00000000000E+00  0.18252011059E+02  0.18296141880E+02  0.12700000000E+01 0. -1.
         -4   -1    0    0    0  501 -0.00000000000E+00 -0.00000000000E+00 -0.21371541072E+03  0.21371918416E+03  0.12700000000E+01 0. -1.
         25    2    1    2    0    0  0.00000000000E+00  0.00000000000E+00 -0.19546339966E+03  0.23201532604E+03  0.12500068364E+03 0.  0.
    9000005    1    3    3    0    0  0.29354882849E+02  0.88502958396E+01  0.33413500444E+01  0.30857762453E+02  0.10000000000E+01 0.  0.
    9000005    1    3    3    0    0 -0.29354882849E+02 -0.88502958396E+01 -0.19880474971E+03  0.20115756359E+03  0.10000000000E+01 0.  0.
<mgrwt>
<rscale>  0 0.12500068E+03</rscale>
<asrwt>0</asrwt>
<pdfrwt beam="1">  1        4 0.28116868E-02 0.12500068E+03</pdfrwt>
<pdfrwt beam="2">  1       -4 0.32882977E-01 0.12500068E+03</pdfrwt>
<totfact> 0.84999804E+03</totfact>
</mgrwt>
</event>
<event>
 5    1  0.3300771E-002  0.1249996E+03  0.7818608E-02  0.1235070E+00
          4   -1    0    0  501    0  0.00000000000E+00  0.00000000000E+00  0.17347411498E+02  0.17393837578E+02  0.12700000000E+01 0.  1.
         -4   -1    0    0    0  501 -0.00000000000E+00 -0.00000000000E+00 -0.22482720575E+03  0.22483079270E+03  0.12700000000E+01 0.  1.
         25    2    1    2    0    0  0.00000000000E+00  0.00000000000E+00 -0.20747979425E+03  0.24222463027E+03  0.12499962596E+03 0.  0.
    9000005    1    3    3    0    0  0.16609188995E+02  0.56654876808E+02 -0.14343347879E+03  0.15511222731E+03  0.10000000000E+01 0.  0.
    9000005    1    3    3    0    0 -0.16609188995E+02 -0.56654876808E+02 -0.64046315464E+02  0.87112402961E+02  0.10000000000E+01 0.  0.
<mgrwt>
<rscale>  0 0.12499963E+03</rscale>
<asrwt>0</asrwt>
<pdfrwt beam="1">  1        4 0.26726799E-02 0.12499963E+03</pdfrwt>
<pdfrwt beam="2">  1       -4 0.34592646E-01 0.12499963E+03</pdfrwt>
<totfact> 0.83467857E+03</totfact>
</mgrwt>
</event>
<event>
 5    1  0.3300771E-002  0.1249999E+03  0.7818608E-02  0.1235069E+00
          4   -1    0    0  501    0  0.00000000000E+00  0.00000000000E+00  0.67662500055E+01  0.68844055036E+01  0.12700000000E+01 0.  1.
         -4   -1    0    0    0  501 -0.00000000000E+00 -0.00000000000E+00 -0.57219711760E+03  0.57219852699E+03  0.12700000000E+01 0.  1.
         25    2    1    2    0    0  0.00000000000E+00  0.00000000000E+00 -0.56543086759E+03  0.57908293249E+03  0.12499990671E+03 0.  0.
    9000005    1    3    3    0    0 -0.48834240165E+02 -0.82221163285E+01 -0.45929589821E+03  0.46195898987E+03  0.10000000000E+01 0.  0.
    9000005    1    3    3    0    0  0.48834240165E+02  0.82221163285E+01 -0.10613496938E+03  0.11712394262E+03  0.10000000000E+01 0.  0.
<mgrwt>
<rscale>  0 0.12499991E+03</rscale>
<asrwt>0</asrwt>
<pdfrwt beam="1">  1        4 0.10501593E-02 0.12499991E+03</pdfrwt>
<pdfrwt beam="2">  1       -4 0.88039485E-01 0.12499991E+03</pdfrwt>
<totfact> 0.50215266E+03</totfact>
</mgrwt>
</event>
<event>
 5    1  0.3300771E-002  0.1250006E+03  0.7818608E-02  0.1235068E+00
          4   -1    0    0  501    0  0.00000000000E+00  0.00000000000E+00  0.86236349067E+02  0.86245700185E+02  0.12700000000E+01 0. -1.
         -4   -1    0    0    0  501 -0.00000000000E+00 -0.00000000000E+00 -0.45276722103E+02  0.45294530181E+02  0.12700000000E+01 0. -1.
         25    2    1    2    0    0  0.00000000000E+00  0.00000000000E+00  0.40959626965E+02  0.13154023037E+03  0.12500056465E+03 0.  0.
    9000005    1    3    3    0    0  0.70473705302E+01 -0.31732353665E+02 -0.35685511078E+02  0.48281087409E+02  0.10000000000E+01 0.  0.
    9000005    1    3    3    0    0 -0.70473705302E+01  0.31732353665E+02  0.76645138043E+02  0.83259142958E+02  0.10000000000E+01 0.  0.
<mgrwt>
<rscale>  0 0.12500056E+03</rscale>
<asrwt>0</asrwt>
<pdfrwt beam="1">  1        4 0.13269220E-01 0.12500056E+03</pdfrwt>
<pdfrwt beam="2">  1       -4 0.69677388E-02 0.12500056E+03</pdfrwt>
<totfact> 0.10311390E+04</totfact>
</mgrwt>
</event>
<event>
 5    1  0.3300771E-002  0.1249972E+03  0.7818608E-02  0.1235074E+00
          4   -1    0    0  501    0  0.00000000000E+00  0.00000000000E+00  0.25218460125E+02  0.25250418433E+02  0.12700000000E+01 0. -1.
         -4   -1    0    0    0  501 -0.00000000000E+00 -0.00000000000E+00 -0.15475680435E+03  0.15476201534E+03  0.12700000000E+01 0. -1.
         25    2    1    2    0    0  0.00000000000E+00  0.00000000000E+00 -0.12953834422E+03  0.18001243377E+03  0.12499717472E+03 0.  0.
    9000005    1    3    3    0    0  0.15712403183E+02  0.12228018526E+02  0.20535639775E+02  0.28620212295E+02  0.10000000000E+01 0.  0.
    9000005    1    3    3    0    0 -0.15712403183E+02 -0.12228018526E+02 -0.15007398400E+03  0.15139222148E+03  0.10000000000E+01 0.  0.
<mgrwt>
<rscale>  0 0.12499717E+03</rscale>
<asrwt>0</asrwt>
<pdfrwt beam="1">  1        4 0.38826224E-02 0.12499717E+03</pdfrwt>
<pdfrwt beam="2">  1       -4 0.23811598E-01 0.12499717E+03</pdfrwt>
<totfact> 0.93620696E+03</totfact>
</mgrwt>
</event>
<event>
 5    1  0.3300771E-002  0.1250019E+03  0.7818608E-02  0.1235066E+00
         -4   -1    0    0    0  501 -0.00000000000E+00  0.00000000000E+00  0.24029745309E+03  0.24030080911E+03  0.12700000000E+01 0.  1.
          4   -1    0    0  501    0  0.00000000000E+00 -0.00000000000E+00 -0.16228113401E+02  0.16277732168E+02  0.12700000000E+01 0.  1.
         25    2    1    2    0    0  0.00000000000E+00  0.00000000000E+00  0.22406933969E+03  0.25657854128E+03  0.12500191542E+03 0.  0.
    9000005    1    3    3    0    0  0.23081639232E+02 -0.45900714390E+02  0.18506017246E+03  0.19206224273E+03  0.10000000000E+01 0.  0.
    9000005    1    3    3    0    0 -0.23081639232E+02  0.45900714390E+02  0.39009167227E+02  0.64516298552E+02  0.10000000000E+01 0.  0.
<mgrwt>
<rscale>  0 0.12500192E+03</rscale>
<asrwt>0</asrwt>
<pdfrwt beam="2">  1        4 0.25007077E-02 0.12500192E+03</pdfrwt>
<pdfrwt beam="1">  1       -4 0.36972915E-01 0.12500192E+03</pdfrwt>
<totfact> 0.81385151E+03</totfact>
</mgrwt>
</event>
<event>
 5    1  0.3300771E-002  0.1249978E+03  0.7818608E-02  0.1235073E+00
          4   -1    0    0  501    0  0.00000000000E+00  0.00000000000E+00  0.90258519987E+01  0.91147629866E+01  0.12700000000E+01 0.  1.
         -4   -1    0    0    0  501 -0.00000000000E+00 -0.00000000000E+00 -0.43055878099E+03  0.43056065402E+03  0.12700000000E+01 0.  1.
         25    2    1    2    0    0  0.00000000000E+00  0.00000000000E+00 -0.42153292899E+03  0.43967541701E+03  0.12499784836E+03 0.  0.
    9000005    1    3    3    0    0  0.52399388222E+02  0.34034963356E+02 -0.21435515113E+03  0.22327831385E+03  0.10000000000E+01 0.  0.
    9000005    1    3    3    0    0 -0.52399388222E+02 -0.34034963356E+02 -0.20717777786E+03  0.21639710316E+03  0.10000000000E+01 0.  0.
<mgrwt>
<rscale>  0 0.12499785E+03</rscale>
<asrwt>0</asrwt>
<pdfrwt beam="1">  1        4 0.13955763E-02 0.12499785E+03</pdfrwt>
<pdfrwt beam="2">  1       -4 0.66246780E-01 0.12499785E+03</pdfrwt>
<totfact> 0.60871553E+03</totfact>
</mgrwt>
</event>
<event>
 5    1  0.3300771E-002  0.1250125E+03  0.7818608E-02  0.1235050E+00
         -4   -1    0    0    0  501 -0.00000000000E+00  0.00000000000E+00  0.41806394407E+02  0.41825680069E+02  0.12700000000E+01 0. -1.
          4   -1    0    0  501    0  0.00000000000E+00 -0.00000000000E+00 -0.93410196447E+02  0.93418829474E+02  0.12700000000E+01 0. -1.
         25    2    1    2    0    0  0.00000000000E+00  0.00000000000E+00 -0.51603802040E+02  0.13524450954E+03  0.12501249928E+03 0.  0.
    9000005    1    3    3    0    0  0.28132482818E+01  0.56950164506E+02  0.18814777785E+01  0.57059403798E+02  0.10000000000E+01 0.  0.
    9000005    1    3    3    0    0 -0.28132482818E+01 -0.56950164506E+02 -0.53485279819E+02  0.78185105745E+02  0.10000000000E+01 0.  0.
<mgrwt>
<rscale>  0 0.12501250E+03</rscale>
<asrwt>0</asrwt>
<pdfrwt beam="2">  1        4 0.14372947E-01 0.12501250E+03</pdfrwt>
<pdfrwt beam="1">  1       -4 0.64339006E-02 0.12501250E+03</pdfrwt>
<totfact> 0.10230036E+04</totfact>
</mgrwt>
</event>
<event>
 5    1  0.3300771E-002  0.1250040E+03  0.7818608E-02  0.1235063E+00
          4   -1    0    0  501    0  0.00000000000E+00  0.00000000000E+00  0.93413215250E+02  0.93421847998E+02  0.12700000000E+01 0.  1.
         -4   -1    0    0    0  501 -0.00000000000E+00 -0.00000000000E+00 -0.41799352009E+02  0.41818640920E+02  0.12700000000E+01 0.  1.
         25    2    1    2    0    0  0.00000000000E+00  0.00000000000E+00  0.51613863241E+02  0.13524048892E+03  0.12500399579E+03 0.  0.
    9000005    1    3    3    0    0  0.26014637517E+02 -0.27173101667E+01  0.87211700842E+02  0.91055070718E+02  0.10000000000E+01 0.  0.
    9000005    1    3    3    0    0 -0.26014637517E+02  0.27173101667E+01 -0.35597837601E+02  0.44185418200E+02  0.10000000000E+01 0.  0.
<mgrwt>
<rscale>  0 0.12500400E+03</rscale>
<asrwt>0</asrwt>
<pdfrwt beam="1">  1        4 0.14373412E-01 0.12500400E+03</pdfrwt>
<pdfrwt beam="2">  1       -4 0.64328174E-02 0.12500400E+03</pdfrwt>
<totfact> 0.10232082E+04</totfact>
</mgrwt>
</event>
<event>
 5    1  0.3300771E-002  0.1250026E+03  0.7818608E-02  0.1235065E+00
          4   -1    0    0  501    0  0.00000000000E+00  0.00000000000E+00  0.34357938538E+01  0.36630014204E+01  0.12700000000E+01 0.  1.
         -4   -1    0    0    0  501 -0.00000000000E+00 -0.00000000000E+00 -0.11003569949E+04  0.11003577278E+04  0.12700000000E+01 0.  1.
         25    2    1    2    0    0  0.00000000000E+00  0.00000000000E+00 -0.10969212010E+04  0.11040207292E+04  0.12500259693E+03 0.  0.
    9000005    1    3    3    0    0 -0.60986293598E+02  0.13588810096E+02 -0.53790446688E+03  0.54152211335E+03  0.10000000000E+01 0.  0.
    9000005    1    3    3    0    0  0.60986293598E+02 -0.13588810096E+02 -0.55901673413E+03  0.56249861583E+03  0.10000000000E+01 0.  0.
<mgrwt>
<rscale>  0 0.12500260E+03</rscale>
<asrwt>0</asrwt>
<pdfrwt beam="1">  1        4 0.54611843E-03 0.12500260E+03</pdfrwt>
<pdfrwt beam="2">  1       -4 0.16930295E+00 0.12500260E+03</pdfrwt>
<totfact> 0.27364514E+03</totfact>
</mgrwt>
</event>
<event>
 5    1  0.3300771E-002  0.1250338E+03  0.7818608E-02  0.1235016E+00
         -4   -1    0    0    0  501 -0.00000000000E+00  0.00000000000E+00  0.27751025454E+03  0.27751316054E+03  0.12700000000E+01 0. -1.
          4   -1    0    0  501    0  0.00000000000E+00 -0.00000000000E+00 -0.14052050034E+02  0.14109323519E+02  0.12700000000E+01 0. -1.
         25    2    1    2    0    0  0.00000000000E+00  0.00000000000E+00  0.26345820451E+03  0.29162248406E+03  0.12503378619E+03 0.  0.
    9000005    1    3    3    0    0  0.36427243935E+02  0.22666888633E+02  0.25700024141E+02  0.50022226878E+02  0.10000000000E+01 0.  0.
    9000005    1    3    3    0    0 -0.36427243935E+02 -0.22666888633E+02  0.23775818037E+03  0.24160025718E+03  0.10000000000E+01 0.  0.
<mgrwt>
<rscale>  0 0.12503379E+03</rscale>
<asrwt>0</asrwt>
<pdfrwt beam="2">  1        4 0.21664832E-02 0.12503379E+03</pdfrwt>
<pdfrwt beam="1">  1       -4 0.42698511E-01 0.12503379E+03</pdfrwt>
<totfact> 0.76604361E+03</totfact>
</mgrwt>
</event>
<event>
 5    1  0.3300771E-002  0.1249903E+03  0.7818608E-02  0.1235084E+00
          4   -1    0    0  501    0  0.00000000000E+00  0.00000000000E+00  0.50345995049E+02  0.50362010657E+02  0.12700000000E+01 0.  1.
         -4   -1    0    0    0  501 -0.00000000000E+00 -0.00000000000E+00 -0.77542521873E+02  0.77552921276E+02  0.12700000000E+01 0.  1.
         25    2    1    2    0    0  0.00000000000E+00  0.00000000000E+00 -0.27196526824E+02  0.12791493193E+03  0.12499031459E+03 0.  0.
    9000005    1    3    3    0    0  0.59247113101E+02 -0.16645006185E+02 -0.24685410654E+02  0.66314750553E+02  0.10000000000E+01 0.  0.
    9000005    1    3    3    0    0 -0.59247113101E+02  0.16645006185E+02 -0.25111161703E+01  0.61600181381E+02  0.10000000000E+01 0.  0.
<mgrwt>
<rscale>  0 0.12499031E+03</rscale>
<asrwt>0</asrwt>
<pdfrwt beam="1">  1        4 0.77475696E-02 0.12499031E+03</pdfrwt>
<pdfrwt beam="2">  1       -4 0.11931651E-01 0.12499031E+03</pdfrwt>
<totfact> 0.10391597E+04</totfact>
</mgrwt>
</event>
<event>
 5    1  0.3300771E-002  0.1249992E+03  0.7818608E-02  0.1235070E+00
          4   -1    0    0  501    0  0.00000000000E+00  0.00000000000E+00  0.17585394942E+02  0.17631194380E+02  0.12700000000E+01 0. -1.
         -4   -1    0    0    0  501 -0.00000000000E+00 -0.00000000000E+00 -0.22179111262E+03  0.22179474867E+03  0.12700000000E+01 0. -1.
         25    2    1    2    0    0  0.00000000000E+00  0.00000000000E+00 -0.20420571768E+03  0.23942594305E+03  0.12499922829E+03 0.  0.
    9000005    1    3    3    0    0 -0.59644675560E+02 -0.11310735234E+02 -0.73706696338E+02  0.95493963889E+02  0.10000000000E+01 0.  0.
    9000005    1    3    3    0    0  0.59644675560E+02  0.11310735234E+02 -0.13049902134E+03  0.14393197916E+03  0.10000000000E+01 0.  0.
<mgrwt>
<rscale>  0 0.12499923E+03</rscale>
<asrwt>0</asrwt>
<pdfrwt beam="1">  1        4 0.27092483E-02 0.12499923E+03</pdfrwt>
<pdfrwt beam="2">  1       -4 0.34125510E-01 0.12499923E+03</pdfrwt>
<totfact> 0.83884381E+03</totfact>
</mgrwt>
</event>
<event>
 5    1  0.3300771E-002  0.1250006E+03  0.7818608E-02  0.1235068E+00
          4   -1    0    0  501    0  0.00000000000E+00  0.00000000000E+00  0.91885714057E+02  0.91894490301E+02  0.12700000000E+01 0.  1.
         -4   -1    0    0    0  501 -0.00000000000E+00 -0.00000000000E+00 -0.42492155234E+02  0.42511129795E+02  0.12700000000E+01 0.  1.
         25    2    1    2    0    0  0.00000000000E+00  0.00000000000E+00  0.49393558823E+02  0.13440562010E+03  0.12500058824E+03 0.  0.
    9000005    1    3    3    0    0  0.19824598266E+02 -0.25789306075E+02 -0.32676955319E+02  0.46118178771E+02  0.10000000000E+01 0.  0.
    9000005    1    3    3    0    0 -0.19824598266E+02  0.25789306075E+02  0.82070514142E+02  0.88287441325E+02  0.10000000000E+01 0.  0.
<mgrwt>
<rscale>  0 0.12500059E+03</rscale>
<asrwt>0</asrwt>
<pdfrwt beam="1">  1        4 0.14138398E-01 0.12500059E+03</pdfrwt>
<pdfrwt beam="2">  1       -4 0.65393894E-02 0.12500059E+03</pdfrwt>
<totfact> 0.10250478E+04</totfact>
</mgrwt>
</event>
<event>
 5    1  0.3300771E-002  0.1250361E+03  0.7818608E-02  0.1235013E+00
         -4   -1    0    0    0  501 -0.00000000000E+00  0.00000000000E+00  0.19169384351E+02  0.19211407975E+02  0.12700000000E+01 0.  1.
          4   -1    0    0  501    0  0.00000000000E+00 -0.00000000000E+00 -0.20362605128E+03  0.20363001169E+03  0.12700000000E+01 0.  1.
         25    2    1    2    0    0  0.00000000000E+00  0.00000000000E+00 -0.18445666693E+03  0.22284141966E+03  0.12503614015E+03 0.  0.
    9000005    1    3    3    0    0 -0.10112578378E+02 -0.33865355085E+02 -0.33815429983E+00  0.35358745238E+02  0.10000000000E+01 0.  0.
    9000005    1    3    3    0    0  0.10112578378E+02  0.33865355085E+02 -0.18411851263E+03  0.18748267442E+03  0.10000000000E+01 0.  0.
<mgrwt>
<rscale>  0 0.12503614E+03</rscale>
<asrwt>0</asrwt>
<pdfrwt beam="2">  1        4 0.31330621E-01 0.12503614E+03</pdfrwt>
<pdfrwt beam="1">  1       -4 0.29526734E-02 0.12503614E+03</pdfrwt>
<totfact> 0.86351012E+03</totfact>
</mgrwt>
</event>
<event>
 5    1  0.3300771E-002  0.1250153E+03  0.7818608E-02  0.1235045E+00
         -4   -1    0    0    0  501 -0.00000000000E+00  0.00000000000E+00  0.12013409904E+02  0.12080352541E+02  0.12700000000E+01 0. -1.
          4   -1    0    0  501    0  0.00000000000E+00 -0.00000000000E+00 -0.32426507987E+03  0.32426756687E+03  0.12700000000E+01 0. -1.
         25    2    1    2    0    0  0.00000000000E+00  0.00000000000E+00 -0.31225166997E+03  0.33634791941E+03  0.12501526905E+03 0.  0.
    9000005    1    3    3    0    0 -0.31488461007E+02 -0.41858146155E+02 -0.24786114042E+03  0.25333727026E+03  0.10000000000E+01 0.  0.
    9000005    1    3    3    0    0  0.31488461007E+02  0.41858146155E+02 -0.64390529553E+02  0.83010649150E+02  0.10000000000E+01 0.  0.
<mgrwt>
<rscale>  0 0.12501527E+03</rscale>
<asrwt>0</asrwt>
<pdfrwt beam="2">  1        4 0.49892270E-01 0.12501527E+03</pdfrwt>
<pdfrwt beam="1">  1       -4 0.18535579E-02 0.12501527E+03</pdfrwt>
<totfact> 0.71228947E+03</totfact>
</mgrwt>
</event>
<event>
 5    1  0.3300771E-002  0.1249906E+03  0.7818608E-02  0.1235084E+00
          4   -1    0    0  501    0  0.00000000000E+00  0.00000000000E+00  0.31165487822E+03  0.31165746584E+03  0.12700000000E+01 0.  1.
         -4   -1    0    0    0  501 -0.00000000000E+00 -0.00000000000E+00 -0.12497180446E+02  0.12561545251E+02  0.12700000000E+01 0.  1.
         25    2    1    2    0    0  0.00000000000E+00  0.00000000000E+00  0.29915769777E+03  0.32421901109E+03  0.12499055572E+03 0.  0.
    9000005    1    3    3    0    0  0.35452881489E+02 -0.49071632208E+02  0.18974132992E+03  0.19916752791E+03  0.10000000000E+01 0.  0.
    9000005    1    3    3    0    0 -0.35452881489E+02  0.49071632208E+02  0.10941636785E+03  0.12505148319E+03  0.10000000000E+01 0.  0.
<mgrwt>
<rscale>  0 0.12499056E+03</rscale>
<asrwt>0</asrwt>
<pdfrwt beam="1">  1        4 0.47952059E-01 0.12499056E+03</pdfrwt>
<pdfrwt beam="2">  1       -4 0.19277932E-02 0.12499056E+03</pdfrwt>
<totfact> 0.72672329E+03</totfact>
</mgrwt>
</event>
<event>
 5    1  0.3300771E-002  0.1250119E+03  0.7818608E-02  0.1235051E+00
          4   -1    0    0  501    0  0.00000000000E+00  0.00000000000E+00  0.22983543298E+02  0.23018604704E+02  0.12700000000E+01 0.  1.
         -4   -1    0    0    0  501 -0.00000000000E+00 -0.00000000000E+00 -0.16982389838E+03  0.16982864705E+03  0.12700000000E+01 0.  1.
         25    2    1    2    0    0  0.00000000000E+00  0.00000000000E+00 -0.14684035508E+03  0.19284725176E+03  0.12501188996E+03 0.  0.
    9000005    1    3    3    0    0 -0.29442618830E+02 -0.41791155023E+02 -0.12888253953E+03  0.13865452548E+03  0.10000000000E+01 0.  0.
    9000005    1    3    3    0    0  0.29442618830E+02  0.41791155023E+02 -0.17957815552E+02  0.54192726275E+02  0.10000000000E+01 0.  0.
<mgrwt>
<rscale>  0 0.12501189E+03</rscale>
<asrwt>0</asrwt>
<pdfrwt beam="1">  1        4 0.35389922E-02 0.12501189E+03</pdfrwt>
<pdfrwt beam="2">  1       -4 0.26129815E-01 0.12501189E+03</pdfrwt>
<totfact> 0.91329930E+03</totfact>
</mgrwt>
</event>
<event>
 5    1  0.3300771E-002  0.1249991E+03  0.7818608E-02  0.1235071E+00
          4   -1    0    0  501    0  0.00000000000E+00  0.00000000000E+00  0.52498379094E+02  0.52513738274E+02  0.12700000000E+01 0.  1.
         -4   -1    0    0    0  501 -0.00000000000E+00 -0.00000000000E+00 -0.74374304923E+02  0.74385147260E+02  0.12700000000E+01 0.  1.
         25    2    1    2    0    0  0.00000000000E+00  0.00000000000E+00 -0.21875925829E+02  0.12689888553E+03  0.12499908407E+03 0.  0.
    9000005    1    3    3    0    0 -0.18892208431E+02 -0.55354411184E+02  0.11400243045E+02  0.59598589903E+02  0.10000000000E+01 0.  0.
    9000005    1    3    3    0    0  0.18892208431E+02  0.55354411184E+02 -0.33276168875E+02  0.67300295630E+02  0.10000000000E+01 0.  0.
<mgrwt>
<rscale>  0 0.12499908E+03</rscale>
<asrwt>0</asrwt>
<pdfrwt beam="1">  1        4 0.80786892E-02 0.12499908E+03</pdfrwt>
<pdfrwt beam="2">  1       -4 0.11444216E-01 0.12499908E+03</pdfrwt>
<totfact> 0.10411558E+04</totfact>
</mgrwt>
</event>
<event>
 5    1  0.3300771E-002  0.1249998E+03  0.7818608E-02  0.1235070E+00
         -4   -1    0    0    0  501 -0.00000000000E+00  0.00000000000E+00  0.28938008759E+02  0.28965863545E+02  0.12700000000E+01 0. -1.
          4   -1    0    0  501    0  0.00000000000E+00 -0.00000000000E+00 -0.13489057053E+03  0.13489654894E+03  0.12700000000E+01 0. -1.
         25    2    1    2    0    0  0.00000000000E+00  0.00000000000E+00 -0.10595256177E+03  0.16386241249E+03  0.12499977953E+03 0.  0.
    9000005    1    3    3    0    0  0.26561059372E+02  0.30853842936E+02 -0.11512721326E+03  0.12211766756E+03  0.10000000000E+01 0.  0.
    9000005    1    3    3    0    0 -0.26561059372E+02 -0.30853842936E+02  0.91746514889E+01  0.41744744925E+02  0.10000000000E+01 0.  0.
<mgrwt>
<rscale>  0 0.12499978E+03</rscale>
<asrwt>0</asrwt>
<pdfrwt beam="2">  1        4 0.20754998E-01 0.12499978E+03</pdfrwt>
<pdfrwt beam="1">  1       -4 0.44546040E-02 0.12499978E+03</pdfrwt>
<totfact> 0.96603746E+03</totfact>
</mgrwt>
</event>
<event>
 5    1  0.3300771E-002  0.1249791E+03  0.7818608E-02  0.1235102E+00
         -4   -1    0    0    0  501 -0.00000000000E+00  0.00000000000E+00  0.60229181517E+03  0.60229315414E+03  0.12700000000E+01 0. -1.
          4   -1    0    0  501    0  0.00000000000E+00 -0.00000000000E+00 -0.64199220381E+01  0.65443333484E+01  0.12700000000E+01 0. -1.
         25    2    1    2    0    0  0.00000000000E+00  0.00000000000E+00  0.59587189313E+03  0.60883748749E+03  0.12497909082E+03 0.  0.
    9000005    1    3    3    0    0 -0.54673566543E+02  0.30234519453E+02  0.29410555819E+03  0.30066992600E+03  0.10000000000E+01 0.  0.
    9000005    1    3    3    0    0  0.54673566543E+02 -0.30234519453E+02  0.30176633495E+03  0.30816756149E+03  0.10000000000E+01 0.  0.
<mgrwt>
<rscale>  0 0.12497909E+03</rscale>
<asrwt>0</asrwt>
<pdfrwt beam="2">  1        4 0.99735327E-03 0.12497909E+03</pdfrwt>
<pdfrwt beam="1">  1       -4 0.92669965E-01 0.12497909E+03</pdfrwt>
<totfact> 0.48336620E+03</totfact>
</mgrwt>
</event>
<event>
 5    1  0.3300771E-002  0.1249999E+03  0.7818608E-02  0.1235069E+00
          4   -1    0    0  501    0  0.00000000000E+00  0.00000000000E+00  0.50740845298E+02  0.50756736317E+02  0.12700000000E+01 0. -1.
         -4   -1    0    0    0  501 -0.00000000000E+00 -0.00000000000E+00 -0.76951055151E+02  0.76961534475E+02  0.12700000000E+01 0. -1.
         25    2    1    2    0    0  0.00000000000E+00  0.00000000000E+00 -0.26210209852E+02  0.12771827079E+03  0.12499992638E+03 0.  0.
    9000005    1    3    3    0    0 -0.46289242093E+02 -0.19055032347E+02  0.25117746668E+02  0.56015081799E+02  0.10000000000E+01 0.  0.
    9000005    1    3    3    0    0  0.46289242093E+02  0.19055032347E+02 -0.51327956521E+02  0.71703188994E+02  0.10000000000E+01 0.  0.
<mgrwt>
<rscale>  0 0.12499993E+03</rscale>
<asrwt>0</asrwt>
<pdfrwt beam="1">  1        4 0.78083124E-02 0.12499993E+03</pdfrwt>
<pdfrwt beam="2">  1       -4 0.11840652E-01 0.12499993E+03</pdfrwt>
<totfact> 0.10393594E+04</totfact>
</mgrwt>
</event>
<event>
 5    1  0.3300771E-002  0.1249786E+03  0.7818608E-02  0.1235103E+00
          4   -1    0    0  501    0  0.00000000000E+00  0.00000000000E+00  0.15808698541E+03  0.15809208663E+03  0.12700000000E+01 0. -1.
         -4   -1    0    0    0  501 -0.00000000000E+00 -0.00000000000E+00 -0.24679207626E+02  0.24711863326E+02  0.12700000000E+01 0. -1.
         25    2    1    2    0    0  0.00000000000E+00  0.00000000000E+00  0.13340777778E+03  0.18280394996E+03  0.12497859396E+03 0.  0.
    9000005    1    3    3    0    0  0.31845362399E+02 -0.13121693939E+02  0.14295447912E+03  0.14704859421E+03  0.10000000000E+01 0.  0.
    9000005    1    3    3    0    0 -0.31845362399E+02  0.13121693939E+02 -0.95467013395E+01  0.35755355747E+02  0.10000000000E+01 0.  0.
<mgrwt>
<rscale>  0 0.12497859E+03</rscale>
<asrwt>0</asrwt>
<pdfrwt beam="1">  1        4 0.24323980E-01 0.12497859E+03</pdfrwt>
<pdfrwt beam="2">  1       -4 0.37997055E-02 0.12497859E+03</pdfrwt>
<totfact> 0.93159397E+03</totfact>
</mgrwt>
</event>
<event>
 5    1  0.3300771E-002  0.1250013E+03  0.7818608E-02  0.1235067E+00
          4   -1    0    0  501    0  0.00000000000E+00  0.00000000000E+00  0.75860721548E+02  0.75871351469E+02  0.12700000000E+01 0. -1.
         -4   -1    0    0    0  501 -0.00000000000E+00 -0.00000000000E+00 -0.51471424806E+02  0.51487090339E+02  0.12700000000E+01 0. -1.
         25    2    1    2    0    0  0.00000000000E+00  0.00000000000E+00  0.24389296742E+02  0.12735844181E+03  0.12500133961E+03 0.  0.
    9000005    1    3    3    0    0 -0.18653976565E+02  0.54108619971E+02  0.37760035398E+02  0.68575023661E+02  0.10000000000E+01 0.  0.
    9000005    1    3    3    0    0  0.18653976565E+02 -0.54108619971E+02 -0.13370738656E+02  0.58783418147E+02  0.10000000000E+01 0.  0.
<mgrwt>
<rscale>  0 0.12500134E+03</rscale>
<asrwt>0</asrwt>
<pdfrwt beam="1">  1        4 0.11672903E-01 0.12500134E+03</pdfrwt>
<pdfrwt beam="2">  1       -4 0.79207035E-02 0.12500134E+03</pdfrwt>
<totfact> 0.10401053E+04</totfact>
</mgrwt>
</event>
<event>
 5    1  0.3300771E-002  0.1250014E+03  0.7818608E-02  0.1235067E+00
         -4   -1    0    0    0  501 -0.00000000000E+00  0.00000000000E+00  0.26681493879E+03  0.26681796128E+03  0.12700000000E+01 0. -1.
          4   -1    0    0  501    0  0.00000000000E+00 -0.00000000000E+00 -0.14609968703E+02  0.14665063434E+02  0.12700000000E+01 0. -1.
         25    2    1    2    0    0  0.00000000000E+00  0.00000000000E+00  0.25220497009E+03  0.28148302471E+03  0.12500138505E+03 0.  0.
    9000005    1    3    3    0    0  0.40603389509E+02  0.41455847400E+01  0.19537527604E+02  0.45260756703E+02  0.10000000000E+01 0.  0.
    9000005    1    3    3    0    0 -0.40603389509E+02 -0.41455847400E+01  0.23266744248E+03  0.23622226801E+03  0.10000000000E+01 0.  0.
<mgrwt>
<rscale>  0 0.12500139E+03</rscale>
<asrwt>0</asrwt>
<pdfrwt beam="2">  1        4 0.22521581E-02 0.12500139E+03</pdfrwt>
<pdfrwt beam="1">  1       -4 0.41052922E-01 0.12500139E+03</pdfrwt>
<totfact> 0.77979476E+03</totfact>
</mgrwt>
</event>
<event>
 5    1  0.3300771E-002  0.1249989E+03  0.7818608E-02  0.1235071E+00
         -4   -1    0    0    0  501 -0.00000000000E+00  0.00000000000E+00  0.82343148652E+02  0.82352941841E+02  0.12700000000E+01 0.  1.
          4   -1    0    0  501    0  0.00000000000E+00 -0.00000000000E+00 -0.47416723875E+02  0.47433728538E+02  0.12700000000E+01 0.  1.
         25    2    1    2    0    0  0.00000000000E+00  0.00000000000E+00  0.34926424777E+02  0.12978667038E+03  0.12499889864E+03 0.  0.
    9000005    1    3    3    0    0 -0.59809392957E+02  0.14087775835E+02  0.29281277723E+02  0.68073652311E+02  0.10000000000E+01 0.  0.
    9000005    1    3    3    0    0  0.59809392957E+02 -0.14087775835E+02  0.56451470542E+01  0.61713018069E+02  0.10000000000E+01 0.  0.
<mgrwt>
<rscale>  0 0.12499890E+03</rscale>
<asrwt>0</asrwt>
<pdfrwt beam="2">  1        4 0.72969420E-02 0.12499890E+03</pdfrwt>
<pdfrwt beam="1">  1       -4 0.12670238E-01 0.12499890E+03</pdfrwt>
<totfact> 0.10349330E+04</totfact>
</mgrwt>
</event>
<event>
 5    1  0.3300771E-002  0.1250068E+03  0.7818608E-02  0.1235059E+00
          4   -1    0    0  501    0  0.00000000000E+00  0.00000000000E+00  0.34484727848E+03  0.34484961704E+03  0.12700000000E+01 0. -1.
         -4   -1    0    0    0  501 -0.00000000000E+00 -0.00000000000E+00 -0.11290734930E+02  0.11361936246E+02  0.12700000000E+01 0. -1.
         25    2    1    2    0    0  0.00000000000E+00  0.00000000000E+00  0.33355654355E+03  0.35621155329E+03  0.12500681162E+03 0.  0.
    9000005    1    3    3    0    0  0.24423941326E+01 -0.38273552646E+02  0.30738627396E+03  0.30977112767E+03  0.10000000000E+01 0.  0.
    9000005    1    3    3    0    0 -0.24423941326E+01  0.38273552646E+02  0.26170269595E+02  0.46440425621E+02  0.10000000000E+01 0.  0.
<mgrwt>
<rscale>  0 0.12500681E+03</rscale>
<asrwt>0</asrwt>
<pdfrwt beam="1">  1        4 0.53059077E-01 0.12500681E+03</pdfrwt>
<pdfrwt beam="2">  1       -4 0.17426933E-02 0.12500681E+03</pdfrwt>
<totfact> 0.69036171E+03</totfact>
</mgrwt>
</event>
<event>
 5    1  0.3300771E-002  0.1249987E+03  0.7818608E-02  0.1235071E+00
         -4   -1    0    0    0  501 -0.00000000000E+00  0.00000000000E+00  0.89999382354E+02  0.90008342525E+02  0.12700000000E+01 0.  1.
          4   -1    0    0  501    0  0.00000000000E+00 -0.00000000000E+00 -0.43381738731E+02  0.43400324369E+02  0.12700000000E+01 0.  1.
         25    2    1    2    0    0  0.00000000000E+00  0.00000000000E+00  0.46617643623E+02  0.13340866689E+03  0.12499867082E+03 0.  0.
    9000005    1    3    3    0    0  0.54794190601E+02  0.22397027635E+02  0.19328987090E+01  0.59234839984E+02  0.10000000000E+01 0.  0.
    9000005    1    3    3    0    0 -0.54794190601E+02 -0.22397027635E+02  0.44684744914E+02  0.74173826910E+02  0.10000000000E+01 0.  0.
<mgrwt>
<rscale>  0 0.12499867E+03</rscale>
<asrwt>0</asrwt>
<pdfrwt beam="2">  1        4 0.66762326E-02 0.12499867E+03</pdfrwt>
<pdfrwt beam="1">  1       -4 0.13848178E-01 0.12499867E+03</pdfrwt>
<totfact> 0.10272030E+04</totfact>
</mgrwt>
</event>
<event>
 5    1  0.3300771E-002  0.1249998E+03  0.7818608E-02  0.1235070E+00
         -4   -1    0    0    0  501 -0.00000000000E+00  0.00000000000E+00  0.13621436783E+04  0.13621442703E+04  0.12700000000E+01 0.  1.
          4   -1    0    0  501    0  0.00000000000E+00 -0.00000000000E+00 -0.27264841515E+01  0.30077592703E+01  0.12700000000E+01 0.  1.
         25    2    1    2    0    0  0.00000000000E+00  0.00000000000E+00  0.13594171941E+04  0.13651520296E+04  0.12499982486E+03 0.  0.
    9000005    1    3    3    0    0 -0.46774625929E+02 -0.51447375391E+01  0.23062082362E+03  0.23537480375E+03  0.10000000000E+01 0.  0.
    9000005    1    3    3    0    0  0.46774625929E+02  0.51447375391E+01  0.11287963705E+04  0.11297772258E+04  0.10000000000E+01 0.  0.
<mgrwt>
<rscale>  0 0.12499982E+03</rscale>
<asrwt>0</asrwt>
<pdfrwt beam="2">  1        4 0.44114085E-03 0.12499982E+03</pdfrwt>
<pdfrwt beam="1">  1       -4 0.20958241E+00 0.12499982E+03</pdfrwt>
<totfact> 0.20740983E+03</totfact>
</mgrwt>
</event>
<event>
 5    1  0.3300771E-002  0.1250207E+03  0.7818608E-02  0.1235037E+00
         -4   -1    0    0    0  501 -0.00000000000E+00  0.00000000000E+00  0.20533031547E+02  0.20572269795E+02  0.12700000000E+01 0. -1.
          4   -1    0    0  501    0  0.00000000000E+00 -0.00000000000E+00 -0.19008228303E+03  0.19008652562E+03  0.12700000000E+01 0. -1.
         25    2    1    2    0    0  0.00000000000E+00  0.00000000000E+00 -0.16954925149E+03  0.21065879542E+03  0.12502071591E+03 0.  0.
    9000005    1    3    3    0    0 -0.45147770453E+01 -0.66981199951E+01 -0.18920733595E+03  0.18938232230E+03  0.10000000000E+01 0.  0.
    9000005    1    3    3    0    0  0.45147770453E+01  0.66981199951E+01  0.19658084467E+02  0.21276473113E+02  0.10000000000E+01 0.  0.
<mgrwt>
<rscale>  0 0.12502072E+03</rscale>
<asrwt>0</asrwt>
<pdfrwt beam="2">  1        4 0.29246772E-01 0.12502072E+03</pdfrwt>
<pdfrwt beam="1">  1       -4 0.31622727E-02 0.12502072E+03</pdfrwt>
<totfact> 0.88327493E+03</totfact>
</mgrwt>
</event>
<event>
 5    1  0.3300771E-002  0.1249979E+03  0.7818608E-02  0.1235073E+00
         -4   -1    0    0    0  501 -0.00000000000E+00  0.00000000000E+00  0.57234690455E+01  0.58626783909E+01  0.12700000000E+01 0. -1.
          4   -1    0    0  501    0  0.00000000000E+00 -0.00000000000E+00 -0.67413455097E+03  0.67413574725E+03  0.12700000000E+01 0. -1.
         25    2    1    2    0    0  0.00000000000E+00  0.00000000000E+00 -0.66841108193E+03  0.67999842564E+03  0.12499793769E+03 0.  0.
    9000005    1    3    3    0    0 -0.33217340636E+02 -0.50834242003E+02 -0.25395578635E+03  0.26111693415E+03  0.10000000000E+01 0.  0.
    9000005    1    3    3    0    0  0.33217340636E+02  0.50834242003E+02 -0.41445529558E+03  0.41888149149E+03  0.10000000000E+01 0.  0.
<mgrwt>
<rscale>  0 0.12499794E+03</rscale>
<asrwt>0</asrwt>
<pdfrwt beam="2">  1        4 0.10372375E+00 0.12499794E+03</pdfrwt>
<pdfrwt beam="1">  1       -4 0.89133466E-03 0.12499794E+03</pdfrwt>
<totfact> 0.44165810E+03</totfact>
</mgrwt>
</event>
<event>
 5    1  0.3300771E-002  0.1250013E+03  0.7818608E-02  0.1235067E+00
         -4   -1    0    0    0  501 -0.00000000000E+00  0.00000000000E+00  0.10761946917E+02  0.10836623157E+02  0.12700000000E+01 0. -1.
          4   -1    0    0  501    0  0.00000000000E+00 -0.00000000000E+00 -0.36164555545E+03  0.36164778539E+03  0.12700000000E+01 0. -1.
         25    2    1    2    0    0  0.00000000000E+00  0.00000000000E+00 -0.35088360853E+03  0.37248440854E+03  0.12500131148E+03 0.  0.
    9000005    1    3    3    0    0  0.14604344739E+02  0.57709657979E+02 -0.11877456762E+03  0.13286116597E+03  0.10000000000E+01 0.  0.
    9000005    1    3    3    0    0 -0.14604344739E+02 -0.57709657979E+02 -0.23210904091E+03  0.23962324258E+03  0.10000000000E+01 0.  0.
<mgrwt>
<rscale>  0 0.12500131E+03</rscale>
<asrwt>0</asrwt>
<pdfrwt beam="2">  1        4 0.55643684E-01 0.12500131E+03</pdfrwt>
<pdfrwt beam="1">  1       -4 0.16616003E-02 0.12500131E+03</pdfrwt>
<totfact> 0.67317873E+03</totfact>
</mgrwt>
</event>
<event>
 5    1  0.3300771E-002  0.1249986E+03  0.7818608E-02  0.1235071E+00
         -4   -1    0    0    0  501 -0.00000000000E+00  0.00000000000E+00  0.33225171134E+02  0.33249434535E+02  0.12700000000E+01 0. -1.
          4   -1    0    0  501    0  0.00000000000E+00 -0.00000000000E+00 -0.11749579631E+03  0.11750265976E+03  0.12700000000E+01 0. -1.
         25    2    1    2    0    0  0.00000000000E+00  0.00000000000E+00 -0.84270625179E+02  0.15075209430E+03  0.12499862266E+03 0.  0.
    9000005    1    3    3    0    0 -0.41659475610E+02  0.11021499789E+02  0.12445755932E+02  0.44865155816E+02  0.10000000000E+01 0.  0.
    9000005    1    3    3    0    0  0.41659475610E+02 -0.11021499789E+02 -0.96716381111E+02  0.10588693848E+03  0.10000000000E+01 0.  0.
<mgrwt>
<rscale>  0 0.12499862E+03</rscale>
<asrwt>0</asrwt>
<pdfrwt beam="2">  1        4 0.18078671E-01 0.12499862E+03</pdfrwt>
<pdfrwt beam="1">  1       -4 0.51139592E-02 0.12499862E+03</pdfrwt>
<totfact> 0.99157064E+03</totfact>
</mgrwt>
</event>
<event>
 5    1  0.3300771E-002  0.1249979E+03  0.7818608E-02  0.1235073E+00
          4   -1    0    0  501    0  0.00000000000E+00  0.00000000000E+00  0.18441144341E+03  0.18441581646E+03  0.12700000000E+01 0. -1.
         -4   -1    0    0    0  501 -0.00000000000E+00 -0.00000000000E+00 -0.21157869239E+02  0.21195950810E+02  0.12700000000E+01 0. -1.
         25    2    1    2    0    0  0.00000000000E+00  0.00000000000E+00  0.16325357417E+03  0.20561176727E+03  0.12499787742E+03 0.  0.
    9000005    1    3    3    0    0  0.35146428196E+02 -0.18796419737E+02  0.24559422943E+01  0.39945068061E+02  0.10000000000E+01 0.  0.
    9000005    1    3    3    0    0 -0.35146428196E+02  0.18796419737E+02  0.16079763187E+03  0.16566669921E+03  0.10000000000E+01 0.  0.
<mgrwt>
<rscale>  0 0.12499788E+03</rscale>
<asrwt>0</asrwt>
<pdfrwt beam="1">  1        4 0.28374257E-01 0.12499788E+03</pdfrwt>
<pdfrwt beam="2">  1       -4 0.32583226E-02 0.12499788E+03</pdfrwt>
<totfact> 0.89201823E+03</totfact>
</mgrwt>
</event>
<event>
 5    1  0.3300771E-002  0.1249972E+03  0.7818608E-02  0.1235074E+00
         -4   -1    0    0    0  501 -0.00000000000E+00  0.00000000000E+00  0.12457930522E+04  0.12457936996E+04  0.12700000000E+01 0. -1.
          4   -1    0    0  501    0  0.00000000000E+00 -0.00000000000E+00 -0.30061355519E+01  0.32633956175E+01  0.12700000000E+01 0. -1.
         25    2    1    2    0    0  0.00000000000E+00  0.00000000000E+00  0.12427869167E+04  0.12490570952E+04  0.12499722704E+03 0.  0.
    9000005    1    3    3    0    0  0.61347435066E+02  0.91693429754E+01  0.54562545929E+03  0.54914089855E+03  0.10000000000E+01 0.  0.
    9000005    1    3    3    0    0 -0.61347435066E+02 -0.91693429754E+01  0.69716145740E+03  0.69991619664E+03  0.10000000000E+01 0.  0.
<mgrwt>
<rscale>  0 0.12499723E+03</rscale>
<asrwt>0</asrwt>
<pdfrwt beam="2">  1        4 0.48232140E-03 0.12499723E+03</pdfrwt>
<pdfrwt beam="1">  1       -4 0.19168032E+00 0.12499723E+03</pdfrwt>
<totfact> 0.23464961E+03</totfact>
</mgrwt>
</event>
<event>
 5    1  0.3300771E-002  0.1250008E+03  0.7818608E-02  0.1235068E+00
          4   -1    0    0  501    0  0.00000000000E+00  0.00000000000E+00  0.30526958212E+01  0.33063350974E+01  0.12700000000E+01 0.  1.
         -4   -1    0    0    0  501 -0.00000000000E+00 -0.00000000000E+00 -0.12283293499E+04  0.12283300064E+04  0.12700000000E+01 0.  1.
         25    2    1    2    0    0  0.00000000000E+00  0.00000000000E+00 -0.12252766540E+04  0.12316363415E+04  0.12500079507E+03 0.  0.
    9000005    1    3    3    0    0 -0.89612342287E+01 -0.55886807533E+02 -0.87363399631E+03  0.87546616067E+03  0.10000000000E+01 0.  0.
    9000005    1    3    3    0    0  0.89612342287E+01  0.55886807533E+02 -0.35164265772E+03  0.35617018082E+03  0.10000000000E+01 0.  0.
<mgrwt>
<rscale>  0 0.12500080E+03</rscale>
<asrwt>0</asrwt>
<pdfrwt beam="1">  1        4 0.48920771E-03 0.12500080E+03</pdfrwt>
<pdfrwt beam="2">  1       -4 0.18899293E+00 0.12500080E+03</pdfrwt>
<totfact> 0.23899017E+03</totfact>
</mgrwt>
</event>
<event>
 5    1  0.3300771E-002  0.1249971E+03  0.7818608E-02  0.1235074E+00
          4   -1    0    0  501    0  0.00000000000E+00  0.00000000000E+00  0.15770558323E+03  0.15771069679E+03  0.12700000000E+01 0.  1.
         -4   -1    0    0    0  501 -0.00000000000E+00 -0.00000000000E+00 -0.24746311284E+02  0.24778878549E+02  0.12700000000E+01 0.  1.
         25    2    1    2    0    0  0.00000000000E+00  0.00000000000E+00  0.13295927194E+03  0.18248957534E+03  0.12499710841E+03 0.  0.
    9000005    1    3    3    0    0  0.28247289256E+02 -0.37266751397E+02  0.12699892293E+03  0.13533826708E+03  0.10000000000E+01 0.  0.
    9000005    1    3    3    0    0 -0.28247289256E+02  0.37266751397E+02  0.59603490102E+01  0.47151308257E+02  0.10000000000E+01 0.  0.
<mgrwt>
<rscale>  0 0.12499711E+03</rscale>
<asrwt>0</asrwt>
<pdfrwt beam="1">  1        4 0.24265296E-01 0.12499711E+03</pdfrwt>
<pdfrwt beam="2">  1       -4 0.38100233E-02 0.12499711E+03</pdfrwt>
<totfact> 0.93176820E+03</totfact>
</mgrwt>
</event>
<event>
 5    1  0.3300771E-002  0.1250004E+03  0.7818608E-02  0.1235069E+00
          4   -1    0    0  501    0  0.00000000000E+00  0.00000000000E+00  0.20651778247E+02  0.20690791303E+02  0.12700000000E+01 0.  1.
         -4   -1    0    0    0  501 -0.00000000000E+00 -0.00000000000E+00 -0.18892998479E+03  0.18893425325E+03  0.12700000000E+01 0.  1.
         25    2    1    2    0    0  0.00000000000E+00  0.00000000000E+00 -0.16827820654E+03  0.20962504456E+03  0.12500041803E+03 0.  0.
    9000005    1    3    3    0    0 -0.28736987596E+02  0.52408044523E+02 -0.11473488505E+03  0.12937353452E+03  0.10000000000E+01 0.  0.
    9000005    1    3    3    0    0  0.28736987596E+02 -0.52408044523E+02 -0.53543321496E+02  0.80251510040E+02  0.10000000000E+01 0.  0.
<mgrwt>
<rscale>  0 0.12500042E+03</rscale>
<asrwt>0</asrwt>
<pdfrwt beam="1">  1        4 0.31805261E-02 0.12500042E+03</pdfrwt>
<pdfrwt beam="2">  1       -4 0.29069480E-01 0.12500042E+03</pdfrwt>
<totfact> 0.88536326E+03</totfact>
</mgrwt>
</event>
<event>
 5    1  0.3300771E-002  0.1249986E+03  0.7818608E-02  0.1235071E+00
         -4   -1    0    0    0  501 -0.00000000000E+00  0.00000000000E+00  0.23053421609E+02  0.23088376900E+02  0.12700000000E+01 0.  1.
          4   -1    0    0  501    0  0.00000000000E+00 -0.00000000000E+00 -0.16927395552E+03  0.16927871962E+03  0.12700000000E+01 0.  1.
         25    2    1    2    0    0  0.00000000000E+00  0.00000000000E+00 -0.14622053391E+03  0.19236709652E+03  0.12499862114E+03 0.  0.
    9000005    1    3    3    0    0 -0.31677492103E+02 -0.53846372773E+02 -0.70792388487E+02  0.94421701078E+02  0.10000000000E+01 0.  0.
    9000005    1    3    3    0    0  0.31677492103E+02  0.53846372773E+02 -0.75428145423E+02  0.97945395444E+02  0.10000000000E+01 0.  0.
<mgrwt>
<rscale>  0 0.12499862E+03</rscale>
<asrwt>0</asrwt>
<pdfrwt beam="2">  1        4 0.26045202E-01 0.12499862E+03</pdfrwt>
<pdfrwt beam="1">  1       -4 0.35497357E-02 0.12499862E+03</pdfrwt>
<totfact> 0.91439895E+03</totfact>
</mgrwt>
</event>
<event>
 5    1  0.3300771E-002  0.1250000E+03  0.7818608E-02  0.1235069E+00
         -4   -1    0    0    0  501 -0.00000000000E+00  0.00000000000E+00  0.41132611376E+03  0.41132807436E+03  0.12700000000E+01 0.  1.
          4   -1    0    0  501    0  0.00000000000E+00 -0.00000000000E+00 -0.94522781447E+01  0.95372145894E+01  0.12700000000E+01 0.  1.
         25    2    1    2    0    0  0.00000000000E+00  0.00000000000E+00  0.40187383561E+03  0.42086528895E+03  0.12500004678E+03 0.  0.
    9000005    1    3    3    0    0  0.12424676313E+02  0.14993113962E+02  0.40086759509E+03  0.40134149404E+03  0.10000000000E+01 0.  0.
    9000005    1    3    3    0    0 -0.12424676313E+02 -0.14993113962E+02  0.10062405258E+01  0.19523794912E+02  0.10000000000E+01 0.  0.
<mgrwt>
<rscale>  0 0.12500005E+03</rscale>
<asrwt>0</asrwt>
<pdfrwt beam="2">  1        4 0.14608807E-02 0.12500005E+03</pdfrwt>
<pdfrwt beam="1">  1       -4 0.63287639E-01 0.12500005E+03</pdfrwt>
<totfact> 0.62572741E+03</totfact>
</mgrwt>
</event>
<event>
 5    1  0.3300771E-002  0.1249991E+03  0.7818608E-02  0.1235071E+00
          4   -1    0    0  501    0  0.00000000000E+00  0.00000000000E+00  0.14991478198E+03  0.14992016128E+03  0.12700000000E+01 0. -1.
         -4   -1    0    0    0  501 -0.00000000000E+00 -0.00000000000E+00 -0.26034758808E+02  0.26065716299E+02  0.12700000000E+01 0. -1.
         25    2    1    2    0    0  0.00000000000E+00  0.00000000000E+00  0.12388002318E+03  0.17598587758E+03  0.12499907585E+03 0.  0.
    9000005    1    3    3    0    0 -0.43424628972E+02 -0.44602428497E+02  0.54213590054E+02  0.82554154200E+02  0.10000000000E+01 0.  0.
    9000005    1    3    3    0    0  0.43424628972E+02  0.44602428497E+02  0.69666433122E+02  0.93431723376E+02  0.10000000000E+01 0.  0.
<mgrwt>
<rscale>  0 0.12499908E+03</rscale>
<asrwt>0</asrwt>
<pdfrwt beam="1">  1        4 0.23066608E-01 0.12499908E+03</pdfrwt>
<pdfrwt beam="2">  1       -4 0.40081426E-02 0.12499908E+03</pdfrwt>
<totfact> 0.94346544E+03</totfact>
</mgrwt>
</event>
<event>
 5    1  0.3300771E-002  0.1250005E+03  0.7818608E-02  0.1235069E+00
          4   -1    0    0  501    0  0.00000000000E+00  0.00000000000E+00  0.77101551216E+02  0.77112010089E+02  0.12700000000E+01 0.  1.
         -4   -1    0    0    0  501 -0.00000000000E+00 -0.00000000000E+00 -0.50642210905E+02  0.50658132865E+02  0.12700000000E+01 0.  1.
         25    2    1    2    0    0  0.00000000000E+00  0.00000000000E+00  0.26459340311E+02  0.12777014295E+03  0.12500045096E+03 0.  0.
    9000005    1    3    3    0    0  0.56507772101E+02 -0.25413217259E+02  0.49056258800E+01  0.62161282842E+02  0.10000000000E+01 0.  0.
    9000005    1    3    3    0    0 -0.56507772101E+02  0.25413217259E+02  0.21553714431E+02  0.65608860111E+02  0.10000000000E+01 0.  0.
<mgrwt>
<rscale>  0 0.12500045E+03</rscale>
<asrwt>0</asrwt>
<pdfrwt beam="1">  1        4 0.11863806E-01 0.12500045E+03</pdfrwt>
<pdfrwt beam="2">  1       -4 0.77931387E-02 0.12500045E+03</pdfrwt>
<totfact> 0.10392349E+04</totfact>
</mgrwt>
</event>
<event>
 5    1  0.3300771E-002  0.1249987E+03  0.7818608E-02  0.1235071E+00
          4   -1    0    0  501    0  0.00000000000E+00  0.00000000000E+00  0.26143007361E+03  0.26143315835E+03  0.12700000000E+01 0. -1.
         -4   -1    0    0    0  501 -0.00000000000E+00 -0.00000000000E+00 -0.14911383339E+02  0.14965368458E+02  0.12700000000E+01 0. -1.
         25    2    1    2    0    0  0.00000000000E+00  0.00000000000E+00  0.24651869027E+03  0.27639852681E+03  0.12499872388E+03 0.  0.
    9000005    1    3    3    0    0  0.45414279883E+02 -0.17465949007E+02  0.20996740385E+03  0.21553381839E+03  0.10000000000E+01 0.  0.
    9000005    1    3    3    0    0 -0.45414279883E+02  0.17465949007E+02  0.36551286421E+02  0.60864708419E+02  0.10000000000E+01 0.  0.
<mgrwt>
<rscale>  0 0.12499872E+03</rscale>
<asrwt>0</asrwt>
<pdfrwt beam="1">  1        4 0.40224404E-01 0.12499872E+03</pdfrwt>
<pdfrwt beam="2">  1       -4 0.22984488E-02 0.12499872E+03</pdfrwt>
<totfact> 0.78660298E+03</totfact>
</mgrwt>
</event>
<event>
 5    1  0.3300771E-002  0.1250067E+03  0.7818608E-02  0.1235059E+00
          4   -1    0    0  501    0  0.00000000000E+00  0.00000000000E+00  0.31527527413E+02  0.31553096279E+02  0.12700000000E+01 0.  1.
         -4   -1    0    0    0  501 -0.00000000000E+00 -0.00000000000E+00 -0.12383380064E+03  0.12384031283E+03  0.12700000000E+01 0.  1.
         25    2    1    2    0    0  0.00000000000E+00  0.00000000000E+00 -0.92306273229E+02  0.15539340911E+03  0.12500665389E+03 0.  0.
    9000005    1    3    3    0    0  0.20082241970E+02 -0.21588793641E+02  0.22343829152E+02  0.37008366009E+02  0.10000000000E+01 0.  0.
    9000005    1    3    3    0    0 -0.20082241970E+02  0.21588793641E+02 -0.11465010238E+03  0.11838504310E+03  0.10000000000E+01 0.  0.
<mgrwt>
<rscale>  0 0.12500665E+03</rscale>
<asrwt>0</asrwt>
<pdfrwt beam="1">  1        4 0.48528567E-02 0.12500665E+03</pdfrwt>
<pdfrwt beam="2">  1       -4 0.19053821E-01 0.12500665E+03</pdfrwt>
<totfact> 0.98223624E+03</totfact>
</mgrwt>
</event>
<event>
 5    1  0.3300771E-002  0.1249819E+03  0.7818608E-02  0.1235098E+00
          4   -1    0    0  501    0  0.00000000000E+00  0.00000000000E+00  0.34366905140E+02  0.34390363023E+02  0.12700000000E+01 0. -1.
         -4   -1    0    0    0  501 -0.00000000000E+00 -0.00000000000E+00 -0.11356444947E+03  0.11357155050E+03  0.12700000000E+01 0. -1.
         25    2    1    2    0    0  0.00000000000E+00  0.00000000000E+00 -0.79197544333E+02  0.14796191353E+03  0.12498190600E+03 0.  0.
    9000005    1    3    3    0    0  0.57138506700E+01  0.59019031697E+02 -0.16272542178E+02  0.61495445529E+02  0.10000000000E+01 0.  0.
    9000005    1    3    3    0    0 -0.57138506700E+01 -0.59019031697E+02 -0.62925002155E+02  0.86466467998E+02  0.10000000000E+01 0.  0.
<mgrwt>
<rscale>  0 0.12498191E+03</rscale>
<asrwt>0</asrwt>
<pdfrwt beam="1">  1        4 0.52895669E-02 0.12498191E+03</pdfrwt>
<pdfrwt beam="2">  1       -4 0.17473804E-01 0.12498191E+03</pdfrwt>
<totfact> 0.99752146E+03</totfact>
</mgrwt>
</event>
<event>
 5    1  0.3300771E-002  0.1250022E+03  0.7818608E-02  0.1235066E+00
          4   -1    0    0  501    0  0.00000000000E+00  0.00000000000E+00  0.28186098136E+02  0.28214695251E+02  0.12700000000E+01 0.  1.
         -4   -1    0    0    0  501 -0.00000000000E+00 -0.00000000000E+00 -0.13849082462E+03  0.13849664762E+03  0.12700000000E+01 0.  1.
         25    2    1    2    0    0  0.00000000000E+00  0.00000000000E+00 -0.11030472648E+03  0.16671134287E+03  0.12500215662E+03 0.  0.
    9000005    1    3    3    0    0 -0.58840625676E+02  0.91996781905E+01 -0.80405265134E+02  0.10006427919E+03  0.10000000000E+01 0.  0.
    9000005    1    3    3    0    0  0.58840625676E+02 -0.91996781905E+01 -0.29899461346E+02  0.66647063682E+02  0.10000000000E+01 0.  0.
<mgrwt>
<rscale>  0 0.12500216E+03</rscale>
<asrwt>0</asrwt>
<pdfrwt beam="1">  1        4 0.43389706E-02 0.12500216E+03</pdfrwt>
<pdfrwt beam="2">  1       -4 0.21308928E-01 0.12500216E+03</pdfrwt>
<totfact> 0.96059616E+03</totfact>
</mgrwt>
</event>
<event>
 5    1  0.3300771E-002  0.1250018E+03  0.7818608E-02  0.1235067E+00
         -4   -1    0    0    0  501 -0.00000000000E+00  0.00000000000E+00  0.13272427372E+03  0.13273034971E+03  0.12700000000E+01 0. -1.
          4   -1    0    0  501    0  0.00000000000E+00 -0.00000000000E+00 -0.29411697158E+02  0.29439103752E+02  0.12700000000E+01 0. -1.
         25    2    1    2    0    0  0.00000000000E+00  0.00000000000E+00  0.10331257656E+03  0.16216945346E+03  0.12500177263E+03 0.  0.
    9000005    1    3    3    0    0 -0.61667437533E+02  0.82629054362E+01  0.44067993032E+02  0.76250485035E+02  0.10000000000E+01 0.  0.
    9000005    1    3    3    0    0  0.61667437533E+02 -0.82629054362E+01  0.59244583530E+02  0.85918968428E+02  0.10000000000E+01 0.  0.
<mgrwt>
<rscale>  0 0.12500177E+03</rscale>
<asrwt>0</asrwt>
<pdfrwt beam="2">  1        4 0.45274520E-02 0.12500177E+03</pdfrwt>
<pdfrwt beam="1">  1       -4 0.20421695E-01 0.12500177E+03</pdfrwt>
<totfact> 0.96922293E+03</totfact>
</mgrwt>
</event>
<event>
 5    1  0.3300771E-002  0.1249999E+03  0.7818608E-02  0.1235069E+00
          4   -1    0    0  501    0  0.00000000000E+00  0.00000000000E+00  0.56380211329E+02  0.56394513293E+02  0.12700000000E+01 0. -1.
         -4   -1    0    0    0  501 -0.00000000000E+00 -0.00000000000E+00 -0.69255080781E+02  0.69266724435E+02  0.12700000000E+01 0. -1.
         25    2    1    2    0    0  0.00000000000E+00  0.00000000000E+00 -0.12874869451E+02  0.12566123773E+03  0.12499993762E+03 0.  0.
    9000005    1    3    3    0    0 -0.55424345369E+02 -0.15981762661E+02  0.17730785792E+02  0.60354416260E+02  0.10000000000E+01 0.  0.
    9000005    1    3    3    0    0  0.55424345369E+02  0.15981762661E+02 -0.30605655243E+02  0.65306821467E+02  0.10000000000E+01 0.  0.
<mgrwt>
<rscale>  0 0.12499994E+03</rscale>
<asrwt>0</asrwt>
<pdfrwt beam="1">  1        4 0.86758745E-02 0.12499994E+03</pdfrwt>
<pdfrwt beam="2">  1       -4 0.10656624E-01 0.12499994E+03</pdfrwt>
<totfact> 0.10438412E+04</totfact>
</mgrwt>
</event>
<event>
 5    1  0.3300771E-002  0.1250016E+03  0.7818608E-02  0.1235067E+00
          4   -1    0    0  501    0  0.00000000000E+00  0.00000000000E+00  0.74563463410E+03  0.74563571566E+03  0.12700000000E+01 0. -1.
         -4   -1    0    0    0  501 -0.00000000000E+00 -0.00000000000E+00 -0.51608878760E+01  0.53148531183E+01  0.12700000000E+01 0. -1.
         25    2    1    2    0    0  0.00000000000E+00  0.00000000000E+00  0.74047374622E+03  0.75095056878E+03  0.12500155160E+03 0.  0.
    9000005    1    3    3    0    0 -0.16496433837E+02 -0.10972034868E+02  0.72629791432E+03  0.72656877048E+03  0.10000000000E+01 0.  0.
    9000005    1    3    3    0    0  0.16496433837E+02  0.10972034868E+02  0.14175831900E+02  0.24381798304E+02  0.10000000000E+01 0.  0.
<mgrwt>
<rscale>  0 0.12500155E+03</rscale>
<asrwt>0</asrwt>
<pdfrwt beam="1">  1        4 0.11472499E+00 0.12500155E+03</pdfrwt>
<pdfrwt beam="2">  1       -4 0.80590915E-03 0.12500155E+03</pdfrwt>
<totfact> 0.40527323E+03</totfact>
</mgrwt>
</event>
<event>
 5    1  0.3300771E-002  0.1249985E+03  0.7818608E-02  0.1235072E+00
          4   -1    0    0  501    0  0.00000000000E+00  0.00000000000E+00  0.84524652716E+01  0.85473428132E+01  0.12700000000E+01 0. -1.
         -4   -1    0    0    0  501 -0.00000000000E+00 -0.00000000000E+00 -0.45945747472E+03  0.45945922994E+03  0.12700000000E+01 0. -1.
         25    2    1    2    0    0  0.00000000000E+00  0.00000000000E+00 -0.45100500945E+03  0.46800657275E+03  0.12499853436E+03 0.  0.
    9000005    1    3    3    0    0  0.28804517631E+02 -0.48239885188E+02 -0.32792743853E+03  0.33270736646E+03  0.10000000000E+01 0.  0.
    9000005    1    3    3    0    0 -0.28804517631E+02  0.48239885188E+02 -0.12307757092E+03  0.13529920629E+03  0.10000000000E+01 0.  0.
<mgrwt>
<rscale>  0 0.12499853E+03</rscale>
<asrwt>0</asrwt>
<pdfrwt beam="1">  1        4 0.13078129E-02 0.12499853E+03</pdfrwt>
<pdfrwt beam="2">  1       -4 0.70693179E-01 0.12499853E+03</pdfrwt>
<totfact> 0.58436913E+03</totfact>
</mgrwt>
</event>
<event>
 5    1  0.3300771E-002  0.1250025E+03  0.7818608E-02  0.1235065E+00
         -4   -1    0    0    0  501 -0.00000000000E+00  0.00000000000E+00  0.26981364414E+03  0.26981663304E+03  0.12700000000E+01 0.  1.
          4   -1    0    0  501    0  0.00000000000E+00 -0.00000000000E+00 -0.14447233644E+02  0.14502946595E+02  0.12700000000E+01 0.  1.
         25    2    1    2    0    0  0.00000000000E+00  0.00000000000E+00  0.25536641050E+03  0.28431957964E+03  0.12500247899E+03 0.  0.
    9000005    1    3    3    0    0 -0.39616203181E+02 -0.44796983549E+02  0.86415288373E+02  0.10509431647E+03  0.10000000000E+01 0.  0.
    9000005    1    3    3    0    0  0.39616203181E+02  0.44796983549E+02  0.16895112213E+03  0.17922526317E+03  0.10000000000E+01 0.  0.
<mgrwt>
<rscale>  0 0.12500248E+03</rscale>
<asrwt>0</asrwt>
<pdfrwt beam="2">  1        4 0.22271669E-02 0.12500248E+03</pdfrwt>
<pdfrwt beam="1">  1       -4 0.41514305E-01 0.12500248E+03</pdfrwt>
<totfact> 0.77604549E+03</totfact>
</mgrwt>
</event>
<event>
 5    1  0.3300771E-002  0.1249967E+03  0.7818608E-02  0.1235074E+00
         -4   -1    0    0    0  501 -0.00000000000E+00  0.00000000000E+00  0.77975223944E+03  0.77975327368E+03  0.12700000000E+01 0. -1.
          4   -1    0    0  501    0  0.00000000000E+00 -0.00000000000E+00 -0.49277895055E+01  0.50888121807E+01  0.12700000000E+01 0. -1.
         25    2    1    2    0    0  0.00000000000E+00  0.00000000000E+00  0.77482444994E+03  0.78484208586E+03  0.12499668603E+03 0.  0.
    9000005    1    3    3    0    0 -0.46840922777E+02  0.33645474394E+02  0.53849167526E+03  0.54157213214E+03  0.10000000000E+01 0.  0.
    9000005    1    3    3    0    0  0.46840922777E+02 -0.33645474394E+02  0.23633277468E+03  0.24326995372E+03  0.10000000000E+01 0.  0.
<mgrwt>
<rscale>  0 0.12499669E+03</rscale>
<asrwt>0</asrwt>
<pdfrwt beam="2">  1        4 0.77058780E-03 0.12499669E+03</pdfrwt>
<pdfrwt beam="1">  1       -4 0.11997428E+00 0.12499669E+03</pdfrwt>
<totfact> 0.38953279E+03</totfact>
</mgrwt>
</event>
<event>
 5    1  0.3300771E-002  0.1249968E+03  0.7818608E-02  0.1235074E+00
          4   -1    0    0  501    0  0.00000000000E+00  0.00000000000E+00  0.28363500648E+04  0.28363503491E+04  0.12700000000E+01 0. -1.
         -4   -1    0    0    0  501 -0.00000000000E+00 -0.00000000000E+00 -0.10839949410E+01  0.16697140570E+01  0.12700000000E+01 0. -1.
         25    2    1    2    0    0  0.00000000000E+00  0.00000000000E+00  0.28352660699E+04  0.28380200632E+04  0.12499676852E+03 0.  0.
    9000005    1    3    3    0    0 -0.44430054458E+02 -0.43036296316E+02  0.12159623473E+04  0.12175350436E+04  0.10000000000E+01 0.  0.
    9000005    1    3    3    0    0  0.44430054458E+02  0.43036296316E+02  0.16193037226E+04  0.16204850196E+04  0.10000000000E+01 0.  0.
<mgrwt>
<rscale>  0 0.12499677E+03</rscale>
<asrwt>0</asrwt>
<pdfrwt beam="1">  1        4 0.43641024E+00 0.12499677E+03</pdfrwt>
<pdfrwt beam="2">  1       -4 0.21184389E-03 0.12499677E+03</pdfrwt>
<totfact> 0.25242125E+02</totfact>
</mgrwt>
</event>
<event>
 5    1  0.3300771E-002  0.1250012E+03  0.7818608E-02  0.1235067E+00
          4   -1    0    0  501    0  0.00000000000E+00  0.00000000000E+00  0.59915045295E+02  0.59928503675E+02  0.12700000000E+01 0. -1.
         -4   -1    0    0    0  501 -0.00000000000E+00 -0.00000000000E+00 -0.65170808356E+02  0.65183181587E+02  0.12700000000E+01 0. -1.
         25    2    1    2    0    0  0.00000000000E+00  0.00000000000E+00 -0.52557630610E+01  0.12511168526E+03  0.12500124297E+03 0.  0.
    9000005    1    3    3    0    0 -0.24937397419E+02 -0.53960001905E+02  0.16670546482E+02  0.61745143256E+02  0.10000000000E+01 0.  0.
    9000005    1    3    3    0    0  0.24937397419E+02  0.53960001905E+02 -0.21926309543E+02  0.63366542006E+02  0.10000000000E+01 0.  0.
<mgrwt>
<rscale>  0 0.12500124E+03</rscale>
<asrwt>0</asrwt>
<pdfrwt beam="1">  1        4 0.92196864E-02 0.12500124E+03</pdfrwt>
<pdfrwt beam="2">  1       -4 0.10028265E-01 0.12500124E+03</pdfrwt>
<totfact> 0.10450144E+04</totfact>
</mgrwt>
</event>
<event>
 5    1  0.3300771E-002  0.1249981E+03  0.7818608E-02  0.1235072E+00
         -4   -1    0    0    0  501 -0.00000000000E+00  0.00000000000E+00  0.21918621975E+03  0.21918989901E+03  0.12700000000E+01 0.  1.
          4   -1    0    0  501    0  0.00000000000E+00 -0.00000000000E+00 -0.17794591178E+02  0.17839853564E+02  0.12700000000E+01 0.  1.
         25    2    1    2    0    0  0.00000000000E+00  0.00000000000E+00  0.20139162857E+03  0.23702975258E+03  0.12499806217E+03 0.  0.
    9000005    1    3    3    0    0  0.51903267277E+02  0.33996006130E+02  0.86575139569E+02  0.10651728676E+03  0.10000000000E+01 0.  0.
    9000005    1    3    3    0    0 -0.51903267277E+02 -0.33996006130E+02  0.11481648901E+03  0.13051246582E+03  0.10000000000E+01 0.  0.
<mgrwt>
<rscale>  0 0.12499806E+03</rscale>
<asrwt>0</asrwt>
<pdfrwt beam="2">  1        4 0.27413941E-02 0.12499806E+03</pdfrwt>
<pdfrwt beam="1">  1       -4 0.33724722E-01 0.12499806E+03</pdfrwt>
<totfact> 0.84245370E+03</totfact>
</mgrwt>
</event>
<event>
 5    1  0.3300771E-002  0.1250005E+03  0.7818608E-02  0.1235069E+00
          4   -1    0    0  501    0  0.00000000000E+00  0.00000000000E+00  0.81753262775E+02  0.81763126618E+02  0.12700000000E+01 0.  1.
         -4   -1    0    0    0  501 -0.00000000000E+00 -0.00000000000E+00 -0.47760126922E+02  0.47777009363E+02  0.12700000000E+01 0.  1.
         25    2    1    2    0    0  0.00000000000E+00  0.00000000000E+00  0.33993135853E+02  0.12954013598E+03  0.12500045418E+03 0.  0.
    9000005    1    3    3    0    0  0.50769792762E+02 -0.64336412539E+01  0.54164328008E+02  0.74523405890E+02  0.10000000000E+01 0.  0.
    9000005    1    3    3    0    0 -0.50769792762E+02  0.64336412539E+01 -0.20171192155E+02  0.55016730091E+02  0.10000000000E+01 0.  0.
<mgrwt>
<rscale>  0 0.12500045E+03</rscale>
<asrwt>0</asrwt>
<pdfrwt beam="1">  1        4 0.12579482E-01 0.12500045E+03</pdfrwt>
<pdfrwt beam="2">  1       -4 0.73497693E-02 0.12500045E+03</pdfrwt>
<totfact> 0.10354249E+04</totfact>
</mgrwt>
</event>
<event>
 5    1  0.3300771E-002  0.1250019E+03  0.7818608E-02  0.1235066E+00
         -4   -1    0    0    0  501 -0.00000000000E+00  0.00000000000E+00  0.78784702404E+02  0.78794937863E+02  0.12700000000E+01 0.  1.
          4   -1    0    0  501    0  0.00000000000E+00 -0.00000000000E+00 -0.49561217102E+02  0.49577486228E+02  0.12700000000E+01 0.  1.
         25    2    1    2    0    0  0.00000000000E+00  0.00000000000E+00  0.29223485301E+02  0.12837242409E+03  0.12500186868E+03 0.  0.
    9000005    1    3    3    0    0  0.27672871807E+02  0.52274081441E+02 -0.61064613328E+01  0.59469793127E+02  0.10000000000E+01 0.  0.
    9000005    1    3    3    0    0 -0.27672871807E+02 -0.52274081441E+02  0.35329946634E+02  0.68902630964E+02  0.10000000000E+01 0.  0.
<mgrwt>
<rscale>  0 0.12500187E+03</rscale>
<asrwt>0</asrwt>
<pdfrwt beam="2">  1        4 0.76268416E-02 0.12500187E+03</pdfrwt>
<pdfrwt beam="1">  1       -4 0.12122762E-01 0.12500187E+03</pdfrwt>
<totfact> 0.10379015E+04</totfact>
</mgrwt>
</event>
<event>
 5    1  0.3300771E-002  0.1249984E+03  0.7818608E-02  0.1235072E+00
         -4   -1    0    0    0  501 -0.00000000000E+00  0.00000000000E+00  0.77132504811E+01  0.78171051538E+01  0.12700000000E+01 0.  1.
          4   -1    0    0  501    0  0.00000000000E+00 -0.00000000000E+00 -0.50292974848E+03  0.50293135199E+03  0.12700000000E+01 0.  1.
         25    2    1    2    0    0  0.00000000000E+00  0.00000000000E+00 -0.49521649800E+03  0.51074845714E+03  0.12499842629E+03 0.  0.
    9000005    1    3    3    0    0  0.32372674127E+02 -0.88243307454E+01 -0.32196359955E+02  0.46513056636E+02  0.10000000000E+01 0.  0.
    9000005    1    3    3    0    0 -0.32372674127E+02  0.88243307454E+01 -0.46302013805E+03  0.46423540050E+03  0.10000000000E+01 0.  0.
<mgrwt>
<rscale>  0 0.12499843E+03</rscale>
<asrwt>0</asrwt>
<pdfrwt beam="2">  1        4 0.77381894E-01 0.12499843E+03</pdfrwt>
<pdfrwt beam="1">  1       -4 0.11947665E-02 0.12499843E+03</pdfrwt>
<totfact> 0.55041872E+03</totfact>
</mgrwt>
</event>
<event>
 5    1  0.3300771E-002  0.1250065E+03  0.7818608E-02  0.1235059E+00
          4   -1    0    0  501    0  0.00000000000E+00  0.00000000000E+00  0.16699063157E+02  0.16747286656E+02  0.12700000000E+01 0. -1.
         -4   -1    0    0    0  501 -0.00000000000E+00 -0.00000000000E+00 -0.23355730150E+03  0.23356075437E+03  0.12700000000E+01 0. -1.
         25    2    1    2    0    0  0.00000000000E+00  0.00000000000E+00 -0.21685823834E+03  0.25030804103E+03  0.12500647930E+03 0.  0.
    9000005    1    3    3    0    0  0.27616083833E+02 -0.15361882787E+02 -0.21638995678E+03  0.21868756006E+03  0.10000000000E+01 0.  0.
    9000005    1    3    3    0    0 -0.27616083833E+02  0.15361882787E+02 -0.46828155841E+00  0.31620480968E+02  0.10000000000E+01 0.  0.
<mgrwt>
<rscale>  0 0.12500648E+03</rscale>
<asrwt>0</asrwt>
<pdfrwt beam="1">  1        4 0.25730619E-02 0.12500648E+03</pdfrwt>
<pdfrwt beam="2">  1       -4 0.35935865E-01 0.12500648E+03</pdfrwt>
<totfact> 0.82273852E+03</totfact>
</mgrwt>
</event>
<event>
 5    1  0.3300771E-002  0.1250034E+03  0.7818608E-02  0.1235064E+00
          4   -1    0    0  501    0  0.00000000000E+00  0.00000000000E+00  0.35321542152E+02  0.35344366453E+02  0.12700000000E+01 0. -1.
         -4   -1    0    0    0  501 -0.00000000000E+00 -0.00000000000E+00 -0.11053493273E+03  0.11054222838E+03  0.12700000000E+01 0. -1.
         25    2    1    2    0    0  0.00000000000E+00  0.00000000000E+00 -0.75213390583E+02  0.14588659483E+03  0.12500337767E+03 0.  0.
    9000005    1    3    3    0    0 -0.21304030156E+02 -0.28613211987E+02 -0.97490510467E+02  0.10381703729E+03  0.10000000000E+01 0.  0.
    9000005    1    3    3    0    0  0.21304030156E+02  0.28613211987E+02  0.22277119884E+02  0.42069557538E+02  0.10000000000E+01 0.  0.
<mgrwt>
<rscale>  0 0.12500338E+03</rscale>
<asrwt>0</asrwt>
<pdfrwt beam="1">  1        4 0.54364004E-02 0.12500338E+03</pdfrwt>
<pdfrwt beam="2">  1       -4 0.17007691E-01 0.12500338E+03</pdfrwt>
<totfact> 0.10012244E+04</totfact>
</mgrwt>
</event>
<event>
 5    1  0.3300771E-002  0.1249861E+03  0.7818608E-02  0.1235091E+00
          4   -1    0    0  501    0  0.00000000000E+00  0.00000000000E+00  0.58571681980E+02  0.58585448961E+02  0.12700000000E+01 0. -1.
         -4   -1    0    0    0  501 -0.00000000000E+00 -0.00000000000E+00 -0.66649303486E+02  0.66661402290E+02  0.12700000000E+01 0. -1.
         25    2    1    2    0    0  0.00000000000E+00  0.00000000000E+00 -0.80776215064E+01  0.12524685125E+03  0.12498610234E+03 0.  0.
    9000005    1    3    3    0    0  0.24313617411E+02 -0.55576783630E+02 -0.19051740494E+02  0.63591663652E+02  0.10000000000E+01 0.  0.
    9000005    1    3    3    0    0 -0.24313617411E+02  0.55576783630E+02  0.10974118988E+02  0.61655187598E+02  0.10000000000E+01 0.  0.
<mgrwt>
<rscale>  0 0.12498610E+03</rscale>
<asrwt>0</asrwt>
<pdfrwt beam="1">  1        4 0.90130176E-02 0.12498610E+03</pdfrwt>
<pdfrwt beam="2">  1       -4 0.10255729E-01 0.12498610E+03</pdfrwt>
<totfact> 0.10450785E+04</totfact>
</mgrwt>
</event>
<event>
 5    1  0.3300771E-002  0.1249988E+03  0.7818608E-02  0.1235071E+00
         -4   -1    0    0    0  501 -0.00000000000E+00  0.00000000000E+00  0.12748320896E+03  0.12748953473E+03  0.12700000000E+01 0. -1.
          4   -1    0    0  501    0  0.00000000000E+00 -0.00000000000E+00 -0.30620471455E+02  0.30646797094E+02  0.12700000000E+01 0. -1.
         25    2    1    2    0    0  0.00000000000E+00  0.00000000000E+00  0.96862737504E+02  0.15813633183E+03  0.12499883810E+03 0.  0.
    9000005    1    3    3    0    0 -0.57693808763E+02 -0.27951344862E+01  0.78603173761E+02  0.97549204362E+02  0.10000000000E+01 0.  0.
    9000005    1    3    3    0    0  0.57693808763E+02  0.27951344862E+01  0.18259563744E+02  0.60587127465E+02  0.10000000000E+01 0.  0.
<mgrwt>
<rscale>  0 0.12499884E+03</rscale>
<asrwt>0</asrwt>
<pdfrwt beam="2">  1        4 0.47133535E-02 0.12499884E+03</pdfrwt>
<pdfrwt beam="1">  1       -4 0.19615313E-01 0.12499884E+03</pdfrwt>
<totfact> 0.97705846E+03</totfact>
</mgrwt>
</event>
<event>
 5    1  0.3300771E-002  0.1249990E+03  0.7818608E-02  0.1235071E+00
         -4   -1    0    0    0  501 -0.00000000000E+00  0.00000000000E+00  0.21737106844E+02  0.21774175390E+02  0.12700000000E+01 0.  1.
          4   -1    0    0  501    0  0.00000000000E+00 -0.00000000000E+00 -0.17950902876E+03  0.17951352123E+03  0.12700000000E+01 0.  1.
         25    2    1    2    0    0  0.00000000000E+00  0.00000000000E+00 -0.15777192191E+03  0.20128769662E+03  0.12499902987E+03 0.  0.
    9000005    1    3    3    0    0 -0.25564690351E+02  0.22577651419E+02 -0.16320686527E+03  0.16673567287E+03  0.10000000000E+01 0.  0.
    9000005    1    3    3    0    0  0.25564690351E+02 -0.22577651419E+02  0.54349433531E+01  0.34552023756E+02  0.10000000000E+01 0.  0.
<mgrwt>
<rscale>  0 0.12499903E+03</rscale>
<asrwt>0</asrwt>
<pdfrwt beam="2">  1        4 0.27619970E-01 0.12499903E+03</pdfrwt>
<pdfrwt beam="1">  1       -4 0.33473674E-02 0.12499903E+03</pdfrwt>
<totfact> 0.89920732E+03</totfact>
</mgrwt>
</event>
<event>
 5    1  0.3300771E-002  0.1249995E+03  0.7818608E-02  0.1235070E+00
          4   -1    0    0  501    0  0.00000000000E+00  0.00000000000E+00  0.71919142118E+02  0.71930354532E+02  0.12700000000E+01 0.  1.
         -4   -1    0    0    0  501 -0.00000000000E+00 -0.00000000000E+00 -0.54291168854E+02  0.54306020988E+02  0.12700000000E+01 0.  1.
         25    2    1    2    0    0  0.00000000000E+00  0.00000000000E+00  0.17627973265E+02  0.12623637552E+03  0.12499950825E+03 0.  0.
    9000005    1    3    3    0    0 -0.59578809183E+02 -0.12321693654E+02 -0.56017336522E+01  0.61105139375E+02  0.10000000000E+01 0.  0.
    9000005    1    3    3    0    0  0.59578809183E+02  0.12321693654E+02  0.23229706917E+02  0.65131236144E+02  0.10000000000E+01 0.  0.
<mgrwt>
<rscale>  0 0.12499951E+03</rscale>
<asrwt>0</asrwt>
<pdfrwt beam="1">  1        4 0.11066488E-01 0.12499951E+03</pdfrwt>
<pdfrwt beam="2">  1       -4 0.83544925E-02 0.12499951E+03</pdfrwt>
<totfact> 0.10425899E+04</totfact>
</mgrwt>
</event>
<event>
 5    1  0.3300771E-002  0.1250006E+03  0.7818608E-02  0.1235068E+00
          4   -1    0    0  501    0  0.00000000000E+00  0.00000000000E+00  0.48515863008E+02  0.48532482559E+02  0.12700000000E+01 0.  1.
         -4   -1    0    0    0  501 -0.00000000000E+00 -0.00000000000E+00 -0.80480271779E+02  0.80490291623E+02  0.12700000000E+01 0.  1.
         25    2    1    2    0    0  0.00000000000E+00  0.00000000000E+00 -0.31964408772E+02  0.12902277418E+03  0.12500061132E+03 0.  0.
    9000005    1    3    3    0    0 -0.33552258856E+02 -0.13679807287E+01  0.38417181501E+02  0.51034353921E+02  0.10000000000E+01 0.  0.
    9000005    1    3    3    0    0  0.33552258856E+02  0.13679807287E+01 -0.70381590273E+02  0.77988420262E+02  0.10000000000E+01 0.  0.
<mgrwt>
<rscale>  0 0.12500061E+03</rscale>
<asrwt>0</asrwt>
<pdfrwt beam="1">  1        4 0.74660281E-02 0.12500061E+03</pdfrwt>
<pdfrwt beam="2">  1       -4 0.12383630E-01 0.12500061E+03</pdfrwt>
<totfact> 0.10365314E+04</totfact>
</mgrwt>
</event>
<event>
 5    1  0.3300771E-002  0.1249937E+03  0.7818608E-02  0.1235079E+00
          4   -1    0    0  501    0  0.00000000000E+00  0.00000000000E+00  0.77287800834E+01  0.78324288428E+01  0.12700000000E+01 0. -1.
         -4   -1    0    0    0  501 -0.00000000000E+00 -0.00000000000E+00 -0.50189500763E+03  0.50189661444E+03  0.12700000000E+01 0. -1.
         25    2    1    2    0    0  0.00000000000E+00  0.00000000000E+00 -0.49416622755E+03  0.50972904328E+03  0.12499374831E+03 0.  0.
    9000005    1    3    3    0    0  0.51301556242E+02  0.30927634275E+02 -0.17453405202E+03  0.18453049490E+03  0.10000000000E+01 0.  0.
    9000005    1    3    3    0    0 -0.51301556242E+02 -0.30927634275E+02 -0.31963217553E+03  0.32519854838E+03  0.10000000000E+01 0.  0.
<mgrwt>
<rscale>  0 0.12499375E+03</rscale>
<asrwt>0</asrwt>
<pdfrwt beam="1">  1        4 0.11971401E-02 0.12499375E+03</pdfrwt>
<pdfrwt beam="2">  1       -4 0.77222688E-01 0.12499375E+03</pdfrwt>
<totfact> 0.55124921E+03</totfact>
</mgrwt>
</event>
<event>
 5    1  0.3300771E-002  0.1250035E+03  0.7818608E-02  0.1235064E+00
          4   -1    0    0  501    0  0.00000000000E+00  0.00000000000E+00  0.82976367495E+02  0.82986085959E+02  0.12700000000E+01 0.  1.
         -4   -1    0    0    0  501 -0.00000000000E+00 -0.00000000000E+00 -0.47058281306E+02  0.47075415447E+02  0.12700000000E+01 0.  1.
         25    2    1    2    0    0  0.00000000000E+00  0.00000000000E+00  0.35918086189E+02  0.13006150141E+03  0.12500354088E+03 0.  0.
    9000005    1    3    3    0    0  0.50838458272E+02  0.18404737966E+02 -0.14648928167E+02  0.56025657654E+02  0.10000000000E+01 0.  0.
    9000005    1    3    3    0    0 -0.50838458272E+02 -0.18404737966E+02  0.50567014356E+02  0.74035843752E+02  0.10000000000E+01 0.  0.
<mgrwt>
<rscale>  0 0.12500354E+03</rscale>
<asrwt>0</asrwt>
<pdfrwt beam="1">  1        4 0.12767661E-01 0.12500354E+03</pdfrwt>
<pdfrwt beam="2">  1       -4 0.72418011E-02 0.12500354E+03</pdfrwt>
<totfact> 0.10342365E+04</totfact>
</mgrwt>
</event>
<event>
 5    1  0.3300771E-002  0.1250072E+03  0.7818608E-02  0.1235058E+00
         -4   -1    0    0    0  501 -0.00000000000E+00  0.00000000000E+00  0.98012003590E+02  0.98020231318E+02  0.12700000000E+01 0. -1.
          4   -1    0    0  501    0  0.00000000000E+00 -0.00000000000E+00 -0.39839388885E+02  0.39859626275E+02  0.12700000000E+01 0. -1.
         25    2    1    2    0    0  0.00000000000E+00  0.00000000000E+00  0.58172614705E+02  0.13787985759E+03  0.12500720791E+03 0.  0.
    9000005    1    3    3    0    0 -0.48995906813E+02  0.36659557743E+02  0.15083366422E+02  0.63031976020E+02  0.10000000000E+01 0.  0.
    9000005    1    3    3    0    0  0.48995906813E+02 -0.36659557743E+02  0.43089248282E+02  0.74847881573E+02  0.10000000000E+01 0.  0.
<mgrwt>
<rscale>  0 0.12500721E+03</rscale>
<asrwt>0</asrwt>
<pdfrwt beam="2">  1        4 0.61313264E-02 0.12500721E+03</pdfrwt>
<pdfrwt beam="1">  1       -4 0.15080959E-01 0.12500721E+03</pdfrwt>
<totfact> 0.10176064E+04</totfact>
</mgrwt>
</event>
<event>
 5    1  0.3300771E-002  0.1250010E+03  0.7818608E-02  0.1235068E+00
         -4   -1    0    0    0  501 -0.00000000000E+00  0.00000000000E+00  0.11612441598E+03  0.11613136048E+03  0.12700000000E+01 0.  1.
          4   -1    0    0  501    0  0.00000000000E+00 -0.00000000000E+00 -0.33619087711E+02  0.33643067021E+02  0.12700000000E+01 0.  1.
         25    2    1    2    0    0  0.00000000000E+00  0.00000000000E+00  0.82505328270E+02  0.14977442750E+03  0.12500099976E+03 0.  0.
    9000005    1    3    3    0    0  0.61231304764E+02  0.92058810302E+01  0.51369465654E+02  0.80460194695E+02  0.10000000000E+01 0.  0.
    9000005    1    3    3    0    0 -0.61231304764E+02 -0.92058810302E+01  0.31135862615E+02  0.69314232806E+02  0.10000000000E+01 0.  0.
<mgrwt>
<rscale>  0 0.12500100E+03</rscale>
<asrwt>0</asrwt>
<pdfrwt beam="2">  1        4 0.51745461E-02 0.12500100E+03</pdfrwt>
<pdfrwt beam="1">  1       -4 0.17867673E-01 0.12500100E+03</pdfrwt>
<totfact> 0.99346446E+03</totfact>
</mgrwt>
</event>
<event>
 5    1  0.3300771E-002  0.1250007E+03  0.7818608E-02  0.1235068E+00
         -4   -1    0    0    0  501 -0.00000000000E+00  0.00000000000E+00  0.13710474747E+02  0.13769169103E+02  0.12700000000E+01 0. -1.
          4   -1    0    0  501    0  0.00000000000E+00 -0.00000000000E+00 -0.28424456774E+03  0.28424740489E+03  0.12700000000E+01 0. -1.
         25    2    1    2    0    0  0.00000000000E+00  0.00000000000E+00 -0.27053409299E+03  0.29801657400E+03  0.12500073162E+03 0.  0.
    9000005    1    3    3    0    0  0.16729011475E+02  0.12681401212E+02  0.50645736825E+01  0.21617762794E+02  0.10000000000E+01 0.  0.
    9000005    1    3    3    0    0 -0.16729011475E+02 -0.12681401212E+02 -0.27559866667E+03  0.27639881120E+03  0.10000000000E+01 0.  0.
<mgrwt>
<rscale>  0 0.12500073E+03</rscale>
<asrwt>0</asrwt>
<pdfrwt beam="2">  1        4 0.43734662E-01 0.12500073E+03</pdfrwt>
<pdfrwt beam="1">  1       -4 0.21140372E-02 0.12500073E+03</pdfrwt>
<totfact> 0.75847081E+03</totfact>
</mgrwt>
</event>
<event>
 5    1  0.3300771E-002  0.1249987E+03  0.7818608E-02  0.1235071E+00
          4   -1    0    0  501    0  0.00000000000E+00  0.00000000000E+00  0.12362795501E+03  0.12363447804E+03  0.12700000000E+01 0. -1.
         -4   -1    0    0    0  501 -0.00000000000E+00 -0.00000000000E+00 -0.31576030711E+02  0.31601560332E+02  0.12700000000E+01 0. -1.
         25    2    1    2    0    0  0.00000000000E+00  0.00000000000E+00  0.92051924297E+02  0.15523603837E+03  0.12499868336E+03 0.  0.
    9000005    1    3    3    0    0  0.17925910790E+02  0.44408222604E+02  0.95883921201E+02  0.10718281046E+03  0.10000000000E+01 0.  0.
    9000005    1    3    3    0    0 -0.17925910790E+02 -0.44408222604E+02 -0.38319969038E+01  0.48053227912E+02  0.10000000000E+01 0.  0.
<mgrwt>
<rscale>  0 0.12499868E+03</rscale>
<asrwt>0</asrwt>
<pdfrwt beam="1">  1        4 0.19022151E-01 0.12499868E+03</pdfrwt>
<pdfrwt beam="2">  1       -4 0.48603165E-02 0.12499868E+03</pdfrwt>
<totfact> 0.98272091E+03</totfact>
</mgrwt>
</event>
<event>
 5    1  0.3300771E-002  0.1249989E+03  0.7818608E-02  0.1235071E+00
          4   -1    0    0  501    0  0.00000000000E+00  0.00000000000E+00  0.40024094895E+03  0.40024296386E+03  0.12700000000E+01 0. -1.
         -4   -1    0    0    0  501 -0.00000000000E+00 -0.00000000000E+00 -0.97162100168E+01  0.97988589688E+01  0.12700000000E+01 0. -1.
         25    2    1    2    0    0  0.00000000000E+00  0.00000000000E+00  0.39052473893E+03  0.41004182283E+03  0.12499889898E+03 0.  0.
    9000005    1    3    3    0    0 -0.26231874660E+02 -0.20576677419E+02  0.36864657868E+03  0.37015241574E+03  0.10000000000E+01 0.  0.
    9000005    1    3    3    0    0  0.26231874660E+02  0.20576677419E+02  0.21878160248E+02  0.39889407085E+02  0.10000000000E+01 0.  0.
<mgrwt>
<rscale>  0 0.12499890E+03</rscale>
<asrwt>0</asrwt>
<pdfrwt beam="1">  1        4 0.61582052E-01 0.12499890E+03</pdfrwt>
<pdfrwt beam="2">  1       -4 0.15013139E-02 0.12499890E+03</pdfrwt>
<totfact> 0.63589250E+03</totfact>
</mgrwt>
</event>
<event>
 5    1  0.3300771E-002  0.1249983E+03  0.7818608E-02  0.1235072E+00
         -4   -1    0    0    0  501 -0.00000000000E+00  0.00000000000E+00  0.19959871245E+02  0.20000234002E+02  0.12700000000E+01 0.  1.
          4   -1    0    0  501    0  0.00000000000E+00 -0.00000000000E+00 -0.19545965976E+03  0.19546378563E+03  0.12700000000E+01 0.  1.
         25    2    1    2    0    0  0.00000000000E+00  0.00000000000E+00 -0.17549978852E+03  0.21546401963E+03  0.12499827194E+03 0.  0.
    9000005    1    3    3    0    0 -0.37139480502E+02 -0.37649323622E+02 -0.30363996725E+02  0.60990039172E+02  0.10000000000E+01 0.  0.
    9000005    1    3    3    0    0  0.37139480502E+02  0.37649323622E+02 -0.14513579179E+03  0.15447398046E+03  0.10000000000E+01 0.  0.
<mgrwt>
<rscale>  0 0.12499827E+03</rscale>
<asrwt>0</asrwt>
<pdfrwt beam="2">  1        4 0.30074138E-01 0.12499827E+03</pdfrwt>
<pdfrwt beam="1">  1       -4 0.30741718E-02 0.12499827E+03</pdfrwt>
<totfact> 0.87594620E+03</totfact>
</mgrwt>
</event>
<event>
 5    1  0.3300771E-002  0.1250034E+03  0.7818608E-02  0.1235064E+00
          4   -1    0    0  501    0  0.00000000000E+00  0.00000000000E+00  0.85226917577E+02  0.85236379438E+02  0.12700000000E+01 0.  1.
         -4   -1    0    0    0  501 -0.00000000000E+00 -0.00000000000E+00 -0.45815200123E+02  0.45832798979E+02  0.12700000000E+01 0.  1.
         25    2    1    2    0    0  0.00000000000E+00  0.00000000000E+00  0.39411717455E+02  0.13106917842E+03  0.12500338419E+03 0.  0.
    9000005    1    3    3    0    0 -0.23399242261E+02  0.38633805521E+02 -0.25579815727E+02  0.51917457951E+02  0.10000000000E+01 0.  0.
    9000005    1    3    3    0    0  0.23399242261E+02 -0.38633805521E+02  0.64991533182E+02  0.79151720467E+02  0.10000000000E+01 0.  0.
<mgrwt>
<rscale>  0 0.12500338E+03</rscale>
<asrwt>0</asrwt>
<pdfrwt beam="1">  1        4 0.13113915E-01 0.12500338E+03</pdfrwt>
<pdfrwt beam="2">  1       -4 0.70505739E-02 0.12500338E+03</pdfrwt>
<totfact> 0.10320818E+04</totfact>
</mgrwt>
</event>
<event>
 5    1  0.3300771E-002  0.1249951E+03  0.7818608E-02  0.1235077E+00
          4   -1    0    0  501    0  0.00000000000E+00  0.00000000000E+00  0.20684041355E+02  0.20722993674E+02  0.12700000000E+01 0.  1.
         -4   -1    0    0    0  501 -0.00000000000E+00 -0.00000000000E+00 -0.18861963604E+03  0.18862391153E+03  0.12700000000E+01 0.  1.
         25    2    1    2    0    0  0.00000000000E+00  0.00000000000E+00 -0.16793559468E+03  0.20934690520E+03  0.12499505092E+03 0.  0.
    9000005    1    3    3    0    0  0.44993868976E+02 -0.15444521888E+02 -0.16101382693E+02  0.50231822846E+02  0.10000000000E+01 0.  0.
    9000005    1    3    3    0    0 -0.44993868976E+02  0.15444521888E+02 -0.15183421199E+03  0.15911508236E+03  0.10000000000E+01 0.  0.
<mgrwt>
<rscale>  0 0.12499505E+03</rscale>
<asrwt>0</asrwt>
<pdfrwt beam="1">  1        4 0.31854855E-02 0.12499505E+03</pdfrwt>
<pdfrwt beam="2">  1       -4 0.29021730E-01 0.12499505E+03</pdfrwt>
<totfact> 0.88592454E+03</totfact>
</mgrwt>
</event>
<event>
 5    1  0.3300771E-002  0.1250125E+03  0.7818608E-02  0.1235050E+00
         -4   -1    0    0    0  501 -0.00000000000E+00  0.00000000000E+00  0.58910215625E+03  0.58910352520E+03  0.12700000000E+01 0.  1.
          4   -1    0    0  501    0  0.00000000000E+00 -0.00000000000E+00 -0.65699875564E+01  0.66916094096E+01  0.12700000000E+01 0.  1.
         25    2    1    2    0    0  0.00000000000E+00  0.00000000000E+00  0.58253216870E+03  0.59579513461E+03  0.12501245881E+03 0.  0.
    9000005    1    3    3    0    0 -0.10081587741E+02  0.24145835830E+02  0.56176397758E+03  0.56237392037E+03  0.10000000000E+01 0.  0.
    9000005    1    3    3    0    0  0.10081587741E+02 -0.24145835830E+02  0.20768191116E+02  0.33421214244E+02  0.10000000000E+01 0.  0.
<mgrwt>
<rscale>  0 0.12501246E+03</rscale>
<asrwt>0</asrwt>
<pdfrwt beam="2">  1        4 0.10202284E-02 0.12501246E+03</pdfrwt>
<pdfrwt beam="1">  1       -4 0.90640541E-01 0.12501246E+03</pdfrwt>
<totfact> 0.49120700E+03</totfact>
</mgrwt>
</event>
<event>
 5    1  0.3300771E-002  0.1249989E+03  0.7818608E-02  0.1235071E+00
          4   -1    0    0  501    0  0.00000000000E+00  0.00000000000E+00  0.34398180349E+01  0.36667762563E+01  0.12700000000E+01 0. -1.
         -4   -1    0    0    0  501 -0.00000000000E+00 -0.00000000000E+00 -0.10990847363E+04  0.10990854701E+04  0.12700000000E+01 0. -1.
         25    2    1    2    0    0  0.00000000000E+00  0.00000000000E+00 -0.10956449183E+04  0.11027522463E+04  0.12499891922E+03 0.  0.
    9000005    1    3    3    0    0  0.19490935466E+02  0.46765181966E+02 -0.22508526196E+03  0.23071899350E+03  0.10000000000E+01 0.  0.
    9000005    1    3    3    0    0 -0.19490935466E+02 -0.46765181966E+02 -0.87055965632E+03  0.87203325282E+03  0.10000000000E+01 0.  0.
<mgrwt>
<rscale>  0 0.12499892E+03</rscale>
<asrwt>0</asrwt>
<pdfrwt beam="1">  1        4 0.54671842E-03 0.12499892E+03</pdfrwt>
<pdfrwt beam="2">  1       -4 0.16910720E+00 0.12499892E+03</pdfrwt>
<totfact> 0.27403676E+03</totfact>
</mgrwt>
</event>
<event>
 5    1  0.3300771E-002  0.1250030E+03  0.7818608E-02  0.1235065E+00
          4   -1    0    0  501    0  0.00000000000E+00  0.00000000000E+00  0.31996569107E+02  0.32021763453E+02  0.12700000000E+01 0. -1.
         -4   -1    0    0    0  501 -0.00000000000E+00 -0.00000000000E+00 -0.12201262381E+03  0.12201923320E+03  0.12700000000E+01 0. -1.
         25    2    1    2    0    0  0.00000000000E+00  0.00000000000E+00 -0.90016054708E+02  0.15404099665E+03  0.12500295414E+03 0.  0.
    9000005    1    3    3    0    0  0.58273165041E+02 -0.13959880593E+02 -0.23144024053E+02  0.64243955976E+02  0.10000000000E+01 0.  0.
    9000005    1    3    3    0    0 -0.58273165041E+02  0.13959880593E+02 -0.66872030654E+02  0.89797040675E+02  0.10000000000E+01 0.  0.
<mgrwt>
<rscale>  0 0.12500295E+03</rscale>
<asrwt>0</asrwt>
<pdfrwt beam="1">  1        4 0.49249956E-02 0.12500295E+03</pdfrwt>
<pdfrwt beam="2">  1       -4 0.18773619E-01 0.12500295E+03</pdfrwt>
<totfact> 0.98497548E+03</totfact>
</mgrwt>
</event>
<event>
 5    1  0.3300771E-002  0.1249975E+03  0.7818608E-02  0.1235073E+00
         -4   -1    0    0    0  501 -0.00000000000E+00  0.00000000000E+00  0.29533471481E+02  0.29560765174E+02  0.12700000000E+01 0. -1.
          4   -1    0    0  501    0  0.00000000000E+00 -0.00000000000E+00 -0.13216848826E+03  0.13217458980E+03  0.12700000000E+01 0. -1.
         25    2    1    2    0    0  0.00000000000E+00  0.00000000000E+00 -0.10263501678E+03  0.16173535497E+03  0.12499751349E+03 0.  0.
    9000005    1    3    3    0    0 -0.27587665679E+02  0.45006432938E+02 -0.94589732481E+02  0.10832763172E+03  0.10000000000E+01 0.  0.
    9000005    1    3    3    0    0  0.27587665679E+02 -0.45006432938E+02 -0.80452842949E+01  0.53407723250E+02  0.10000000000E+01 0.  0.
<mgrwt>
<rscale>  0 0.12499751E+03</rscale>
<asrwt>0</asrwt>
<pdfrwt beam="2">  1        4 0.20336182E-01 0.12499751E+03</pdfrwt>
<pdfrwt beam="1">  1       -4 0.45461800E-02 0.12499751E+03</pdfrwt>
<totfact> 0.97014683E+03</totfact>
</mgrwt>
</event>
<event>
 5    1  0.3300771E-002  0.1249956E+03  0.7818608E-02  0.1235076E+00
          4   -1    0    0  501    0  0.00000000000E+00  0.00000000000E+00  0.41303443480E+01  0.43211855356E+01  0.12700000000E+01 0. -1.
         -4   -1    0    0    0  501 -0.00000000000E+00 -0.00000000000E+00 -0.92413307893E+03  0.92413395158E+03  0.12700000000E+01 0. -1.
         25    2    1    2    0    0  0.00000000000E+00  0.00000000000E+00 -0.92000273458E+03  0.92845513712E+03  0.12499563996E+03 0.  0.
    9000005    1    3    3    0    0  0.26958778767E+00 -0.60728650992E+02 -0.56940497561E+03  0.57263519624E+03  0.10000000000E+01 0.  0.
    9000005    1    3    3    0    0 -0.26958778767E+00  0.60728650992E+02 -0.35059775897E+03  0.35581994088E+03  0.10000000000E+01 0.  0.
<mgrwt>
<rscale>  0 0.12499564E+03</rscale>
<asrwt>0</asrwt>
<pdfrwt beam="1">  1        4 0.65018554E-03 0.12499564E+03</pdfrwt>
<pdfrwt beam="2">  1       -4 0.14218891E+00 0.12499564E+03</pdfrwt>
<totfact> 0.33096644E+03</totfact>
</mgrwt>
</event>
<event>
 5    1  0.3300771E-002  0.1249930E+03  0.7818608E-02  0.1235080E+00
          4   -1    0    0  501    0  0.00000000000E+00  0.00000000000E+00  0.23237770124E+01  0.26481766564E+01  0.12700000000E+01 0.  1.
         -4   -1    0    0    0  501 -0.00000000000E+00 -0.00000000000E+00 -0.15708125072E+04  0.15708130206E+04  0.12700000000E+01 0.  1.
         25    2    1    2    0    0  0.00000000000E+00  0.00000000000E+00 -0.15684887302E+04  0.15734611973E+04  0.12499296995E+03 0.  0.
    9000005    1    3    3    0    0 -0.27794673363E+02 -0.84825353287E+01 -0.14806357650E+04  0.14809212558E+04  0.10000000000E+01 0.  0.
    9000005    1    3    3    0    0  0.27794673363E+02  0.84825353287E+01 -0.87852965238E+02  0.92539941507E+02  0.10000000000E+01 0.  0.
<mgrwt>
<rscale>  0 0.12499297E+03</rscale>
<asrwt>0</asrwt>
<pdfrwt beam="1">  1        4 0.38249872E-03 0.12499297E+03</pdfrwt>
<pdfrwt beam="2">  1       -4 0.24168766E+00 0.12499297E+03</pdfrwt>
<totfact> 0.16533367E+03</totfact>
</mgrwt>
</event>
<event>
 5    1  0.3300771E-002  0.1249997E+03  0.7818608E-02  0.1235070E+00
         -4   -1    0    0    0  501 -0.00000000000E+00  0.00000000000E+00  0.15219990725E+01  0.19822666765E+01  0.12700000000E+01 0.  1.
          4   -1    0    0  501    0  0.00000000000E+00 -0.00000000000E+00 -0.22289552105E+04  0.22289555723E+04  0.12700000000E+01 0.  1.
         25    2    1    2    0    0  0.00000000000E+00  0.00000000000E+00 -0.22274332114E+04  0.22309378389E+04  0.12499972014E+03 0.  0.
    9000005    1    3    3    0    0 -0.58896366838E+02  0.17885884521E+02 -0.92104114713E+03  0.92309613887E+03  0.10000000000E+01 0.  0.
    9000005    1    3    3    0    0  0.58896366838E+02 -0.17885884521E+02 -0.13063920642E+04  0.13078417001E+04  0.10000000000E+01 0.  0.
<mgrwt>
<rscale>  0 0.12499972E+03</rscale>
<asrwt>0</asrwt>
<pdfrwt beam="2">  1        4 0.34294935E+00 0.12499972E+03</pdfrwt>
<pdfrwt beam="1">  1       -4 0.26958852E-03 0.12499972E+03</pdfrwt>
<totfact> 0.71402953E+02</totfact>
</mgrwt>
</event>
<event>
 5    1  0.3300771E-002  0.1250006E+03  0.7818608E-02  0.1235068E+00
          4   -1    0    0  501    0  0.00000000000E+00  0.00000000000E+00  0.60948431618E+02  0.60961661860E+02  0.12700000000E+01 0. -1.
         -4   -1    0    0    0  501 -0.00000000000E+00 -0.00000000000E+00 -0.64065176284E+02  0.64077763009E+02  0.12700000000E+01 0. -1.
         25    2    1    2    0    0  0.00000000000E+00  0.00000000000E+00 -0.31167446655E+01  0.12503942487E+03  0.12500057470E+03 0.  0.
    9000005    1    3    3    0    0 -0.31147846059E+02 -0.28159778393E+02  0.44739103156E+02  0.61365697132E+02  0.10000000000E+01 0.  0.
    9000005    1    3    3    0    0  0.31147846059E+02  0.28159778393E+02 -0.47855847822E+02  0.63673727738E+02  0.10000000000E+01 0.  0.
<mgrwt>
<rscale>  0 0.12500057E+03</rscale>
<asrwt>0</asrwt>
<pdfrwt beam="1">  1        4 0.93786677E-02 0.12500057E+03</pdfrwt>
<pdfrwt beam="2">  1       -4 0.98581669E-02 0.12500057E+03</pdfrwt>
<totfact> 0.10451871E+04</totfact>
</mgrwt>
</event>
<event>
 5    1  0.3300771E-002  0.1249990E+03  0.7818608E-02  0.1235071E+00
         -4   -1    0    0    0  501 -0.00000000000E+00  0.00000000000E+00  0.16064989122E+02  0.16115110160E+02  0.12700000000E+01 0.  1.
          4   -1    0    0  501    0  0.00000000000E+00 -0.00000000000E+00 -0.24271858809E+03  0.24272191064E+03  0.12700000000E+01 0.  1.
         25    2    1    2    0    0  0.00000000000E+00  0.00000000000E+00 -0.22665359897E+03  0.25883702080E+03  0.12499899764E+03 0.  0.
    9000005    1    3    3    0    0  0.58662754542E+02  0.60623976896E+01 -0.70531828136E+02  0.91944604063E+02  0.10000000000E+01 0.  0.
    9000005    1    3    3    0    0 -0.58662754542E+02 -0.60623976896E+01 -0.15612177083E+03  0.16689241674E+03  0.10000000000E+01 0.  0.
<mgrwt>
<rscale>  0 0.12499900E+03</rscale>
<asrwt>0</asrwt>
<pdfrwt beam="2">  1        4 0.37345430E-01 0.12499900E+03</pdfrwt>
<pdfrwt beam="1">  1       -4 0.24756480E-02 0.12499900E+03</pdfrwt>
<totfact> 0.81071356E+03</totfact>
</mgrwt>
</event>
<event>
 5    1  0.3300771E-002  0.1250042E+03  0.7818608E-02  0.1235063E+00
          4   -1    0    0  501    0  0.00000000000E+00  0.00000000000E+00  0.49798588220E+03  0.49798750162E+03  0.12700000000E+01 0. -1.
         -4   -1    0    0    0  501 -0.00000000000E+00 -0.00000000000E+00 -0.77915745660E+01  0.78943989143E+01  0.12700000000E+01 0. -1.
         25    2    1    2    0    0  0.00000000000E+00  0.00000000000E+00  0.49019430764E+03  0.50588190054E+03  0.12500415214E+03 0.  0.
    9000005    1    3    3    0    0  0.23908261246E+02  0.53523915193E+02  0.33274780204E+03  0.33787351808E+03  0.10000000000E+01 0.  0.
    9000005    1    3    3    0    0 -0.23908261246E+02 -0.53523915193E+02  0.15744650559E+03  0.16800838246E+03  0.10000000000E+01 0.  0.
<mgrwt>
<rscale>  0 0.12500415E+03</rscale>
<asrwt>0</asrwt>
<pdfrwt beam="1">  1        4 0.76621258E-01 0.12500415E+03</pdfrwt>
<pdfrwt beam="2">  1       -4 0.12067377E-02 0.12500415E+03</pdfrwt>
<totfact> 0.55405809E+03</totfact>
</mgrwt>
</event>
<event>
 5    1  0.3300771E-002  0.1250000E+03  0.7818608E-02  0.1235069E+00
         -4   -1    0    0    0  501 -0.00000000000E+00  0.00000000000E+00  0.50463946763E+03  0.50464106570E+03  0.12700000000E+01 0. -1.
          4   -1    0    0  501    0  0.00000000000E+00 -0.00000000000E+00 -0.76869571657E+01  0.77911623310E+01  0.12700000000E+01 0. -1.
         25    2    1    2    0    0  0.00000000000E+00  0.00000000000E+00  0.49695251047E+03  0.51243222803E+03  0.12499996267E+03 0.  0.
    9000005    1    3    3    0    0 -0.51722180960E+02 -0.26094183721E+02  0.15240910475E+03  0.16305099091E+03  0.10000000000E+01 0.  0.
    9000005    1    3    3    0    0  0.51722180960E+02  0.26094183721E+02  0.34454340572E+03  0.34938123712E+03  0.10000000000E+01 0.  0.
<mgrwt>
<rscale>  0 0.12499996E+03</rscale>
<asrwt>0</asrwt>
<pdfrwt beam="2">  1        4 0.11907473E-02 0.12499996E+03</pdfrwt>
<pdfrwt beam="1">  1       -4 0.77644994E-01 0.12499996E+03</pdfrwt>
<totfact> 0.54912555E+03</totfact>
</mgrwt>
</event>
<event>
 5    1  0.3300771E-002  0.1250019E+03  0.7818608E-02  0.1235066E+00
         -4   -1    0    0    0  501 -0.00000000000E+00  0.00000000000E+00  0.38545474769E+02  0.38566391135E+02  0.12700000000E+01 0. -1.
          4   -1    0    0  501    0  0.00000000000E+00 -0.00000000000E+00 -0.10129197860E+03  0.10129993992E+03  0.12700000000E+01 0. -1.
         25    2    1    2    0    0  0.00000000000E+00  0.00000000000E+00 -0.62746503828E+02  0.13986633106E+03  0.12500186727E+03 0.  0.
    9000005    1    3    3    0    0 -0.50514867380E+02 -0.36222242776E+02 -0.38586907236E+02  0.73169338580E+02  0.10000000000E+01 0.  0.
    9000005    1    3    3    0    0  0.50514867380E+02  0.36222242776E+02 -0.24159596592E+02  0.66696992478E+02  0.10000000000E+01 0.  0.
<mgrwt>
<rscale>  0 0.12500187E+03</rscale>
<asrwt>0</asrwt>
<pdfrwt beam="2">  1        4 0.15585603E-01 0.12500187E+03</pdfrwt>
<pdfrwt beam="1">  1       -4 0.59322944E-02 0.12500187E+03</pdfrwt>
<totfact> 0.10135930E+04</totfact>
</mgrwt>
</event>
<event>
 5    1  0.3300771E-002  0.1249925E+03  0.7818608E-02  0.1235081E+00
         -4   -1    0    0    0  501 -0.00000000000E+00  0.00000000000E+00  0.11737368188E+03  0.11738055247E+03  0.12700000000E+01 0.  1.
          4   -1    0    0  501    0  0.00000000000E+00 -0.00000000000E+00 -0.33256497681E+02  0.33280738243E+02  0.12700000000E+01 0.  1.
         25    2    1    2    0    0  0.00000000000E+00  0.00000000000E+00  0.84117184199E+02  0.15066129071E+03  0.12499249514E+03 0.  0.
    9000005    1    3    3    0    0 -0.36664387140E+02  0.17625399415E+02  0.99232045964E+02  0.10725171763E+03  0.10000000000E+01 0.  0.
    9000005    1    3    3    0    0  0.36664387140E+02 -0.17625399415E+02 -0.15114861765E+02  0.43409573080E+02  0.10000000000E+01 0.  0.
<mgrwt>
<rscale>  0 0.12499250E+03</rscale>
<asrwt>0</asrwt>
<pdfrwt beam="2">  1        4 0.51187774E-02 0.12499250E+03</pdfrwt>
<pdfrwt beam="1">  1       -4 0.18059883E-01 0.12499250E+03</pdfrwt>
<totfact> 0.99188794E+03</totfact>
</mgrwt>
</event>
<event>
 5    1  0.3300771E-002  0.1250027E+03  0.7818608E-02  0.1235065E+00
          4   -1    0    0  501    0  0.00000000000E+00  0.00000000000E+00  0.33955151147E+02  0.33978893293E+02  0.12700000000E+01 0. -1.
         -4   -1    0    0    0  501 -0.00000000000E+00 -0.00000000000E+00 -0.11497889367E+03  0.11498590735E+03  0.12700000000E+01 0. -1.
         25    2    1    2    0    0  0.00000000000E+00  0.00000000000E+00 -0.81023742521E+02  0.14896480064E+03  0.12500265989E+03 0.  0.
    9000005    1    3    3    0    0  0.41405676795E+01  0.36134322607E+01 -0.11469622362E+03  0.11483215972E+03  0.10000000000E+01 0.  0.
    9000005    1    3    3    0    0 -0.41405676795E+01 -0.36134322607E+01  0.33672481096E+02  0.34132640926E+02  0.10000000000E+01 0.  0.
<mgrwt>
<rscale>  0 0.12500266E+03</rscale>
<asrwt>0</asrwt>
<pdfrwt beam="1">  1        4 0.52262353E-02 0.12500266E+03</pdfrwt>
<pdfrwt beam="2">  1       -4 0.17691426E-01 0.12500266E+03</pdfrwt>
<totfact> 0.99504493E+03</totfact>
</mgrwt>
</event>
<event>
 5    1  0.3300771E-002  0.1250014E+03  0.7818608E-02  0.1235067E+00
         -4   -1    0    0    0  501 -0.00000000000E+00  0.00000000000E+00  0.11724643473E+03  0.11725331278E+03  0.12700000000E+01 0.  1.
          4   -1    0    0  501    0  0.00000000000E+00 -0.00000000000E+00 -0.33297357194E+02  0.33321568032E+02  0.12700000000E+01 0.  1.
         25    2    1    2    0    0  0.00000000000E+00  0.00000000000E+00  0.83949077541E+02  0.15057488081E+03  0.12500138844E+03 0.  0.
    9000005    1    3    3    0    0 -0.46856700094E+02  0.24408266651E+02  0.17691041941E+01  0.52871954326E+02  0.10000000000E+01 0.  0.
    9000005    1    3    3    0    0  0.46856700094E+02 -0.24408266651E+02  0.82179973347E+02  0.97702926486E+02  0.10000000000E+01 0.  0.
<mgrwt>
<rscale>  0 0.12500139E+03</rscale>
<asrwt>0</asrwt>
<pdfrwt beam="2">  1        4 0.51250617E-02 0.12500139E+03</pdfrwt>
<pdfrwt beam="1">  1       -4 0.18040305E-01 0.12500139E+03</pdfrwt>
<totfact> 0.99186128E+03</totfact>
</mgrwt>
</event>
<event>
 5    1  0.3300771E-002  0.1249986E+03  0.7818608E-02  0.1235071E+00
         -4   -1    0    0    0  501 -0.00000000000E+00  0.00000000000E+00  0.12534295664E+02  0.12598470851E+02  0.12700000000E+01 0. -1.
          4   -1    0    0  501    0  0.00000000000E+00 -0.00000000000E+00 -0.31077676322E+03  0.31077935816E+03  0.12700000000E+01 0. -1.
         25    2    1    2    0    0  0.00000000000E+00  0.00000000000E+00 -0.29824246756E+03  0.32337782901E+03  0.12499860336E+03 0.  0.
    9000005    1    3    3    0    0 -0.50404647601E+02  0.34236379380E+02 -0.11323625155E+03  0.12859318348E+03  0.10000000000E+01 0.  0.
    9000005    1    3    3    0    0  0.50404647601E+02 -0.34236379380E+02 -0.18500621601E+03  0.19478464553E+03  0.10000000000E+01 0.  0.
<mgrwt>
<rscale>  0 0.12499860E+03</rscale>
<asrwt>0</asrwt>
<pdfrwt beam="2">  1        4 0.47816940E-01 0.12499860E+03</pdfrwt>
<pdfrwt beam="1">  1       -4 0.19334896E-02 0.12499860E+03</pdfrwt>
<totfact> 0.72758425E+03</totfact>
</mgrwt>
</event>
<event>
 5    1  0.3300771E-002  0.1250011E+03  0.7818608E-02  0.1235068E+00
         -4   -1    0    0    0  501 -0.00000000000E+00  0.00000000000E+00  0.34401881446E+02  0.34425315497E+02  0.12700000000E+01 0.  1.
          4   -1    0    0  501    0  0.00000000000E+00 -0.00000000000E+00 -0.11348391916E+03  0.11349102523E+03  0.12700000000E+01 0.  1.
         25    2    1    2    0    0  0.00000000000E+00  0.00000000000E+00 -0.79082037716E+02  0.14791634073E+03  0.12500110066E+03 0.  0.
    9000005    1    3    3    0    0 -0.49441814269E+02  0.30591599595E+02 -0.66653772330E+02  0.88453741186E+02  0.10000000000E+01 0.  0.
    9000005    1    3    3    0    0  0.49441814269E+02 -0.30591599595E+02 -0.12428265386E+02  0.59462599544E+02  0.10000000000E+01 0.  0.
<mgrwt>
<rscale>  0 0.12500110E+03</rscale>
<asrwt>0</asrwt>
<pdfrwt beam="2">  1        4 0.17461414E-01 0.12500110E+03</pdfrwt>
<pdfrwt beam="1">  1       -4 0.52949464E-02 0.12500110E+03</pdfrwt>
<totfact> 0.99718206E+03</totfact>
</mgrwt>
</event>
<event>
 5    1  0.3300771E-002  0.1249998E+03  0.7818608E-02  0.1235070E+00
          4   -1    0    0  501    0  0.00000000000E+00  0.00000000000E+00  0.25968896885E+02  0.25999932797E+02  0.12700000000E+01 0. -1.
         -4   -1    0    0    0  501 -0.00000000000E+00 -0.00000000000E+00 -0.15029623209E+03  0.15030159773E+03  0.12700000000E+01 0. -1.
         25    2    1    2    0    0  0.00000000000E+00  0.00000000000E+00 -0.12432733521E+03  0.17630153053E+03  0.12499977355E+03 0.  0.
    9000005    1    3    3    0    0 -0.26939802873E+02  0.56207792044E+02 -0.55829824415E+02  0.83684157160E+02  0.10000000000E+01 0.  0.
    9000005    1    3    3    0    0  0.26939802873E+02 -0.56207792044E+02 -0.68497510791E+02  0.92617373370E+02  0.10000000000E+01 0.  0.
<mgrwt>
<rscale>  0 0.12499977E+03</rscale>
<asrwt>0</asrwt>
<pdfrwt beam="1">  1        4 0.39980151E-02 0.12499977E+03</pdfrwt>
<pdfrwt beam="2">  1       -4 0.23125297E-01 0.12499977E+03</pdfrwt>
<totfact> 0.94287487E+03</totfact>
</mgrwt>
</event>
<event>
 5    1  0.3300771E-002  0.1250009E+03  0.7818608E-02  0.1235068E+00
          4   -1    0    0  501    0  0.00000000000E+00  0.00000000000E+00  0.44054724009E+02  0.44073025849E+02  0.12700000000E+01 0.  1.
         -4   -1    0    0    0  501 -0.00000000000E+00 -0.00000000000E+00 -0.88628126231E+02  0.88637225020E+02  0.12700000000E+01 0.  1.
         25    2    1    2    0    0  0.00000000000E+00  0.00000000000E+00 -0.44573402222E+02  0.13271025087E+03  0.12500089000E+03 0.  0.
    9000005    1    3    3    0    0 -0.23637858160E+02 -0.51361524963E+02  0.59736097626E+01  0.56863332636E+02  0.10000000000E+01 0.  0.
    9000005    1    3    3    0    0  0.23637858160E+02  0.51361524963E+02 -0.50547011985E+02  0.75846918233E+02  0.10000000000E+01 0.  0.
<mgrwt>
<rscale>  0 0.12500089E+03</rscale>
<asrwt>0</asrwt>
<pdfrwt beam="1">  1        4 0.67797576E-02 0.12500089E+03</pdfrwt>
<pdfrwt beam="2">  1       -4 0.13637204E-01 0.12500089E+03</pdfrwt>
<totfact> 0.10286355E+04</totfact>
</mgrwt>
</event>
<event>
 5    1  0.3300771E-002  0.1249994E+03  0.7818608E-02  0.1235070E+00
         -4   -1    0    0    0  501 -0.00000000000E+00  0.00000000000E+00  0.30028504102E+02  0.30055348253E+02  0.12700000000E+01 0. -1.
          4   -1    0    0  501    0  0.00000000000E+00 -0.00000000000E+00 -0.12999546055E+03  0.13000166408E+03  0.12700000000E+01 0. -1.
         25    2    1    2    0    0  0.00000000000E+00  0.00000000000E+00 -0.99966956453E+02  0.16005701234E+03  0.12499941926E+03 0.  0.
    9000005    1    3    3    0    0  0.18156542356E+02  0.61737489766E+01  0.26173755306E+02  0.32462912278E+02  0.10000000000E+01 0.  0.
    9000005    1    3    3    0    0 -0.18156542356E+02 -0.61737489766E+01 -0.12614071176E+03  0.12759410006E+03  0.10000000000E+01 0.  0.
<mgrwt>
<rscale>  0 0.12499942E+03</rscale>
<asrwt>0</asrwt>
<pdfrwt beam="2">  1        4 0.20001843E-01 0.12499942E+03</pdfrwt>
<pdfrwt beam="1">  1       -4 0.46223121E-02 0.12499942E+03</pdfrwt>
<totfact> 0.97333065E+03</totfact>
</mgrwt>
</event>
<event>
 5    1  0.3300771E-002  0.1250018E+03  0.7818608E-02  0.1235066E+00
          4   -1    0    0  501    0  0.00000000000E+00  0.00000000000E+00  0.28183906229E+03  0.28184192366E+03  0.12700000000E+01 0.  1.
         -4   -1    0    0    0  501 -0.00000000000E+00 -0.00000000000E+00 -0.13828227630E+02  0.13886424283E+02  0.12700000000E+01 0.  1.
         25    2    1    2    0    0  0.00000000000E+00  0.00000000000E+00  0.26801083466E+03  0.29572834795E+03  0.12500179312E+03 0.  0.
    9000005    1    3    3    0    0  0.55231504754E+02 -0.27357748034E+02  0.15840826673E+03  0.16997983546E+03  0.10000000000E+01 0.  0.
    9000005    1    3    3    0    0 -0.55231504754E+02  0.27357748034E+02  0.10960256794E+03  0.12574851249E+03  0.10000000000E+01 0.  0.
<mgrwt>
<rscale>  0 0.12500179E+03</rscale>
<asrwt>0</asrwt>
<pdfrwt beam="1">  1        4 0.43364551E-01 0.12500179E+03</pdfrwt>
<pdfrwt beam="2">  1       -4 0.21321165E-02 0.12500179E+03</pdfrwt>
<totfact> 0.76134778E+03</totfact>
</mgrwt>
</event>
<event>
 5    1  0.3300771E-002  0.1250033E+03  0.7818608E-02  0.1235064E+00
          4   -1    0    0  501    0  0.00000000000E+00  0.00000000000E+00  0.68455031847E+03  0.68455149654E+03  0.12700000000E+01 0.  1.
         -4   -1    0    0    0  501 -0.00000000000E+00 -0.00000000000E+00 -0.56347493291E+01  0.57760972985E+01  0.12700000000E+01 0.  1.
         25    2    1    2    0    0  0.00000000000E+00  0.00000000000E+00  0.67891556914E+03  0.69032759384E+03  0.12500334714E+03 0.  0.
    9000005    1    3    3    0    0  0.55284976818E+01 -0.48626999603E+02  0.55407601749E+03  0.55623410767E+03  0.10000000000E+01 0.  0.
    9000005    1    3    3    0    0 -0.55284976818E+01  0.48626999603E+02  0.12483955165E+03  0.13409348617E+03  0.10000000000E+01 0.  0.
<mgrwt>
<rscale>  0 0.12500335E+03</rscale>
<asrwt>0</asrwt>
<pdfrwt beam="1">  1        4 0.10532644E+00 0.12500335E+03</pdfrwt>
<pdfrwt beam="2">  1       -4 0.87784772E-03 0.12500335E+03</pdfrwt>
<totfact> 0.43599017E+03</totfact>
</mgrwt>
</event>
<event>
 5    1  0.3300771E-002  0.1250036E+03  0.7818608E-02  0.1235064E+00
          4   -1    0    0  501    0  0.00000000000E+00  0.00000000000E+00  0.90975385089E+02  0.90984249143E+02  0.12700000000E+01 0.  1.
         -4   -1    0    0    0  501 -0.00000000000E+00 -0.00000000000E+00 -0.42919548756E+02  0.42938334450E+02  0.12700000000E+01 0.  1.
         25    2    1    2    0    0  0.00000000000E+00  0.00000000000E+00  0.48055836334E+02  0.13392258359E+03  0.12500357991E+03 0.  0.
    9000005    1    3    3    0    0 -0.13170392335E+02 -0.55944787519E+02 -0.22626538702E+01  0.57527368160E+02  0.10000000000E+01 0.  0.
    9000005    1    3    3    0    0  0.13170392335E+02  0.55944787519E+02  0.50318490204E+02  0.76395215434E+02  0.10000000000E+01 0.  0.
<mgrwt>
<rscale>  0 0.12500358E+03</rscale>
<asrwt>0</asrwt>
<pdfrwt beam="1">  1        4 0.13998340E-01 0.12500358E+03</pdfrwt>
<pdfrwt beam="2">  1       -4 0.66051345E-02 0.12500358E+03</pdfrwt>
<totfact> 0.10260002E+04</totfact>
</mgrwt>
</event>
<event>
 5    1  0.3300771E-002  0.1250052E+03  0.7818608E-02  0.1235061E+00
         -4   -1    0    0    0  501 -0.00000000000E+00  0.00000000000E+00  0.49891585599E+02  0.49907747030E+02  0.12700000000E+01 0.  1.
          4   -1    0    0  501    0  0.00000000000E+00 -0.00000000000E+00 -0.78267314365E+02  0.78277617477E+02  0.12700000000E+01 0.  1.
         25    2    1    2    0    0  0.00000000000E+00  0.00000000000E+00 -0.28375728766E+02  0.12818536451E+03  0.12500522265E+03 0.  0.
    9000005    1    3    3    0    0  0.31925601030E+02 -0.50905376932E+02 -0.31799630323E+02  0.67991307462E+02  0.10000000000E+01 0.  0.
    9000005    1    3    3    0    0 -0.31925601030E+02  0.50905376932E+02  0.34239015569E+01  0.60194057045E+02  0.10000000000E+01 0.  0.
<mgrwt>
<rscale>  0 0.12500522E+03</rscale>
<asrwt>0</asrwt>
<pdfrwt beam="2">  1        4 0.12043161E-01 0.12500522E+03</pdfrwt>
<pdfrwt beam="1">  1       -4 0.76776643E-02 0.12500522E+03</pdfrwt>
<totfact> 0.10382262E+04</totfact>
</mgrwt>
</event>
<event>
 5    1  0.3300771E-002  0.1249965E+03  0.7818608E-02  0.1235075E+00
          4   -1    0    0  501    0  0.00000000000E+00  0.00000000000E+00  0.45243195025E+02  0.45261016296E+02  0.12700000000E+01 0.  1.
         -4   -1    0    0    0  501 -0.00000000000E+00 -0.00000000000E+00 -0.86294667779E+02  0.86304012578E+02  0.12700000000E+01 0.  1.
         25    2    1    2    0    0  0.00000000000E+00  0.00000000000E+00 -0.41051472754E+02  0.13156502887E+03  0.12499653358E+03 0.  0.
    9000005    1    3    3    0    0 -0.14008325890E+02  0.60357033482E+02 -0.29065582121E+02  0.68447152965E+02  0.10000000000E+01 0.  0.
    9000005    1    3    3    0    0  0.14008325890E+02 -0.60357033482E+02 -0.11985890633E+02  0.63117875909E+02  0.10000000000E+01 0.  0.
<mgrwt>
<rscale>  0 0.12499653E+03</rscale>
<asrwt>0</asrwt>
<pdfrwt beam="1">  1        4 0.69625812E-02 0.12499653E+03</pdfrwt>
<pdfrwt beam="2">  1       -4 0.13278192E-01 0.12499653E+03</pdfrwt>
<totfact> 0.10311798E+04</totfact>
</mgrwt>
</event>
<event>
 5    1  0.3300771E-002  0.1250023E+03  0.7818608E-02  0.1235066E+00
          4   -1    0    0  501    0  0.00000000000E+00  0.00000000000E+00  0.11797590528E+03  0.11798274080E+03  0.12700000000E+01 0. -1.
         -4   -1    0    0    0  501 -0.00000000000E+00 -0.00000000000E+00 -0.33091799579E+02  0.33116160698E+02  0.12700000000E+01 0. -1.
         25    2    1    2    0    0  0.00000000000E+00  0.00000000000E+00  0.84884105702E+02  0.15109890150E+03  0.12500226651E+03 0.  0.
    9000005    1    3    3    0    0  0.27636042021E+02 -0.52840813332E+02  0.65039550649E+02  0.88244237890E+02  0.10000000000E+01 0.  0.
    9000005    1    3    3    0    0 -0.27636042021E+02  0.52840813332E+02  0.19844555052E+02  0.62854663609E+02  0.10000000000E+01 0.  0.
<mgrwt>
<rscale>  0 0.12500227E+03</rscale>
<asrwt>0</asrwt>
<pdfrwt beam="1">  1        4 0.18152539E-01 0.12500227E+03</pdfrwt>
<pdfrwt beam="2">  1       -4 0.50934458E-02 0.12500227E+03</pdfrwt>
<totfact> 0.99080045E+03</totfact>
</mgrwt>
</event>
<event>
 5    1  0.3300771E-002  0.1249993E+03  0.7818608E-02  0.1235070E+00
         -4   -1    0    0    0  501 -0.00000000000E+00  0.00000000000E+00  0.47731377126E+03  0.47731546081E+03  0.12700000000E+01 0.  1.
          4   -1    0    0  501    0  0.00000000000E+00 -0.00000000000E+00 -0.81327474290E+01  0.82313109979E+01  0.12700000000E+01 0.  1.
         25    2    1    2    0    0  0.00000000000E+00  0.00000000000E+00  0.46918102383E+03  0.48554677181E+03  0.12499933798E+03 0.  0.
    9000005    1    3    3    0    0 -0.88239056097E+00 -0.75959807867E+01 -0.63275005772E+01  0.99757105395E+01  0.10000000000E+01 0.  0.
    9000005    1    3    3    0    0  0.88239056097E+00  0.75959807867E+01  0.47550852440E+03  0.47557106127E+03  0.10000000000E+01 0.  0.
<mgrwt>
<rscale>  0 0.12499934E+03</rscale>
<asrwt>0</asrwt>
<pdfrwt beam="2">  1        4 0.12589039E-02 0.12499934E+03</pdfrwt>
<pdfrwt beam="1">  1       -4 0.73440589E-01 0.12499934E+03</pdfrwt>
<totfact> 0.57004293E+03</totfact>
</mgrwt>
</event>
<event>
 5    1  0.3300771E-002  0.1250019E+03  0.7818608E-02  0.1235066E+00
          4   -1    0    0  501    0  0.00000000000E+00  0.00000000000E+00  0.28681311989E+02  0.28709415832E+02  0.12700000000E+01 0.  1.
         -4   -1    0    0    0  501 -0.00000000000E+00 -0.00000000000E+00 -0.13610132126E+03  0.13610724650E+03  0.12700000000E+01 0.  1.
         25    2    1    2    0    0  0.00000000000E+00  0.00000000000E+00 -0.10742000928E+03  0.16481666233E+03  0.12500189514E+03 0.  0.
    9000005    1    3    3    0    0 -0.56692614651E+02  0.10442730051E+02 -0.85525959734E+02  0.10314452460E+03  0.10000000000E+01 0.  0.
    9000005    1    3    3    0    0  0.56692614651E+02 -0.10442730051E+02 -0.21894049542E+02  0.61672137731E+02  0.10000000000E+01 0.  0.
<mgrwt>
<rscale>  0 0.12500190E+03</rscale>
<asrwt>0</asrwt>
<pdfrwt beam="1">  1        4 0.44151272E-02 0.12500190E+03</pdfrwt>
<pdfrwt beam="2">  1       -4 0.20941282E-01 0.12500190E+03</pdfrwt>
<totfact> 0.96418020E+03</totfact>
</mgrwt>
</event>
<event>
 5    1  0.3300771E-002  0.1250000E+03  0.7818608E-02  0.1235069E+00
         -4   -1    0    0    0  501 -0.00000000000E+00  0.00000000000E+00  0.37052176524E+02  0.37073935388E+02  0.12700000000E+01 0.  1.
          4   -1    0    0  501    0  0.00000000000E+00 -0.00000000000E+00 -0.10536908521E+03  0.10537673850E+03  0.12700000000E+01 0.  1.
         25    2    1    2    0    0  0.00000000000E+00  0.00000000000E+00 -0.68316908682E+02  0.14245067389E+03  0.12499997792E+03 0.  0.
    9000005    1    3    3    0    0  0.17474229965E+02 -0.18548852186E+01  0.34184247995E+02  0.38449344897E+02  0.10000000000E+01 0.  0.
    9000005    1    3    3    0    0 -0.17474229965E+02  0.18548852186E+01 -0.10250115668E+03  0.10400132899E+03  0.10000000000E+01 0.  0.
<mgrwt>
<rscale>  0 0.12499998E+03</rscale>
<asrwt>0</asrwt>
<pdfrwt beam="2">  1        4 0.16212891E-01 0.12499998E+03</pdfrwt>
<pdfrwt beam="1">  1       -4 0.57025974E-02 0.12499998E+03</pdfrwt>
<totfact> 0.10083050E+04</totfact>
</mgrwt>
</event>
<event>
 5    1  0.3300771E-002  0.1249960E+03  0.7818608E-02  0.1235075E+00
          4   -1    0    0  501    0  0.00000000000E+00  0.00000000000E+00  0.67958161613E+01  0.69134663735E+01  0.12700000000E+01 0. -1.
         -4   -1    0    0    0  501 -0.00000000000E+00 -0.00000000000E+00 -0.56971479660E+03  0.56971621213E+03  0.12700000000E+01 0. -1.
         25    2    1    2    0    0  0.00000000000E+00  0.00000000000E+00 -0.56291898044E+03  0.57662967850E+03  0.12499603031E+03 0.  0.
    9000005    1    3    3    0    0 -0.31639241765E+02 -0.52296086906E+02 -0.34144499838E+03  0.34687405386E+03  0.10000000000E+01 0.  0.
    9000005    1    3    3    0    0  0.31639241765E+02  0.52296086906E+02 -0.22147398206E+03  0.22975562464E+03  0.10000000000E+01 0.  0.
<mgrwt>
<rscale>  0 0.12499603E+03</rscale>
<asrwt>0</asrwt>
<pdfrwt beam="1">  1        4 0.10546695E-02 0.12499603E+03</pdfrwt>
<pdfrwt beam="2">  1       -4 0.87657552E-01 0.12499603E+03</pdfrwt>
<totfact> 0.50381245E+03</totfact>
</mgrwt>
</event>
<event>
 5    1  0.3300771E-002  0.1250002E+03  0.7818608E-02  0.1235069E+00
         -4   -1    0    0    0  501 -0.00000000000E+00  0.00000000000E+00  0.55298509507E+03  0.55298655343E+03  0.12700000000E+01 0.  1.
          4   -1    0    0  501    0  0.00000000000E+00 -0.00000000000E+00 -0.70053933310E+01  0.71195811479E+01  0.12700000000E+01 0.  1.
         25    2    1    2    0    0  0.00000000000E+00  0.00000000000E+00  0.54597970174E+03  0.56010613457E+03  0.12500018910E+03 0.  0.
    9000005    1    3    3    0    0 -0.58228635277E+02  0.16880943311E+02  0.20507565217E+03  0.21385173211E+03  0.10000000000E+01 0.  0.
    9000005    1    3    3    0    0  0.58228635277E+02 -0.16880943311E+02  0.34090404957E+03  0.34625440246E+03  0.10000000000E+01 0.  0.
<mgrwt>
<rscale>  0 0.12500019E+03</rscale>
<asrwt>0</asrwt>
<pdfrwt beam="2">  1        4 0.10866489E-02 0.12500019E+03</pdfrwt>
<pdfrwt beam="1">  1       -4 0.85083510E-01 0.12500019E+03</pdfrwt>
<totfact> 0.51486503E+03</totfact>
</mgrwt>
</event>
<event>
 5    1  0.3300771E-002  0.1249894E+03  0.7818608E-02  0.1235086E+00
         -4   -1    0    0    0  501 -0.00000000000E+00  0.00000000000E+00  0.41717938784E+03  0.41718132094E+03  0.12700000000E+01 0. -1.
          4   -1    0    0  501    0  0.00000000000E+00 -0.00000000000E+00 -0.93168569214E+01  0.94030166911E+01  0.12700000000E+01 0. -1.
         25    2    1    2    0    0  0.00000000000E+00  0.00000000000E+00  0.40786253092E+03  0.42658433763E+03  0.12498941148E+03 0.  0.
    9000005    1    3    3    0    0  0.62060347868E+02  0.46936743507E+01  0.22295555834E+03  0.23148152918E+03  0.10000000000E+01 0.  0.
    9000005    1    3    3    0    0 -0.62060347868E+02 -0.46936743507E+01  0.18490697258E+03  0.19510280845E+03  0.10000000000E+01 0.  0.
<mgrwt>
<rscale>  0 0.12498941E+03</rscale>
<asrwt>0</asrwt>
<pdfrwt beam="2">  1        4 0.14401389E-02 0.12498941E+03</pdfrwt>
<pdfrwt beam="1">  1       -4 0.64188224E-01 0.12498941E+03</pdfrwt>
<totfact> 0.62061311E+03</totfact>
</mgrwt>
</event>
<event>
 5    1  0.3300771E-002  0.1250019E+03  0.7818608E-02  0.1235066E+00
         -4   -1    0    0    0  501 -0.00000000000E+00  0.00000000000E+00  0.32513515816E+03  0.32513763850E+03  0.12700000000E+01 0. -1.
          4   -1    0    0  501    0  0.00000000000E+00 -0.00000000000E+00 -0.11978512649E+02  0.12045649226E+02  0.12700000000E+01 0. -1.
         25    2    1    2    0    0  0.00000000000E+00  0.00000000000E+00  0.31315664551E+03  0.33718328773E+03  0.12500193957E+03 0.  0.
    9000005    1    3    3    0    0  0.47448263804E+02 -0.13679518245E+02  0.25989018147E+03  0.26454181783E+03  0.10000000000E+01 0.  0.
    9000005    1    3    3    0    0 -0.47448263804E+02  0.13679518245E+02  0.53266464040E+02  0.72641469897E+02  0.10000000000E+01 0.  0.
<mgrwt>
<rscale>  0 0.12500194E+03</rscale>
<asrwt>0</asrwt>
<pdfrwt beam="2">  1        4 0.18482030E-02 0.12500194E+03</pdfrwt>
<pdfrwt beam="1">  1       -4 0.50026156E-01 0.12500194E+03</pdfrwt>
<totfact> 0.71154890E+03</totfact>
</mgrwt>
</event>
<event>
 5    1  0.3300771E-002  0.1250001E+03  0.7818608E-02  0.1235069E+00
         -4   -1    0    0    0  501 -0.00000000000E+00  0.00000000000E+00  0.69458689399E+02  0.69470298927E+02  0.12700000000E+01 0. -1.
          4   -1    0    0  501    0  0.00000000000E+00 -0.00000000000E+00 -0.56215098062E+02  0.56229442022E+02  0.12700000000E+01 0. -1.
         25    2    1    2    0    0  0.00000000000E+00  0.00000000000E+00  0.13243591337E+02  0.12569974095E+03  0.12500012865E+03 0.  0.
    9000005    1    3    3    0    0 -0.14458611293E+02 -0.17671300182E+02  0.65118947374E+02  0.69013068312E+02  0.10000000000E+01 0.  0.
    9000005    1    3    3    0    0  0.14458611293E+02  0.17671300182E+02 -0.51875356037E+02  0.56686672637E+02  0.10000000000E+01 0.  0.
<mgrwt>
<rscale>  0 0.12500013E+03</rscale>
<asrwt>0</asrwt>
<pdfrwt beam="2">  1        4 0.86504731E-02 0.12500013E+03</pdfrwt>
<pdfrwt beam="1">  1       -4 0.10687949E-01 0.12500013E+03</pdfrwt>
<totfact> 0.10437520E+04</totfact>
</mgrwt>
</event>
<event>
 5    1  0.3300771E-002  0.1250055E+03  0.7818608E-02  0.1235061E+00
          4   -1    0    0  501    0  0.00000000000E+00  0.00000000000E+00  0.85133897297E+03  0.85133992024E+03  0.12700000000E+01 0. -1.
         -4   -1    0    0    0  501 -0.00000000000E+00 -0.00000000000E+00 -0.44999263642E+01  0.46757071426E+01  0.12700000000E+01 0. -1.
         25    2    1    2    0    0  0.00000000000E+00  0.00000000000E+00  0.84683904660E+03  0.85601562738E+03  0.12500553376E+03 0.  0.
    9000005    1    3    3    0    0 -0.73576885886E+01 -0.61758618361E+02  0.38157863438E+03  0.38661546366E+03  0.10000000000E+01 0.  0.
    9000005    1    3    3    0    0  0.73576885886E+01  0.61758618361E+02  0.46526041222E+03  0.46940016372E+03  0.10000000000E+01 0.  0.
<mgrwt>
<rscale>  0 0.12500553E+03</rscale>
<asrwt>0</asrwt>
<pdfrwt beam="1">  1        4 0.13098875E+00 0.12500553E+03</pdfrwt>
<pdfrwt beam="2">  1       -4 0.70589119E-03 0.12500553E+03</pdfrwt>
<totfact> 0.35878096E+03</totfact>
</mgrwt>
</event>
<event>
 5    1  0.3300771E-002  0.1249928E+03  0.7818608E-02  0.1235080E+00
          4   -1    0    0  501    0  0.00000000000E+00  0.00000000000E+00  0.95028602068E+02  0.95037088081E+02  0.12700000000E+01 0.  1.
         -4   -1    0    0    0  501 -0.00000000000E+00 -0.00000000000E+00 -0.41081192289E+02  0.41100818239E+02  0.12700000000E+01 0.  1.
         25    2    1    2    0    0  0.00000000000E+00  0.00000000000E+00  0.53947409778E+02  0.13613790632E+03  0.12499282586E+03 0.  0.
    9000005    1    3    3    0    0  0.15543747847E+02 -0.72881436445E+01 -0.38467634977E+02  0.42136493395E+02  0.10000000000E+01 0.  0.
    9000005    1    3    3    0    0 -0.15543747847E+02  0.72881436445E+01  0.92415044755E+02  0.94001412925E+02  0.10000000000E+01 0.  0.
<mgrwt>
<rscale>  0 0.12499283E+03</rscale>
<asrwt>0</asrwt>
<pdfrwt beam="1">  1        4 0.14621947E-01 0.12499283E+03</pdfrwt>
<pdfrwt beam="2">  1       -4 0.63223459E-02 0.12499283E+03</pdfrwt>
<totfact> 0.10215795E+04</totfact>
</mgrwt>
</event>
<event>
 5    1  0.3300771E-002  0.1250164E+03  0.7818608E-02  0.1235044E+00
         -4   -1    0    0    0  501 -0.00000000000E+00  0.00000000000E+00  0.23299756725E+02  0.23334343005E+02  0.12700000000E+01 0. -1.
          4   -1    0    0  501    0  0.00000000000E+00 -0.00000000000E+00 -0.16753468600E+03  0.16753949956E+03  0.12700000000E+01 0. -1.
         25    2    1    2    0    0  0.00000000000E+00  0.00000000000E+00 -0.14423492927E+03  0.19087384256E+03  0.12501643473E+03 0.  0.
    9000005    1    3    3    0    0 -0.48259746759E+00  0.62409829310E+02 -0.67040447458E+02  0.91600443723E+02  0.10000000000E+01 0.  0.
    9000005    1    3    3    0    0  0.48259746759E+00 -0.62409829310E+02 -0.77194481815E+02  0.99273398842E+02  0.10000000000E+01 0.  0.
<mgrwt>
<rscale>  0 0.12501643E+03</rscale>
<asrwt>0</asrwt>
<pdfrwt beam="2">  1        4 0.25777597E-01 0.12501643E+03</pdfrwt>
<pdfrwt beam="1">  1       -4 0.35876088E-02 0.12501643E+03</pdfrwt>
<totfact> 0.91661746E+03</totfact>
</mgrwt>
</event>
<event>
 5    1  0.3300771E-002  0.1250010E+03  0.7818608E-02  0.1235068E+00
         -4   -1    0    0    0  501 -0.00000000000E+00  0.00000000000E+00  0.16882788129E+03  0.16883265798E+03  0.12700000000E+01 0.  1.
          4   -1    0    0  501    0  0.00000000000E+00 -0.00000000000E+00 -0.23115293764E+02  0.23150155632E+02  0.12700000000E+01 0.  1.
         25    2    1    2    0    0  0.00000000000E+00  0.00000000000E+00  0.14571258753E+03  0.19198281361E+03  0.12500097023E+03 0.  0.
    9000005    1    3    3    0    0  0.22559797910E+02  0.30332428061E+02 -0.35715260469E+01  0.37983634267E+02  0.10000000000E+01 0.  0.
    9000005    1    3    3    0    0 -0.22559797910E+02 -0.30332428061E+02  0.14928411357E+03  0.15399917935E+03  0.10000000000E+01 0.  0.
<mgrwt>
<rscale>  0 0.12500097E+03</rscale>
<asrwt>0</asrwt>
<pdfrwt beam="2">  1        4 0.35592480E-02 0.12500097E+03</pdfrwt>
<pdfrwt beam="1">  1       -4 0.25976570E-01 0.12500097E+03</pdfrwt>
<totfact> 0.91501462E+03</totfact>
</mgrwt>
</event>
<event>
 5    1  0.3300771E-002  0.1250029E+03  0.7818608E-02  0.1235065E+00
          4   -1    0    0  501    0  0.00000000000E+00  0.00000000000E+00  0.56614758006E+03  0.56614900451E+03  0.12700000000E+01 0. -1.
         -4   -1    0    0    0  501 -0.00000000000E+00 -0.00000000000E+00 -0.68401373687E+01  0.69570381071E+01  0.12700000000E+01 0. -1.
         25    2    1    2    0    0  0.00000000000E+00  0.00000000000E+00  0.55930744269E+03  0.57310604261E+03  0.12500288250E+03 0.  0.
    9000005    1    3    3    0    0 -0.28461881164E+01  0.53031746194E+02  0.12863789019E+03  0.13917317875E+03  0.10000000000E+01 0.  0.
    9000005    1    3    3    0    0  0.28461881164E+01 -0.53031746194E+02  0.43066955250E+03  0.43393286386E+03  0.10000000000E+01 0.  0.
<mgrwt>
<rscale>  0 0.12500288E+03</rscale>
<asrwt>0</asrwt>
<pdfrwt beam="1">  1        4 0.87108716E-01 0.12500288E+03</pdfrwt>
<pdfrwt beam="2">  1       -4 0.10614309E-02 0.12500288E+03</pdfrwt>
<totfact> 0.50607268E+03</totfact>
</mgrwt>
</event>
<event>
 5    1  0.3300771E-002  0.1249964E+03  0.7818608E-02  0.1235075E+00
          4   -1    0    0  501    0  0.00000000000E+00  0.00000000000E+00  0.56336428227E+02  0.56350741303E+02  0.12700000000E+01 0.  1.
         -4   -1    0    0    0  501 -0.00000000000E+00 -0.00000000000E+00 -0.69304927062E+02  0.69316562343E+02  0.12700000000E+01 0.  1.
         25    2    1    2    0    0  0.00000000000E+00  0.00000000000E+00 -0.12968498835E+02  0.12566730365E+03  0.12499635692E+03 0.  0.
    9000005    1    3    3    0    0 -0.17880730370E+02  0.59619177016E+02 -0.12068840862E+02  0.63409965355E+02  0.10000000000E+01 0.  0.
    9000005    1    3    3    0    0  0.17880730370E+02 -0.59619177016E+02 -0.89965797255E+00  0.62257338291E+02  0.10000000000E+01 0.  0.
<mgrwt>
<rscale>  0 0.12499636E+03</rscale>
<asrwt>0</asrwt>
<pdfrwt beam="1">  1        4 0.86691389E-02 0.12499636E+03</pdfrwt>
<pdfrwt beam="2">  1       -4 0.10664292E-01 0.12499636E+03</pdfrwt>
<totfact> 0.10439122E+04</totfact>
</mgrwt>
</event>
<event>
 5    1  0.3300771E-002  0.1249995E+03  0.7818608E-02  0.1235070E+00
         -4   -1    0    0    0  501 -0.00000000000E+00  0.00000000000E+00  0.12781663206E+02  0.12844602536E+02  0.12700000000E+01 0.  1.
          4   -1    0    0  501    0  0.00000000000E+00 -0.00000000000E+00 -0.30479648688E+03  0.30479913274E+03  0.12700000000E+01 0.  1.
         25    2    1    2    0    0  0.00000000000E+00  0.00000000000E+00 -0.29201482368E+03  0.31764373527E+03  0.12499954124E+03 0.  0.
    9000005    1    3    3    0    0 -0.34152220273E+02 -0.54295097870E+01 -0.13736044852E+02  0.37222743777E+02  0.10000000000E+01 0.  0.
    9000005    1    3    3    0    0  0.34152220273E+02  0.54295097870E+01 -0.27827877883E+03  0.28042099149E+03  0.10000000000E+01 0.  0.
<mgrwt>
<rscale>  0 0.12499954E+03</rscale>
<asrwt>0</asrwt>
<pdfrwt beam="2">  1        4 0.46896806E-01 0.12499954E+03</pdfrwt>
<pdfrwt beam="1">  1       -4 0.19714550E-02 0.12499954E+03</pdfrwt>
<totfact> 0.73438000E+03</totfact>
</mgrwt>
</event>
<event>
 5    1  0.3300771E-002  0.1249919E+03  0.7818608E-02  0.1235082E+00
          4   -1    0    0  501    0  0.00000000000E+00  0.00000000000E+00  0.14094934988E+03  0.14095507132E+03  0.12700000000E+01 0. -1.
         -4   -1    0    0    0  501 -0.00000000000E+00 -0.00000000000E+00 -0.27689439012E+02  0.27718548533E+02  0.12700000000E+01 0. -1.
         25    2    1    2    0    0  0.00000000000E+00  0.00000000000E+00  0.11325991087E+03  0.16867361986E+03  0.12499193024E+03 0.  0.
    9000005    1    3    3    0    0  0.38777109843E+02  0.73843435632E+01  0.12200023813E+03  0.12823123988E+03  0.10000000000E+01 0.  0.
    9000005    1    3    3    0    0 -0.38777109843E+02 -0.73843435632E+01 -0.87403272590E+01  0.40442379977E+02  0.10000000000E+01 0.  0.
<mgrwt>
<rscale>  0 0.12499193E+03</rscale>
<asrwt>0</asrwt>
<pdfrwt beam="1">  1        4 0.21687195E-01 0.12499193E+03</pdfrwt>
<pdfrwt beam="2">  1       -4 0.42625929E-02 0.12499193E+03</pdfrwt>
<totfact> 0.95713498E+03</totfact>
</mgrwt>
</event>
<event>
 5    1  0.3300771E-002  0.1249958E+03  0.7818608E-02  0.1235076E+00
         -4   -1    0    0    0  501 -0.00000000000E+00  0.00000000000E+00  0.34859904354E+02  0.34883030711E+02  0.12700000000E+01 0. -1.
          4   -1    0    0  501    0  0.00000000000E+00 -0.00000000000E+00 -0.11198433531E+03  0.11199153653E+03  0.12700000000E+01 0. -1.
         25    2    1    2    0    0  0.00000000000E+00  0.00000000000E+00 -0.77124430957E+02  0.14687456724E+03  0.12499584254E+03 0.  0.
    9000005    1    3    3    0    0  0.79176292787E+01 -0.29129779554E+02  0.25730137910E+02  0.39677108099E+02  0.10000000000E+01 0.  0.
    9000005    1    3    3    0    0 -0.79176292787E+01  0.29129779554E+02 -0.10285456887E+03  0.10719745914E+03  0.10000000000E+01 0.  0.
<mgrwt>
<rscale>  0 0.12499584E+03</rscale>
<asrwt>0</asrwt>
<pdfrwt beam="2">  1        4 0.17230692E-01 0.12499584E+03</pdfrwt>
<pdfrwt beam="1">  1       -4 0.53653951E-02 0.12499584E+03</pdfrwt>
<totfact> 0.99939749E+03</totfact>
</mgrwt>
</event>
<event>
 5    1  0.3300771E-002  0.1249964E+03  0.7818608E-02  0.1235075E+00
         -4   -1    0    0    0  501 -0.00000000000E+00  0.00000000000E+00  0.15314113600E+03  0.15314640197E+03  0.12700000000E+01 0.  1.
          4   -1    0    0  501    0  0.00000000000E+00 -0.00000000000E+00 -0.25484520523E+02  0.25516145600E+02  0.12700000000E+01 0.  1.
         25    2    1    2    0    0  0.00000000000E+00  0.00000000000E+00  0.12765661548E+03  0.17866254757E+03  0.12499637766E+03 0.  0.
    9000005    1    3    3    0    0  0.33824250805E+02  0.16874744477E+02 -0.72975939101E+01  0.38510931183E+02  0.10000000000E+01 0.  0.
    9000005    1    3    3    0    0 -0.33824250805E+02 -0.16874744477E+02  0.13495420939E+03  0.14015161638E+03  0.10000000000E+01 0.  0.
<mgrwt>
<rscale>  0 0.12499638E+03</rscale>
<asrwt>0</asrwt>
<pdfrwt beam="2">  1        4 0.39235332E-02 0.12499638E+03</pdfrwt>
<pdfrwt beam="1">  1       -4 0.23563013E-01 0.12499638E+03</pdfrwt>
<totfact> 0.93865928E+03</totfact>
</mgrwt>
</event>
<event>
 4    1  0.3300771E-002  0.1247434E+03  0.7818608E-02  0.1235471E+00
         -4   -1    0    0    0  501 -0.00000000000E+00  0.00000000000E+00  0.51599171656E+02  0.51614798416E+02  0.12700000000E+01 0.  1.
          4   -1    0    0  501    0  0.00000000000E+00 -0.00000000000E+00 -0.75360831635E+02  0.75371532058E+02  0.12700000000E+01 0.  1.
    9000005    1    1    2    0    0 -0.13129603211E+02 -0.11885625755E+02 -0.72752091162E+02  0.74883384996E+02  0.10000000000E+01 0.  0.
    9000005    1    1    2    0    0  0.13129603211E+02  0.11885625755E+02  0.48990431182E+02  0.52102945478E+02  0.10000000000E+01 0.  0.
<mgrwt>
<rscale>  0 0.12474338E+03</rscale>
<asrwt>0</asrwt>
<pdfrwt beam="2">  1        4 0.11595999E-01 0.12474338E+03</pdfrwt>
<pdfrwt beam="1">  1       -4 0.79403593E-02 0.12474338E+03</pdfrwt>
<totfact> 0.10469973E+04</totfact>
</mgrwt>
</event>
<event>
 5    1  0.3300771E-002  0.1249962E+03  0.7818608E-02  0.1235075E+00
          4   -1    0    0  501    0  0.00000000000E+00  0.00000000000E+00  0.25987771256E+02  0.26018784654E+02  0.12700000000E+01 0. -1.
         -4   -1    0    0    0  501 -0.00000000000E+00 -0.00000000000E+00 -0.15017851085E+03  0.15018388069E+03  0.12700000000E+01 0. -1.
         25    2    1    2    0    0  0.00000000000E+00  0.00000000000E+00 -0.12419073959E+03  0.17620266535E+03  0.12499615784E+03 0.  0.
    9000005    1    3    3    0    0  0.21692598283E+02 -0.54464953930E+02 -0.31599340031E+02  0.66607194185E+02  0.10000000000E+01 0.  0.
    9000005    1    3    3    0    0 -0.21692598283E+02  0.54464953930E+02 -0.92591399560E+02  0.10959547116E+03  0.10000000000E+01 0.  0.
<mgrwt>
<rscale>  0 0.12499616E+03</rscale>
<asrwt>0</asrwt>
<pdfrwt beam="1">  1        4 0.40009175E-02 0.12499616E+03</pdfrwt>
<pdfrwt beam="2">  1       -4 0.23107184E-01 0.12499616E+03</pdfrwt>
<totfact> 0.94313164E+03</totfact>
</mgrwt>
</event>
<event>
 5    1  0.3300771E-002  0.1249993E+03  0.7818608E-02  0.1235070E+00
          4   -1    0    0  501    0  0.00000000000E+00  0.00000000000E+00  0.19947419471E+04  0.19947423514E+04  0.12700000000E+01 0. -1.
         -4   -1    0    0    0  501 -0.00000000000E+00 -0.00000000000E+00 -0.17518946744E+01  0.21638010422E+01  0.12700000000E+01 0. -1.
         25    2    1    2    0    0  0.00000000000E+00  0.00000000000E+00  0.19929900525E+04  0.19969061525E+04  0.12499933018E+03 0.  0.
    9000005    1    3    3    0    0  0.91368355526E+01  0.19262589219E+02  0.19349258225E+04  0.19350435312E+04  0.10000000000E+01 0.  0.
    9000005    1    3    3    0    0 -0.91368355526E+01 -0.19262589219E+02  0.58064229951E+02  0.61862621244E+02  0.10000000000E+01 0.  0.
<mgrwt>
<rscale>  0 0.12499933E+03</rscale>
<asrwt>0</asrwt>
<pdfrwt beam="1">  1        4 0.30691421E+00 0.12499933E+03</pdfrwt>
<pdfrwt beam="2">  1       -4 0.30123933E-03 0.12499933E+03</pdfrwt>
<totfact> 0.99018677E+02</totfact>
</mgrwt>
</event>
<event>
 5    1  0.3300771E-002  0.1250587E+03  0.7818608E-02  0.1234978E+00
          4   -1    0    0  501    0  0.00000000000E+00  0.00000000000E+00  0.76988268667E+02  0.76998742927E+02  0.12700000000E+01 0.  1.
         -4   -1    0    0    0  501 -0.00000000000E+00 -0.00000000000E+00 -0.50764056360E+02  0.50779940115E+02  0.12700000000E+01 0.  1.
         25    2    1    2    0    0  0.00000000000E+00  0.00000000000E+00  0.26224212307E+02  0.12777868304E+03  0.12505871632E+03 0.  0.
    9000005    1    3    3    0    0 -0.58390008096E+02  0.10687777635E+02  0.33168062696E+02  0.68005455804E+02  0.10000000000E+01 0.  0.
    9000005    1    3    3    0    0  0.58390008096E+02 -0.10687777635E+02 -0.69438503889E+01  0.59773227238E+02  0.10000000000E+01 0.  0.
<mgrwt>
<rscale>  0 0.12505872E+03</rscale>
<asrwt>0</asrwt>
<pdfrwt beam="1">  1        4 0.11846377E-01 0.12505872E+03</pdfrwt>
<pdfrwt beam="2">  1       -4 0.78118824E-02 0.12505872E+03</pdfrwt>
<totfact> 0.10378507E+04</totfact>
</mgrwt>
</event>
<event>
 5    1  0.3300771E-002  0.1249951E+03  0.7818608E-02  0.1235077E+00
         -4   -1    0    0    0  501 -0.00000000000E+00  0.00000000000E+00  0.10861268462E+02  0.10935266462E+02  0.12700000000E+01 0.  1.
          4   -1    0    0  501    0  0.00000000000E+00 -0.00000000000E+00 -0.35832517054E+03  0.35832742114E+03  0.12700000000E+01 0.  1.
         25    2    1    2    0    0  0.00000000000E+00  0.00000000000E+00 -0.34746390208E+03  0.36926268760E+03  0.12499507674E+03 0.  0.
    9000005    1    3    3    0    0  0.19599423653E+02  0.51838581685E+02 -0.88439105353E+02  0.10437361407E+03  0.10000000000E+01 0.  0.
    9000005    1    3    3    0    0 -0.19599423653E+02 -0.51838581685E+02 -0.25902479673E+03  0.26488907353E+03  0.10000000000E+01 0.  0.
<mgrwt>
<rscale>  0 0.12499508E+03</rscale>
<asrwt>0</asrwt>
<pdfrwt beam="2">  1        4 0.55132805E-01 0.12499508E+03</pdfrwt>
<pdfrwt beam="1">  1       -4 0.16768299E-02 0.12499508E+03</pdfrwt>
<totfact> 0.67663513E+03</totfact>
</mgrwt>
</event>
<event>
 5    1  0.3300771E-002  0.1249920E+03  0.7818608E-02  0.1235082E+00
          4   -1    0    0  501    0  0.00000000000E+00  0.00000000000E+00  0.13278350428E+04  0.13278356501E+04  0.12700000000E+01 0.  1.
         -4   -1    0    0    0  501 -0.00000000000E+00 -0.00000000000E+00 -0.28037219127E+01  0.30779468098E+01  0.12700000000E+01 0.  1.
         25    2    1    2    0    0  0.00000000000E+00  0.00000000000E+00  0.13250313209E+04  0.13309135969E+04  0.12499200462E+03 0.  0.
    9000005    1    3    3    0    0 -0.43998852091E+02 -0.30551706804E+02  0.10051501271E+04  0.10065769140E+04  0.10000000000E+01 0.  0.
    9000005    1    3    3    0    0  0.43998852091E+02  0.30551706804E+02  0.31988119379E+03  0.32433668296E+03  0.10000000000E+01 0.  0.
<mgrwt>
<rscale>  0 0.12499200E+03</rscale>
<asrwt>0</asrwt>
<pdfrwt beam="1">  1        4 0.20430395E+00 0.12499200E+03</pdfrwt>
<pdfrwt beam="2">  1       -4 0.45248168E-03 0.12499200E+03</pdfrwt>
<totfact> 0.21514136E+03</totfact>
</mgrwt>
</event>
<event>
 5    1  0.3300771E-002  0.1250012E+03  0.7818608E-02  0.1235067E+00
          4   -1    0    0  501    0  0.00000000000E+00  0.00000000000E+00  0.38232112293E+01  0.40286280672E+01  0.12700000000E+01 0. -1.
         -4   -1    0    0    0  501 -0.00000000000E+00 -0.00000000000E+00 -0.99480376489E+03  0.99480457556E+03  0.12700000000E+01 0. -1.
         25    2    1    2    0    0  0.00000000000E+00  0.00000000000E+00 -0.99098055366E+03  0.99883320362E+03  0.12500124367E+03 0.  0.
    9000005    1    3    3    0    0 -0.35015440044E+02 -0.22223187432E+02 -0.86903429324E+03  0.87002388124E+03  0.10000000000E+01 0.  0.
    9000005    1    3    3    0    0  0.35015440044E+02  0.22223187432E+02 -0.12194626042E+03  0.12880932238E+03  0.10000000000E+01 0.  0.
<mgrwt>
<rscale>  0 0.12500124E+03</rscale>
<asrwt>0</asrwt>
<pdfrwt beam="1">  1        4 0.60405079E-03 0.12500124E+03</pdfrwt>
<pdfrwt beam="2">  1       -4 0.15306240E+00 0.12500124E+03</pdfrwt>
<totfact> 0.30642250E+03</totfact>
</mgrwt>
</event>
<event>
 5    1  0.3300771E-002  0.1249981E+03  0.7818608E-02  0.1235072E+00
         -4   -1    0    0    0  501 -0.00000000000E+00  0.00000000000E+00  0.26902227474E+03  0.26902527243E+03  0.12700000000E+01 0.  1.
          4   -1    0    0  501    0  0.00000000000E+00 -0.00000000000E+00 -0.14488872852E+02  0.14544426305E+02  0.12700000000E+01 0.  1.
         25    2    1    2    0    0  0.00000000000E+00  0.00000000000E+00  0.25453340188E+03  0.28356969873E+03  0.12499808544E+03 0.  0.
    9000005    1    3    3    0    0 -0.39118202468E+02  0.25845463631E+01  0.23766621965E+03  0.24087994023E+03  0.10000000000E+01 0.  0.
    9000005    1    3    3    0    0  0.39118202468E+02 -0.25845463631E+01  0.16867182236E+02  0.42689758500E+02  0.10000000000E+01 0.  0.
<mgrwt>
<rscale>  0 0.12499809E+03</rscale>
<asrwt>0</asrwt>
<pdfrwt beam="2">  1        4 0.22335614E-02 0.12499809E+03</pdfrwt>
<pdfrwt beam="1">  1       -4 0.41392545E-01 0.12499809E+03</pdfrwt>
<totfact> 0.77710464E+03</totfact>
</mgrwt>
</event>
<event>
 5    1  0.3300771E-002  0.1250002E+03  0.7818608E-02  0.1235069E+00
          4   -1    0    0  501    0  0.00000000000E+00  0.00000000000E+00  0.33608725497E+02  0.33632712194E+02  0.12700000000E+01 0.  1.
         -4   -1    0    0    0  501 -0.00000000000E+00 -0.00000000000E+00 -0.11615868946E+03  0.11616563191E+03  0.12700000000E+01 0.  1.
         25    2    1    2    0    0  0.00000000000E+00  0.00000000000E+00 -0.82549963963E+02  0.14979834410E+03  0.12500018938E+03 0.  0.
    9000005    1    3    3    0    0  0.48276930700E+02 -0.39052864402E+02 -0.32845846910E+02  0.70254095362E+02  0.10000000000E+01 0.  0.
    9000005    1    3    3    0    0 -0.48276930700E+02  0.39052864402E+02 -0.49704117054E+02  0.79544248742E+02  0.10000000000E+01 0.  0.
<mgrwt>
<rscale>  0 0.12500019E+03</rscale>
<asrwt>0</asrwt>
<pdfrwt beam="1">  1        4 0.51729524E-02 0.12500019E+03</pdfrwt>
<pdfrwt beam="2">  1       -4 0.17872947E-01 0.12500019E+03</pdfrwt>
<totfact> 0.99343487E+03</totfact>
</mgrwt>
</event>
<event>
 5    1  0.3300771E-002  0.1250130E+03  0.7818608E-02  0.1235049E+00
         -4   -1    0    0    0  501 -0.00000000000E+00  0.00000000000E+00  0.25019941159E+02  0.25052152714E+02  0.12700000000E+01 0. -1.
          4   -1    0    0  501    0  0.00000000000E+00 -0.00000000000E+00 -0.15602264752E+03  0.15602781624E+03  0.12700000000E+01 0. -1.
         25    2    1    2    0    0  0.00000000000E+00  0.00000000000E+00 -0.13100270636E+03  0.18107996895E+03  0.12501298365E+03 0.  0.
    9000005    1    3    3    0    0  0.43745762036E+02  0.27308994276E+02 -0.14359451136E+02  0.53541261672E+02  0.10000000000E+01 0.  0.
    9000005    1    3    3    0    0 -0.43745762036E+02 -0.27308994276E+02 -0.11664325523E+03  0.12753870728E+03  0.10000000000E+01 0.  0.
<mgrwt>
<rscale>  0 0.12501298E+03</rscale>
<asrwt>0</asrwt>
<pdfrwt beam="2">  1        4 0.24006359E-01 0.12501298E+03</pdfrwt>
<pdfrwt beam="1">  1       -4 0.38520972E-02 0.12501298E+03</pdfrwt>
<totfact> 0.93395777E+03</totfact>
</mgrwt>
</event>
<event>
 5    1  0.3300771E-002  0.1250566E+03  0.7818608E-02  0.1234981E+00
         -4   -1    0    0    0  501 -0.00000000000E+00  0.00000000000E+00  0.49194269186E+02  0.49210659625E+02  0.12700000000E+01 0.  1.
          4   -1    0    0  501    0  0.00000000000E+00 -0.00000000000E+00 -0.79441735556E+02  0.79451886373E+02  0.12700000000E+01 0.  1.
         25    2    1    2    0    0  0.00000000000E+00  0.00000000000E+00 -0.30247466370E+02  0.12866254600E+03  0.12505655329E+03 0.  0.
    9000005    1    3    3    0    0 -0.47139464893E+02 -0.28531245784E+02 -0.45515736195E+02  0.71476173497E+02  0.10000000000E+01 0.  0.
    9000005    1    3    3    0    0  0.47139464893E+02  0.28531245784E+02  0.15268269824E+02  0.57186372501E+02  0.10000000000E+01 0.  0.
<mgrwt>
<rscale>  0 0.12505655E+03</rscale>
<asrwt>0</asrwt>
<pdfrwt beam="2">  1        4 0.12223847E-01 0.12505655E+03</pdfrwt>
<pdfrwt beam="1">  1       -4 0.75703907E-02 0.12505655E+03</pdfrwt>
<totfact> 0.10359972E+04</totfact>
</mgrwt>
</event>
<event>
 5    1  0.3300771E-002  0.1249989E+03  0.7818608E-02  0.1235071E+00
         -4   -1    0    0    0  501 -0.00000000000E+00  0.00000000000E+00  0.90458218759E+03  0.90458307911E+03  0.12700000000E+01 0.  1.
          4   -1    0    0  501    0  0.00000000000E+00 -0.00000000000E+00 -0.42239268340E+01  0.44107207913E+01  0.12700000000E+01 0.  1.
         25    2    1    2    0    0  0.00000000000E+00  0.00000000000E+00  0.90035826076E+03  0.90899379990E+03  0.12499892216E+03 0.  0.
    9000005    1    3    3    0    0 -0.39165153654E+02 -0.47063747799E+02  0.35927110805E+03  0.36445251364E+03  0.10000000000E+01 0.  0.
    9000005    1    3    3    0    0  0.39165153654E+02  0.47063747799E+02  0.54108715270E+03  0.54454128626E+03  0.10000000000E+01 0.  0.
<mgrwt>
<rscale>  0 0.12499892E+03</rscale>
<asrwt>0</asrwt>
<pdfrwt beam="2">  1        4 0.66427181E-03 0.12499892E+03</pdfrwt>
<pdfrwt beam="1">  1       -4 0.13918102E+00 0.12499892E+03</pdfrwt>
<totfact> 0.33818642E+03</totfact>
</mgrwt>
</event>
<event>
 5    1  0.3300771E-002  0.1250014E+03  0.7818608E-02  0.1235067E+00
         -4   -1    0    0    0  501 -0.00000000000E+00  0.00000000000E+00  0.45028650248E+02  0.45046556397E+02  0.12700000000E+01 0.  1.
          4   -1    0    0  501    0  0.00000000000E+00 -0.00000000000E+00 -0.86712508352E+02  0.86721808126E+02  0.12700000000E+01 0.  1.
         25    2    1    2    0    0  0.00000000000E+00  0.00000000000E+00 -0.41683858103E+02  0.13176836452E+03  0.12500143144E+03 0.  0.
    9000005    1    3    3    0    0  0.53326287992E+02 -0.32198224566E+02 -0.15579609203E+02  0.64219489870E+02  0.10000000000E+01 0.  0.
    9000005    1    3    3    0    0 -0.53326287992E+02  0.32198224566E+02 -0.26104248900E+02  0.67548874653E+02  0.10000000000E+01 0.  0.
<mgrwt>
<rscale>  0 0.12500143E+03</rscale>
<asrwt>0</asrwt>
<pdfrwt beam="2">  1        4 0.13342479E-01 0.12500143E+03</pdfrwt>
<pdfrwt beam="1">  1       -4 0.69295774E-02 0.12500143E+03</pdfrwt>
<totfact> 0.10306312E+04</totfact>
</mgrwt>
</event>
<event>
 5    1  0.3300771E-002  0.1249992E+03  0.7818608E-02  0.1235070E+00
         -4   -1    0    0    0  501 -0.00000000000E+00  0.00000000000E+00  0.48610070752E+01  0.50241705569E+01  0.12700000000E+01 0.  1.
          4   -1    0    0  501    0  0.00000000000E+00 -0.00000000000E+00 -0.79015131130E+03  0.79015233192E+03  0.12700000000E+01 0.  1.
         25    2    1    2    0    0  0.00000000000E+00  0.00000000000E+00 -0.78529030422E+03  0.79517650248E+03  0.12499923277E+03 0.  0.
    9000005    1    3    3    0    0  0.38433204931E+02 -0.25972291548E+02 -0.12625823012E+03  0.13451324039E+03  0.10000000000E+01 0.  0.
    9000005    1    3    3    0    0 -0.38433204931E+02  0.25972291548E+02 -0.65903207411E+03  0.66066326209E+03  0.10000000000E+01 0.  0.
<mgrwt>
<rscale>  0 0.12499923E+03</rscale>
<asrwt>0</asrwt>
<pdfrwt beam="2">  1        4 0.12157427E+00 0.12499923E+03</pdfrwt>
<pdfrwt beam="1">  1       -4 0.76047741E-03 0.12499923E+03</pdfrwt>
<totfact> 0.38481641E+03</totfact>
</mgrwt>
</event>
<event>
 5    1  0.3300771E-002  0.1249931E+03  0.7818608E-02  0.1235080E+00
          4   -1    0    0  501    0  0.00000000000E+00  0.00000000000E+00  0.26167003118E+02  0.26197804339E+02  0.12700000000E+01 0. -1.
         -4   -1    0    0    0  501 -0.00000000000E+00 -0.00000000000E+00 -0.14914369429E+03  0.14914910139E+03  0.12700000000E+01 0. -1.
         25    2    1    2    0    0  0.00000000000E+00  0.00000000000E+00 -0.12297669117E+03  0.17534690573E+03  0.12499308292E+03 0.  0.
    9000005    1    3    3    0    0 -0.47324787070E+02  0.22084801122E+02 -0.13350991306E+02  0.53913104907E+02  0.10000000000E+01 0.  0.
    9000005    1    3    3    0    0  0.47324787070E+02 -0.22084801122E+02 -0.10962569986E+03  0.12143380082E+03  0.10000000000E+01 0.  0.
<mgrwt>
<rscale>  0 0.12499308E+03</rscale>
<asrwt>0</asrwt>
<pdfrwt beam="1">  1        4 0.40284782E-02 0.12499308E+03</pdfrwt>
<pdfrwt beam="2">  1       -4 0.22947968E-01 0.12499308E+03</pdfrwt>
<totfact> 0.94476003E+03</totfact>
</mgrwt>
</event>
<event>
 5    1  0.3300771E-002  0.1250009E+03  0.7818608E-02  0.1235068E+00
          4   -1    0    0  501    0  0.00000000000E+00  0.00000000000E+00  0.10332746019E+03  0.10333526469E+03  0.12700000000E+01 0.  1.
         -4   -1    0    0    0  501 -0.00000000000E+00 -0.00000000000E+00 -0.37785229106E+02  0.37806566078E+02  0.12700000000E+01 0.  1.
         25    2    1    2    0    0  0.00000000000E+00  0.00000000000E+00  0.65542231081E+02  0.14114183077E+03  0.12500092935E+03 0.  0.
    9000005    1    3    3    0    0  0.37906128317E+02 -0.48305326392E+02  0.45891784255E+02  0.76663778827E+02  0.10000000000E+01 0.  0.
    9000005    1    3    3    0    0 -0.37906128317E+02  0.48305326392E+02  0.19650446826E+02  0.64478051943E+02  0.10000000000E+01 0.  0.
<mgrwt>
<rscale>  0 0.12500093E+03</rscale>
<asrwt>0</asrwt>
<pdfrwt beam="1">  1        4 0.15898774E-01 0.12500093E+03</pdfrwt>
<pdfrwt beam="2">  1       -4 0.58153538E-02 0.12500093E+03</pdfrwt>
<totfact> 0.10109764E+04</totfact>
</mgrwt>
</event>
<event>
 5    1  0.3300771E-002  0.1249977E+03  0.7818608E-02  0.1235073E+00
         -4   -1    0    0    0  501 -0.00000000000E+00  0.00000000000E+00  0.54593703673E+02  0.54608473525E+02  0.12700000000E+01 0.  1.
          4   -1    0    0  501    0  0.00000000000E+00 -0.00000000000E+00 -0.71518517108E+02  0.71529792319E+02  0.12700000000E+01 0.  1.
         25    2    1    2    0    0  0.00000000000E+00  0.00000000000E+00 -0.16924813435E+02  0.12613826584E+03  0.12499765118E+03 0.  0.
    9000005    1    3    3    0    0 -0.38530940179E+02 -0.40686875424E+02  0.19449490080E+02  0.59324007343E+02  0.10000000000E+01 0.  0.
    9000005    1    3    3    0    0  0.38530940179E+02  0.40686875424E+02 -0.36374303515E+02  0.66814258501E+02  0.10000000000E+01 0.  0.
<mgrwt>
<rscale>  0 0.12499765E+03</rscale>
<asrwt>0</asrwt>
<pdfrwt beam="2">  1        4 0.11004852E-01 0.12499765E+03</pdfrwt>
<pdfrwt beam="1">  1       -4 0.84010348E-02 0.12499765E+03</pdfrwt>
<totfact> 0.10428482E+04</totfact>
</mgrwt>
</event>
<event>
 5    1  0.3300771E-002  0.1249999E+03  0.7818608E-02  0.1235069E+00
         -4   -1    0    0    0  501 -0.00000000000E+00  0.00000000000E+00  0.16689963136E+02  0.16738212852E+02  0.12700000000E+01 0.  1.
          4   -1    0    0  501    0  0.00000000000E+00 -0.00000000000E+00 -0.23365955366E+03  0.23366300503E+03  0.12700000000E+01 0.  1.
         25    2    1    2    0    0  0.00000000000E+00  0.00000000000E+00 -0.21696959053E+03  0.25040121788E+03  0.12499986681E+03 0.  0.
    9000005    1    3    3    0    0 -0.32871250030E+02 -0.40299049481E+02 -0.39070997345E+02  0.65054402627E+02  0.10000000000E+01 0.  0.
    9000005    1    3    3    0    0  0.32871250030E+02  0.40299049481E+02 -0.17789859318E+03  0.18534681525E+03  0.10000000000E+01 0.  0.
<mgrwt>
<rscale>  0 0.12499987E+03</rscale>
<asrwt>0</asrwt>
<pdfrwt beam="2">  1        4 0.35951598E-01 0.12499987E+03</pdfrwt>
<pdfrwt beam="1">  1       -4 0.25716638E-02 0.12499987E+03</pdfrwt>
<totfact> 0.82272519E+03</totfact>
</mgrwt>
</event>
<event>
 5    1  0.3300771E-002  0.1249776E+03  0.7818608E-02  0.1235104E+00
         -4   -1    0    0    0  501 -0.00000000000E+00  0.00000000000E+00  0.32507007487E+03  0.32507255571E+03  0.12700000000E+01 0. -1.
          4   -1    0    0  501    0  0.00000000000E+00 -0.00000000000E+00 -0.11976222350E+02  0.12043371695E+02  0.12700000000E+01 0. -1.
         25    2    1    2    0    0  0.00000000000E+00  0.00000000000E+00  0.31309385252E+03  0.33711592740E+03  0.12497755008E+03 0.  0.
    9000005    1    3    3    0    0 -0.62041599240E+02 -0.77790565043E+00  0.17638378792E+03  0.18698129803E+03  0.10000000000E+01 0.  0.
    9000005    1    3    3    0    0  0.62041599240E+02  0.77790565043E+00  0.13671006460E+03  0.15013462937E+03  0.10000000000E+01 0.  0.
<mgrwt>
<rscale>  0 0.12497755E+03</rscale>
<asrwt>0</asrwt>
<pdfrwt beam="2">  1        4 0.18478518E-02 0.12497755E+03</pdfrwt>
<pdfrwt beam="1">  1       -4 0.50016140E-01 0.12497755E+03</pdfrwt>
<totfact> 0.71201002E+03</totfact>
</mgrwt>
</event>
<event>
 5    1  0.3300771E-002  0.1249956E+03  0.7818608E-02  0.1235076E+00
         -4   -1    0    0    0  501 -0.00000000000E+00  0.00000000000E+00  0.10920376907E+04  0.10920384292E+04  0.12700000000E+01 0. -1.
          4   -1    0    0  501    0  0.00000000000E+00 -0.00000000000E+00 -0.34632806969E+01  0.36887956281E+01  0.12700000000E+01 0. -1.
         25    2    1    2    0    0  0.00000000000E+00  0.00000000000E+00  0.10885744100E+04  0.10957272248E+04  0.12499562023E+03 0.  0.
    9000005    1    3    3    0    0  0.11007504071E+02  0.61462099680E+02  0.52242204658E+03  0.52614118789E+03  0.10000000000E+01 0.  0.
    9000005    1    3    3    0    0 -0.11007504071E+02 -0.61462099680E+02  0.56615236346E+03  0.56958603696E+03  0.10000000000E+01 0.  0.
<mgrwt>
<rscale>  0 0.12499562E+03</rscale>
<asrwt>0</asrwt>
<pdfrwt beam="2">  1        4 0.55021538E-03 0.12499562E+03</pdfrwt>
<pdfrwt beam="1">  1       -4 0.16802355E+00 0.12499562E+03</pdfrwt>
<totfact> 0.27611346E+03</totfact>
</mgrwt>
</event>
<event>
 5    1  0.3300771E-002  0.1250006E+03  0.7818608E-02  0.1235068E+00
          4   -1    0    0  501    0  0.00000000000E+00  0.00000000000E+00  0.49650783502E+02  0.49667023289E+02  0.12700000000E+01 0. -1.
         -4   -1    0    0    0  501 -0.00000000000E+00 -0.00000000000E+00 -0.78640966693E+02  0.78651220858E+02  0.12700000000E+01 0. -1.
         25    2    1    2    0    0  0.00000000000E+00  0.00000000000E+00 -0.28990183191E+02  0.12831824415E+03  0.12500056424E+03 0.  0.
    9000005    1    3    3    0    0 -0.18275800955E+02  0.53372051837E+02 -0.42091769100E+02  0.70393876466E+02  0.10000000000E+01 0.  0.
    9000005    1    3    3    0    0  0.18275800955E+02 -0.53372051837E+02  0.13101585910E+02  0.57924367681E+02  0.10000000000E+01 0.  0.
<mgrwt>
<rscale>  0 0.12500056E+03</rscale>
<asrwt>0</asrwt>
<pdfrwt beam="1">  1        4 0.76406201E-02 0.12500056E+03</pdfrwt>
<pdfrwt beam="2">  1       -4 0.12100648E-01 0.12500056E+03</pdfrwt>
<totfact> 0.10380488E+04</totfact>
</mgrwt>
</event>
<event>
 5    1  0.3300771E-002  0.1249952E+03  0.7818608E-02  0.1235077E+00
         -4   -1    0    0    0  501 -0.00000000000E+00  0.00000000000E+00  0.42140840786E+02  0.42159973460E+02  0.12700000000E+01 0. -1.
          4   -1    0    0  501    0  0.00000000000E+00 -0.00000000000E+00 -0.92643536117E+02  0.92652240579E+02  0.12700000000E+01 0. -1.
         25    2    1    2    0    0  0.00000000000E+00  0.00000000000E+00 -0.50502695331E+02  0.13481221404E+03  0.12499524318E+03 0.  0.
    9000005    1    3    3    0    0  0.47545740382E+02 -0.14072452141E+02  0.15766055030E+02  0.52040367302E+02  0.10000000000E+01 0.  0.
    9000005    1    3    3    0    0 -0.47545740382E+02  0.14072452141E+02 -0.66268750361E+02  0.82771846736E+02  0.10000000000E+01 0.  0.
<mgrwt>
<rscale>  0 0.12499524E+03</rscale>
<asrwt>0</asrwt>
<pdfrwt beam="2">  1        4 0.14254993E-01 0.12499524E+03</pdfrwt>
<pdfrwt beam="1">  1       -4 0.64853476E-02 0.12499524E+03</pdfrwt>
<totfact> 0.10243129E+04</totfact>
</mgrwt>
</event>
<event>
 5    1  0.3300771E-002  0.1249997E+03  0.7818608E-02  0.1235070E+00
         -4   -1    0    0    0  501 -0.00000000000E+00  0.00000000000E+00  0.24317774950E+03  0.24318106577E+03  0.12700000000E+01 0. -1.
          4   -1    0    0  501    0  0.00000000000E+00 -0.00000000000E+00 -0.16034753841E+02  0.16084969094E+02  0.12700000000E+01 0. -1.
         25    2    1    2    0    0  0.00000000000E+00  0.00000000000E+00  0.22714299566E+03  0.25926603487E+03  0.12499974544E+03 0.  0.
    9000005    1    3    3    0    0  0.37215925511E+02  0.44298449507E+02  0.16256039778E+03  0.17255219694E+03  0.10000000000E+01 0.  0.
    9000005    1    3    3    0    0 -0.37215925511E+02 -0.44298449507E+02  0.64582597873E+02  0.86713837930E+02  0.10000000000E+01 0.  0.
<mgrwt>
<rscale>  0 0.12499975E+03</rscale>
<asrwt>0</asrwt>
<pdfrwt beam="2">  1        4 0.24710032E-02 0.12499975E+03</pdfrwt>
<pdfrwt beam="1">  1       -4 0.37416077E-01 0.12499975E+03</pdfrwt>
<totfact> 0.81009633E+03</totfact>
</mgrwt>
</event>
<event>
 5    1  0.3300771E-002  0.1250143E+03  0.7818608E-02  0.1235047E+00
         -4   -1    0    0    0  501 -0.00000000000E+00  0.00000000000E+00  0.11379578038E+04  0.11379585124E+04  0.12700000000E+01 0.  1.
          4   -1    0    0  501    0  0.00000000000E+00 -0.00000000000E+00 -0.33152955647E+01  0.35502231875E+01  0.12700000000E+01 0.  1.
         25    2    1    2    0    0  0.00000000000E+00  0.00000000000E+00  0.11346425082E+04  0.11415087356E+04  0.12501428764E+03 0.  0.
    9000005    1    3    3    0    0  0.57060373665E+02 -0.25423165246E+02  0.54924400242E+03  0.55278585163E+03  0.10000000000E+01 0.  0.
    9000005    1    3    3    0    0 -0.57060373665E+02  0.25423165246E+02  0.58539850578E+03  0.58872288400E+03  0.10000000000E+01 0.  0.
<mgrwt>
<rscale>  0 0.12501429E+03</rscale>
<asrwt>0</asrwt>
<pdfrwt beam="2">  1        4 0.52817179E-03 0.12501429E+03</pdfrwt>
<pdfrwt beam="1">  1       -4 0.17508841E+00 0.12501429E+03</pdfrwt>
<totfact> 0.26288846E+03</totfact>
</mgrwt>
</event>
<event>
 5    1  0.3300771E-002  0.1249939E+03  0.7818608E-02  0.1235079E+00
         -4   -1    0    0    0  501 -0.00000000000E+00  0.00000000000E+00  0.22642941906E+02  0.22678529894E+02  0.12700000000E+01 0. -1.
          4   -1    0    0  501    0  0.00000000000E+00 -0.00000000000E+00 -0.17232490737E+03  0.17232958713E+03  0.12700000000E+01 0. -1.
         25    2    1    2    0    0  0.00000000000E+00  0.00000000000E+00 -0.14968196547E+03  0.19500811703E+03  0.12499389953E+03 0.  0.
    9000005    1    3    3    0    0  0.31573291904E+02  0.37717120382E+01 -0.15876685975E+03  0.16192286537E+03  0.10000000000E+01 0.  0.
    9000005    1    3    3    0    0 -0.31573291904E+02 -0.37717120382E+01  0.90848942827E+01  0.33085251661E+02  0.10000000000E+01 0.  0.
<mgrwt>
<rscale>  0 0.12499390E+03</rscale>
<asrwt>0</asrwt>
<pdfrwt beam="2">  1        4 0.26514621E-01 0.12499390E+03</pdfrwt>
<pdfrwt beam="1">  1       -4 0.34866271E-02 0.12499390E+03</pdfrwt>
<totfact> 0.90995575E+03</totfact>
</mgrwt>
</event>
<event>
 5    1  0.3300771E-002  0.1249957E+03  0.7818608E-02  0.1235076E+00
          4   -1    0    0  501    0  0.00000000000E+00  0.00000000000E+00  0.27479921053E+02  0.27509252281E+02  0.12700000000E+01 0.  1.
         -4   -1    0    0    0  501 -0.00000000000E+00 -0.00000000000E+00 -0.14203136704E+03  0.14203704490E+03  0.12700000000E+01 0.  1.
         25    2    1    2    0    0  0.00000000000E+00  0.00000000000E+00 -0.11455144599E+03  0.16954629718E+03  0.12499565236E+03 0.  0.
    9000005    1    3    3    0    0  0.10694395744E+02  0.52253136235E+02 -0.13109427443E+02  0.54932844770E+02  0.10000000000E+01 0.  0.
    9000005    1    3    3    0    0 -0.10694395744E+02 -0.52253136235E+02 -0.10144201854E+03  0.11461345241E+03  0.10000000000E+01 0.  0.
<mgrwt>
<rscale>  0 0.12499565E+03</rscale>
<asrwt>0</asrwt>
<pdfrwt beam="1">  1        4 0.42303732E-02 0.12499565E+03</pdfrwt>
<pdfrwt beam="2">  1       -4 0.21853672E-01 0.12499565E+03</pdfrwt>
<totfact> 0.95542582E+03</totfact>
</mgrwt>
</event>
<event>
 5    1  0.3300771E-002  0.1249976E+03  0.7818608E-02  0.1235073E+00
          4   -1    0    0  501    0  0.00000000000E+00  0.00000000000E+00  0.66946233938E+01  0.68140210144E+01  0.12700000000E+01 0.  1.
         -4   -1    0    0    0  501 -0.00000000000E+00 -0.00000000000E+00 -0.57819083897E+03  0.57819223375E+03  0.12700000000E+01 0.  1.
         25    2    1    2    0    0  0.00000000000E+00  0.00000000000E+00 -0.57149621557E+03  0.58500625476E+03  0.12499757476E+03 0.  0.
    9000005    1    3    3    0    0  0.36275039916E+02  0.18043209158E+02 -0.50841967279E+03  0.51003235152E+03  0.10000000000E+01 0.  0.
    9000005    1    3    3    0    0 -0.36275039916E+02 -0.18043209158E+02 -0.63076542780E+02  0.74973903238E+02  0.10000000000E+01 0.  0.
<mgrwt>
<rscale>  0 0.12499757E+03</rscale>
<asrwt>0</asrwt>
<pdfrwt beam="1">  1        4 0.10392342E-02 0.12499757E+03</pdfrwt>
<pdfrwt beam="2">  1       -4 0.88961689E-01 0.12499757E+03</pdfrwt>
<totfact> 0.49830613E+03</totfact>
</mgrwt>
</event>
<event>
 5    1  0.3300771E-002  0.1249953E+03  0.7818608E-02  0.1235077E+00
         -4   -1    0    0    0  501 -0.00000000000E+00  0.00000000000E+00  0.44957987127E+02  0.44975921409E+02  0.12700000000E+01 0.  1.
          4   -1    0    0  501    0  0.00000000000E+00 -0.00000000000E+00 -0.86840193009E+02  0.86849479110E+02  0.12700000000E+01 0.  1.
         25    2    1    2    0    0  0.00000000000E+00  0.00000000000E+00 -0.41882205881E+02  0.13182540052E+03  0.12499526812E+03 0.  0.
    9000005    1    3    3    0    0 -0.41875733397E+02  0.92573455313E+01 -0.68874357765E+02  0.81141559335E+02  0.10000000000E+01 0.  0.
    9000005    1    3    3    0    0  0.41875733397E+02 -0.92573455313E+01  0.26992151884E+02  0.50683841184E+02  0.10000000000E+01 0.  0.
<mgrwt>
<rscale>  0 0.12499527E+03</rscale>
<asrwt>0</asrwt>
<pdfrwt beam="2">  1        4 0.13362124E-01 0.12499527E+03</pdfrwt>
<pdfrwt beam="1">  1       -4 0.69187073E-02 0.12499527E+03</pdfrwt>
<totfact> 0.10306527E+04</totfact>
</mgrwt>
</event>
<event>
 5    1  0.3300771E-002  0.1249971E+03  0.7818608E-02  0.1235074E+00
          4   -1    0    0  501    0  0.00000000000E+00  0.00000000000E+00  0.30515111392E+03  0.30515375670E+03  0.12700000000E+01 0.  1.
         -4   -1    0    0    0  501 -0.00000000000E+00 -0.00000000000E+00 -0.12766229897E+02  0.12829244942E+02  0.12700000000E+01 0.  1.
         25    2    1    2    0    0  0.00000000000E+00  0.00000000000E+00  0.29238488403E+03  0.31798300164E+03  0.12499707567E+03 0.  0.
    9000005    1    3    3    0    0  0.19068313147E+02  0.14125390805E+02 -0.87054275543E+00  0.23767311088E+02  0.10000000000E+01 0.  0.
    9000005    1    3    3    0    0 -0.19068313147E+02 -0.14125390805E+02  0.29325542678E+03  0.29421569055E+03  0.10000000000E+01 0.  0.
<mgrwt>
<rscale>  0 0.12499708E+03</rscale>
<asrwt>0</asrwt>
<pdfrwt beam="1">  1        4 0.46951369E-01 0.12499708E+03</pdfrwt>
<pdfrwt beam="2">  1       -4 0.19690863E-02 0.12499708E+03</pdfrwt>
<totfact> 0.73401426E+03</totfact>
</mgrwt>
</event>
<event>
 5    1  0.3300771E-002  0.1249894E+03  0.7818608E-02  0.1235086E+00
         -4   -1    0    0    0  501 -0.00000000000E+00  0.00000000000E+00  0.14423612144E+04  0.14423617735E+04  0.12700000000E+01 0.  1.
          4   -1    0    0  501    0  0.00000000000E+00 -0.00000000000E+00 -0.25582675092E+01  0.28561569720E+01  0.12700000000E+01 0.  1.
         25    2    1    2    0    0  0.00000000000E+00  0.00000000000E+00  0.14398029469E+04  0.14452179305E+04  0.12498936248E+03 0.  0.
    9000005    1    3    3    0    0 -0.41864665588E+02 -0.25502634891E+02  0.27184756497E+03  0.27623383789E+03  0.10000000000E+01 0.  0.
    9000005    1    3    3    0    0  0.41864665588E+02  0.25502634891E+02  0.11679553819E+04  0.11689840926E+04  0.10000000000E+01 0.  0.
<mgrwt>
<rscale>  0 0.12498936E+03</rscale>
<asrwt>0</asrwt>
<pdfrwt beam="2">  1        4 0.41653813E-03 0.12498936E+03</pdfrwt>
<pdfrwt beam="1">  1       -4 0.22192419E+00 0.12498936E+03</pdfrwt>
<totfact> 0.19035380E+03</totfact>
</mgrwt>
</event>
<event>
 5    1  0.3300771E-002  0.1250014E+03  0.7818608E-02  0.1235067E+00
         -4   -1    0    0    0  501 -0.00000000000E+00  0.00000000000E+00  0.12501991783E+03  0.12502636824E+03  0.12700000000E+01 0.  1.
          4   -1    0    0  501    0  0.00000000000E+00 -0.00000000000E+00 -0.31225568007E+02  0.31251383927E+02  0.12700000000E+01 0.  1.
         25    2    1    2    0    0  0.00000000000E+00  0.00000000000E+00  0.93794349823E+02  0.15627775216E+03  0.12500142304E+03 0.  0.
    9000005    1    3    3    0    0 -0.21215571983E+02  0.57679929509E+02  0.61056250157E+02  0.86636830770E+02  0.10000000000E+01 0.  0.
    9000005    1    3    3    0    0  0.21215571983E+02 -0.57679929509E+02  0.32738099667E+02  0.69640921394E+02  0.10000000000E+01 0.  0.
<mgrwt>
<rscale>  0 0.12500142E+03</rscale>
<asrwt>0</asrwt>
<pdfrwt beam="2">  1        4 0.48064155E-02 0.12500142E+03</pdfrwt>
<pdfrwt beam="1">  1       -4 0.19236316E-01 0.12500142E+03</pdfrwt>
<totfact> 0.98062104E+03</totfact>
</mgrwt>
</event>
<event>
 5    1  0.3300771E-002  0.1250012E+03  0.7818608E-02  0.1235067E+00
          4   -1    0    0  501    0  0.00000000000E+00  0.00000000000E+00  0.71527363761E+02  0.71538637578E+02  0.12700000000E+01 0.  1.
         -4   -1    0    0    0  501 -0.00000000000E+00 -0.00000000000E+00 -0.54590018468E+02  0.54604789317E+02  0.12700000000E+01 0.  1.
         25    2    1    2    0    0  0.00000000000E+00  0.00000000000E+00  0.16937345293E+02  0.12614342690E+03  0.12500116193E+03 0.  0.
    9000005    1    3    3    0    0  0.25789221225E+02  0.48437819386E+02  0.38642006919E+02  0.67123103154E+02  0.10000000000E+01 0.  0.
    9000005    1    3    3    0    0 -0.25789221225E+02 -0.48437819386E+02 -0.21704661627E+02  0.59020323742E+02  0.10000000000E+01 0.  0.
<mgrwt>
<rscale>  0 0.12500116E+03</rscale>
<asrwt>0</asrwt>
<pdfrwt beam="1">  1        4 0.11006213E-01 0.12500116E+03</pdfrwt>
<pdfrwt beam="2">  1       -4 0.84004678E-02 0.12500116E+03</pdfrwt>
<totfact> 0.10427543E+04</totfact>
</mgrwt>
</event>
<event>
 5    1  0.3300771E-002  0.1250021E+03  0.7818608E-02  0.1235066E+00
         -4   -1    0    0    0  501 -0.00000000000E+00  0.00000000000E+00  0.12343818832E+02  0.12408979142E+02  0.12700000000E+01 0. -1.
          4   -1    0    0  501    0  0.00000000000E+00 -0.00000000000E+00 -0.31556518931E+03  0.31556774487E+03  0.12700000000E+01 0. -1.
         25    2    1    2    0    0  0.00000000000E+00  0.00000000000E+00 -0.30322137048E+03  0.32797672401E+03  0.12500212791E+03 0.  0.
    9000005    1    3    3    0    0  0.10543435027E+02  0.27224910983E+02 -0.66365024013E+01  0.29956684802E+02  0.10000000000E+01 0.  0.
    9000005    1    3    3    0    0 -0.10543435027E+02 -0.27224910983E+02 -0.29658486807E+03  0.29802003921E+03  0.10000000000E+01 0.  0.
<mgrwt>
<rscale>  0 0.12500213E+03</rscale>
<asrwt>0</asrwt>
<pdfrwt beam="2">  1        4 0.48553693E-01 0.12500213E+03</pdfrwt>
<pdfrwt beam="1">  1       -4 0.19042582E-02 0.12500213E+03</pdfrwt>
<totfact> 0.72213935E+03</totfact>
</mgrwt>
</event>
<event>
 5    1  0.3300771E-002  0.1250058E+03  0.7818608E-02  0.1235060E+00
         -4   -1    0    0    0  501 -0.00000000000E+00  0.00000000000E+00  0.22195871524E+03  0.22196234854E+03  0.12700000000E+01 0.  1.
          4   -1    0    0  501    0  0.00000000000E+00 -0.00000000000E+00 -0.17573921718E+02  0.17619750979E+02  0.12700000000E+01 0.  1.
         25    2    1    2    0    0  0.00000000000E+00  0.00000000000E+00  0.20438479352E+03  0.23958209952E+03  0.12500575422E+03 0.  0.
    9000005    1    3    3    0    0 -0.19713787378E+02 -0.96366160086E+01  0.21434215301E+03  0.21546474500E+03  0.10000000000E+01 0.  0.
    9000005    1    3    3    0    0  0.19713787378E+02  0.96366160086E+01 -0.99573594927E+01  0.24117354518E+02  0.10000000000E+01 0.  0.
<mgrwt>
<rscale>  0 0.12500575E+03</rscale>
<asrwt>0</asrwt>
<pdfrwt beam="2">  1        4 0.27074850E-02 0.12500575E+03</pdfrwt>
<pdfrwt beam="1">  1       -4 0.34151300E-01 0.12500575E+03</pdfrwt>
<totfact> 0.83848887E+03</totfact>
</mgrwt>
</event>
<event>
 5    1  0.3300771E-002  0.1250009E+03  0.7818608E-02  0.1235068E+00
          4   -1    0    0  501    0  0.00000000000E+00  0.00000000000E+00  0.60919475586E+03  0.60919607965E+03  0.12700000000E+01 0.  1.
         -4   -1    0    0    0  501 -0.00000000000E+00 -0.00000000000E+00 -0.63480218095E+01  0.64738150185E+01  0.12700000000E+01 0.  1.
         25    2    1    2    0    0  0.00000000000E+00  0.00000000000E+00  0.60284673405E+03  0.61566989467E+03  0.12500093781E+03 0.  0.
    9000005    1    3    3    0    0  0.16639732257E+02 -0.38518848444E+02  0.52952089517E+03  0.53118166459E+03  0.10000000000E+01 0.  0.
    9000005    1    3    3    0    0 -0.16639732257E+02  0.38518848444E+02  0.73325838875E+02  0.84488230078E+02  0.10000000000E+01 0.  0.
<mgrwt>
<rscale>  0 0.12500094E+03</rscale>
<asrwt>0</asrwt>
<pdfrwt beam="1">  1        4 0.93732037E-01 0.12500094E+03</pdfrwt>
<pdfrwt beam="2">  1       -4 0.98639709E-03 0.12500094E+03</pdfrwt>
<totfact> 0.47892208E+03</totfact>
</mgrwt>
</event>
<event>
 5    1  0.3300771E-002  0.1250003E+03  0.7818608E-02  0.1235069E+00
         -4   -1    0    0    0  501 -0.00000000000E+00  0.00000000000E+00  0.48805265371E+03  0.48805430609E+03  0.12700000000E+01 0. -1.
          4   -1    0    0  501    0  0.00000000000E+00 -0.00000000000E+00 -0.79517314981E+01  0.80525110256E+01  0.12700000000E+01 0. -1.
         25    2    1    2    0    0  0.00000000000E+00  0.00000000000E+00  0.48010092222E+03  0.49610681712E+03  0.12500031392E+03 0.  0.
    9000005    1    3    3    0    0  0.14943391886E+02 -0.56554856463E+02  0.32732109091E+03  0.33250842591E+03  0.10000000000E+01 0.  0.
    9000005    1    3    3    0    0 -0.14943391886E+02  0.56554856463E+02  0.15277983131E+03  0.16359839121E+03  0.10000000000E+01 0.  0.
<mgrwt>
<rscale>  0 0.12500031E+03</rscale>
<asrwt>0</asrwt>
<pdfrwt beam="2">  1        4 0.12312227E-02 0.12500031E+03</pdfrwt>
<pdfrwt beam="1">  1       -4 0.75092903E-01 0.12500031E+03</pdfrwt>
<totfact> 0.56167310E+03</totfact>
</mgrwt>
</event>
<event>
 5    1  0.3300771E-002  0.1250003E+03  0.7818608E-02  0.1235069E+00
         -4   -1    0    0    0  501 -0.00000000000E+00  0.00000000000E+00  0.82396397332E+02  0.82406184193E+02  0.12700000000E+01 0. -1.
          4   -1    0    0  501    0  0.00000000000E+00 -0.00000000000E+00 -0.47387100840E+02  0.47404116129E+02  0.12700000000E+01 0. -1.
         25    2    1    2    0    0  0.00000000000E+00  0.00000000000E+00  0.35009296492E+02  0.12981030032E+03  0.12500025292E+03 0.  0.
    9000005    1    3    3    0    0  0.61655353270E+01  0.94023566990E+00  0.82077483141E+02  0.82320174366E+02  0.10000000000E+01 0.  0.
    9000005    1    3    3    0    0 -0.61655353270E+01 -0.94023566990E+00 -0.47068186649E+02  0.47490125956E+02  0.10000000000E+01 0.  0.
<mgrwt>
<rscale>  0 0.12500025E+03</rscale>
<asrwt>0</asrwt>
<pdfrwt beam="2">  1        4 0.72923850E-02 0.12500025E+03</pdfrwt>
<pdfrwt beam="1">  1       -4 0.12678430E-01 0.12500025E+03</pdfrwt>
<totfact> 0.10348508E+04</totfact>
</mgrwt>
</event>
<event>
 5    1  0.3300771E-002  0.1249988E+03  0.7818608E-02  0.1235071E+00
         -4   -1    0    0    0  501 -0.00000000000E+00  0.00000000000E+00  0.55045485501E+02  0.55060134163E+02  0.12700000000E+01 0. -1.
          4   -1    0    0  501    0  0.00000000000E+00 -0.00000000000E+00 -0.70932900230E+02  0.70944268515E+02  0.12700000000E+01 0. -1.
         25    2    1    2    0    0  0.00000000000E+00  0.00000000000E+00 -0.15887414729E+02  0.12600440268E+03  0.12499879818E+03 0.  0.
    9000005    1    3    3    0    0  0.35895078164E+02  0.37236854073E+02  0.27411733833E+02  0.58544368554E+02  0.10000000000E+01 0.  0.
    9000005    1    3    3    0    0 -0.35895078164E+02 -0.37236854073E+02 -0.43299148562E+02  0.67460034123E+02  0.10000000000E+01 0.  0.
<mgrwt>
<rscale>  0 0.12499880E+03</rscale>
<asrwt>0</asrwt>
<pdfrwt beam="2">  1        4 0.10914755E-01 0.12499880E+03</pdfrwt>
<pdfrwt beam="1">  1       -4 0.84705375E-02 0.12499880E+03</pdfrwt>
<totfact> 0.10431143E+04</totfact>
</mgrwt>
</event>
<event>
 5    1  0.3300771E-002  0.1250002E+03  0.7818608E-02  0.1235069E+00
         -4   -1    0    0    0  501 -0.00000000000E+00  0.00000000000E+00  0.32825140686E+02  0.32849699558E+02  0.12700000000E+01 0.  1.
          4   -1    0    0  501    0  0.00000000000E+00 -0.00000000000E+00 -0.11892972113E+03  0.11893650184E+03  0.12700000000E+01 0.  1.
         25    2    1    2    0    0  0.00000000000E+00  0.00000000000E+00 -0.86104580449E+02  0.15178620139E+03  0.12500020864E+03 0.  0.
    9000005    1    3    3    0    0  0.33116348804E+02  0.17788390007E+02  0.17566615400E+02  0.41505485828E+02  0.10000000000E+01 0.  0.
    9000005    1    3    3    0    0 -0.33116348804E+02 -0.17788390007E+02 -0.10367119585E+03  0.11028071557E+03  0.10000000000E+01 0.  0.
<mgrwt>
<rscale>  0 0.12500021E+03</rscale>
<asrwt>0</asrwt>
<pdfrwt beam="2">  1        4 0.18299291E-01 0.12500021E+03</pdfrwt>
<pdfrwt beam="1">  1       -4 0.50524324E-02 0.12500021E+03</pdfrwt>
<totfact> 0.98948366E+03</totfact>
</mgrwt>
</event>
<event>
 5    1  0.3300771E-002  0.1250021E+03  0.7818608E-02  0.1235066E+00
         -4   -1    0    0    0  501 -0.00000000000E+00  0.00000000000E+00  0.30579896680E+02  0.30606257219E+02  0.12700000000E+01 0. -1.
          4   -1    0    0  501    0  0.00000000000E+00 -0.00000000000E+00 -0.12765883370E+03  0.12766515078E+03  0.12700000000E+01 0. -1.
         25    2    1    2    0    0  0.00000000000E+00  0.00000000000E+00 -0.97078937023E+02  0.15827140799E+03  0.12500207428E+03 0.  0.
    9000005    1    3    3    0    0  0.10609723674E+02  0.51807528486E+02 -0.90700435402E+02  0.10499597719E+03  0.10000000000E+01 0.  0.
    9000005    1    3    3    0    0 -0.10609723674E+02 -0.51807528486E+02 -0.63785016204E+01  0.53275430803E+02  0.10000000000E+01 0.  0.
<mgrwt>
<rscale>  0 0.12500207E+03</rscale>
<asrwt>0</asrwt>
<pdfrwt beam="2">  1        4 0.19642334E-01 0.12500207E+03</pdfrwt>
<pdfrwt beam="1">  1       -4 0.47071132E-02 0.12500207E+03</pdfrwt>
<totfact> 0.97672528E+03</totfact>
</mgrwt>
</event>
<event>
 5    1  0.3300771E-002  0.1250076E+03  0.7818608E-02  0.1235057E+00
          4   -1    0    0  501    0  0.00000000000E+00  0.00000000000E+00  0.13308271575E+02  0.13368731889E+02  0.12700000000E+01 0. -1.
         -4   -1    0    0    0  501 -0.00000000000E+00 -0.00000000000E+00 -0.29282907766E+03  0.29283183165E+03  0.12700000000E+01 0. -1.
         25    2    1    2    0    0  0.00000000000E+00  0.00000000000E+00 -0.27952080609E+03  0.30620056354E+03  0.12500761606E+03 0.  0.
    9000005    1    3    3    0    0 -0.94822304391E+01  0.52691397700E+02 -0.21873130933E+03  0.22519032343E+03  0.10000000000E+01 0.  0.
    9000005    1    3    3    0    0  0.94822304391E+01 -0.52691397700E+02 -0.60789496760E+02  0.81010240106E+02  0.10000000000E+01 0.  0.
<mgrwt>
<rscale>  0 0.12500762E+03</rscale>
<asrwt>0</asrwt>
<pdfrwt beam="1">  1        4 0.20522893E-02 0.12500762E+03</pdfrwt>
<pdfrwt beam="2">  1       -4 0.45055485E-01 0.12500762E+03</pdfrwt>
<totfact> 0.74814934E+03</totfact>
</mgrwt>
</event>
<event>
 5    1  0.3300771E-002  0.1249988E+03  0.7818608E-02  0.1235071E+00
         -4   -1    0    0    0  501 -0.00000000000E+00  0.00000000000E+00  0.30626733668E+03  0.30626996983E+03  0.12700000000E+01 0. -1.
          4   -1    0    0  501    0  0.00000000000E+00 -0.00000000000E+00 -0.12719827223E+02  0.12783071015E+02  0.12700000000E+01 0. -1.
         25    2    1    2    0    0  0.00000000000E+00  0.00000000000E+00  0.29354750946E+03  0.31905304084E+03  0.12499881024E+03 0.  0.
    9000005    1    3    3    0    0 -0.26244825933E+02  0.56684870592E+02  0.15134698344E+03  0.16373415905E+03  0.10000000000E+01 0.  0.
    9000005    1    3    3    0    0  0.26244825933E+02 -0.56684870592E+02  0.14220052602E+03  0.15531888180E+03  0.10000000000E+01 0.  0.
<mgrwt>
<rscale>  0 0.12499881E+03</rscale>
<asrwt>0</asrwt>
<pdfrwt beam="2">  1        4 0.19619638E-02 0.12499881E+03</pdfrwt>
<pdfrwt beam="1">  1       -4 0.47123122E-01 0.12499881E+03</pdfrwt>
<totfact> 0.73270823E+03</totfact>
</mgrwt>
</event>
<event>
 5    1  0.3300771E-002  0.1250046E+03  0.7818608E-02  0.1235062E+00
         -4   -1    0    0    0  501 -0.00000000000E+00  0.00000000000E+00  0.89458679247E+02  0.89467693570E+02  0.12700000000E+01 0.  1.
          4   -1    0    0  501    0  0.00000000000E+00 -0.00000000000E+00 -0.43648183797E+02  0.43666656029E+02  0.12700000000E+01 0.  1.
         25    2    1    2    0    0  0.00000000000E+00  0.00000000000E+00  0.45810495451E+02  0.13313434960E+03  0.12500461411E+03 0.  0.
    9000005    1    3    3    0    0  0.56211870784E+02 -0.33086409769E+01 -0.59652077079E+01  0.56633075363E+02  0.10000000000E+01 0.  0.
    9000005    1    3    3    0    0 -0.56211870784E+02  0.33086409769E+01  0.51775703158E+02  0.76501274235E+02  0.10000000000E+01 0.  0.
<mgrwt>
<rscale>  0 0.12500461E+03</rscale>
<asrwt>0</asrwt>
<pdfrwt beam="2">  1        4 0.67172196E-02 0.12500461E+03</pdfrwt>
<pdfrwt beam="1">  1       -4 0.13764988E-01 0.12500461E+03</pdfrwt>
<totfact> 0.10276476E+04</totfact>
</mgrwt>
</event>
<event>
 5    1  0.3300771E-002  0.1250016E+03  0.7818608E-02  0.1235067E+00
         -4   -1    0    0    0  501 -0.00000000000E+00  0.00000000000E+00  0.10984443442E+02  0.11057617181E+02  0.12700000000E+01 0. -1.
          4   -1    0    0  501    0  0.00000000000E+00 -0.00000000000E+00 -0.35437066467E+03  0.35437294039E+03  0.12700000000E+01 0. -1.
         25    2    1    2    0    0  0.00000000000E+00  0.00000000000E+00 -0.34338622123E+03  0.36543055757E+03  0.12500158189E+03 0.  0.
    9000005    1    3    3    0    0  0.49563033972E+02 -0.17533252869E+02 -0.72925211794E+02  0.89905482635E+02  0.10000000000E+01 0.  0.
    9000005    1    3    3    0    0 -0.49563033972E+02  0.17533252869E+02 -0.27046100944E+03  0.27552507493E+03  0.10000000000E+01 0.  0.
<mgrwt>
<rscale>  0 0.12500158E+03</rscale>
<asrwt>0</asrwt>
<pdfrwt beam="2">  1        4 0.54524359E-01 0.12500158E+03</pdfrwt>
<pdfrwt beam="1">  1       -4 0.16957185E-02 0.12500158E+03</pdfrwt>
<totfact> 0.68057334E+03</totfact>
</mgrwt>
</event>
<event>
 5    1  0.3300771E-002  0.1249983E+03  0.7818608E-02  0.1235072E+00
         -4   -1    0    0    0  501 -0.00000000000E+00  0.00000000000E+00  0.26555009334E+02  0.26585361023E+02  0.12700000000E+01 0. -1.
          4   -1    0    0  501    0  0.00000000000E+00 -0.00000000000E+00 -0.14697927787E+03  0.14698476460E+03  0.12700000000E+01 0. -1.
         25    2    1    2    0    0  0.00000000000E+00  0.00000000000E+00 -0.12042426854E+03  0.17357012562E+03  0.12499833621E+03 0.  0.
    9000005    1    3    3    0    0  0.50567909851E+02  0.34498044576E+02 -0.77661746311E+02  0.98891735885E+02  0.10000000000E+01 0.  0.
    9000005    1    3    3    0    0 -0.50567909851E+02 -0.34498044576E+02 -0.42762522229E+02  0.74678389736E+02  0.10000000000E+01 0.  0.
<mgrwt>
<rscale>  0 0.12499834E+03</rscale>
<asrwt>0</asrwt>
<pdfrwt beam="2">  1        4 0.22614953E-01 0.12499834E+03</pdfrwt>
<pdfrwt beam="1">  1       -4 0.40881429E-02 0.12499834E+03</pdfrwt>
<totfact> 0.94790911E+03</totfact>
</mgrwt>
</event>
<event>
 5    1  0.3300771E-002  0.1250011E+03  0.7818608E-02  0.1235068E+00
          4   -1    0    0  501    0  0.00000000000E+00  0.00000000000E+00  0.68519574639E+02  0.68531343258E+02  0.12700000000E+01 0. -1.
         -4   -1    0    0    0  501 -0.00000000000E+00 -0.00000000000E+00 -0.56986497505E+02  0.57000647346E+02  0.12700000000E+01 0. -1.
         25    2    1    2    0    0  0.00000000000E+00  0.00000000000E+00  0.11533077134E+02  0.12553199060E+03  0.12500107518E+03 0.  0.
    9000005    1    3    3    0    0  0.16265561123E+02 -0.48205490280E+02 -0.30677807549E+02  0.59417721664E+02  0.10000000000E+01 0.  0.
    9000005    1    3    3    0    0 -0.16265561123E+02  0.48205490280E+02  0.42210884683E+02  0.66114268940E+02  0.10000000000E+01 0.  0.
<mgrwt>
<rscale>  0 0.12500108E+03</rscale>
<asrwt>0</asrwt>
<pdfrwt beam="1">  1        4 0.10543467E-01 0.12500108E+03</pdfrwt>
<pdfrwt beam="2">  1       -4 0.87691472E-02 0.12500108E+03</pdfrwt>
<totfact> 0.10440994E+04</totfact>
</mgrwt>
</event>
<event>
 5    1  0.3300771E-002  0.1250002E+03  0.7818608E-02  0.1235069E+00
         -4   -1    0    0    0  501 -0.00000000000E+00  0.00000000000E+00  0.19312852719E+03  0.19313270286E+03  0.12700000000E+01 0.  1.
          4   -1    0    0  501    0  0.00000000000E+00 -0.00000000000E+00 -0.20201908690E+02  0.20241788822E+02  0.12700000000E+01 0.  1.
         25    2    1    2    0    0  0.00000000000E+00  0.00000000000E+00  0.17292661850E+03  0.21337449168E+03  0.12500023326E+03 0.  0.
    9000005    1    3    3    0    0  0.24960453114E+02 -0.25936282973E+02 -0.73628272555E+00  0.36017455578E+02  0.10000000000E+01 0.  0.
    9000005    1    3    3    0    0 -0.24960453114E+02  0.25936282973E+02  0.17366290123E+03  0.17735703611E+03  0.10000000000E+01 0.  0.
<mgrwt>
<rscale>  0 0.12500023E+03</rscale>
<asrwt>0</asrwt>
<pdfrwt beam="2">  1        4 0.31113747E-02 0.12500023E+03</pdfrwt>
<pdfrwt beam="1">  1       -4 0.29715471E-01 0.12500023E+03</pdfrwt>
<totfact> 0.87927270E+03</totfact>
</mgrwt>
</event>
<event>
 5    1  0.3300771E-002  0.1250017E+03  0.7818608E-02  0.1235067E+00
         -4   -1    0    0    0  501 -0.00000000000E+00  0.00000000000E+00  0.98145743948E+02  0.98153960465E+02  0.12700000000E+01 0.  1.
          4   -1    0    0  501    0  0.00000000000E+00 -0.00000000000E+00 -0.39781582546E+02  0.39801849327E+02  0.12700000000E+01 0.  1.
         25    2    1    2    0    0  0.00000000000E+00  0.00000000000E+00  0.58364161402E+02  0.13795580979E+03  0.12500172047E+03 0.  0.
    9000005    1    3    3    0    0  0.18165447012E+01  0.37415694935E+02 -0.26022913992E+02  0.45622649142E+02  0.10000000000E+01 0.  0.
    9000005    1    3    3    0    0 -0.18165447012E+01 -0.37415694935E+02  0.84387075394E+02  0.92333160650E+02  0.10000000000E+01 0.  0.
<mgrwt>
<rscale>  0 0.12500172E+03</rscale>
<asrwt>0</asrwt>
<pdfrwt beam="2">  1        4 0.61224345E-02 0.12500172E+03</pdfrwt>
<pdfrwt beam="1">  1       -4 0.15101536E-01 0.12500172E+03</pdfrwt>
<totfact> 0.10175735E+04</totfact>
</mgrwt>
</event>
<event>
 5    1  0.3300771E-002  0.1250014E+03  0.7818608E-02  0.1235067E+00
          4   -1    0    0  501    0  0.00000000000E+00  0.00000000000E+00  0.15009304171E+02  0.15062938349E+02  0.12700000000E+01 0.  1.
         -4   -1    0    0    0  501 -0.00000000000E+00 -0.00000000000E+00 -0.25974185578E+03  0.25974496058E+03  0.12700000000E+01 0.  1.
         25    2    1    2    0    0  0.00000000000E+00  0.00000000000E+00 -0.24473255161E+03  0.27480789893E+03  0.12500143797E+03 0.  0.
    9000005    1    3    3    0    0 -0.40654586588E+02 -0.46472314704E+02 -0.14355224089E+03  0.15627129393E+03  0.10000000000E+01 0.  0.
    9000005    1    3    3    0    0  0.40654586588E+02  0.46472314704E+02 -0.10118031073E+03  0.11853660499E+03  0.10000000000E+01 0.  0.
<mgrwt>
<rscale>  0 0.12500144E+03</rscale>
<asrwt>0</asrwt>
<pdfrwt beam="1">  1        4 0.23134884E-02 0.12500144E+03</pdfrwt>
<pdfrwt beam="2">  1       -4 0.39964647E-01 0.12500144E+03</pdfrwt>
<totfact> 0.78869095E+03</totfact>
</mgrwt>
</event>
<event>
 5    1  0.3300771E-002  0.1250016E+03  0.7818608E-02  0.1235067E+00
          4   -1    0    0  501    0  0.00000000000E+00  0.00000000000E+00  0.23264700753E+03  0.23265047391E+03  0.12700000000E+01 0. -1.
         -4   -1    0    0    0  501 -0.00000000000E+00 -0.00000000000E+00 -0.16763264102E+02  0.16811303440E+02  0.12700000000E+01 0. -1.
         25    2    1    2    0    0  0.00000000000E+00  0.00000000000E+00  0.21588374343E+03  0.24946177735E+03  0.12500155073E+03 0.  0.
    9000005    1    3    3    0    0  0.44341438436E+02 -0.86782158445E+01  0.19410008652E+03  0.19929204244E+03  0.10000000000E+01 0.  0.
    9000005    1    3    3    0    0 -0.44341438436E+02  0.86782158445E+01  0.21783656903E+02  0.50169734910E+02  0.10000000000E+01 0.  0.
<mgrwt>
<rscale>  0 0.12500155E+03</rscale>
<asrwt>0</asrwt>
<pdfrwt beam="1">  1        4 0.35795808E-01 0.12500155E+03</pdfrwt>
<pdfrwt beam="2">  1       -4 0.25829258E-02 0.12500155E+03</pdfrwt>
<totfact> 0.82405233E+03</totfact>
</mgrwt>
</event>
<event>
 5    1  0.3300771E-002  0.1250017E+03  0.7818608E-02  0.1235067E+00
         -4   -1    0    0    0  501 -0.00000000000E+00  0.00000000000E+00  0.10278820948E+03  0.10279605492E+03  0.12700000000E+01 0. -1.
          4   -1    0    0  501    0  0.00000000000E+00 -0.00000000000E+00 -0.37984005580E+02  0.38005230955E+02  0.12700000000E+01 0. -1.
         25    2    1    2    0    0  0.00000000000E+00  0.00000000000E+00  0.64804203897E+02  0.14080128588E+03  0.12500166904E+03 0.  0.
    9000005    1    3    3    0    0 -0.50803930597E+02 -0.28804089662E+02  0.73505203628E+01  0.58870579197E+02  0.10000000000E+01 0.  0.
    9000005    1    3    3    0    0  0.50803930597E+02  0.28804089662E+02  0.57453683534E+02  0.81930706679E+02  0.10000000000E+01 0.  0.
<mgrwt>
<rscale>  0 0.12500167E+03</rscale>
<asrwt>0</asrwt>
<pdfrwt beam="2">  1        4 0.58459294E-02 0.12500167E+03</pdfrwt>
<pdfrwt beam="1">  1       -4 0.15815807E-01 0.12500167E+03</pdfrwt>
<totfact> 0.10116625E+04</totfact>
</mgrwt>
</event>
<event>
 5    1  0.3300771E-002  0.1249987E+03  0.7818608E-02  0.1235071E+00
         -4   -1    0    0    0  501 -0.00000000000E+00  0.00000000000E+00  0.84901980728E+03  0.84902075714E+03  0.12700000000E+01 0.  1.
          4   -1    0    0  501    0  0.00000000000E+00 -0.00000000000E+00 -0.45121875069E+01  0.46875085170E+01  0.12700000000E+01 0.  1.
         25    2    1    2    0    0  0.00000000000E+00  0.00000000000E+00  0.84450761977E+03  0.85370826565E+03  0.12499873197E+03 0.  0.
    9000005    1    3    3    0    0 -0.72287485543E+01 -0.22166823669E+02  0.26273556609E+02  0.35141466306E+02  0.10000000000E+01 0.  0.
    9000005    1    3    3    0    0  0.72287485543E+01  0.22166823669E+02  0.81823406316E+03  0.81856679935E+03  0.10000000000E+01 0.  0.
<mgrwt>
<rscale>  0 0.12499873E+03</rscale>
<asrwt>0</asrwt>
<pdfrwt beam="2">  1        4 0.70774160E-03 0.12499873E+03</pdfrwt>
<pdfrwt beam="1">  1       -4 0.13063206E+00 0.12499873E+03</pdfrwt>
<totfact> 0.35977032E+03</totfact>
</mgrwt>
</event>
<event>
 5    1  0.3300771E-002  0.1250007E+03  0.7818608E-02  0.1235068E+00
          4   -1    0    0  501    0  0.00000000000E+00  0.00000000000E+00  0.10210377986E+02  0.10289058199E+02  0.12700000000E+01 0.  1.
         -4   -1    0    0    0  501 -0.00000000000E+00 -0.00000000000E+00 -0.38103272675E+03  0.38103484323E+03  0.12700000000E+01 0.  1.
         25    2    1    2    0    0  0.00000000000E+00  0.00000000000E+00 -0.37082234876E+03  0.39132390142E+03  0.12500072594E+03 0.  0.
    9000005    1    3    3    0    0  0.97094521425E+01  0.61332486129E+02 -0.16341947130E+03  0.17482239821E+03  0.10000000000E+01 0.  0.
    9000005    1    3    3    0    0 -0.97094521425E+01 -0.61332486129E+02 -0.20740287746E+03  0.21650150321E+03  0.10000000000E+01 0.  0.
<mgrwt>
<rscale>  0 0.12500073E+03</rscale>
<asrwt>0</asrwt>
<pdfrwt beam="1">  1        4 0.15770428E-02 0.12500073E+03</pdfrwt>
<pdfrwt beam="2">  1       -4 0.58626624E-01 0.12500073E+03</pdfrwt>
<totfact> 0.65404411E+03</totfact>
</mgrwt>
</event>
<event>
 5    1  0.3300771E-002  0.1250015E+03  0.7818608E-02  0.1235067E+00
          4   -1    0    0  501    0  0.00000000000E+00  0.00000000000E+00  0.12211752997E+03  0.12212413367E+03  0.12700000000E+01 0. -1.
         -4   -1    0    0    0  501 -0.00000000000E+00 -0.00000000000E+00 -0.31968324088E+02  0.31993540676E+02  0.12700000000E+01 0. -1.
         25    2    1    2    0    0  0.00000000000E+00  0.00000000000E+00  0.90149205878E+02  0.15411767435E+03  0.12500151289E+03 0.  0.
    9000005    1    3    3    0    0 -0.11672713796E+02 -0.10267022092E+02 -0.29552396131E+02  0.33406707516E+02  0.10000000000E+01 0.  0.
    9000005    1    3    3    0    0  0.11672713796E+02  0.10267022092E+02  0.11970160201E+03  0.12071096683E+03  0.10000000000E+01 0.  0.
<mgrwt>
<rscale>  0 0.12500151E+03</rscale>
<asrwt>0</asrwt>
<pdfrwt beam="1">  1        4 0.18789760E-01 0.12500151E+03</pdfrwt>
<pdfrwt beam="2">  1       -4 0.49206514E-02 0.12500151E+03</pdfrwt>
<totfact> 0.98485638E+03</totfact>
</mgrwt>
</event>
<event>
 5    1  0.3300771E-002  0.1249953E+03  0.7818608E-02  0.1235077E+00
          4   -1    0    0  501    0  0.00000000000E+00  0.00000000000E+00  0.18611909411E+03  0.18612342704E+03  0.12700000000E+01 0. -1.
         -4   -1    0    0    0  501 -0.00000000000E+00 -0.00000000000E+00 -0.20962530670E+02  0.21000966457E+02  0.12700000000E+01 0. -1.
         25    2    1    2    0    0  0.00000000000E+00  0.00000000000E+00  0.16515656344E+03  0.20712439350E+03  0.12499529564E+03 0.  0.
    9000005    1    3    3    0    0  0.20168434918E+02 -0.27019667792E+02 -0.46044851043E+01  0.34044522287E+02  0.10000000000E+01 0.  0.
    9000005    1    3    3    0    0 -0.20168434918E+02  0.27019667792E+02  0.16976104854E+03  0.17307987121E+03  0.10000000000E+01 0.  0.
<mgrwt>
<rscale>  0 0.12499530E+03</rscale>
<asrwt>0</asrwt>
<pdfrwt beam="1">  1        4 0.28636997E-01 0.12499530E+03</pdfrwt>
<pdfrwt beam="2">  1       -4 0.32282946E-02 0.12499530E+03</pdfrwt>
<totfact> 0.88957026E+03</totfact>
</mgrwt>
</event>
<event>
 5    1  0.3300771E-002  0.1250001E+03  0.7818608E-02  0.1235069E+00
          4   -1    0    0  501    0  0.00000000000E+00  0.00000000000E+00  0.21435456542E+02  0.21473045829E+02  0.12700000000E+01 0. -1.
         -4   -1    0    0    0  501 -0.00000000000E+00 -0.00000000000E+00 -0.18203406832E+03  0.18203849848E+03  0.12700000000E+01 0. -1.
         25    2    1    2    0    0  0.00000000000E+00  0.00000000000E+00 -0.16059861178E+03  0.20351154431E+03  0.12500013825E+03 0.  0.
    9000005    1    3    3    0    0 -0.25718054605E+02  0.87815857836E+01  0.11319297525E+02  0.29456087283E+02  0.10000000000E+01 0.  0.
    9000005    1    3    3    0    0  0.25718054605E+02 -0.87815857836E+01 -0.17191790931E+03  0.17405545703E+03  0.10000000000E+01 0.  0.
<mgrwt>
<rscale>  0 0.12500014E+03</rscale>
<asrwt>0</asrwt>
<pdfrwt beam="1">  1        4 0.33009949E-02 0.12500014E+03</pdfrwt>
<pdfrwt beam="2">  1       -4 0.28008472E-01 0.12500014E+03</pdfrwt>
<totfact> 0.89546340E+03</totfact>
</mgrwt>
</event>
<event>
 5    1  0.3300771E-002  0.1249930E+03  0.7818608E-02  0.1235080E+00
         -4   -1    0    0    0  501 -0.00000000000E+00  0.00000000000E+00  0.87397354387E+03  0.87397446661E+03  0.12700000000E+01 0. -1.
          4   -1    0    0  501    0  0.00000000000E+00 -0.00000000000E+00 -0.43778590611E+01  0.45583494775E+01  0.12700000000E+01 0. -1.
         25    2    1    2    0    0  0.00000000000E+00  0.00000000000E+00  0.86959568481E+03  0.87853281609E+03  0.12499301542E+03 0.  0.
    9000005    1    3    3    0    0 -0.52165777329E+02 -0.16043490247E+01  0.67633942044E+03  0.67835083394E+03  0.10000000000E+01 0.  0.
    9000005    1    3    3    0    0  0.52165777329E+02  0.16043490247E+01  0.19325626437E+03  0.20018198215E+03  0.10000000000E+01 0.  0.
<mgrwt>
<rscale>  0 0.12499302E+03</rscale>
<asrwt>0</asrwt>
<pdfrwt beam="2">  1        4 0.68747212E-03 0.12499302E+03</pdfrwt>
<pdfrwt beam="1">  1       -4 0.13447133E+00 0.12499302E+03</pdfrwt>
<totfact> 0.34992681E+03</totfact>
</mgrwt>
</event>
<event>
 5    1  0.3300771E-002  0.1249943E+03  0.7818608E-02  0.1235078E+00
          4   -1    0    0  501    0  0.00000000000E+00  0.00000000000E+00  0.19386715639E+02  0.19428269178E+02  0.12700000000E+01 0.  1.
         -4   -1    0    0    0  501 -0.00000000000E+00 -0.00000000000E+00 -0.20121339062E+03  0.20121739851E+03  0.12700000000E+01 0.  1.
         25    2    1    2    0    0  0.00000000000E+00  0.00000000000E+00 -0.18182667498E+03  0.22064566769E+03  0.12499428362E+03 0.  0.
    9000005    1    3    3    0    0  0.52764892310E+02  0.32772225103E+02 -0.10298175249E+03  0.12026800882E+03  0.10000000000E+01 0.  0.
    9000005    1    3    3    0    0 -0.52764892310E+02 -0.32772225103E+02 -0.78844922485E+02  0.10037765887E+03  0.10000000000E+01 0.  0.
<mgrwt>
<rscale>  0 0.12499428E+03</rscale>
<asrwt>0</asrwt>
<pdfrwt beam="1">  1        4 0.29860765E-02 0.12499428E+03</pdfrwt>
<pdfrwt beam="2">  1       -4 0.30959410E-01 0.12499428E+03</pdfrwt>
<totfact> 0.86777364E+03</totfact>
</mgrwt>
</event>
<event>
 5    1  0.3300771E-002  0.1250050E+03  0.7818608E-02  0.1235062E+00
          4   -1    0    0  501    0  0.00000000000E+00  0.00000000000E+00  0.38057312405E+02  0.38078496918E+02  0.12700000000E+01 0.  1.
         -4   -1    0    0    0  501 -0.00000000000E+00 -0.00000000000E+00 -0.10259573381E+03  0.10260359397E+03  0.12700000000E+01 0.  1.
         25    2    1    2    0    0  0.00000000000E+00  0.00000000000E+00 -0.64538421404E+02  0.14068209089E+03  0.12500497134E+03 0.  0.
    9000005    1    3    3    0    0 -0.28144244689E+02  0.46122006882E+02 -0.67611853705E+02  0.86554611601E+02  0.10000000000E+01 0.  0.
    9000005    1    3    3    0    0  0.28144244689E+02 -0.46122006882E+02  0.30734323018E+01  0.54127479288E+02  0.10000000000E+01 0.  0.
<mgrwt>
<rscale>  0 0.12500497E+03</rscale>
<asrwt>0</asrwt>
<pdfrwt beam="1">  1        4 0.58572054E-02 0.12500497E+03</pdfrwt>
<pdfrwt beam="2">  1       -4 0.15786193E-01 0.12500497E+03</pdfrwt>
<totfact> 0.10118335E+04</totfact>
</mgrwt>
</event>
<event>
 5    1  0.3300771E-002  0.1250091E+03  0.7818608E-02  0.1235055E+00
         -4   -1    0    0    0  501 -0.00000000000E+00  0.00000000000E+00  0.13661204667E+02  0.13720109801E+02  0.12700000000E+01 0.  1.
          4   -1    0    0  501    0  0.00000000000E+00 -0.00000000000E+00 -0.28530354882E+03  0.28530637545E+03  0.12700000000E+01 0.  1.
         25    2    1    2    0    0  0.00000000000E+00  0.00000000000E+00 -0.27164234415E+03  0.29902648525E+03  0.12500910263E+03 0.  0.
    9000005    1    3    3    0    0  0.52529863405E+02 -0.20771604398E+02 -0.71860533697E+02  0.91409968832E+02  0.10000000000E+01 0.  0.
    9000005    1    3    3    0    0 -0.52529863405E+02  0.20771604398E+02 -0.19978181046E+03  0.20761651641E+03  0.10000000000E+01 0.  0.
<mgrwt>
<rscale>  0 0.12500910E+03</rscale>
<asrwt>0</asrwt>
<pdfrwt beam="2">  1        4 0.43897598E-01 0.12500910E+03</pdfrwt>
<pdfrwt beam="1">  1       -4 0.21064726E-02 0.12500910E+03</pdfrwt>
<totfact> 0.75705819E+03</totfact>
</mgrwt>
</event>
<event>
 4    1  0.3300771E-002  0.1250705E+03  0.7818608E-02  0.1234959E+00
          4   -1    0    0  501    0  0.00000000000E+00  0.00000000000E+00  0.12969871894E+03  0.12970493666E+03  0.12700000000E+01 0.  1.
         -4   -1    0    0    0  501 -0.00000000000E+00 -0.00000000000E+00 -0.30131524966E+02  0.30158277417E+02  0.12700000000E+01 0.  1.
    9000005    1    1    2    0    0  0.31362885129E+02 -0.54066473526E+02  0.51938069685E+02  0.81273471722E+02  0.10000000000E+01 0.  0.
    9000005    1    1    2    0    0 -0.31362885129E+02  0.54066473526E+02  0.47629124288E+02  0.78589742356E+02  0.10000000000E+01 0.  0.
<mgrwt>
<rscale>  0 0.12507046E+03</rscale>
<asrwt>0</asrwt>
<pdfrwt beam="1">  1        4 0.19956186E-01 0.12507046E+03</pdfrwt>
<pdfrwt beam="2">  1       -4 0.46381553E-02 0.12507046E+03</pdfrwt>
<totfact> 0.97215102E+03</totfact>
</mgrwt>
</event>
<event>
 5    1  0.3300771E-002  0.1250354E+03  0.7818608E-02  0.1235014E+00
         -4   -1    0    0    0  501 -0.00000000000E+00  0.00000000000E+00  0.13256080343E+03  0.13256688691E+03  0.12700000000E+01 0.  1.
          4   -1    0    0  501    0  0.00000000000E+00 -0.00000000000E+00 -0.29463860746E+02  0.29491218863E+02  0.12700000000E+01 0.  1.
         25    2    1    2    0    0  0.00000000000E+00  0.00000000000E+00  0.10309694268E+03  0.16205810577E+03  0.12503539521E+03 0.  0.
    9000005    1    3    3    0    0 -0.52128128864E+02 -0.34326644143E+02  0.47095814571E+02  0.78196394208E+02  0.10000000000E+01 0.  0.
    9000005    1    3    3    0    0  0.52128128864E+02  0.34326644143E+02  0.56001128109E+02  0.83861711564E+02  0.10000000000E+01 0.  0.
<mgrwt>
<rscale>  0 0.12503540E+03</rscale>
<asrwt>0</asrwt>
<pdfrwt beam="2">  1        4 0.45354741E-02 0.12503540E+03</pdfrwt>
<pdfrwt beam="1">  1       -4 0.20396542E-01 0.12503540E+03</pdfrwt>
<totfact> 0.96870387E+03</totfact>
</mgrwt>
</event>
<event>
 5    1  0.3300771E-002  0.1249850E+03  0.7818608E-02  0.1235093E+00
          4   -1    0    0  501    0  0.00000000000E+00  0.00000000000E+00  0.97504350167E+01  0.98327962968E+01  0.12700000000E+01 0.  1.
         -4   -1    0    0    0  501 -0.00000000000E+00 -0.00000000000E+00 -0.39875905601E+03  0.39876107840E+03  0.12700000000E+01 0.  1.
         25    2    1    2    0    0  0.00000000000E+00  0.00000000000E+00 -0.38900862099E+03  0.40859387470E+03  0.12498498804E+03 0.  0.
    9000005    1    3    3    0    0  0.50925673007E+01 -0.43881212915E+02 -0.33897000882E+03  0.34183791769E+03  0.10000000000E+01 0.  0.
    9000005    1    3    3    0    0 -0.50925673007E+01  0.43881212915E+02 -0.50038612169E+02  0.66755957011E+02  0.10000000000E+01 0.  0.
<mgrwt>
<rscale>  0 0.12498499E+03</rscale>
<asrwt>0</asrwt>
<pdfrwt beam="1">  1        4 0.15065583E-02 0.12498499E+03</pdfrwt>
<pdfrwt beam="2">  1       -4 0.61354026E-01 0.12498499E+03</pdfrwt>
<totfact> 0.63746576E+03</totfact>
</mgrwt>
</event>
<event>
 5    1  0.3300771E-002  0.1250066E+03  0.7818608E-02  0.1235059E+00
         -4   -1    0    0    0  501 -0.00000000000E+00  0.00000000000E+00  0.78191068423E+02  0.78201381580E+02  0.12700000000E+01 0.  1.
          4   -1    0    0  501    0  0.00000000000E+00 -0.00000000000E+00 -0.49941337547E+02  0.49957482883E+02  0.12700000000E+01 0.  1.
         25    2    1    2    0    0  0.00000000000E+00  0.00000000000E+00  0.28249730876E+02  0.12815886446E+03  0.12500658881E+03 0.  0.
    9000005    1    3    3    0    0 -0.12168620275E+02 -0.32472224922E+02 -0.39177944539E+02  0.52330030089E+02  0.10000000000E+01 0.  0.
    9000005    1    3    3    0    0  0.12168620275E+02  0.32472224922E+02  0.67427675415E+02  0.75828834375E+02  0.10000000000E+01 0.  0.
<mgrwt>
<rscale>  0 0.12500659E+03</rscale>
<asrwt>0</asrwt>
<pdfrwt beam="2">  1        4 0.76853180E-02 0.12500659E+03</pdfrwt>
<pdfrwt beam="1">  1       -4 0.12031430E-01 0.12500659E+03</pdfrwt>
<totfact> 0.10382514E+04</totfact>
</mgrwt>
</event>
<event>
 5    1  0.3300771E-002  0.1250099E+03  0.7818608E-02  0.1235054E+00
         -4   -1    0    0    0  501 -0.00000000000E+00  0.00000000000E+00  0.60609457908E+02  0.60622762127E+02  0.12700000000E+01 0. -1.
          4   -1    0    0  501    0  0.00000000000E+00 -0.00000000000E+00 -0.64433106596E+02  0.64445621462E+02  0.12700000000E+01 0. -1.
         25    2    1    2    0    0  0.00000000000E+00  0.00000000000E+00 -0.38236486879E+01  0.12506838359E+03  0.12500992074E+03 0.  0.
    9000005    1    3    3    0    0 -0.37844078044E+02  0.65933459946E+01 -0.51232177266E+02  0.64042036522E+02  0.10000000000E+01 0.  0.
    9000005    1    3    3    0    0  0.37844078044E+02 -0.65933459946E+01  0.47408528579E+02  0.61026347067E+02  0.10000000000E+01 0.  0.
<mgrwt>
<rscale>  0 0.12500992E+03</rscale>
<asrwt>0</asrwt>
<pdfrwt beam="2">  1        4 0.99147717E-02 0.12500992E+03</pdfrwt>
<pdfrwt beam="1">  1       -4 0.93265181E-02 0.12500992E+03</pdfrwt>
<totfact> 0.10449034E+04</totfact>
</mgrwt>
</event>
<event>
 5    1  0.3300771E-002  0.1250055E+03  0.7818608E-02  0.1235061E+00
          4   -1    0    0  501    0  0.00000000000E+00  0.00000000000E+00  0.12133503919E+04  0.12133510566E+04  0.12700000000E+01 0.  1.
         -4   -1    0    0    0  501 -0.00000000000E+00 -0.00000000000E+00 -0.30937468332E+01  0.33442741317E+01  0.12700000000E+01 0.  1.
         25    2    1    2    0    0  0.00000000000E+00  0.00000000000E+00  0.12102566451E+04  0.12166953307E+04  0.12500552295E+03 0.  0.
    9000005    1    3    3    0    0  0.52924445463E+02 -0.33221075237E+02  0.61465697699E+03  0.61782589467E+03  0.10000000000E+01 0.  0.
    9000005    1    3    3    0    0 -0.52924445463E+02  0.33221075237E+02  0.59559966812E+03  0.59886943605E+03  0.10000000000E+01 0.  0.
<mgrwt>
<rscale>  0 0.12500552E+03</rscale>
<asrwt>0</asrwt>
<pdfrwt beam="1">  1        4 0.18668884E+00 0.12500552E+03</pdfrwt>
<pdfrwt beam="2">  1       -4 0.49528290E-03 0.12500552E+03</pdfrwt>
<totfact> 0.24276926E+03</totfact>
</mgrwt>
</event>
<event>
 5    1  0.3300771E-002  0.1250011E+03  0.7818608E-02  0.1235068E+00
          4   -1    0    0  501    0  0.00000000000E+00  0.00000000000E+00  0.10057306195E+03  0.10058108018E+03  0.12700000000E+01 0.  1.
         -4   -1    0    0    0  501 -0.00000000000E+00 -0.00000000000E+00 -0.38820663430E+02  0.38841431605E+02  0.12700000000E+01 0.  1.
         25    2    1    2    0    0  0.00000000000E+00  0.00000000000E+00  0.61752398519E+02  0.13942251178E+03  0.12500111227E+03 0.  0.
    9000005    1    3    3    0    0 -0.21528517196E+02  0.23052312060E+02  0.91048671604E+02  0.96362579588E+02  0.10000000000E+01 0.  0.
    9000005    1    3    3    0    0  0.21528517196E+02 -0.23052312060E+02 -0.29296273085E+02  0.43059932195E+02  0.10000000000E+01 0.  0.
<mgrwt>
<rscale>  0 0.12500111E+03</rscale>
<asrwt>0</asrwt>
<pdfrwt beam="1">  1        4 0.15474993E-01 0.12500111E+03</pdfrwt>
<pdfrwt beam="2">  1       -4 0.59746242E-02 0.12500111E+03</pdfrwt>
<totfact> 0.10145314E+04</totfact>
</mgrwt>
</event>
<event>
 5    1  0.3300771E-002  0.1249993E+03  0.7818608E-02  0.1235070E+00
         -4   -1    0    0    0  501 -0.00000000000E+00  0.00000000000E+00  0.31464116680E+03  0.31464372986E+03  0.12700000000E+01 0.  1.
          4   -1    0    0  501    0  0.00000000000E+00 -0.00000000000E+00 -0.12379687541E+02  0.12444660044E+02  0.12700000000E+01 0.  1.
         25    2    1    2    0    0  0.00000000000E+00  0.00000000000E+00  0.30226147925E+03  0.32708838991E+03  0.12499925188E+03 0.  0.
    9000005    1    3    3    0    0 -0.24520047931E+02  0.52334311663E+02  0.21333450108E+03  0.22102651941E+03  0.10000000000E+01 0.  0.
    9000005    1    3    3    0    0  0.24520047931E+02 -0.52334311663E+02  0.88926978170E+02  0.10606187050E+03  0.10000000000E+01 0.  0.
<mgrwt>
<rscale>  0 0.12499925E+03</rscale>
<asrwt>0</asrwt>
<pdfrwt beam="2">  1        4 0.19097623E-02 0.12499925E+03</pdfrwt>
<pdfrwt beam="1">  1       -4 0.48411530E-01 0.12499925E+03</pdfrwt>
<totfact> 0.72322108E+03</totfact>
</mgrwt>
</event>
<event>
 5    1  0.3300771E-002  0.1249975E+03  0.7818608E-02  0.1235073E+00
          4   -1    0    0  501    0  0.00000000000E+00  0.00000000000E+00  0.34753629061E+02  0.34776826090E+02  0.12700000000E+01 0. -1.
         -4   -1    0    0    0  501 -0.00000000000E+00 -0.00000000000E+00 -0.11232959193E+03  0.11233677101E+03  0.12700000000E+01 0. -1.
         25    2    1    2    0    0  0.00000000000E+00  0.00000000000E+00 -0.77575962864E+02  0.14711359711E+03  0.12499752173E+03 0.  0.
    9000005    1    3    3    0    0 -0.42258766143E+02  0.45821936020E+02 -0.33571904735E+02  0.70806256250E+02  0.10000000000E+01 0.  0.
    9000005    1    3    3    0    0  0.42258766143E+02 -0.45821936020E+02 -0.44004058129E+02  0.76307340855E+02  0.10000000000E+01 0.  0.
<mgrwt>
<rscale>  0 0.12499752E+03</rscale>
<asrwt>0</asrwt>
<pdfrwt beam="1">  1        4 0.53490488E-02 0.12499752E+03</pdfrwt>
<pdfrwt beam="2">  1       -4 0.17283812E-01 0.12499752E+03</pdfrwt>
<totfact> 0.99887775E+03</totfact>
</mgrwt>
</event>
<event>
 5    1  0.3300771E-002  0.1249999E+03  0.7818608E-02  0.1235069E+00
         -4   -1    0    0    0  501 -0.00000000000E+00  0.00000000000E+00  0.14467778510E+04  0.14467784084E+04  0.12700000000E+01 0.  1.
          4   -1    0    0  501    0  0.00000000000E+00 -0.00000000000E+00 -0.25500263093E+01  0.28487776639E+01  0.12700000000E+01 0.  1.
         25    2    1    2    0    0  0.00000000000E+00  0.00000000000E+00  0.14442278247E+04  0.14496271861E+04  0.12499987599E+03 0.  0.
    9000005    1    3    3    0    0  0.49442736056E+02 -0.19438953011E+02  0.34050553531E+03  0.34462657562E+03  0.10000000000E+01 0.  0.
    9000005    1    3    3    0    0 -0.49442736056E+02  0.19438953011E+02  0.11037222894E+04  0.11050006105E+04  0.10000000000E+01 0.  0.
<mgrwt>
<rscale>  0 0.12499988E+03</rscale>
<asrwt>0</asrwt>
<pdfrwt beam="2">  1        4 0.41533471E-03 0.12499988E+03</pdfrwt>
<pdfrwt beam="1">  1       -4 0.22260465E+00 0.12499988E+03</pdfrwt>
<totfact> 0.18940364E+03</totfact>
</mgrwt>
</event>
<event>
 5    1  0.3300771E-002  0.1250015E+03  0.7818608E-02  0.1235067E+00
          4   -1    0    0  501    0  0.00000000000E+00  0.00000000000E+00  0.10016656592E+03  0.10017461668E+03  0.12700000000E+01 0. -1.
         -4   -1    0    0    0  501 -0.00000000000E+00 -0.00000000000E+00 -0.38978536476E+02  0.38999220580E+02  0.12700000000E+01 0. -1.
         25    2    1    2    0    0  0.00000000000E+00  0.00000000000E+00  0.61188029442E+02  0.13917383726E+03  0.12500152812E+03 0.  0.
    9000005    1    3    3    0    0  0.50488908733E+02 -0.35595025684E+02  0.41109962946E+02  0.74210274302E+02  0.10000000000E+01 0.  0.
    9000005    1    3    3    0    0 -0.50488908733E+02  0.35595025684E+02  0.20078066496E+02  0.64963562962E+02  0.10000000000E+01 0.  0.
<mgrwt>
<rscale>  0 0.12500153E+03</rscale>
<asrwt>0</asrwt>
<pdfrwt beam="1">  1        4 0.15412451E-01 0.12500153E+03</pdfrwt>
<pdfrwt beam="2">  1       -4 0.59989084E-02 0.12500153E+03</pdfrwt>
<totfact> 0.10150388E+04</totfact>
</mgrwt>
</event>
<event>
 5    1  0.3300771E-002  0.1249987E+03  0.7818608E-02  0.1235071E+00
         -4   -1    0    0    0  501 -0.00000000000E+00  0.00000000000E+00  0.30160896956E+03  0.30161164338E+03  0.12700000000E+01 0.  1.
          4   -1    0    0  501    0  0.00000000000E+00 -0.00000000000E+00 -0.12917223453E+02  0.12979505450E+02  0.12700000000E+01 0.  1.
         25    2    1    2    0    0  0.00000000000E+00  0.00000000000E+00  0.28869174611E+03  0.31459114883E+03  0.12499866659E+03 0.  0.
    9000005    1    3    3    0    0  0.81946160239E+01  0.59959935699E+02  0.10512797821E+03  0.12130637833E+03  0.10000000000E+01 0.  0.
    9000005    1    3    3    0    0 -0.81946160239E+01 -0.59959935699E+02  0.18356376790E+03  0.19328477050E+03  0.10000000000E+01 0.  0.
<mgrwt>
<rscale>  0 0.12499867E+03</rscale>
<asrwt>0</asrwt>
<pdfrwt beam="2">  1        4 0.19922616E-02 0.12499867E+03</pdfrwt>
<pdfrwt beam="1">  1       -4 0.46406380E-01 0.12499867E+03</pdfrwt>
<totfact> 0.73806266E+03</totfact>
</mgrwt>
</event>
<event>
 5    1  0.3300771E-002  0.1250005E+03  0.7818608E-02  0.1235069E+00
          4   -1    0    0  501    0  0.00000000000E+00  0.00000000000E+00  0.98818969573E+02  0.98827130118E+02  0.12700000000E+01 0.  1.
         -4   -1    0    0    0  501 -0.00000000000E+00 -0.00000000000E+00 -0.39509668811E+02  0.39530075000E+02  0.12700000000E+01 0.  1.
         25    2    1    2    0    0  0.00000000000E+00  0.00000000000E+00  0.59309300762E+02  0.13835720512E+03  0.12500049220E+03 0.  0.
    9000005    1    3    3    0    0 -0.24920502912E+02  0.56583313934E+02  0.39712888814E+02  0.73490247102E+02  0.10000000000E+01 0.  0.
    9000005    1    3    3    0    0  0.24920502912E+02 -0.56583313934E+02  0.19596411948E+02  0.64866958017E+02  0.10000000000E+01 0.  0.
<mgrwt>
<rscale>  0 0.12500049E+03</rscale>
<asrwt>0</asrwt>
<pdfrwt beam="1">  1        4 0.15205116E-01 0.12500049E+03</pdfrwt>
<pdfrwt beam="2">  1       -4 0.60806080E-02 0.12500049E+03</pdfrwt>
<totfact> 0.10167635E+04</totfact>
</mgrwt>
</event>
<event>
 5    1  0.3300771E-002  0.1250020E+03  0.7818608E-02  0.1235066E+00
          4   -1    0    0  501    0  0.00000000000E+00  0.00000000000E+00  0.21337188265E+03  0.21337566217E+03  0.12700000000E+01 0.  1.
         -4   -1    0    0    0  501 -0.00000000000E+00 -0.00000000000E+00 -0.18281854052E+02  0.18325913008E+02  0.12700000000E+01 0.  1.
         25    2    1    2    0    0  0.00000000000E+00  0.00000000000E+00  0.19509002860E+03  0.23170157518E+03  0.12500200271E+03 0.  0.
    9000005    1    3    3    0    0  0.44443573992E+02 -0.33830281838E+02  0.14950011754E+03  0.15959637960E+03  0.10000000000E+01 0.  0.
    9000005    1    3    3    0    0 -0.44443573992E+02  0.33830281838E+02  0.45589911066E+02  0.72105195579E+02  0.10000000000E+01 0.  0.
<mgrwt>
<rscale>  0 0.12500200E+03</rscale>
<asrwt>0</asrwt>
<pdfrwt beam="1">  1        4 0.32830123E-01 0.12500200E+03</pdfrwt>
<pdfrwt beam="2">  1       -4 0.28162728E-02 0.12500200E+03</pdfrwt>
<totfact> 0.85045201E+03</totfact>
</mgrwt>
</event>
<event>
 5    1  0.3300771E-002  0.1249982E+03  0.7818608E-02  0.1235072E+00
         -4   -1    0    0    0  501 -0.00000000000E+00  0.00000000000E+00  0.86814515280E+02  0.86823804129E+02  0.12700000000E+01 0. -1.
          4   -1    0    0  501    0  0.00000000000E+00 -0.00000000000E+00 -0.44973395306E+02  0.44991323445E+02  0.12700000000E+01 0. -1.
         25    2    1    2    0    0  0.00000000000E+00  0.00000000000E+00  0.41841119975E+02  0.13181512757E+03  0.12499819413E+03 0.  0.
    9000005    1    3    3    0    0  0.44251135381E+01  0.37824423154E+02 -0.31328157394E+02  0.49322632355E+02  0.10000000000E+01 0.  0.
    9000005    1    3    3    0    0 -0.44251135381E+01 -0.37824423154E+02  0.73169277368E+02  0.82492495218E+02  0.10000000000E+01 0.  0.
<mgrwt>
<rscale>  0 0.12499819E+03</rscale>
<asrwt>0</asrwt>
<pdfrwt beam="2">  1        4 0.69210775E-02 0.12499819E+03</pdfrwt>
<pdfrwt beam="1">  1       -4 0.13358173E-01 0.12499819E+03</pdfrwt>
<totfact> 0.10306066E+04</totfact>
</mgrwt>
</event>
<event>
 5    1  0.3300771E-002  0.1249934E+03  0.7818608E-02  0.1235080E+00
          4   -1    0    0  501    0  0.00000000000E+00  0.00000000000E+00  0.35981680313E+02  0.36004086131E+02  0.12700000000E+01 0. -1.
         -4   -1    0    0    0  501 -0.00000000000E+00 -0.00000000000E+00 -0.10849074102E+03  0.10849817412E+03  0.12700000000E+01 0. -1.
         25    2    1    2    0    0  0.00000000000E+00  0.00000000000E+00 -0.72509060711E+02  0.14450226025E+03  0.12499335716E+03 0.  0.
    9000005    1    3    3    0    0 -0.19767328817E+02  0.41735274640E+02  0.12414280884E+02  0.47829852683E+02  0.10000000000E+01 0.  0.
    9000005    1    3    3    0    0  0.19767328817E+02 -0.41735274640E+02 -0.84923341595E+02  0.96672407571E+02  0.10000000000E+01 0.  0.
<mgrwt>
<rscale>  0 0.12499336E+03</rscale>
<asrwt>0</asrwt>
<pdfrwt beam="1">  1        4 0.55379385E-02 0.12499336E+03</pdfrwt>
<pdfrwt beam="2">  1       -4 0.16693178E-01 0.12499336E+03</pdfrwt>
<totfact> 0.10042613E+04</totfact>
</mgrwt>
</event>
<event>
 5    1  0.3300771E-002  0.1249593E+03  0.7818608E-02  0.1235133E+00
         -4   -1    0    0    0  501 -0.00000000000E+00  0.00000000000E+00  0.55640047804E+03  0.55640192744E+03  0.12700000000E+01 0. -1.
          4   -1    0    0  501    0  0.00000000000E+00 -0.00000000000E+00 -0.69570598689E+01  0.70720281405E+01  0.12700000000E+01 0. -1.
         25    2    1    2    0    0  0.00000000000E+00  0.00000000000E+00  0.54944341817E+03  0.56347395558E+03  0.12495930878E+03 0.  0.
    9000005    1    3    3    0    0  0.42580476486E+02  0.24238348459E+02  0.44948752620E+03  0.45215111492E+03  0.10000000000E+01 0.  0.
    9000005    1    3    3    0    0 -0.42580476486E+02 -0.24238348459E+02  0.99955891969E+02  0.11132284066E+03  0.10000000000E+01 0.  0.
<mgrwt>
<rscale>  0 0.12495931E+03</rscale>
<asrwt>0</asrwt>
<pdfrwt beam="2">  1        4 0.10792721E-02 0.12495931E+03</pdfrwt>
<pdfrwt beam="1">  1       -4 0.85609028E-01 0.12495931E+03</pdfrwt>
<totfact> 0.51303314E+03</totfact>
</mgrwt>
</event>
<event>
 5    1  0.3300771E-002  0.1250011E+03  0.7818608E-02  0.1235068E+00
          4   -1    0    0  501    0  0.00000000000E+00  0.00000000000E+00  0.80464442151E+01  0.81460520810E+01  0.12700000000E+01 0. -1.
         -4   -1    0    0    0  501 -0.00000000000E+00 -0.00000000000E+00 -0.48238464857E+03  0.48238632037E+03  0.12700000000E+01 0. -1.
         25    2    1    2    0    0  0.00000000000E+00  0.00000000000E+00 -0.47433820436E+03  0.49053237245E+03  0.12500110523E+03 0.  0.
    9000005    1    3    3    0    0  0.40684900333E+02 -0.47335157500E+02 -0.24922664529E+03  0.25692566818E+03  0.10000000000E+01 0.  0.
    9000005    1    3    3    0    0 -0.40684900333E+02  0.47335157500E+02 -0.22511155907E+03  0.23360670426E+03  0.10000000000E+01 0.  0.
<mgrwt>
<rscale>  0 0.12500111E+03</rscale>
<asrwt>0</asrwt>
<pdfrwt beam="1">  1        4 0.12457056E-02 0.12500111E+03</pdfrwt>
<pdfrwt beam="2">  1       -4 0.74220791E-01 0.12500111E+03</pdfrwt>
<totfact> 0.56605127E+03</totfact>
</mgrwt>
</event>
<event>
 5    1  0.3300771E-002  0.1249987E+03  0.7818608E-02  0.1235071E+00
         -4   -1    0    0    0  501 -0.00000000000E+00  0.00000000000E+00  0.30365420116E+01  0.32914263455E+01  0.12700000000E+01 0. -1.
          4   -1    0    0  501    0  0.00000000000E+00 -0.00000000000E+00 -0.12343173713E+04  0.12343180247E+04  0.12700000000E+01 0. -1.
         25    2    1    2    0    0  0.00000000000E+00  0.00000000000E+00 -0.12312808293E+04  0.12376094510E+04  0.12499869054E+03 0.  0.
    9000005    1    3    3    0    0  0.35231634319E+02 -0.34669601037E+02 -0.23707599858E+03  0.24217613094E+03  0.10000000000E+01 0.  0.
    9000005    1    3    3    0    0 -0.35231634319E+02  0.34669601037E+02 -0.99420483070E+03  0.99543332006E+03  0.10000000000E+01 0.  0.
<mgrwt>
<rscale>  0 0.12499869E+03</rscale>
<asrwt>0</asrwt>
<pdfrwt beam="2">  1        4 0.18991425E+00 0.12499869E+03</pdfrwt>
<pdfrwt beam="1">  1       -4 0.48681804E-03 0.12499869E+03</pdfrwt>
<totfact> 0.23749743E+03</totfact>
</mgrwt>
</event>
<event>
 5    1  0.3300771E-002  0.1249808E+03  0.7818608E-02  0.1235099E+00
          4   -1    0    0  501    0  0.00000000000E+00  0.00000000000E+00  0.19055166084E+02  0.19097441046E+02  0.12700000000E+01 0. -1.
         -4   -1    0    0    0  501 -0.00000000000E+00 -0.00000000000E+00 -0.20466276809E+03  0.20466670844E+03  0.12700000000E+01 0. -1.
         25    2    1    2    0    0  0.00000000000E+00  0.00000000000E+00 -0.18560760200E+03  0.22376414948E+03  0.12498084922E+03 0.  0.
    9000005    1    3    3    0    0  0.19238315007E+02 -0.46612037621E+02 -0.15886056802E+03  0.16667475780E+03  0.10000000000E+01 0.  0.
    9000005    1    3    3    0    0 -0.19238315007E+02  0.46612037621E+02 -0.26747033981E+02  0.57089391679E+02  0.10000000000E+01 0.  0.
<mgrwt>
<rscale>  0 0.12498085E+03</rscale>
<asrwt>0</asrwt>
<pdfrwt beam="1">  1        4 0.29351192E-02 0.12498085E+03</pdfrwt>
<pdfrwt beam="2">  1       -4 0.31490133E-01 0.12498085E+03</pdfrwt>
<totfact> 0.86313109E+03</totfact>
</mgrwt>
</event>
<event>
 5    1  0.3300771E-002  0.1249851E+03  0.7818608E-02  0.1235092E+00
         -4   -1    0    0    0  501 -0.00000000000E+00  0.00000000000E+00  0.30802608732E+03  0.30802870543E+03  0.12700000000E+01 0. -1.
          4   -1    0    0  501    0  0.00000000000E+00 -0.00000000000E+00 -0.12644059883E+02  0.12707680761E+02  0.12700000000E+01 0. -1.
         25    2    1    2    0    0  0.00000000000E+00  0.00000000000E+00  0.29538202744E+03  0.32073638619E+03  0.12498514830E+03 0.  0.
    9000005    1    3    3    0    0  0.33961632484E+02  0.33488214622E+00  0.13098567318E+02  0.36415341449E+02  0.10000000000E+01 0.  0.
    9000005    1    3    3    0    0 -0.33961632484E+02 -0.33488214622E+00  0.28228346012E+03  0.28432104474E+03  0.10000000000E+01 0.  0.
<mgrwt>
<rscale>  0 0.12498515E+03</rscale>
<asrwt>0</asrwt>
<pdfrwt beam="2">  1        4 0.19503352E-02 0.12498515E+03</pdfrwt>
<pdfrwt beam="1">  1       -4 0.47393726E-01 0.12498515E+03</pdfrwt>
<totfact> 0.73092684E+03</totfact>
</mgrwt>
</event>
<event>
 5    1  0.3300771E-002  0.1250088E+03  0.7818608E-02  0.1235056E+00
         -4   -1    0    0    0  501 -0.00000000000E+00  0.00000000000E+00  0.17265146887E+02  0.17311793583E+02  0.12700000000E+01 0.  1.
          4   -1    0    0  501    0  0.00000000000E+00 -0.00000000000E+00 -0.22592858671E+03  0.22593215617E+03  0.12700000000E+01 0.  1.
         25    2    1    2    0    0  0.00000000000E+00  0.00000000000E+00 -0.20866343982E+03  0.24324394975E+03  0.12500875159E+03 0.  0.
    9000005    1    3    3    0    0 -0.50672592497E+02  0.11421764998E+02 -0.36712784008E+02  0.63616011001E+02  0.10000000000E+01 0.  0.
    9000005    1    3    3    0    0  0.50672592497E+02 -0.11421764998E+02 -0.17195065581E+03  0.17962793875E+03  0.10000000000E+01 0.  0.
<mgrwt>
<rscale>  0 0.12500875E+03</rscale>
<asrwt>0</asrwt>
<pdfrwt beam="2">  1        4 0.34762105E-01 0.12500875E+03</pdfrwt>
<pdfrwt beam="1">  1       -4 0.26600394E-02 0.12500875E+03</pdfrwt>
<totfact> 0.83300350E+03</totfact>
</mgrwt>
</event>
<event>
 5    1  0.3300771E-002  0.1250004E+03  0.7818608E-02  0.1235069E+00
          4   -1    0    0  501    0  0.00000000000E+00  0.00000000000E+00  0.67723532092E+02  0.67735439018E+02  0.12700000000E+01 0.  1.
         -4   -1    0    0    0  501 -0.00000000000E+00 -0.00000000000E+00 -0.57655725478E+02  0.57669711117E+02  0.12700000000E+01 0.  1.
         25    2    1    2    0    0  0.00000000000E+00  0.00000000000E+00  0.10067806614E+02  0.12540515014E+03  0.12500036380E+03 0.  0.
    9000005    1    3    3    0    0 -0.14353055046E+02 -0.28187150375E+02  0.59104138547E+02  0.67043454780E+02  0.10000000000E+01 0.  0.
    9000005    1    3    3    0    0  0.14353055046E+02  0.28187150375E+02 -0.49036331933E+02  0.58361695356E+02  0.10000000000E+01 0.  0.
<mgrwt>
<rscale>  0 0.12500036E+03</rscale>
<asrwt>0</asrwt>
<pdfrwt beam="1">  1        4 0.10420997E-01 0.12500036E+03</pdfrwt>
<pdfrwt beam="2">  1       -4 0.88721033E-02 0.12500036E+03</pdfrwt>
<totfact> 0.10443967E+04</totfact>
</mgrwt>
</event>
<event>
 5    1  0.3300771E-002  0.1250014E+03  0.7818608E-02  0.1235067E+00
          4   -1    0    0  501    0  0.00000000000E+00  0.00000000000E+00  0.16968582201E+03  0.16969057455E+03  0.12700000000E+01 0.  1.
         -4   -1    0    0    0  501 -0.00000000000E+00 -0.00000000000E+00 -0.22998417892E+02  0.23033456656E+02  0.12700000000E+01 0.  1.
         25    2    1    2    0    0  0.00000000000E+00  0.00000000000E+00  0.14668740412E+03  0.19272403121E+03  0.12500143070E+03 0.  0.
    9000005    1    3    3    0    0  0.52232181136E+02  0.33339564200E+02  0.60855124863E+02  0.86856626169E+02  0.10000000000E+01 0.  0.
    9000005    1    3    3    0    0 -0.52232181136E+02 -0.33339564200E+02  0.85832279254E+02  0.10586740504E+03  0.10000000000E+01 0.  0.
<mgrwt>
<rscale>  0 0.12500143E+03</rscale>
<asrwt>0</asrwt>
<pdfrwt beam="1">  1        4 0.26108571E-01 0.12500143E+03</pdfrwt>
<pdfrwt beam="2">  1       -4 0.35412791E-02 0.12500143E+03</pdfrwt>
<totfact> 0.91372563E+03</totfact>
</mgrwt>
</event>
<event>
 5    1  0.3300771E-002  0.1250107E+03  0.7818608E-02  0.1235053E+00
         -4   -1    0    0    0  501 -0.00000000000E+00  0.00000000000E+00  0.33289672666E+02  0.33313889088E+02  0.12700000000E+01 0. -1.
          4   -1    0    0  501    0  0.00000000000E+00 -0.00000000000E+00 -0.11729087613E+03  0.11729775157E+03  0.12700000000E+01 0. -1.
         25    2    1    2    0    0  0.00000000000E+00  0.00000000000E+00 -0.84001203462E+02  0.15061164066E+03  0.12501065602E+03 0.  0.
    9000005    1    3    3    0    0 -0.62545589411E+01 -0.17735031525E+02  0.29805970313E+02  0.35256867658E+02  0.10000000000E+01 0.  0.
    9000005    1    3    3    0    0  0.62545589411E+01  0.17735031525E+02 -0.11380717378E+03  0.11535477300E+03  0.10000000000E+01 0.  0.
<mgrwt>
<rscale>  0 0.12501066E+03</rscale>
<asrwt>0</asrwt>
<pdfrwt beam="2">  1        4 0.18047142E-01 0.12501066E+03</pdfrwt>
<pdfrwt beam="1">  1       -4 0.51238798E-02 0.12501066E+03</pdfrwt>
<totfact> 0.99158136E+03</totfact>
</mgrwt>
</event>
<event>
 5    1  0.3300771E-002  0.1250035E+03  0.7818608E-02  0.1235064E+00
          4   -1    0    0  501    0  0.00000000000E+00  0.00000000000E+00  0.17818822768E+02  0.17864023758E+02  0.12700000000E+01 0. -1.
         -4   -1    0    0    0  501 -0.00000000000E+00 -0.00000000000E+00 -0.21890789764E+03  0.21891158158E+03  0.12700000000E+01 0. -1.
         25    2    1    2    0    0  0.00000000000E+00  0.00000000000E+00 -0.20108907487E+03  0.23677560534E+03  0.12500348495E+03 0.  0.
    9000005    1    3    3    0    0 -0.47011969213E+02 -0.30843185265E+02 -0.15221152236E+03  0.16226760264E+03  0.10000000000E+01 0.  0.
    9000005    1    3    3    0    0  0.47011969213E+02  0.30843185265E+02 -0.48877552512E+02  0.74508002699E+02  0.10000000000E+01 0.  0.
<mgrwt>
<rscale>  0 0.12500348E+03</rscale>
<asrwt>0</asrwt>
<pdfrwt beam="1">  1        4 0.27451179E-02 0.12500348E+03</pdfrwt>
<pdfrwt beam="2">  1       -4 0.33681897E-01 0.12500348E+03</pdfrwt>
<totfact> 0.84273391E+03</totfact>
</mgrwt>
</event>
<event>
 5    1  0.3300771E-002  0.1250019E+03  0.7818608E-02  0.1235066E+00
         -4   -1    0    0    0  501 -0.00000000000E+00  0.00000000000E+00  0.72943145853E+03  0.72943256412E+03  0.12700000000E+01 0. -1.
          4   -1    0    0  501    0  0.00000000000E+00 -0.00000000000E+00 -0.52789433477E+01  0.54295619407E+01  0.12700000000E+01 0. -1.
         25    2    1    2    0    0  0.00000000000E+00  0.00000000000E+00  0.72415251518E+03  0.73486212606E+03  0.12500191626E+03 0.  0.
    9000005    1    3    3    0    0 -0.16244359221E+02 -0.35847814176E+02  0.76701218040E+02  0.86214974549E+02  0.10000000000E+01 0.  0.
    9000005    1    3    3    0    0  0.16244359221E+02  0.35847814176E+02  0.64745129714E+03  0.64864715151E+03  0.10000000000E+01 0.  0.
<mgrwt>
<rscale>  0 0.12500192E+03</rscale>
<asrwt>0</asrwt>
<pdfrwt beam="2">  1        4 0.82381666E-03 0.12500192E+03</pdfrwt>
<pdfrwt beam="1">  1       -4 0.11223184E+00 0.12500192E+03</pdfrwt>
<totfact> 0.41307146E+03</totfact>
</mgrwt>
</event>
<event>
 5    1  0.3300771E-002  0.1249980E+03  0.7818608E-02  0.1235072E+00
          4   -1    0    0  501    0  0.00000000000E+00  0.00000000000E+00  0.15285471615E+03  0.15285999198E+03  0.12700000000E+01 0.  1.
         -4   -1    0    0    0  501 -0.00000000000E+00 -0.00000000000E+00 -0.25532977745E+02  0.25564542878E+02  0.12700000000E+01 0.  1.
         25    2    1    2    0    0  0.00000000000E+00  0.00000000000E+00  0.12732173840E+03  0.17842453486E+03  0.12499795826E+03 0.  0.
    9000005    1    3    3    0    0 -0.59886577043E+02  0.75948417315E+01  0.86723246400E+02  0.10566932004E+03  0.10000000000E+01 0.  0.
    9000005    1    3    3    0    0  0.59886577043E+02 -0.75948417315E+01  0.40598492000E+02  0.72755214820E+02  0.10000000000E+01 0.  0.
<mgrwt>
<rscale>  0 0.12499796E+03</rscale>
<asrwt>0</asrwt>
<pdfrwt beam="1">  1        4 0.23518944E-01 0.12499796E+03</pdfrwt>
<pdfrwt beam="2">  1       -4 0.39309843E-02 0.12499796E+03</pdfrwt>
<totfact> 0.93905662E+03</totfact>
</mgrwt>
</event>
<event>
 5    1  0.3300771E-002  0.1249938E+03  0.7818608E-02  0.1235079E+00
         -4   -1    0    0    0  501 -0.00000000000E+00  0.00000000000E+00  0.23197902363E+03  0.23198250000E+03  0.12700000000E+01 0.  1.
          4   -1    0    0  501    0  0.00000000000E+00 -0.00000000000E+00 -0.16809569950E+02  0.16857477329E+02  0.12700000000E+01 0.  1.
         25    2    1    2    0    0  0.00000000000E+00  0.00000000000E+00  0.21516945368E+03  0.24883997733E+03  0.12499376192E+03 0.  0.
    9000005    1    3    3    0    0  0.50371510525E+02 -0.36625262336E+02  0.11776737589E+03  0.13322482403E+03  0.10000000000E+01 0.  0.
    9000005    1    3    3    0    0 -0.50371510525E+02  0.36625262336E+02  0.97402077795E+02  0.11561515330E+03  0.10000000000E+01 0.  0.
<mgrwt>
<rscale>  0 0.12499376E+03</rscale>
<asrwt>0</asrwt>
<pdfrwt beam="2">  1        4 0.25900406E-02 0.12499376E+03</pdfrwt>
<pdfrwt beam="1">  1       -4 0.35693029E-01 0.12499376E+03</pdfrwt>
<totfact> 0.82509645E+03</totfact>
</mgrwt>
</event>
<event>
 5    1  0.3300771E-002  0.1250007E+03  0.7818608E-02  0.1235068E+00
          4   -1    0    0  501    0  0.00000000000E+00  0.00000000000E+00  0.30575496133E+03  0.30575759889E+03  0.12700000000E+01 0.  1.
         -4   -1    0    0    0  501 -0.00000000000E+00 -0.00000000000E+00 -0.12741644284E+02  0.12804780320E+02  0.12700000000E+01 0.  1.
         25    2    1    2    0    0  0.00000000000E+00  0.00000000000E+00  0.29301331705E+03  0.31856237921E+03  0.12500074192E+03 0.  0.
    9000005    1    3    3    0    0 -0.97283164425E+00  0.53603225645E+02  0.22833816207E+03  0.23454971426E+03  0.10000000000E+01 0.  0.
    9000005    1    3    3    0    0  0.97283164425E+00 -0.53603225645E+02  0.64675154976E+02  0.84012664951E+02  0.10000000000E+01 0.  0.
<mgrwt>
<rscale>  0 0.12500074E+03</rscale>
<asrwt>0</asrwt>
<pdfrwt beam="1">  1        4 0.47044288E-01 0.12500074E+03</pdfrwt>
<pdfrwt beam="2">  1       -4 0.19653123E-02 0.12500074E+03</pdfrwt>
<totfact> 0.73326227E+03</totfact>
</mgrwt>
</event>
<event>
 5    1  0.3300771E-002  0.1250035E+03  0.7818608E-02  0.1235064E+00
          4   -1    0    0  501    0  0.00000000000E+00  0.00000000000E+00  0.78392733657E+02  0.78403020287E+02  0.12700000000E+01 0. -1.
         -4   -1    0    0    0  501 -0.00000000000E+00 -0.00000000000E+00 -0.49810357486E+02  0.49826545264E+02  0.12700000000E+01 0. -1.
         25    2    1    2    0    0  0.00000000000E+00  0.00000000000E+00  0.28582376170E+02  0.12822956555E+03  0.12500347697E+03 0.  0.
    9000005    1    3    3    0    0  0.16635424238E+02 -0.43828271978E+01 -0.47338625226E+02  0.50377494500E+02  0.10000000000E+01 0.  0.
    9000005    1    3    3    0    0 -0.16635424238E+02  0.43828271978E+01  0.75921001396E+02  0.77852071050E+02  0.10000000000E+01 0.  0.
<mgrwt>
<rscale>  0 0.12500348E+03</rscale>
<asrwt>0</asrwt>
<pdfrwt beam="1">  1        4 0.12062457E-01 0.12500348E+03</pdfrwt>
<pdfrwt beam="2">  1       -4 0.76651684E-02 0.12500348E+03</pdfrwt>
<totfact> 0.10381718E+04</totfact>
</mgrwt>
</event>
<event>
 5    1  0.3300771E-002  0.1250030E+03  0.7818608E-02  0.1235065E+00
          4   -1    0    0  501    0  0.00000000000E+00  0.00000000000E+00  0.47273575665E+02  0.47290631801E+02  0.12700000000E+01 0. -1.
         -4   -1    0    0    0  501 -0.00000000000E+00 -0.00000000000E+00 -0.82597834261E+02  0.82607597258E+02  0.12700000000E+01 0. -1.
         25    2    1    2    0    0  0.00000000000E+00  0.00000000000E+00 -0.35324258596E+02  0.12989822906E+03  0.12500298663E+03 0.  0.
    9000005    1    3    3    0    0 -0.43498254248E+02 -0.44421683535E+02 -0.11085580182E+02  0.63160701221E+02  0.10000000000E+01 0.  0.
    9000005    1    3    3    0    0  0.43498254248E+02  0.44421683535E+02 -0.24238678414E+02  0.66737527838E+02  0.10000000000E+01 0.  0.
<mgrwt>
<rscale>  0 0.12500299E+03</rscale>
<asrwt>0</asrwt>
<pdfrwt beam="1">  1        4 0.72749208E-02 0.12500299E+03</pdfrwt>
<pdfrwt beam="2">  1       -4 0.12709422E-01 0.12500299E+03</pdfrwt>
<totfact> 0.10345988E+04</totfact>
</mgrwt>
</event>
<event>
 5    1  0.3300771E-002  0.1249998E+03  0.7818608E-02  0.1235070E+00
          4   -1    0    0  501    0  0.00000000000E+00  0.00000000000E+00  0.58486378889E+02  0.58500165944E+02  0.12700000000E+01 0. -1.
         -4   -1    0    0    0  501 -0.00000000000E+00 -0.00000000000E+00 -0.66761128811E+02  0.66773207352E+02  0.12700000000E+01 0. -1.
         25    2    1    2    0    0  0.00000000000E+00  0.00000000000E+00 -0.82747499218E+01  0.12527337330E+03  0.12499978628E+03 0.  0.
    9000005    1    3    3    0    0  0.53431552079E+02 -0.31374601951E+02 -0.12275507435E+02  0.63174239117E+02  0.10000000000E+01 0.  0.
    9000005    1    3    3    0    0 -0.53431552079E+02  0.31374601951E+02  0.40007575128E+01  0.62099134180E+02  0.10000000000E+01 0.  0.
<mgrwt>
<rscale>  0 0.12499979E+03</rscale>
<asrwt>0</asrwt>
<pdfrwt beam="1">  1        4 0.89998941E-02 0.12499979E+03</pdfrwt>
<pdfrwt beam="2">  1       -4 0.10272933E-01 0.12499979E+03</pdfrwt>
<totfact> 0.10446978E+04</totfact>
</mgrwt>
</event>
<event>
 5    1  0.3300771E-002  0.1250002E+03  0.7818608E-02  0.1235069E+00
          4   -1    0    0  501    0  0.00000000000E+00  0.00000000000E+00  0.23725627694E+02  0.23759594051E+02  0.12700000000E+01 0. -1.
         -4   -1    0    0    0  501 -0.00000000000E+00 -0.00000000000E+00 -0.16448909881E+03  0.16449400149E+03  0.12700000000E+01 0. -1.
         25    2    1    2    0    0  0.00000000000E+00  0.00000000000E+00 -0.14076347112E+03  0.18825359555E+03  0.12500024574E+03 0.  0.
    9000005    1    3    3    0    0  0.68918814656E+01 -0.44121903350E+02 -0.45454084751E+01  0.44898787551E+02  0.10000000000E+01 0.  0.
    9000005    1    3    3    0    0 -0.68918814656E+01  0.44121903350E+02 -0.13621806264E+03  0.14335480799E+03  0.10000000000E+01 0.  0.
<mgrwt>
<rscale>  0 0.12500025E+03</rscale>
<asrwt>0</asrwt>
<pdfrwt beam="1">  1        4 0.36530866E-02 0.12500025E+03</pdfrwt>
<pdfrwt beam="2">  1       -4 0.25309004E-01 0.12500025E+03</pdfrwt>
<totfact> 0.92151567E+03</totfact>
</mgrwt>
</event>
<event>
 5    1  0.3300771E-002  0.1250007E+03  0.7818608E-02  0.1235068E+00
          4   -1    0    0  501    0  0.00000000000E+00  0.00000000000E+00  0.24667817177E+03  0.24668144098E+03  0.12700000000E+01 0.  1.
         -4   -1    0    0    0  501 -0.00000000000E+00 -0.00000000000E+00 -0.15806747934E+02  0.15857685210E+02  0.12700000000E+01 0.  1.
         25    2    1    2    0    0  0.00000000000E+00  0.00000000000E+00  0.23087142383E+03  0.26253912619E+03  0.12500071376E+03 0.  0.
    9000005    1    3    3    0    0 -0.25839322524E+02 -0.47925151647E+02  0.17985724980E+03  0.18792051792E+03  0.10000000000E+01 0.  0.
    9000005    1    3    3    0    0  0.25839322524E+02  0.47925151647E+02  0.51014174030E+02  0.74618608275E+02  0.10000000000E+01 0.  0.
<mgrwt>
<rscale>  0 0.12500071E+03</rscale>
<asrwt>0</asrwt>
<pdfrwt beam="1">  1        4 0.37954656E-01 0.12500071E+03</pdfrwt>
<pdfrwt beam="2">  1       -4 0.24359772E-02 0.12500071E+03</pdfrwt>
<totfact> 0.80549766E+03</totfact>
</mgrwt>
</event>
<event>
 5    1  0.3300771E-002  0.1249808E+03  0.7818608E-02  0.1235099E+00
          4   -1    0    0  501    0  0.00000000000E+00  0.00000000000E+00  0.91760271498E+02  0.91769059739E+02  0.12700000000E+01 0. -1.
         -4   -1    0    0    0  501 -0.00000000000E+00 -0.00000000000E+00 -0.42536796644E+02  0.42555751300E+02  0.12700000000E+01 0. -1.
         25    2    1    2    0    0  0.00000000000E+00  0.00000000000E+00  0.49223474853E+02  0.13432481104E+03  0.12498081606E+03 0.  0.
    9000005    1    3    3    0    0 -0.28487241168E+02  0.21543392997E+02  0.79712736205E+02  0.87354227170E+02  0.10000000000E+01 0.  0.
    9000005    1    3    3    0    0  0.28487241168E+02 -0.21543392997E+02 -0.30489261352E+02  0.46970583869E+02  0.10000000000E+01 0.  0.
<mgrwt>
<rscale>  0 0.12498082E+03</rscale>
<asrwt>0</asrwt>
<pdfrwt beam="1">  1        4 0.14119099E-01 0.12498082E+03</pdfrwt>
<pdfrwt beam="2">  1       -4 0.65462567E-02 0.12498082E+03</pdfrwt>
<totfact> 0.10256759E+04</totfact>
</mgrwt>
</event>
<event>
 5    1  0.3300771E-002  0.1250000E+03  0.7818608E-02  0.1235069E+00
          4   -1    0    0  501    0  0.00000000000E+00  0.00000000000E+00  0.17026945166E+02  0.17074242639E+02  0.12700000000E+01 0.  1.
         -4   -1    0    0    0  501 -0.00000000000E+00 -0.00000000000E+00 -0.22904844451E+03  0.22905196535E+03  0.12700000000E+01 0.  1.
         25    2    1    2    0    0  0.00000000000E+00  0.00000000000E+00 -0.21202149934E+03  0.24612620799E+03  0.12499997631E+03 0.  0.
    9000005    1    3    3    0    0 -0.33557287567E+02  0.51649537425E+02 -0.85220926257E+02  0.10515404194E+03  0.10000000000E+01 0.  0.
    9000005    1    3    3    0    0  0.33557287567E+02 -0.51649537425E+02 -0.12680057309E+03  0.14097216605E+03  0.10000000000E+01 0.  0.
<mgrwt>
<rscale>  0 0.12499998E+03</rscale>
<asrwt>0</asrwt>
<pdfrwt beam="1">  1        4 0.26234393E-02 0.12499998E+03</pdfrwt>
<pdfrwt beam="2">  1       -4 0.35242129E-01 0.12499998E+03</pdfrwt>
<totfact> 0.82893399E+03</totfact>
</mgrwt>
</event>
<event>
 5    1  0.3300771E-002  0.1250058E+03  0.7818608E-02  0.1235060E+00
          4   -1    0    0  501    0  0.00000000000E+00  0.00000000000E+00  0.43388043432E+02  0.43406626371E+02  0.12700000000E+01 0. -1.
         -4   -1    0    0    0  501 -0.00000000000E+00 -0.00000000000E+00 -0.89996641410E+02  0.90005601854E+02  0.12700000000E+01 0. -1.
         25    2    1    2    0    0  0.00000000000E+00  0.00000000000E+00 -0.46608597978E+02  0.13341222822E+03  0.12500584480E+03 0.  0.
    9000005    1    3    3    0    0 -0.53480209466E+02  0.28624686730E+02 -0.72561471637E+01  0.61099567646E+02  0.10000000000E+01 0.  0.
    9000005    1    3    3    0    0  0.53480209466E+02 -0.28624686730E+02 -0.39352450814E+02  0.72312660578E+02  0.10000000000E+01 0.  0.
<mgrwt>
<rscale>  0 0.12500584E+03</rscale>
<asrwt>0</asrwt>
<pdfrwt beam="1">  1        4 0.66772023E-02 0.12500584E+03</pdfrwt>
<pdfrwt beam="2">  1       -4 0.13847756E-01 0.12500584E+03</pdfrwt>
<totfact> 0.10270292E+04</totfact>
</mgrwt>
</event>
<event>
 5    1  0.3300771E-002  0.1249953E+03  0.7818608E-02  0.1235077E+00
         -4   -1    0    0    0  501 -0.00000000000E+00  0.00000000000E+00  0.88418561967E+02  0.88427682319E+02  0.12700000000E+01 0.  1.
          4   -1    0    0  501    0  0.00000000000E+00 -0.00000000000E+00 -0.44155217811E+02  0.44173478015E+02  0.12700000000E+01 0.  1.
         25    2    1    2    0    0  0.00000000000E+00  0.00000000000E+00  0.44263344156E+02  0.13260116033E+03  0.12499529625E+03 0.  0.
    9000005    1    3    3    0    0 -0.43755850329E+02  0.35554766726E+02  0.50720330827E+02  0.75843706622E+02  0.10000000000E+01 0.  0.
    9000005    1    3    3    0    0  0.43755850329E+02 -0.35554766726E+02 -0.64569866708E+01  0.56757453711E+02  0.10000000000E+01 0.  0.
<mgrwt>
<rscale>  0 0.12499530E+03</rscale>
<asrwt>0</asrwt>
<pdfrwt beam="2">  1        4 0.67952166E-02 0.12499530E+03</pdfrwt>
<pdfrwt beam="1">  1       -4 0.13604962E-01 0.12499530E+03</pdfrwt>
<totfact> 0.10289975E+04</totfact>
</mgrwt>
</event>
<event>
 5    1  0.3300771E-002  0.1250006E+03  0.7818608E-02  0.1235068E+00
          4   -1    0    0  501    0  0.00000000000E+00  0.00000000000E+00  0.41891607672E+03  0.41891800180E+03  0.12700000000E+01 0.  1.
         -4   -1    0    0    0  501 -0.00000000000E+00 -0.00000000000E+00 -0.92795550044E+01  0.93660579264E+01  0.12700000000E+01 0.  1.
         25    2    1    2    0    0  0.00000000000E+00  0.00000000000E+00  0.40963652171E+03  0.42828405973E+03  0.12500062358E+03 0.  0.
    9000005    1    3    3    0    0 -0.28475917727E+02  0.54743350758E+02  0.23866311454E+03  0.24651327466E+03  0.10000000000E+01 0.  0.
    9000005    1    3    3    0    0  0.28475917727E+02 -0.54743350758E+02  0.17097340717E+03  0.18177078506E+03  0.10000000000E+01 0.  0.
<mgrwt>
<rscale>  0 0.12500062E+03</rscale>
<asrwt>0</asrwt>
<pdfrwt beam="1">  1        4 0.64455425E-01 0.12500062E+03</pdfrwt>
<pdfrwt beam="2">  1       -4 0.14344261E-02 0.12500062E+03</pdfrwt>
<totfact> 0.61890989E+03</totfact>
</mgrwt>
</event>
<event>
 5    1  0.3300771E-002  0.1250213E+03  0.7818608E-02  0.1235036E+00
         -4   -1    0    0    0  501 -0.00000000000E+00  0.00000000000E+00  0.23805611894E+04  0.23805615282E+04  0.12700000000E+01 0. -1.
          4   -1    0    0  501    0  0.00000000000E+00 -0.00000000000E+00 -0.13954141598E+01  0.18868176058E+01  0.12700000000E+01 0. -1.
         25    2    1    2    0    0  0.00000000000E+00  0.00000000000E+00  0.23791657753E+04  0.23824483458E+04  0.12502133494E+03 0.  0.
    9000005    1    3    3    0    0  0.26849083591E+02 -0.13755758044E+02  0.22327304148E+04  0.22329344368E+04  0.10000000000E+01 0.  0.
    9000005    1    3    3    0    0 -0.26849083591E+02  0.13755758044E+02  0.14643536050E+03  0.14951390897E+03  0.10000000000E+01 0.  0.
<mgrwt>
<rscale>  0 0.12502133E+03</rscale>
<asrwt>0</asrwt>
<pdfrwt beam="2">  1        4 0.25250724E-03 0.12502133E+03</pdfrwt>
<pdfrwt beam="1">  1       -4 0.36627538E+00 0.12502133E+03</pdfrwt>
<totfact> 0.56572546E+02</totfact>
</mgrwt>
</event>
<event>
 5    1  0.3300771E-002  0.1250026E+03  0.7818608E-02  0.1235065E+00
         -4   -1    0    0    0  501 -0.00000000000E+00  0.00000000000E+00  0.55385938236E+01  0.56823341632E+01  0.12700000000E+01 0.  1.
          4   -1    0    0  501    0  0.00000000000E+00 -0.00000000000E+00 -0.69612831669E+03  0.69612947516E+03  0.12700000000E+01 0.  1.
         25    2    1    2    0    0  0.00000000000E+00  0.00000000000E+00 -0.69058972286E+03  0.70181180933E+03  0.12500260152E+03 0.  0.
    9000005    1    3    3    0    0  0.22291806323E+02 -0.45646321701E+02 -0.54965367872E+03  0.55199699080E+03  0.10000000000E+01 0.  0.
    9000005    1    3    3    0    0 -0.22291806323E+02  0.45646321701E+02 -0.14093604414E+03  0.14981481853E+03  0.10000000000E+01 0.  0.
<mgrwt>
<rscale>  0 0.12500260E+03</rscale>
<asrwt>0</asrwt>
<pdfrwt beam="2">  1        4 0.10710774E+00 0.12500260E+03</pdfrwt>
<pdfrwt beam="1">  1       -4 0.86323797E-03 0.12500260E+03</pdfrwt>
<totfact> 0.42988796E+03</totfact>
</mgrwt>
</event>
<event>
 5    1  0.3300771E-002  0.1249785E+03  0.7818608E-02  0.1235103E+00
         -4   -1    0    0    0  501 -0.00000000000E+00  0.00000000000E+00  0.71120284768E+02  0.71131623105E+02  0.12700000000E+01 0.  1.
          4   -1    0    0  501    0  0.00000000000E+00 -0.00000000000E+00 -0.54882570316E+02  0.54897262450E+02  0.12700000000E+01 0.  1.
         25    2    1    2    0    0  0.00000000000E+00  0.00000000000E+00  0.16237714452E+02  0.12602888555E+03  0.12497846464E+03 0.  0.
    9000005    1    3    3    0    0 -0.21921379952E+01 -0.17250356883E+02  0.68635950476E+02  0.70811538462E+02  0.10000000000E+01 0.  0.
    9000005    1    3    3    0    0  0.21921379952E+01  0.17250356883E+02 -0.52398236024E+02  0.55217347093E+02  0.10000000000E+01 0.  0.
<mgrwt>
<rscale>  0 0.12497846E+03</rscale>
<asrwt>0</asrwt>
<pdfrwt beam="2">  1        4 0.84454748E-02 0.12497846E+03</pdfrwt>
<pdfrwt beam="1">  1       -4 0.10943585E-01 0.12497846E+03</pdfrwt>
<totfact> 0.10435395E+04</totfact>
</mgrwt>
</event>
<event>
 5    1  0.3300771E-002  0.1249871E+03  0.7818608E-02  0.1235089E+00
          4   -1    0    0  501    0  0.00000000000E+00  0.00000000000E+00  0.18611338625E+02  0.18654619412E+02  0.12700000000E+01 0. -1.
         -4   -1    0    0    0  501 -0.00000000000E+00 -0.00000000000E+00 -0.20955329344E+03  0.20955714183E+03  0.12700000000E+01 0. -1.
         25    2    1    2    0    0  0.00000000000E+00  0.00000000000E+00 -0.19094195482E+03  0.22821176124E+03  0.12498711078E+03 0.  0.
    9000005    1    3    3    0    0  0.27536850324E+02  0.24880463106E+02 -0.36828540850E+01  0.37307894397E+02  0.10000000000E+01 0.  0.
    9000005    1    3    3    0    0 -0.27536850324E+02 -0.24880463106E+02 -0.18725910073E+03  0.19090386685E+03  0.10000000000E+01 0.  0.
<mgrwt>
<rscale>  0 0.12498711E+03</rscale>
<asrwt>0</asrwt>
<pdfrwt beam="1">  1        4 0.28669083E-02 0.12498711E+03</pdfrwt>
<pdfrwt beam="2">  1       -4 0.32242592E-01 0.12498711E+03</pdfrwt>
<totfact> 0.85609562E+03</totfact>
</mgrwt>
</event>
<event>
 5    1  0.3300771E-002  0.1250145E+03  0.7818608E-02  0.1235047E+00
         -4   -1    0    0    0  501 -0.00000000000E+00  0.00000000000E+00  0.11324287963E+02  0.11395279631E+02  0.12700000000E+01 0.  1.
          4   -1    0    0  501    0  0.00000000000E+00 -0.00000000000E+00 -0.34387442393E+03  0.34387676911E+03  0.12700000000E+01 0.  1.
         25    2    1    2    0    0  0.00000000000E+00  0.00000000000E+00 -0.33255013597E+03  0.35527204874E+03  0.12501454189E+03 0.  0.
    9000005    1    3    3    0    0 -0.40761945326E+01 -0.56032968633E+02 -0.88455699813E+02  0.10479370098E+03  0.10000000000E+01 0.  0.
    9000005    1    3    3    0    0  0.40761945326E+01  0.56032968633E+02 -0.24409443615E+03  0.25047834776E+03  0.10000000000E+01 0.  0.
<mgrwt>
<rscale>  0 0.12501454E+03</rscale>
<asrwt>0</asrwt>
<pdfrwt beam="2">  1        4 0.52909391E-01 0.12501454E+03</pdfrwt>
<pdfrwt beam="1">  1       -4 0.17478397E-02 0.12501454E+03</pdfrwt>
<totfact> 0.69126195E+03</totfact>
</mgrwt>
</event>
<event>
 5    1  0.3300771E-002  0.1249925E+03  0.7818608E-02  0.1235081E+00
         -4   -1    0    0    0  501 -0.00000000000E+00  0.00000000000E+00  0.40828871943E+02  0.40848619122E+02  0.12700000000E+01 0. -1.
          4   -1    0    0  501    0  0.00000000000E+00 -0.00000000000E+00 -0.95615077448E+02  0.95623511415E+02  0.12700000000E+01 0. -1.
         25    2    1    2    0    0  0.00000000000E+00  0.00000000000E+00 -0.54786205505E+02  0.13647213054E+03  0.12499245617E+03 0.  0.
    9000005    1    3    3    0    0  0.28471863001E+02  0.47406582076E+02 -0.59164560045E+02  0.80990593109E+02  0.10000000000E+01 0.  0.
    9000005    1    3    3    0    0 -0.28471863001E+02 -0.47406582076E+02  0.43783545400E+01  0.55481537428E+02  0.10000000000E+01 0.  0.
<mgrwt>
<rscale>  0 0.12499246E+03</rscale>
<asrwt>0</asrwt>
<pdfrwt beam="2">  1        4 0.14712180E-01 0.12499246E+03</pdfrwt>
<pdfrwt beam="1">  1       -4 0.62835327E-02 0.12499246E+03</pdfrwt>
<totfact> 0.10208871E+04</totfact>
</mgrwt>
</event>
<event>
 5    1  0.3300771E-002  0.1249994E+03  0.7818608E-02  0.1235070E+00
          4   -1    0    0  501    0  0.00000000000E+00  0.00000000000E+00  0.12444700927E+02  0.12509335761E+02  0.12700000000E+01 0. -1.
         -4   -1    0    0    0  501 -0.00000000000E+00 -0.00000000000E+00 -0.31300683165E+03  0.31300940810E+03  0.12700000000E+01 0. -1.
         25    2    1    2    0    0  0.00000000000E+00  0.00000000000E+00 -0.30056213072E+03  0.32551874386E+03  0.12499943272E+03 0.  0.
    9000005    1    3    3    0    0 -0.20817328610E+02  0.36236262664E+02 -0.29284561985E+02  0.51039332607E+02  0.10000000000E+01 0.  0.
    9000005    1    3    3    0    0  0.20817328610E+02 -0.36236262664E+02 -0.27127756874E+03  0.27447941125E+03  0.10000000000E+01 0.  0.
<mgrwt>
<rscale>  0 0.12499943E+03</rscale>
<asrwt>0</asrwt>
<pdfrwt beam="1">  1        4 0.19197397E-02 0.12499943E+03</pdfrwt>
<pdfrwt beam="2">  1       -4 0.48160062E-01 0.12499943E+03</pdfrwt>
<totfact> 0.72505430E+03</totfact>
</mgrwt>
</event>
<event>
 5    1  0.3300771E-002  0.1250003E+03  0.7818608E-02  0.1235069E+00
          4   -1    0    0  501    0  0.00000000000E+00  0.00000000000E+00  0.51691961605E+01  0.53229210914E+01  0.12700000000E+01 0.  1.
         -4   -1    0    0    0  501 -0.00000000000E+00 -0.00000000000E+00 -0.74445605033E+03  0.74445713360E+03  0.12700000000E+01 0.  1.
         25    2    1    2    0    0  0.00000000000E+00  0.00000000000E+00 -0.73928685417E+03  0.74978005469E+03  0.12500031068E+03 0.  0.
    9000005    1    3    3    0    0  0.11513164730E+02 -0.56017410561E+02 -0.52076611769E+03  0.52389775012E+03  0.10000000000E+01 0.  0.
    9000005    1    3    3    0    0 -0.11513164730E+02  0.56017410561E+02 -0.21852073648E+03  0.22588230457E+03  0.10000000000E+01 0.  0.
<mgrwt>
<rscale>  0 0.12500031E+03</rscale>
<asrwt>0</asrwt>
<pdfrwt beam="1">  1        4 0.80716986E-03 0.12500031E+03</pdfrwt>
<pdfrwt beam="2">  1       -4 0.11454352E+00 0.12500031E+03</pdfrwt>
<totfact> 0.40584406E+03</totfact>
</mgrwt>
</event>
<event>
 5    1  0.3300771E-002  0.1250013E+03  0.7818608E-02  0.1235067E+00
         -4   -1    0    0    0  501 -0.00000000000E+00  0.00000000000E+00  0.19730457417E+02  0.19771288524E+02  0.12700000000E+01 0.  1.
          4   -1    0    0  501    0  0.00000000000E+00 -0.00000000000E+00 -0.19773722379E+03  0.19774130214E+03  0.12700000000E+01 0.  1.
         25    2    1    2    0    0  0.00000000000E+00  0.00000000000E+00 -0.17800676637E+03  0.21751259067E+03  0.12500127288E+03 0.  0.
    9000005    1    3    3    0    0 -0.27886909757E+00 -0.31363348361E+02  0.50511563032E+01  0.31784454823E+02  0.10000000000E+01 0.  0.
    9000005    1    3    3    0    0  0.27886909757E+00  0.31363348361E+02 -0.18305792268E+03  0.18572813584E+03  0.10000000000E+01 0.  0.
<mgrwt>
<rscale>  0 0.12500127E+03</rscale>
<asrwt>0</asrwt>
<pdfrwt beam="2">  1        4 0.30424565E-01 0.12500127E+03</pdfrwt>
<pdfrwt beam="1">  1       -4 0.30389097E-02 0.12500127E+03</pdfrwt>
<totfact> 0.87261005E+03</totfact>
</mgrwt>
</event>
<event>
 5    1  0.3300771E-002  0.1249997E+03  0.7818608E-02  0.1235070E+00
          4   -1    0    0  501    0  0.00000000000E+00  0.00000000000E+00  0.48836406652E+03  0.48836571785E+03  0.12700000000E+01 0. -1.
         -4   -1    0    0    0  501 -0.00000000000E+00 -0.00000000000E+00 -0.79465166207E+01  0.80473614560E+01  0.12700000000E+01 0. -1.
         25    2    1    2    0    0  0.00000000000E+00  0.00000000000E+00  0.48041754990E+03  0.49641307931E+03  0.12499969221E+03 0.  0.
    9000005    1    3    3    0    0  0.32655976464E+02  0.46332190939E+02  0.34468877001E+03  0.34931995776E+03  0.10000000000E+01 0.  0.
    9000005    1    3    3    0    0 -0.32655976464E+02 -0.46332190939E+02  0.13572877989E+03  0.14709312155E+03  0.10000000000E+01 0.  0.
<mgrwt>
<rscale>  0 0.12499969E+03</rscale>
<asrwt>0</asrwt>
<pdfrwt beam="1">  1        4 0.75140845E-01 0.12499969E+03</pdfrwt>
<pdfrwt beam="2">  1       -4 0.12304249E-02 0.12499969E+03</pdfrwt>
<totfact> 0.56144110E+03</totfact>
</mgrwt>
</event>
<event>
 5    1  0.3300771E-002  0.1249969E+03  0.7818608E-02  0.1235074E+00
         -4   -1    0    0    0  501 -0.00000000000E+00  0.00000000000E+00  0.61959466276E+01  0.63247651823E+01  0.12700000000E+01 0.  1.
          4   -1    0    0  501    0  0.00000000000E+00 -0.00000000000E+00 -0.62380528499E+03  0.62380657778E+03  0.12700000000E+01 0.  1.
         25    2    1    2    0    0  0.00000000000E+00  0.00000000000E+00 -0.61760933836E+03  0.63013134296E+03  0.12499685816E+03 0.  0.
    9000005    1    3    3    0    0 -0.53219015964E+02 -0.31652481273E+02 -0.26635376219E+03  0.27345835124E+03  0.10000000000E+01 0.  0.
    9000005    1    3    3    0    0  0.53219015964E+02  0.31652481273E+02 -0.35125557617E+03  0.35667299172E+03  0.10000000000E+01 0.  0.
<mgrwt>
<rscale>  0 0.12499686E+03</rscale>
<asrwt>0</asrwt>
<pdfrwt beam="2">  1        4 0.95980003E-01 0.12499686E+03</pdfrwt>
<pdfrwt beam="1">  1       -4 0.96323162E-03 0.12499686E+03</pdfrwt>
<totfact> 0.47022500E+03</totfact>
</mgrwt>
</event>
<event>
 5    1  0.3300771E-002  0.1250006E+03  0.7818608E-02  0.1235068E+00
         -4   -1    0    0    0  501 -0.00000000000E+00  0.00000000000E+00  0.82442268008E+03  0.82442365827E+03  0.12700000000E+01 0. -1.
          4   -1    0    0  501    0  0.00000000000E+00 -0.00000000000E+00 -0.46521132010E+01  0.48223497628E+01  0.12700000000E+01 0. -1.
         25    2    1    2    0    0  0.00000000000E+00  0.00000000000E+00  0.81977056687E+03  0.82924600804E+03  0.12500063813E+03 0.  0.
    9000005    1    3    3    0    0  0.43465348047E+02 -0.35955499958E+02  0.58829438631E+03  0.59099350201E+03  0.10000000000E+01 0.  0.
    9000005    1    3    3    0    0 -0.43465348047E+02  0.35955499958E+02  0.23147618057E+03  0.23825250603E+03  0.10000000000E+01 0.  0.
<mgrwt>
<rscale>  0 0.12500064E+03</rscale>
<asrwt>0</asrwt>
<pdfrwt beam="2">  1        4 0.72887971E-03 0.12500064E+03</pdfrwt>
<pdfrwt beam="1">  1       -4 0.12684749E+00 0.12500064E+03</pdfrwt>
<totfact> 0.36991428E+03</totfact>
</mgrwt>
</event>
<event>
 5    1  0.3300771E-002  0.1250019E+03  0.7818608E-02  0.1235066E+00
         -4   -1    0    0    0  501 -0.00000000000E+00  0.00000000000E+00  0.51021299126E+01  0.52578160528E+01  0.12700000000E+01 0. -1.
          4   -1    0    0  501    0  0.00000000000E+00 -0.00000000000E+00 -0.75397301154E+03  0.75397408114E+03  0.12700000000E+01 0. -1.
         25    2    1    2    0    0  0.00000000000E+00  0.00000000000E+00 -0.74887088163E+03  0.75923189719E+03  0.12500190545E+03 0.  0.
    9000005    1    3    3    0    0 -0.49792593146E+02 -0.10430336186E+02 -0.15399259351E+03  0.16218142033E+03  0.10000000000E+01 0.  0.
    9000005    1    3    3    0    0  0.49792593146E+02  0.10430336186E+02 -0.59487828812E+03  0.59705047686E+03  0.10000000000E+01 0.  0.
<mgrwt>
<rscale>  0 0.12500191E+03</rscale>
<asrwt>0</asrwt>
<pdfrwt beam="2">  1        4 0.11600782E+00 0.12500191E+03</pdfrwt>
<pdfrwt beam="1">  1       -4 0.79700179E-03 0.12500191E+03</pdfrwt>
<totfact> 0.40134776E+03</totfact>
</mgrwt>
</event>
<event>
 5    1  0.3300771E-002  0.1249997E+03  0.7818608E-02  0.1235070E+00
         -4   -1    0    0    0  501 -0.00000000000E+00  0.00000000000E+00  0.76445738687E+03  0.76445844180E+03  0.12700000000E+01 0.  1.
          4   -1    0    0  501    0  0.00000000000E+00 -0.00000000000E+00 -0.50298187466E+01  0.51876754547E+01  0.12700000000E+01 0.  1.
         25    2    1    2    0    0  0.00000000000E+00  0.00000000000E+00  0.75942756812E+03  0.76964611726E+03  0.12499965832E+03 0.  0.
    9000005    1    3    3    0    0 -0.24668248188E+02 -0.49372881936E+02  0.19925206750E+03  0.20675732235E+03  0.10000000000E+01 0.  0.
    9000005    1    3    3    0    0  0.24668248188E+02  0.49372881936E+02  0.56017550062E+03  0.56288879491E+03  0.10000000000E+01 0.  0.
<mgrwt>
<rscale>  0 0.12499966E+03</rscale>
<asrwt>0</asrwt>
<pdfrwt beam="2">  1        4 0.78604259E-03 0.12499966E+03</pdfrwt>
<pdfrwt beam="1">  1       -4 0.11762100E+00 0.12499966E+03</pdfrwt>
<totfact> 0.39651930E+03</totfact>
</mgrwt>
</event>
<event>
 5    1  0.3300771E-002  0.1249992E+03  0.7818608E-02  0.1235071E+00
          4   -1    0    0  501    0  0.00000000000E+00  0.00000000000E+00  0.34695742195E+03  0.34695974629E+03  0.12700000000E+01 0. -1.
         -4   -1    0    0    0  501 -0.00000000000E+00 -0.00000000000E+00 -0.11220250587E+02  0.11291896352E+02  0.12700000000E+01 0. -1.
         25    2    1    2    0    0  0.00000000000E+00  0.00000000000E+00  0.33573717136E+03  0.35825164264E+03  0.12499916488E+03 0.  0.
    9000005    1    3    3    0    0  0.22282199384E+02 -0.56611647392E+02  0.12695124176E+03  0.14077994465E+03  0.10000000000E+01 0.  0.
    9000005    1    3    3    0    0 -0.22282199384E+02  0.56611647392E+02  0.20878592960E+03  0.21747169800E+03  0.10000000000E+01 0.  0.
<mgrwt>
<rscale>  0 0.12499916E+03</rscale>
<asrwt>0</asrwt>
<pdfrwt beam="1">  1        4 0.53383752E-01 0.12499916E+03</pdfrwt>
<pdfrwt beam="2">  1       -4 0.17318825E-02 0.12499916E+03</pdfrwt>
<totfact> 0.68827485E+03</totfact>
</mgrwt>
</event>
<event>
 5    1  0.3300771E-002  0.1250000E+03  0.7818608E-02  0.1235069E+00
         -4   -1    0    0    0  501 -0.00000000000E+00  0.00000000000E+00  0.10191921774E+03  0.10192713008E+03  0.12700000000E+01 0.  1.
          4   -1    0    0  501    0  0.00000000000E+00 -0.00000000000E+00 -0.38306971351E+02  0.38328017873E+02  0.12700000000E+01 0.  1.
         25    2    1    2    0    0  0.00000000000E+00  0.00000000000E+00  0.63612246393E+02  0.14025514795E+03  0.12499995454E+03 0.  0.
    9000005    1    3    3    0    0  0.59746714958E+02  0.43513681759E+01  0.51772247379E+02  0.79183141841E+02  0.10000000000E+01 0.  0.
    9000005    1    3    3    0    0 -0.59746714958E+02 -0.43513681759E+01  0.11839999014E+02  0.61072006107E+02  0.10000000000E+01 0.  0.
<mgrwt>
<rscale>  0 0.12499995E+03</rscale>
<asrwt>0</asrwt>
<pdfrwt beam="2">  1        4 0.58956079E-02 0.12499995E+03</pdfrwt>
<pdfrwt beam="1">  1       -4 0.15682107E-01 0.12499995E+03</pdfrwt>
<totfact> 0.10128311E+04</totfact>
</mgrwt>
</event>
<event>
 5    1  0.3300771E-002  0.1250140E+03  0.7818608E-02  0.1235047E+00
         -4   -1    0    0    0  501 -0.00000000000E+00  0.00000000000E+00  0.20231312869E+04  0.20231316855E+04  0.12700000000E+01 0.  1.
          4   -1    0    0  501    0  0.00000000000E+00 -0.00000000000E+00 -0.17219918599E+01  0.21396625822E+01  0.12700000000E+01 0.  1.
         25    2    1    2    0    0  0.00000000000E+00  0.00000000000E+00  0.20214092950E+04  0.20252713481E+04  0.12501398061E+03 0.  0.
    9000005    1    3    3    0    0 -0.39238664542E+01 -0.40796983742E+02  0.17751029585E+04  0.17755763300E+04  0.10000000000E+01 0.  0.
    9000005    1    3    3    0    0  0.39238664542E+01  0.40796983742E+02  0.24630633656E+03  0.24969501805E+03  0.10000000000E+01 0.  0.
<mgrwt>
<rscale>  0 0.12501398E+03</rscale>
<asrwt>0</asrwt>
<pdfrwt beam="2">  1        4 0.29707932E-03 0.12501398E+03</pdfrwt>
<pdfrwt beam="1">  1       -4 0.31128490E+00 0.12501398E+03</pdfrwt>
<totfact> 0.95318526E+02</totfact>
</mgrwt>
</event>
<event>
 5    1  0.3300771E-002  0.1249986E+03  0.7818608E-02  0.1235072E+00
          4   -1    0    0  501    0  0.00000000000E+00  0.00000000000E+00  0.11811877312E+03  0.11812560037E+03  0.12700000000E+01 0.  1.
         -4   -1    0    0    0  501 -0.00000000000E+00 -0.00000000000E+00 -0.33049779860E+02  0.33074171929E+02  0.12700000000E+01 0.  1.
         25    2    1    2    0    0  0.00000000000E+00  0.00000000000E+00  0.85068993262E+02  0.15119977230E+03  0.12499855011E+03 0.  0.
    9000005    1    3    3    0    0  0.26338198974E+01  0.36785126732E+02  0.10355792595E+03  0.10993328241E+03  0.10000000000E+01 0.  0.
    9000005    1    3    3    0    0 -0.26338198974E+01 -0.36785126732E+02 -0.18488932684E+02  0.41266489889E+02  0.10000000000E+01 0.  0.
<mgrwt>
<rscale>  0 0.12499855E+03</rscale>
<asrwt>0</asrwt>
<pdfrwt beam="1">  1        4 0.18174520E-01 0.12499855E+03</pdfrwt>
<pdfrwt beam="2">  1       -4 0.50869830E-02 0.12499855E+03</pdfrwt>
<totfact> 0.99068309E+03</totfact>
</mgrwt>
</event>
<event>
 5    1  0.3300771E-002  0.1250001E+03  0.7818608E-02  0.1235069E+00
         -4   -1    0    0    0  501 -0.00000000000E+00  0.00000000000E+00  0.20177176549E+03  0.20177576229E+03  0.12700000000E+01 0. -1.
          4   -1    0    0  501    0  0.00000000000E+00 -0.00000000000E+00 -0.19334758219E+02  0.19376423184E+02  0.12700000000E+01 0. -1.
         25    2    1    2    0    0  0.00000000000E+00  0.00000000000E+00  0.18243700727E+03  0.22115218547E+03  0.12500011008E+03 0.  0.
    9000005    1    3    3    0    0  0.42001365457E+02  0.35244140706E+00  0.17308213316E+03  0.17810857288E+03  0.10000000000E+01 0.  0.
    9000005    1    3    3    0    0 -0.42001365457E+02 -0.35244140706E+00  0.93548741056E+01  0.43043612589E+02  0.10000000000E+01 0.  0.
<mgrwt>
<rscale>  0 0.12500011E+03</rscale>
<asrwt>0</asrwt>
<pdfrwt beam="2">  1        4 0.29780907E-02 0.12500011E+03</pdfrwt>
<pdfrwt beam="1">  1       -4 0.31045322E-01 0.12500011E+03</pdfrwt>
<totfact> 0.86686146E+03</totfact>
</mgrwt>
</event>
<event>
 5    1  0.3300771E-002  0.1250383E+03  0.7818608E-02  0.1235009E+00
         -4   -1    0    0    0  501 -0.00000000000E+00  0.00000000000E+00  0.37940933875E+02  0.37962183331E+02  0.12700000000E+01 0. -1.
          4   -1    0    0  501    0  0.00000000000E+00 -0.00000000000E+00 -0.10296512559E+03  0.10297295756E+03  0.12700000000E+01 0. -1.
         25    2    1    2    0    0  0.00000000000E+00  0.00000000000E+00 -0.65024191717E+02  0.14093514089E+03  0.12503826786E+03 0.  0.
    9000005    1    3    3    0    0 -0.57560562411E+02 -0.74525524075E+01 -0.58677272882E+02  0.82539573753E+02  0.10000000000E+01 0.  0.
    9000005    1    3    3    0    0  0.57560562411E+02  0.74525524075E+01 -0.63469188349E+01  0.58395567136E+02  0.10000000000E+01 0.  0.
<mgrwt>
<rscale>  0 0.12503827E+03</rscale>
<asrwt>0</asrwt>
<pdfrwt beam="2">  1        4 0.15843025E-01 0.12503827E+03</pdfrwt>
<pdfrwt beam="1">  1       -4 0.58393038E-02 0.12503827E+03</pdfrwt>
<totfact> 0.10105527E+04</totfact>
</mgrwt>
</event>
<event>
 5    1  0.3300771E-002  0.1249988E+03  0.7818608E-02  0.1235071E+00
          4   -1    0    0  501    0  0.00000000000E+00  0.00000000000E+00  0.51937040677E+01  0.53467244125E+01  0.12700000000E+01 0.  1.
         -4   -1    0    0    0  501 -0.00000000000E+00 -0.00000000000E+00 -0.74102649179E+03  0.74102758008E+03  0.12700000000E+01 0.  1.
         25    2    1    2    0    0  0.00000000000E+00  0.00000000000E+00 -0.73583278772E+03  0.74637430449E+03  0.12499884365E+03 0.  0.
    9000005    1    3    3    0    0 -0.47522753865E+02  0.14904423425E+02 -0.59328881751E+03  0.59537649849E+03  0.10000000000E+01 0.  0.
    9000005    1    3    3    0    0  0.47522753865E+02 -0.14904423425E+02 -0.14254397021E+03  0.15099780600E+03  0.10000000000E+01 0.  0.
<mgrwt>
<rscale>  0 0.12499884E+03</rscale>
<asrwt>0</asrwt>
<pdfrwt beam="1">  1        4 0.81088649E-03 0.12499884E+03</pdfrwt>
<pdfrwt beam="2">  1       -4 0.11401585E+00 0.12499884E+03</pdfrwt>
<totfact> 0.40749210E+03</totfact>
</mgrwt>
</event>
<event>
 4    1  0.3300771E-002  0.1249218E+03  0.7818608E-02  0.1235192E+00
         -4   -1    0    0    0  501 -0.00000000000E+00  0.00000000000E+00  0.26631342660E+02  0.26661607451E+02  0.12700000000E+01 0.  1.
          4   -1    0    0  501    0  0.00000000000E+00 -0.00000000000E+00 -0.14637905276E+03  0.14638456198E+03  0.12700000000E+01 0.  1.
    9000005    1    1    2    0    0  0.51029205851E+02  0.88041885788E+01 -0.11512024542E+02  0.53056764841E+02  0.10000000000E+01 0.  0.
    9000005    1    1    2    0    0 -0.51029205851E+02 -0.88041885788E+01 -0.10823568556E+03  0.11998940459E+03  0.10000000000E+01 0.  0.
<mgrwt>
<rscale>  0 0.12492183E+03</rscale>
<asrwt>0</asrwt>
<pdfrwt beam="2">  1        4 0.22522606E-01 0.12492183E+03</pdfrwt>
<pdfrwt beam="1">  1       -4 0.40998816E-02 0.12492183E+03</pdfrwt>
<totfact> 0.95050527E+03</totfact>
</mgrwt>
</event>
<event>
 5    1  0.3300771E-002  0.1250019E+03  0.7818608E-02  0.1235066E+00
          4   -1    0    0  501    0  0.00000000000E+00  0.00000000000E+00  0.36076853828E+02  0.36099200575E+02  0.12700000000E+01 0. -1.
         -4   -1    0    0    0  501 -0.00000000000E+00 -0.00000000000E+00 -0.10821943793E+03  0.10822688966E+03  0.12700000000E+01 0. -1.
         25    2    1    2    0    0  0.00000000000E+00  0.00000000000E+00 -0.72142584103E+02  0.14432609024E+03  0.12500187151E+03 0.  0.
    9000005    1    3    3    0    0 -0.42376530686E+02  0.77273619049E+01  0.16203585824E+02  0.46033017156E+02  0.10000000000E+01 0.  0.
    9000005    1    3    3    0    0  0.42376530686E+02 -0.77273619049E+01 -0.88346169927E+02  0.98293073081E+02  0.10000000000E+01 0.  0.
<mgrwt>
<rscale>  0 0.12500187E+03</rscale>
<asrwt>0</asrwt>
<pdfrwt beam="1">  1        4 0.55525774E-02 0.12500187E+03</pdfrwt>
<pdfrwt beam="2">  1       -4 0.16651436E-01 0.12500187E+03</pdfrwt>
<totfact> 0.10044275E+04</totfact>
</mgrwt>
</event>
<event>
 5    1  0.3300771E-002  0.1249959E+03  0.7818608E-02  0.1235076E+00
          4   -1    0    0  501    0  0.00000000000E+00  0.00000000000E+00  0.91550635706E+02  0.91559444069E+02  0.12700000000E+01 0.  1.
         -4   -1    0    0    0  501 -0.00000000000E+00 -0.00000000000E+00 -0.42644552003E+02  0.42663458785E+02  0.12700000000E+01 0.  1.
         25    2    1    2    0    0  0.00000000000E+00  0.00000000000E+00  0.48906083704E+02  0.13422290285E+03  0.12499593044E+03 0.  0.
    9000005    1    3    3    0    0  0.51434888388E+02 -0.35488457548E+02  0.24594256661E+02  0.67162905114E+02  0.10000000000E+01 0.  0.
    9000005    1    3    3    0    0 -0.51434888388E+02  0.35488457548E+02  0.24311827043E+02  0.67059997740E+02  0.10000000000E+01 0.  0.
<mgrwt>
<rscale>  0 0.12499593E+03</rscale>
<asrwt>0</asrwt>
<pdfrwt beam="1">  1        4 0.14086845E-01 0.12499593E+03</pdfrwt>
<pdfrwt beam="2">  1       -4 0.65628323E-02 0.12499593E+03</pdfrwt>
<totfact> 0.10255417E+04</totfact>
</mgrwt>
</event>
<event>
 5    1  0.3300771E-002  0.1249995E+03  0.7818608E-02  0.1235070E+00
          4   -1    0    0  501    0  0.00000000000E+00  0.00000000000E+00  0.22800815233E+03  0.22801168924E+03  0.12700000000E+01 0. -1.
         -4   -1    0    0    0  501 -0.00000000000E+00 -0.00000000000E+00 -0.17104723492E+02  0.17151806486E+02  0.12700000000E+01 0. -1.
         25    2    1    2    0    0  0.00000000000E+00  0.00000000000E+00  0.21090342884E+03  0.24516349573E+03  0.12499953336E+03 0.  0.
    9000005    1    3    3    0    0  0.43070737648E+02 -0.15474953620E+02  0.18890926837E+03  0.19437663004E+03  0.10000000000E+01 0.  0.
    9000005    1    3    3    0    0 -0.43070737648E+02  0.15474953620E+02  0.21994160471E+02  0.50786865683E+02  0.10000000000E+01 0.  0.
<mgrwt>
<rscale>  0 0.12499953E+03</rscale>
<asrwt>0</asrwt>
<pdfrwt beam="1">  1        4 0.35082070E-01 0.12499953E+03</pdfrwt>
<pdfrwt beam="2">  1       -4 0.26353899E-02 0.12499953E+03</pdfrwt>
<totfact> 0.83035180E+03</totfact>
</mgrwt>
</event>
<event>
 5    1  0.3300771E-002  0.1250172E+03  0.7818608E-02  0.1235042E+00
         -4   -1    0    0    0  501 -0.00000000000E+00  0.00000000000E+00  0.16504506925E+03  0.16504995542E+03  0.12700000000E+01 0. -1.
          4   -1    0    0  501    0  0.00000000000E+00 -0.00000000000E+00 -0.23652015355E+02  0.23686087274E+02  0.12700000000E+01 0. -1.
         25    2    1    2    0    0  0.00000000000E+00  0.00000000000E+00  0.14139305390E+03  0.18873604269E+03  0.12501719130E+03 0.  0.
    9000005    1    3    3    0    0  0.26172697071E+01 -0.62036519177E+02  0.59921094991E+02  0.86295523854E+02  0.10000000000E+01 0.  0.
    9000005    1    3    3    0    0 -0.26172697071E+01  0.62036519177E+02  0.81471958905E+02  0.10244051884E+03  0.10000000000E+01 0.  0.
<mgrwt>
<rscale>  0 0.12501719E+03</rscale>
<asrwt>0</asrwt>
<pdfrwt beam="2">  1        4 0.36417685E-02 0.12501719E+03</pdfrwt>
<pdfrwt beam="1">  1       -4 0.25394545E-01 0.12501719E+03</pdfrwt>
<totfact> 0.92032256E+03</totfact>
</mgrwt>
</event>
<event>
 5    1  0.3300771E-002  0.1249996E+03  0.7818608E-02  0.1235070E+00
         -4   -1    0    0    0  501 -0.00000000000E+00  0.00000000000E+00  0.46078157773E+03  0.46078332791E+03  0.12700000000E+01 0.  1.
          4   -1    0    0  501    0  0.00000000000E+00 -0.00000000000E+00 -0.84280447371E+01  0.85231941249E+01  0.12700000000E+01 0.  1.
         25    2    1    2    0    0  0.00000000000E+00  0.00000000000E+00  0.45235353300E+03  0.46930652203E+03  0.12499957123E+03 0.  0.
    9000005    1    3    3    0    0  0.26904356469E+02  0.20644663902E+00  0.14412416751E+02  0.30538578451E+02  0.10000000000E+01 0.  0.
    9000005    1    3    3    0    0 -0.26904356469E+02 -0.20644663902E+00  0.43794111624E+03  0.43876794358E+03  0.10000000000E+01 0.  0.
<mgrwt>
<rscale>  0 0.12499957E+03</rscale>
<asrwt>0</asrwt>
<pdfrwt beam="2">  1        4 0.13040758E-02 0.12499957E+03</pdfrwt>
<pdfrwt beam="1">  1       -4 0.70896942E-01 0.12499957E+03</pdfrwt>
<totfact> 0.58327553E+03</totfact>
</mgrwt>
</event>
<event>
 5    1  0.3300771E-002  0.1250003E+03  0.7818608E-02  0.1235069E+00
          4   -1    0    0  501    0  0.00000000000E+00  0.00000000000E+00  0.22609045624E+02  0.22644686883E+02  0.12700000000E+01 0.  1.
         -4   -1    0    0    0  501 -0.00000000000E+00 -0.00000000000E+00 -0.17260048862E+03  0.17260516091E+03  0.12700000000E+01 0.  1.
         25    2    1    2    0    0  0.00000000000E+00  0.00000000000E+00 -0.14999144300E+03  0.19524984779E+03  0.12500028036E+03 0.  0.
    9000005    1    3    3    0    0  0.56282045682E+02  0.14540544841E+02 -0.39166007539E+02  0.70100444057E+02  0.10000000000E+01 0.  0.
    9000005    1    3    3    0    0 -0.56282045682E+02 -0.14540544841E+02 -0.11082543546E+03  0.12514940373E+03  0.10000000000E+01 0.  0.
<mgrwt>
<rscale>  0 0.12500028E+03</rscale>
<asrwt>0</asrwt>
<pdfrwt beam="1">  1        4 0.34814159E-02 0.12500028E+03</pdfrwt>
<pdfrwt beam="2">  1       -4 0.26557021E-01 0.12500028E+03</pdfrwt>
<totfact> 0.90941227E+03</totfact>
</mgrwt>
</event>
<event>
 5    1  0.3300771E-002  0.1249882E+03  0.7818608E-02  0.1235088E+00
          4   -1    0    0  501    0  0.00000000000E+00  0.00000000000E+00  0.63631865204E+02  0.63644537624E+02  0.12700000000E+01 0. -1.
         -4   -1    0    0    0  501 -0.00000000000E+00 -0.00000000000E+00 -0.61351337878E+02  0.61364481253E+02  0.12700000000E+01 0. -1.
         25    2    1    2    0    0  0.00000000000E+00  0.00000000000E+00  0.22805273266E+01  0.12500901888E+03  0.12498821543E+03 0.  0.
    9000005    1    3    3    0    0  0.34412255102E+02 -0.32797509780E+02 -0.39420568083E+02  0.61764562145E+02  0.10000000000E+01 0.  0.
    9000005    1    3    3    0    0 -0.34412255102E+02  0.32797509780E+02  0.41701095410E+02  0.63244456732E+02  0.10000000000E+01 0.  0.
<mgrwt>
<rscale>  0 0.12498822E+03</rscale>
<asrwt>0</asrwt>
<pdfrwt beam="1">  1        4 0.97915036E-02 0.12498822E+03</pdfrwt>
<pdfrwt beam="2">  1       -4 0.94406532E-02 0.12498822E+03</pdfrwt>
<totfact> 0.10455451E+04</totfact>
</mgrwt>
</event>
<event>
 5    1  0.3300771E-002  0.1249996E+03  0.7818608E-02  0.1235070E+00
          4   -1    0    0  501    0  0.00000000000E+00  0.00000000000E+00  0.12644433863E+03  0.12645071637E+03  0.12700000000E+01 0. -1.
         -4   -1    0    0    0  501 -0.00000000000E+00 -0.00000000000E+00 -0.30872642535E+02  0.30898753326E+02  0.12700000000E+01 0. -1.
         25    2    1    2    0    0  0.00000000000E+00  0.00000000000E+00  0.95571696094E+02  0.15734946970E+03  0.12499962608E+03 0.  0.
    9000005    1    3    3    0    0  0.19936768115E+02 -0.13054387402E+02  0.12050628224E+03  0.12284403043E+03  0.10000000000E+01 0.  0.
    9000005    1    3    3    0    0 -0.19936768115E+02  0.13054387402E+02 -0.24934586142E+02  0.34505439272E+02  0.10000000000E+01 0.  0.
<mgrwt>
<rscale>  0 0.12499963E+03</rscale>
<asrwt>0</asrwt>
<pdfrwt beam="1">  1        4 0.19455475E-01 0.12499963E+03</pdfrwt>
<pdfrwt beam="2">  1       -4 0.47521363E-02 0.12499963E+03</pdfrwt>
<totfact> 0.97857056E+03</totfact>
</mgrwt>
</event>
<event>
 5    1  0.3300771E-002  0.1250014E+03  0.7818608E-02  0.1235067E+00
          4   -1    0    0  501    0  0.00000000000E+00  0.00000000000E+00  0.91241420312E+02  0.91250258523E+02  0.12700000000E+01 0. -1.
         -4   -1    0    0    0  501 -0.00000000000E+00 -0.00000000000E+00 -0.42792866105E+02  0.42811707389E+02  0.12700000000E+01 0. -1.
         25    2    1    2    0    0  0.00000000000E+00  0.00000000000E+00  0.48448554207E+02  0.13406196591E+03  0.12500139319E+03 0.  0.
    9000005    1    3    3    0    0 -0.32687434092E+00 -0.40585135537E+02 -0.26739323557E+02  0.48613285197E+02  0.10000000000E+01 0.  0.
    9000005    1    3    3    0    0  0.32687434092E+00  0.40585135537E+02  0.75187877763E+02  0.85448680715E+02  0.10000000000E+01 0.  0.
<mgrwt>
<rscale>  0 0.12500139E+03</rscale>
<asrwt>0</asrwt>
<pdfrwt beam="1">  1        4 0.14039271E-01 0.12500139E+03</pdfrwt>
<pdfrwt beam="2">  1       -4 0.65856471E-02 0.12500139E+03</pdfrwt>
<totfact> 0.10257558E+04</totfact>
</mgrwt>
</event>
<event>
 5    1  0.3300771E-002  0.1250034E+03  0.7818608E-02  0.1235064E+00
          4   -1    0    0  501    0  0.00000000000E+00  0.00000000000E+00  0.15938707463E+01  0.20379705484E+01  0.12700000000E+01 0. -1.
         -4   -1    0    0    0  501 -0.00000000000E+00 -0.00000000000E+00 -0.21507862708E+04  0.21507866458E+04  0.12700000000E+01 0. -1.
         25    2    1    2    0    0  0.00000000000E+00  0.00000000000E+00 -0.21491924001E+04  0.21528246163E+04  0.12500342442E+03 0.  0.
    9000005    1    3    3    0    0 -0.36739715491E+02 -0.52093590362E+00 -0.20400355782E+03  0.20728851794E+03  0.10000000000E+01 0.  0.
    9000005    1    3    3    0    0  0.36739715491E+02  0.52093590362E+00 -0.19451888422E+04  0.19455360984E+04  0.10000000000E+01 0.  0.
<mgrwt>
<rscale>  0 0.12500342E+03</rscale>
<asrwt>0</asrwt>
<pdfrwt beam="1">  1        4 0.27940297E-03 0.12500342E+03</pdfrwt>
<pdfrwt beam="2">  1       -4 0.33092235E+00 0.12500342E+03</pdfrwt>
<totfact> 0.79956192E+02</totfact>
</mgrwt>
</event>
<event>
 5    1  0.3300771E-002  0.1250081E+03  0.7818608E-02  0.1235057E+00
         -4   -1    0    0    0  501 -0.00000000000E+00  0.00000000000E+00  0.80191680271E+01  0.81191105329E+01  0.12700000000E+01 0.  1.
          4   -1    0    0  501    0  0.00000000000E+00 -0.00000000000E+00 -0.48405961946E+03  0.48406128547E+03  0.12700000000E+01 0.  1.
         25    2    1    2    0    0  0.00000000000E+00  0.00000000000E+00 -0.47604045143E+03  0.49218039600E+03  0.12500812298E+03 0.  0.
    9000005    1    3    3    0    0 -0.37041145846E+02 -0.41654741050E+02 -0.34928278225E+03  0.35370415027E+03  0.10000000000E+01 0.  0.
    9000005    1    3    3    0    0  0.37041145846E+02  0.41654741050E+02 -0.12675766918E+03  0.13847624574E+03  0.10000000000E+01 0.  0.
<mgrwt>
<rscale>  0 0.12500812E+03</rscale>
<asrwt>0</asrwt>
<pdfrwt beam="2">  1        4 0.74478504E-01 0.12500812E+03</pdfrwt>
<pdfrwt beam="1">  1       -4 0.12415346E-02 0.12500812E+03</pdfrwt>
<totfact> 0.56466138E+03</totfact>
</mgrwt>
</event>
<event>
 5    1  0.3300771E-002  0.1250074E+03  0.7818608E-02  0.1235058E+00
         -4   -1    0    0    0  501 -0.00000000000E+00  0.00000000000E+00  0.62840376191E+02  0.62853208190E+02  0.12700000000E+01 0. -1.
          4   -1    0    0  501    0  0.00000000000E+00 -0.00000000000E+00 -0.62143133460E+02  0.62156109404E+02  0.12700000000E+01 0. -1.
         25    2    1    2    0    0  0.00000000000E+00  0.00000000000E+00  0.69724273060E+00  0.12500931759E+03  0.12500737313E+03 0.  0.
    9000005    1    3    3    0    0  0.40122761151E+02  0.27553521692E+01  0.48185365553E+02  0.62771469486E+02  0.10000000000E+01 0.  0.
    9000005    1    3    3    0    0 -0.40122761151E+02 -0.27553521692E+01 -0.47488122822E+02  0.62237848108E+02  0.10000000000E+01 0.  0.
<mgrwt>
<rscale>  0 0.12500737E+03</rscale>
<asrwt>0</asrwt>
<pdfrwt beam="2">  1        4 0.95624674E-02 0.12500737E+03</pdfrwt>
<pdfrwt beam="1">  1       -4 0.96697353E-02 0.12500737E+03</pdfrwt>
<totfact> 0.10450919E+04</totfact>
</mgrwt>
</event>
<event>
 5    1  0.3300771E-002  0.1250325E+03  0.7818608E-02  0.1235019E+00
         -4   -1    0    0    0  501 -0.00000000000E+00  0.00000000000E+00  0.20683107141E+03  0.20683497044E+03  0.12700000000E+01 0.  1.
          4   -1    0    0  501    0  0.00000000000E+00 -0.00000000000E+00 -0.18870572129E+02  0.18913259700E+02  0.12700000000E+01 0.  1.
         25    2    1    2    0    0  0.00000000000E+00  0.00000000000E+00  0.18796049928E+03  0.22574823014E+03  0.12503245229E+03 0.  0.
    9000005    1    3    3    0    0  0.37776848174E+02  0.18912813068E+02  0.10799119310E+02  0.43616576367E+02  0.10000000000E+01 0.  0.
    9000005    1    3    3    0    0 -0.37776848174E+02 -0.18912813068E+02  0.17716137997E+03  0.18213165378E+03  0.10000000000E+01 0.  0.
<mgrwt>
<rscale>  0 0.12503245E+03</rscale>
<asrwt>0</asrwt>
<pdfrwt beam="2">  1        4 0.29067485E-02 0.12503245E+03</pdfrwt>
<pdfrwt beam="1">  1       -4 0.31823748E-01 0.12503245E+03</pdfrwt>
<totfact> 0.85904526E+03</totfact>
</mgrwt>
</event>
<event>
 5    1  0.3300771E-002  0.1250018E+03  0.7818608E-02  0.1235066E+00
          4   -1    0    0  501    0  0.00000000000E+00  0.00000000000E+00  0.65968415321E+01  0.67179772402E+01  0.12700000000E+01 0. -1.
         -4   -1    0    0    0  501 -0.00000000000E+00 -0.00000000000E+00 -0.58664730976E+03  0.58664868443E+03  0.12700000000E+01 0. -1.
         25    2    1    2    0    0  0.00000000000E+00  0.00000000000E+00 -0.58005046823E+03  0.59336666167E+03  0.12500179797E+03 0.  0.
    9000005    1    3    3    0    0  0.23953827319E+02 -0.57032823824E+02 -0.24787864929E+03  0.25548258964E+03  0.10000000000E+01 0.  0.
    9000005    1    3    3    0    0 -0.23953827319E+02  0.57032823824E+02 -0.33217181894E+03  0.33788407203E+03  0.10000000000E+01 0.  0.
<mgrwt>
<rscale>  0 0.12500180E+03</rscale>
<asrwt>0</asrwt>
<pdfrwt beam="1">  1        4 0.10243230E-02 0.12500180E+03</pdfrwt>
<pdfrwt beam="2">  1       -4 0.90262816E-01 0.12500180E+03</pdfrwt>
<totfact> 0.49287094E+03</totfact>
</mgrwt>
</event>
<event>
 5    1  0.3300771E-002  0.1249750E+03  0.7818608E-02  0.1235108E+00
          4   -1    0    0  501    0  0.00000000000E+00  0.00000000000E+00  0.13414603490E+02  0.13474586703E+02  0.12700000000E+01 0.  1.
         -4   -1    0    0    0  501 -0.00000000000E+00 -0.00000000000E+00 -0.29036674175E+03  0.29036951909E+03  0.12700000000E+01 0.  1.
         25    2    1    2    0    0  0.00000000000E+00  0.00000000000E+00 -0.27695213826E+03  0.30384410579E+03  0.12497501245E+03 0.  0.
    9000005    1    3    3    0    0 -0.95035017328E+01  0.15128845615E+02  0.70836835361E+01  0.19245183483E+02  0.10000000000E+01 0.  0.
    9000005    1    3    3    0    0  0.95035017328E+01 -0.15128845615E+02 -0.28403582180E+03  0.28459892231E+03  0.10000000000E+01 0.  0.
<mgrwt>
<rscale>  0 0.12497501E+03</rscale>
<asrwt>0</asrwt>
<pdfrwt beam="1">  1        4 0.20686131E-02 0.12497501E+03</pdfrwt>
<pdfrwt beam="2">  1       -4 0.44676629E-01 0.12497501E+03</pdfrwt>
<totfact> 0.75160833E+03</totfact>
</mgrwt>
</event>
<event>
 5    1  0.3300771E-002  0.1249995E+03  0.7818608E-02  0.1235070E+00
          4   -1    0    0  501    0  0.00000000000E+00  0.00000000000E+00  0.28107638472E+02  0.28136315333E+02  0.12700000000E+01 0. -1.
         -4   -1    0    0    0  501 -0.00000000000E+00 -0.00000000000E+00 -0.13887112757E+03  0.13887693463E+03  0.12700000000E+01 0. -1.
         25    2    1    2    0    0  0.00000000000E+00  0.00000000000E+00 -0.11076348910E+03  0.16701324997E+03  0.12499950059E+03 0.  0.
    9000005    1    3    3    0    0 -0.15641833283E+02  0.53121038732E+02 -0.16687372379E+02  0.57844447455E+02  0.10000000000E+01 0.  0.
    9000005    1    3    3    0    0  0.15641833283E+02 -0.53121038732E+02 -0.94076116722E+02  0.10916880251E+03  0.10000000000E+01 0.  0.
<mgrwt>
<rscale>  0 0.12499950E+03</rscale>
<asrwt>0</asrwt>
<pdfrwt beam="1">  1        4 0.43269048E-02 0.12499950E+03</pdfrwt>
<pdfrwt beam="2">  1       -4 0.21367441E-01 0.12499950E+03</pdfrwt>
<totfact> 0.96008545E+03</totfact>
</mgrwt>
</event>
<event>
 5    1  0.3300771E-002  0.1250025E+03  0.7818608E-02  0.1235065E+00
         -4   -1    0    0    0  501 -0.00000000000E+00  0.00000000000E+00  0.26203542694E+03  0.26203850456E+03  0.12700000000E+01 0.  1.
          4   -1    0    0  501    0  0.00000000000E+00 -0.00000000000E+00 -0.14877705797E+02  0.14931812675E+02  0.12700000000E+01 0.  1.
         25    2    1    2    0    0  0.00000000000E+00  0.00000000000E+00  0.24715772114E+03  0.27697031724E+03  0.12500247001E+03 0.  0.
    9000005    1    3    3    0    0 -0.60069037560E+01 -0.22042503280E+02 -0.53037977915E+01  0.23475202121E+02  0.10000000000E+01 0.  0.
    9000005    1    3    3    0    0  0.60069037560E+01  0.22042503280E+02  0.25246151894E+03  0.25349511511E+03  0.10000000000E+01 0.  0.
<mgrwt>
<rscale>  0 0.12500247E+03</rscale>
<asrwt>0</asrwt>
<pdfrwt beam="2">  1        4 0.22932767E-02 0.12500247E+03</pdfrwt>
<pdfrwt beam="1">  1       -4 0.40317539E-01 0.12500247E+03</pdfrwt>
<totfact> 0.78577227E+03</totfact>
</mgrwt>
</event>
<event>
 5    1  0.3300771E-002  0.1250023E+03  0.7818608E-02  0.1235066E+00
          4   -1    0    0  501    0  0.00000000000E+00  0.00000000000E+00  0.22476004753E+01  0.25815901875E+01  0.12700000000E+01 0.  1.
         -4   -1    0    0    0  501 -0.00000000000E+00 -0.00000000000E+00 -0.16174904820E+04  0.16174909806E+04  0.12700000000E+01 0.  1.
         25    2    1    2    0    0  0.00000000000E+00  0.00000000000E+00 -0.16152428815E+04  0.16200725708E+04  0.12500227294E+03 0.  0.
    9000005    1    3    3    0    0  0.27056924799E+02 -0.43658688048E+02 -0.12689867538E+04  0.12700261964E+04  0.10000000000E+01 0.  0.
    9000005    1    3    3    0    0 -0.27056924799E+02  0.43658688048E+02 -0.34625612771E+03  0.35004637436E+03  0.10000000000E+01 0.  0.
<mgrwt>
<rscale>  0 0.12500227E+03</rscale>
<asrwt>0</asrwt>
<pdfrwt beam="1">  1        4 0.37151585E-03 0.12500227E+03</pdfrwt>
<pdfrwt beam="2">  1       -4 0.24886955E+00 0.12500227E+03</pdfrwt>
<totfact> 0.15685321E+03</totfact>
</mgrwt>
</event>
<event>
 5    1  0.3300771E-002  0.1250034E+03  0.7818608E-02  0.1235064E+00
          4   -1    0    0  501    0  0.00000000000E+00  0.00000000000E+00  0.58450612298E+03  0.58450750269E+03  0.12700000000E+01 0. -1.
         -4   -1    0    0    0  501 -0.00000000000E+00 -0.00000000000E+00 -0.66216199059E+01  0.67423104481E+01  0.12700000000E+01 0. -1.
         25    2    1    2    0    0  0.00000000000E+00  0.00000000000E+00  0.57788450308E+03  0.59124981314E+03  0.12500337053E+03 0.  0.
    9000005    1    3    3    0    0 -0.56408220219E+02 -0.25883408103E+02  0.25430663094E+03  0.26177223050E+03  0.10000000000E+01 0.  0.
    9000005    1    3    3    0    0  0.56408220219E+02  0.25883408103E+02  0.32357787214E+03  0.32947758264E+03  0.10000000000E+01 0.  0.
<mgrwt>
<rscale>  0 0.12500337E+03</rscale>
<asrwt>0</asrwt>
<pdfrwt beam="1">  1        4 0.89933421E-01 0.12500337E+03</pdfrwt>
<pdfrwt beam="2">  1       -4 0.10281006E-02 0.12500337E+03</pdfrwt>
<totfact> 0.49420988E+03</totfact>
</mgrwt>
</event>
<event>
 5    1  0.3300771E-002  0.1250004E+03  0.7818608E-02  0.1235069E+00
          4   -1    0    0  501    0  0.00000000000E+00  0.00000000000E+00  0.14909488191E+03  0.14910029078E+03  0.12700000000E+01 0.  1.
         -4   -1    0    0    0  501 -0.00000000000E+00 -0.00000000000E+00 -0.26178647566E+02  0.26209435103E+02  0.12700000000E+01 0.  1.
         25    2    1    2    0    0  0.00000000000E+00  0.00000000000E+00  0.12291623434E+03  0.17530972588E+03  0.12500039730E+03 0.  0.
    9000005    1    3    3    0    0  0.24268974455E+02 -0.17309715482E+02 -0.15571580389E+02  0.33646448356E+02  0.10000000000E+01 0.  0.
    9000005    1    3    3    0    0 -0.24268974455E+02  0.17309715482E+02  0.13848781473E+03  0.14166327753E+03  0.10000000000E+01 0.  0.
<mgrwt>
<rscale>  0 0.12500040E+03</rscale>
<asrwt>0</asrwt>
<pdfrwt beam="1">  1        4 0.22940459E-01 0.12500040E+03</pdfrwt>
<pdfrwt beam="2">  1       -4 0.40302686E-02 0.12500040E+03</pdfrwt>
<totfact> 0.94467303E+03</totfact>
</mgrwt>
</event>
<event>
 5    1  0.3300771E-002  0.1250001E+03  0.7818608E-02  0.1235069E+00
         -4   -1    0    0    0  501 -0.00000000000E+00  0.00000000000E+00  0.37744751536E+03  0.37744965195E+03  0.12700000000E+01 0.  1.
          4   -1    0    0  501    0  0.00000000000E+00 -0.00000000000E+00 -0.10307996546E+02  0.10385937261E+02  0.12700000000E+01 0.  1.
         25    2    1    2    0    0  0.00000000000E+00  0.00000000000E+00  0.36713951882E+03  0.38783558921E+03  0.12500007191E+03 0.  0.
    9000005    1    3    3    0    0 -0.67255780957E+01 -0.11477696789E+02 -0.58790431832E+01  0.14578548387E+02  0.10000000000E+01 0.  0.
    9000005    1    3    3    0    0  0.67255780957E+01  0.11477696789E+02  0.37301856200E+03  0.37325704082E+03  0.10000000000E+01 0.  0.
<mgrwt>
<rscale>  0 0.12500007E+03</rscale>
<asrwt>0</asrwt>
<pdfrwt beam="2">  1        4 0.15920056E-02 0.12500007E+03</pdfrwt>
<pdfrwt beam="1">  1       -4 0.58075001E-01 0.12500007E+03</pdfrwt>
<totfact> 0.65753231E+03</totfact>
</mgrwt>
</event>
<event>
 5    1  0.3300771E-002  0.1249994E+03  0.7818608E-02  0.1235070E+00
         -4   -1    0    0    0  501 -0.00000000000E+00  0.00000000000E+00  0.73340159458E+03  0.73340269418E+03  0.12700000000E+01 0.  1.
          4   -1    0    0  501    0  0.00000000000E+00 -0.00000000000E+00 -0.52493275368E+01  0.54007721289E+01  0.12700000000E+01 0.  1.
         25    2    1    2    0    0  0.00000000000E+00  0.00000000000E+00  0.72815226704E+03  0.73880346631E+03  0.12499935133E+03 0.  0.
    9000005    1    3    3    0    0  0.11418828206E+02  0.27827562613E+02  0.40322900084E+02  0.50315992982E+02  0.10000000000E+01 0.  0.
    9000005    1    3    3    0    0 -0.11418828206E+02 -0.27827562613E+02  0.68782936696E+03  0.68848747333E+03  0.10000000000E+01 0.  0.
<mgrwt>
<rscale>  0 0.12499935E+03</rscale>
<asrwt>0</asrwt>
<pdfrwt beam="2">  1        4 0.81932284E-03 0.12499935E+03</pdfrwt>
<pdfrwt beam="1">  1       -4 0.11284277E+00 0.12499935E+03</pdfrwt>
<totfact> 0.41116053E+03</totfact>
</mgrwt>
</event>
<event>
 5    1  0.3300771E-002  0.1249990E+03  0.7818608E-02  0.1235071E+00
         -4   -1    0    0    0  501 -0.00000000000E+00  0.00000000000E+00  0.99203669193E+02  0.99211798096E+02  0.12700000000E+01 0. -1.
          4   -1    0    0  501    0  0.00000000000E+00 -0.00000000000E+00 -0.39355432861E+02  0.39375918982E+02  0.12700000000E+01 0. -1.
         25    2    1    2    0    0  0.00000000000E+00  0.00000000000E+00  0.59848236332E+02  0.13858771708E+03  0.12499897573E+03 0.  0.
    9000005    1    3    3    0    0  0.18655883585E+01  0.62461292366E+02  0.29324471447E+02  0.69034904864E+02  0.10000000000E+01 0.  0.
    9000005    1    3    3    0    0 -0.18655883585E+01 -0.62461292366E+02  0.30523764885E+02  0.69552812213E+02  0.10000000000E+01 0.  0.
<mgrwt>
<rscale>  0 0.12499898E+03</rscale>
<asrwt>0</asrwt>
<pdfrwt beam="2">  1        4 0.60568831E-02 0.12499898E+03</pdfrwt>
<pdfrwt beam="1">  1       -4 0.15264304E-01 0.12499898E+03</pdfrwt>
<totfact> 0.10163175E+04</totfact>
</mgrwt>
</event>
<event>
 5    1  0.3300771E-002  0.1249992E+03  0.7818608E-02  0.1235071E+00
         -4   -1    0    0    0  501 -0.00000000000E+00  0.00000000000E+00  0.61208831840E+01  0.62512487515E+01  0.12700000000E+01 0.  1.
          4   -1    0    0  501    0  0.00000000000E+00 -0.00000000000E+00 -0.63131990134E+03  0.63132117874E+03  0.12700000000E+01 0.  1.
         25    2    1    2    0    0  0.00000000000E+00  0.00000000000E+00 -0.62519901816E+03  0.63757242749E+03  0.12499915198E+03 0.  0.
    9000005    1    3    3    0    0  0.52317908731E+02  0.16557549626E+02 -0.46509686289E+03  0.46832404155E+03  0.10000000000E+01 0.  0.
    9000005    1    3    3    0    0 -0.52317908731E+02 -0.16557549626E+02 -0.16010215527E+03  0.16924838595E+03  0.10000000000E+01 0.  0.
<mgrwt>
<rscale>  0 0.12499915E+03</rscale>
<asrwt>0</asrwt>
<pdfrwt beam="2">  1        4 0.97136214E-01 0.12499915E+03</pdfrwt>
<pdfrwt beam="1">  1       -4 0.95180122E-03 0.12499915E+03</pdfrwt>
<totfact> 0.46579550E+03</totfact>
</mgrwt>
</event>
<event>
 5    1  0.3300771E-002  0.1249907E+03  0.7818608E-02  0.1235084E+00
         -4   -1    0    0    0  501 -0.00000000000E+00  0.00000000000E+00  0.14372805558E+02  0.14428805896E+02  0.12700000000E+01 0. -1.
          4   -1    0    0  501    0  0.00000000000E+00 -0.00000000000E+00 -0.27115446559E+03  0.27115743971E+03  0.12700000000E+01 0. -1.
         25    2    1    2    0    0  0.00000000000E+00  0.00000000000E+00 -0.25678166003E+03  0.28558624560E+03  0.12499073066E+03 0.  0.
    9000005    1    3    3    0    0  0.39562536543E+02 -0.73898255962E+00 -0.23889231639E+03  0.24214929119E+03  0.10000000000E+01 0.  0.
    9000005    1    3    3    0    0 -0.39562536543E+02  0.73898255962E+00 -0.17889343640E+02  0.43436954415E+02  0.10000000000E+01 0.  0.
<mgrwt>
<rscale>  0 0.12499073E+03</rscale>
<asrwt>0</asrwt>
<pdfrwt beam="2">  1        4 0.41720604E-01 0.12499073E+03</pdfrwt>
<pdfrwt beam="1">  1       -4 0.22157375E-02 0.12499073E+03</pdfrwt>
<totfact> 0.77459147E+03</totfact>
</mgrwt>
</event>
<event>
 5    1  0.3300771E-002  0.1250006E+03  0.7818608E-02  0.1235068E+00
         -4   -1    0    0    0  501 -0.00000000000E+00  0.00000000000E+00  0.13663277516E+04  0.13663283418E+04  0.12700000000E+01 0.  1.
          4   -1    0    0  501    0  0.00000000000E+00 -0.00000000000E+00 -0.27173110177E+01  0.29994464768E+01  0.12700000000E+01 0.  1.
         25    2    1    2    0    0  0.00000000000E+00  0.00000000000E+00  0.13636104405E+04  0.13693277883E+04  0.12500063267E+03 0.  0.
    9000005    1    3    3    0    0  0.62294711150E+02  0.45732420410E+01  0.70300156255E+03  0.70577173542E+03  0.10000000000E+01 0.  0.
    9000005    1    3    3    0    0 -0.62294711150E+02 -0.45732420410E+01  0.66060887799E+03  0.66355605284E+03  0.10000000000E+01 0.  0.
<mgrwt>
<rscale>  0 0.12500063E+03</rscale>
<asrwt>0</asrwt>
<pdfrwt beam="2">  1        4 0.43979596E-03 0.12500063E+03</pdfrwt>
<pdfrwt beam="1">  1       -4 0.21022603E+00 0.12500063E+03</pdfrwt>
<totfact> 0.20648536E+03</totfact>
</mgrwt>
</event>
<event>
 5    1  0.3300771E-002  0.1250030E+03  0.7818608E-02  0.1235065E+00
          4   -1    0    0  501    0  0.00000000000E+00  0.00000000000E+00  0.92494088019E+03  0.92494175209E+03  0.12700000000E+01 0.  1.
         -4   -1    0    0    0  501 -0.00000000000E+00 -0.00000000000E+00 -0.41270757544E+01  0.43180614033E+01  0.12700000000E+01 0.  1.
         25    2    1    2    0    0  0.00000000000E+00  0.00000000000E+00  0.92081380444E+03  0.92925981349E+03  0.12500295405E+03 0.  0.
    9000005    1    3    3    0    0 -0.43565295221E+02  0.16979304955E+02  0.76864083365E+03  0.77006231105E+03  0.10000000000E+01 0.  0.
    9000005    1    3    3    0    0  0.43565295221E+02 -0.16979304955E+02  0.15217297078E+03  0.15919750244E+03  0.10000000000E+01 0.  0.
<mgrwt>
<rscale>  0 0.12500295E+03</rscale>
<asrwt>0</asrwt>
<pdfrwt beam="1">  1        4 0.14231346E+00 0.12500295E+03</pdfrwt>
<pdfrwt beam="2">  1       -4 0.64969252E-03 0.12500295E+03</pdfrwt>
<totfact> 0.33061805E+03</totfact>
</mgrwt>
</event>
<event>
 5    1  0.3300771E-002  0.1250044E+03  0.7818608E-02  0.1235062E+00
         -4   -1    0    0    0  501 -0.00000000000E+00  0.00000000000E+00  0.15639637350E+02  0.15691117119E+02  0.12700000000E+01 0. -1.
          4   -1    0    0  501    0  0.00000000000E+00 -0.00000000000E+00 -0.24932015015E+03  0.24932338472E+03  0.12700000000E+01 0. -1.
         25    2    1    2    0    0  0.00000000000E+00  0.00000000000E+00 -0.23368051280E+03  0.26501450184E+03  0.12500441642E+03 0.  0.
    9000005    1    3    3    0    0 -0.12686990835E+02 -0.47662365982E+02 -0.19820303615E+03  0.20425010259E+03  0.10000000000E+01 0.  0.
    9000005    1    3    3    0    0  0.12686990835E+02  0.47662365982E+02 -0.35477476644E+02  0.60764399252E+02  0.10000000000E+01 0.  0.
<mgrwt>
<rscale>  0 0.12500442E+03</rscale>
<asrwt>0</asrwt>
<pdfrwt beam="2">  1        4 0.38361152E-01 0.12500442E+03</pdfrwt>
<pdfrwt beam="1">  1       -4 0.24103070E-02 0.12500442E+03</pdfrwt>
<totfact> 0.80199576E+03</totfact>
</mgrwt>
</event>
<event>
 5    1  0.3300771E-002  0.1249980E+03  0.7818608E-02  0.1235072E+00
          4   -1    0    0  501    0  0.00000000000E+00  0.00000000000E+00  0.17687588921E+02  0.17733124424E+02  0.12700000000E+01 0. -1.
         -4   -1    0    0    0  501 -0.00000000000E+00 -0.00000000000E+00 -0.22050863235E+03  0.22051228955E+03  0.12700000000E+01 0. -1.
         25    2    1    2    0    0  0.00000000000E+00  0.00000000000E+00 -0.20282104343E+03  0.23824541397E+03  0.12499800647E+03 0.  0.
    9000005    1    3    3    0    0 -0.39042394186E+02 -0.32731468054E+02 -0.17038189681E+03  0.17783882676E+03  0.10000000000E+01 0.  0.
    9000005    1    3    3    0    0  0.39042394186E+02  0.32731468054E+02 -0.32439146624E+02  0.60406587211E+02  0.10000000000E+01 0.  0.
<mgrwt>
<rscale>  0 0.12499801E+03</rscale>
<asrwt>0</asrwt>
<pdfrwt beam="1">  1        4 0.27249517E-02 0.12499801E+03</pdfrwt>
<pdfrwt beam="2">  1       -4 0.33928187E-01 0.12499801E+03</pdfrwt>
<totfact> 0.84063115E+03</totfact>
</mgrwt>
</event>
<event>
 5    1  0.3300771E-002  0.1250014E+03  0.7818608E-02  0.1235067E+00
          4   -1    0    0  501    0  0.00000000000E+00  0.00000000000E+00  0.13529392410E+03  0.13529988470E+03  0.12700000000E+01 0. -1.
         -4   -1    0    0    0  501 -0.00000000000E+00 -0.00000000000E+00 -0.28852422325E+02  0.28880359659E+02  0.12700000000E+01 0. -1.
         25    2    1    2    0    0  0.00000000000E+00  0.00000000000E+00  0.10644150178E+03  0.16418024435E+03  0.12500143733E+03 0.  0.
    9000005    1    3    3    0    0 -0.42260671640E+02 -0.10050299118E+02 -0.57865778307E+01  0.43834431248E+02  0.10000000000E+01 0.  0.
    9000005    1    3    3    0    0  0.42260671640E+02  0.10050299118E+02  0.11222807961E+03  0.12034581311E+03  0.10000000000E+01 0.  0.
<mgrwt>
<rscale>  0 0.12500144E+03</rscale>
<asrwt>0</asrwt>
<pdfrwt beam="1">  1        4 0.20817057E-01 0.12500144E+03</pdfrwt>
<pdfrwt beam="2">  1       -4 0.44414418E-02 0.12500144E+03</pdfrwt>
<totfact> 0.96539749E+03</totfact>
</mgrwt>
</event>
<event>
 5    1  0.3300771E-002  0.1250100E+03  0.7818608E-02  0.1235054E+00
         -4   -1    0    0    0  501 -0.00000000000E+00  0.00000000000E+00  0.52703213083E+02  0.52718512586E+02  0.12700000000E+01 0. -1.
          4   -1    0    0  501    0  0.00000000000E+00 -0.00000000000E+00 -0.74098239604E+02  0.74109122329E+02  0.12700000000E+01 0. -1.
         25    2    1    2    0    0  0.00000000000E+00  0.00000000000E+00 -0.21395026520E+02  0.12682763492E+03  0.12501000687E+03 0.  0.
    9000005    1    3    3    0    0  0.27094758288E+02  0.35154923877E+01  0.46328208686E+02  0.53793935843E+02  0.10000000000E+01 0.  0.
    9000005    1    3    3    0    0 -0.27094758288E+02 -0.35154923877E+01 -0.67723235206E+02  0.73033699072E+02  0.10000000000E+01 0.  0.
<mgrwt>
<rscale>  0 0.12501001E+03</rscale>
<asrwt>0</asrwt>
<pdfrwt beam="2">  1        4 0.11401743E-01 0.12501001E+03</pdfrwt>
<pdfrwt beam="1">  1       -4 0.81102007E-02 0.12501001E+03</pdfrwt>
<totfact> 0.10410541E+04</totfact>
</mgrwt>
</event>
<event>
 5    1  0.3300771E-002  0.1249994E+03  0.7818608E-02  0.1235070E+00
          4   -1    0    0  501    0  0.00000000000E+00  0.00000000000E+00  0.14615286219E+03  0.14615837994E+03  0.12700000000E+01 0. -1.
         -4   -1    0    0    0  501 -0.00000000000E+00 -0.00000000000E+00 -0.26705778422E+02  0.26735958953E+02  0.12700000000E+01 0. -1.
         25    2    1    2    0    0  0.00000000000E+00  0.00000000000E+00  0.11944708377E+03  0.17289433889E+03  0.12499938640E+03 0.  0.
    9000005    1    3    3    0    0 -0.38901082447E+02  0.48410922838E+02  0.69336264007E+02  0.93088286975E+02  0.10000000000E+01 0.  0.
    9000005    1    3    3    0    0  0.38901082447E+02 -0.48410922838E+02  0.50110819763E+02  0.79806051919E+02  0.10000000000E+01 0.  0.
<mgrwt>
<rscale>  0 0.12499939E+03</rscale>
<asrwt>0</asrwt>
<pdfrwt beam="1">  1        4 0.22487802E-01 0.12499939E+03</pdfrwt>
<pdfrwt beam="2">  1       -4 0.41113274E-02 0.12499939E+03</pdfrwt>
<totfact> 0.94913215E+03</totfact>
</mgrwt>
</event>
<event>
 5    1  0.3300771E-002  0.1250019E+03  0.7818608E-02  0.1235066E+00
         -4   -1    0    0    0  501 -0.00000000000E+00  0.00000000000E+00  0.42760884825E+01  0.44606986796E+01  0.12700000000E+01 0.  1.
          4   -1    0    0  501    0  0.00000000000E+00 -0.00000000000E+00 -0.89405008887E+03  0.89405099089E+03  0.12700000000E+01 0.  1.
         25    2    1    2    0    0  0.00000000000E+00  0.00000000000E+00 -0.88977400039E+03  0.89851168957E+03  0.12500193808E+03 0.  0.
    9000005    1    3    3    0    0 -0.42736774961E+00 -0.12232625994E+02 -0.88538489508E+03  0.88547006286E+03  0.10000000000E+01 0.  0.
    9000005    1    3    3    0    0  0.42736774961E+00  0.12232625994E+02 -0.43891053103E+01  0.13041626713E+02  0.10000000000E+01 0.  0.
<mgrwt>
<rscale>  0 0.12500194E+03</rscale>
<asrwt>0</asrwt>
<pdfrwt beam="2">  1        4 0.13756029E+00 0.12500194E+03</pdfrwt>
<pdfrwt beam="1">  1       -4 0.67213065E-03 0.12500194E+03</pdfrwt>
<totfact> 0.34215557E+03</totfact>
</mgrwt>
</event>
<event>
 5    1  0.3300771E-002  0.1249973E+03  0.7818608E-02  0.1235073E+00
          4   -1    0    0  501    0  0.00000000000E+00  0.00000000000E+00  0.10569867489E+02  0.10645891167E+02  0.12700000000E+01 0.  1.
         -4   -1    0    0    0  501 -0.00000000000E+00 -0.00000000000E+00 -0.36814753955E+03  0.36814973010E+03  0.12700000000E+01 0.  1.
         25    2    1    2    0    0  0.00000000000E+00  0.00000000000E+00 -0.35757767206E+03  0.37879562127E+03  0.12499732452E+03 0.  0.
    9000005    1    3    3    0    0  0.40853442000E+02 -0.35019434105E+02 -0.27508397087E+03  0.28029904659E+03  0.10000000000E+01 0.  0.
    9000005    1    3    3    0    0 -0.40853442000E+02  0.35019434105E+02 -0.82493701190E+02  0.98496574683E+02  0.10000000000E+01 0.  0.
<mgrwt>
<rscale>  0 0.12499732E+03</rscale>
<asrwt>0</asrwt>
<pdfrwt beam="1">  1        4 0.16321502E-02 0.12499732E+03</pdfrwt>
<pdfrwt beam="2">  1       -4 0.56644090E-01 0.12499732E+03</pdfrwt>
<totfact> 0.66672626E+03</totfact>
</mgrwt>
</event>
<event>
 5    1  0.3300771E-002  0.1249991E+03  0.7818608E-02  0.1235071E+00
         -4   -1    0    0    0  501 -0.00000000000E+00  0.00000000000E+00  0.18987750161E+02  0.19030174886E+02  0.12700000000E+01 0. -1.
          4   -1    0    0  501    0  0.00000000000E+00 -0.00000000000E+00 -0.20544766449E+03  0.20545158978E+03  0.12700000000E+01 0. -1.
         25    2    1    2    0    0  0.00000000000E+00  0.00000000000E+00 -0.18645991433E+03  0.22448176467E+03  0.12499905207E+03 0.  0.
    9000005    1    3    3    0    0  0.62064507287E+02 -0.54147117403E+01 -0.10200375650E+03  0.11952860958E+03  0.10000000000E+01 0.  0.
    9000005    1    3    3    0    0 -0.62064507287E+02  0.54147117403E+01 -0.84456157833E+02  0.10495315509E+03  0.10000000000E+01 0.  0.
<mgrwt>
<rscale>  0 0.12499905E+03</rscale>
<asrwt>0</asrwt>
<pdfrwt beam="2">  1        4 0.31610897E-01 0.12499905E+03</pdfrwt>
<pdfrwt beam="1">  1       -4 0.29247579E-02 0.12499905E+03</pdfrwt>
<totfact> 0.86165924E+03</totfact>
</mgrwt>
</event>
<event>
 5    1  0.3300771E-002  0.1249976E+03  0.7818608E-02  0.1235073E+00
         -4   -1    0    0    0  501 -0.00000000000E+00  0.00000000000E+00  0.46517217886E+03  0.46517391252E+03  0.12700000000E+01 0.  1.
          4   -1    0    0  501    0  0.00000000000E+00 -0.00000000000E+00 -0.83473303962E+01  0.84433894108E+01  0.12700000000E+01 0.  1.
         25    2    1    2    0    0  0.00000000000E+00  0.00000000000E+00  0.45682484847E+03  0.47361730193E+03  0.12499762602E+03 0.  0.
    9000005    1    3    3    0    0  0.37584461070E+01  0.53454724254E+02  0.35022590599E+03  0.35430314519E+03  0.10000000000E+01 0.  0.
    9000005    1    3    3    0    0 -0.37584461070E+01 -0.53454724254E+02  0.10659894247E+03  0.11931415674E+03  0.10000000000E+01 0.  0.
<mgrwt>
<rscale>  0 0.12499763E+03</rscale>
<asrwt>0</asrwt>
<pdfrwt beam="2">  1        4 0.12917270E-02 0.12499763E+03</pdfrwt>
<pdfrwt beam="1">  1       -4 0.71572486E-01 0.12499763E+03</pdfrwt>
<totfact> 0.57974085E+03</totfact>
</mgrwt>
</event>
<event>
 5    1  0.3300771E-002  0.1250043E+03  0.7818608E-02  0.1235063E+00
          4   -1    0    0  501    0  0.00000000000E+00  0.00000000000E+00  0.25049794200E+03  0.25050116137E+03  0.12700000000E+01 0.  1.
         -4   -1    0    0    0  501 -0.00000000000E+00 -0.00000000000E+00 -0.15565835558E+02  0.15617558600E+02  0.12700000000E+01 0.  1.
         25    2    1    2    0    0  0.00000000000E+00  0.00000000000E+00  0.23493210644E+03  0.26611871997E+03  0.12500431385E+03 0.  0.
    9000005    1    3    3    0    0 -0.56136563533E+02  0.25033826558E+02  0.93426393912E+02  0.11183692287E+03  0.10000000000E+01 0.  0.
    9000005    1    3    3    0    0  0.56136563533E+02 -0.25033826558E+02  0.14150571253E+03  0.15428179710E+03  0.10000000000E+01 0.  0.
<mgrwt>
<rscale>  0 0.12500431E+03</rscale>
<asrwt>0</asrwt>
<pdfrwt beam="1">  1        4 0.38542373E-01 0.12500431E+03</pdfrwt>
<pdfrwt beam="2">  1       -4 0.23989701E-02 0.12500431E+03</pdfrwt>
<totfact> 0.80047294E+03</totfact>
</mgrwt>
</event>
<event>
 5    1  0.3300771E-002  0.1249970E+03  0.7818608E-02  0.1235074E+00
          4   -1    0    0  501    0  0.00000000000E+00  0.00000000000E+00  0.38684621560E+01  0.40715966712E+01  0.12700000000E+01 0.  1.
         -4   -1    0    0    0  501 -0.00000000000E+00 -0.00000000000E+00 -0.98368375962E+03  0.98368457945E+03  0.12700000000E+01 0.  1.
         25    2    1    2    0    0  0.00000000000E+00  0.00000000000E+00 -0.97981529746E+03  0.98775617612E+03  0.12499698522E+03 0.  0.
    9000005    1    3    3    0    0 -0.27073589515E+02  0.39029865277E+02 -0.16903856366E+03  0.17558856921E+03  0.10000000000E+01 0.  0.
    9000005    1    3    3    0    0  0.27073589515E+02 -0.39029865277E+02 -0.81077673380E+03  0.81216760690E+03  0.10000000000E+01 0.  0.
<mgrwt>
<rscale>  0 0.12499699E+03</rscale>
<asrwt>0</asrwt>
<pdfrwt beam="1">  1        4 0.61083760E-03 0.12499699E+03</pdfrwt>
<pdfrwt beam="2">  1       -4 0.15135146E+00 0.12499699E+03</pdfrwt>
<totfact> 0.31014312E+03</totfact>
</mgrwt>
</event>
<event>
 5    1  0.3300771E-002  0.1249996E+03  0.7818608E-02  0.1235070E+00
          4   -1    0    0  501    0  0.00000000000E+00  0.00000000000E+00  0.14181712524E+03  0.14182281167E+03  0.12700000000E+01 0.  1.
         -4   -1    0    0    0  501 -0.00000000000E+00 -0.00000000000E+00 -0.27523237550E+02  0.27552522665E+02  0.12700000000E+01 0.  1.
         25    2    1    2    0    0  0.00000000000E+00  0.00000000000E+00  0.11429388769E+03  0.16937533434E+03  0.12499964448E+03 0.  0.
    9000005    1    3    3    0    0  0.31778482654E+02 -0.31510217060E+02  0.11624856419E+03  0.12456923543E+03  0.10000000000E+01 0.  0.
    9000005    1    3    3    0    0 -0.31778482654E+02  0.31510217060E+02 -0.19546765045E+01  0.44806098907E+02  0.10000000000E+01 0.  0.
<mgrwt>
<rscale>  0 0.12499964E+03</rscale>
<asrwt>0</asrwt>
<pdfrwt beam="1">  1        4 0.21820709E-01 0.12499964E+03</pdfrwt>
<pdfrwt beam="2">  1       -4 0.42370344E-02 0.12499964E+03</pdfrwt>
<totfact> 0.95565893E+03</totfact>
</mgrwt>
</event>
<event>
 5    1  0.3300771E-002  0.1249991E+03  0.7818608E-02  0.1235071E+00
         -4   -1    0    0    0  501 -0.00000000000E+00  0.00000000000E+00  0.98611781305E+02  0.98619958995E+02  0.12700000000E+01 0. -1.
          4   -1    0    0  501    0  0.00000000000E+00 -0.00000000000E+00 -0.39591835466E+02  0.39612199327E+02  0.12700000000E+01 0. -1.
         25    2    1    2    0    0  0.00000000000E+00  0.00000000000E+00  0.59019945839E+02  0.13823215832E+03  0.12499910235E+03 0.  0.
    9000005    1    3    3    0    0  0.75766568423E+01  0.57545859750E+02  0.55118864707E+02  0.80050115239E+02  0.10000000000E+01 0.  0.
    9000005    1    3    3    0    0 -0.75766568423E+01 -0.57545859750E+02  0.39010811322E+01  0.58182043083E+02  0.10000000000E+01 0.  0.
<mgrwt>
<rscale>  0 0.12499910E+03</rscale>
<asrwt>0</asrwt>
<pdfrwt beam="2">  1        4 0.60932473E-02 0.12499910E+03</pdfrwt>
<pdfrwt beam="1">  1       -4 0.15173238E-01 0.12499910E+03</pdfrwt>
<totfact> 0.10170563E+04</totfact>
</mgrwt>
</event>
<event>
 5    1  0.3300771E-002  0.1249992E+03  0.7818608E-02  0.1235071E+00
         -4   -1    0    0    0  501 -0.00000000000E+00  0.00000000000E+00  0.14605374898E+04  0.14605380420E+04  0.12700000000E+01 0.  1.
          4   -1    0    0  501    0  0.00000000000E+00 -0.00000000000E+00 -0.25231425943E+01  0.28247386695E+01  0.12700000000E+01 0.  1.
         25    2    1    2    0    0  0.00000000000E+00  0.00000000000E+00  0.14580143473E+04  0.14633627807E+04  0.12499916429E+03 0.  0.
    9000005    1    3    3    0    0  0.12756113405E+02  0.61069497830E+02  0.68680391640E+03  0.68963238148E+03  0.10000000000E+01 0.  0.
    9000005    1    3    3    0    0 -0.12756113405E+02 -0.61069497830E+02  0.77121043085E+03  0.77373039920E+03  0.10000000000E+01 0.  0.
<mgrwt>
<rscale>  0 0.12499916E+03</rscale>
<asrwt>0</asrwt>
<pdfrwt beam="2">  1        4 0.41141814E-03 0.12499916E+03</pdfrwt>
<pdfrwt beam="1">  1       -4 0.22472122E+00 0.12499916E+03</pdfrwt>
<totfact> 0.18661047E+03</totfact>
</mgrwt>
</event>
<event>
 5    1  0.3300771E-002  0.1249916E+03  0.7818608E-02  0.1235082E+00
         -4   -1    0    0    0  501 -0.00000000000E+00  0.00000000000E+00  0.11538400313E+03  0.11539099218E+03  0.12700000000E+01 0.  1.
          4   -1    0    0  501    0  0.00000000000E+00 -0.00000000000E+00 -0.33829841850E+02  0.33853671877E+02  0.12700000000E+01 0.  1.
         25    2    1    2    0    0  0.00000000000E+00  0.00000000000E+00  0.81554161276E+02  0.14924466406E+03  0.12499155383E+03 0.  0.
    9000005    1    3    3    0    0  0.55427358337E+02  0.27891475232E+02  0.31954465737E+02  0.69801248724E+02  0.10000000000E+01 0.  0.
    9000005    1    3    3    0    0 -0.55427358337E+02 -0.27891475232E+02  0.49599695539E+02  0.79443415337E+02  0.10000000000E+01 0.  0.
<mgrwt>
<rscale>  0 0.12499155E+03</rscale>
<asrwt>0</asrwt>
<pdfrwt beam="2">  1        4 0.52069618E-02 0.12499155E+03</pdfrwt>
<pdfrwt beam="1">  1       -4 0.17753756E-01 0.12499155E+03</pdfrwt>
<totfact> 0.99473385E+03</totfact>
</mgrwt>
</event>
<event>
 5    1  0.3300771E-002  0.1249998E+03  0.7818608E-02  0.1235070E+00
          4   -1    0    0  501    0  0.00000000000E+00  0.00000000000E+00  0.95523998513E+02  0.95532440521E+02  0.12700000000E+01 0.  1.
         -4   -1    0    0    0  501 -0.00000000000E+00 -0.00000000000E+00 -0.40872620693E+02  0.40892346745E+02  0.12700000000E+01 0.  1.
         25    2    1    2    0    0  0.00000000000E+00  0.00000000000E+00  0.54651377820E+02  0.13642478727E+03  0.12499979793E+03 0.  0.
    9000005    1    3    3    0    0 -0.26712182853E+02  0.56050603256E+02  0.19606277718E+02  0.65120019688E+02  0.10000000000E+01 0.  0.
    9000005    1    3    3    0    0  0.26712182853E+02 -0.56050603256E+02  0.35045100101E+02  0.71304767578E+02  0.10000000000E+01 0.  0.
<mgrwt>
<rscale>  0 0.12499980E+03</rscale>
<asrwt>0</asrwt>
<pdfrwt beam="1">  1        4 0.14698166E-01 0.12499980E+03</pdfrwt>
<pdfrwt beam="2">  1       -4 0.62902623E-02 0.12499980E+03</pdfrwt>
<totfact> 0.10208173E+04</totfact>
</mgrwt>
</event>
<event>
 5    1  0.3300771E-002  0.1249918E+03  0.7818608E-02  0.1235082E+00
         -4   -1    0    0    0  501 -0.00000000000E+00  0.00000000000E+00  0.84971210312E+02  0.84980700644E+02  0.12700000000E+01 0.  1.
          4   -1    0    0  501    0  0.00000000000E+00 -0.00000000000E+00 -0.45944617723E+02  0.45962167026E+02  0.12700000000E+01 0.  1.
         25    2    1    2    0    0  0.00000000000E+00  0.00000000000E+00  0.39026592590E+02  0.13094286767E+03  0.12499183839E+03 0.  0.
    9000005    1    3    3    0    0 -0.14255869183E+02  0.43460411876E+02  0.64116236075E+02  0.78765023551E+02  0.10000000000E+01 0.  0.
    9000005    1    3    3    0    0  0.14255869183E+02 -0.43460411876E+02 -0.25089643485E+02  0.52177844118E+02  0.10000000000E+01 0.  0.
<mgrwt>
<rscale>  0 0.12499184E+03</rscale>
<asrwt>0</asrwt>
<pdfrwt beam="2">  1        4 0.70704827E-02 0.12499184E+03</pdfrwt>
<pdfrwt beam="1">  1       -4 0.13074574E-01 0.12499184E+03</pdfrwt>
<totfact> 0.10326216E+04</totfact>
</mgrwt>
</event>
<event>
 5    1  0.3300771E-002  0.1249987E+03  0.7818608E-02  0.1235071E+00
          4   -1    0    0  501    0  0.00000000000E+00  0.00000000000E+00  0.27628531859E+01  0.30407659770E+01  0.12700000000E+01 0.  1.
         -4   -1    0    0    0  501 -0.00000000000E+00 -0.00000000000E+00 -0.13458357166E+04  0.13458363159E+04  0.12700000000E+01 0.  1.
         25    2    1    2    0    0  0.00000000000E+00  0.00000000000E+00 -0.13430728635E+04  0.13488770818E+04  0.12499866141E+03 0.  0.
    9000005    1    3    3    0    0 -0.25361739473E+02 -0.13393346750E+02 -0.12706694579E+04  0.12709934975E+04  0.10000000000E+01 0.  0.
    9000005    1    3    3    0    0  0.25361739473E+02  0.13393346750E+02 -0.72403405590E+02  0.77883584325E+02  0.10000000000E+01 0.  0.
<mgrwt>
<rscale>  0 0.12499866E+03</rscale>
<asrwt>0</asrwt>
<pdfrwt beam="1">  1        4 0.44647941E-03 0.12499866E+03</pdfrwt>
<pdfrwt beam="2">  1       -4 0.20707257E+00 0.12499866E+03</pdfrwt>
<totfact> 0.21104140E+03</totfact>
</mgrwt>
</event>
<event>
 5    1  0.3300771E-002  0.1249993E+03  0.7818608E-02  0.1235070E+00
         -4   -1    0    0    0  501 -0.00000000000E+00  0.00000000000E+00  0.42814571234E+02  0.42833402969E+02  0.12700000000E+01 0. -1.
          4   -1    0    0  501    0  0.00000000000E+00 -0.00000000000E+00 -0.91192137573E+02  0.91200980560E+02  0.12700000000E+01 0. -1.
         25    2    1    2    0    0  0.00000000000E+00  0.00000000000E+00 -0.48377566340E+02  0.13403438353E+03  0.12499930817E+03 0.  0.
    9000005    1    3    3    0    0  0.53289327030E+02 -0.28989145176E+02 -0.81015714694E+01  0.61210770078E+02  0.10000000000E+01 0.  0.
    9000005    1    3    3    0    0 -0.53289327030E+02  0.28989145176E+02 -0.40275994870E+02  0.72823613451E+02  0.10000000000E+01 0.  0.
<mgrwt>
<rscale>  0 0.12499931E+03</rscale>
<asrwt>0</asrwt>
<pdfrwt beam="2">  1        4 0.14031688E-01 0.12499931E+03</pdfrwt>
<pdfrwt beam="1">  1       -4 0.65889860E-02 0.12499931E+03</pdfrwt>
<totfact> 0.10258624E+04</totfact>
</mgrwt>
</event>
<event>
 5    1  0.3300771E-002  0.1249996E+03  0.7818608E-02  0.1235070E+00
         -4   -1    0    0    0  501 -0.00000000000E+00  0.00000000000E+00  0.33625816642E+03  0.33626056472E+03  0.12700000000E+01 0.  1.
          4   -1    0    0  501    0  0.00000000000E+00 -0.00000000000E+00 -0.11579592338E+02  0.11649028231E+02  0.12700000000E+01 0.  1.
         25    2    1    2    0    0  0.00000000000E+00  0.00000000000E+00  0.32467857408E+03  0.34790959295E+03  0.12499963359E+03 0.  0.
    9000005    1    3    3    0    0 -0.32100732860E+02  0.53575685186E+02  0.15649040984E+03  0.16849646722E+03  0.10000000000E+01 0.  0.
    9000005    1    3    3    0    0  0.32100732860E+02 -0.53575685186E+02  0.16818816424E+03  0.17941312573E+03  0.10000000000E+01 0.  0.
<mgrwt>
<rscale>  0 0.12499963E+03</rscale>
<asrwt>0</asrwt>
<pdfrwt beam="2">  1        4 0.17870014E-02 0.12499963E+03</pdfrwt>
<pdfrwt beam="1">  1       -4 0.51737552E-01 0.12499963E+03</pdfrwt>
<totfact> 0.69955705E+03</totfact>
</mgrwt>
</event>
<event>
 5    1  0.3300771E-002  0.1249929E+03  0.7818608E-02  0.1235080E+00
          4   -1    0    0  501    0  0.00000000000E+00  0.00000000000E+00  0.29069282450E+02  0.29097011567E+02  0.12700000000E+01 0. -1.
         -4   -1    0    0    0  501 -0.00000000000E+00 -0.00000000000E+00 -0.13426725552E+03  0.13427326169E+03  0.12700000000E+01 0. -1.
         25    2    1    2    0    0  0.00000000000E+00  0.00000000000E+00 -0.10519797308E+03  0.16337027326E+03  0.12499293039E+03 0.  0.
    9000005    1    3    3    0    0 -0.50989678997E+02  0.62194047305E+01 -0.99107801753E+02  0.11163325995E+03  0.10000000000E+01 0.  0.
    9000005    1    3    3    0    0  0.50989678997E+02 -0.62194047305E+01 -0.60901713225E+01  0.51737013309E+02  0.10000000000E+01 0.  0.
<mgrwt>
<rscale>  0 0.12499293E+03</rscale>
<asrwt>0</asrwt>
<pdfrwt beam="1">  1        4 0.44747924E-02 0.12499293E+03</pdfrwt>
<pdfrwt beam="2">  1       -4 0.20659096E-01 0.12499293E+03</pdfrwt>
<totfact> 0.96712291E+03</totfact>
</mgrwt>
</event>
<event>
 5    1  0.3300771E-002  0.1250000E+03  0.7818608E-02  0.1235069E+00
         -4   -1    0    0    0  501 -0.00000000000E+00  0.00000000000E+00  0.13108914889E+02  0.13170290413E+02  0.12700000000E+01 0.  1.
          4   -1    0    0  501    0  0.00000000000E+00 -0.00000000000E+00 -0.29722543557E+03  0.29722814881E+03  0.12700000000E+01 0.  1.
         25    2    1    2    0    0  0.00000000000E+00  0.00000000000E+00 -0.28411652068E+03  0.31039843923E+03  0.12499997501E+03 0.  0.
    9000005    1    3    3    0    0 -0.54294866148E+02  0.23825728274E+02 -0.93041196996E+02  0.11033250725E+03  0.10000000000E+01 0.  0.
    9000005    1    3    3    0    0  0.54294866148E+02 -0.23825728274E+02 -0.19107532368E+03  0.20006593198E+03  0.10000000000E+01 0.  0.
<mgrwt>
<rscale>  0 0.12499998E+03</rscale>
<asrwt>0</asrwt>
<pdfrwt beam="2">  1        4 0.45731915E-01 0.12499998E+03</pdfrwt>
<pdfrwt beam="1">  1       -4 0.20216863E-02 0.12499998E+03</pdfrwt>
<totfact> 0.74312763E+03</totfact>
</mgrwt>
</event>
<event>
 5    1  0.3300771E-002  0.1249743E+03  0.7818608E-02  0.1235109E+00
         -4   -1    0    0    0  501 -0.00000000000E+00  0.00000000000E+00  0.35797710432E+02  0.35820231325E+02  0.12700000000E+01 0.  1.
          4   -1    0    0  501    0  0.00000000000E+00 -0.00000000000E+00 -0.10901473538E+03  0.10902213275E+03  0.12700000000E+01 0.  1.
         25    2    1    2    0    0  0.00000000000E+00  0.00000000000E+00 -0.73217024950E+02  0.14484236408E+03  0.12497430812E+03 0.  0.
    9000005    1    3    3    0    0  0.42251545393E+02 -0.39464096509E+02 -0.64060284984E+02  0.86297903298E+02  0.10000000000E+01 0.  0.
    9000005    1    3    3    0    0 -0.42251545393E+02  0.39464096509E+02 -0.91567399659E+01  0.58544460781E+02  0.10000000000E+01 0.  0.
<mgrwt>
<rscale>  0 0.12497431E+03</rscale>
<asrwt>0</asrwt>
<pdfrwt beam="2">  1        4 0.16773799E-01 0.12497431E+03</pdfrwt>
<pdfrwt beam="1">  1       -4 0.55096415E-02 0.12497431E+03</pdfrwt>
<totfact> 0.10040000E+04</totfact>
</mgrwt>
</event>
<event>
 5    1  0.3300771E-002  0.1250017E+03  0.7818608E-02  0.1235067E+00
          4   -1    0    0  501    0  0.00000000000E+00  0.00000000000E+00  0.73833328636E+02  0.73844250403E+02  0.12700000000E+01 0. -1.
         -4   -1    0    0    0  501 -0.00000000000E+00 -0.00000000000E+00 -0.52885318743E+02  0.52900565579E+02  0.12700000000E+01 0. -1.
         25    2    1    2    0    0  0.00000000000E+00  0.00000000000E+00  0.20948009893E+02  0.12674481598E+03  0.12500171703E+03 0.  0.
    9000005    1    3    3    0    0  0.15111292094E+02 -0.58848267105E+02 -0.43548308348E+01  0.60921541687E+02  0.10000000000E+01 0.  0.
    9000005    1    3    3    0    0 -0.15111292094E+02  0.58848267105E+02  0.25302840728E+02  0.65823274295E+02  0.10000000000E+01 0.  0.
<mgrwt>
<rscale>  0 0.12500172E+03</rscale>
<asrwt>0</asrwt>
<pdfrwt beam="1">  1        4 0.11360987E-01 0.12500172E+03</pdfrwt>
<pdfrwt beam="2">  1       -4 0.81382159E-02 0.12500172E+03</pdfrwt>
<totfact> 0.10414291E+04</totfact>
</mgrwt>
</event>
<event>
 5    1  0.3300771E-002  0.1249987E+03  0.7818608E-02  0.1235071E+00
         -4   -1    0    0    0  501 -0.00000000000E+00  0.00000000000E+00  0.83889597674E+01  0.84845474822E+01  0.12700000000E+01 0. -1.
          4   -1    0    0  501    0  0.00000000000E+00 -0.00000000000E+00 -0.46289771438E+03  0.46289945655E+03  0.12700000000E+01 0. -1.
         25    2    1    2    0    0  0.00000000000E+00  0.00000000000E+00 -0.45450875461E+03  0.47138400404E+03  0.12499868496E+03 0.  0.
    9000005    1    3    3    0    0  0.58262841461E+02 -0.12340692470E+02 -0.15587006911E+03  0.16686320694E+03  0.10000000000E+01 0.  0.
    9000005    1    3    3    0    0 -0.58262841461E+02  0.12340692470E+02 -0.29863868551E+03  0.30452079710E+03  0.10000000000E+01 0.  0.
<mgrwt>
<rscale>  0 0.12499868E+03</rscale>
<asrwt>0</asrwt>
<pdfrwt beam="2">  1        4 0.71222500E-01 0.12499868E+03</pdfrwt>
<pdfrwt beam="1">  1       -4 0.12980965E-02 0.12499868E+03</pdfrwt>
<totfact> 0.58156739E+03</totfact>
</mgrwt>
</event>
<event>
 5    1  0.3300771E-002  0.1249922E+03  0.7818608E-02  0.1235081E+00
          4   -1    0    0  501    0  0.00000000000E+00  0.00000000000E+00  0.68662935558E+02  0.68674679609E+02  0.12700000000E+01 0.  1.
         -4   -1    0    0    0  501 -0.00000000000E+00 -0.00000000000E+00 -0.56859462671E+02  0.56873644118E+02  0.12700000000E+01 0.  1.
         25    2    1    2    0    0  0.00000000000E+00  0.00000000000E+00  0.11803472886E+02  0.12554832373E+03  0.12499223823E+03 0.  0.
    9000005    1    3    3    0    0 -0.23457928487E+02  0.78105019959E+01 -0.51742490712E+02  0.57354718162E+02  0.10000000000E+01 0.  0.
    9000005    1    3    3    0    0  0.23457928487E+02 -0.78105019959E+01  0.63545963599E+02  0.68193605565E+02  0.10000000000E+01 0.  0.
<mgrwt>
<rscale>  0 0.12499224E+03</rscale>
<asrwt>0</asrwt>
<pdfrwt beam="1">  1        4 0.10565523E-01 0.12499224E+03</pdfrwt>
<pdfrwt beam="2">  1       -4 0.87496039E-02 0.12499224E+03</pdfrwt>
<totfact> 0.10442715E+04</totfact>
</mgrwt>
</event>
<event>
 5    1  0.3300771E-002  0.1249892E+03  0.7818608E-02  0.1235086E+00
         -4   -1    0    0    0  501 -0.00000000000E+00  0.00000000000E+00  0.40693023273E+03  0.40693221451E+03  0.12700000000E+01 0. -1.
          4   -1    0    0  501    0  0.00000000000E+00 -0.00000000000E+00 -0.95536215887E+01  0.96376649381E+01  0.12700000000E+01 0. -1.
         25    2    1    2    0    0  0.00000000000E+00  0.00000000000E+00  0.39737661114E+03  0.41656987945E+03  0.12498917307E+03 0.  0.
    9000005    1    3    3    0    0  0.41009147213E+02 -0.44860410767E+02  0.24702801161E+03  0.25439741573E+03  0.10000000000E+01 0.  0.
    9000005    1    3    3    0    0 -0.41009147213E+02  0.44860410767E+02  0.15034859953E+03  0.16217246372E+03  0.10000000000E+01 0.  0.
<mgrwt>
<rscale>  0 0.12498917E+03</rscale>
<asrwt>0</asrwt>
<pdfrwt beam="2">  1        4 0.14764053E-02 0.12498917E+03</pdfrwt>
<pdfrwt beam="1">  1       -4 0.62611265E-01 0.12498917E+03</pdfrwt>
<totfact> 0.62987552E+03</totfact>
</mgrwt>
</event>
<event>
 5    1  0.3300771E-002  0.1250565E+03  0.7818608E-02  0.1234981E+00
         -4   -1    0    0    0  501 -0.00000000000E+00  0.00000000000E+00  0.16490673179E+03  0.16491162206E+03  0.12700000000E+01 0. -1.
          4   -1    0    0  501    0  0.00000000000E+00 -0.00000000000E+00 -0.23686794428E+02  0.23720816392E+02  0.12700000000E+01 0. -1.
         25    2    1    2    0    0  0.00000000000E+00  0.00000000000E+00  0.14121993737E+03  0.18863243845E+03  0.12505649174E+03 0.  0.
    9000005    1    3    3    0    0  0.45230703545E+02  0.41219586134E+02  0.89921370499E+02  0.10877372705E+03  0.10000000000E+01 0.  0.
    9000005    1    3    3    0    0 -0.45230703545E+02 -0.41219586134E+02  0.51298566867E+02  0.79858711402E+02  0.10000000000E+01 0.  0.
<mgrwt>
<rscale>  0 0.12505649E+03</rscale>
<asrwt>0</asrwt>
<pdfrwt beam="2">  1        4 0.36471155E-02 0.12505649E+03</pdfrwt>
<pdfrwt beam="1">  1       -4 0.25373260E-01 0.12505649E+03</pdfrwt>
<totfact> 0.91969367E+03</totfact>
</mgrwt>
</event>
<event>
 5    1  0.3300771E-002  0.1250004E+03  0.7818608E-02  0.1235069E+00
          4   -1    0    0  501    0  0.00000000000E+00  0.00000000000E+00  0.60766586633E+01  0.62079530048E+01  0.12700000000E+01 0.  1.
         -4   -1    0    0    0  501 -0.00000000000E+00 -0.00000000000E+00 -0.63583056055E+03  0.63583182889E+03  0.12700000000E+01 0.  1.
         25    2    1    2    0    0  0.00000000000E+00  0.00000000000E+00 -0.62975390189E+03  0.64203978190E+03  0.12500041837E+03 0.  0.
    9000005    1    3    3    0    0 -0.37081017742E+02 -0.42077236892E+02 -0.17329936040E+03  0.18215148656E+03  0.10000000000E+01 0.  0.
    9000005    1    3    3    0    0  0.37081017742E+02  0.42077236892E+02 -0.45645454149E+03  0.45988829534E+03  0.10000000000E+01 0.  0.
<mgrwt>
<rscale>  0 0.12500042E+03</rscale>
<asrwt>0</asrwt>
<pdfrwt beam="1">  1        4 0.94506819E-03 0.12500042E+03</pdfrwt>
<pdfrwt beam="2">  1       -4 0.97830231E-01 0.12500042E+03</pdfrwt>
<totfact> 0.46316612E+03</totfact>
</mgrwt>
</event>
<event>
 5    1  0.3300771E-002  0.1249985E+03  0.7818608E-02  0.1235072E+00
         -4   -1    0    0    0  501 -0.00000000000E+00  0.00000000000E+00  0.90289367991E+02  0.90298299387E+02  0.12700000000E+01 0. -1.
          4   -1    0    0  501    0  0.00000000000E+00 -0.00000000000E+00 -0.43242232890E+02  0.43260878462E+02  0.12700000000E+01 0. -1.
         25    2    1    2    0    0  0.00000000000E+00  0.00000000000E+00  0.47047135100E+02  0.13355917785E+03  0.12499848426E+03 0.  0.
    9000005    1    3    3    0    0 -0.24593463759E+02  0.50875155417E+02  0.52035048327E+02  0.76822953294E+02  0.10000000000E+01 0.  0.
    9000005    1    3    3    0    0  0.24593463759E+02 -0.50875155417E+02 -0.49879132269E+01  0.56736224555E+02  0.10000000000E+01 0.  0.
<mgrwt>
<rscale>  0 0.12499848E+03</rscale>
<asrwt>0</asrwt>
<pdfrwt beam="2">  1        4 0.66547725E-02 0.12499848E+03</pdfrwt>
<pdfrwt beam="1">  1       -4 0.13892793E-01 0.12499848E+03</pdfrwt>
<totfact> 0.10268881E+04</totfact>
</mgrwt>
</event>
<event>
 5    1  0.3300771E-002  0.1250218E+03  0.7818608E-02  0.1235035E+00
         -4   -1    0    0    0  501 -0.00000000000E+00  0.00000000000E+00  0.17530074158E+02  0.17576017751E+02  0.12700000000E+01 0. -1.
          4   -1    0    0  501    0  0.00000000000E+00 -0.00000000000E+00 -0.22256946712E+03  0.22257309046E+03  0.12700000000E+01 0. -1.
         25    2    1    2    0    0  0.00000000000E+00  0.00000000000E+00 -0.20503939296E+03  0.24014910821E+03  0.12502176413E+03 0.  0.
    9000005    1    3    3    0    0 -0.13790756246E+02  0.60287764420E+02 -0.85145653681E+02  0.10524059026E+03  0.10000000000E+01 0.  0.
    9000005    1    3    3    0    0  0.13790756246E+02 -0.60287764420E+02 -0.11989373928E+03  0.13490851795E+03  0.10000000000E+01 0.  0.
<mgrwt>
<rscale>  0 0.12502176E+03</rscale>
<asrwt>0</asrwt>
<pdfrwt beam="2">  1        4 0.34245267E-01 0.12502176E+03</pdfrwt>
<pdfrwt beam="1">  1       -4 0.27007475E-02 0.12502176E+03</pdfrwt>
<totfact> 0.83734532E+03</totfact>
</mgrwt>
</event>
<event>
 5    1  0.3300771E-002  0.1250123E+03  0.7818608E-02  0.1235050E+00
          4   -1    0    0  501    0  0.00000000000E+00  0.00000000000E+00  0.44085526982E+02  0.44103816040E+02  0.12700000000E+01 0. -1.
         -4   -1    0    0    0  501 -0.00000000000E+00 -0.00000000000E+00 -0.88582440241E+02  0.88591543722E+02  0.12700000000E+01 0. -1.
         25    2    1    2    0    0  0.00000000000E+00  0.00000000000E+00 -0.44496913259E+02  0.13269535976E+03  0.12501233224E+03 0.  0.
    9000005    1    3    3    0    0 -0.40620751575E+02 -0.46946409136E+02 -0.29903477229E+02  0.68914648223E+02  0.10000000000E+01 0.  0.
    9000005    1    3    3    0    0  0.40620751575E+02  0.46946409136E+02 -0.14593436029E+02  0.63780711539E+02  0.10000000000E+01 0.  0.
<mgrwt>
<rscale>  0 0.12501233E+03</rscale>
<asrwt>0</asrwt>
<pdfrwt beam="1">  1        4 0.67844959E-02 0.12501233E+03</pdfrwt>
<pdfrwt beam="2">  1       -4 0.13630175E-01 0.12501233E+03</pdfrwt>
<totfact> 0.10284018E+04</totfact>
</mgrwt>
</event>
<event>
 5    1  0.3300771E-002  0.1249986E+03  0.7818608E-02  0.1235071E+00
         -4   -1    0    0    0  501 -0.00000000000E+00  0.00000000000E+00  0.24926818827E+02  0.24959150564E+02  0.12700000000E+01 0. -1.
          4   -1    0    0  501    0  0.00000000000E+00 -0.00000000000E+00 -0.15656877730E+03  0.15657392799E+03  0.12700000000E+01 0. -1.
         25    2    1    2    0    0  0.00000000000E+00  0.00000000000E+00 -0.13164195847E+03  0.18153307855E+03  0.12499861350E+03 0.  0.
    9000005    1    3    3    0    0 -0.46637728895E+02 -0.27441004309E+02 -0.11121670286E+03  0.12368606012E+03  0.10000000000E+01 0.  0.
    9000005    1    3    3    0    0  0.46637728895E+02  0.27441004309E+02 -0.20425255612E+02  0.57847018426E+02  0.10000000000E+01 0.  0.
<mgrwt>
<rscale>  0 0.12499861E+03</rscale>
<asrwt>0</asrwt>
<pdfrwt beam="2">  1        4 0.24090387E-01 0.12499861E+03</pdfrwt>
<pdfrwt beam="1">  1       -4 0.38377786E-02 0.12499861E+03</pdfrwt>
<totfact> 0.93344671E+03</totfact>
</mgrwt>
</event>
<event>
 5    1  0.3300771E-002  0.1250010E+03  0.7818608E-02  0.1235068E+00
          4   -1    0    0  501    0  0.00000000000E+00  0.00000000000E+00  0.10442003886E+02  0.10518951714E+02  0.12700000000E+01 0. -1.
         -4   -1    0    0    0  501 -0.00000000000E+00 -0.00000000000E+00 -0.37264483902E+03  0.37264700314E+03  0.12700000000E+01 0. -1.
         25    2    1    2    0    0  0.00000000000E+00  0.00000000000E+00 -0.36220283513E+03  0.38316595485E+03  0.12500102071E+03 0.  0.
    9000005    1    3    3    0    0 -0.47064726623E+02  0.36692302119E+02 -0.23794606954E+03  0.24531764212E+03  0.10000000000E+01 0.  0.
    9000005    1    3    3    0    0  0.47064726623E+02 -0.36692302119E+02 -0.12425676559E+03  0.13784831273E+03  0.10000000000E+01 0.  0.
<mgrwt>
<rscale>  0 0.12500102E+03</rscale>
<asrwt>0</asrwt>
<pdfrwt beam="1">  1        4 0.16125480E-02 0.12500102E+03</pdfrwt>
<pdfrwt beam="2">  1       -4 0.57336050E-01 0.12500102E+03</pdfrwt>
<totfact> 0.66222166E+03</totfact>
</mgrwt>
</event>
<event>
 5    1  0.3300771E-002  0.1249981E+03  0.7818608E-02  0.1235072E+00
          4   -1    0    0  501    0  0.00000000000E+00  0.00000000000E+00  0.42892371773E+02  0.42911169366E+02  0.12700000000E+01 0. -1.
         -4   -1    0    0    0  501 -0.00000000000E+00 -0.00000000000E+00 -0.91024957169E+02  0.91033816396E+02  0.12700000000E+01 0. -1.
         25    2    1    2    0    0  0.00000000000E+00  0.00000000000E+00 -0.48132585396E+02  0.13394498576E+03  0.12499805372E+03 0.  0.
    9000005    1    3    3    0    0  0.45796508271E+02  0.27282974227E+02 -0.59010986393E+02  0.79529726314E+02  0.10000000000E+01 0.  0.
    9000005    1    3    3    0    0 -0.45796508271E+02 -0.27282974227E+02  0.10878400997E+02  0.54415259448E+02  0.10000000000E+01 0.  0.
<mgrwt>
<rscale>  0 0.12499805E+03</rscale>
<asrwt>0</asrwt>
<pdfrwt beam="1">  1        4 0.66009539E-02 0.12499805E+03</pdfrwt>
<pdfrwt beam="2">  1       -4 0.14005967E-01 0.12499805E+03</pdfrwt>
<totfact> 0.10260806E+04</totfact>
</mgrwt>
</event>
