<event>
 6    4  0.6325740E-003  0.1274290E+03  0.7818608E-02  0.1231321E+00
          4   -1    0    0  502    0 -0.00000000000E+00  0.00000000000E+00  0.38240609630E+02  0.38261692656E+02  0.12700000000E+01 0. -1.
         21   -1    0    0  501  502  0.00000000000E+00 -0.00000000000E+00 -0.30997294019E+03  0.30997294019E+03  0.00000000000E+00 0. -1.
         25    2    1    2    0    0 -0.76013085424E+01  0.23563235393E+02 -0.70795717400E+02  0.14577441117E+03  0.12500055758E+03 0.  0.
    9000005    1    3    3    0    0  0.35816719358E+02 -0.89954127376E+01  0.18469349751E+02  0.41302199895E+02  0.10000000000E+01 0.  0.
    9000005    1    3    3    0    0 -0.43418027901E+02  0.32558648131E+02 -0.89265067152E+02  0.10447221127E+03  0.10000000000E+01 0.  0.
          4    1    1    2  501    0  0.76013085424E+01 -0.23563235393E+02 -0.20093661316E+03  0.20246022168E+03  0.12700000000E+01 0.  1.
<mgrwt>
<rscale>  1 0.12742898E+03</rscale>
<asrwt>0</asrwt>
<pdfrwt beam="2">  1       21 0.47688147E-01 0.12742898E+03</pdfrwt>
<pdfrwt beam="1">  1        4 0.58849923E-02 0.12742898E+03</pdfrwt>
<totfact> 0.31280603E+04</totfact>
</mgrwt>
</event>
<event>
 6    4  0.6325740E-003  0.1352506E+03  0.7818608E-02  0.1219866E+00
         -4   -1    0    0    0  501 -0.00000000000E+00  0.00000000000E+00  0.20204535133E+03  0.20204934272E+03  0.12700000000E+01 0. -1.
         21   -1    0    0  501  502  0.00000000000E+00 -0.00000000000E+00 -0.69298803231E+02  0.69298803231E+02  0.00000000000E+00 0. -1.
         25    2    1    2    0    0 -0.26391932835E+02 -0.44402987813E+02  0.16273843604E+03  0.21160464683E+03  0.12499827419E+03 0.  0.
    9000005    1    3    3    0    0 -0.74472368509E+01 -0.10207043226E+02  0.17113819464E+03  0.17160689593E+03  0.10000000000E+01 0.  0.
    9000005    1    3    3    0    0 -0.18944695984E+02 -0.34195944587E+02 -0.83997586000E+01  0.39997750895E+02  0.10000000000E+01 0.  0.
         -4    1    1    2    0  502  0.26391932835E+02  0.44402987813E+02 -0.29991887938E+02  0.59743499124E+02  0.12700000000E+01 0.  1.
<mgrwt>
<rscale>  1 0.13525061E+03</rscale>
<asrwt>0</asrwt>
<pdfrwt beam="2">  1       21 0.10661354E-01 0.13525061E+03</pdfrwt>
<pdfrwt beam="1">  1       -4 0.31085102E-01 0.13525061E+03</pdfrwt>
<totfact> 0.29230550E+04</totfact>
</mgrwt>
</event>
<event>
 6    4  0.6325740E-003  0.1290653E+03  0.7818608E-02  0.1228849E+00
         21   -1    0    0  501  502  0.00000000000E+00  0.00000000000E+00  0.45967691153E+03  0.45967691153E+03  0.00000000000E+00 0.  1.
          4   -1    0    0  502    0 -0.00000000000E+00 -0.00000000000E+00 -0.27871892302E+02  0.27900811467E+02  0.12700000000E+01 0. -1.
         25    2    1    2    0    0  0.23437595624E+02  0.21984524644E+02  0.12696784274E+03  0.18104883809E+03  0.12500083389E+03 0.  0.
    9000005    1    3    3    0    0  0.27613608389E+02  0.48436550619E+02  0.47929878334E+01  0.55969487549E+02  0.10000000000E+01 0.  0.
    9000005    1    3    3    0    0 -0.41760127651E+01 -0.26452025975E+02  0.12217485491E+03  0.12507935055E+03  0.10000000000E+01 0.  0.
          4    1    1    2  501    0 -0.23437595624E+02 -0.21984524644E+02  0.30483717649E+03  0.30652888491E+03  0.12700000000E+01 0.  1.
<mgrwt>
<rscale>  1 0.12906529E+03</rscale>
<asrwt>0</asrwt>
<pdfrwt beam="1">  1       21 0.70719519E-01 0.12906529E+03</pdfrwt>
<pdfrwt beam="2">  1        4 0.42903433E-02 0.12906529E+03</pdfrwt>
<totfact> 0.22629090E+04</totfact>
</mgrwt>
</event>
<event>
 6    4  0.6325740E-003  0.1395998E+03  0.7818608E-02  0.1213869E+00
          4   -1    0    0  502    0 -0.00000000000E+00  0.00000000000E+00  0.50859604913E+03  0.50859763477E+03  0.12700000000E+01 0. -1.
         21   -1    0    0  501  502  0.00000000000E+00 -0.00000000000E+00 -0.36066919356E+02  0.36066919356E+02  0.00000000000E+00 0.  1.
         25    2    1    2    0    0 -0.19783472982E+02 -0.58928715097E+02  0.46068606021E+03  0.48137276585E+03  0.12499645741E+03 0.  0.
    9000005    1    3    3    0    0 -0.19321530115E+02  0.37493990834E+02  0.16770061179E+03  0.17292662047E+03  0.10000000000E+01 0.  0.
    9000005    1    3    3    0    0 -0.46194286685E+00 -0.96422705931E+02  0.29298544842E+03  0.30844614538E+03  0.10000000000E+01 0.  0.
          4    1    1    2  501    0  0.19783472982E+02  0.58928715097E+02  0.11843069566E+02  0.63291788274E+02  0.12700000000E+01 0.  1.
<mgrwt>
<rscale>  1 0.13959976E+03</rscale>
<asrwt>0</asrwt>
<pdfrwt beam="2">  1       21 0.55487572E-02 0.13959976E+03</pdfrwt>
<pdfrwt beam="1">  1        4 0.78247383E-01 0.13959976E+03</pdfrwt>
<totfact> 0.13759932E+04</totfact>
</mgrwt>
</event>
<event>
 6    4  0.6325740E-003  0.1267486E+03  0.7818608E-02  0.1232362E+00
         -4   -1    0    0    0  501 -0.00000000000E+00  0.00000000000E+00  0.41524502918E+01  0.43423200511E+01  0.12700000000E+01 0. -1.
         21   -1    0    0  501  502  0.00000000000E+00 -0.00000000000E+00 -0.16834451925E+04  0.16834451925E+04  0.00000000000E+00 0.  1.
         25    2    1    2    0    0 -0.34765543957E+01 -0.20699381599E+02 -0.97793657109E+03  0.98611619170E+03  0.12499862256E+03 0.  0.
    9000005    1    3    3    0    0  0.81462129167E+01 -0.54817418532E+02 -0.20566408732E+03  0.21300241072E+03  0.10000000000E+01 0.  0.
    9000005    1    3    3    0    0 -0.11622767312E+02  0.34118036933E+02 -0.77227248377E+03  0.77311378099E+03  0.10000000000E+01 0.  0.
         -4    1    1    2    0  502  0.34765543957E+01  0.20699381599E+02 -0.70135617110E+03  0.70167132083E+03  0.12700000000E+01 0.  1.
<mgrwt>
<rscale>  1 0.12674860E+03</rscale>
<asrwt>0</asrwt>
<pdfrwt beam="2">  1       21 0.25899167E+00 0.12674860E+03</pdfrwt>
<pdfrwt beam="1">  1       -4 0.65348045E-03 0.12674860E+03</pdfrwt>
<totfact> 0.13929918E+04</totfact>
</mgrwt>
</event>
<event>
 6    4  0.6325740E-003  0.1289847E+03  0.7818608E-02  0.1228970E+00
         -4   -1    0    0    0  501 -0.00000000000E+00  0.00000000000E+00  0.33182611765E+02  0.33206906263E+02  0.12700000000E+01 0.  1.
         21   -1    0    0  501  502  0.00000000000E+00 -0.00000000000E+00 -0.20474581776E+03  0.20474581776E+03  0.00000000000E+00 0.  1.
         25    2    1    2    0    0 -0.10078295608E+02  0.30160893016E+02 -0.11383630879E+03  0.17203414493E+03  0.12500316120E+03 0.  0.
    9000005    1    3    3    0    0 -0.20370861055E+02  0.53138874825E+02 -0.15334135750E+01  0.56939119724E+02  0.10000000000E+01 0.  0.
    9000005    1    3    3    0    0  0.10292565447E+02 -0.22977981809E+02 -0.11230289522E+03  0.11509502520E+03  0.10000000000E+01 0.  0.
         -4    1    1    2    0  502  0.10078295608E+02 -0.30160893016E+02 -0.57726897198E+02  0.65918579096E+02  0.12700000000E+01 0. -1.
<mgrwt>
<rscale>  1 0.12898466E+03</rscale>
<asrwt>0</asrwt>
<pdfrwt beam="2">  1       21 0.31499356E-01 0.12898466E+03</pdfrwt>
<pdfrwt beam="1">  1       -4 0.51071890E-02 0.12898466E+03</pdfrwt>
<totfact> 0.89938142E+04</totfact>
</mgrwt>
</event>
<event>
 6    4  0.6325740E-003  0.1293823E+03  0.7818608E-02  0.1228375E+00
         21   -1    0    0  501  502  0.00000000000E+00  0.00000000000E+00  0.52058260531E+03  0.52058260531E+03  0.00000000000E+00 0.  1.
          4   -1    0    0  502    0 -0.00000000000E+00 -0.00000000000E+00 -0.12698539509E+02  0.12761888797E+02  0.12700000000E+01 0.  1.
         25    2    1    2    0    0 -0.19532558005E+02 -0.27108424760E+02  0.40413485624E+03  0.42434037079E+03  0.12499352279E+03 0.  0.
    9000005    1    3    3    0    0 -0.61001985194E+02 -0.51505635700E+02  0.22073798263E+03  0.23473459413E+03  0.10000000000E+01 0.  0.
    9000005    1    3    3    0    0  0.41469427189E+02  0.24397210940E+02  0.18339687361E+03  0.18960577666E+03  0.10000000000E+01 0.  0.
          4    1    1    2  501    0  0.19532558005E+02  0.27108424760E+02  0.10374920956E+03  0.10900412332E+03  0.12700000000E+01 0. -1.
<mgrwt>
<rscale>  1 0.12938226E+03</rscale>
<asrwt>0</asrwt>
<pdfrwt beam="1">  1       21 0.80089615E-01 0.12938226E+03</pdfrwt>
<pdfrwt beam="2">  1        4 0.19586141E-02 0.12938226E+03</pdfrwt>
<totfact> 0.58583319E+04</totfact>
</mgrwt>
</event>
<event>
 6    4  0.6325740E-003  0.1279774E+03  0.7818608E-02  0.1230488E+00
          4   -1    0    0  502    0 -0.00000000000E+00  0.00000000000E+00  0.13010082113E+03  0.13010701964E+03  0.12700000000E+01 0. -1.
         21   -1    0    0  501  502  0.00000000000E+00 -0.00000000000E+00 -0.47639361419E+02  0.47639361419E+02  0.00000000000E+00 0. -1.
         25    2    1    2    0    0  0.22972551028E+02  0.15033866840E+02  0.56341911099E+02  0.13983069865E+03  0.12499783232E+03 0.  0.
    9000005    1    3    3    0    0  0.17656716698E+02  0.38199839778E+02  0.89567789173E+02  0.98966541118E+02  0.10000000000E+01 0.  0.
    9000005    1    3    3    0    0  0.53158343308E+01 -0.23165972938E+02 -0.33225878073E+02  0.40864157529E+02  0.10000000000E+01 0.  0.
          4    1    1    2  501    0 -0.22972551028E+02 -0.15033866840E+02  0.26119548614E+02  0.37915682411E+02  0.12700000000E+01 0.  1.
<mgrwt>
<rscale>  1 0.12797739E+03</rscale>
<asrwt>0</asrwt>
<pdfrwt beam="2">  1       21 0.73291326E-02 0.12797739E+03</pdfrwt>
<pdfrwt beam="1">  1        4 0.20017290E-01 0.12797739E+03</pdfrwt>
<totfact> 0.12534223E+05</totfact>
</mgrwt>
</event>
<event>
 6    4  0.6325740E-003  0.1296837E+03  0.7818608E-02  0.1227926E+00
         21   -1    0    0  501  502  0.00000000000E+00  0.00000000000E+00  0.26557524458E+03  0.26557524458E+03  0.00000000000E+00 0.  1.
         -4   -1    0    0    0  501 -0.00000000000E+00 -0.00000000000E+00 -0.31912841910E+02  0.31938102304E+02  0.12700000000E+01 0. -1.
         25    2    1    2    0    0 -0.14887675217E+02  0.31172701034E+02  0.11303803853E+03  0.17203334733E+03  0.12499797709E+03 0.  0.
    9000005    1    3    3    0    0 -0.20720178518E+02 -0.51758867589E+01 -0.22820895612E+02  0.31271534630E+02  0.10000000000E+01 0.  0.
    9000005    1    3    3    0    0  0.58325033018E+01  0.36348587793E+02  0.13585893414E+03  0.14076181270E+03  0.10000000000E+01 0.  0.
         -4    1    1    2    0  502  0.14887675217E+02 -0.31172701034E+02  0.12062436414E+03  0.12547999955E+03  0.12700000000E+01 0.  1.
<mgrwt>
<rscale>  1 0.12968375E+03</rscale>
<asrwt>0</asrwt>
<pdfrwt beam="1">  1       21 0.40857728E-01 0.12968375E+03</pdfrwt>
<pdfrwt beam="2">  1       -4 0.49118449E-02 0.12968375E+03</pdfrwt>
<totfact> 0.57378824E+04</totfact>
</mgrwt>
</event>
<event>
 6    4  0.6325740E-003  0.1284591E+03  0.7818608E-02  0.1229760E+00
         21   -1    0    0  501  502  0.00000000000E+00  0.00000000000E+00  0.18332112425E+03  0.18332112425E+03  0.00000000000E+00 0. -1.
          4   -1    0    0  502    0 -0.00000000000E+00 -0.00000000000E+00 -0.40893311296E+02  0.40913027372E+02  0.12700000000E+01 0.  1.
         25    2    1    2    0    0 -0.28893264114E+02  0.66037993831E+01  0.70735809430E+02  0.14664686435E+03  0.12499326866E+03 0.  0.
    9000005    1    3    3    0    0  0.17610359250E+02  0.47305783824E+02  0.68111774546E+02  0.84783110157E+02  0.10000000000E+01 0.  0.
    9000005    1    3    3    0    0 -0.46503623364E+02 -0.40701984441E+02  0.26240348834E+01  0.61863754190E+02  0.10000000000E+01 0.  0.
          4    1    1    2  501    0  0.28893264114E+02 -0.66037993831E+01  0.71692003529E+02  0.77587287280E+02  0.12700000000E+01 0. -1.
<mgrwt>
<rscale>  1 0.12845913E+03</rscale>
<asrwt>0</asrwt>
<pdfrwt beam="1">  1       21 0.28203249E-01 0.12845913E+03</pdfrwt>
<pdfrwt beam="2">  1        4 0.62931338E-02 0.12845913E+03</pdfrwt>
<totfact> 0.79346391E+04</totfact>
</mgrwt>
</event>
<event>
 6    4  0.6325740E-003  0.1315343E+03  0.7818608E-02  0.1225197E+00
          4   -1    0    0  502    0 -0.00000000000E+00  0.00000000000E+00  0.18468876610E+02  0.18512490465E+02  0.12700000000E+01 0. -1.
         21   -1    0    0  501  502  0.00000000000E+00 -0.00000000000E+00 -0.41369047643E+03  0.41369047643E+03  0.00000000000E+00 0. -1.
         25    2    1    2    0    0  0.37331494944E+02  0.16786439848E+02 -0.26773835820E+03  0.29830369553E+03  0.12500336491E+03 0.  0.
    9000005    1    3    3    0    0 -0.40083995039E+02  0.36753722903E+01 -0.37423012674E+02  0.54970145510E+02  0.10000000000E+01 0.  0.
    9000005    1    3    3    0    0  0.77415489983E+02  0.13111067558E+02 -0.23031534553E+03  0.24333355002E+03  0.10000000000E+01 0.  0.
          4    1    1    2  501    0 -0.37331494944E+02 -0.16786439848E+02 -0.12748324162E+03  0.13389927136E+03  0.12700000000E+01 0.  1.
<mgrwt>
<rscale>  1 0.13153428E+03</rscale>
<asrwt>0</asrwt>
<pdfrwt beam="2">  1       21 0.63644689E-01 0.13153428E+03</pdfrwt>
<pdfrwt beam="1">  1        4 0.28448705E-02 0.13153428E+03</pdfrwt>
<totfact> 0.54436054E+04</totfact>
</mgrwt>
</event>
<event>
 6    4  0.6325740E-003  0.1334439E+03  0.7818608E-02  0.1222433E+00
         -4   -1    0    0    0  501 -0.00000000000E+00  0.00000000000E+00  0.90518632195E+02  0.90527540972E+02  0.12700000000E+01 0.  1.
         21   -1    0    0  501  502  0.00000000000E+00 -0.00000000000E+00 -0.20153230375E+03  0.20153230375E+03  0.00000000000E+00 0. -1.
         25    2    1    2    0    0  0.36332114815E+01 -0.46531432025E+02  0.35666263165E+02  0.13812807236E+03  0.12501562964E+03 0.  0.
    9000005    1    3    3    0    0 -0.34924654759E+02 -0.42617516435E+01  0.64930114078E+02  0.73856710943E+02  0.10000000000E+01 0.  0.
    9000005    1    3    3    0    0  0.38557866240E+02 -0.42269680382E+02 -0.29263850914E+02  0.64271361420E+02  0.10000000000E+01 0.  0.
         -4    1    1    2    0  502 -0.36332114815E+01  0.46531432025E+02 -0.14667993472E+03  0.15393177236E+03  0.12700000000E+01 0. -1.
<mgrwt>
<rscale>  1 0.13344393E+03</rscale>
<asrwt>0</asrwt>
<pdfrwt beam="2">  1       21 0.31004969E-01 0.13344393E+03</pdfrwt>
<pdfrwt beam="1">  1       -4 0.13926937E-01 0.13344393E+03</pdfrwt>
<totfact> 0.17523697E+04</totfact>
</mgrwt>
</event>
<event>
 6    4  0.6325740E-003  0.1271070E+03  0.7818608E-02  0.1231813E+00
         21   -1    0    0  501  502  0.00000000000E+00  0.00000000000E+00  0.65580717796E+02  0.65580717796E+02  0.00000000000E+00 0. -1.
          4   -1    0    0  502    0 -0.00000000000E+00 -0.00000000000E+00 -0.90686538039E+02  0.90695430324E+02  0.12700000000E+01 0. -1.
         25    2    1    2    0    0  0.20081089610E+02  0.11344145019E+02 -0.33916200379E+02  0.13155418452E+03  0.12499702009E+03 0.  0.
    9000005    1    3    3    0    0 -0.98796419471E+01  0.13089476215E+02 -0.77169577759E+02  0.78899210668E+02  0.10000000000E+01 0.  0.
    9000005    1    3    3    0    0  0.29960731557E+02 -0.17453311963E+01  0.43253377380E+02  0.52654973851E+02  0.10000000000E+01 0.  0.
          4    1    1    2  501    0 -0.20081089610E+02 -0.11344145019E+02  0.88103801349E+01  0.24721963600E+02  0.12700000000E+01 0.  1.
<mgrwt>
<rscale>  1 0.12710702E+03</rscale>
<asrwt>0</asrwt>
<pdfrwt beam="1">  1       21 0.10089341E-01 0.12710702E+03</pdfrwt>
<pdfrwt beam="2">  1        4 0.13953405E-01 0.12710702E+03</pdfrwt>
<totfact> 0.13601407E+05</totfact>
</mgrwt>
</event>
<event>
 6    4  0.6325740E-003  0.1280838E+03  0.7818608E-02  0.1230327E+00
          4   -1    0    0  502    0 -0.00000000000E+00  0.00000000000E+00  0.47747278584E+03  0.47747447484E+03  0.12700000000E+01 0. -1.
         21   -1    0    0  501  502  0.00000000000E+00 -0.00000000000E+00 -0.13629166113E+02  0.13629166113E+02  0.00000000000E+00 0. -1.
         25    2    1    2    0    0 -0.14438371128E+02  0.23940559875E+02  0.32226555607E+03  0.34678601217E+03  0.12499533046E+03 0.  0.
    9000005    1    3    3    0    0 -0.37880001107E+02 -0.42870731396E+02  0.14910174508E+03  0.15970323879E+03  0.10000000000E+01 0.  0.
    9000005    1    3    3    0    0  0.23441629979E+02  0.66811291271E+02  0.17316381099E+03  0.18708277338E+03  0.10000000000E+01 0.  0.
          4    1    1    2  501    0  0.14438371128E+02 -0.23940559875E+02  0.14157806366E+03  0.14431762878E+03  0.12700000000E+01 0.  1.
<mgrwt>
<rscale>  1 0.12808376E+03</rscale>
<asrwt>0</asrwt>
<pdfrwt beam="2">  1       21 0.20967952E-02 0.12808376E+03</pdfrwt>
<pdfrwt beam="1">  1        4 0.73462020E-01 0.12808376E+03</pdfrwt>
<totfact> 0.78021861E+04</totfact>
</mgrwt>
</event>
<event>
 6    4  0.6325740E-003  0.1288016E+03  0.7818608E-02  0.1229245E+00
         21   -1    0    0  501  502  0.00000000000E+00  0.00000000000E+00  0.70140626757E+02  0.70140626757E+02  0.00000000000E+00 0. -1.
         -4   -1    0    0    0  501 -0.00000000000E+00 -0.00000000000E+00 -0.11771865271E+03  0.11772550316E+03  0.12700000000E+01 0.  1.
         25    2    1    2    0    0 -0.84108363109E+01 -0.29898169018E+02 -0.72696922701E+02  0.14790096318E+03  0.12500083865E+03 0.  0.
    9000005    1    3    3    0    0 -0.42124844153E+02 -0.66666950557E+02 -0.46296062316E+02  0.91451135463E+02  0.10000000000E+01 0.  0.
    9000005    1    3    3    0    0  0.33714007842E+02  0.36768781539E+02 -0.26400860385E+02  0.56449827721E+02  0.10000000000E+01 0.  0.
         -4    1    1    2    0  502  0.84108363109E+01  0.29898169018E+02  0.25118896753E+02  0.39965166735E+02  0.12700000000E+01 0. -1.
<mgrwt>
<rscale>  1 0.12880160E+03</rscale>
<asrwt>0</asrwt>
<pdfrwt beam="1">  1       21 0.10790866E-01 0.12880160E+03</pdfrwt>
<pdfrwt beam="2">  1       -4 0.18111973E-01 0.12880160E+03</pdfrwt>
<totfact> 0.76647778E+04</totfact>
</mgrwt>
</event>
<event>
 6    4  0.6325740E-003  0.1271625E+03  0.7818608E-02  0.1231728E+00
          4   -1    0    0  502    0 -0.00000000000E+00  0.00000000000E+00  0.47845452735E+02  0.47862305078E+02  0.12700000000E+01 0.  1.
         21   -1    0    0  501  502  0.00000000000E+00 -0.00000000000E+00 -0.12420976968E+03  0.12420976968E+03  0.00000000000E+00 0.  1.
         25    2    1    2    0    0 -0.85541024993E+01 -0.21724195288E+02 -0.49499876679E+02  0.13645712872E+03  0.12500078743E+03 0.  0.
    9000005    1    3    3    0    0 -0.43158464212E+02 -0.90839111885E+01  0.26873826005E+02  0.51656296807E+02  0.10000000000E+01 0.  0.
    9000005    1    3    3    0    0  0.34604361713E+02 -0.12640284099E+02 -0.76373702684E+02  0.84800831914E+02  0.10000000000E+01 0.  0.
          4    1    1    2  501    0  0.85541024993E+01  0.21724195288E+02 -0.26864440271E+02  0.35614946041E+02  0.12700000000E+01 0. -1.
<mgrwt>
<rscale>  1 0.12716253E+03</rscale>
<asrwt>0</asrwt>
<pdfrwt beam="2">  1       21 0.19109195E-01 0.12716253E+03</pdfrwt>
<pdfrwt beam="1">  1        4 0.73626346E-02 0.12716253E+03</pdfrwt>
<totfact> 0.12720977E+05</totfact>
</mgrwt>
</event>
<event>
 6    4  0.6325740E-003  0.1267580E+03  0.7818608E-02  0.1232347E+00
          4   -1    0    0  502    0 -0.00000000000E+00  0.00000000000E+00  0.88600031870E+03  0.88600122891E+03  0.12700000000E+01 0.  1.
         21   -1    0    0  501  502  0.00000000000E+00 -0.00000000000E+00 -0.23210117431E+02  0.23210117431E+02  0.00000000000E+00 0. -1.
         25    2    1    2    0    0 -0.18988285905E+02  0.90406858647E+01  0.87548472014E+03  0.88461352709E+03  0.12500123243E+03 0.  0.
    9000005    1    3    3    0    0 -0.63594655981E+02 -0.18292984181E+02  0.63852277658E+03  0.64194333843E+03  0.10000000000E+01 0.  0.
    9000005    1    3    3    0    0  0.44606370076E+02  0.27333670046E+02  0.23696194356E+03  0.24267018866E+03  0.10000000000E+01 0.  0.
          4    1    1    2  501    0  0.18988285905E+02 -0.90406858647E+01 -0.12694518874E+02  0.24597819252E+02  0.12700000000E+01 0. -1.
<mgrwt>
<rscale>  1 0.12675803E+03</rscale>
<asrwt>0</asrwt>
<pdfrwt beam="2">  1       21 0.35707880E-02 0.12675803E+03</pdfrwt>
<pdfrwt beam="1">  1        4 0.13631046E+00 0.12675803E+03</pdfrwt>
<totfact> 0.78227448E+03</totfact>
</mgrwt>
</event>
<event>
 6    4  0.6325740E-003  0.1266572E+03  0.7818608E-02  0.1232502E+00
         -4   -1    0    0    0  501 -0.00000000000E+00  0.00000000000E+00  0.83314590823E+03  0.83314687619E+03  0.12700000000E+01 0.  1.
         21   -1    0    0  501  502  0.00000000000E+00 -0.00000000000E+00 -0.90501705370E+01  0.90501705370E+01  0.00000000000E+00 0.  1.
         25    2    1    2    0    0 -0.15758920820E+02 -0.12983842991E+02  0.80256102002E+03  0.81249383597E+03  0.12500047543E+03 0.  0.
    9000005    1    3    3    0    0  0.44270969966E+02  0.20978263149E+02  0.48826294168E+03  0.49071550467E+03  0.10000000000E+01 0.  0.
    9000005    1    3    3    0    0 -0.60029890786E+02 -0.33962106140E+02  0.31429807834E+03  0.32177833129E+03  0.10000000000E+01 0.  0.
         -4    1    1    2    0  502  0.15758920820E+02  0.12983842991E+02  0.21534717673E+02  0.29703210761E+02  0.12700000000E+01 0. -1.
<mgrwt>
<rscale>  1 0.12665719E+03</rscale>
<asrwt>0</asrwt>
<pdfrwt beam="2">  1       21 0.13923346E-02 0.12665719E+03</pdfrwt>
<pdfrwt beam="1">  1       -4 0.12818316E+00 0.12665719E+03</pdfrwt>
<totfact> 0.41834143E+04</totfact>
</mgrwt>
</event>
<event>
 6    4  0.6325740E-003  0.1269649E+03  0.7818608E-02  0.1232030E+00
         21   -1    0    0  501  502  0.00000000000E+00  0.00000000000E+00  0.18553051245E+02  0.18553051245E+02  0.00000000000E+00 0. -1.
         -4   -1    0    0    0  501 -0.00000000000E+00 -0.00000000000E+00 -0.30531184447E+03  0.30531448586E+03  0.12700000000E+01 0. -1.
         25    2    1    2    0    0  0.20555703468E+02  0.85291300031E+01 -0.22712148749E+03  0.26020040163E+03  0.12499918370E+03 0.  0.
    9000005    1    3    3    0    0 -0.53047582095E+02  0.43789834250E+01 -0.94878528457E+02  0.10879410197E+03  0.10000000000E+01 0.  0.
    9000005    1    3    3    0    0  0.73603285563E+02  0.41501465782E+01 -0.13224295903E+03  0.15140629966E+03  0.10000000000E+01 0.  0.
         -4    1    1    2    0  502 -0.20555703468E+02 -0.85291300031E+01 -0.59637305733E+02  0.63667135469E+02  0.12700000000E+01 0.  1.
<mgrwt>
<rscale>  1 0.12696487E+03</rscale>
<asrwt>0</asrwt>
<pdfrwt beam="1">  1       21 0.28543154E-02 0.12696487E+03</pdfrwt>
<pdfrwt beam="2">  1       -4 0.46974603E-01 0.12696487E+03</pdfrwt>
<totfact> 0.12020601E+05</totfact>
</mgrwt>
</event>
<event>
 6    4  0.6325740E-003  0.1277141E+03  0.7818608E-02  0.1230888E+00
          4   -1    0    0  502    0 -0.00000000000E+00  0.00000000000E+00  0.43524366022E+03  0.43524551308E+03  0.12700000000E+01 0. -1.
         21   -1    0    0  501  502  0.00000000000E+00 -0.00000000000E+00 -0.45692619701E+02  0.45692619701E+02  0.00000000000E+00 0. -1.
         25    2    1    2    0    0  0.25010680143E+02 -0.77530598507E+01  0.42102911641E+03  0.43997319387E+03  0.12500100162E+03 0.  0.
    9000005    1    3    3    0    0  0.49447747007E+02 -0.48511983217E+02  0.33093360762E+03  0.33810729784E+03  0.10000000000E+01 0.  0.
    9000005    1    3    3    0    0 -0.24437066864E+02  0.40758923366E+02  0.90095508785E+02  0.10186589603E+03  0.10000000000E+01 0.  0.
          4    1    1    2  501    0 -0.25010680143E+02  0.77530598507E+01 -0.31478075892E+02  0.40964938913E+02  0.12700000000E+01 0.  1.
<mgrwt>
<rscale>  1 0.12771411E+03</rscale>
<asrwt>0</asrwt>
<pdfrwt beam="2">  1       21 0.70296341E-02 0.12771411E+03</pdfrwt>
<pdfrwt beam="1">  1        4 0.66962060E-01 0.12771411E+03</pdfrwt>
<totfact> 0.12790143E+04</totfact>
</mgrwt>
</event>
<event>
 6    4  0.6325740E-003  0.1293341E+03  0.7818608E-02  0.1228447E+00
         -4   -1    0    0    0  501 -0.00000000000E+00  0.00000000000E+00  0.21709503294E+03  0.21709874764E+03  0.12700000000E+01 0. -1.
         21   -1    0    0  501  502  0.00000000000E+00 -0.00000000000E+00 -0.45231902179E+02  0.45231902179E+02  0.00000000000E+00 0.  1.
         25    2    1    2    0    0  0.33161829685E+02 -0.12440205624E+01  0.18574448028E+03  0.22633677117E+03  0.12500426990E+03 0.  0.
    9000005    1    3    3    0    0 -0.98992456835E+01 -0.37530215021E+02  0.15958070041E+03  0.16423614720E+03  0.10000000000E+01 0.  0.
    9000005    1    3    3    0    0  0.43061075369E+02  0.36286194458E+02  0.26163779875E+02  0.62100623970E+02  0.10000000000E+01 0.  0.
         -4    1    1    2    0  502 -0.33161829685E+02  0.12440205624E+01 -0.13881349527E+02  0.35993878645E+02  0.12700000000E+01 0.  1.
<mgrwt>
<rscale>  1 0.12933415E+03</rscale>
<asrwt>0</asrwt>
<pdfrwt beam="2">  1       21 0.69587543E-02 0.12933415E+03</pdfrwt>
<pdfrwt beam="1">  1       -4 0.33400893E-01 0.12933415E+03</pdfrwt>
<totfact> 0.53114780E+04</totfact>
</mgrwt>
</event>
<event>
 6    4  0.6325740E-003  0.1599065E+03  0.7818608E-02  0.1188802E+00
          4   -1    0    0  502    0 -0.00000000000E+00  0.00000000000E+00  0.25765697737E+03  0.25766010728E+03  0.12700000000E+01 0. -1.
         21   -1    0    0  501  502  0.00000000000E+00 -0.00000000000E+00 -0.67066660179E+02  0.67066660179E+02  0.00000000000E+00 0. -1.
         25    2    1    2    0    0  0.75615445452E+02  0.65037614576E+02  0.14164341114E+03  0.21361871459E+03  0.12499004922E+03 0.  0.
    9000005    1    3    3    0    0  0.16053524679E+02  0.95064408993E+01  0.13001846657E+03  0.13135406245E+03  0.10000000000E+01 0.  0.
    9000005    1    3    3    0    0  0.59561920773E+02  0.55531173676E+02  0.11624944569E+02  0.82264652143E+02  0.10000000000E+01 0.  0.
          4    1    1    2  501    0 -0.75615445452E+02 -0.65037614576E+02  0.48946906051E+02  0.11110805287E+03  0.12700000000E+01 0.  1.
<mgrwt>
<rscale>  1 0.15990653E+03</rscale>
<asrwt>0</asrwt>
<pdfrwt beam="2">  1       21 0.10317948E-01 0.15990653E+03</pdfrwt>
<pdfrwt beam="1">  1        4 0.39640700E-01 0.15990653E+03</pdfrwt>
<totfact> 0.19682550E+04</totfact>
</mgrwt>
</event>
<event>
 6    4  0.6325740E-003  0.1359406E+03  0.7818608E-02  0.1218898E+00
          4   -1    0    0  502    0 -0.00000000000E+00  0.00000000000E+00  0.53855985087E+03  0.53856134828E+03  0.12700000000E+01 0.  1.
         21   -1    0    0  501  502  0.00000000000E+00 -0.00000000000E+00 -0.77409056950E+02  0.77409056950E+02  0.00000000000E+00 0. -1.
         25    2    1    2    0    0 -0.52657593733E+02  0.90243678999E+01  0.51941513544E+03  0.53690961984E+03  0.12500238219E+03 0.  0.
    9000005    1    3    3    0    0 -0.85390341418E+02 -0.24705626570E+02  0.34510444398E+03  0.35637053140E+03  0.10000000000E+01 0.  0.
    9000005    1    3    3    0    0  0.32732747685E+02  0.33729994470E+02  0.17431069146E+03  0.18053908844E+03  0.10000000000E+01 0.  0.
          4    1    1    2  501    0  0.52657593733E+02 -0.90243678999E+01 -0.58264341526E+02  0.79060785395E+02  0.12700000000E+01 0. -1.
<mgrwt>
<rscale>  1 0.13594064E+03</rscale>
<asrwt>0</asrwt>
<pdfrwt beam="2">  1       21 0.11909086E-01 0.13594064E+03</pdfrwt>
<pdfrwt beam="1">  1        4 0.82856276E-01 0.13594064E+03</pdfrwt>
<totfact> 0.32275220E+03</totfact>
</mgrwt>
</event>
<event>
 6    4  0.6325740E-003  0.1278303E+03  0.7818608E-02  0.1230711E+00
          4   -1    0    0  502    0 -0.00000000000E+00  0.00000000000E+00  0.87599153919E+01  0.88514980469E+01  0.12700000000E+01 0. -1.
         21   -1    0    0  501  502  0.00000000000E+00 -0.00000000000E+00 -0.87146086430E+03  0.87146086430E+03  0.00000000000E+00 0. -1.
         25    2    1    2    0    0 -0.55000814310E+01  0.26182732819E+02 -0.48175514449E+03  0.49842611593E+03  0.12499914964E+03 0.  0.
    9000005    1    3    3    0    0 -0.15191979558E+01 -0.40543250196E+02 -0.33143645079E+03  0.33391194050E+03  0.10000000000E+01 0.  0.
    9000005    1    3    3    0    0 -0.39808834752E+01  0.66725983015E+02 -0.15031869370E+03  0.16451417543E+03  0.10000000000E+01 0.  0.
          4    1    1    2  501    0  0.55000814310E+01 -0.26182732819E+02 -0.38094580442E+03  0.38188624642E+03  0.12700000000E+01 0.  1.
<mgrwt>
<rscale>  1 0.12783025E+03</rscale>
<asrwt>0</asrwt>
<pdfrwt beam="2">  1       21 0.13407094E+00 0.12783025E+03</pdfrwt>
<pdfrwt beam="1">  1        4 0.13547949E-02 0.12783025E+03</pdfrwt>
<totfact> 0.30431569E+04</totfact>
</mgrwt>
</event>
<event>
 6    4  0.6325740E-003  0.1276414E+03  0.7818608E-02  0.1230998E+00
          4   -1    0    0  502    0 -0.00000000000E+00  0.00000000000E+00  0.33141658767E+02  0.33165983264E+02  0.12700000000E+01 0. -1.
         21   -1    0    0  501  502  0.00000000000E+00 -0.00000000000E+00 -0.14373272628E+04  0.14373272628E+04  0.00000000000E+00 0.  1.
         25    2    1    2    0    0 -0.25612696373E+02  0.34525151053E+01 -0.90301467854E+02  0.15635433930E+03  0.12499757695E+03 0.  0.
    9000005    1    3    3    0    0 -0.36859074865E+02 -0.40459937473E+02 -0.96146970375E+02  0.11063832000E+03  0.10000000000E+01 0.  0.
    9000005    1    3    3    0    0  0.11246378492E+02  0.43912452578E+02  0.58455025207E+01  0.45716019297E+02  0.10000000000E+01 0.  0.
          4    1    1    2  501    0  0.25612696373E+02 -0.34525151053E+01 -0.13138841362E+04  0.13141389068E+04  0.12700000000E+01 0.  1.
<mgrwt>
<rscale>  1 0.12764139E+03</rscale>
<asrwt>0</asrwt>
<pdfrwt beam="2">  1       21 0.22112730E+00 0.12764139E+03</pdfrwt>
<pdfrwt beam="1">  1        4 0.51006304E-02 0.12764139E+03</pdfrwt>
<totfact> 0.98112765E+02</totfact>
</mgrwt>
</event>
<event>
 6    4  0.6325740E-003  0.1276782E+03  0.7818608E-02  0.1230942E+00
          4   -1    0    0  502    0 -0.00000000000E+00  0.00000000000E+00  0.91261760983E+02  0.91270597225E+02  0.12700000000E+01 0. -1.
         21   -1    0    0  501  502  0.00000000000E+00 -0.00000000000E+00 -0.72733256954E+02  0.72733256954E+02  0.00000000000E+00 0. -1.
         25    2    1    2    0    0  0.14671191307E+02  0.21482748359E+02  0.35981586691E+02  0.13265141686E+03  0.12499988593E+03 0.  0.
    9000005    1    3    3    0    0 -0.26062653545E+02  0.59787894657E+02  0.40110558862E+02  0.76574873095E+02  0.10000000000E+01 0.  0.
    9000005    1    3    3    0    0  0.40733844853E+02 -0.38305146298E+02 -0.41289721706E+01  0.56076543765E+02  0.10000000000E+01 0.  0.
          4    1    1    2  501    0 -0.14671191307E+02 -0.21482748359E+02 -0.17453082662E+02  0.31352437319E+02  0.12700000000E+01 0.  1.
<mgrwt>
<rscale>  1 0.12767820E+03</rscale>
<asrwt>0</asrwt>
<pdfrwt beam="2">  1       21 0.11189732E-01 0.12767820E+03</pdfrwt>
<pdfrwt beam="1">  1        4 0.14041804E-01 0.12767820E+03</pdfrwt>
<totfact> 0.11224749E+05</totfact>
</mgrwt>
</event>
<event>
 6    4  0.6325740E-003  0.1277527E+03  0.7818608E-02  0.1230829E+00
         21   -1    0    0  501  502  0.00000000000E+00  0.00000000000E+00  0.34146988768E+02  0.34146988768E+02  0.00000000000E+00 0. -1.
          4   -1    0    0  502    0 -0.00000000000E+00 -0.00000000000E+00 -0.65448577238E+03  0.65448700457E+03  0.12700000000E+01 0.  1.
         25    2    1    2    0    0 -0.43341155987E+01  0.26013061300E+02 -0.64193534277E+03  0.65452405075E+03  0.12500113919E+03 0.  0.
    9000005    1    3    3    0    0 -0.37010995296E+01 -0.46277678624E+02 -0.37883393465E+03  0.38166932247E+03  0.10000000000E+01 0.  0.
    9000005    1    3    3    0    0 -0.63301606916E+00  0.72290739924E+02 -0.26310140812E+03  0.27285472828E+03  0.10000000000E+01 0.  0.
          4    1    1    2  501    0  0.43341155987E+01 -0.26013061300E+02  0.21596559152E+02  0.34109942589E+02  0.12700000000E+01 0. -1.
<mgrwt>
<rscale>  1 0.12775269E+03</rscale>
<asrwt>0</asrwt>
<pdfrwt beam="1">  1       21 0.52533832E-02 0.12775269E+03</pdfrwt>
<pdfrwt beam="2">  1        4 0.10069202E+00 0.12775269E+03</pdfrwt>
<totfact> 0.84765068E+03</totfact>
</mgrwt>
</event>
<event>
 6    4  0.6325740E-003  0.1273474E+03  0.7818608E-02  0.1231446E+00
          4   -1    0    0  502    0 -0.00000000000E+00  0.00000000000E+00  0.12341339395E+02  0.12406512728E+02  0.12700000000E+01 0. -1.
         21   -1    0    0  501  502  0.00000000000E+00 -0.00000000000E+00 -0.94953029239E+03  0.94953029239E+03  0.00000000000E+00 0.  1.
         25    2    1    2    0    0  0.22583524179E+02 -0.90229724140E+01 -0.32202472114E+03  0.34629074231E+03  0.12500371030E+03 0.  0.
    9000005    1    3    3    0    0 -0.12014928135E+02 -0.60711061921E+02 -0.12179961461E+03  0.13662480616E+03  0.10000000000E+01 0.  0.
    9000005    1    3    3    0    0  0.34598452314E+02  0.51688089507E+02 -0.20022510652E+03  0.20966593615E+03  0.10000000000E+01 0.  0.
          4    1    1    2  501    0 -0.22583524179E+02  0.90229724140E+01 -0.61516423186E+03  0.61564606281E+03  0.12700000000E+01 0.  1.
<mgrwt>
<rscale>  1 0.12734739E+03</rscale>
<asrwt>0</asrwt>
<pdfrwt beam="2">  1       21 0.14608157E+00 0.12734739E+03</pdfrwt>
<pdfrwt beam="1">  1        4 0.19037464E-02 0.12734739E+03</pdfrwt>
<totfact> 0.14557113E+04</totfact>
</mgrwt>
</event>
<event>
 6    4  0.6325740E-003  0.1362265E+03  0.7818608E-02  0.1218499E+00
          4   -1    0    0  502    0 -0.00000000000E+00  0.00000000000E+00  0.71631522346E+02  0.71642779773E+02  0.12700000000E+01 0. -1.
         21   -1    0    0  501  502  0.00000000000E+00 -0.00000000000E+00 -0.15369627556E+03  0.15369627556E+03  0.00000000000E+00 0.  1.
         25    2    1    2    0    0  0.53660897260E+02  0.72774223529E+01 -0.11966511833E+02  0.13675108146E+03  0.12500083241E+03 0.  0.
    9000005    1    3    3    0    0  0.51271292634E+02  0.43848545213E+02 -0.49958299060E+02  0.83953987461E+02  0.10000000000E+01 0.  0.
    9000005    1    3    3    0    0  0.23896046263E+01 -0.36571122860E+02  0.37991787227E+02  0.52797093994E+02  0.10000000000E+01 0.  0.
          4    1    1    2  501    0 -0.53660897260E+02 -0.72774223529E+01 -0.70098241381E+02  0.88587973877E+02  0.12700000000E+01 0.  1.
<mgrwt>
<rscale>  1 0.13622651E+03</rscale>
<asrwt>0</asrwt>
<pdfrwt beam="2">  1       21 0.23645581E-01 0.13622651E+03</pdfrwt>
<pdfrwt beam="1">  1        4 0.11021504E-01 0.13622651E+03</pdfrwt>
<totfact> 0.44001525E+04</totfact>
</mgrwt>
</event>
<event>
 6    4  0.6325740E-003  0.1272655E+03  0.7818608E-02  0.1231571E+00
         -4   -1    0    0    0  501 -0.00000000000E+00  0.00000000000E+00  0.31846266522E+01  0.34285196389E+01  0.12700000000E+01 0.  1.
         21   -1    0    0  501  502  0.00000000000E+00 -0.00000000000E+00 -0.17326605569E+04  0.17326605569E+04  0.00000000000E+00 0.  1.
         25    2    1    2    0    0 -0.16726058785E+02 -0.16901052589E+02 -0.14139070761E+04  0.14196230891E+04  0.12502435176E+03 0.  0.
    9000005    1    3    3    0    0  0.11024129567E+02  0.25890648866E+02 -0.11746924431E+04  0.11750298689E+04  0.10000000000E+01 0.  0.
    9000005    1    3    3    0    0 -0.27750188353E+02 -0.42791701455E+02 -0.23921463304E+03  0.24459322012E+03  0.10000000000E+01 0.  0.
         -4    1    1    2    0  502  0.16726058785E+02  0.16901052589E+02 -0.31556885417E+03  0.31646598750E+03  0.12700000000E+01 0. -1.
<mgrwt>
<rscale>  1 0.12726545E+03</rscale>
<asrwt>0</asrwt>
<pdfrwt beam="2">  1       21 0.26656312E+00 0.12726545E+03</pdfrwt>
<pdfrwt beam="1">  1       -4 0.50873945E-03 0.12726545E+03</pdfrwt>
<totfact> 0.18287216E+04</totfact>
</mgrwt>
</event>
<event>
 6    4  0.6325740E-003  0.1270866E+03  0.7818608E-02  0.1231844E+00
         -4   -1    0    0    0  501 -0.00000000000E+00  0.00000000000E+00  0.87731883171E+02  0.87741074901E+02  0.12700000000E+01 0. -1.
         21   -1    0    0  501  502  0.00000000000E+00 -0.00000000000E+00 -0.80480298327E+02  0.80480298327E+02  0.00000000000E+00 0. -1.
         25    2    1    2    0    0 -0.22047815428E+02  0.62779325540E+01  0.35373286635E+02  0.13191763218E+03  0.12500189467E+03 0.  0.
    9000005    1    3    3    0    0  0.28871934430E+01 -0.10455963969E+02  0.78557481258E+02  0.79309147833E+02  0.10000000000E+01 0.  0.
    9000005    1    3    3    0    0 -0.24935008871E+02  0.16733896523E+02 -0.43184194623E+02  0.52608484349E+02  0.10000000000E+01 0.  0.
         -4    1    1    2    0  502  0.22047815428E+02 -0.62779325540E+01 -0.28121701790E+02  0.36303741045E+02  0.12700000000E+01 0.  1.
<mgrwt>
<rscale>  1 0.12708655E+03</rscale>
<asrwt>0</asrwt>
<pdfrwt beam="2">  1       21 0.12381584E-01 0.12708655E+03</pdfrwt>
<pdfrwt beam="1">  1       -4 0.13498691E-01 0.12708655E+03</pdfrwt>
<totfact> 0.10041133E+05</totfact>
</mgrwt>
</event>
<event>
 6    4  0.6325740E-003  0.1303863E+03  0.7818608E-02  0.1226884E+00
          4   -1    0    0  502    0 -0.00000000000E+00  0.00000000000E+00  0.13251944834E+04  0.13251950919E+04  0.12700000000E+01 0.  1.
         21   -1    0    0  501  502  0.00000000000E+00 -0.00000000000E+00 -0.25950273570E+02  0.25950273570E+02  0.00000000000E+00 0. -1.
         25    2    1    2    0    0  0.30517672946E+02 -0.21082303982E+02  0.13067850041E+04  0.13132736296E+04  0.12499914880E+03 0.  0.
    9000005    1    3    3    0    0 -0.10051836943E+02 -0.51042894025E+02  0.25368491886E+03  0.25896612619E+03  0.10000000000E+01 0.  0.
    9000005    1    3    3    0    0  0.40569509889E+02  0.29960590043E+02  0.10531000853E+04  0.10543075034E+04  0.10000000000E+01 0.  0.
          4    1    1    2  501    0 -0.30517672946E+02  0.21082303982E+02 -0.75407943240E+01  0.37871735929E+02  0.12700000000E+01 0. -1.
<mgrwt>
<rscale>  1 0.13038627E+03</rscale>
<asrwt>0</asrwt>
<pdfrwt beam="2">  1       21 0.39923508E-02 0.13038627E+03</pdfrwt>
<pdfrwt beam="1">  1        4 0.20387846E+00 0.13038627E+03</pdfrwt>
<totfact> 0.22410309E+03</totfact>
</mgrwt>
</event>
<event>
 6    4  0.6325740E-003  0.1287956E+03  0.7818608E-02  0.1229254E+00
          4   -1    0    0  502    0 -0.00000000000E+00  0.00000000000E+00  0.59393582577E+03  0.59393718357E+03  0.12700000000E+01 0.  1.
         21   -1    0    0  501  502  0.00000000000E+00 -0.00000000000E+00 -0.14266312683E+02  0.14266312683E+02  0.00000000000E+00 0.  1.
         25    2    1    2    0    0  0.28772931995E+02  0.12084375524E+02  0.55084562849E+03  0.56570240250E+03  0.12495754486E+03 0.  0.
    9000005    1    3    3    0    0 -0.44820719325E+02  0.17392462326E+02  0.31301260101E+03  0.31668483231E+03  0.10000000000E+01 0.  0.
    9000005    1    3    3    0    0  0.73593651320E+02 -0.53080868018E+01  0.23783302748E+03  0.24901757019E+03  0.10000000000E+01 0.  0.
          4    1    1    2  501    0 -0.28772931995E+02 -0.12084375524E+02  0.28823884589E+02  0.42501093753E+02  0.12700000000E+01 0. -1.
<mgrwt>
<rscale>  1 0.12879558E+03</rscale>
<asrwt>0</asrwt>
<pdfrwt beam="2">  1       21 0.21948178E-02 0.12879558E+03</pdfrwt>
<pdfrwt beam="1">  1        4 0.91379176E-01 0.12879558E+03</pdfrwt>
<totfact> 0.44691983E+04</totfact>
</mgrwt>
</event>
<event>
 6    4  0.6325740E-003  0.1291627E+03  0.7818608E-02  0.1228703E+00
         21   -1    0    0  501  502  0.00000000000E+00  0.00000000000E+00  0.70865500707E+01  0.70865500707E+01  0.00000000000E+00 0.  1.
         -4   -1    0    0    0  501 -0.00000000000E+00 -0.00000000000E+00 -0.31786546719E+04  0.31786549256E+04  0.12700000000E+01 0. -1.
         25    2    1    2    0    0  0.11536299760E+02 -0.30407952142E+02 -0.31313073728E+04  0.31339701460E+04  0.12500113253E+03 0.  0.
    9000005    1    3    3    0    0  0.55153024399E+02 -0.36565562629E+02 -0.99004362791E+03  0.99225313385E+03  0.10000000000E+01 0.  0.
    9000005    1    3    3    0    0 -0.43616724639E+02  0.61576104872E+01 -0.21412637449E+04  0.21417170122E+04  0.10000000000E+01 0.  0.
         -4    1    1    2    0  502 -0.11536299760E+02  0.30407952142E+02 -0.40260748965E+02  0.51771329641E+02  0.12700000000E+01 0.  1.
<mgrwt>
<rscale>  1 0.12916274E+03</rscale>
<asrwt>0</asrwt>
<pdfrwt beam="1">  1       21 0.10902382E-02 0.12916274E+03</pdfrwt>
<pdfrwt beam="2">  1       -4 0.48903267E+00 0.12916274E+03</pdfrwt>
<totfact> 0.28974319E+02</totfact>
</mgrwt>
</event>
<event>
 6    4  0.6325740E-003  0.1283469E+03  0.7818608E-02  0.1229929E+00
         21   -1    0    0  501  502  0.00000000000E+00  0.00000000000E+00  0.24055669071E+02  0.24055669071E+02  0.00000000000E+00 0. -1.
         -4   -1    0    0    0  501 -0.00000000000E+00 -0.00000000000E+00 -0.12535904550E+04  0.12535910983E+04  0.12700000000E+01 0.  1.
         25    2    1    2    0    0 -0.28159506314E+02  0.73570888081E+01 -0.12400502879E+04  0.12466746310E+04  0.12500333834E+03 0.  0.
    9000005    1    3    3    0    0 -0.42539010361E+02  0.57742650919E+02 -0.55370425494E+03  0.55833071120E+03  0.10000000000E+01 0.  0.
    9000005    1    3    3    0    0  0.14379504047E+02 -0.50385562111E+02 -0.68634603293E+03  0.68834391980E+03  0.10000000000E+01 0.  0.
         -4    1    1    2    0  502  0.28159506314E+02 -0.73570888081E+01  0.10515501931E+02  0.30972136388E+02  0.12700000000E+01 0. -1.
<mgrwt>
<rscale>  1 0.12834687E+03</rscale>
<asrwt>0</asrwt>
<pdfrwt beam="1">  1       21 0.37008719E-02 0.12834687E+03</pdfrwt>
<pdfrwt beam="2">  1       -4 0.19286271E+00 0.12834687E+03</pdfrwt>
<totfact> 0.29735304E+03</totfact>
</mgrwt>
</event>
<event>
 6    4  0.6325740E-003  0.1389786E+03  0.7818608E-02  0.1214710E+00
         -4   -1    0    0    0  501 -0.00000000000E+00  0.00000000000E+00  0.60297980060E+02  0.60311352989E+02  0.12700000000E+01 0. -1.
         21   -1    0    0  501  502  0.00000000000E+00 -0.00000000000E+00 -0.16665682432E+03  0.16665682432E+03  0.00000000000E+00 0.  1.
         25    2    1    2    0    0 -0.15832049624E+02  0.58647104503E+02 -0.64715296508E+02  0.15330723358E+03  0.12499960641E+03 0.  0.
    9000005    1    3    3    0    0  0.35372135427E+02  0.68422981856E+02 -0.99161042004E+01  0.77667377535E+02  0.10000000000E+01 0.  0.
    9000005    1    3    3    0    0 -0.51204185051E+02 -0.97758773524E+01 -0.54799192308E+02  0.75639856044E+02  0.10000000000E+01 0.  0.
         -4    1    1    2    0  502  0.15832049624E+02 -0.58647104503E+02 -0.41643547754E+02  0.73660943732E+02  0.12700000000E+01 0.  1.
<mgrwt>
<rscale>  1 0.13897855E+03</rscale>
<asrwt>0</asrwt>
<pdfrwt beam="2">  1       21 0.25639511E-01 0.13897855E+03</pdfrwt>
<pdfrwt beam="1">  1       -4 0.92780132E-02 0.13897855E+03</pdfrwt>
<totfact> 0.50598906E+04</totfact>
</mgrwt>
</event>
<event>
 6    4  0.6325740E-003  0.1272325E+03  0.7818608E-02  0.1231621E+00
         21   -1    0    0  501  502  0.00000000000E+00  0.00000000000E+00  0.22519394660E+03  0.22519394660E+03  0.00000000000E+00 0. -1.
         -4   -1    0    0    0  501 -0.00000000000E+00 -0.00000000000E+00 -0.35972706984E+02  0.35995118388E+02  0.12700000000E+01 0. -1.
         25    2    1    2    0    0  0.18089835935E+02  0.15346548593E+02  0.81999830902E+02  0.15136738177E+03  0.12500141311E+03 0.  0.
    9000005    1    3    3    0    0 -0.50652164430E+02  0.91155469516E+01  0.59691079838E+02  0.78821062984E+02  0.10000000000E+01 0.  0.
    9000005    1    3    3    0    0  0.68742000366E+02  0.62310016413E+01  0.22308751065E+02  0.72546318789E+02  0.10000000000E+01 0.  0.
         -4    1    1    2    0  502 -0.18089835935E+02 -0.15346548593E+02  0.10722140871E+03  0.10982168321E+03  0.12700000000E+01 0.  1.
<mgrwt>
<rscale>  1 0.12723251E+03</rscale>
<asrwt>0</asrwt>
<pdfrwt beam="1">  1       21 0.34645222E-01 0.12723251E+03</pdfrwt>
<pdfrwt beam="2">  1       -4 0.55362622E-02 0.12723251E+03</pdfrwt>
<totfact> 0.65480115E+04</totfact>
</mgrwt>
</event>
<event>
 6    4  0.6325740E-003  0.1268710E+03  0.7818608E-02  0.1232174E+00
          4   -1    0    0  502    0 -0.00000000000E+00  0.00000000000E+00  0.10969546311E+03  0.10970281458E+03  0.12700000000E+01 0. -1.
         21   -1    0    0  501  502  0.00000000000E+00 -0.00000000000E+00 -0.40728194679E+03  0.40728194679E+03  0.00000000000E+00 0.  1.
         25    2    1    2    0    0 -0.14226796173E+02  0.16399880645E+02  0.72590239867E+02  0.14616974365E+03  0.12499957288E+03 0.  0.
    9000005    1    3    3    0    0  0.30690186527E+02 -0.32288464057E+02  0.65944394665E+02  0.79587031909E+02  0.10000000000E+01 0.  0.
    9000005    1    3    3    0    0 -0.44916982700E+02  0.48688344703E+02  0.66458452020E+01  0.66582711744E+02  0.10000000000E+01 0.  0.
          4    1    1    2  501    0  0.14226796173E+02 -0.16399880645E+02 -0.37017672354E+03  0.37081501772E+03  0.12700000000E+01 0.  1.
<mgrwt>
<rscale>  1 0.12687100E+03</rscale>
<asrwt>0</asrwt>
<pdfrwt beam="2">  1       21 0.62658760E-01 0.12687100E+03</pdfrwt>
<pdfrwt beam="1">  1        4 0.16876943E-01 0.12687100E+03</pdfrwt>
<totfact> 0.29917380E+03</totfact>
</mgrwt>
</event>
<event>
 6    4  0.6325740E-003  0.1307265E+03  0.7818608E-02  0.1226382E+00
         21   -1    0    0  501  502  0.00000000000E+00  0.00000000000E+00  0.33741438369E+02  0.33741438369E+02  0.00000000000E+00 0. -1.
          4   -1    0    0  502    0 -0.00000000000E+00 -0.00000000000E+00 -0.21346960666E+03  0.21347338445E+03  0.12700000000E+01 0. -1.
         25    2    1    2    0    0  0.25358495173E+02 -0.28657101168E+02 -0.14819810225E+03  0.19761602556E+03  0.12500053329E+03 0.  0.
    9000005    1    3    3    0    0 -0.17310850445E+02 -0.32051877005E+02  0.65749158677E+01  0.37029959241E+02  0.10000000000E+01 0.  0.
    9000005    1    3    3    0    0  0.42669345618E+02  0.33947758370E+01 -0.15477301812E+03  0.16058606632E+03  0.10000000000E+01 0.  0.
          4    1    1    2  501    0 -0.25358495173E+02  0.28657101168E+02 -0.31530066042E+02  0.49598797258E+02  0.12700000000E+01 0.  1.
<mgrwt>
<rscale>  1 0.13072649E+03</rscale>
<asrwt>0</asrwt>
<pdfrwt beam="1">  1       21 0.51909905E-02 0.13072649E+03</pdfrwt>
<pdfrwt beam="2">  1        4 0.32843607E-01 0.13072649E+03</pdfrwt>
<totfact> 0.90315029E+04</totfact>
</mgrwt>
</event>
<event>
 6    4  0.6325740E-003  0.1317304E+03  0.7818608E-02  0.1224910E+00
         -4   -1    0    0    0  501 -0.00000000000E+00  0.00000000000E+00  0.41422629195E+02  0.41442093449E+02  0.12700000000E+01 0. -1.
         21   -1    0    0  501  502  0.00000000000E+00 -0.00000000000E+00 -0.20153361825E+03  0.20153361825E+03  0.00000000000E+00 0.  1.
         25    2    1    2    0    0  0.41429079991E+02  0.33161605374E+01 -0.83960146560E+02  0.15621207126E+03  0.12500215761E+03 0.  0.
    9000005    1    3    3    0    0 -0.35347796078E+02  0.12162039204E+02  0.57101208573E+01  0.37828393639E+02  0.10000000000E+01 0.  0.
    9000005    1    3    3    0    0  0.76776876069E+02 -0.88458786662E+01 -0.89670267417E+02  0.11838367762E+03  0.10000000000E+01 0.  0.
         -4    1    1    2    0  502 -0.41429079991E+02 -0.33161605374E+01 -0.76150842495E+02  0.86763640440E+02  0.12700000000E+01 0.  1.
<mgrwt>
<rscale>  1 0.13173043E+03</rscale>
<asrwt>0</asrwt>
<pdfrwt beam="2">  1       21 0.31005173E-01 0.13173043E+03</pdfrwt>
<pdfrwt beam="1">  1       -4 0.63745171E-02 0.13173043E+03</pdfrwt>
<totfact> 0.64948093E+04</totfact>
</mgrwt>
</event>
<event>
 6    4  0.6325740E-003  0.1268467E+03  0.7818608E-02  0.1232211E+00
         21   -1    0    0  501  502  0.00000000000E+00  0.00000000000E+00  0.16586681780E+03  0.16586681780E+03  0.00000000000E+00 0.  1.
         -4   -1    0    0    0  501 -0.00000000000E+00 -0.00000000000E+00 -0.84360942307E+02  0.84370501284E+02  0.12700000000E+01 0. -1.
         25    2    1    2    0    0 -0.10979715475E+02  0.18561157284E+02 -0.35127021258E+02  0.13162064144E+03  0.12500005967E+03 0.  0.
    9000005    1    3    3    0    0  0.18545229390E+02 -0.49038377543E+02 -0.81336102838E+01  0.53064523190E+02  0.10000000000E+01 0.  0.
    9000005    1    3    3    0    0 -0.29524944865E+02  0.67599534827E+02 -0.26993410974E+02  0.78556118247E+02  0.10000000000E+01 0.  0.
         -4    1    1    2    0  502  0.10979715475E+02 -0.18561157284E+02  0.11663289675E+03  0.11861667765E+03  0.12700000000E+01 0.  1.
<mgrwt>
<rscale>  1 0.12684670E+03</rscale>
<asrwt>0</asrwt>
<pdfrwt beam="1">  1       21 0.25517972E-01 0.12684670E+03</pdfrwt>
<pdfrwt beam="2">  1       -4 0.12979716E-01 0.12684670E+03</pdfrwt>
<totfact> 0.28591536E+04</totfact>
</mgrwt>
</event>
<event>
 6    4  0.6325740E-003  0.1302479E+03  0.7818608E-02  0.1227088E+00
         -4   -1    0    0    0  501 -0.00000000000E+00  0.00000000000E+00  0.10898226544E+03  0.10898966501E+03  0.12700000000E+01 0.  1.
         21   -1    0    0  501  502  0.00000000000E+00 -0.00000000000E+00 -0.85020479945E+02  0.85020479945E+02  0.00000000000E+00 0.  1.
         25    2    1    2    0    0 -0.55512681743E+01 -0.36172780331E+02  0.59308375301E+02  0.14311534241E+03  0.12500092494E+03 0.  0.
    9000005    1    3    3    0    0  0.53371223097E+02 -0.25999684685E+02  0.69698935873E+00  0.59379768042E+02  0.10000000000E+01 0.  0.
    9000005    1    3    3    0    0 -0.58922491271E+02 -0.10173095646E+02  0.58611385942E+02  0.83735574368E+02  0.10000000000E+01 0.  0.
         -4    1    1    2    0  502  0.55512681743E+01  0.36172780331E+02 -0.35346589809E+02  0.50894802548E+02  0.12700000000E+01 0. -1.
<mgrwt>
<rscale>  1 0.13024791E+03</rscale>
<asrwt>0</asrwt>
<pdfrwt beam="2">  1       21 0.13080074E-01 0.13024791E+03</pdfrwt>
<pdfrwt beam="1">  1       -4 0.16767801E-01 0.13024791E+03</pdfrwt>
<totfact> 0.62589860E+04</totfact>
</mgrwt>
</event>
<event>
 6    4  0.6325740E-003  0.1288068E+03  0.7818608E-02  0.1229237E+00
         -4   -1    0    0    0  501 -0.00000000000E+00  0.00000000000E+00  0.79035143653E+02  0.79045346684E+02  0.12700000000E+01 0. -1.
         21   -1    0    0  501  502  0.00000000000E+00 -0.00000000000E+00 -0.81306012854E+02  0.81306012854E+02  0.00000000000E+00 0. -1.
         25    2    1    2    0    0  0.23551530665E+02  0.20305404253E+02  0.26970566915E+01  0.12883505858E+03  0.12499685662E+03 0.  0.
    9000005    1    3    3    0    0 -0.74641007790E+01 -0.49365851384E+02 -0.11527791984E+02  0.51250268988E+02  0.10000000000E+01 0.  0.
    9000005    1    3    3    0    0  0.31015631443E+02  0.69671255637E+02  0.14224848675E+02  0.77584789590E+02  0.10000000000E+01 0.  0.
         -4    1    1    2    0  502 -0.23551530665E+02 -0.20305404253E+02 -0.49679258924E+01  0.31516300960E+02  0.12700000000E+01 0.  1.
<mgrwt>
<rscale>  1 0.12880683E+03</rscale>
<asrwt>0</asrwt>
<pdfrwt beam="2">  1       21 0.12508617E-01 0.12880683E+03</pdfrwt>
<pdfrwt beam="1">  1       -4 0.12160801E-01 0.12880683E+03</pdfrwt>
<totfact> 0.11820587E+05</totfact>
</mgrwt>
</event>
<event>
 6    4  0.6325740E-003  0.1345840E+03  0.7818608E-02  0.1220808E+00
          4   -1    0    0  502    0 -0.00000000000E+00  0.00000000000E+00  0.10229324321E+02  0.10307859917E+02  0.12700000000E+01 0.  1.
         21   -1    0    0  501  502  0.00000000000E+00 -0.00000000000E+00 -0.12461179546E+04  0.12461179546E+04  0.00000000000E+00 0. -1.
         25    2    1    2    0    0  0.16610884612E+02  0.47027859732E+02 -0.46933029097E+03  0.48824560028E+03  0.12500121237E+03 0.  0.
    9000005    1    3    3    0    0 -0.58251357770E+01  0.75392540492E+02 -0.16187114237E+03  0.17866514518E+03  0.10000000000E+01 0.  0.
    9000005    1    3    3    0    0  0.22436020389E+02 -0.28364680760E+02 -0.30745914860E+03  0.30958045511E+03  0.10000000000E+01 0.  0.
          4    1    1    2  501    0 -0.16610884612E+02 -0.47027859732E+02 -0.76655833927E+03  0.76818021420E+03  0.12700000000E+01 0. -1.
<mgrwt>
<rscale>  1 0.13458397E+03</rscale>
<asrwt>0</asrwt>
<pdfrwt beam="2">  1       21 0.19171037E+00 0.13458397E+03</pdfrwt>
<pdfrwt beam="1">  1        4 0.15798338E-02 0.13458397E+03</pdfrwt>
<totfact> 0.93277464E+03</totfact>
</mgrwt>
</event>
<event>
 6    4  0.6325740E-003  0.1339342E+03  0.7818608E-02  0.1221732E+00
         21   -1    0    0  501  502  0.00000000000E+00  0.00000000000E+00  0.65878934298E+02  0.65878934298E+02  0.00000000000E+00 0. -1.
         -4   -1    0    0    0  501 -0.00000000000E+00 -0.00000000000E+00 -0.13531321744E+03  0.13531917718E+03  0.12700000000E+01 0.  1.
         25    2    1    2    0    0 -0.35233295963E+02  0.32736834583E+02 -0.73744394621E+02  0.15289412154E+03  0.12500116472E+03 0.  0.
    9000005    1    3    3    0    0  0.35500715658E+02  0.26372953548E+02 -0.68672028101E+02  0.81686479509E+02  0.10000000000E+01 0.  0.
    9000005    1    3    3    0    0 -0.70734011622E+02  0.63638810343E+01 -0.50723665204E+01  0.71207642034E+02  0.10000000000E+01 0.  0.
         -4    1    1    2    0  502  0.35233295963E+02 -0.32736834583E+02  0.43101114805E+01  0.48303989938E+02  0.12700000000E+01 0. -1.
<mgrwt>
<rscale>  1 0.13393423E+03</rscale>
<asrwt>0</asrwt>
<pdfrwt beam="1">  1       21 0.10135221E-01 0.13393423E+03</pdfrwt>
<pdfrwt beam="2">  1       -4 0.20818818E-01 0.13393423E+03</pdfrwt>
<totfact> 0.67011945E+04</totfact>
</mgrwt>
</event>
<event>
 6    4  0.6325740E-003  0.1664363E+03  0.7818608E-02  0.1181616E+00
         -4   -1    0    0    0  501 -0.00000000000E+00  0.00000000000E+00  0.21308732672E+03  0.21309111129E+03  0.12700000000E+01 0. -1.
         21   -1    0    0  501  502  0.00000000000E+00 -0.00000000000E+00 -0.14910391746E+03  0.14910391746E+03  0.00000000000E+00 0.  1.
         25    2    1    2    0    0  0.98593751725E+02 -0.48484271541E+02  0.14890597412E+03  0.22332491898E+03  0.12501831003E+03 0.  0.
    9000005    1    3    3    0    0 -0.28221223729E+02  0.48472464590E+01  0.30006032454E+02  0.41488495401E+02  0.10000000000E+01 0.  0.
    9000005    1    3    3    0    0  0.12681497545E+03 -0.53331518000E+02  0.11889994167E+03  0.18183642358E+03  0.10000000000E+01 0.  0.
         -4    1    1    2    0  502 -0.98593751725E+02  0.48484271541E+02 -0.84922564861E+02  0.13887010977E+03  0.12700000000E+01 0.  1.
<mgrwt>
<rscale>  1 0.16643627E+03</rscale>
<asrwt>0</asrwt>
<pdfrwt beam="2">  1       21 0.22939064E-01 0.16643627E+03</pdfrwt>
<pdfrwt beam="1">  1       -4 0.32783373E-01 0.16643627E+03</pdfrwt>
<totfact> 0.66752414E+03</totfact>
</mgrwt>
</event>
<event>
 6    4  0.6325740E-003  0.1397688E+03  0.7818608E-02  0.1213640E+00
         -4   -1    0    0    0  501 -0.00000000000E+00  0.00000000000E+00  0.15084540524E+03  0.15085075134E+03  0.12700000000E+01 0.  1.
         21   -1    0    0  501  502  0.00000000000E+00 -0.00000000000E+00 -0.82677823943E+02  0.82677823943E+02  0.00000000000E+00 0. -1.
         25    2    1    2    0    0  0.51255675132E+02  0.35798649873E+02  0.91197592327E+02  0.16689013387E+03  0.12500651332E+03 0.  0.
    9000005    1    3    3    0    0  0.42901643409E+01 -0.14816474355E+02 -0.26355854759E+02  0.30554287792E+02  0.10000000000E+01 0.  0.
    9000005    1    3    3    0    0  0.46965510791E+02  0.50615124227E+02  0.11755344709E+03  0.13633584608E+03  0.10000000000E+01 0.  0.
         -4    1    1    2    0  502 -0.51255675132E+02 -0.35798649873E+02 -0.23030011034E+02  0.66638441415E+02  0.12700000000E+01 0. -1.
<mgrwt>
<rscale>  1 0.13976879E+03</rscale>
<asrwt>0</asrwt>
<pdfrwt beam="2">  1       21 0.12719665E-01 0.13976879E+03</pdfrwt>
<pdfrwt beam="1">  1       -4 0.23208147E-01 0.13976879E+03</pdfrwt>
<totfact> 0.36999024E+04</totfact>
</mgrwt>
</event>
<event>
 6    4  0.6325740E-003  0.1299190E+03  0.7818608E-02  0.1227576E+00
          4   -1    0    0  502    0 -0.00000000000E+00  0.00000000000E+00  0.91682437442E+02  0.91691233143E+02  0.12700000000E+01 0. -1.
         21   -1    0    0  501  502  0.00000000000E+00 -0.00000000000E+00 -0.75316374228E+02  0.75316374228E+02  0.00000000000E+00 0. -1.
         25    2    1    2    0    0 -0.33410648593E+02  0.11766725551E+02  0.59129993039E+01  0.13005349103E+03  0.12499687875E+03 0.  0.
    9000005    1    3    3    0    0  0.10286703673E+02 -0.53123572762E+00 -0.53941469869E+02  0.54925227860E+02  0.10000000000E+01 0.  0.
    9000005    1    3    3    0    0 -0.43697352266E+02  0.12297961279E+02  0.59854469173E+02  0.75128263168E+02  0.10000000000E+01 0.  0.
          4    1    1    2  501    0  0.33410648593E+02 -0.11766725551E+02  0.10453063910E+02  0.36954116343E+02  0.12700000000E+01 0.  1.
<mgrwt>
<rscale>  1 0.12991900E+03</rscale>
<asrwt>0</asrwt>
<pdfrwt beam="2">  1       21 0.11587135E-01 0.12991900E+03</pdfrwt>
<pdfrwt beam="1">  1        4 0.14106491E-01 0.12991900E+03</pdfrwt>
<totfact> 0.10496741E+05</totfact>
</mgrwt>
</event>
<event>
 6    4  0.6325740E-003  0.1270795E+03  0.7818608E-02  0.1231855E+00
         21   -1    0    0  501  502  0.00000000000E+00  0.00000000000E+00  0.97225100754E+01  0.97225100754E+01  0.00000000000E+00 0.  1.
          4   -1    0    0  502    0 -0.00000000000E+00 -0.00000000000E+00 -0.63685677188E+03  0.63685803818E+03  0.12700000000E+01 0.  1.
         25    2    1    2    0    0 -0.15852536353E+02  0.16535804918E+02 -0.58460682280E+03  0.59825941705E+03  0.12499782823E+03 0.  0.
    9000005    1    3    3    0    0  0.27235798908E+02 -0.62902626286E+01 -0.49862175120E+03  0.49940565366E+03  0.10000000000E+01 0.  0.
    9000005    1    3    3    0    0 -0.43088335262E+02  0.22826067546E+02 -0.85985071609E+02  0.98853763383E+02  0.10000000000E+01 0.  0.
          4    1    1    2  501    0  0.15852536353E+02 -0.16535804918E+02 -0.42527439004E+02  0.48321131209E+02  0.12700000000E+01 0. -1.
<mgrwt>
<rscale>  1 0.12707947E+03</rscale>
<asrwt>0</asrwt>
<pdfrwt beam="1">  1       21 0.14957712E-02 0.12707947E+03</pdfrwt>
<pdfrwt beam="2">  1        4 0.97984414E-01 0.12707947E+03</pdfrwt>
<totfact> 0.70474947E+04</totfact>
</mgrwt>
</event>
<event>
 6    4  0.6325740E-003  0.1285224E+03  0.7818608E-02  0.1229665E+00
         -4   -1    0    0    0  501 -0.00000000000E+00  0.00000000000E+00  0.33786424378E+02  0.33810285007E+02  0.12700000000E+01 0.  1.
         21   -1    0    0  501  502  0.00000000000E+00 -0.00000000000E+00 -0.18581975298E+03  0.18581975298E+03  0.00000000000E+00 0.  1.
         25    2    1    2    0    0 -0.65201099471E+01  0.29138874865E+02 -0.12625766588E+03  0.18016380494E+03  0.12500565009E+03 0.  0.
    9000005    1    3    3    0    0  0.15102124806E+02  0.46235367694E+02  0.22770364078E+01  0.48702857147E+02  0.10000000000E+01 0.  0.
    9000005    1    3    3    0    0 -0.21622234753E+02 -0.17096492829E+02 -0.12853470229E+03  0.13146094779E+03  0.10000000000E+01 0.  0.
         -4    1    1    2    0  502  0.65201099471E+01 -0.29138874865E+02 -0.25775662722E+02  0.39466233046E+02  0.12700000000E+01 0. -1.
<mgrwt>
<rscale>  1 0.12852237E+03</rscale>
<asrwt>0</asrwt>
<pdfrwt beam="2">  1       21 0.28587655E-01 0.12852237E+03</pdfrwt>
<pdfrwt beam="1">  1       -4 0.52000806E-02 0.12852237E+03</pdfrwt>
<totfact> 0.10529265E+05</totfact>
</mgrwt>
</event>
<event>
 6    4  0.6325740E-003  0.1269500E+03  0.7818608E-02  0.1232053E+00
         21   -1    0    0  501  502  0.00000000000E+00  0.00000000000E+00  0.33513727888E+02  0.33513727888E+02  0.00000000000E+00 0. -1.
         -4   -1    0    0    0  501 -0.00000000000E+00 -0.00000000000E+00 -0.12452460180E+04  0.12452466656E+04  0.12700000000E+01 0.  1.
         25    2    1    2    0    0  0.16874775860E+02  0.14367016052E+02 -0.12379299897E+04  0.12444223450E+04  0.12500057598E+03 0.  0.
    9000005    1    3    3    0    0  0.14138476106E+02 -0.49471294243E+02 -0.30541500423E+03  0.30972024517E+03  0.10000000000E+01 0.  0.
    9000005    1    3    3    0    0  0.27362997541E+01  0.63838310295E+02 -0.93251498552E+03  0.93470209982E+03  0.10000000000E+01 0.  0.
         -4    1    1    2    0  502 -0.16874775860E+02 -0.14367016052E+02  0.26197699629E+02  0.34338048523E+02  0.12700000000E+01 0. -1.
<mgrwt>
<rscale>  1 0.12695004E+03</rscale>
<asrwt>0</asrwt>
<pdfrwt beam="1">  1       21 0.51559585E-02 0.12695004E+03</pdfrwt>
<pdfrwt beam="2">  1       -4 0.19157820E+00 0.12695004E+03</pdfrwt>
<totfact> 0.17416399E+03</totfact>
</mgrwt>
</event>
<event>
 6    4  0.6325740E-003  0.1452716E+03  0.7818608E-02  0.1206407E+00
         21   -1    0    0  501  502  0.00000000000E+00  0.00000000000E+00  0.14609238134E+03  0.14609238134E+03  0.00000000000E+00 0. -1.
         -4   -1    0    0    0  501 -0.00000000000E+00 -0.00000000000E+00 -0.17063541628E+03  0.17064014237E+03  0.12700000000E+01 0.  1.
         25    2    1    2    0    0  0.73879303462E+02 -0.45889865885E+01 -0.12520255401E+03  0.19177988486E+03  0.12499853770E+03 0.  0.
    9000005    1    3    3    0    0  0.85789686089E+02 -0.48933981039E+02 -0.93219174453E+02  0.13581317766E+03  0.10000000000E+01 0.  0.
    9000005    1    3    3    0    0 -0.11910382626E+02  0.44344994450E+02 -0.31983379558E+02  0.55966707202E+02  0.10000000000E+01 0.  0.
         -4    1    1    2    0  502 -0.73879303462E+02  0.45889865885E+01  0.10065951907E+03  0.12495263886E+03  0.12700000000E+01 0. -1.
<mgrwt>
<rscale>  1 0.14527162E+03</rscale>
<asrwt>0</asrwt>
<pdfrwt beam="1">  1       21 0.22475751E-01 0.14527162E+03</pdfrwt>
<pdfrwt beam="2">  1       -4 0.26252391E-01 0.14527162E+03</pdfrwt>
<totfact> 0.10455536E+04</totfact>
</mgrwt>
</event>
<event>
 6    4  0.6325740E-003  0.1278010E+03  0.7818608E-02  0.1230756E+00
         21   -1    0    0  501  502  0.00000000000E+00  0.00000000000E+00  0.69072258796E+03  0.69072258796E+03  0.00000000000E+00 0.  1.
          4   -1    0    0  502    0 -0.00000000000E+00 -0.00000000000E+00 -0.11941259119E+02  0.12008603971E+02  0.12700000000E+01 0. -1.
         25    2    1    2    0    0  0.23025186822E+01 -0.26521480104E+02  0.34538807292E+03  0.36827436887E+03  0.12499759738E+03 0.  0.
    9000005    1    3    3    0    0 -0.52063281809E+02  0.67115237180E+01  0.23516779709E+03  0.24095751213E+03  0.10000000000E+01 0.  0.
    9000005    1    3    3    0    0  0.54365800491E+02 -0.33233003822E+02  0.11022027583E+03  0.12731685674E+03  0.10000000000E+01 0.  0.
          4    1    1    2  501    0 -0.23025186822E+01  0.26521480104E+02  0.33339325591E+03  0.33445682306E+03  0.12700000000E+01 0.  1.
<mgrwt>
<rscale>  1 0.12780098E+03</rscale>
<asrwt>0</asrwt>
<pdfrwt beam="1">  1       21 0.10626498E+00 0.12780098E+03</pdfrwt>
<pdfrwt beam="2">  1        4 0.18423875E-02 0.12780098E+03</pdfrwt>
<totfact> 0.33531676E+04</totfact>
</mgrwt>
</event>
<event>
 6    4  0.6325740E-003  0.1406194E+03  0.7818608E-02  0.1212498E+00
         21   -1    0    0  501  502  0.00000000000E+00  0.00000000000E+00  0.65553879311E+02  0.65553879311E+02  0.00000000000E+00 0.  1.
         -4   -1    0    0    0  501 -0.00000000000E+00 -0.00000000000E+00 -0.19675144195E+03  0.19675554073E+03  0.12700000000E+01 0. -1.
         25    2    1    2    0    0 -0.63929759930E+02  0.77901197737E+01 -0.13863334021E+03  0.19746650325E+03  0.12500446678E+03 0.  0.
    9000005    1    3    3    0    0 -0.82674520507E+02  0.23270821023E+02 -0.37982263555E+02  0.93916238196E+02  0.10000000000E+01 0.  0.
    9000005    1    3    3    0    0  0.18744760577E+02 -0.15480701249E+02 -0.10065107666E+03  0.10355026505E+03  0.10000000000E+01 0.  0.
         -4    1    1    2    0  502  0.63929759930E+02 -0.77901197737E+01  0.74357775715E+01  0.64842916798E+02  0.12700000000E+01 0.  1.
<mgrwt>
<rscale>  1 0.14061940E+03</rscale>
<asrwt>0</asrwt>
<pdfrwt beam="1">  1       21 0.10085212E-01 0.14061940E+03</pdfrwt>
<pdfrwt beam="2">  1       -4 0.30270714E-01 0.14061940E+03</pdfrwt>
<totfact> 0.34034723E+04</totfact>
</mgrwt>
</event>
<event>
 6    4  0.6325740E-003  0.1322519E+03  0.7818608E-02  0.1224152E+00
         -4   -1    0    0    0  501 -0.00000000000E+00  0.00000000000E+00  0.36844074451E+02  0.36865956141E+02  0.12700000000E+01 0. -1.
         21   -1    0    0  501  502  0.00000000000E+00 -0.00000000000E+00 -0.22010110602E+03  0.22010110602E+03  0.00000000000E+00 0.  1.
         25    2    1    2    0    0  0.69315467257E+01 -0.42636390928E+02 -0.11047960135E+03  0.17232620075E+03  0.12499867591E+03 0.  0.
    9000005    1    3    3    0    0  0.28194754894E+02 -0.82414053538E+02 -0.71112063379E+02  0.11244974870E+03  0.10000000000E+01 0.  0.
    9000005    1    3    3    0    0 -0.21263208169E+02  0.39777662609E+02 -0.39367537968E+02  0.59876452048E+02  0.10000000000E+01 0.  0.
         -4    1    1    2    0  502 -0.69315467257E+01  0.42636390928E+02 -0.72777430225E+02  0.84640861418E+02  0.12700000000E+01 0.  1.
<mgrwt>
<rscale>  1 0.13225195E+03</rscale>
<asrwt>0</asrwt>
<pdfrwt beam="2">  1       21 0.33861709E-01 0.13225195E+03</pdfrwt>
<pdfrwt beam="1">  1       -4 0.56702842E-02 0.13225195E+03</pdfrwt>
<totfact> 0.66195306E+04</totfact>
</mgrwt>
</event>
<event>
 6    4  0.6325740E-003  0.1334132E+03  0.7818608E-02  0.1222477E+00
         21   -1    0    0  501  502  0.00000000000E+00  0.00000000000E+00  0.86330352804E+03  0.86330352804E+03  0.00000000000E+00 0. -1.
          4   -1    0    0  502    0 -0.00000000000E+00 -0.00000000000E+00 -0.93506229621E+01  0.94364744359E+01  0.12700000000E+01 0. -1.
         25    2    1    2    0    0  0.23120678857E+02 -0.40492545767E+02  0.62352767297E+03  0.63764084776E+03  0.12499951890E+03 0.  0.
    9000005    1    3    3    0    0  0.26241295865E+02 -0.20402668175E+02  0.61445647000E+03  0.61535569227E+03  0.10000000000E+01 0.  0.
    9000005    1    3    3    0    0 -0.31206170083E+01 -0.20089877592E+02  0.90712029619E+01  0.22285155493E+02  0.10000000000E+01 0.  0.
          4    1    1    2  501    0 -0.23120678857E+02  0.40492545767E+02  0.23042523211E+03  0.23509915471E+03  0.12700000000E+01 0.  1.
<mgrwt>
<rscale>  1 0.13341324E+03</rscale>
<asrwt>0</asrwt>
<pdfrwt beam="1">  1       21 0.13281586E+00 0.13341324E+03</pdfrwt>
<pdfrwt beam="2">  1        4 0.14452339E-02 0.13341324E+03</pdfrwt>
<totfact> 0.28330640E+04</totfact>
</mgrwt>
</event>
<event>
 6    4  0.6325740E-003  0.1717592E+03  0.7818608E-02  0.1176026E+00
         21   -1    0    0  501  502  0.00000000000E+00  0.00000000000E+00  0.39259286280E+03  0.39259286280E+03  0.00000000000E+00 0. -1.
          4   -1    0    0  502    0 -0.00000000000E+00 -0.00000000000E+00 -0.60111633977E+02  0.60125048352E+02  0.12700000000E+01 0.  1.
         25    2    1    2    0    0  0.19125090694E+02  0.11623438689E+03  0.11921297984E+03  0.20907645180E+03  0.12500010539E+03 0.  0.
    9000005    1    3    3    0    0 -0.21226926779E+02  0.48684283619E+01 -0.17664778595E+02  0.28059373086E+02  0.10000000000E+01 0.  0.
    9000005    1    3    3    0    0  0.40352017473E+02  0.11136595853E+03  0.13687775843E+03  0.18101707871E+03  0.10000000000E+01 0.  0.
          4    1    1    2  501    0 -0.19125090694E+02 -0.11623438689E+03  0.21326824898E+03  0.24364145935E+03  0.12700000000E+01 0. -1.
<mgrwt>
<rscale>  1 0.17175922E+03</rscale>
<asrwt>0</asrwt>
<pdfrwt beam="1">  1       21 0.60398900E-01 0.17175922E+03</pdfrwt>
<pdfrwt beam="2">  1        4 0.92491338E-02 0.17175922E+03</pdfrwt>
<totfact> 0.92533772E+03</totfact>
</mgrwt>
</event>
<event>
 6    4  0.6325740E-003  0.1300760E+03  0.7818608E-02  0.1227343E+00
         -4   -1    0    0    0  501 -0.00000000000E+00  0.00000000000E+00  0.71987217685E+01  0.73098902249E+01  0.12700000000E+01 0. -1.
         21   -1    0    0  501  502  0.00000000000E+00 -0.00000000000E+00 -0.16120301439E+04  0.16120301439E+04  0.00000000000E+00 0.  1.
         25    2    1    2    0    0 -0.32294252070E+02  0.15880005107E+02 -0.60338894341E+03  0.61725034534E+03  0.12499871406E+03 0.  0.
    9000005    1    3    3    0    0  0.19924728816E+02  0.50077385532E+01 -0.50424723928E+03  0.50466657367E+03  0.10000000000E+01 0.  0.
    9000005    1    3    3    0    0 -0.52218980886E+02  0.10872266553E+02 -0.99141704134E+02  0.11258377167E+03  0.10000000000E+01 0.  0.
         -4    1    1    2    0  502  0.32294252070E+02 -0.15880005107E+02 -0.10014424787E+04  0.10020896888E+04  0.12700000000E+01 0.  1.
<mgrwt>
<rscale>  1 0.13007602E+03</rscale>
<asrwt>0</asrwt>
<pdfrwt beam="2">  1       21 0.24800492E+00 0.13007602E+03</pdfrwt>
<pdfrwt beam="1">  1       -4 0.11160843E-02 0.13007602E+03</pdfrwt>
<totfact> 0.72211435E+03</totfact>
</mgrwt>
</event>
<event>
 6    4  0.6325740E-003  0.1312281E+03  0.7818608E-02  0.1225645E+00
         21   -1    0    0  501  502  0.00000000000E+00  0.00000000000E+00  0.40517268030E+03  0.40517268030E+03  0.00000000000E+00 0.  1.
         -4   -1    0    0    0  501 -0.00000000000E+00 -0.00000000000E+00 -0.41438270872E+02  0.41457727782E+02  0.12700000000E+01 0. -1.
         25    2    1    2    0    0 -0.39052601549E+02  0.84393857283E+01  0.67236966110E+02  0.14745040255E+03  0.12499793070E+03 0.  0.
    9000005    1    3    3    0    0  0.39134427995E+02  0.49503587603E+01 -0.64124256213E+01  0.39976602015E+02  0.10000000000E+01 0.  0.
    9000005    1    3    3    0    0 -0.78187029543E+02  0.34890269680E+01  0.73649391732E+02  0.10747380053E+03  0.10000000000E+01 0.  0.
         -4    1    1    2    0  502  0.39052601549E+02 -0.84393857283E+01  0.29649744332E+03  0.29918000554E+03  0.12700000000E+01 0.  1.
<mgrwt>
<rscale>  1 0.13122809E+03</rscale>
<asrwt>0</asrwt>
<pdfrwt beam="1">  1       21 0.62334256E-01 0.13122809E+03</pdfrwt>
<pdfrwt beam="2">  1       -4 0.63767687E-02 0.13122809E+03</pdfrwt>
<totfact> 0.15722094E+04</totfact>
</mgrwt>
</event>
<event>
 6    4  0.6325740E-003  0.1295972E+03  0.7818608E-02  0.1228055E+00
         21   -1    0    0  501  502  0.00000000000E+00  0.00000000000E+00  0.38962750669E+02  0.38962750669E+02  0.00000000000E+00 0. -1.
         -4   -1    0    0    0  501 -0.00000000000E+00 -0.00000000000E+00 -0.22846338758E+03  0.22846691744E+03  0.12700000000E+01 0.  1.
         25    2    1    2    0    0  0.29134899473E+02  0.17931050785E+02 -0.19357679879E+03  0.23295369176E+03  0.12500032210E+03 0.  0.
    9000005    1    3    3    0    0  0.28284614012E+02  0.61981512961E+02 -0.55084621000E+02  0.87618735493E+02  0.10000000000E+01 0.  0.
    9000005    1    3    3    0    0  0.85028546081E+00 -0.44050462175E+02 -0.13849217779E+03  0.14533495626E+03  0.10000000000E+01 0.  0.
         -4    1    1    2    0  502 -0.29134899473E+02 -0.17931050785E+02  0.40761618814E+01  0.34475976349E+02  0.12700000000E+01 0. -1.
<mgrwt>
<rscale>  1 0.12959724E+03</rscale>
<asrwt>0</asrwt>
<pdfrwt beam="1">  1       21 0.59942694E-02 0.12959724E+03</pdfrwt>
<pdfrwt beam="2">  1       -4 0.35150077E-01 0.12959724E+03</pdfrwt>
<totfact> 0.62096414E+04</totfact>
</mgrwt>
</event>
<event>
 6    4  0.6325740E-003  0.1314264E+03  0.7818608E-02  0.1225354E+00
         21   -1    0    0  501  502  0.00000000000E+00  0.00000000000E+00  0.52433204756E+03  0.52433204756E+03  0.00000000000E+00 0. -1.
         -4   -1    0    0    0  501 -0.00000000000E+00 -0.00000000000E+00 -0.14365201810E+02  0.14421231676E+02  0.12700000000E+01 0. -1.
         25    2    1    2    0    0  0.24841815029E+02 -0.32105485902E+02  0.35480920614E+03  0.37836816762E+03  0.12500007803E+03 0.  0.
    9000005    1    3    3    0    0  0.15931271904E+02 -0.76890617279E+02  0.27920532861E+03  0.29003894217E+03  0.10000000000E+01 0.  0.
    9000005    1    3    3    0    0  0.89105431253E+01  0.44785131377E+02  0.75603877532E+02  0.88329225453E+02  0.10000000000E+01 0.  0.
         -4    1    1    2    0  502 -0.24841815029E+02  0.32105485902E+02  0.15515763961E+03  0.16038511162E+03  0.12700000000E+01 0.  1.
<mgrwt>
<rscale>  1 0.13142640E+03</rscale>
<asrwt>0</asrwt>
<pdfrwt beam="1">  1       21 0.80666454E-01 0.13142640E+03</pdfrwt>
<pdfrwt beam="2">  1       -4 0.22144598E-02 0.13142640E+03</pdfrwt>
<totfact> 0.47786630E+04</totfact>
</mgrwt>
</event>
<event>
 6    4  0.6325740E-003  0.1352423E+03  0.7818608E-02  0.1219878E+00
         -4   -1    0    0    0  501 -0.00000000000E+00  0.00000000000E+00  0.13531577104E+02  0.13591044071E+02  0.12700000000E+01 0. -1.
         21   -1    0    0  501  502  0.00000000000E+00 -0.00000000000E+00 -0.10491785749E+04  0.10491785749E+04  0.00000000000E+00 0.  1.
         25    2    1    2    0    0 -0.32898202979E+02 -0.39782838019E+02 -0.35061887771E+03  0.37579792802E+03  0.12500207733E+03 0.  0.
    9000005    1    3    3    0    0 -0.25657170925E+02 -0.28506288838E+02 -0.35828053434E+03  0.36032879459E+03  0.10000000000E+01 0.  0.
    9000005    1    3    3    0    0 -0.72410320533E+01 -0.11276549181E+02  0.76616566332E+01  0.15469133427E+02  0.10000000000E+01 0.  0.
         -4    1    1    2    0  502  0.32898202979E+02  0.39782838019E+02 -0.68502812013E+03  0.68697169099E+03  0.12700000000E+01 0.  1.
<mgrwt>
<rscale>  1 0.13524232E+03</rscale>
<asrwt>0</asrwt>
<pdfrwt beam="2">  1       21 0.16141208E+00 0.13524232E+03</pdfrwt>
<pdfrwt beam="1">  1       -4 0.20864147E-02 0.13524232E+03</pdfrwt>
<totfact> 0.97679514E+03</totfact>
</mgrwt>
</event>
<event>
 6    4  0.6325740E-003  0.1302387E+03  0.7818608E-02  0.1227102E+00
         -4   -1    0    0    0  501 -0.00000000000E+00  0.00000000000E+00  0.21245233480E+02  0.21283158732E+02  0.12700000000E+01 0.  1.
         21   -1    0    0  501  502  0.00000000000E+00 -0.00000000000E+00 -0.32920564040E+03  0.32920564040E+03  0.00000000000E+00 0.  1.
         25    2    1    2    0    0 -0.34256840796E+02  0.12804027267E+02 -0.25119682964E+03  0.28295221007E+03  0.12499852684E+03 0.  0.
    9000005    1    3    3    0    0 -0.49518649502E+01 -0.46728204181E+02 -0.40470002712E+02  0.62023117884E+02  0.10000000000E+01 0.  0.
    9000005    1    3    3    0    0 -0.29304975846E+02  0.59532231449E+02 -0.21072682692E+03  0.22092909219E+03  0.10000000000E+01 0.  0.
         -4    1    1    2    0  502  0.34256840796E+02 -0.12804027267E+02 -0.56763577285E+02  0.67536589060E+02  0.12700000000E+01 0. -1.
<mgrwt>
<rscale>  1 0.13023865E+03</rscale>
<asrwt>0</asrwt>
<pdfrwt beam="2">  1       21 0.50647020E-01 0.13023865E+03</pdfrwt>
<pdfrwt beam="1">  1       -4 0.32716033E-02 0.13023865E+03</pdfrwt>
<totfact> 0.70666100E+04</totfact>
</mgrwt>
</event>
<event>
 6    4  0.6325740E-003  0.1273758E+03  0.7818608E-02  0.1231402E+00
         21   -1    0    0  501  502  0.00000000000E+00  0.00000000000E+00  0.38835647357E+03  0.38835647357E+03  0.00000000000E+00 0.  1.
          4   -1    0    0  502    0 -0.00000000000E+00 -0.00000000000E+00 -0.16707157739E+02  0.16755357940E+02  0.12700000000E+01 0.  1.
         25    2    1    2    0    0  0.10034254423E+02 -0.22319213308E+02  0.24520663302E+03  0.27631665116E+03  0.12500306111E+03 0.  0.
    9000005    1    3    3    0    0 -0.54421943681E+02  0.97144053383E+01  0.10111633078E+03  0.11524595427E+03  0.10000000000E+01 0.  0.
    9000005    1    3    3    0    0  0.64456198104E+02 -0.32033618647E+02  0.14409030224E+03  0.16107069689E+03  0.10000000000E+01 0.  0.
          4    1    1    2  501    0 -0.10034254423E+02  0.22319213308E+02  0.12644268282E+03  0.12879518035E+03  0.12700000000E+01 0. -1.
<mgrwt>
<rscale>  1 0.12737582E+03</rscale>
<asrwt>0</asrwt>
<pdfrwt beam="1">  1       21 0.59747143E-01 0.12737582E+03</pdfrwt>
<pdfrwt beam="2">  1        4 0.25741997E-02 0.12737582E+03</pdfrwt>
<totfact> 0.72530171E+04</totfact>
</mgrwt>
</event>
<event>
 6    4  0.6325740E-003  0.1276496E+03  0.7818608E-02  0.1230986E+00
         21   -1    0    0  501  502  0.00000000000E+00  0.00000000000E+00  0.80676447854E+02  0.80676447854E+02  0.00000000000E+00 0.  1.
          4   -1    0    0  502    0 -0.00000000000E+00 -0.00000000000E+00 -0.47880482999E+03  0.47880651428E+03  0.12700000000E+01 0. -1.
         25    2    1    2    0    0  0.24538182048E+01  0.25739032108E+02 -0.46793363364E+03  0.48503227352E+03  0.12500360742E+03 0.  0.
    9000005    1    3    3    0    0  0.19713175697E+02  0.65925295401E+02 -0.38662579135E+03  0.39270250369E+03  0.10000000000E+01 0.  0.
    9000005    1    3    3    0    0 -0.17259357492E+02 -0.40186263294E+02 -0.81307842290E+02  0.92329769828E+02  0.10000000000E+01 0.  0.
          4    1    1    2  501    0 -0.24538182048E+01 -0.25739032108E+02  0.69805251506E+02  0.74450688617E+02  0.12700000000E+01 0.  1.
<mgrwt>
<rscale>  1 0.12764960E+03</rscale>
<asrwt>0</asrwt>
<pdfrwt beam="1">  1       21 0.12411761E-01 0.12764960E+03</pdfrwt>
<pdfrwt beam="2">  1        4 0.73663182E-01 0.12764960E+03</pdfrwt>
<totfact> 0.38686710E+03</totfact>
</mgrwt>
</event>
<event>
 6    4  0.6325740E-003  0.1267502E+03  0.7818608E-02  0.1232359E+00
          4   -1    0    0  502    0 -0.00000000000E+00  0.00000000000E+00  0.81612339963E+02  0.81622220836E+02  0.12700000000E+01 0. -1.
         21   -1    0    0  501  502  0.00000000000E+00 -0.00000000000E+00 -0.11338111439E+03  0.11338111439E+03  0.00000000000E+00 0.  1.
         25    2    1    2    0    0 -0.89558823456E+01 -0.18981074389E+02  0.29576043348E+02  0.13015513879E+03  0.12500051520E+03 0.  0.
    9000005    1    3    3    0    0 -0.16745229011E+02  0.45451347597E+01 -0.46762884028E+02  0.49888157585E+02  0.10000000000E+01 0.  0.
    9000005    1    3    3    0    0  0.77893466653E+01 -0.23526209148E+02  0.76338927376E+02  0.80266981202E+02  0.10000000000E+01 0.  0.
          4    1    1    2  501    0  0.89558823456E+01  0.18981074389E+02 -0.61344817775E+02  0.64848196439E+02  0.12700000000E+01 0.  1.
<mgrwt>
<rscale>  1 0.12675022E+03</rscale>
<asrwt>0</asrwt>
<pdfrwt beam="2">  1       21 0.17443248E-01 0.12675022E+03</pdfrwt>
<pdfrwt beam="1">  1        4 0.12557052E-01 0.12675022E+03</pdfrwt>
<totfact> 0.61352950E+04</totfact>
</mgrwt>
</event>
<event>
 6    4  0.6325740E-003  0.1275220E+03  0.7818608E-02  0.1231180E+00
         21   -1    0    0  501  502  0.00000000000E+00  0.00000000000E+00  0.22280430230E+02  0.22280430230E+02  0.00000000000E+00 0. -1.
          4   -1    0    0  502    0 -0.00000000000E+00 -0.00000000000E+00 -0.26494855421E+03  0.26495159800E+03  0.12700000000E+01 0. -1.
         25    2    1    2    0    0 -0.11809090158E+02 -0.22283837210E+02 -0.21317425342E+03  0.24840516494E+03  0.12500335852E+03 0.  0.
    9000005    1    3    3    0    0  0.25691861242E+02 -0.62245034191E+02 -0.15209818181E+03  0.16634113419E+03  0.10000000000E+01 0.  0.
    9000005    1    3    3    0    0 -0.37500951400E+02  0.39961196981E+02 -0.61076071607E+02  0.82064030750E+02  0.10000000000E+01 0.  0.
          4    1    1    2  501    0  0.11809090158E+02  0.22283837210E+02 -0.29493870568E+02  0.38826863281E+02  0.12700000000E+01 0.  1.
<mgrwt>
<rscale>  1 0.12752201E+03</rscale>
<asrwt>0</asrwt>
<pdfrwt beam="1">  1       21 0.34277585E-02 0.12752201E+03</pdfrwt>
<pdfrwt beam="2">  1        4 0.40764334E-01 0.12752201E+03</pdfrwt>
<totfact> 0.11811481E+05</totfact>
</mgrwt>
</event>
<event>
 6    4  0.6325740E-003  0.1298366E+03  0.7818608E-02  0.1227698E+00
         21   -1    0    0  501  502  0.00000000000E+00  0.00000000000E+00  0.22756394089E+03  0.22756394089E+03  0.00000000000E+00 0. -1.
         -4   -1    0    0    0  501 -0.00000000000E+00 -0.00000000000E+00 -0.84706070202E+02  0.84715590236E+02  0.12700000000E+01 0.  1.
         25    2    1    2    0    0  0.31876896059E+02 -0.14908427621E+02 -0.32155124491E+02  0.13375905864E+03  0.12497654188E+03 0.  0.
    9000005    1    3    3    0    0 -0.89737910403E+01  0.34606310515E+02  0.28275863493E+02  0.45592215447E+02  0.10000000000E+01 0.  0.
    9000005    1    3    3    0    0  0.40850687099E+02 -0.49514738136E+02 -0.60430987984E+02  0.88166843189E+02  0.10000000000E+01 0.  0.
         -4    1    1    2    0  502 -0.31876896059E+02  0.14908427621E+02  0.17501299518E+03  0.17852047249E+03  0.12700000000E+01 0. -1.
<mgrwt>
<rscale>  1 0.12983657E+03</rscale>
<asrwt>0</asrwt>
<pdfrwt beam="1">  1       21 0.35009837E-01 0.12983657E+03</pdfrwt>
<pdfrwt beam="2">  1       -4 0.13032708E-01 0.12983657E+03</pdfrwt>
<totfact> 0.15466242E+04</totfact>
</mgrwt>
</event>
<event>
 6    4  0.6325740E-003  0.1266140E+03  0.7818608E-02  0.1232568E+00
         21   -1    0    0  501  502  0.00000000000E+00  0.00000000000E+00  0.11451769620E+03  0.11451769620E+03  0.00000000000E+00 0.  1.
          4   -1    0    0  502    0 -0.00000000000E+00 -0.00000000000E+00 -0.54187926273E+02  0.54202806697E+02  0.12700000000E+01 0.  1.
         25    2    1    2    0    0  0.12875830065E+02  0.15578463565E+02  0.26599009012E+02  0.12937774424E+03  0.12499047122E+03 0.  0.
    9000005    1    3    3    0    0  0.65415026614E+02 -0.16754812949E+00 -0.57798618988E+01  0.65677702326E+02  0.10000000000E+01 0.  0.
    9000005    1    3    3    0    0 -0.52539196549E+02  0.15746011695E+02  0.32378870911E+02  0.63700041913E+02  0.10000000000E+01 0.  0.
          4    1    1    2  501    0 -0.12875830065E+02 -0.15578463565E+02  0.33730760914E+02  0.39342758657E+02  0.12700000000E+01 0. -1.
<mgrwt>
<rscale>  1 0.12661395E+03</rscale>
<asrwt>0</asrwt>
<pdfrwt beam="1">  1       21 0.17618107E-01 0.12661395E+03</pdfrwt>
<pdfrwt beam="2">  1        4 0.83382904E-02 0.12661395E+03</pdfrwt>
<totfact> 0.12012993E+05</totfact>
</mgrwt>
</event>
<event>
 6    4  0.6325740E-003  0.1270015E+03  0.7818608E-02  0.1231974E+00
         21   -1    0    0  501  502  0.00000000000E+00  0.00000000000E+00  0.27747352047E+01  0.27747352047E+01  0.00000000000E+00 0.  1.
          4   -1    0    0  502    0 -0.00000000000E+00 -0.00000000000E+00 -0.20907444299E+04  0.20907448156E+04  0.12700000000E+01 0.  1.
         25    2    1    2    0    0 -0.85339619054E+01  0.20758174336E+02 -0.18936188942E+04  0.18978729897E+04  0.12500255380E+03 0.  0.
    9000005    1    3    3    0    0 -0.57833370355E+01  0.29963616518E+02 -0.10813585766E+03  0.11236382432E+03  0.10000000000E+01 0.  0.
    9000005    1    3    3    0    0 -0.27506248699E+01 -0.92054421826E+01 -0.17854830365E+04  0.17855091654E+04  0.10000000000E+01 0.  0.
          4    1    1    2  501    0  0.85339619054E+01 -0.20758174336E+02 -0.19435080052E+03  0.19564656110E+03  0.12700000000E+01 0. -1.
<mgrwt>
<rscale>  1 0.12700145E+03</rscale>
<asrwt>0</asrwt>
<pdfrwt beam="1">  1       21 0.42688188E-03 0.12700145E+03</pdfrwt>
<pdfrwt beam="2">  1        4 0.32167572E+00 0.12700145E+03</pdfrwt>
<totfact> 0.16242835E+04</totfact>
</mgrwt>
</event>
<event>
 6    4  0.6325740E-003  0.1719050E+03  0.7818608E-02  0.1175876E+00
         -4   -1    0    0    0  501 -0.00000000000E+00  0.00000000000E+00  0.37550828907E+03  0.37551043668E+03  0.12700000000E+01 0.  1.
         21   -1    0    0  501  502  0.00000000000E+00 -0.00000000000E+00 -0.13416735289E+03  0.13416735289E+03  0.00000000000E+00 0. -1.
         25    2    1    2    0    0 -0.75042973397E+02  0.91074261115E+02  0.32318512997E+03  0.36606005442E+03  0.12500146524E+03 0.  0.
    9000005    1    3    3    0    0  0.19693258949E+02  0.14244867628E+02  0.16255664604E+03  0.16436667507E+03  0.10000000000E+01 0.  0.
    9000005    1    3    3    0    0 -0.94736232346E+02  0.76829393486E+02  0.16062848393E+03  0.20169337935E+03  0.10000000000E+01 0.  0.
         -4    1    1    2    0  502  0.75042973397E+02 -0.91074261115E+02 -0.81844193799E+02  0.14361773516E+03  0.12700000000E+01 0. -1.
<mgrwt>
<rscale>  1 0.17190502E+03</rscale>
<asrwt>0</asrwt>
<pdfrwt beam="2">  1       21 0.20641131E-01 0.17190502E+03</pdfrwt>
<pdfrwt beam="1">  1       -4 0.57771133E-01 0.17190502E+03</pdfrwt>
<totfact> 0.26181951E+03</totfact>
</mgrwt>
</event>
<event>
 6    4  0.6325740E-003  0.1302447E+03  0.7818608E-02  0.1227093E+00
         -4   -1    0    0    0  501 -0.00000000000E+00  0.00000000000E+00  0.66753189335E+02  0.66765269313E+02  0.12700000000E+01 0. -1.
         21   -1    0    0  501  502  0.00000000000E+00 -0.00000000000E+00 -0.13538800429E+03  0.13538800429E+03  0.00000000000E+00 0.  1.
         25    2    1    2    0    0 -0.44174648148E+00 -0.36586747127E+02 -0.69602817869E+01  0.13043057046E+03  0.12499961193E+03 0.  0.
    9000005    1    3    3    0    0  0.42459546295E+02 -0.19568831524E+01  0.39719169806E+02  0.58182943492E+02  0.10000000000E+01 0.  0.
    9000005    1    3    3    0    0 -0.42901292777E+02 -0.34629863975E+02 -0.46679451593E+02  0.72247626964E+02  0.10000000000E+01 0.  0.
         -4    1    1    2    0  502  0.44174648148E+00  0.36586747127E+02 -0.61674533171E+02  0.71722703150E+02  0.12700000000E+01 0.  1.
<mgrwt>
<rscale>  1 0.13024472E+03</rscale>
<asrwt>0</asrwt>
<pdfrwt beam="2">  1       21 0.20828923E-01 0.13024472E+03</pdfrwt>
<pdfrwt beam="1">  1       -4 0.10271109E-01 0.13024472E+03</pdfrwt>
<totfact> 0.62512922E+04</totfact>
</mgrwt>
</event>
<event>
 6    4  0.6325740E-003  0.1275465E+03  0.7818608E-02  0.1231142E+00
         21   -1    0    0  501  502  0.00000000000E+00  0.00000000000E+00  0.21715363733E+02  0.21715363733E+02  0.00000000000E+00 0.  1.
         -4   -1    0    0    0  501 -0.00000000000E+00 -0.00000000000E+00 -0.83072999742E+03  0.83073096820E+03  0.12700000000E+01 0. -1.
         25    2    1    2    0    0 -0.24457363518E+02  0.66902602247E+01 -0.81616487185E+03  0.82607094534E+03  0.12500074592E+03 0.  0.
    9000005    1    3    3    0    0 -0.26658730352E+02 -0.55096480841E+02 -0.51488296092E+03  0.51850918367E+03  0.10000000000E+01 0.  0.
    9000005    1    3    3    0    0  0.22013668345E+01  0.61786741065E+02 -0.30128191093E+03  0.30756176167E+03  0.10000000000E+01 0.  0.
         -4    1    1    2    0  502  0.24457363518E+02 -0.66902602247E+01  0.71502381573E+01  0.26375386591E+02  0.12700000000E+01 0.  1.
<mgrwt>
<rscale>  1 0.12754650E+03</rscale>
<asrwt>0</asrwt>
<pdfrwt beam="1">  1       21 0.33408259E-02 0.12754650E+03</pdfrwt>
<pdfrwt beam="2">  1       -4 0.12780752E+00 0.12754650E+03</pdfrwt>
<totfact> 0.10228945E+04</totfact>
</mgrwt>
</event>
<event>
 6    4  0.6325740E-003  0.1521413E+03  0.7818608E-02  0.1197866E+00
          4   -1    0    0  502    0 -0.00000000000E+00  0.00000000000E+00  0.84911538128E+02  0.84921035128E+02  0.12700000000E+01 0.  1.
         21   -1    0    0  501  502  0.00000000000E+00 -0.00000000000E+00 -0.26460275313E+03  0.26460275313E+03  0.00000000000E+00 0. -1.
         25    2    1    2    0    0 -0.88110046790E+01 -0.86280421096E+02 -0.24096818927E+01  0.15216041843E+03  0.12500016601E+03 0.  0.
    9000005    1    3    3    0    0  0.24429576751E+02  0.24907509459E+02 -0.85804313091E+01  0.35941786950E+02  0.10000000000E+01 0.  0.
    9000005    1    3    3    0    0 -0.33240581430E+02 -0.11118793056E+03  0.61707494164E+01  0.11621863148E+03  0.10000000000E+01 0.  0.
          4    1    1    2  501    0  0.88110046790E+01  0.86280421096E+02 -0.17728153311E+03  0.19736336983E+03  0.12700000000E+01 0. -1.
<mgrwt>
<rscale>  1 0.15214134E+03</rscale>
<asrwt>0</asrwt>
<pdfrwt beam="2">  1       21 0.40708117E-01 0.15214134E+03</pdfrwt>
<pdfrwt beam="1">  1        4 0.13064278E-01 0.15214134E+03</pdfrwt>
<totfact> 0.11558263E+04</totfact>
</mgrwt>
</event>
<event>
 6    4  0.6325740E-003  0.1285242E+03  0.7818608E-02  0.1229662E+00
         21   -1    0    0  501  502  0.00000000000E+00  0.00000000000E+00  0.52329017427E+03  0.52329017427E+03  0.00000000000E+00 0.  1.
         -4   -1    0    0    0  501 -0.00000000000E+00 -0.00000000000E+00 -0.80915681815E+02  0.80925647748E+02  0.12700000000E+01 0. -1.
         25    2    1    2    0    0 -0.26560288654E+02 -0.13734137214E+02 -0.29112354745E+02  0.13178007460E+03  0.12499753359E+03 0.  0.
    9000005    1    3    3    0    0 -0.58156325418E+02 -0.51149860398E+02 -0.29257528481E+02  0.82797761912E+02  0.10000000000E+01 0.  0.
    9000005    1    3    3    0    0  0.31596036764E+02  0.37415723184E+02  0.14517373629E+00  0.48982312685E+02  0.10000000000E+01 0.  0.
         -4    1    1    2    0  502  0.26560288654E+02  0.13734137214E+02  0.47148684720E+03  0.47243574743E+03  0.12700000000E+01 0.  1.
<mgrwt>
<rscale>  1 0.12852416E+03</rscale>
<asrwt>0</asrwt>
<pdfrwt beam="1">  1       21 0.80506178E-01 0.12852416E+03</pdfrwt>
<pdfrwt beam="2">  1       -4 0.12449452E-01 0.12852416E+03</pdfrwt>
<totfact> 0.29373824E+03</totfact>
</mgrwt>
</event>
<event>
 6    4  0.6325740E-003  0.1553535E+03  0.7818608E-02  0.1194045E+00
         21   -1    0    0  501  502  0.00000000000E+00  0.00000000000E+00  0.32852180473E+03  0.32852180473E+03  0.00000000000E+00 0. -1.
         -4   -1    0    0    0  501 -0.00000000000E+00 -0.00000000000E+00 -0.46768633166E+02  0.46785873383E+02  0.12700000000E+01 0. -1.
         25    2    1    2    0    0  0.62125008850E+02  0.68193823326E+02  0.16743526120E+03  0.22840597018E+03  0.12499922502E+03 0.  0.
    9000005    1    3    3    0    0  0.17924053463E+02 -0.36463430549E+02  0.56637546558E+02  0.69711298511E+02  0.10000000000E+01 0.  0.
    9000005    1    3    3    0    0  0.44200955387E+02  0.10465725387E+03  0.11079771464E+03  0.15869467167E+03  0.10000000000E+01 0.  0.
         -4    1    1    2    0  502 -0.62125008850E+02 -0.68193823326E+02  0.11431791036E+03  0.14690170793E+03  0.12700000000E+01 0.  1.
<mgrwt>
<rscale>  1 0.15535353E+03</rscale>
<asrwt>0</asrwt>
<pdfrwt beam="1">  1       21 0.50541815E-01 0.15535353E+03</pdfrwt>
<pdfrwt beam="2">  1       -4 0.71966895E-02 0.15535353E+03</pdfrwt>
<totfact> 0.20330590E+04</totfact>
</mgrwt>
</event>
<event>
 6    4  0.6325740E-003  0.1281153E+03  0.7818608E-02  0.1230279E+00
         -4   -1    0    0    0  501 -0.00000000000E+00  0.00000000000E+00  0.57336787093E+02  0.57350850509E+02  0.12700000000E+01 0. -1.
         21   -1    0    0  501  502  0.00000000000E+00 -0.00000000000E+00 -0.10894869451E+03  0.10894869451E+03  0.00000000000E+00 0. -1.
         25    2    1    2    0    0  0.11265461694E+02  0.25746674740E+02 -0.32137872750E+02  0.13208474101E+03  0.12499493612E+03 0.  0.
    9000005    1    3    3    0    0 -0.17538944640E+02  0.50581842189E+02 -0.63297247584E+02  0.82907652783E+02  0.10000000000E+01 0.  0.
    9000005    1    3    3    0    0  0.28804406333E+02 -0.24835167449E+02  0.31159374834E+02  0.49177088227E+02  0.10000000000E+01 0.  0.
         -4    1    1    2    0  502 -0.11265461694E+02 -0.25746674740E+02 -0.19474034672E+02  0.34214804014E+02  0.12700000000E+01 0.  1.
<mgrwt>
<rscale>  1 0.12811532E+03</rscale>
<asrwt>0</asrwt>
<pdfrwt beam="2">  1       21 0.16761337E-01 0.12811532E+03</pdfrwt>
<pdfrwt beam="1">  1       -4 0.88226955E-02 0.12811532E+03</pdfrwt>
<totfact> 0.11996708E+05</totfact>
</mgrwt>
</event>
<event>
 6    4  0.6325740E-003  0.1384844E+03  0.7818608E-02  0.1215383E+00
          4   -1    0    0  502    0 -0.00000000000E+00  0.00000000000E+00  0.19541536227E+03  0.19541948908E+03  0.12700000000E+01 0.  1.
         21   -1    0    0  501  502  0.00000000000E+00 -0.00000000000E+00 -0.59040151620E+02  0.59040151620E+02  0.00000000000E+00 0. -1.
         25    2    1    2    0    0  0.18353214415E+01  0.59577682835E+02  0.13705209362E+03  0.19483632506E+03  0.12500019401E+03 0.  0.
    9000005    1    3    3    0    0 -0.59866003178E+02  0.17290118284E+02  0.48867554174E+02  0.79195482053E+02  0.10000000000E+01 0.  0.
    9000005    1    3    3    0    0  0.61701324619E+02  0.42287564551E+02  0.88184539444E+02  0.11564084301E+03  0.10000000000E+01 0.  0.
          4    1    1    2  501    0 -0.18353214415E+01 -0.59577682835E+02 -0.67688296492E+00  0.59623315635E+02  0.12700000000E+01 0. -1.
<mgrwt>
<rscale>  1 0.13848436E+03</rscale>
<asrwt>0</asrwt>
<pdfrwt beam="2">  1       21 0.90831003E-02 0.13848436E+03</pdfrwt>
<pdfrwt beam="1">  1        4 0.30065270E-01 0.13848436E+03</pdfrwt>
<totfact> 0.41324568E+04</totfact>
</mgrwt>
</event>
<event>
 6    4  0.6325740E-003  0.1279611E+03  0.7818608E-02  0.1230513E+00
         21   -1    0    0  501  502  0.00000000000E+00  0.00000000000E+00  0.51989778582E+02  0.51989778582E+02  0.00000000000E+00 0. -1.
         -4   -1    0    0    0  501 -0.00000000000E+00 -0.00000000000E+00 -0.11615430077E+03  0.11616124348E+03  0.12700000000E+01 0. -1.
         25    2    1    2    0    0 -0.13856977907E+02  0.23611051817E+02 -0.54610412521E+02  0.13912704032E+03  0.12499815434E+03 0.  0.
    9000005    1    3    3    0    0  0.49434636380E+02  0.37653935041E+02 -0.35295032103E+02  0.71472661831E+02  0.10000000000E+01 0.  0.
    9000005    1    3    3    0    0 -0.63291614287E+02 -0.14042883224E+02 -0.19315380419E+02  0.67654378491E+02  0.10000000000E+01 0.  0.
         -4    1    1    2    0  502  0.13856977907E+02 -0.23611051817E+02 -0.95541096661E+01  0.29023981741E+02  0.12700000000E+01 0.  1.
<mgrwt>
<rscale>  1 0.12796107E+03</rscale>
<asrwt>0</asrwt>
<pdfrwt beam="1">  1       21 0.79984276E-02 0.12796107E+03</pdfrwt>
<pdfrwt beam="2">  1       -4 0.17871619E-01 0.12796107E+03</pdfrwt>
<totfact> 0.13206041E+05</totfact>
</mgrwt>
</event>
<event>
 6    4  0.6325740E-003  0.1266514E+03  0.7818608E-02  0.1232511E+00
         21   -1    0    0  501  502  0.00000000000E+00  0.00000000000E+00  0.81888884001E+01  0.81888884001E+01  0.00000000000E+00 0. -1.
         -4   -1    0    0    0  501 -0.00000000000E+00 -0.00000000000E+00 -0.79344977043E+03  0.79345078681E+03  0.12700000000E+01 0. -1.
         25    2    1    2    0    0 -0.16132547997E+02  0.12466944362E+02 -0.75211812422E+03  0.76270718105E+03  0.12499954975E+03 0.  0.
    9000005    1    3    3    0    0 -0.92659125488E+00  0.59103707043E+02 -0.20389316424E+03  0.21229114249E+03  0.10000000000E+01 0.  0.
    9000005    1    3    3    0    0 -0.15205956743E+02 -0.46636762681E+02 -0.54822495998E+03  0.55041603856E+03  0.10000000000E+01 0.  0.
         -4    1    1    2    0  502  0.16132547997E+02 -0.12466944362E+02 -0.33142757809E+02  0.38932494164E+02  0.12700000000E+01 0. -1.
<mgrwt>
<rscale>  1 0.12665138E+03</rscale>
<asrwt>0</asrwt>
<pdfrwt beam="1">  1       21 0.12598290E-02 0.12665138E+03</pdfrwt>
<pdfrwt beam="2">  1       -4 0.12207684E+00 0.12665138E+03</pdfrwt>
<totfact> 0.55202017E+04</totfact>
</mgrwt>
</event>
<event>
 6    4  0.6325740E-003  0.1266590E+03  0.7818608E-02  0.1232499E+00
         -4   -1    0    0    0  501 -0.00000000000E+00  0.00000000000E+00  0.25442071402E+02  0.25473749179E+02  0.12700000000E+01 0.  1.
         21   -1    0    0  501  502  0.00000000000E+00 -0.00000000000E+00 -0.26177563614E+03  0.26177563614E+03  0.00000000000E+00 0.  1.
         25    2    1    2    0    0  0.46926604652E+01  0.19853129668E+02 -0.14008856269E+03  0.18885791648E+03  0.12500535750E+03 0.  0.
    9000005    1    3    3    0    0  0.20283213813E+02  0.18984870362E+02  0.15940822046E+02  0.32045965000E+02  0.10000000000E+01 0.  0.
    9000005    1    3    3    0    0 -0.15590553348E+02  0.86825930590E+00 -0.15602938473E+03  0.15681195148E+03  0.10000000000E+01 0.  0.
         -4    1    1    2    0  502 -0.46926604652E+01 -0.19853129668E+02 -0.96245002045E+02  0.98391468830E+02  0.12700000000E+01 0. -1.
<mgrwt>
<rscale>  1 0.12665902E+03</rscale>
<asrwt>0</asrwt>
<pdfrwt beam="2">  1       21 0.40273173E-01 0.12665902E+03</pdfrwt>
<pdfrwt beam="1">  1       -4 0.39168387E-02 0.12665902E+03</pdfrwt>
<totfact> 0.84483931E+04</totfact>
</mgrwt>
</event>
<event>
 6    4  0.6325740E-003  0.1511686E+03  0.7818608E-02  0.1199044E+00
         21   -1    0    0  501  502  0.00000000000E+00  0.00000000000E+00  0.44895217637E+02  0.44895217637E+02  0.00000000000E+00 0.  1.
          4   -1    0    0  502    0 -0.00000000000E+00 -0.00000000000E+00 -0.38421978500E+03  0.38422188393E+03  0.12700000000E+01 0. -1.
         25    2    1    2    0    0  0.26249633180E+02 -0.80856470884E+02 -0.29895057415E+03  0.33499757992E+03  0.12500048257E+03 0.  0.
    9000005    1    3    3    0    0 -0.47695305610E+01 -0.10887204901E+03 -0.20512779316E+03  0.23228061263E+03  0.10000000000E+01 0.  0.
    9000005    1    3    3    0    0  0.31019163741E+02  0.28015578125E+02 -0.93822780993E+02  0.10271696729E+03  0.10000000000E+01 0.  0.
          4    1    1    2  501    0 -0.26249633180E+02  0.80856470884E+02 -0.40373993218E+02  0.94119521642E+02  0.12700000000E+01 0.  1.
<mgrwt>
<rscale>  1 0.15116856E+03</rscale>
<asrwt>0</asrwt>
<pdfrwt beam="1">  1       21 0.69069566E-02 0.15116856E+03</pdfrwt>
<pdfrwt beam="2">  1        4 0.59112279E-01 0.15116856E+03</pdfrwt>
<totfact> 0.17451422E+04</totfact>
</mgrwt>
</event>
<event>
 6    4  0.6325740E-003  0.1283682E+03  0.7818608E-02  0.1229897E+00
          4   -1    0    0  502    0 -0.00000000000E+00  0.00000000000E+00  0.50946037063E+02  0.50961864099E+02  0.12700000000E+01 0. -1.
         21   -1    0    0  501  502  0.00000000000E+00 -0.00000000000E+00 -0.29690498998E+03  0.29690498998E+03  0.00000000000E+00 0.  1.
         25    2    1    2    0    0 -0.17439491252E+02 -0.23426322469E+02 -0.32503861146E+02  0.13241937198E+03  0.12500184257E+03 0.  0.
    9000005    1    3    3    0    0 -0.25341477662E+02 -0.61573466795E+02  0.17663290178E+02  0.68894659613E+02  0.10000000000E+01 0.  0.
    9000005    1    3    3    0    0  0.79019864101E+01  0.38147144327E+02 -0.50167151324E+02  0.63524712368E+02  0.10000000000E+01 0.  0.
          4    1    1    2  501    0  0.17439491252E+02  0.23426322469E+02 -0.21345509177E+03  0.21544748210E+03  0.12700000000E+01 0.  1.
<mgrwt>
<rscale>  1 0.12836818E+03</rscale>
<asrwt>0</asrwt>
<pdfrwt beam="2">  1       21 0.45677691E-01 0.12836818E+03</pdfrwt>
<pdfrwt beam="1">  1        4 0.78392782E-02 0.12836818E+03</pdfrwt>
<totfact> 0.21379964E+04</totfact>
</mgrwt>
</event>
<event>
 6    4  0.6325740E-003  0.1379159E+03  0.7818608E-02  0.1216161E+00
         21   -1    0    0  501  502  0.00000000000E+00  0.00000000000E+00  0.78627120603E+02  0.78627120603E+02  0.00000000000E+00 0. -1.
          4   -1    0    0  502    0 -0.00000000000E+00 -0.00000000000E+00 -0.13943830971E+03  0.13944409316E+03  0.12700000000E+01 0. -1.
         25    2    1    2    0    0  0.58252360169E+02  0.17442668913E+01 -0.59832867717E+01  0.13804564468E+03  0.12499768142E+03 0.  0.
    9000005    1    3    3    0    0  0.29676473682E+02 -0.48890896371E+02  0.34857964277E+02  0.66985748571E+02  0.10000000000E+01 0.  0.
    9000005    1    3    3    0    0  0.28575886488E+02  0.50635163262E+02 -0.40841251048E+02  0.71059896104E+02  0.10000000000E+01 0.  0.
          4    1    1    2  501    0 -0.58252360169E+02 -0.17442668913E+01 -0.54827902340E+02  0.80025569084E+02  0.12700000000E+01 0.  1.
<mgrwt>
<rscale>  1 0.13791592E+03</rscale>
<asrwt>0</asrwt>
<pdfrwt beam="1">  1       21 0.12096480E-01 0.13791592E+03</pdfrwt>
<pdfrwt beam="2">  1        4 0.21453281E-01 0.13791592E+03</pdfrwt>
<totfact> 0.46620072E+04</totfact>
</mgrwt>
</event>
<event>
 6    4  0.6325740E-003  0.1272663E+03  0.7818608E-02  0.1231569E+00
         21   -1    0    0  501  502  0.00000000000E+00  0.00000000000E+00  0.70385143782E+03  0.70385143782E+03  0.00000000000E+00 0. -1.
          4   -1    0    0  502    0 -0.00000000000E+00 -0.00000000000E+00 -0.17700658761E+02  0.17746160727E+02  0.12700000000E+01 0.  1.
         25    2    1    2    0    0  0.17492081194E+02 -0.16289326019E+02  0.21503015298E+03  0.24986931631E+03  0.12500157397E+03 0.  0.
    9000005    1    3    3    0    0  0.29196530883E+01  0.16244790486E+02 -0.11760990399E+02  0.20291340203E+02  0.10000000000E+01 0.  0.
    9000005    1    3    3    0    0  0.14572428106E+02 -0.32534116505E+02  0.22679114338E+03  0.22957797611E+03  0.10000000000E+01 0.  0.
          4    1    1    2  501    0 -0.17492081194E+02  0.16289326019E+02  0.47112062608E+03  0.47172828224E+03  0.12700000000E+01 0. -1.
<mgrwt>
<rscale>  1 0.12726629E+03</rscale>
<asrwt>0</asrwt>
<pdfrwt beam="1">  1       21 0.10828482E+00 0.12726629E+03</pdfrwt>
<pdfrwt beam="2">  1        4 0.27267671E-02 0.12726629E+03</pdfrwt>
<totfact> 0.17487526E+04</totfact>
</mgrwt>
</event>
<event>
 6    4  0.6325740E-003  0.1273088E+03  0.7818608E-02  0.1231505E+00
         21   -1    0    0  501  502  0.00000000000E+00  0.00000000000E+00  0.30714667527E+03  0.30714667527E+03  0.00000000000E+00 0.  1.
         -4   -1    0    0    0  501 -0.00000000000E+00 -0.00000000000E+00 -0.19956337835E+02  0.19996707723E+02  0.12700000000E+01 0.  1.
         25    2    1    2    0    0 -0.20607840254E+02 -0.12587654927E+02  0.20360321327E+03  0.24012871548E+03  0.12499759760E+03 0.  0.
    9000005    1    3    3    0    0 -0.25153352062E+02  0.17887304507E+02  0.20683851496E+03  0.20913110255E+03  0.10000000000E+01 0.  0.
    9000005    1    3    3    0    0  0.45455118077E+01 -0.30474959434E+02 -0.32353016929E+01  0.30997612927E+02  0.10000000000E+01 0.  0.
         -4    1    1    2    0  502  0.20607840254E+02  0.12587654927E+02  0.83587124167E+02  0.87014667517E+02  0.12700000000E+01 0. -1.
<mgrwt>
<rscale>  1 0.12730880E+03</rscale>
<asrwt>0</asrwt>
<pdfrwt beam="1">  1       21 0.47253331E-01 0.12730880E+03</pdfrwt>
<pdfrwt beam="2">  1       -4 0.30735134E-02 0.12730880E+03</pdfrwt>
<totfact> 0.89641634E+04</totfact>
</mgrwt>
</event>
<event>
 6    4  0.6325740E-003  0.1272178E+03  0.7818608E-02  0.1231643E+00
         21   -1    0    0  501  502  0.00000000000E+00  0.00000000000E+00  0.10698237669E+03  0.10698237669E+03  0.00000000000E+00 0.  1.
          4   -1    0    0  502    0 -0.00000000000E+00 -0.00000000000E+00 -0.30191643999E+03  0.30191911109E+03  0.12700000000E+01 0. -1.
         25    2    1    2    0    0 -0.16358377801E+02  0.17092781292E+02 -0.28694877621E+03  0.31388527870E+03  0.12499843325E+03 0.  0.
    9000005    1    3    3    0    0 -0.18464866342E+02 -0.21702377777E+02 -0.46080589358E+01  0.28882151883E+02  0.10000000000E+01 0.  0.
    9000005    1    3    3    0    0  0.21064885405E+01  0.38795159070E+02 -0.28234071728E+03  0.28500312681E+03  0.10000000000E+01 0.  0.
          4    1    1    2  501    0  0.16358377801E+02 -0.17092781292E+02  0.92014712903E+02  0.95016209077E+02  0.12700000000E+01 0.  1.
<mgrwt>
<rscale>  1 0.12721780E+03</rscale>
<asrwt>0</asrwt>
<pdfrwt beam="1">  1       21 0.16458828E-01 0.12721780E+03</pdfrwt>
<pdfrwt beam="2">  1        4 0.46449467E-01 0.12721780E+03</pdfrwt>
<totfact> 0.61073715E+03</totfact>
</mgrwt>
</event>
<event>
 6    4  0.6325740E-003  0.1378116E+03  0.7818608E-02  0.1216304E+00
         21   -1    0    0  501  502  0.00000000000E+00  0.00000000000E+00  0.23474736728E+03  0.23474736728E+03  0.00000000000E+00 0.  1.
         -4   -1    0    0    0  501 -0.00000000000E+00 -0.00000000000E+00 -0.39689055746E+03  0.39689258937E+03  0.12700000000E+01 0. -1.
         25    2    1    2    0    0 -0.36913812602E+02  0.44770792366E+02 -0.38103137045E+03  0.40518752947E+03  0.12499990144E+03 0.  0.
    9000005    1    3    3    0    0  0.20397567739E+02 -0.14289885659E+02 -0.24450615318E+03  0.24577331130E+03  0.10000000000E+01 0.  0.
    9000005    1    3    3    0    0 -0.57311380341E+02  0.59060678026E+02 -0.13652521727E+03  0.15941421818E+03  0.10000000000E+01 0.  0.
         -4    1    1    2    0  502  0.36913812602E+02 -0.44770792366E+02  0.21888818028E+03  0.22645242718E+03  0.12700000000E+01 0.  1.
<mgrwt>
<rscale>  1 0.13781157E+03</rscale>
<asrwt>0</asrwt>
<pdfrwt beam="1">  1       21 0.36114980E-01 0.13781157E+03</pdfrwt>
<pdfrwt beam="2">  1       -4 0.61060506E-01 0.13781157E+03</pdfrwt>
<totfact> 0.79122265E+02</totfact>
</mgrwt>
</event>
<event>
 6    4  0.6325740E-003  0.1286511E+03  0.7818608E-02  0.1229471E+00
          4   -1    0    0  502    0 -0.00000000000E+00  0.00000000000E+00  0.48011146747E+02  0.48027940951E+02  0.12700000000E+01 0.  1.
         21   -1    0    0  501  502  0.00000000000E+00 -0.00000000000E+00 -0.18953740848E+03  0.18953740848E+03  0.00000000000E+00 0.  1.
         25    2    1    2    0    0  0.89084922536E+01 -0.29095070638E+02 -0.44912591820E+02  0.13626530756E+03  0.12500083508E+03 0.  0.
    9000005    1    3    3    0    0  0.22011316373E+02  0.46122788523E+02 -0.90694502473E+01  0.51914011571E+02  0.10000000000E+01 0.  0.
    9000005    1    3    3    0    0 -0.13102824120E+02 -0.75217859161E+02 -0.35843141573E+02  0.84351295986E+02  0.10000000000E+01 0.  0.
          4    1    1    2  501    0 -0.89084922536E+01  0.29095070638E+02 -0.96613669916E+02  0.10130004188E+03  0.12700000000E+01 0. -1.
<mgrwt>
<rscale>  1 0.12865105E+03</rscale>
<asrwt>0</asrwt>
<pdfrwt beam="2">  1       21 0.29159601E-01 0.12865105E+03</pdfrwt>
<pdfrwt beam="1">  1        4 0.73879494E-02 0.12865105E+03</pdfrwt>
<totfact> 0.57252470E+04</totfact>
</mgrwt>
</event>
<event>
 6    4  0.6325740E-003  0.1285350E+03  0.7818608E-02  0.1229646E+00
         -4   -1    0    0    0  501 -0.00000000000E+00  0.00000000000E+00  0.14699822537E+02  0.14754581750E+02  0.12700000000E+01 0. -1.
         21   -1    0    0  501  502  0.00000000000E+00 -0.00000000000E+00 -0.43371077451E+03  0.43371077451E+03  0.00000000000E+00 0. -1.
         25    2    1    2    0    0  0.18637414688E+02 -0.23442054626E+02 -0.31482063159E+03  0.34004894185E+03  0.12499747849E+03 0.  0.
    9000005    1    3    3    0    0 -0.42361632926E+02 -0.44020946708E+02 -0.11668180034E+03  0.13171178468E+03  0.10000000000E+01 0.  0.
    9000005    1    3    3    0    0  0.60999047615E+02  0.20578892082E+02 -0.19813883125E+03  0.20833715717E+03  0.10000000000E+01 0.  0.
         -4    1    1    2    0  502 -0.18637414688E+02  0.23442054626E+02 -0.10419032038E+03  0.10841641441E+03  0.12700000000E+01 0.  1.
<mgrwt>
<rscale>  1 0.12853503E+03</rscale>
<asrwt>0</asrwt>
<pdfrwt beam="2">  1       21 0.66724730E-01 0.12853503E+03</pdfrwt>
<pdfrwt beam="1">  1       -4 0.22658666E-02 0.12853503E+03</pdfrwt>
<totfact> 0.69843259E+04</totfact>
</mgrwt>
</event>
<event>
 6    4  0.6325740E-003  0.1310528E+03  0.7818608E-02  0.1225902E+00
         -4   -1    0    0    0  501 -0.00000000000E+00  0.00000000000E+00  0.18269827906E+02  0.18313915794E+02  0.12700000000E+01 0. -1.
         21   -1    0    0  501  502  0.00000000000E+00 -0.00000000000E+00 -0.64403006255E+03  0.64403006255E+03  0.00000000000E+00 0.  1.
         25    2    1    2    0    0  0.39213670858E+02 -0.40971811835E+01 -0.23074600214E+03  0.26536494154E+03  0.12498134190E+03 0.  0.
    9000005    1    3    3    0    0  0.25178853566E+02 -0.51789661297E+02 -0.19706010750E+03  0.20530423681E+03  0.10000000000E+01 0.  0.
    9000005    1    3    3    0    0  0.14034817292E+02  0.47692480113E+02 -0.33685894637E+02  0.60060704735E+02  0.10000000000E+01 0.  0.
         -4    1    1    2    0  502 -0.39213670858E+02  0.40971811835E+01 -0.39501423251E+03  0.39697903680E+03  0.12700000000E+01 0.  1.
<mgrwt>
<rscale>  1 0.13105279E+03</rscale>
<asrwt>0</asrwt>
<pdfrwt beam="2">  1       21 0.99081552E-01 0.13105279E+03</pdfrwt>
<pdfrwt beam="1">  1       -4 0.28142303E-02 0.13105279E+03</pdfrwt>
<totfact> 0.20580580E+04</totfact>
</mgrwt>
</event>
<event>
 6    4  0.6325740E-003  0.1268583E+03  0.7818608E-02  0.1232193E+00
         -4   -1    0    0    0  501 -0.00000000000E+00  0.00000000000E+00  0.23079375440E+03  0.23079724862E+03  0.12700000000E+01 0. -1.
         21   -1    0    0  501  502  0.00000000000E+00 -0.00000000000E+00 -0.26625368092E+02  0.26625368092E+02  0.00000000000E+00 0. -1.
         25    2    1    2    0    0 -0.13283957228E+01  0.21606072048E+02  0.13641978337E+03  0.18628842603E+03  0.12499773354E+03 0.  0.
    9000005    1    3    3    0    0  0.38468658787E+02  0.59082475238E+02  0.61645793690E+02  0.93657783814E+02  0.10000000000E+01 0.  0.
    9000005    1    3    3    0    0 -0.39797054510E+02 -0.37476403190E+02  0.74773989681E+02  0.92630642212E+02  0.10000000000E+01 0.  0.
         -4    1    1    2    0  502  0.13283957228E+01 -0.21606072048E+02  0.67748602942E+02  0.71134190690E+02  0.12700000000E+01 0.  1.
<mgrwt>
<rscale>  1 0.12685827E+03</rscale>
<asrwt>0</asrwt>
<pdfrwt beam="2">  1       21 0.40962106E-02 0.12685827E+03</pdfrwt>
<pdfrwt beam="1">  1       -4 0.35509329E-01 0.12685827E+03</pdfrwt>
<totfact> 0.11502231E+05</totfact>
</mgrwt>
</event>
<event>
 6    4  0.6325740E-003  0.1304067E+03  0.7818608E-02  0.1226853E+00
         21   -1    0    0  501  502  0.00000000000E+00  0.00000000000E+00  0.11990444116E+03  0.11990444116E+03  0.00000000000E+00 0. -1.
          4   -1    0    0  502    0 -0.00000000000E+00 -0.00000000000E+00 -0.15832718590E+03  0.15833227939E+03  0.12700000000E+01 0.  1.
         25    2    1    2    0    0 -0.20857239675E+01  0.37097316107E+02 -0.12708871428E+03  0.18209189146E+03  0.12500141812E+03 0.  0.
    9000005    1    3    3    0    0 -0.62071820690E+02  0.47853520220E+01 -0.60851900201E+02  0.87061841675E+02  0.10000000000E+01 0.  0.
    9000005    1    3    3    0    0  0.59986096722E+02  0.32311964085E+02 -0.66236814078E+02  0.95030049785E+02  0.10000000000E+01 0.  0.
          4    1    1    2  501    0  0.20857239675E+01 -0.37097316107E+02  0.88665969536E+02  0.96144829089E+02  0.12700000000E+01 0. -1.
<mgrwt>
<rscale>  1 0.13040673E+03</rscale>
<asrwt>0</asrwt>
<pdfrwt beam="1">  1       21 0.18446837E-01 0.13040673E+03</pdfrwt>
<pdfrwt beam="2">  1        4 0.24358938E-01 0.13040673E+03</pdfrwt>
<totfact> 0.17161991E+04</totfact>
</mgrwt>
</event>
<event>
 6    4  0.6325740E-003  0.1342984E+03  0.7818608E-02  0.1221214E+00
         21   -1    0    0  501  502  0.00000000000E+00  0.00000000000E+00  0.10243198759E+04  0.10243198759E+04  0.00000000000E+00 0.  1.
          4   -1    0    0  502    0 -0.00000000000E+00 -0.00000000000E+00 -0.83411442307E+01  0.84372736757E+01  0.12700000000E+01 0.  1.
         25    2    1    2    0    0 -0.13734187104E+02 -0.47151901546E+02  0.67204846664E+03  0.68533583501E+03  0.12499654201E+03 0.  0.
    9000005    1    3    3    0    0 -0.61909393580E+02 -0.55011512235E+02  0.35388501583E+03  0.36344826856E+03  0.10000000000E+01 0.  0.
    9000005    1    3    3    0    0  0.48175206476E+02  0.78596106882E+01  0.31816345082E+03  0.32188756645E+03  0.10000000000E+01 0.  0.
          4    1    1    2  501    0  0.13734187104E+02  0.47151901546E+02  0.34393026501E+03  0.34742131455E+03  0.12700000000E+01 0. -1.
<mgrwt>
<rscale>  1 0.13429842E+03</rscale>
<asrwt>0</asrwt>
<pdfrwt beam="1">  1       21 0.15758757E+00 0.13429842E+03</pdfrwt>
<pdfrwt beam="2">  1        4 0.12907089E-02 0.13429842E+03</pdfrwt>
<totfact> 0.21691088E+04</totfact>
</mgrwt>
</event>
<event>
 6    4  0.6325740E-003  0.1329673E+03  0.7818608E-02  0.1223118E+00
         -4   -1    0    0    0  501 -0.00000000000E+00  0.00000000000E+00  0.18811938401E+03  0.18812367087E+03  0.12700000000E+01 0.  1.
         21   -1    0    0  501  502  0.00000000000E+00 -0.00000000000E+00 -0.13361590979E+03  0.13361590979E+03  0.00000000000E+00 0. -1.
         25    2    1    2    0    0  0.34451760849E+02 -0.29439352101E+02  0.15933339499E+03  0.20752695235E+03  0.12500682348E+03 0.  0.
    9000005    1    3    3    0    0  0.75453338885E+02 -0.61089052821E+01  0.56761329743E+02  0.94622268134E+02  0.10000000000E+01 0.  0.
    9000005    1    3    3    0    0 -0.41001578036E+02 -0.23330446819E+02  0.10257206524E+03  0.11290468422E+03  0.10000000000E+01 0.  0.
         -4    1    1    2    0  502 -0.34451760849E+02  0.29439352101E+02 -0.10482992076E+03  0.11421262831E+03  0.12700000000E+01 0. -1.
<mgrwt>
<rscale>  1 0.13296731E+03</rscale>
<asrwt>0</asrwt>
<pdfrwt beam="2">  1       21 0.20556294E-01 0.13296731E+03</pdfrwt>
<pdfrwt beam="1">  1       -4 0.28942238E-01 0.13296731E+03</pdfrwt>
<totfact> 0.10218345E+04</totfact>
</mgrwt>
</event>
<event>
 6    4  0.6325740E-003  0.1274642E+03  0.7818608E-02  0.1231268E+00
         21   -1    0    0  501  502  0.00000000000E+00  0.00000000000E+00  0.10606443322E+02  0.10606443322E+02  0.00000000000E+00 0.  1.
          4   -1    0    0  502    0 -0.00000000000E+00 -0.00000000000E+00 -0.66306178409E+03  0.66306300034E+03  0.12700000000E+01 0.  1.
         25    2    1    2    0    0  0.10909511528E+02  0.22432479208E+02 -0.61861170748E+03  0.63160713299E+03  0.12499956898E+03 0.  0.
    9000005    1    3    3    0    0 -0.34048088421E+02 -0.37890507673E+02 -0.29467090210E+03  0.29904331365E+03  0.10000000000E+01 0.  0.
    9000005    1    3    3    0    0  0.44957599948E+02  0.60322986881E+02 -0.32394080538E+03  0.33256381934E+03  0.10000000000E+01 0.  0.
          4    1    1    2  501    0 -0.10909511528E+02 -0.22432479208E+02 -0.33843633287E+02  0.42062310675E+02  0.12700000000E+01 0. -1.
<mgrwt>
<rscale>  1 0.12746421E+03</rscale>
<asrwt>0</asrwt>
<pdfrwt beam="1">  1       21 0.16317605E-02 0.12746421E+03</pdfrwt>
<pdfrwt beam="2">  1        4 0.10201545E+00 0.12746421E+03</pdfrwt>
<totfact> 0.55893245E+04</totfact>
</mgrwt>
</event>
<event>
 6    4  0.6325740E-003  0.1308558E+03  0.7818608E-02  0.1226191E+00
         21   -1    0    0  501  502  0.00000000000E+00  0.00000000000E+00  0.41262379403E+02  0.41262379403E+02  0.00000000000E+00 0.  1.
          4   -1    0    0  502    0 -0.00000000000E+00 -0.00000000000E+00 -0.17713267518E+03  0.17713722792E+03  0.12700000000E+01 0.  1.
         25    2    1    2    0    0  0.20202966222E+02 -0.33059911715E+02 -0.11585134309E+03  0.17477061498E+03  0.12498846569E+03 0.  0.
    9000005    1    3    3    0    0 -0.61414578835E+01  0.46475568598E+02 -0.37283383442E+02  0.59906148785E+02  0.10000000000E+01 0.  0.
    9000005    1    3    3    0    0  0.26344424106E+02 -0.79535480313E+02 -0.78567959647E+02  0.11486446619E+03  0.10000000000E+01 0.  0.
          4    1    1    2  501    0 -0.20202966222E+02  0.33059911715E+02 -0.20018952689E+02  0.43628992351E+02  0.12700000000E+01 0. -1.
<mgrwt>
<rscale>  1 0.13085578E+03</rscale>
<asrwt>0</asrwt>
<pdfrwt beam="1">  1       21 0.63480585E-02 0.13085578E+03</pdfrwt>
<pdfrwt beam="2">  1        4 0.27253034E-01 0.13085578E+03</pdfrwt>
<totfact> 0.91396430E+04</totfact>
</mgrwt>
</event>
<event>
 6    4  0.6325740E-003  0.1356633E+03  0.7818608E-02  0.1219286E+00
         -4   -1    0    0    0  501 -0.00000000000E+00  0.00000000000E+00  0.12915101914E+03  0.12915726323E+03  0.12700000000E+01 0.  1.
         21   -1    0    0  501  502  0.00000000000E+00 -0.00000000000E+00 -0.84283164711E+02  0.84283164711E+02  0.00000000000E+00 0. -1.
         25    2    1    2    0    0  0.52324552337E+02 -0.65020342487E+01  0.72582799805E+02  0.15385967330E+03  0.12499760404E+03 0.  0.
    9000005    1    3    3    0    0 -0.32842776663E+02 -0.26353500217E+02  0.46182439093E+02  0.62505780798E+02  0.10000000000E+01 0.  0.
    9000005    1    3    3    0    0  0.85167329000E+02  0.19851465969E+02  0.26400360712E+02  0.91353892505E+02  0.10000000000E+01 0.  0.
         -4    1    1    2    0  502 -0.52324552337E+02  0.65020342487E+01 -0.27714945372E+02  0.59580754641E+02  0.12700000000E+01 0. -1.
<mgrwt>
<rscale>  1 0.13566332E+03</rscale>
<asrwt>0</asrwt>
<pdfrwt beam="2">  1       21 0.12966641E-01 0.13566332E+03</pdfrwt>
<pdfrwt beam="1">  1       -4 0.19870604E-01 0.13566332E+03</pdfrwt>
<totfact> 0.47222799E+04</totfact>
</mgrwt>
</event>
<event>
 6    4  0.6325740E-003  0.1275987E+03  0.7818608E-02  0.1231063E+00
         -4   -1    0    0    0  501 -0.00000000000E+00  0.00000000000E+00  0.41222640581E+02  0.41242199219E+02  0.12700000000E+01 0. -1.
         21   -1    0    0  501  502  0.00000000000E+00 -0.00000000000E+00 -0.30266357394E+03  0.30266357394E+03  0.00000000000E+00 0.  1.
         25    2    1    2    0    0  0.50945525980E+01 -0.25101509765E+02 -0.60287332013E+02  0.14112405679E+03  0.12500158697E+03 0.  0.
    9000005    1    3    3    0    0 -0.14957016850E+02  0.59534161418E+01  0.35203711399E+02  0.38722820313E+02  0.10000000000E+01 0.  0.
    9000005    1    3    3    0    0  0.20051569448E+02 -0.31054925907E+02 -0.95491043412E+02  0.10240123648E+03  0.10000000000E+01 0.  0.
         -4    1    1    2    0  502 -0.50945525980E+01  0.25101509765E+02 -0.20115360134E+03  0.20278171637E+03  0.12700000000E+01 0.  1.
<mgrwt>
<rscale>  1 0.12759873E+03</rscale>
<asrwt>0</asrwt>
<pdfrwt beam="2">  1       21 0.46563626E-01 0.12759873E+03</pdfrwt>
<pdfrwt beam="1">  1       -4 0.63436543E-02 0.12759873E+03</pdfrwt>
<totfact> 0.29077803E+04</totfact>
</mgrwt>
</event>
<event>
 6    4  0.6325740E-003  0.1276815E+03  0.7818608E-02  0.1230937E+00
         21   -1    0    0  501  502  0.00000000000E+00  0.00000000000E+00  0.16080957659E+02  0.16080957659E+02  0.00000000000E+00 0. -1.
          4   -1    0    0  502    0 -0.00000000000E+00 -0.00000000000E+00 -0.72957591268E+03  0.72957701805E+03  0.12700000000E+01 0.  1.
         25    2    1    2    0    0 -0.13893581360E+02  0.22015560288E+02 -0.70747962185E+03  0.71890888916E+03  0.12499943637E+03 0.  0.
    9000005    1    3    3    0    0 -0.21774827847E+02  0.21963734930E+02 -0.36372144143E+02  0.47754388797E+02  0.10000000000E+01 0.  0.
    9000005    1    3    3    0    0  0.78812464868E+01  0.51825357719E-01 -0.67110747770E+03  0.67115450037E+03  0.10000000000E+01 0.  0.
          4    1    1    2  501    0  0.13893581360E+02 -0.22015560288E+02 -0.60153331765E+01  0.26749086545E+02  0.12700000000E+01 0. -1.
<mgrwt>
<rscale>  1 0.12768154E+03</rscale>
<asrwt>0</asrwt>
<pdfrwt beam="1">  1       21 0.24739947E-02 0.12768154E+03</pdfrwt>
<pdfrwt beam="2">  1        4 0.11224633E+00 0.12768154E+03</pdfrwt>
<totfact> 0.22834443E+04</totfact>
</mgrwt>
</event>
<event>
 6    4  0.6325740E-003  0.1336561E+03  0.7818608E-02  0.1222129E+00
         -4   -1    0    0    0  501 -0.00000000000E+00  0.00000000000E+00  0.10468153588E+03  0.10468923944E+03  0.12700000000E+01 0.  1.
         21   -1    0    0  501  502  0.00000000000E+00 -0.00000000000E+00 -0.10444620552E+03  0.10444620552E+03  0.00000000000E+00 0. -1.
         25    2    1    2    0    0  0.40587200708E+02  0.24326863224E+02  0.47879971293E+02  0.14197338837E+03  0.12499933687E+03 0.  0.
    9000005    1    3    3    0    0  0.53152671054E+02  0.69003867909E+02  0.28270417498E+02  0.91580329395E+02  0.10000000000E+01 0.  0.
    9000005    1    3    3    0    0 -0.12565470346E+02 -0.44677004685E+02  0.19609553795E+02  0.50393058973E+02  0.10000000000E+01 0.  0.
         -4    1    1    2    0  502 -0.40587200708E+02 -0.24326863224E+02 -0.47644640930E+02  0.67162056586E+02  0.12700000000E+01 0. -1.
<mgrwt>
<rscale>  1 0.13365609E+03</rscale>
<asrwt>0</asrwt>
<pdfrwt beam="2">  1       21 0.16068647E-01 0.13365609E+03</pdfrwt>
<pdfrwt beam="1">  1       -4 0.16106038E-01 0.13365609E+03</pdfrwt>
<totfact> 0.46548160E+04</totfact>
</mgrwt>
</event>
<event>
 6    4  0.6325740E-003  0.1274273E+03  0.7818608E-02  0.1231324E+00
         -4   -1    0    0    0  501 -0.00000000000E+00  0.00000000000E+00  0.14016081793E+03  0.14016657156E+03  0.12700000000E+01 0. -1.
         21   -1    0    0  501  502  0.00000000000E+00 -0.00000000000E+00 -0.41949859758E+02  0.41949859758E+02  0.00000000000E+00 0. -1.
         25    2    1    2    0    0 -0.83957762765E+01 -0.23266622519E+02  0.90067042344E+02  0.15604420380E+03  0.12500358651E+03 0.  0.
    9000005    1    3    3    0    0  0.50794119830E+02 -0.38840689111E+02  0.60623464418E+02  0.88118364589E+02  0.10000000000E+01 0.  0.
    9000005    1    3    3    0    0 -0.59189896106E+02  0.15574066592E+02  0.29443577926E+02  0.67925839210E+02  0.10000000000E+01 0.  0.
         -4    1    1    2    0  502  0.83957762765E+01  0.23266622519E+02  0.81439158283E+01  0.26072227518E+02  0.12700000000E+01 0.  1.
<mgrwt>
<rscale>  1 0.12742732E+03</rscale>
<asrwt>0</asrwt>
<pdfrwt beam="2">  1       21 0.64538246E-02 0.12742732E+03</pdfrwt>
<pdfrwt beam="1">  1       -4 0.21565124E-01 0.12742732E+03</pdfrwt>
<totfact> 0.13608825E+05</totfact>
</mgrwt>
</event>
<event>
 6    4  0.6325740E-003  0.1267998E+03  0.7818608E-02  0.1232283E+00
          4   -1    0    0  502    0 -0.00000000000E+00  0.00000000000E+00  0.73111755432E+02  0.73122784974E+02  0.12700000000E+01 0.  1.
         21   -1    0    0  501  502  0.00000000000E+00 -0.00000000000E+00 -0.78874447727E+02  0.78874447727E+02  0.00000000000E+00 0.  1.
         25    2    1    2    0    0 -0.10599100619E+02 -0.18449528198E+02  0.72793174842E+01  0.12700857640E+03  0.12500185595E+03 0.  0.
    9000005    1    3    3    0    0 -0.39811247080E+02  0.18689394703E+02 -0.40505954343E+02  0.59799341181E+02  0.10000000000E+01 0.  0.
    9000005    1    3    3    0    0  0.29212146462E+02 -0.37138922901E+02  0.47785271827E+02  0.67209235219E+02  0.10000000000E+01 0.  0.
          4    1    1    2  501    0  0.10599100619E+02  0.18449528198E+02 -0.13042009779E+02  0.24988656301E+02  0.12700000000E+01 0. -1.
<mgrwt>
<rscale>  1 0.12679980E+03</rscale>
<asrwt>0</asrwt>
<pdfrwt beam="2">  1       21 0.12134531E-01 0.12679980E+03</pdfrwt>
<pdfrwt beam="1">  1        4 0.11249597E-01 0.12679980E+03</pdfrwt>
<totfact> 0.14213108E+05</totfact>
</mgrwt>
</event>
<event>
 6    4  0.6325740E-003  0.1275377E+03  0.7818608E-02  0.1231156E+00
         21   -1    0    0  501  502  0.00000000000E+00  0.00000000000E+00  0.56755929594E+03  0.56755929594E+03  0.00000000000E+00 0.  1.
          4   -1    0    0  502    0 -0.00000000000E+00 -0.00000000000E+00 -0.11371204788E+02  0.11441905363E+02  0.12700000000E+01 0.  1.
         25    2    1    2    0    0 -0.91311424431E+01 -0.23607574069E+02  0.37604375756E+03  0.39708284285E+03  0.12500072469E+03 0.  0.
    9000005    1    3    3    0    0  0.57898494498E+02 -0.60163234859E+01  0.16894395496E+03  0.17869384917E+03  0.10000000000E+01 0.  0.
    9000005    1    3    3    0    0 -0.67029636941E+02 -0.17591250583E+02  0.20709980260E+03  0.21838899368E+03  0.10000000000E+01 0.  0.
          4    1    1    2  501    0  0.91311424431E+01  0.23607574069E+02  0.18014433359E+03  0.18191835845E+03  0.12700000000E+01 0. -1.
<mgrwt>
<rscale>  1 0.12753775E+03</rscale>
<asrwt>0</asrwt>
<pdfrwt beam="1">  1       21 0.87316793E-01 0.12753775E+03</pdfrwt>
<pdfrwt beam="2">  1        4 0.17549644E-02 0.12753775E+03</pdfrwt>
<totfact> 0.56981872E+04</totfact>
</mgrwt>
</event>
<event>
 6    4  0.6325740E-003  0.1267504E+03  0.7818608E-02  0.1232359E+00
         21   -1    0    0  501  502  0.00000000000E+00  0.00000000000E+00  0.49012539714E+02  0.49012539714E+02  0.00000000000E+00 0. -1.
         -4   -1    0    0    0  501 -0.00000000000E+00 -0.00000000000E+00 -0.15465445930E+03  0.15465967374E+03  0.12700000000E+01 0. -1.
         25    2    1    2    0    0 -0.90250992134E+00 -0.20858543935E+02 -0.12290332923E+03  0.17655280081E+03  0.12501907759E+03 0.  0.
    9000005    1    3    3    0    0  0.46674171465E+02  0.21047346364E+02 -0.18590930190E+02  0.54480196000E+02  0.10000000000E+01 0.  0.
    9000005    1    3    3    0    0 -0.47576681386E+02 -0.41905890298E+02 -0.10431239904E+03  0.12207260481E+03  0.10000000000E+01 0.  0.
         -4    1    1    2    0  502  0.90250992134E+00  0.20858543935E+02  0.17261409640E+02  0.27119412641E+02  0.12700000000E+01 0.  1.
<mgrwt>
<rscale>  1 0.12675040E+03</rscale>
<asrwt>0</asrwt>
<pdfrwt beam="1">  1       21 0.75403908E-02 0.12675040E+03</pdfrwt>
<pdfrwt beam="2">  1       -4 0.23794660E-01 0.12675040E+03</pdfrwt>
<totfact> 0.87113767E+04</totfact>
</mgrwt>
</event>
<event>
 6    4  0.6325740E-003  0.1273473E+03  0.7818608E-02  0.1231446E+00
         -4   -1    0    0    0  501 -0.00000000000E+00  0.00000000000E+00  0.24864354276E+03  0.24864678613E+03  0.12700000000E+01 0.  1.
         21   -1    0    0  501  502  0.00000000000E+00 -0.00000000000E+00 -0.86873745035E+02  0.86873745035E+02  0.00000000000E+00 0. -1.
         25    2    1    2    0    0 -0.19679479150E+02 -0.14296188999E+02  0.23009429420E+03  0.26298424619E+03  0.12500266636E+03 0.  0.
    9000005    1    3    3    0    0  0.43810849414E+02 -0.27023078556E+02  0.15750161540E+03  0.16570273430E+03  0.10000000000E+01 0.  0.
    9000005    1    3    3    0    0 -0.63490328564E+02  0.12726889557E+02  0.72592678803E+02  0.97281511886E+02  0.10000000000E+01 0.  0.
         -4    1    1    2    0  502  0.19679479150E+02  0.14296188999E+02 -0.68324496482E+02  0.72536284982E+02  0.12700000000E+01 0. -1.
<mgrwt>
<rscale>  1 0.12734728E+03</rscale>
<asrwt>0</asrwt>
<pdfrwt beam="2">  1       21 0.13365192E-01 0.12734728E+03</pdfrwt>
<pdfrwt beam="1">  1       -4 0.38253816E-01 0.12734728E+03</pdfrwt>
<totfact> 0.13053024E+04</totfact>
</mgrwt>
</event>
<event>
 6    4  0.6325740E-003  0.1432737E+03  0.7818608E-02  0.1208991E+00
         21   -1    0    0  501  502  0.00000000000E+00  0.00000000000E+00  0.32230349128E+03  0.32230349128E+03  0.00000000000E+00 0. -1.
          4   -1    0    0  502    0 -0.00000000000E+00 -0.00000000000E+00 -0.60195295082E+02  0.60208690818E+02  0.12700000000E+01 0.  1.
         25    2    1    2    0    0 -0.67373848369E+02  0.18831564655E+02  0.38706523383E+02  0.14841010268E+03  0.12503399679E+03 0.  0.
    9000005    1    3    3    0    0 -0.54252976733E+02  0.40945421588E+02 -0.30550625770E+02  0.74526866085E+02  0.10000000000E+01 0.  0.
    9000005    1    3    3    0    0 -0.13120871636E+02 -0.22113856933E+02  0.69257149154E+02  0.73883236596E+02  0.10000000000E+01 0.  0.
          4    1    1    2  501    0  0.67373848369E+02 -0.18831564655E+02  0.22340167281E+03  0.23410207941E+03  0.12700000000E+01 0. -1.
<mgrwt>
<rscale>  1 0.14327374E+03</rscale>
<asrwt>0</asrwt>
<pdfrwt beam="1">  1       21 0.49585151E-01 0.14327374E+03</pdfrwt>
<pdfrwt beam="2">  1        4 0.92620377E-02 0.14327374E+03</pdfrwt>
<totfact> 0.13815649E+04</totfact>
</mgrwt>
</event>
<event>
 6    4  0.6325740E-003  0.1293156E+03  0.7818608E-02  0.1228475E+00
         -4   -1    0    0    0  501 -0.00000000000E+00  0.00000000000E+00  0.30016959648E+02  0.30043814114E+02  0.12700000000E+01 0.  1.
         21   -1    0    0  501  502  0.00000000000E+00 -0.00000000000E+00 -0.23753255298E+03  0.23753255298E+03  0.00000000000E+00 0. -1.
         25    2    1    2    0    0 -0.22791532521E+02  0.24038688766E+02 -0.13045195718E+03  0.18368519098E+03  0.12500089496E+03 0.  0.
    9000005    1    3    3    0    0  0.12327767022E+02  0.22425990570E+02  0.17883991922E+02  0.31236774159E+02  0.10000000000E+01 0.  0.
    9000005    1    3    3    0    0 -0.35119299543E+02  0.16126981968E+01 -0.14833594910E+03  0.15244841682E+03  0.10000000000E+01 0.  0.
         -4    1    1    2    0  502  0.22791532521E+02 -0.24038688766E+02 -0.77063636152E+02  0.83891176110E+02  0.12700000000E+01 0. -1.
<mgrwt>
<rscale>  1 0.12931565E+03</rscale>
<asrwt>0</asrwt>
<pdfrwt beam="2">  1       21 0.36543468E-01 0.12931565E+03</pdfrwt>
<pdfrwt beam="1">  1       -4 0.46203208E-02 0.12931565E+03</pdfrwt>
<totfact> 0.78995079E+04</totfact>
</mgrwt>
</event>
<event>
 6    4  0.6325740E-003  0.1267065E+03  0.7818608E-02  0.1232426E+00
         -4   -1    0    0    0  501 -0.00000000000E+00  0.00000000000E+00  0.82506706915E+03  0.82506804659E+03  0.12700000000E+01 0.  1.
         21   -1    0    0  501  502  0.00000000000E+00 -0.00000000000E+00 -0.67800314451E+01  0.67800314451E+01  0.00000000000E+00 0.  1.
         25    2    1    2    0    0 -0.20649454906E+02 -0.19554367288E+01  0.74386860218E+03  0.75458269013E+03  0.12499726085E+03 0.  0.
    9000005    1    3    3    0    0  0.43623868895E+02  0.15542209060E+02  0.15000304633E+03  0.15699208932E+03  0.10000000000E+01 0.  0.
    9000005    1    3    3    0    0 -0.64273323801E+02 -0.17497645788E+02  0.59386555585E+03  0.59759060081E+03  0.10000000000E+01 0.  0.
         -4    1    1    2    0  502  0.20649454906E+02  0.19554367288E+01  0.74418435527E+02  0.77265387898E+02  0.12700000000E+01 0. -1.
<mgrwt>
<rscale>  1 0.12670651E+03</rscale>
<asrwt>0</asrwt>
<pdfrwt beam="2">  1       21 0.10430824E-02 0.12670651E+03</pdfrwt>
<pdfrwt beam="1">  1       -4 0.12694254E+00 0.12670651E+03</pdfrwt>
<totfact> 0.67697927E+04</totfact>
</mgrwt>
</event>
<event>
 6    4  0.6325740E-003  0.1290779E+03  0.7818608E-02  0.1228830E+00
         21   -1    0    0  501  502  0.00000000000E+00  0.00000000000E+00  0.74899416222E+01  0.74899416222E+01  0.00000000000E+00 0.  1.
          4   -1    0    0  502    0 -0.00000000000E+00 -0.00000000000E+00 -0.11653302658E+04  0.11653309578E+04  0.12700000000E+01 0. -1.
         25    2    1    2    0    0 -0.10874720421E+02 -0.30294166493E+02 -0.10911562388E+04  0.10987643251E+04  0.12500043397E+03 0.  0.
    9000005    1    3    3    0    0  0.51016452196E+02 -0.16543907316E+02 -0.27722226839E+03  0.28236424234E+03  0.10000000000E+01 0.  0.
    9000005    1    3    3    0    0 -0.61891172617E+02 -0.13750259177E+02 -0.81393397043E+03  0.81640008274E+03  0.10000000000E+01 0.  0.
          4    1    1    2  501    0  0.10874720421E+02  0.30294166493E+02 -0.66684085340E+02  0.74056574356E+02  0.12700000000E+01 0.  1.
<mgrwt>
<rscale>  1 0.12907790E+03</rscale>
<asrwt>0</asrwt>
<pdfrwt beam="1">  1       21 0.11522986E-02 0.12907790E+03</pdfrwt>
<pdfrwt beam="2">  1        4 0.17928993E+00 0.12907790E+03</pdfrwt>
<totfact> 0.23988971E+04</totfact>
</mgrwt>
</event>
<event>
 6    4  0.6325740E-003  0.1273770E+03  0.7818608E-02  0.1231400E+00
         21   -1    0    0  501  502  0.00000000000E+00  0.00000000000E+00  0.20561958004E+02  0.20561958004E+02  0.00000000000E+00 0.  1.
          4   -1    0    0  502    0 -0.00000000000E+00 -0.00000000000E+00 -0.31267321670E+03  0.31267579590E+03  0.12700000000E+01 0.  1.
         25    2    1    2    0    0  0.87762088853E+01 -0.22868636290E+02 -0.27576603198E+03  0.30376275255E+03  0.12499963630E+03 0.  0.
    9000005    1    3    3    0    0 -0.53970748608E+02 -0.14204849460E+02 -0.18380357484E+03  0.19209209660E+03  0.10000000000E+01 0.  0.
    9000005    1    3    3    0    0  0.62746957493E+02 -0.86637868300E+01 -0.91962457144E+02  0.11167065595E+03  0.10000000000E+01 0.  0.
          4    1    1    2  501    0 -0.87762088853E+01  0.22868636290E+02 -0.16345226709E+02  0.29475001346E+02  0.12700000000E+01 0. -1.
<mgrwt>
<rscale>  1 0.12737702E+03</rscale>
<asrwt>0</asrwt>
<pdfrwt beam="1">  1       21 0.31633781E-02 0.12737702E+03</pdfrwt>
<pdfrwt beam="2">  1        4 0.48106788E-01 0.12737702E+03</pdfrwt>
<totfact> 0.96841234E+04</totfact>
</mgrwt>
</event>
<event>
 6    4  0.6325740E-003  0.1281445E+03  0.7818608E-02  0.1230235E+00
         21   -1    0    0  501  502  0.00000000000E+00  0.00000000000E+00  0.12869936528E+03  0.12869936528E+03  0.00000000000E+00 0.  1.
         -4   -1    0    0    0  501 -0.00000000000E+00 -0.00000000000E+00 -0.96744159269E+02  0.96752494814E+02  0.12700000000E+01 0. -1.
         25    2    1    2    0    0 -0.26050112077E+02 -0.10840861340E+02 -0.50923909327E+02  0.13789220458E+03  0.12499953172E+03 0.  0.
    9000005    1    3    3    0    0  0.43822101846E+02 -0.11522397084E+02 -0.50706067183E+02  0.68009172131E+02  0.10000000000E+01 0.  0.
    9000005    1    3    3    0    0 -0.69872213924E+02  0.68153574417E+00 -0.21784214387E+00  0.69883032453E+02  0.10000000000E+01 0.  0.
         -4    1    1    2    0  502  0.26050112077E+02  0.10840861340E+02  0.82879115337E+02  0.87559655509E+02  0.12700000000E+01 0.  1.
<mgrwt>
<rscale>  1 0.12814451E+03</rscale>
<asrwt>0</asrwt>
<pdfrwt beam="1">  1       21 0.19799902E-01 0.12814451E+03</pdfrwt>
<pdfrwt beam="2">  1       -4 0.14884840E-01 0.12814451E+03</pdfrwt>
<totfact> 0.36284921E+04</totfact>
</mgrwt>
</event>
<event>
 6    4  0.6325740E-003  0.1266311E+03  0.7818608E-02  0.1232542E+00
         21   -1    0    0  501  502  0.00000000000E+00  0.00000000000E+00  0.61655202744E+03  0.61655202744E+03  0.00000000000E+00 0.  1.
         -4   -1    0    0    0  501 -0.00000000000E+00 -0.00000000000E+00 -0.87151069282E+01  0.88071555437E+01  0.12700000000E+01 0.  1.
         25    2    1    2    0    0 -0.16545353913E+02  0.11614094769E+02  0.51525307253E+03  0.53058567540E+03  0.12500717679E+03 0.  0.
    9000005    1    3    3    0    0  0.33820829471E+02  0.40047478872E+02  0.37832096110E+03  0.38193638040E+03  0.10000000000E+01 0.  0.
    9000005    1    3    3    0    0 -0.50366183384E+02 -0.28433384103E+02  0.13693211143E+03  0.14864929499E+03  0.10000000000E+01 0.  0.
         -4    1    1    2    0  502  0.16545353913E+02 -0.11614094769E+02  0.92583847986E+02  0.94773507593E+02  0.12700000000E+01 0. -1.
<mgrwt>
<rscale>  1 0.12663108E+03</rscale>
<asrwt>0</asrwt>
<pdfrwt beam="1">  1       21 0.94854124E-01 0.12663108E+03</pdfrwt>
<pdfrwt beam="2">  1       -4 0.13479674E-02 0.12663108E+03</pdfrwt>
<totfact> 0.70417903E+04</totfact>
</mgrwt>
</event>
<event>
 6    4  0.6325740E-003  0.1270293E+03  0.7818608E-02  0.1231932E+00
         -4   -1    0    0    0  501 -0.00000000000E+00  0.00000000000E+00  0.93673862818E+01  0.94530855149E+01  0.12700000000E+01 0. -1.
         21   -1    0    0  501  502  0.00000000000E+00 -0.00000000000E+00 -0.10192190962E+04  0.10192190962E+04  0.00000000000E+00 0.  1.
         25    2    1    2    0    0  0.22555751081E+02  0.13824187354E+01 -0.42980018998E+03  0.44817924319E+03  0.12500303091E+03 0.  0.
    9000005    1    3    3    0    0  0.13382367726E+02 -0.21669303865E+02 -0.95845988868E+01  0.27230700170E+02  0.10000000000E+01 0.  0.
    9000005    1    3    3    0    0  0.91733833551E+01  0.23051722601E+02 -0.42021559109E+03  0.42094854302E+03  0.10000000000E+01 0.  0.
         -4    1    1    2    0  502 -0.22555751081E+02 -0.13824187354E+01 -0.58005151999E+03  0.58049293857E+03  0.12700000000E+01 0.  1.
<mgrwt>
<rscale>  1 0.12702925E+03</rscale>
<asrwt>0</asrwt>
<pdfrwt beam="2">  1       21 0.15680300E+00 0.12702925E+03</pdfrwt>
<pdfrwt beam="1">  1       -4 0.14477889E-02 0.12702925E+03</pdfrwt>
<totfact> 0.18401746E+04</totfact>
</mgrwt>
</event>
<event>
 6    4  0.6325740E-003  0.1322158E+03  0.7818608E-02  0.1224204E+00
         21   -1    0    0  501  502  0.00000000000E+00  0.00000000000E+00  0.18360297017E+02  0.18360297017E+02  0.00000000000E+00 0.  1.
         -4   -1    0    0    0  501 -0.00000000000E+00 -0.00000000000E+00 -0.64474493269E+03  0.64474618350E+03  0.12700000000E+01 0.  1.
         25    2    1    2    0    0 -0.41545033521E+02  0.11418001472E+02 -0.59569923354E+03  0.61019554240E+03  0.12499865020E+03 0.  0.
    9000005    1    3    3    0    0 -0.35728971952E+02 -0.52295518566E+02 -0.21427910631E+03  0.22344555512E+03  0.10000000000E+01 0.  0.
    9000005    1    3    3    0    0 -0.58160615689E+01  0.63713520038E+02 -0.38142012723E+03  0.38674998728E+03  0.10000000000E+01 0.  0.
         -4    1    1    2    0  502  0.41545033521E+02 -0.11418001472E+02 -0.30685402132E+02  0.52910938112E+02  0.12700000000E+01 0. -1.
<mgrwt>
<rscale>  1 0.13221582E+03</rscale>
<asrwt>0</asrwt>
<pdfrwt beam="1">  1       21 0.28246613E-02 0.13221582E+03</pdfrwt>
<pdfrwt beam="2">  1       -4 0.99194995E-01 0.13221582E+03</pdfrwt>
<totfact> 0.24655598E+04</totfact>
</mgrwt>
</event>
<event>
 6    4  0.6325740E-003  0.1290596E+03  0.7818608E-02  0.1228858E+00
          4   -1    0    0  502    0 -0.00000000000E+00  0.00000000000E+00  0.13264354996E+02  0.13325014577E+02  0.12700000000E+01 0. -1.
         21   -1    0    0  501  502  0.00000000000E+00 -0.00000000000E+00 -0.49746684109E+03  0.49746684109E+03  0.00000000000E+00 0. -1.
         25    2    1    2    0    0 -0.48658055821E+01  0.31700553422E+02 -0.35733696018E+03  0.37992904308E+03  0.12501109358E+03 0.  0.
    9000005    1    3    3    0    0 -0.52221679195E+02 -0.18238318009E+02 -0.21227830347E+03  0.21936913672E+03  0.10000000000E+01 0.  0.
    9000005    1    3    3    0    0  0.47355873613E+02  0.49938871430E+02 -0.14505865671E+03  0.16055990636E+03  0.10000000000E+01 0.  0.
          4    1    1    2  501    0  0.48658055821E+01 -0.31700553422E+02 -0.12686552591E+03  0.13086281258E+03  0.12700000000E+01 0.  1.
<mgrwt>
<rscale>  1 0.12905958E+03</rscale>
<asrwt>0</asrwt>
<pdfrwt beam="2">  1       21 0.76533360E-01 0.12905958E+03</pdfrwt>
<pdfrwt beam="1">  1        4 0.20454608E-02 0.12905958E+03</pdfrwt>
<totfact> 0.60611587E+04</totfact>
</mgrwt>
</event>
<event>
 6    4  0.6325740E-003  0.1315416E+03  0.7818608E-02  0.1225186E+00
          4   -1    0    0  502    0 -0.00000000000E+00  0.00000000000E+00  0.20987689393E+03  0.20988073639E+03  0.12700000000E+01 0. -1.
         21   -1    0    0  501  502  0.00000000000E+00 -0.00000000000E+00 -0.45492305499E+02  0.45492305499E+02  0.00000000000E+00 0. -1.
         25    2    1    2    0    0 -0.97835510698E+01 -0.39764654989E+02  0.16898272221E+03  0.21414560694E+03  0.12500493954E+03 0.  0.
    9000005    1    3    3    0    0 -0.94296911309E+01  0.31979709032E+02  0.32092528620E+01  0.33510001023E+02  0.10000000000E+01 0.  0.
    9000005    1    3    3    0    0 -0.35385993888E+00 -0.71744364021E+02  0.16577346935E+03  0.18063560592E+03  0.10000000000E+01 0.  0.
          4    1    1    2  501    0  0.97835510698E+01  0.39764654989E+02 -0.45981337777E+01  0.41227434945E+02  0.12700000000E+01 0.  1.
<mgrwt>
<rscale>  1 0.13154155E+03</rscale>
<asrwt>0</asrwt>
<pdfrwt beam="2">  1       21 0.69988164E-02 0.13154155E+03</pdfrwt>
<pdfrwt beam="1">  1        4 0.32290411E-01 0.13154155E+03</pdfrwt>
<totfact> 0.56233334E+04</totfact>
</mgrwt>
</event>
<event>
 6    4  0.6325740E-003  0.1702195E+03  0.7818608E-02  0.1177619E+00
         21   -1    0    0  501  502  0.00000000000E+00  0.00000000000E+00  0.23088719376E+02  0.23088719376E+02  0.00000000000E+00 0.  1.
          4   -1    0    0  502    0 -0.00000000000E+00 -0.00000000000E+00 -0.10358594204E+04  0.10358601990E+04  0.12700000000E+01 0. -1.
         25    2    1    2    0    0 -0.88727503812E+02  0.74006086448E+02 -0.78848242846E+03  0.80664689122E+03  0.12500078544E+03 0.  0.
    9000005    1    3    3    0    0 -0.73487486944E+01  0.97377461102E+01 -0.49900768600E+03  0.49915778917E+03  0.10000000000E+01 0.  0.
    9000005    1    3    3    0    0 -0.81378755118E+02  0.64268340337E+02 -0.28947474246E+03  0.30748910205E+03  0.10000000000E+01 0.  0.
          4    1    1    2  501    0  0.88727503812E+02 -0.74006086448E+02 -0.22428827258E+03  0.25230202711E+03  0.12700000000E+01 0.  1.
<mgrwt>
<rscale>  1 0.17021947E+03</rscale>
<asrwt>0</asrwt>
<pdfrwt beam="1">  1       21 0.35521106E-02 0.17021947E+03</pdfrwt>
<pdfrwt beam="2">  1        4 0.15936574E+00 0.17021947E+03</pdfrwt>
<totfact> 0.54169508E+03</totfact>
</mgrwt>
</event>
<event>
 6    4  0.6325740E-003  0.1400052E+03  0.7818608E-02  0.1213322E+00
         21   -1    0    0  501  502  0.00000000000E+00  0.00000000000E+00  0.15044782249E+03  0.15044782249E+03  0.00000000000E+00 0. -1.
          4   -1    0    0  502    0 -0.00000000000E+00 -0.00000000000E+00 -0.11448847935E+03  0.11449552307E+03  0.12700000000E+01 0.  1.
         25    2    1    2    0    0  0.21601464379E+02 -0.59236196537E+02 -0.58196318224E+02  0.15161880404E+03  0.12500360011E+03 0.  0.
    9000005    1    3    3    0    0 -0.12038878099E+02  0.48444149884E+01  0.32833968469E+02  0.35319575704E+02  0.10000000000E+01 0.  0.
    9000005    1    3    3    0    0  0.33640342478E+02 -0.64080611526E+02 -0.91030286693E+02  0.11629922833E+03  0.10000000000E+01 0.  0.
          4    1    1    2  501    0 -0.21601464379E+02  0.59236196537E+02  0.94155661373E+02  0.11332454153E+03  0.12700000000E+01 0. -1.
<mgrwt>
<rscale>  1 0.14000518E+03</rscale>
<asrwt>0</asrwt>
<pdfrwt beam="1">  1       21 0.23145819E-01 0.14000518E+03</pdfrwt>
<pdfrwt beam="2">  1        4 0.17614566E-01 0.14000518E+03</pdfrwt>
<totfact> 0.20359603E+04</totfact>
</mgrwt>
</event>
<event>
 6    4  0.6325740E-003  0.1269560E+03  0.7818608E-02  0.1232044E+00
         -4   -1    0    0    0  501 -0.00000000000E+00  0.00000000000E+00  0.25507755917E+03  0.25508072074E+03  0.12700000000E+01 0.  1.
         21   -1    0    0  501  502  0.00000000000E+00 -0.00000000000E+00 -0.46709259787E+02  0.46709259787E+02  0.00000000000E+00 0. -1.
         25    2    1    2    0    0  0.56486569959E+01  0.21581014955E+02  0.23495478971E+03  0.26706100272E+03  0.12498071224E+03 0.  0.
    9000005    1    3    3    0    0 -0.72880893839E+01  0.48456253729E+02  0.23194429889E+03  0.23706598778E+03  0.10000000000E+01 0.  0.
    9000005    1    3    3    0    0  0.12936746380E+02 -0.26875238774E+02  0.30104908160E+01  0.29995014936E+02  0.10000000000E+01 0.  0.
         -4    1    1    2    0  502 -0.56486569959E+01 -0.21581014955E+02 -0.26586490323E+02  0.34728977814E+02  0.12700000000E+01 0. -1.
<mgrwt>
<rscale>  1 0.12695600E+03</rscale>
<asrwt>0</asrwt>
<pdfrwt beam="2">  1       21 0.71860401E-02 0.12695600E+03</pdfrwt>
<pdfrwt beam="1">  1       -4 0.39244272E-01 0.12695600E+03</pdfrwt>
<totfact> 0.36699784E+04</totfact>
</mgrwt>
</event>
<event>
 6    4  0.6325740E-003  0.1302704E+03  0.7818608E-02  0.1227055E+00
          4   -1    0    0  502    0 -0.00000000000E+00  0.00000000000E+00  0.49120565741E+03  0.49120729918E+03  0.12700000000E+01 0.  1.
         21   -1    0    0  501  502  0.00000000000E+00 -0.00000000000E+00 -0.14677008008E+02  0.14677008008E+02  0.00000000000E+00 0.  1.
         25    2    1    2    0    0 -0.75196905975E+01 -0.35899464651E+02  0.40585527912E+03  0.42624979535E+03  0.12500025256E+03 0.  0.
    9000005    1    3    3    0    0  0.39221649288E+02  0.10976834369E+02  0.28970787977E+03  0.29255851426E+03  0.10000000000E+01 0.  0.
    9000005    1    3    3    0    0 -0.46741339885E+02 -0.46876299020E+02  0.11614739935E+03  0.13369128109E+03  0.10000000000E+01 0.  0.
          4    1    1    2  501    0  0.75196905975E+01  0.35899464651E+02  0.70673370280E+02  0.79634511837E+02  0.12700000000E+01 0. -1.
<mgrwt>
<rscale>  1 0.13027041E+03</rscale>
<asrwt>0</asrwt>
<pdfrwt beam="2">  1       21 0.22580016E-02 0.13027041E+03</pdfrwt>
<pdfrwt beam="1">  1        4 0.75574441E-01 0.13027041E+03</pdfrwt>
<totfact> 0.65216220E+04</totfact>
</mgrwt>
</event>
<event>
 6    4  0.6325740E-003  0.1274504E+03  0.7818608E-02  0.1231289E+00
          4   -1    0    0  502    0 -0.00000000000E+00  0.00000000000E+00  0.22014051376E+03  0.22014417707E+03  0.12700000000E+01 0.  1.
         21   -1    0    0  501  502  0.00000000000E+00 -0.00000000000E+00 -0.15501900250E+03  0.15501900250E+03  0.00000000000E+00 0. -1.
         25    2    1    2    0    0 -0.21642111489E+02 -0.12203621679E+02  0.20046641614E+03  0.23755080531E+03  0.12500516683E+03 0.  0.
    9000005    1    3    3    0    0  0.13814170174E+02  0.41117513075E+02  0.14960512440E+03  0.15576961971E+03  0.10000000000E+01 0.  0.
    9000005    1    3    3    0    0 -0.35456281663E+02 -0.53321134753E+02  0.50861291738E+02  0.81781185599E+02  0.10000000000E+01 0.  0.
          4    1    1    2  501    0  0.21642111489E+02  0.12203621679E+02 -0.13534490488E+03  0.13761237425E+03  0.12700000000E+01 0. -1.
<mgrwt>
<rscale>  1 0.12745039E+03</rscale>
<asrwt>0</asrwt>
<pdfrwt beam="2">  1       21 0.23849077E-01 0.12745039E+03</pdfrwt>
<pdfrwt beam="1">  1        4 0.33868453E-01 0.12745039E+03</pdfrwt>
<totfact> 0.57247359E+03</totfact>
</mgrwt>
</event>
<event>
 6    4  0.6325740E-003  0.1343720E+03  0.7818608E-02  0.1221109E+00
         21   -1    0    0  501  502  0.00000000000E+00  0.00000000000E+00  0.72483515692E+02  0.72483515692E+02  0.00000000000E+00 0.  1.
          4   -1    0    0  502    0 -0.00000000000E+00 -0.00000000000E+00 -0.18206766942E+03  0.18207209876E+03  0.12700000000E+01 0.  1.
         25    2    1    2    0    0 -0.29996042270E+02 -0.39118482434E+02 -0.14203499008E+03  0.19552436934E+03  0.12500328947E+03 0.  0.
    9000005    1    3    3    0    0  0.46061417026E+02 -0.35449657606E+02 -0.64995989561E+02  0.87199833840E+02  0.10000000000E+01 0.  0.
    9000005    1    3    3    0    0 -0.76057459295E+02 -0.36688248278E+01 -0.77039000522E+02  0.10832453550E+03  0.10000000000E+01 0.  0.
          4    1    1    2  501    0  0.29996042270E+02  0.39118482434E+02  0.32450836354E+02  0.59031245115E+02  0.12700000000E+01 0. -1.
<mgrwt>
<rscale>  1 0.13437202E+03</rscale>
<asrwt>0</asrwt>
<pdfrwt beam="1">  1       21 0.11151310E-01 0.13437202E+03</pdfrwt>
<pdfrwt beam="2">  1        4 0.28011607E-01 0.13437202E+03</pdfrwt>
<totfact> 0.32840585E+04</totfact>
</mgrwt>
</event>
<event>
 6    4  0.6325740E-003  0.1276854E+03  0.7818608E-02  0.1230931E+00
         -4   -1    0    0    0  501 -0.00000000000E+00  0.00000000000E+00  0.77492970438E+02  0.77503376489E+02  0.12700000000E+01 0.  1.
         21   -1    0    0  501  502  0.00000000000E+00 -0.00000000000E+00 -0.86097098940E+02  0.86097098940E+02  0.00000000000E+00 0.  1.
         25    2    1    2    0    0  0.25699526432E+01 -0.25896354795E+02  0.14847804383E+02  0.12854577668E+03  0.12500533412E+03 0.  0.
    9000005    1    3    3    0    0  0.38419778156E+02 -0.31400097773E+02  0.55233484372E+02  0.74254853644E+02  0.10000000000E+01 0.  0.
    9000005    1    3    3    0    0 -0.35849825513E+02  0.55037429782E+01 -0.40385679990E+02  0.54290923038E+02  0.10000000000E+01 0.  0.
         -4    1    1    2    0  502 -0.25699526432E+01  0.25896354795E+02 -0.23451932885E+02  0.35054698748E+02  0.12700000000E+01 0. -1.
<mgrwt>
<rscale>  1 0.12768539E+03</rscale>
<asrwt>0</asrwt>
<pdfrwt beam="2">  1       21 0.13245708E-01 0.12768539E+03</pdfrwt>
<pdfrwt beam="1">  1       -4 0.11923516E-01 0.12768539E+03</pdfrwt>
<totfact> 0.11026478E+05</totfact>
</mgrwt>
</event>
<event>
 6    4  0.6325740E-003  0.1269851E+03  0.7818608E-02  0.1231999E+00
         21   -1    0    0  501  502  0.00000000000E+00  0.00000000000E+00  0.56134450691E+03  0.56134450691E+03  0.00000000000E+00 0. -1.
         -4   -1    0    0    0  501 -0.00000000000E+00 -0.00000000000E+00 -0.99994593909E+01  0.10079786114E+02  0.12700000000E+01 0. -1.
         25    2    1    2    0    0  0.20899292542E+02 -0.79784714433E+01  0.48726269502E+03  0.50353764311E+03  0.12499915052E+03 0.  0.
    9000005    1    3    3    0    0 -0.21561378802E+02  0.49962166271E+02  0.23692032025E+03  0.24309123650E+03  0.10000000000E+01 0.  0.
    9000005    1    3    3    0    0  0.42460671344E+02 -0.57940637715E+02  0.25034237477E+03  0.26044640661E+03  0.10000000000E+01 0.  0.
         -4    1    1    2    0  502 -0.20899292542E+02  0.79784714433E+01  0.64082352496E+02  0.67886649916E+02  0.12700000000E+01 0.  1.
<mgrwt>
<rscale>  1 0.12698513E+03</rscale>
<asrwt>0</asrwt>
<pdfrwt beam="1">  1       21 0.86360669E-01 0.12698513E+03</pdfrwt>
<pdfrwt beam="2">  1       -4 0.15446683E-02 0.12698513E+03</pdfrwt>
<totfact> 0.70968957E+04</totfact>
</mgrwt>
</event>
<event>
 6    4  0.6325740E-003  0.1445225E+03  0.7818608E-02  0.1207370E+00
         21   -1    0    0  501  502  0.00000000000E+00  0.00000000000E+00  0.29186495678E+04  0.29186495678E+04  0.00000000000E+00 0.  1.
         -4   -1    0    0    0  501 -0.00000000000E+00 -0.00000000000E+00 -0.45055017154E+02  0.45072912827E+02  0.12700000000E+01 0. -1.
         25    2    1    2    0    0  0.28613141329E+02 -0.66657010477E+02  0.72499051520E+02  0.16168759915E+03  0.12499959338E+03 0.  0.
    9000005    1    3    3    0    0 -0.30713548455E+02  0.21977567576E+02  0.21355790775E+02  0.43398218107E+02  0.10000000000E+01 0.  0.
    9000005    1    3    3    0    0  0.59326689784E+02 -0.88634578053E+02  0.51143260745E+02  0.11828938104E+03  0.10000000000E+01 0.  0.
         -4    1    1    2    0  502 -0.28613141329E+02  0.66657010477E+02  0.28010954991E+04  0.28020348815E+04  0.12700000000E+01 0.  1.
<mgrwt>
<rscale>  1 0.14452255E+03</rscale>
<asrwt>0</asrwt>
<pdfrwt beam="1">  1       21 0.44902286E+00 0.14452255E+03</pdfrwt>
<pdfrwt beam="2">  1       -4 0.69329412E-02 0.14452255E+03</pdfrwt>
<totfact> 0.26509186E+01</totfact>
</mgrwt>
</event>
<event>
 6    4  0.6325740E-003  0.1266262E+03  0.7818608E-02  0.1232549E+00
          4   -1    0    0  502    0 -0.00000000000E+00  0.00000000000E+00  0.64427047205E+03  0.64427172378E+03  0.12700000000E+01 0. -1.
         21   -1    0    0  501  502  0.00000000000E+00 -0.00000000000E+00 -0.83671215988E+01  0.83671215988E+01  0.00000000000E+00 0. -1.
         25    2    1    2    0    0 -0.54524989751E+01  0.19430509427E+02  0.54916357461E+03  0.56357327372E+03  0.12500771467E+03 0.  0.
    9000005    1    3    3    0    0  0.31523753084E+01  0.29035130133E+02  0.22837001135E+02  0.37087799513E+02  0.10000000000E+01 0.  0.
    9000005    1    3    3    0    0 -0.86048742835E+01 -0.96046207056E+01  0.52632657347E+03  0.52648547420E+03  0.10000000000E+01 0.  0.
          4    1    1    2  501    0  0.54524989751E+01 -0.19430509427E+02  0.86739775847E+02  0.89065571663E+02  0.12700000000E+01 0.  1.
<mgrwt>
<rscale>  1 0.12662623E+03</rscale>
<asrwt>0</asrwt>
<pdfrwt beam="2">  1       21 0.12872500E-02 0.12662623E+03</pdfrwt>
<pdfrwt beam="1">  1        4 0.99126005E-01 0.12662623E+03</pdfrwt>
<totfact> 0.87107204E+04</totfact>
</mgrwt>
</event>
<event>
 6    4  0.6325740E-003  0.1349292E+03  0.7818608E-02  0.1220320E+00
          4   -1    0    0  502    0 -0.00000000000E+00  0.00000000000E+00  0.15237783015E+03  0.15238312250E+03  0.12700000000E+01 0.  1.
         21   -1    0    0  501  502  0.00000000000E+00 -0.00000000000E+00 -0.72840343692E+02  0.72840343692E+02  0.00000000000E+00 0. -1.
         25    2    1    2    0    0 -0.12038639210E+01  0.50773221911E+02  0.10252468430E+03  0.16946153010E+03  0.12500611962E+03 0.  0.
    9000005    1    3    3    0    0 -0.17407419010E+02  0.24393096250E+02  0.12668067035E+03  0.13018077286E+03  0.10000000000E+01 0.  0.
    9000005    1    3    3    0    0  0.16203555089E+02  0.26380125661E+02 -0.24155986054E+02  0.39280757244E+02  0.10000000000E+01 0.  0.
          4    1    1    2  501    0  0.12038639210E+01 -0.50773221911E+02 -0.22987197839E+02  0.55761936086E+02  0.12700000000E+01 0. -1.
<mgrwt>
<rscale>  1 0.13492924E+03</rscale>
<asrwt>0</asrwt>
<pdfrwt beam="2">  1       21 0.11206207E-01 0.13492924E+03</pdfrwt>
<pdfrwt beam="1">  1        4 0.23444002E-01 0.13492924E+03</pdfrwt>
<totfact> 0.45289416E+04</totfact>
</mgrwt>
</event>
<event>
 6    4  0.6325740E-003  0.1274600E+03  0.7818608E-02  0.1231274E+00
          4   -1    0    0  502    0 -0.00000000000E+00  0.00000000000E+00  0.36323909620E+03  0.36324131636E+03  0.12700000000E+01 0. -1.
         21   -1    0    0  501  502  0.00000000000E+00 -0.00000000000E+00 -0.17647999794E+02  0.17647999794E+02  0.00000000000E+00 0. -1.
         25    2    1    2    0    0  0.11248037637E+02 -0.22206897431E+02  0.32303997842E+03  0.34727636528E+03  0.12500552618E+03 0.  0.
    9000005    1    3    3    0    0  0.51227018578E+02  0.13540497594E+02  0.65721966810E+02  0.84427065737E+02  0.10000000000E+01 0.  0.
    9000005    1    3    3    0    0 -0.39978980941E+02 -0.35747395025E+02  0.25731801161E+03  0.26284929954E+03  0.10000000000E+01 0.  0.
          4    1    1    2  501    0 -0.11248037637E+02  0.22206897431E+02  0.22551117985E+02  0.33612950875E+02  0.12700000000E+01 0.  1.
<mgrwt>
<rscale>  1 0.12745998E+03</rscale>
<asrwt>0</asrwt>
<pdfrwt beam="2">  1       21 0.27150772E-02 0.12745998E+03</pdfrwt>
<pdfrwt beam="1">  1        4 0.55886618E-01 0.12745998E+03</pdfrwt>
<totfact> 0.91533234E+04</totfact>
</mgrwt>
</event>
<event>
 6    4  0.6325740E-003  0.1280381E+03  0.7818608E-02  0.1230396E+00
         21   -1    0    0  501  502  0.00000000000E+00  0.00000000000E+00  0.98925529405E+02  0.98925529405E+02  0.00000000000E+00 0.  1.
          4   -1    0    0  502    0 -0.00000000000E+00 -0.00000000000E+00 -0.63234818398E+02  0.63247570371E+02  0.12700000000E+01 0.  1.
         25    2    1    2    0    0 -0.24033607593E+02  0.13804860825E+02  0.18073917884E+02  0.12930742199E+03  0.12500221757E+03 0.  0.
    9000005    1    3    3    0    0 -0.60212487910E+02  0.48209190766E+02  0.18671899355E+02  0.79368190103E+02  0.10000000000E+01 0.  0.
    9000005    1    3    3    0    0  0.36178880317E+02 -0.34404329941E+02 -0.59798147157E+00  0.49939231888E+02  0.10000000000E+01 0.  0.
          4    1    1    2  501    0  0.24033607593E+02 -0.13804860825E+02  0.17616793123E+02  0.32865677785E+02  0.12700000000E+01 0. -1.
<mgrwt>
<rscale>  1 0.12803805E+03</rscale>
<asrwt>0</asrwt>
<pdfrwt beam="1">  1       21 0.15219312E-01 0.12803805E+03</pdfrwt>
<pdfrwt beam="2">  1        4 0.97300415E-02 0.12803805E+03</pdfrwt>
<totfact> 0.12129248E+05</totfact>
</mgrwt>
</event>
<event>
 6    4  0.6325740E-003  0.1299151E+03  0.7818608E-02  0.1227582E+00
         21   -1    0    0  501  502  0.00000000000E+00  0.00000000000E+00  0.16363246051E+03  0.16363246051E+03  0.00000000000E+00 0. -1.
         -4   -1    0    0    0  501 -0.00000000000E+00 -0.00000000000E+00 -0.43624719764E+02  0.43643201927E+02  0.12700000000E+01 0. -1.
         25    2    1    2    0    0  0.35089463793E+02  0.46128598066E+01  0.75014479738E+02  0.15001699164E+03  0.12500150666E+03 0.  0.
    9000005    1    3    3    0    0  0.11551860573E+02  0.34978171954E+02 -0.23884153534E+02  0.43913218807E+02  0.10000000000E+01 0.  0.
    9000005    1    3    3    0    0  0.23537603220E+02 -0.30365312147E+02  0.98898633272E+02  0.10610377284E+03  0.10000000000E+01 0.  0.
         -4    1    1    2    0  502 -0.35089463793E+02 -0.46128598066E+01  0.44993261009E+02  0.57258670794E+02  0.12700000000E+01 0.  1.
<mgrwt>
<rscale>  1 0.12991507E+03</rscale>
<asrwt>0</asrwt>
<pdfrwt beam="1">  1       21 0.25174224E-01 0.12991507E+03</pdfrwt>
<pdfrwt beam="2">  1       -4 0.67132963E-02 0.12991507E+03</pdfrwt>
<totfact> 0.88767801E+04</totfact>
</mgrwt>
</event>
<event>
 6    4  0.6325740E-003  0.1280814E+03  0.7818608E-02  0.1230331E+00
         21   -1    0    0  501  502  0.00000000000E+00  0.00000000000E+00  0.99752859800E+02  0.99752859800E+02  0.00000000000E+00 0. -1.
          4   -1    0    0  502    0 -0.00000000000E+00 -0.00000000000E+00 -0.41193128172E+03  0.41193323945E+03  0.12700000000E+01 0. -1.
         25    2    1    2    0    0 -0.25176580088E+02  0.12081155663E+02 -0.39974654057E+03  0.41976437814E+03  0.12500008782E+03 0.  0.
    9000005    1    3    3    0    0  0.25573180135E+02  0.13021407941E+02 -0.16394894492E+02  0.33065649432E+02  0.10000000000E+01 0.  0.
    9000005    1    3    3    0    0 -0.50749760223E+02 -0.94025227772E+00 -0.38335164608E+03  0.38669872871E+03  0.10000000000E+01 0.  0.
          4    1    1    2  501    0  0.25176580088E+02 -0.12081155663E+02  0.87568118648E+02  0.91921721103E+02  0.12700000000E+01 0.  1.
<mgrwt>
<rscale>  1 0.12808137E+03</rscale>
<asrwt>0</asrwt>
<pdfrwt beam="1">  1       21 0.15346594E-01 0.12808137E+03</pdfrwt>
<pdfrwt beam="2">  1        4 0.63374815E-01 0.12808137E+03</pdfrwt>
<totfact> 0.36542331E+03</totfact>
</mgrwt>
</event>
<event>
 6    4  0.6325740E-003  0.1573730E+03  0.7818608E-02  0.1191695E+00
         -4   -1    0    0    0  501 -0.00000000000E+00  0.00000000000E+00  0.38898346532E+03  0.38898553853E+03  0.12700000000E+01 0.  1.
         21   -1    0    0  501  502  0.00000000000E+00 -0.00000000000E+00 -0.61539986322E+02  0.61539986322E+02  0.00000000000E+00 0.  1.
         25    2    1    2    0    0  0.16546505112E+02  0.94166258710E+02  0.31753833190E+03  0.35439646604E+03  0.12500076721E+03 0.  0.
    9000005    1    3    3    0    0  0.59952552115E+02  0.96810165633E+02  0.22971193147E+03  0.25638854915E+03  0.10000000000E+01 0.  0.
    9000005    1    3    3    0    0 -0.43406047003E+02 -0.26439069233E+01  0.87826400431E+02  0.98007916889E+02  0.10000000000E+01 0.  0.
         -4    1    1    2    0  502 -0.16546505112E+02 -0.94166258710E+02  0.99051470961E+01  0.96129058821E+02  0.12700000000E+01 0. -1.
<mgrwt>
<rscale>  1 0.15737301E+03</rscale>
<asrwt>0</asrwt>
<pdfrwt beam="2">  1       21 0.94676904E-02 0.15737301E+03</pdfrwt>
<pdfrwt beam="1">  1       -4 0.59844776E-01 0.15737301E+03</pdfrwt>
<totfact> 0.98812415E+03</totfact>
</mgrwt>
</event>
<event>
 6    4  0.6325740E-003  0.1269414E+03  0.7818608E-02  0.1232066E+00
          4   -1    0    0  502    0 -0.00000000000E+00  0.00000000000E+00  0.12063056531E+03  0.12063725041E+03  0.12700000000E+01 0.  1.
         21   -1    0    0  501  502  0.00000000000E+00 -0.00000000000E+00 -0.46487319142E+02  0.46487319142E+02  0.00000000000E+00 0.  1.
         25    2    1    2    0    0  0.23494768914E+01 -0.22034094976E+02  0.68406743352E+02  0.14419987222E+03  0.12499239669E+03 0.  0.
    9000005    1    3    3    0    0  0.54843988328E+02  0.60445043235E+01  0.63984828277E+02  0.84495309561E+02  0.10000000000E+01 0.  0.
    9000005    1    3    3    0    0 -0.52494511437E+02 -0.28078599300E+02  0.44219150748E+01  0.59704562661E+02  0.10000000000E+01 0.  0.
          4    1    1    2  501    0 -0.23494768914E+01  0.22034094976E+02  0.57365028116E+01  0.22924697328E+02  0.12700000000E+01 0. -1.
<mgrwt>
<rscale>  1 0.12694141E+03</rscale>
<asrwt>0</asrwt>
<pdfrwt beam="2">  1       21 0.71518953E-02 0.12694141E+03</pdfrwt>
<pdfrwt beam="1">  1        4 0.18560397E-01 0.12694141E+03</pdfrwt>
<totfact> 0.14945121E+05</totfact>
</mgrwt>
</event>
<event>
 6    4  0.6325740E-003  0.1281252E+03  0.7818608E-02  0.1230264E+00
         21   -1    0    0  501  502  0.00000000000E+00  0.00000000000E+00  0.11235176346E+03  0.11235176346E+03  0.00000000000E+00 0. -1.
         -4   -1    0    0    0  501 -0.00000000000E+00 -0.00000000000E+00 -0.55187392084E+02  0.55202003089E+02  0.12700000000E+01 0. -1.
         25    2    1    2    0    0  0.77647123882E+00  0.28119496392E+02  0.38551962653E+02  0.13379960172E+03  0.12499908244E+03 0.  0.
    9000005    1    3    3    0    0 -0.33083751163E+02 -0.33590632732E+02 -0.10099592957E+02  0.48227243091E+02  0.10000000000E+01 0.  0.
    9000005    1    3    3    0    0  0.33860222402E+02  0.61710129123E+02  0.48651555611E+02  0.85572358626E+02  0.10000000000E+01 0.  0.
         -4    1    1    2    0  502 -0.77647123882E+00 -0.28119496392E+02  0.18612408718E+02  0.33754164827E+02  0.12700000000E+01 0.  1.
<mgrwt>
<rscale>  1 0.12812525E+03</rscale>
<asrwt>0</asrwt>
<pdfrwt beam="1">  1       21 0.17284887E-01 0.12812525E+03</pdfrwt>
<pdfrwt beam="2">  1       -4 0.84920441E-02 0.12812525E+03</pdfrwt>
<totfact> 0.12087685E+05</totfact>
</mgrwt>
</event>
<event>
 6    4  0.6325740E-003  0.1290617E+03  0.7818608E-02  0.1228855E+00
          4   -1    0    0  502    0 -0.00000000000E+00  0.00000000000E+00  0.13486106610E+02  0.13545773196E+02  0.12700000000E+01 0. -1.
         21   -1    0    0  501  502  0.00000000000E+00 -0.00000000000E+00 -0.55727988127E+03  0.55727988127E+03  0.00000000000E+00 0. -1.
         25    2    1    2    0    0  0.19326281291E+01  0.32049283367E+02 -0.32505660713E+03  0.34974093547E+03  0.12500412988E+03 0.  0.
    9000005    1    3    3    0    0 -0.36618584462E+02 -0.32206170820E+02 -0.17971704318E+03  0.18621861823E+03  0.10000000000E+01 0.  0.
    9000005    1    3    3    0    0  0.38551212591E+02  0.64255454187E+02 -0.14533956395E+03  0.16352231724E+03  0.10000000000E+01 0.  0.
          4    1    1    2  501    0 -0.19326281291E+01 -0.32049283367E+02 -0.21873716753E+03  0.22108471900E+03  0.12700000000E+01 0.  1.
<mgrwt>
<rscale>  1 0.12906171E+03</rscale>
<asrwt>0</asrwt>
<pdfrwt beam="2">  1       21 0.85735375E-01 0.12906171E+03</pdfrwt>
<pdfrwt beam="1">  1        4 0.20794865E-02 0.12906171E+03</pdfrwt>
<totfact> 0.45822467E+04</totfact>
</mgrwt>
</event>
<event>
 6    4  0.6325740E-003  0.1281432E+03  0.7818608E-02  0.1230237E+00
         -4   -1    0    0    0  501 -0.00000000000E+00  0.00000000000E+00  0.93463834059E+02  0.93472462132E+02  0.12700000000E+01 0. -1.
         21   -1    0    0  501  502  0.00000000000E+00 -0.00000000000E+00 -0.66794175357E+02  0.66794175357E+02  0.00000000000E+00 0. -1.
         25    2    1    2    0    0 -0.22226977853E+02 -0.17400251562E+02  0.12773675377E+02  0.12877824992E+03  0.12499545421E+03 0.  0.
    9000005    1    3    3    0    0  0.78254543310E+00 -0.69505937889E+02 -0.32670172854E+01  0.69594261122E+02  0.10000000000E+01 0.  0.
    9000005    1    3    3    0    0 -0.23009523286E+02  0.52105686327E+02  0.16040692662E+02  0.59183988802E+02  0.10000000000E+01 0.  0.
         -4    1    1    2    0  502  0.22226977853E+02  0.17400251562E+02  0.13895983325E+02  0.31488387566E+02  0.12700000000E+01 0.  1.
<mgrwt>
<rscale>  1 0.12814317E+03</rscale>
<asrwt>0</asrwt>
<pdfrwt beam="2">  1       21 0.10276027E-01 0.12814317E+03</pdfrwt>
<pdfrwt beam="1">  1       -4 0.14380644E-01 0.12814317E+03</pdfrwt>
<totfact> 0.12515543E+05</totfact>
</mgrwt>
</event>
<event>
 6    4  0.6325740E-003  0.1268899E+03  0.7818608E-02  0.1232145E+00
          4   -1    0    0  502    0 -0.00000000000E+00  0.00000000000E+00  0.12445211982E+04  0.12445218462E+04  0.12700000000E+01 0. -1.
         21   -1    0    0  501  502  0.00000000000E+00 -0.00000000000E+00 -0.52122386819E+01  0.52122386819E+01  0.00000000000E+00 0. -1.
         25    2    1    2    0    0 -0.21429648918E+02 -0.37177322697E+01  0.11750678711E+04  0.11818991254E+04  0.12501195765E+03 0.  0.
    9000005    1    3    3    0    0 -0.19006504187E+02  0.56568886403E+02  0.77633950977E+03  0.77863041332E+03  0.10000000000E+01 0.  0.
    9000005    1    3    3    0    0 -0.24231447307E+01 -0.60286618673E+02  0.39872836137E+03  0.40326871213E+03  0.10000000000E+01 0.  0.
          4    1    1    2  501    0  0.21429648918E+02  0.37177322697E+01  0.64241088397E+02  0.67834959456E+02  0.12700000000E+01 0.  1.
<mgrwt>
<rscale>  1 0.12688988E+03</rscale>
<asrwt>0</asrwt>
<pdfrwt beam="2">  1       21 0.80188387E-03 0.12688988E+03</pdfrwt>
<pdfrwt beam="1">  1        4 0.19147651E+00 0.12688988E+03</pdfrwt>
<totfact> 0.35351912E+04</totfact>
</mgrwt>
</event>
<event>
 6    4  0.6325740E-003  0.1295337E+03  0.7818608E-02  0.1228149E+00
         21   -1    0    0  501  502  0.00000000000E+00  0.00000000000E+00  0.18423104377E+04  0.18423104377E+04  0.00000000000E+00 0.  1.
          4   -1    0    0  502    0 -0.00000000000E+00 -0.00000000000E+00 -0.39231170589E+01  0.41235600465E+01  0.12700000000E+01 0.  1.
         25    2    1    2    0    0 -0.47262433244E+01 -0.33650635023E+02  0.11630519302E+04  0.11702430446E+04  0.12499715403E+03 0.  0.
    9000005    1    3    3    0    0  0.52431357636E+02 -0.27628501769E+02  0.33539829531E+03  0.34059565157E+03  0.10000000000E+01 0.  0.
    9000005    1    3    3    0    0 -0.57157600960E+02 -0.60221332540E+01  0.82765363488E+03  0.82964739304E+03  0.10000000000E+01 0.  0.
          4    1    1    2  501    0  0.47262433244E+01  0.33650635023E+02  0.67533539041E+03  0.67619095309E+03  0.12700000000E+01 0. -1.
<mgrwt>
<rscale>  1 0.12953375E+03</rscale>
<asrwt>0</asrwt>
<pdfrwt beam="1">  1       21 0.28343170E+00 0.12953375E+03</pdfrwt>
<pdfrwt beam="2">  1        4 0.61901031E-03 0.12953375E+03</pdfrwt>
<totfact> 0.10984133E+04</totfact>
</mgrwt>
</event>
<event>
 6    4  0.6325740E-003  0.1267658E+03  0.7818608E-02  0.1232335E+00
         21   -1    0    0  501  502  0.00000000000E+00  0.00000000000E+00  0.95046595206E+02  0.95046595206E+02  0.00000000000E+00 0.  1.
          4   -1    0    0  502    0 -0.00000000000E+00 -0.00000000000E+00 -0.57765787320E+02  0.57779746320E+02  0.12700000000E+01 0.  1.
         25    2    1    2    0    0 -0.14638322686E+02  0.15175836461E+02  0.28377323968E+02  0.12990317793E+03  0.12499990647E+03 0.  0.
    9000005    1    3    3    0    0  0.51003328926E+02  0.89433441571E+01  0.36642404441E+02  0.63442799193E+02  0.10000000000E+01 0.  0.
    9000005    1    3    3    0    0 -0.65641651612E+02  0.62324923039E+01 -0.82650804730E+01  0.66460378737E+02  0.10000000000E+01 0.  0.
          4    1    1    2  501    0  0.14638322686E+02 -0.15175836461E+02  0.89034839179E+01  0.22923163596E+02  0.12700000000E+01 0. -1.
<mgrwt>
<rscale>  1 0.12676578E+03</rscale>
<asrwt>0</asrwt>
<pdfrwt beam="1">  1       21 0.14622553E-01 0.12676578E+03</pdfrwt>
<pdfrwt beam="2">  1        4 0.88887707E-02 0.12676578E+03</pdfrwt>
<totfact> 0.15142778E+05</totfact>
</mgrwt>
</event>
<event>
 6    4  0.6325740E-003  0.1270203E+03  0.7818608E-02  0.1231945E+00
         21   -1    0    0  501  502  0.00000000000E+00  0.00000000000E+00  0.30248922281E+03  0.30248922281E+03  0.00000000000E+00 0.  1.
          4   -1    0    0  502    0 -0.00000000000E+00 -0.00000000000E+00 -0.30241567886E+02  0.30268223077E+02  0.12700000000E+01 0.  1.
         25    2    1    2    0    0 -0.21328960388E+02 -0.73660700380E+01  0.10731909111E+03  0.16628754591E+03  0.12499990827E+03 0.  0.
    9000005    1    3    3    0    0  0.35559797726E+02 -0.45440007556E+02  0.39577804086E+02  0.69976396572E+02  0.10000000000E+01 0.  0.
    9000005    1    3    3    0    0 -0.56888758114E+02  0.38073937518E+02  0.67741287028E+02  0.96311149335E+02  0.10000000000E+01 0.  0.
          4    1    1    2  501    0  0.21328960388E+02  0.73660700380E+01  0.16492856381E+03  0.16646989998E+03  0.12700000000E+01 0. -1.
<mgrwt>
<rscale>  1 0.12702032E+03</rscale>
<asrwt>0</asrwt>
<pdfrwt beam="1">  1       21 0.46536802E-01 0.12702032E+03</pdfrwt>
<pdfrwt beam="2">  1        4 0.46548046E-02 0.12702032E+03</pdfrwt>
<totfact> 0.47948517E+04</totfact>
</mgrwt>
</event>
<event>
 6    4  0.6325740E-003  0.1267471E+03  0.7818608E-02  0.1232364E+00
         -4   -1    0    0    0  501 -0.00000000000E+00  0.00000000000E+00  0.13525715467E+03  0.13526311689E+03  0.12700000000E+01 0. -1.
         21   -1    0    0  501  502  0.00000000000E+00 -0.00000000000E+00 -0.44291827774E+02  0.44291827774E+02  0.00000000000E+00 0. -1.
         25    2    1    2    0    0 -0.16732600639E+02 -0.12591651784E+02  0.94735672398E+02  0.15823926911E+03  0.12500515608E+03 0.  0.
    9000005    1    3    3    0    0  0.16140606164E+02 -0.15000752121E+02 -0.25411094743E+02  0.33649152553E+02  0.10000000000E+01 0.  0.
    9000005    1    3    3    0    0 -0.32873206803E+02  0.24091003362E+01  0.12014676714E+03  0.12459011656E+03  0.10000000000E+01 0.  0.
         -4    1    1    2    0  502  0.16732600639E+02  0.12591651784E+02 -0.37703455014E+01  0.21315675546E+02  0.12700000000E+01 0.  1.
<mgrwt>
<rscale>  1 0.12674707E+03</rscale>
<asrwt>0</asrwt>
<pdfrwt beam="2">  1       21 0.68141274E-02 0.12674707E+03</pdfrwt>
<pdfrwt beam="1">  1       -4 0.20810652E-01 0.12674707E+03</pdfrwt>
<totfact> 0.13219313E+05</totfact>
</mgrwt>
</event>
<event>
 6    4  0.6325740E-003  0.1269125E+03  0.7818608E-02  0.1232110E+00
         -4   -1    0    0    0  501 -0.00000000000E+00  0.00000000000E+00  0.86458208222E+02  0.86467535347E+02  0.12700000000E+01 0.  1.
         21   -1    0    0  501  502  0.00000000000E+00 -0.00000000000E+00 -0.65426710644E+02  0.65426710644E+02  0.00000000000E+00 0.  1.
         25    2    1    2    0    0  0.41373494535E+01  0.21550162888E+02  0.25538272249E+02  0.12945653000E+03  0.12500105051E+03 0.  0.
    9000005    1    3    3    0    0  0.10924670847E+02  0.32877537503E+01 -0.50074606166E+02  0.51367537808E+02  0.10000000000E+01 0.  0.
    9000005    1    3    3    0    0 -0.67873213934E+01  0.18262409138E+02  0.75612878415E+02  0.78088992191E+02  0.10000000000E+01 0.  0.
         -4    1    1    2    0  502 -0.41373494535E+01 -0.21550162888E+02 -0.45067746709E+01  0.22437715992E+02  0.12700000000E+01 0. -1.
<mgrwt>
<rscale>  1 0.12691253E+03</rscale>
<asrwt>0</asrwt>
<pdfrwt beam="2">  1       21 0.10065648E-01 0.12691253E+03</pdfrwt>
<pdfrwt beam="1">  1       -4 0.13302928E-01 0.12691253E+03</pdfrwt>
<totfact> 0.14828423E+05</totfact>
</mgrwt>
</event>
<event>
 6    4  0.6325740E-003  0.1292601E+03  0.7818608E-02  0.1228558E+00
         -4   -1    0    0    0  501 -0.00000000000E+00  0.00000000000E+00  0.33801901943E+02  0.33825751654E+02  0.12700000000E+01 0.  1.
         21   -1    0    0  501  502  0.00000000000E+00 -0.00000000000E+00 -0.28909027466E+03  0.28909027466E+03  0.00000000000E+00 0. -1.
         25    2    1    2    0    0  0.32547114000E+02 -0.47828880113E+01 -0.97975923647E+02  0.16219574079E+03  0.12500394421E+03 0.  0.
    9000005    1    3    3    0    0 -0.14896698086E+02  0.34494454655E+02  0.90927537192E+01  0.38671141515E+02  0.10000000000E+01 0.  0.
    9000005    1    3    3    0    0  0.47443812086E+02 -0.39277342667E+02 -0.10706867737E+03  0.12352459927E+03  0.10000000000E+01 0.  0.
         -4    1    1    2    0  502 -0.32547114000E+02  0.47828880113E+01 -0.15731244907E+03  0.16072028553E+03  0.12700000000E+01 0. -1.
<mgrwt>
<rscale>  1 0.12926011E+03</rscale>
<asrwt>0</asrwt>
<pdfrwt beam="2">  1       21 0.44475425E-01 0.12926011E+03</pdfrwt>
<pdfrwt beam="1">  1       -4 0.52023420E-02 0.12926011E+03</pdfrwt>
<totfact> 0.44072420E+04</totfact>
</mgrwt>
</event>
<event>
 6    4  0.6325740E-003  0.1267638E+03  0.7818608E-02  0.1232338E+00
          4   -1    0    0  502    0 -0.00000000000E+00  0.00000000000E+00  0.33644812131E+02  0.33668773119E+02  0.12700000000E+01 0. -1.
         21   -1    0    0  501  502  0.00000000000E+00 -0.00000000000E+00 -0.16535649923E+03  0.16535649923E+03  0.00000000000E+00 0. -1.
         25    2    1    2    0    0 -0.21005098875E+02 -0.29053496215E+01 -0.10314440132E+03  0.16342530111E+03  0.12497762314E+03 0.  0.
    9000005    1    3    3    0    0  0.48567870917E+02  0.16316489817E+02 -0.24919833939E+02  0.56983015442E+02  0.10000000000E+01 0.  0.
    9000005    1    3    3    0    0 -0.69572969792E+02 -0.19221839438E+02 -0.78224567377E+02  0.10644228567E+03  0.10000000000E+01 0.  0.
          4    1    1    2  501    0  0.21005098875E+02  0.29053496215E+01 -0.28567285785E+02  0.35599971240E+02  0.12700000000E+01 0.  1.
<mgrwt>
<rscale>  1 0.12676380E+03</rscale>
<asrwt>0</asrwt>
<pdfrwt beam="2">  1       21 0.25439463E-01 0.12676380E+03</pdfrwt>
<pdfrwt beam="1">  1        4 0.51783430E-02 0.12676380E+03</pdfrwt>
<totfact> 0.13213839E+05</totfact>
</mgrwt>
</event>
<event>
 6    4  0.6325740E-003  0.1385683E+03  0.7818608E-02  0.1215269E+00
         -4   -1    0    0    0  501 -0.00000000000E+00  0.00000000000E+00  0.63752917494E+03  0.63753043990E+03  0.12700000000E+01 0.  1.
         21   -1    0    0  501  502  0.00000000000E+00 -0.00000000000E+00 -0.20044230065E+02  0.20044230065E+02  0.00000000000E+00 0. -1.
         25    2    1    2    0    0  0.25023550958E+02  0.54304456361E+02  0.55096391226E+03  0.56812181778E+03  0.12500406052E+03 0.  0.
    9000005    1    3    3    0    0  0.73564955941E+02  0.51690541790E+02  0.36331178996E+03  0.37427285712E+03  0.10000000000E+01 0.  0.
    9000005    1    3    3    0    0 -0.48541404983E+02  0.26139145718E+01  0.18765212230E+03  0.19384896066E+03  0.10000000000E+01 0.  0.
         -4    1    1    2    0  502 -0.25023550958E+02 -0.54304456361E+02  0.66521032620E+02  0.89452852185E+02  0.12700000000E+01 0. -1.
<mgrwt>
<rscale>  1 0.13856828E+03</rscale>
<asrwt>0</asrwt>
<pdfrwt beam="2">  1       21 0.30837282E-02 0.13856828E+03</pdfrwt>
<pdfrwt beam="1">  1       -4 0.98084588E-01 0.13856828E+03</pdfrwt>
<totfact> 0.22021582E+04</totfact>
</mgrwt>
</event>
<event>
 6    4  0.6325740E-003  0.1275805E+03  0.7818608E-02  0.1231091E+00
          4   -1    0    0  502    0 -0.00000000000E+00  0.00000000000E+00  0.12148020888E+02  0.12214225784E+02  0.12700000000E+01 0. -1.
         21   -1    0    0  501  502  0.00000000000E+00 -0.00000000000E+00 -0.62151432671E+03  0.62151432671E+03  0.00000000000E+00 0. -1.
         25    2    1    2    0    0 -0.24535069125E+02 -0.70442634663E+01 -0.33993146553E+03  0.36308425211E+03  0.12500072644E+03 0.  0.
    9000005    1    3    3    0    0 -0.97939304075E+01 -0.48568925458E+02 -0.52125786454E+02  0.71923286955E+02  0.10000000000E+01 0.  0.
    9000005    1    3    3    0    0 -0.14741138717E+02  0.41524661992E+02 -0.28780567907E+03  0.29116096516E+03  0.10000000000E+01 0.  0.
          4    1    1    2  501    0  0.24535069125E+02  0.70442634663E+01 -0.26943484030E+03  0.27064430039E+03  0.12700000000E+01 0.  1.
<mgrwt>
<rscale>  1 0.12758046E+03</rscale>
<asrwt>0</asrwt>
<pdfrwt beam="2">  1       21 0.95617622E-01 0.12758046E+03</pdfrwt>
<pdfrwt beam="1">  1        4 0.18741181E-02 0.12758046E+03</pdfrwt>
<totfact> 0.41839501E+04</totfact>
</mgrwt>
</event>
<event>
 6    4  0.6325740E-003  0.1270219E+03  0.7818608E-02  0.1231943E+00
         -4   -1    0    0    0  501 -0.00000000000E+00  0.00000000000E+00  0.73105003229E+03  0.73105113543E+03  0.12700000000E+01 0. -1.
         21   -1    0    0  501  502  0.00000000000E+00 -0.00000000000E+00 -0.64055162384E+02  0.64055162384E+02  0.00000000000E+00 0.  1.
         25    2    1    2    0    0  0.21330698311E+02 -0.74598843061E+01  0.72332807750E+03  0.73439639959E+03  0.12499566176E+03 0.  0.
    9000005    1    3    3    0    0  0.43353279038E+02  0.31544734768E+02  0.14958114421E+03  0.15890278726E+03  0.10000000000E+01 0.  0.
    9000005    1    3    3    0    0 -0.22022580727E+02 -0.39004619074E+02  0.57374693329E+03  0.57549361233E+03  0.10000000000E+01 0.  0.
         -4    1    1    2    0  502 -0.21330698311E+02  0.74598843061E+01 -0.56333207597E+02  0.60709898225E+02  0.12700000000E+01 0.  1.
<mgrwt>
<rscale>  1 0.12702190E+03</rscale>
<asrwt>0</asrwt>
<pdfrwt beam="2">  1       21 0.98546408E-02 0.12702190E+03</pdfrwt>
<pdfrwt beam="1">  1       -4 0.11247028E+00 0.12702190E+03</pdfrwt>
<totfact> 0.22257215E+03</totfact>
</mgrwt>
</event>
<event>
 6    4  0.6325740E-003  0.1293506E+03  0.7818608E-02  0.1228423E+00
          4   -1    0    0  502    0 -0.00000000000E+00  0.00000000000E+00  0.25617170403E+03  0.25617485210E+03  0.12700000000E+01 0.  1.
         21   -1    0    0  501  502  0.00000000000E+00 -0.00000000000E+00 -0.43139264247E+02  0.43139264247E+02  0.00000000000E+00 0.  1.
         25    2    1    2    0    0 -0.18682969944E+02 -0.27365428057E+02  0.22861838202E+03  0.26267459514E+03  0.12503462848E+03 0.  0.
    9000005    1    3    3    0    0  0.38859849046E+02 -0.41454609745E+02  0.17032461716E+03  0.17955513846E+03  0.10000000000E+01 0.  0.
    9000005    1    3    3    0    0 -0.57542818990E+02  0.14089181688E+02  0.58293764859E+02  0.83119456684E+02  0.10000000000E+01 0.  0.
          4    1    1    2  501    0  0.18682969944E+02  0.27365428057E+02 -0.15585942231E+02  0.36639521202E+02  0.12700000000E+01 0. -1.
<mgrwt>
<rscale>  1 0.12935060E+03</rscale>
<asrwt>0</asrwt>
<pdfrwt beam="2">  1       21 0.66368101E-02 0.12935060E+03</pdfrwt>
<pdfrwt beam="1">  1        4 0.39412710E-01 0.12935060E+03</pdfrwt>
<totfact> 0.41788230E+04</totfact>
</mgrwt>
</event>
<event>
 6    4  0.6325740E-003  0.1310958E+03  0.7818608E-02  0.1225839E+00
          4   -1    0    0  502    0 -0.00000000000E+00  0.00000000000E+00  0.28336585351E+03  0.28336869946E+03  0.12700000000E+01 0. -1.
         21   -1    0    0  501  502  0.00000000000E+00 -0.00000000000E+00 -0.10315996062E+03  0.10315996062E+03  0.00000000000E+00 0.  1.
         25    2    1    2    0    0  0.34957834094E+02 -0.18395588523E+02  0.26351301477E+03  0.29432162512E+03  0.12500264885E+03 0.  0.
    9000005    1    3    3    0    0 -0.10088803560E+02 -0.27828810365E+02  0.29966229435E+01  0.29769218878E+02  0.10000000000E+01 0.  0.
    9000005    1    3    3    0    0  0.45046637654E+02  0.94332218419E+01  0.26051639182E+03  0.26455240624E+03  0.10000000000E+01 0.  0.
          4    1    1    2  501    0 -0.34957834094E+02  0.18395588523E+02 -0.83307121882E+02  0.92207034970E+02  0.12700000000E+01 0.  1.
<mgrwt>
<rscale>  1 0.13109580E+03</rscale>
<asrwt>0</asrwt>
<pdfrwt beam="2">  1       21 0.15870763E-01 0.13109580E+03</pdfrwt>
<pdfrwt beam="1">  1        4 0.43595567E-01 0.13109580E+03</pdfrwt>
<totfact> 0.74248456E+03</totfact>
</mgrwt>
</event>
<event>
 6    4  0.6325740E-003  0.1278481E+03  0.7818608E-02  0.1230684E+00
         21   -1    0    0  501  502  0.00000000000E+00  0.00000000000E+00  0.25832072297E+02  0.25832072297E+02  0.00000000000E+00 0. -1.
          4   -1    0    0  502    0 -0.00000000000E+00 -0.00000000000E+00 -0.23180761436E+03  0.23181109330E+03  0.12700000000E+01 0. -1.
         25    2    1    2    0    0  0.23279166753E+02  0.13337410227E+02 -0.16735920733E+03  0.21060445468E+03  0.12500130374E+03 0.  0.
    9000005    1    3    3    0    0 -0.28475947762E+02  0.53950559423E+02 -0.93970400927E+02  0.11204007637E+03  0.10000000000E+01 0.  0.
    9000005    1    3    3    0    0  0.51755114515E+02 -0.40613149195E+02 -0.73388806401E+02  0.98564378306E+02  0.10000000000E+01 0.  0.
          4    1    1    2  501    0 -0.23279166753E+02 -0.13337410227E+02 -0.38616334735E+02  0.47038710916E+02  0.12700000000E+01 0.  1.
<mgrwt>
<rscale>  1 0.12784808E+03</rscale>
<asrwt>0</asrwt>
<pdfrwt beam="1">  1       21 0.39741651E-02 0.12784808E+03</pdfrwt>
<pdfrwt beam="2">  1        4 0.35665378E-01 0.12784808E+03</pdfrwt>
<totfact> 0.12007134E+05</totfact>
</mgrwt>
</event>
<event>
 6    4  0.6325740E-003  0.1283121E+03  0.7818608E-02  0.1229982E+00
         21   -1    0    0  501  502  0.00000000000E+00  0.00000000000E+00  0.68439259887E+02  0.68439259887E+02  0.00000000000E+00 0. -1.
         -4   -1    0    0    0  501 -0.00000000000E+00 -0.00000000000E+00 -0.10427685470E+03  0.10428458815E+03  0.12700000000E+01 0. -1.
         25    2    1    2    0    0 -0.25716264019E+02  0.13296158995E+02 -0.53243194058E+02  0.13892027035E+03  0.12500355883E+03 0.  0.
    9000005    1    3    3    0    0  0.34372213893E+02  0.33258752064E+02  0.10597936803E+02  0.48999081025E+02  0.10000000000E+01 0.  0.
    9000005    1    3    3    0    0 -0.60088477912E+02 -0.19962593069E+02 -0.63841130861E+02  0.89921189324E+02  0.10000000000E+01 0.  0.
         -4    1    1    2    0  502  0.25716264019E+02 -0.13296158995E+02  0.17405599250E+02  0.33803577686E+02  0.12700000000E+01 0.  1.
<mgrwt>
<rscale>  1 0.12831213E+03</rscale>
<asrwt>0</asrwt>
<pdfrwt beam="1">  1       21 0.10529117E-01 0.12831213E+03</pdfrwt>
<pdfrwt beam="2">  1       -4 0.16044094E-01 0.12831213E+03</pdfrwt>
<totfact> 0.99082739E+04</totfact>
</mgrwt>
</event>
<event>
 6    4  0.6325740E-003  0.1269961E+03  0.7818608E-02  0.1231982E+00
         21   -1    0    0  501  502  0.00000000000E+00  0.00000000000E+00  0.41974302416E+02  0.41974302416E+02  0.00000000000E+00 0. -1.
          4   -1    0    0  502    0 -0.00000000000E+00 -0.00000000000E+00 -0.13422929233E+03  0.13423530020E+03  0.12700000000E+01 0. -1.
         25    2    1    2    0    0 -0.22259879080E+02  0.26987329756E+01 -0.84090156602E+02  0.15231268274E+03  0.12500085404E+03 0.  0.
    9000005    1    3    3    0    0 -0.44561387149E+02 -0.43176177795E+01  0.17487361254E+02  0.48074596739E+02  0.10000000000E+01 0.  0.
    9000005    1    3    3    0    0  0.22301508070E+02  0.70163507551E+01 -0.10157751786E+03  0.10423808600E+03  0.10000000000E+01 0.  0.
          4    1    1    2  501    0  0.22259879080E+02 -0.26987329756E+01 -0.81648333122E+01  0.23896919871E+02  0.12700000000E+01 0.  1.
<mgrwt>
<rscale>  1 0.12699606E+03</rscale>
<asrwt>0</asrwt>
<pdfrwt beam="1">  1       21 0.64575850E-02 0.12699606E+03</pdfrwt>
<pdfrwt beam="2">  1        4 0.20652600E-01 0.12699606E+03</pdfrwt>
<totfact> 0.14692685E+05</totfact>
</mgrwt>
</event>
<event>
 6    4  0.6325740E-003  0.1286293E+03  0.7818608E-02  0.1229504E+00
         -4   -1    0    0    0  501 -0.00000000000E+00  0.00000000000E+00  0.18032070540E+03  0.18032517765E+03  0.12700000000E+01 0. -1.
         21   -1    0    0  501  502  0.00000000000E+00 -0.00000000000E+00 -0.36036636495E+02  0.36036636495E+02  0.00000000000E+00 0. -1.
         25    2    1    2    0    0  0.14938001662E+02  0.26402217464E+02  0.12973979026E+03  0.18269625427E+03  0.12500114866E+03 0.  0.
    9000005    1    3    3    0    0  0.64220034193E+02  0.29991288337E+02  0.43123835230E+02  0.82972015360E+02  0.10000000000E+01 0.  0.
    9000005    1    3    3    0    0 -0.49282032532E+02 -0.35890708736E+01  0.86615955033E+02  0.99724238911E+02  0.10000000000E+01 0.  0.
         -4    1    1    2    0  502 -0.14938001662E+02 -0.26402217464E+02  0.14544278642E+02  0.33665559877E+02  0.12700000000E+01 0.  1.
<mgrwt>
<rscale>  1 0.12862934E+03</rscale>
<asrwt>0</asrwt>
<pdfrwt beam="2">  1       21 0.55440981E-02 0.12862934E+03</pdfrwt>
<pdfrwt beam="1">  1       -4 0.27743712E-01 0.12862934E+03</pdfrwt>
<totfact> 0.11092805E+05</totfact>
</mgrwt>
</event>
<event>
 6    4  0.6325740E-003  0.1280026E+03  0.7818608E-02  0.1230450E+00
         -4   -1    0    0    0  501 -0.00000000000E+00  0.00000000000E+00  0.11061165137E+02  0.11133834658E+02  0.12700000000E+01 0. -1.
         21   -1    0    0  501  502  0.00000000000E+00 -0.00000000000E+00 -0.55692025191E+03  0.55692025191E+03  0.00000000000E+00 0. -1.
         25    2    1    2    0    0 -0.14424152968E+02  0.23487918129E+02 -0.41390316151E+03  0.43324415519E+03  0.12499972964E+03 0.  0.
    9000005    1    3    3    0    0 -0.55942036672E+02 -0.13669837190E+02 -0.10891327605E+03  0.12320502269E+03  0.10000000000E+01 0.  0.
    9000005    1    3    3    0    0  0.41517883704E+02  0.37157755319E+02 -0.30498988547E+03  0.31003913251E+03  0.10000000000E+01 0.  0.
         -4    1    1    2    0  502  0.14424152968E+02 -0.23487918129E+02 -0.13195592526E+03  0.13480993137E+03  0.12700000000E+01 0.  1.
<mgrwt>
<rscale>  1 0.12800262E+03</rscale>
<asrwt>0</asrwt>
<pdfrwt beam="2">  1       21 0.85680039E-01 0.12800262E+03</pdfrwt>
<pdfrwt beam="1">  1       -4 0.17074191E-02 0.12800262E+03</pdfrwt>
<totfact> 0.62057287E+04</totfact>
</mgrwt>
</event>
<event>
 6    4  0.6325740E-003  0.1300435E+03  0.7818608E-02  0.1227391E+00
         -4   -1    0    0    0  501 -0.00000000000E+00  0.00000000000E+00  0.71359156558E+02  0.71370456946E+02  0.12700000000E+01 0. -1.
         21   -1    0    0  501  502  0.00000000000E+00 -0.00000000000E+00 -0.97204118899E+02  0.97204118899E+02  0.00000000000E+00 0. -1.
         25    2    1    2    0    0 -0.14644690012E+02  0.32739972446E+02 -0.26332381091E+02  0.13268274922E+03  0.12499977962E+03 0.  0.
    9000005    1    3    3    0    0 -0.30144578344E+02  0.77214682031E+02 -0.18336380792E+02  0.84900091785E+02  0.10000000000E+01 0.  0.
    9000005    1    3    3    0    0  0.15499888332E+02 -0.44474709584E+02 -0.79960002990E+01  0.47782657436E+02  0.10000000000E+01 0.  0.
         -4    1    1    2    0  502  0.14644690012E+02 -0.32739972446E+02  0.48741874982E+00  0.35891826623E+02  0.12700000000E+01 0.  1.
<mgrwt>
<rscale>  1 0.13004352E+03</rscale>
<asrwt>0</asrwt>
<pdfrwt beam="2">  1       21 0.14954480E-01 0.13004352E+03</pdfrwt>
<pdfrwt beam="1">  1       -4 0.10979839E-01 0.13004352E+03</pdfrwt>
<totfact> 0.10232313E+05</totfact>
</mgrwt>
</event>
<event>
 6    4  0.6325740E-003  0.1324506E+03  0.7818608E-02  0.1223864E+00
         21   -1    0    0  501  502  0.00000000000E+00  0.00000000000E+00  0.48823085041E+02  0.48823085041E+02  0.00000000000E+00 0.  1.
         -4   -1    0    0    0  501 -0.00000000000E+00 -0.00000000000E+00 -0.24639908913E+03  0.24640236205E+03  0.12700000000E+01 0. -1.
         25    2    1    2    0    0  0.11133828194E+01 -0.43789098701E+02 -0.21123373623E+03  0.24932477897E+03  0.12499771719E+03 0.  0.
    9000005    1    3    3    0    0 -0.36606525799E+02  0.27223136057E+02 -0.11617522623E+03  0.12481514354E+03  0.10000000000E+01 0.  0.
    9000005    1    3    3    0    0  0.37719908618E+02 -0.71012234758E+02 -0.95058509996E+02  0.12450963543E+03  0.10000000000E+01 0.  0.
         -4    1    1    2    0  502 -0.11133828194E+01  0.43789098701E+02  0.13657732142E+02  0.45900668118E+02  0.12700000000E+01 0.  1.
<mgrwt>
<rscale>  1 0.13245057E+03</rscale>
<asrwt>0</asrwt>
<pdfrwt beam="1">  1       21 0.75112438E-02 0.13245057E+03</pdfrwt>
<pdfrwt beam="2">  1       -4 0.37909075E-01 0.13245057E+03</pdfrwt>
<totfact> 0.36589572E+04</totfact>
</mgrwt>
</event>
<event>
 6    4  0.6325740E-003  0.1294329E+03  0.7818608E-02  0.1228300E+00
         21   -1    0    0  501  502  0.00000000000E+00  0.00000000000E+00  0.11664115237E+03  0.11664115237E+03  0.00000000000E+00 0. -1.
          4   -1    0    0  502    0 -0.00000000000E+00 -0.00000000000E+00 -0.66964000430E+02  0.66976042385E+02  0.12700000000E+01 0. -1.
         25    2    1    2    0    0 -0.27488743884E+02 -0.19308497513E+02  0.74554696643E+01  0.12964745814E+03  0.12499772101E+03 0.  0.
    9000005    1    3    3    0    0 -0.32807819539E+02 -0.89392173387E+01 -0.55782304174E+02  0.65337034586E+02  0.10000000000E+01 0.  0.
    9000005    1    3    3    0    0  0.53190756544E+01 -0.10369280175E+02  0.63237773839E+02  0.64310423550E+02  0.10000000000E+01 0.  0.
          4    1    1    2  501    0  0.27488743884E+02  0.19308497513E+02  0.42221682281E+02  0.53969736623E+02  0.12700000000E+01 0.  1.
<mgrwt>
<rscale>  1 0.12943291E+03</rscale>
<asrwt>0</asrwt>
<pdfrwt beam="1">  1       21 0.17944793E-01 0.12943291E+03</pdfrwt>
<pdfrwt beam="2">  1        4 0.10303612E-01 0.12943291E+03</pdfrwt>
<totfact> 0.81774421E+04</totfact>
</mgrwt>
</event>
<event>
 6    4  0.6325740E-003  0.1282451E+03  0.7818608E-02  0.1230083E+00
         -4   -1    0    0    0  501 -0.00000000000E+00  0.00000000000E+00  0.31412643674E+02  0.31438305975E+02  0.12700000000E+01 0.  1.
         21   -1    0    0  501  502  0.00000000000E+00 -0.00000000000E+00 -0.20768831809E+03  0.20768831809E+03  0.00000000000E+00 0.  1.
         25    2    1    2    0    0  0.12739167966E+02 -0.25680574778E+02 -0.16328941963E+03  0.20763005227E+03  0.12500010288E+03 0.  0.
    9000005    1    3    3    0    0 -0.27032628892E+02 -0.56905580312E+02 -0.13663124961E+03  0.15045965062E+03  0.10000000000E+01 0.  0.
    9000005    1    3    3    0    0  0.39771796857E+02  0.31225005533E+02 -0.26658170028E+02  0.57170401652E+02  0.10000000000E+01 0.  0.
         -4    1    1    2    0  502 -0.12739167966E+02  0.25680574778E+02 -0.12986254779E+02  0.31496571791E+02  0.12700000000E+01 0. -1.
<mgrwt>
<rscale>  1 0.12824509E+03</rscale>
<asrwt>0</asrwt>
<pdfrwt beam="2">  1       21 0.31952050E-01 0.12824509E+03</pdfrwt>
<pdfrwt beam="1">  1       -4 0.48349870E-02 0.12824509E+03</pdfrwt>
<totfact> 0.95449607E+04</totfact>
</mgrwt>
</event>
<event>
 6    4  0.6325740E-003  0.1723405E+03  0.7818608E-02  0.1175429E+00
          4   -1    0    0  502    0 -0.00000000000E+00  0.00000000000E+00  0.34829196869E+02  0.34852343601E+02  0.12700000000E+01 0.  1.
         21   -1    0    0  501  502  0.00000000000E+00 -0.00000000000E+00 -0.60811430392E+03  0.60811430392E+03  0.00000000000E+00 0. -1.
         25    2    1    2    0    0 -0.11752506529E+03 -0.16248449847E+02 -0.34888122916E+03  0.38912640957E+03  0.12500038985E+03 0.  0.
    9000005    1    3    3    0    0 -0.21909379153E+02 -0.30567472468E+02 -0.24238271427E+03  0.24528508199E+03  0.10000000000E+01 0.  0.
    9000005    1    3    3    0    0 -0.95615686140E+02  0.14319022621E+02 -0.10649851489E+03  0.14384132758E+03  0.10000000000E+01 0.  0.
          4    1    1    2  501    0  0.11752506529E+03  0.16248449847E+02 -0.22440387789E+03  0.25384023796E+03  0.12700000000E+01 0. -1.
<mgrwt>
<rscale>  1 0.17234051E+03</rscale>
<asrwt>0</asrwt>
<pdfrwt beam="2">  1       21 0.93556047E-01 0.17234051E+03</pdfrwt>
<pdfrwt beam="1">  1        4 0.53602205E-02 0.17234051E+03</pdfrwt>
<totfact> 0.85871858E+03</totfact>
</mgrwt>
</event>
<event>
 6    4  0.6325740E-003  0.1288520E+03  0.7818608E-02  0.1229169E+00
          4   -1    0    0  502    0 -0.00000000000E+00  0.00000000000E+00  0.89735812588E+01  0.90630050540E+01  0.12700000000E+01 0.  1.
         21   -1    0    0  501  502  0.00000000000E+00 -0.00000000000E+00 -0.77908793250E+03  0.77908793250E+03  0.00000000000E+00 0.  1.
         25    2    1    2    0    0 -0.28964978143E+02 -0.11824508792E+02 -0.69378540525E+03  0.70564936264E+03  0.12499618190E+03 0.  0.
    9000005    1    3    3    0    0 -0.53502581787E+01 -0.46080892268E+02 -0.61318223259E+03  0.61493538218E+03  0.10000000000E+01 0.  0.
    9000005    1    3    3    0    0 -0.23614719964E+02  0.34256383475E+02 -0.80603172655E+02  0.90713980454E+02  0.10000000000E+01 0.  0.
          4    1    1    2  501    0  0.28964978143E+02  0.11824508792E+02 -0.76328945990E+02  0.82501574912E+02  0.12700000000E+01 0. -1.
<mgrwt>
<rscale>  1 0.12885199E+03</rscale>
<asrwt>0</asrwt>
<pdfrwt beam="2">  1       21 0.11985973E+00 0.12885199E+03</pdfrwt>
<pdfrwt beam="1">  1        4 0.13875088E-02 0.12885199E+03</pdfrwt>
<totfact> 0.38746225E+04</totfact>
</mgrwt>
</event>
<event>
 6    4  0.6325740E-003  0.1271854E+03  0.7818608E-02  0.1231693E+00
         21   -1    0    0  501  502  0.00000000000E+00  0.00000000000E+00  0.26597463065E+03  0.26597463065E+03  0.00000000000E+00 0. -1.
          4   -1    0    0  502    0 -0.00000000000E+00 -0.00000000000E+00 -0.31695936620E+02  0.31721369741E+02  0.12700000000E+01 0.  1.
         25    2    1    2    0    0  0.59539964801E+01 -0.22716933070E+02  0.10114401760E+03  0.16249997941E+03  0.12499848754E+03 0.  0.
    9000005    1    3    3    0    0 -0.18459695382E+02 -0.70667702651E+02  0.52483949845E+02  0.89945814483E+02  0.10000000000E+01 0.  0.
    9000005    1    3    3    0    0  0.24413691862E+02  0.47950769581E+02  0.48660067755E+02  0.72554164923E+02  0.10000000000E+01 0.  0.
          4    1    1    2  501    0 -0.59539964801E+01  0.22716933070E+02  0.13313467643E+03  0.13519602098E+03  0.12700000000E+01 0. -1.
<mgrwt>
<rscale>  1 0.12718542E+03</rscale>
<asrwt>0</asrwt>
<pdfrwt beam="1">  1       21 0.40919173E-01 0.12718542E+03</pdfrwt>
<pdfrwt beam="2">  1        4 0.48784877E-02 0.12718542E+03</pdfrwt>
<totfact> 0.57703448E+04</totfact>
</mgrwt>
</event>
<event>
 6    4  0.6325740E-003  0.1296204E+03  0.7818608E-02  0.1228020E+00
         21   -1    0    0  501  502  0.00000000000E+00  0.00000000000E+00  0.22595250139E+03  0.22595250139E+03  0.00000000000E+00 0. -1.
         -4   -1    0    0    0  501 -0.00000000000E+00 -0.00000000000E+00 -0.56018872618E+02  0.56033266810E+02  0.12700000000E+01 0.  1.
         25    2    1    2    0    0  0.29873665272E+02 -0.16865634983E+02  0.23690693317E+02  0.13176761154E+03  0.12499827591E+03 0.  0.
    9000005    1    3    3    0    0  0.73522833554E+02 -0.35454186299E+02  0.20732214723E+02  0.84222509505E+02  0.10000000000E+01 0.  0.
    9000005    1    3    3    0    0 -0.43649168283E+02  0.18588551315E+02  0.29584785938E+01  0.47545102033E+02  0.10000000000E+01 0.  0.
         -4    1    1    2    0  502 -0.29873665272E+02  0.16865634983E+02  0.14624293545E+03  0.15021815666E+03  0.12700000000E+01 0. -1.
<mgrwt>
<rscale>  1 0.12962042E+03</rscale>
<asrwt>0</asrwt>
<pdfrwt beam="1">  1       21 0.34761923E-01 0.12962042E+03</pdfrwt>
<pdfrwt beam="2">  1       -4 0.86196700E-02 0.12962042E+03</pdfrwt>
<totfact> 0.31557807E+04</totfact>
</mgrwt>
</event>
<event>
 6    4  0.6325740E-003  0.1287369E+03  0.7818608E-02  0.1229342E+00
         21   -1    0    0  501  502  0.00000000000E+00  0.00000000000E+00  0.66887128122E+02  0.66887128122E+02  0.00000000000E+00 0.  1.
         -4   -1    0    0    0  501 -0.00000000000E+00 -0.00000000000E+00 -0.96027362856E+02  0.96035760616E+02  0.12700000000E+01 0.  1.
         25    2    1    2    0    0 -0.21292269699E+02 -0.22257061041E+02 -0.29582207040E+02  0.13209196668E+03  0.12499777268E+03 0.  0.
    9000005    1    3    3    0    0 -0.26968197885E+02 -0.26860461593E+02 -0.76046364879E+02  0.85045974070E+02  0.10000000000E+01 0.  0.
    9000005    1    3    3    0    0  0.56759281855E+01  0.46034005519E+01  0.46464157840E+02  0.47045992615E+02  0.10000000000E+01 0.  0.
         -4    1    1    2    0  502  0.21292269699E+02  0.22257061041E+02  0.44197230577E+00  0.30830922053E+02  0.12700000000E+01 0. -1.
<mgrwt>
<rscale>  1 0.12873687E+03</rscale>
<asrwt>0</asrwt>
<pdfrwt beam="1">  1       21 0.10290327E-01 0.12873687E+03</pdfrwt>
<pdfrwt beam="2">  1       -4 0.14775014E-01 0.12873687E+03</pdfrwt>
<totfact> 0.11919317E+05</totfact>
</mgrwt>
</event>
<event>
 6    4  0.6325740E-003  0.1324404E+03  0.7818608E-02  0.1223879E+00
          4   -1    0    0  502    0 -0.00000000000E+00  0.00000000000E+00  0.43885126961E+02  0.43903499500E+02  0.12700000000E+01 0. -1.
         21   -1    0    0  501  502  0.00000000000E+00 -0.00000000000E+00 -0.24899925542E+03  0.24899925542E+03  0.00000000000E+00 0. -1.
         25    2    1    2    0    0  0.29556392438E+02  0.32277783470E+02 -0.67818129044E+02  0.14879432354E+03  0.12500006580E+03 0.  0.
    9000005    1    3    3    0    0  0.50662376764E+02  0.66093566893E+02 -0.70095354609E+02  0.10885492521E+03  0.10000000000E+01 0.  0.
    9000005    1    3    3    0    0 -0.21105984326E+02 -0.33815783423E+02  0.22772255654E+01  0.39939398332E+02  0.10000000000E+01 0.  0.
          4    1    1    2  501    0 -0.29556392438E+02 -0.32277783470E+02 -0.13729599942E+03  0.14410843138E+03  0.12700000000E+01 0.  1.
<mgrwt>
<rscale>  1 0.13244037E+03</rscale>
<asrwt>0</asrwt>
<pdfrwt beam="2">  1       21 0.38307578E-01 0.13244037E+03</pdfrwt>
<pdfrwt beam="1">  1        4 0.67532204E-02 0.13244037E+03</pdfrwt>
<totfact> 0.39053395E+04</totfact>
</mgrwt>
</event>
<event>
 6    4  0.6325740E-003  0.1359219E+03  0.7818608E-02  0.1218924E+00
         21   -1    0    0  501  502  0.00000000000E+00  0.00000000000E+00  0.19264782600E+03  0.19264782600E+03  0.00000000000E+00 0. -1.
          4   -1    0    0  502    0 -0.00000000000E+00 -0.00000000000E+00 -0.14597680522E+03  0.14598232962E+03  0.12700000000E+01 0.  1.
         25    2    1    2    0    0  0.51274296537E+02 -0.14871361205E+02 -0.10888861959E+03  0.17415941208E+03  0.12499823386E+03 0.  0.
    9000005    1    3    3    0    0 -0.16163980314E+02  0.27260813312E+02 -0.85617609248E+02  0.91300609063E+02  0.10000000000E+01 0.  0.
    9000005    1    3    3    0    0  0.67438276851E+02 -0.42132174517E+02 -0.23271010345E+02  0.82858803012E+02  0.10000000000E+01 0.  0.
          4    1    1    2  501    0 -0.51274296537E+02  0.14871361205E+02  0.15555964038E+03  0.16447074355E+03  0.12700000000E+01 0. -1.
<mgrwt>
<rscale>  1 0.13592192E+03</rscale>
<asrwt>0</asrwt>
<pdfrwt beam="1">  1       21 0.29638127E-01 0.13592192E+03</pdfrwt>
<pdfrwt beam="2">  1        4 0.22458717E-01 0.13592192E+03</pdfrwt>
<totfact> 0.81953590E+03</totfact>
</mgrwt>
</event>
<event>
 6    4  0.6325740E-003  0.1282537E+03  0.7818608E-02  0.1230070E+00
          4   -1    0    0  502    0 -0.00000000000E+00  0.00000000000E+00  0.41345006112E+02  0.41364506891E+02  0.12700000000E+01 0. -1.
         21   -1    0    0  501  502  0.00000000000E+00 -0.00000000000E+00 -0.15540014488E+03  0.15540014488E+03  0.00000000000E+00 0. -1.
         25    2    1    2    0    0 -0.28705243693E+02 -0.67761506391E+00 -0.76017513752E+02  0.14908945912E+03  0.12499821697E+03 0.  0.
    9000005    1    3    3    0    0  0.29622350608E+02 -0.33125148669E+02 -0.68851567357E+02  0.81953019819E+02  0.10000000000E+01 0.  0.
    9000005    1    3    3    0    0 -0.58327594301E+02  0.32447533605E+02 -0.71659463945E+01  0.67136439298E+02  0.10000000000E+01 0.  0.
          4    1    1    2  501    0  0.28705243693E+02  0.67761506391E+00 -0.38037625012E+02  0.47675192650E+02  0.12700000000E+01 0.  1.
<mgrwt>
<rscale>  1 0.12825367E+03</rscale>
<asrwt>0</asrwt>
<pdfrwt beam="2">  1       21 0.23907714E-01 0.12825367E+03</pdfrwt>
<pdfrwt beam="1">  1        4 0.63626696E-02 0.12825367E+03</pdfrwt>
<totfact> 0.10661548E+05</totfact>
</mgrwt>
</event>
<event>
 6    4  0.6325740E-003  0.1276956E+03  0.7818608E-02  0.1230916E+00
         21   -1    0    0  501  502  0.00000000000E+00  0.00000000000E+00  0.10071169675E+03  0.10071169675E+03  0.00000000000E+00 0.  1.
         -4   -1    0    0    0  501 -0.00000000000E+00 -0.00000000000E+00 -0.27754184653E+03  0.27754475220E+03  0.12700000000E+01 0. -1.
         25    2    1    2    0    0 -0.26225605338E+02 -0.14964653366E+01 -0.26073557908E+03  0.29032604607E+03  0.12496459116E+03 0.  0.
    9000005    1    3    3    0    0 -0.41665065251E+02  0.31640013850E+02 -0.24497984116E+03  0.25050586961E+03  0.10000000000E+01 0.  0.
    9000005    1    3    3    0    0  0.15439459913E+02 -0.33136479187E+02 -0.15755737925E+02  0.39820176454E+02  0.10000000000E+01 0.  0.
         -4    1    1    2    0  502  0.26225605338E+02  0.14964653366E+01  0.83905429308E+02  0.87930402884E+02  0.12700000000E+01 0.  1.
<mgrwt>
<rscale>  1 0.12769562E+03</rscale>
<asrwt>0</asrwt>
<pdfrwt beam="1">  1       21 0.15494107E-01 0.12769562E+03</pdfrwt>
<pdfrwt beam="2">  1       -4 0.42699584E-01 0.12769562E+03</pdfrwt>
<totfact> 0.80635673E+03</totfact>
</mgrwt>
</event>
<event>
 6    4  0.6325740E-003  0.1270646E+03  0.7818608E-02  0.1231877E+00
          4   -1    0    0  502    0 -0.00000000000E+00  0.00000000000E+00  0.34146461372E+02  0.34170070592E+02  0.12700000000E+01 0. -1.
         21   -1    0    0  501  502  0.00000000000E+00 -0.00000000000E+00 -0.19727691866E+03  0.19727691866E+03  0.00000000000E+00 0. -1.
         25    2    1    2    0    0  0.22264116274E+02 -0.50666178115E+01 -0.92392683819E+02  0.15710449141E+03  0.12499620678E+03 0.  0.
    9000005    1    3    3    0    0  0.50065864585E+02 -0.48821406895E+02 -0.74675587261E+02  0.10231111328E+03  0.10000000000E+01 0.  0.
    9000005    1    3    3    0    0 -0.27801748311E+02  0.43754789083E+02 -0.17717096558E+02  0.54793378134E+02  0.10000000000E+01 0.  0.
          4    1    1    2  501    0 -0.22264116274E+02  0.50666178115E+01 -0.70737773474E+02  0.74342497843E+02  0.12700000000E+01 0.  1.
<mgrwt>
<rscale>  1 0.12706460E+03</rscale>
<asrwt>0</asrwt>
<pdfrwt beam="2">  1       21 0.30350295E-01 0.12706460E+03</pdfrwt>
<pdfrwt beam="1">  1        4 0.52554324E-02 0.12706460E+03</pdfrwt>
<totfact> 0.92115709E+04</totfact>
</mgrwt>
</event>
<event>
 6    4  0.6325740E-003  0.1268172E+03  0.7818608E-02  0.1232256E+00
          4   -1    0    0  502    0 -0.00000000000E+00  0.00000000000E+00  0.75916253800E+02  0.75926875946E+02  0.12700000000E+01 0. -1.
         21   -1    0    0  501  502  0.00000000000E+00 -0.00000000000E+00 -0.73185582619E+02  0.73185582619E+02  0.00000000000E+00 0. -1.
         25    2    1    2    0    0  0.33873021308E+01 -0.21192609896E+02 -0.30354020802E+01  0.12685350462E+03  0.12498798918E+03 0.  0.
    9000005    1    3    3    0    0 -0.90377045871E+01 -0.54828660883E+02 -0.45097410306E+02  0.71572610507E+02  0.10000000000E+01 0.  0.
    9000005    1    3    3    0    0  0.12425006718E+02  0.33636050987E+02  0.42062008225E+02  0.55280894112E+02  0.10000000000E+01 0.  0.
          4    1    1    2  501    0 -0.33873021308E+01  0.21192609896E+02  0.57660732605E+01  0.22258953947E+02  0.12700000000E+01 0.  1.
<mgrwt>
<rscale>  1 0.12681718E+03</rscale>
<asrwt>0</asrwt>
<pdfrwt beam="2">  1       21 0.11259320E-01 0.12681718E+03</pdfrwt>
<pdfrwt beam="1">  1        4 0.11681088E-01 0.12681718E+03</pdfrwt>
<totfact> 0.15217633E+05</totfact>
</mgrwt>
</event>
<event>
 6    4  0.6325740E-003  0.1280526E+03  0.7818608E-02  0.1230374E+00
          4   -1    0    0  502    0 -0.00000000000E+00  0.00000000000E+00  0.72343967473E+02  0.72355114054E+02  0.12700000000E+01 0.  1.
         21   -1    0    0  501  502  0.00000000000E+00 -0.00000000000E+00 -0.91574296203E+02  0.91574296203E+02  0.00000000000E+00 0.  1.
         25    2    1    2    0    0  0.24063785017E+02 -0.13889260081E+02  0.33615247877E+01  0.12809671513E+03  0.12500196511E+03 0.  0.
    9000005    1    3    3    0    0 -0.66371772732E+01 -0.62997548883E+02  0.22286327667E+02  0.67159687970E+02  0.10000000000E+01 0.  0.
    9000005    1    3    3    0    0  0.30700962290E+02  0.49108288802E+02 -0.18924802879E+02  0.60937027156E+02  0.10000000000E+01 0.  0.
          4    1    1    2  501    0 -0.24063785017E+02  0.13889260081E+02 -0.22591853517E+02  0.35832695130E+02  0.12700000000E+01 0. -1.
<mgrwt>
<rscale>  1 0.12805260E+03</rscale>
<asrwt>0</asrwt>
<pdfrwt beam="2">  1       21 0.14088353E-01 0.12805260E+03</pdfrwt>
<pdfrwt beam="1">  1        4 0.11131376E-01 0.12805260E+03</pdfrwt>
<totfact> 0.11104938E+05</totfact>
</mgrwt>
</event>
<event>
 6    4  0.6325740E-003  0.1298510E+03  0.7818608E-02  0.1227677E+00
          4   -1    0    0  502    0 -0.00000000000E+00  0.00000000000E+00  0.14023808565E+03  0.14024383611E+03  0.12700000000E+01 0.  1.
         21   -1    0    0  501  502  0.00000000000E+00 -0.00000000000E+00 -0.64411628533E+02  0.64411628533E+02  0.00000000000E+00 0. -1.
         25    2    1    2    0    0  0.31613345613E+02  0.15381287020E+02  0.98341897336E+02  0.16288770723E+03  0.12500115513E+03 0.  0.
    9000005    1    3    3    0    0  0.38569603576E+02  0.63509237301E+02  0.84058031681E+02  0.11219532180E+03  0.10000000000E+01 0.  0.
    9000005    1    3    3    0    0 -0.69562579634E+01 -0.48127950280E+02  0.14283865655E+02  0.50692385435E+02  0.10000000000E+01 0.  0.
          4    1    1    2  501    0 -0.31613345613E+02 -0.15381287020E+02 -0.22515440218E+02  0.41767757414E+02  0.12700000000E+01 0. -1.
<mgrwt>
<rscale>  1 0.12985098E+03</rscale>
<asrwt>0</asrwt>
<pdfrwt beam="2">  1       21 0.99094814E-02 0.12985098E+03</pdfrwt>
<pdfrwt beam="1">  1        4 0.21576495E-01 0.12985098E+03</pdfrwt>
<totfact> 0.65075977E+04</totfact>
</mgrwt>
</event>
<event>
 6    4  0.6325740E-003  0.1635967E+03  0.7818608E-02  0.1184695E+00
          4   -1    0    0  502    0 -0.00000000000E+00  0.00000000000E+00  0.11087848592E+04  0.11087855865E+04  0.12700000000E+01 0. -1.
         21   -1    0    0  501  502  0.00000000000E+00 -0.00000000000E+00 -0.18193863592E+02  0.18193863592E+02  0.00000000000E+00 0.  1.
         25    2    1    2    0    0  0.97865276922E+02 -0.39494232048E+02  0.82734455047E+03  0.84336402288E+03  0.12500585224E+03 0.  0.
    9000005    1    3    3    0    0  0.47033871533E+02  0.25929904245E+02  0.12372728252E+03  0.13488508237E+03  0.10000000000E+01 0.  0.
    9000005    1    3    3    0    0  0.50831405389E+02 -0.65424136293E+02  0.70361726795E+03  0.70847894051E+03  0.10000000000E+01 0.  0.
          4    1    1    2  501    0 -0.97865276922E+02  0.39494232048E+02  0.26324644510E+03  0.28361542720E+03  0.12700000000E+01 0.  1.
<mgrwt>
<rscale>  1 0.16359667E+03</rscale>
<asrwt>0</asrwt>
<pdfrwt beam="2">  1       21 0.27990568E-02 0.16359667E+03</pdfrwt>
<pdfrwt beam="1">  1        4 0.17058570E+00 0.16359667E+03</pdfrwt>
<totfact> 0.66929836E+03</totfact>
</mgrwt>
</event>
<event>
 6    4  0.6325740E-003  0.1294280E+03  0.7818608E-02  0.1228307E+00
         21   -1    0    0  501  502  0.00000000000E+00  0.00000000000E+00  0.48300874039E+03  0.48300874039E+03  0.00000000000E+00 0. -1.
          4   -1    0    0  502    0 -0.00000000000E+00 -0.00000000000E+00 -0.23296500449E+02  0.23331091556E+02  0.12700000000E+01 0. -1.
         25    2    1    2    0    0  0.14970186581E+02 -0.30040990056E+02  0.16493371914E+03  0.20965387543E+03  0.12500019281E+03 0.  0.
    9000005    1    3    3    0    0  0.60062785693E+02 -0.56266889780E+01  0.34505306454E+02  0.69504057633E+02  0.10000000000E+01 0.  0.
    9000005    1    3    3    0    0 -0.45092599112E+02 -0.24414301078E+02  0.13042841269E+03  0.14014981780E+03  0.10000000000E+01 0.  0.
          4    1    1    2  501    0 -0.14970186581E+02  0.30040990056E+02  0.29477852080E+03  0.29668595652E+03  0.12700000000E+01 0.  1.
<mgrwt>
<rscale>  1 0.12942803E+03</rscale>
<asrwt>0</asrwt>
<pdfrwt beam="1">  1       21 0.74309029E-01 0.12942803E+03</pdfrwt>
<pdfrwt beam="2">  1        4 0.35868667E-02 0.12942803E+03</pdfrwt>
<totfact> 0.26970079E+04</totfact>
</mgrwt>
</event>
<event>
 6    4  0.6325740E-003  0.1543156E+03  0.7818608E-02  0.1195268E+00
         -4   -1    0    0    0  501 -0.00000000000E+00  0.00000000000E+00  0.26347248924E+03  0.26347555007E+03  0.12700000000E+01 0.  1.
         21   -1    0    0  501  502  0.00000000000E+00 -0.00000000000E+00 -0.80743414185E+02  0.80743414185E+02  0.00000000000E+00 0. -1.
         25    2    1    2    0    0  0.86825991806E+02 -0.25350335864E+02  0.19950024343E+03  0.25221745683E+03  0.12502762102E+03 0.  0.
    9000005    1    3    3    0    0  0.31972090105E+01 -0.56885052953E+01  0.15559344025E+03  0.15573342572E+03  0.10000000000E+01 0.  0.
    9000005    1    3    3    0    0  0.83628782795E+02 -0.19661830568E+02  0.43906803177E+02  0.96484031105E+02  0.10000000000E+01 0.  0.
         -4    1    1    2    0  502 -0.86825991806E+02  0.25350335864E+02 -0.16771168372E+02  0.92001507433E+02  0.12700000000E+01 0. -1.
<mgrwt>
<rscale>  1 0.15431558E+03</rscale>
<asrwt>0</asrwt>
<pdfrwt beam="2">  1       21 0.12422064E-01 0.15431558E+03</pdfrwt>
<pdfrwt beam="1">  1       -4 0.40535232E-01 0.15431558E+03</pdfrwt>
<totfact> 0.13508099E+04</totfact>
</mgrwt>
</event>
<event>
 6    4  0.6325740E-003  0.1268545E+03  0.7818608E-02  0.1232199E+00
         21   -1    0    0  501  502  0.00000000000E+00  0.00000000000E+00  0.33090075772E+02  0.33090075772E+02  0.00000000000E+00 0.  1.
         -4   -1    0    0    0  501 -0.00000000000E+00 -0.00000000000E+00 -0.17624206948E+03  0.17624664523E+03  0.12700000000E+01 0.  1.
         25    2    1    2    0    0  0.10426517457E+02 -0.18921733170E+02 -0.10174966537E+03  0.16261938007E+03  0.12500129646E+03 0.  0.
    9000005    1    3    3    0    0 -0.33046838999E+02  0.24217701680E+02 -0.91840772730E+02  0.10056996658E+03  0.10000000000E+01 0.  0.
    9000005    1    3    3    0    0  0.43473356455E+02 -0.43139434849E+02 -0.99088926428E+01  0.62049413487E+02  0.10000000000E+01 0.  0.
         -4    1    1    2    0  502 -0.10426517457E+02  0.18921733170E+02 -0.41402328335E+02  0.46717340935E+02  0.12700000000E+01 0. -1.
<mgrwt>
<rscale>  1 0.12685452E+03</rscale>
<asrwt>0</asrwt>
<pdfrwt beam="1">  1       21 0.50907809E-02 0.12685452E+03</pdfrwt>
<pdfrwt beam="2">  1       -4 0.27116391E-01 0.12685452E+03</pdfrwt>
<totfact> 0.13336858E+05</totfact>
</mgrwt>
</event>
<event>
 6    4  0.6325740E-003  0.1271314E+03  0.7818608E-02  0.1231775E+00
         21   -1    0    0  501  502  0.00000000000E+00  0.00000000000E+00  0.49980831173E+03  0.49980831173E+03  0.00000000000E+00 0.  1.
         -4   -1    0    0    0  501 -0.00000000000E+00 -0.00000000000E+00 -0.11312109446E+02  0.11383177067E+02  0.12700000000E+01 0.  1.
         25    2    1    2    0    0 -0.83438876835E+01 -0.21620091627E+02  0.42383019523E+03  0.44248665496E+03  0.12500142643E+03 0.  0.
    9000005    1    3    3    0    0  0.25416919640E+02 -0.63091256113E+02  0.17045198520E+03  0.18352494561E+03  0.10000000000E+01 0.  0.
    9000005    1    3    3    0    0 -0.33760807323E+02  0.41471164486E+02  0.25337821002E+03  0.25896170935E+03  0.10000000000E+01 0.  0.
         -4    1    1    2    0  502  0.83438876835E+01  0.21620091627E+02  0.64666007060E+02  0.68704833838E+02  0.12700000000E+01 0. -1.
<mgrwt>
<rscale>  1 0.12713145E+03</rscale>
<asrwt>0</asrwt>
<pdfrwt beam="1">  1       21 0.76893569E-01 0.12713145E+03</pdfrwt>
<pdfrwt beam="2">  1       -4 0.17459158E-02 0.12713145E+03</pdfrwt>
<totfact> 0.76365494E+04</totfact>
</mgrwt>
</event>
<event>
 6    4  0.6325740E-003  0.1325886E+03  0.7818608E-02  0.1223664E+00
         21   -1    0    0  501  502  0.00000000000E+00  0.00000000000E+00  0.68424357242E+03  0.68424357242E+03  0.00000000000E+00 0. -1.
         -4   -1    0    0    0  501 -0.00000000000E+00 -0.00000000000E+00 -0.12025095338E+02  0.12091973283E+02  0.12700000000E+01 0. -1.
         25    2    1    2    0    0  0.19028049523E+02  0.39915225051E+02  0.42538783072E+03  0.44557216571E+03  0.12499782589E+03 0.  0.
    9000005    1    3    3    0    0 -0.19338263903E+02 -0.37452780468E+02  0.92367899388E+02  0.10153574766E+03  0.10000000000E+01 0.  0.
    9000005    1    3    3    0    0  0.38366313425E+02  0.77368005519E+02  0.33301993133E+03  0.34403641805E+03  0.10000000000E+01 0.  0.
         -4    1    1    2    0  502 -0.19028049523E+02 -0.39915225051E+02  0.24683064637E+03  0.25076337999E+03  0.12700000000E+01 0.  1.
<mgrwt>
<rscale>  1 0.13258864E+03</rscale>
<asrwt>0</asrwt>
<pdfrwt beam="1">  1       21 0.10526821E+00 0.13258864E+03</pdfrwt>
<pdfrwt beam="2">  1       -4 0.18552503E-02 0.13258864E+03</pdfrwt>
<totfact> 0.34034028E+04</totfact>
</mgrwt>
</event>
<event>
 6    4  0.6325740E-003  0.1525350E+03  0.7818608E-02  0.1197392E+00
         -4   -1    0    0    0  501 -0.00000000000E+00  0.00000000000E+00  0.45880718772E+03  0.45880894543E+03  0.12700000000E+01 0. -1.
         21   -1    0    0  501  502  0.00000000000E+00 -0.00000000000E+00 -0.33825792913E+02  0.33825792913E+02  0.00000000000E+00 0.  1.
         25    2    1    2    0    0 -0.85335985136E+02  0.18962849139E+02  0.32996779461E+03  0.36351844530E+03  0.12500037834E+03 0.  0.
    9000005    1    3    3    0    0 -0.97195136964E+02  0.44700427890E+02  0.16861071276E+03  0.19968874620E+03  0.10000000000E+01 0.  0.
    9000005    1    3    3    0    0  0.11859151827E+02 -0.25737578752E+02  0.16135708185E+03  0.16382969909E+03  0.10000000000E+01 0.  0.
         -4    1    1    2    0  502  0.85335985136E+02 -0.18962849139E+02  0.95013600201E+02  0.12911629305E+03  0.12700000000E+01 0.  1.
<mgrwt>
<rscale>  1 0.15253496E+03</rscale>
<asrwt>0</asrwt>
<pdfrwt beam="2">  1       21 0.52039685E-02 0.15253496E+03</pdfrwt>
<pdfrwt beam="1">  1       -4 0.70587686E-01 0.15253496E+03</pdfrwt>
<totfact> 0.19375352E+04</totfact>
</mgrwt>
</event>
<event>
 6    4  0.6325740E-003  0.1265915E+03  0.7818608E-02  0.1232603E+00
          4   -1    0    0  502    0 -0.00000000000E+00  0.00000000000E+00  0.12329522350E+03  0.12330176413E+03  0.12700000000E+01 0.  1.
         21   -1    0    0  501  502  0.00000000000E+00 -0.00000000000E+00 -0.56067105481E+02  0.56067105481E+02  0.00000000000E+00 0. -1.
         25    2    1    2    0    0  0.14740081709E+02  0.13604469456E+02  0.85048235847E+02  0.15250772486E+03  0.12499220825E+03 0.  0.
    9000005    1    3    3    0    0 -0.39305624780E+02 -0.72843687238E+01  0.85681879240E+02  0.94553575274E+02  0.10000000000E+01 0.  0.
    9000005    1    3    3    0    0  0.54045706489E+02  0.20888838179E+02 -0.63364339314E+00  0.57954149587E+02  0.10000000000E+01 0.  0.
          4    1    1    2  501    0 -0.14740081709E+02 -0.13604469456E+02 -0.17820117828E+02  0.26861144751E+02  0.12700000000E+01 0. -1.
<mgrwt>
<rscale>  1 0.12659148E+03</rscale>
<asrwt>0</asrwt>
<pdfrwt beam="2">  1       21 0.86257086E-02 0.12659148E+03</pdfrwt>
<pdfrwt beam="1">  1        4 0.18970105E-01 0.12659148E+03</pdfrwt>
<totfact> 0.10406931E+05</totfact>
</mgrwt>
</event>
<event>
 6    4  0.6325740E-003  0.1277754E+03  0.7818608E-02  0.1230794E+00
         21   -1    0    0  501  502  0.00000000000E+00  0.00000000000E+00  0.15187322009E+02  0.15187322009E+02  0.00000000000E+00 0.  1.
          4   -1    0    0  502    0 -0.00000000000E+00 -0.00000000000E+00 -0.10389052883E+04  0.10389060646E+04  0.12700000000E+01 0. -1.
         25    2    1    2    0    0 -0.77435904621E+01  0.25325645603E+02 -0.10192235919E+04  0.10272016812E+04  0.12500084772E+03 0.  0.
    9000005    1    3    3    0    0 -0.44273009169E+02  0.92298459659E+01 -0.14116877316E+03  0.14823937369E+03  0.10000000000E+01 0.  0.
    9000005    1    3    3    0    0  0.36529418707E+02  0.16095799637E+02 -0.87805481879E+03  0.87896230749E+03  0.10000000000E+01 0.  0.
          4    1    1    2  501    0  0.77435904621E+01 -0.25325645603E+02 -0.44943743739E+01  0.26891705403E+02  0.12700000000E+01 0.  1.
<mgrwt>
<rscale>  1 0.12777544E+03</rscale>
<asrwt>0</asrwt>
<pdfrwt beam="1">  1       21 0.23365108E-02 0.12777544E+03</pdfrwt>
<pdfrwt beam="2">  1        4 0.15983575E+00 0.12777544E+03</pdfrwt>
<totfact> 0.10472295E+04</totfact>
</mgrwt>
</event>
<event>
 6    4  0.6325740E-003  0.1481380E+03  0.7818608E-02  0.1202780E+00
         -4   -1    0    0    0  501 -0.00000000000E+00  0.00000000000E+00  0.23612359700E+03  0.23612701235E+03  0.12700000000E+01 0. -1.
         21   -1    0    0  501  502  0.00000000000E+00 -0.00000000000E+00 -0.23483004259E+03  0.23483004259E+03  0.00000000000E+00 0.  1.
         25    2    1    2    0    0  0.51956397761E+02 -0.60121520263E+02  0.20464108173E+03  0.25263185202E+03  0.12502326125E+03 0.  0.
    9000005    1    3    3    0    0 -0.18295004552E+02 -0.62936515645E+02  0.14961898971E+03  0.16334795461E+03  0.10000000000E+01 0.  0.
    9000005    1    3    3    0    0  0.70251402313E+02  0.28149953823E+01  0.55022092021E+02  0.89283897408E+02  0.10000000000E+01 0.  0.
         -4    1    1    2    0  502 -0.51956397761E+02  0.60121520263E+02 -0.20334752731E+03  0.21832520292E+03  0.12700000000E+01 0.  1.
<mgrwt>
<rscale>  1 0.14813804E+03</rscale>
<asrwt>0</asrwt>
<pdfrwt beam="2">  1       21 0.36127699E-01 0.14813804E+03</pdfrwt>
<pdfrwt beam="1">  1       -4 0.36327234E-01 0.14813804E+03</pdfrwt>
<totfact> 0.22643067E+03</totfact>
</mgrwt>
</event>
<event>
 6    4  0.6325740E-003  0.1266547E+03  0.7818608E-02  0.1232506E+00
         21   -1    0    0  501  502  0.00000000000E+00  0.00000000000E+00  0.38132911629E+03  0.38132911629E+03  0.00000000000E+00 0. -1.
         -4   -1    0    0    0  501 -0.00000000000E+00 -0.00000000000E+00 -0.43586908914E+02  0.43605407104E+02  0.12700000000E+01 0.  1.
         25    2    1    2    0    0  0.16064860564E+02 -0.12553273254E+02  0.49523162578E+02  0.13599249617E+03  0.12500300383E+03 0.  0.
    9000005    1    3    3    0    0  0.33607413799E+02 -0.35609554831E+02 -0.25749264367E+02  0.55331033544E+02  0.10000000000E+01 0.  0.
    9000005    1    3    3    0    0 -0.17542553235E+02  0.23056281577E+02  0.75272426946E+02  0.80661462623E+02  0.10000000000E+01 0.  0.
         -4    1    1    2    0  502 -0.16064860564E+02  0.12553273254E+02  0.28821904479E+03  0.28894202722E+03  0.12700000000E+01 0. -1.
<mgrwt>
<rscale>  1 0.12665471E+03</rscale>
<asrwt>0</asrwt>
<pdfrwt beam="1">  1       21 0.58666016E-01 0.12665471E+03</pdfrwt>
<pdfrwt beam="2">  1       -4 0.67072641E-02 0.12665471E+03</pdfrwt>
<totfact> 0.16421241E+04</totfact>
</mgrwt>
</event>
<event>
 6    4  0.6325740E-003  0.1271178E+03  0.7818608E-02  0.1231796E+00
         21   -1    0    0  501  502  0.00000000000E+00  0.00000000000E+00  0.63940498476E+01  0.63940498476E+01  0.00000000000E+00 0. -1.
         -4   -1    0    0    0  501 -0.00000000000E+00 -0.00000000000E+00 -0.95499540494E+03  0.95499624939E+03  0.12700000000E+01 0. -1.
         25    2    1    2    0    0  0.13346759829E+02  0.18868385452E+02 -0.87636001859E+03  0.88553138041E+03  0.12499916612E+03 0.  0.
    9000005    1    3    3    0    0  0.15373343512E+01  0.69426728632E+02 -0.62612261696E+03  0.62996266994E+03  0.10000000000E+01 0.  0.
    9000005    1    3    3    0    0  0.11809425478E+02 -0.50558343180E+02 -0.25023740163E+03  0.25556871047E+03  0.10000000000E+01 0.  0.
         -4    1    1    2    0  502 -0.13346759829E+02 -0.18868385452E+02 -0.72241336497E+02  0.75858918832E+02  0.12700000000E+01 0.  1.
<mgrwt>
<rscale>  1 0.12711783E+03</rscale>
<asrwt>0</asrwt>
<pdfrwt beam="1">  1       21 0.98370034E-03 0.12711783E+03</pdfrwt>
<pdfrwt beam="2">  1       -4 0.14693208E+00 0.12711783E+03</pdfrwt>
<totfact> 0.51714382E+04</totfact>
</mgrwt>
</event>
<event>
 6    4  0.6325740E-003  0.1532287E+03  0.7818608E-02  0.1196561E+00
         -4   -1    0    0    0  501 -0.00000000000E+00  0.00000000000E+00  0.44703834716E+03  0.44704015114E+03  0.12700000000E+01 0.  1.
         21   -1    0    0  501  502  0.00000000000E+00 -0.00000000000E+00 -0.35104376518E+02  0.35104376518E+02  0.00000000000E+00 0.  1.
         25    2    1    2    0    0  0.14724529891E+02 -0.87393857558E+02  0.31801754882E+03  0.35300737070E+03  0.12499817716E+03 0.  0.
    9000005    1    3    3    0    0  0.16650293461E+02 -0.96731967149E+02  0.12123361628E+03  0.15599004922E+03  0.10000000000E+01 0.  0.
    9000005    1    3    3    0    0 -0.19257635699E+01  0.93381095905E+01  0.19678393254E+03  0.19701732148E+03  0.10000000000E+01 0.  0.
         -4    1    1    2    0  502 -0.14724529891E+02  0.87393857558E+02  0.93916421831E+02  0.12913715696E+03  0.12700000000E+01 0. -1.
<mgrwt>
<rscale>  1 0.15322873E+03</rscale>
<asrwt>0</asrwt>
<pdfrwt beam="2">  1       21 0.54006736E-02 0.15322873E+03</pdfrwt>
<pdfrwt beam="1">  1       -4 0.68777032E-01 0.15322873E+03</pdfrwt>
<totfact> 0.19256978E+04</totfact>
</mgrwt>
</event>
<event>
 6    4  0.6325740E-003  0.1285037E+03  0.7818608E-02  0.1229693E+00
         21   -1    0    0  501  502  0.00000000000E+00  0.00000000000E+00  0.33209180338E+01  0.33209180338E+01  0.00000000000E+00 0.  1.
         -4   -1    0    0    0  501 -0.00000000000E+00 -0.00000000000E+00 -0.19136341205E+04  0.19136345420E+04  0.12700000000E+01 0.  1.
         25    2    1    2    0    0  0.19113378004E+02  0.22882675750E+02 -0.16302724753E+04  0.16353291831E+04  0.12499702065E+03 0.  0.
    9000005    1    3    3    0    0 -0.42298350897E+02 -0.18062744725E+02 -0.36218450118E+03  0.36509454410E+03  0.10000000000E+01 0.  0.
    9000005    1    3    3    0    0  0.61411728901E+02  0.40945420475E+02 -0.12680879742E+04  0.12702346390E+04  0.10000000000E+01 0.  0.
         -4    1    1    2    0  502 -0.19113378004E+02 -0.22882675750E+02 -0.28004072717E+03  0.28162627690E+03  0.12700000000E+01 0. -1.
<mgrwt>
<rscale>  1 0.12850367E+03</rscale>
<asrwt>0</asrwt>
<pdfrwt beam="1">  1       21 0.51091113E-03 0.12850367E+03</pdfrwt>
<pdfrwt beam="2">  1       -4 0.29442358E+00 0.12850367E+03</pdfrwt>
<totfact> 0.17738206E+04</totfact>
</mgrwt>
</event>
<event>
 6    4  0.6325740E-003  0.1334455E+03  0.7818608E-02  0.1222431E+00
          4   -1    0    0  502    0 -0.00000000000E+00  0.00000000000E+00  0.46726035735E+03  0.46726208326E+03  0.12700000000E+01 0.  1.
         21   -1    0    0  501  502  0.00000000000E+00 -0.00000000000E+00 -0.52303070795E+02  0.52303070795E+02  0.00000000000E+00 0. -1.
         25    2    1    2    0    0  0.44181141553E+01 -0.46503142652E+02  0.44462119990E+03  0.46421515257E+03  0.12500253782E+03 0.  0.
    9000005    1    3    3    0    0 -0.75136964884E+01 -0.21921041394E+02  0.49783188938E+01  0.23722802316E+02  0.10000000000E+01 0.  0.
    9000005    1    3    3    0    0  0.11931810644E+02 -0.24582101258E+02  0.43964288101E+03  0.44049235025E+03  0.10000000000E+01 0.  0.
          4    1    1    2  501    0 -0.44181141553E+01  0.46503142652E+02 -0.29663913348E+02  0.55350001485E+02  0.12700000000E+01 0. -1.
<mgrwt>
<rscale>  1 0.13344548E+03</rscale>
<asrwt>0</asrwt>
<pdfrwt beam="2">  1       21 0.80466266E-02 0.13344548E+03</pdfrwt>
<pdfrwt beam="1">  1        4 0.71887525E-01 0.13344548E+03</pdfrwt>
<totfact> 0.87401424E+03</totfact>
</mgrwt>
</event>
<event>
 6    4  0.6325740E-003  0.1268594E+03  0.7818608E-02  0.1232192E+00
         21   -1    0    0  501  502  0.00000000000E+00  0.00000000000E+00  0.15273024282E+02  0.15273024282E+02  0.00000000000E+00 0.  1.
          4   -1    0    0  502    0 -0.00000000000E+00 -0.00000000000E+00 -0.67448180950E+03  0.67448300516E+03  0.12700000000E+01 0. -1.
         25    2    1    2    0    0  0.11042085311E+02  0.18684112048E+02 -0.65554785524E+03  0.66770973725E+03  0.12498911557E+03 0.  0.
    9000005    1    3    3    0    0 -0.57163080556E+02  0.92866947213E+01 -0.31145368614E+03  0.31679371693E+03  0.10000000000E+01 0.  0.
    9000005    1    3    3    0    0  0.68205165866E+02  0.93974173264E+01 -0.34409416911E+03  0.35091602032E+03  0.10000000000E+01 0.  0.
          4    1    1    2  501    0 -0.11042085311E+02 -0.18684112048E+02 -0.36609299722E+01  0.22046292189E+02  0.12700000000E+01 0.  1.
<mgrwt>
<rscale>  1 0.12685938E+03</rscale>
<asrwt>0</asrwt>
<pdfrwt beam="1">  1       21 0.23496958E-02 0.12685938E+03</pdfrwt>
<pdfrwt beam="2">  1        4 0.10377060E+00 0.12685938E+03</pdfrwt>
<totfact> 0.29826599E+04</totfact>
</mgrwt>
</event>
<event>
 6    4  0.6325740E-003  0.1272541E+03  0.7818608E-02  0.1231588E+00
         -4   -1    0    0    0  501 -0.00000000000E+00  0.00000000000E+00  0.14050202085E+02  0.14107483072E+02  0.12700000000E+01 0. -1.
         21   -1    0    0  501  502  0.00000000000E+00 -0.00000000000E+00 -0.44049689333E+03  0.44049689333E+03  0.00000000000E+00 0. -1.
         25    2    1    2    0    0 -0.16764149411E+02  0.16933669560E+02 -0.29916213861E+03  0.32510242232E+03  0.12500325577E+03 0.  0.
    9000005    1    3    3    0    0  0.31285393970E+02  0.49560311333E+01 -0.26009722434E+03  0.26202080877E+03  0.10000000000E+01 0.  0.
    9000005    1    3    3    0    0 -0.48049543381E+02  0.11977638427E+02 -0.39064914268E+02  0.63081613550E+02  0.10000000000E+01 0.  0.
         -4    1    1    2    0  502  0.16764149411E+02 -0.16933669560E+02 -0.12728455264E+03  0.12950195408E+03  0.12700000000E+01 0.  1.
<mgrwt>
<rscale>  1 0.12725408E+03</rscale>
<asrwt>0</asrwt>
<pdfrwt beam="2">  1       21 0.67768740E-01 0.12725408E+03</pdfrwt>
<pdfrwt beam="1">  1       -4 0.21661170E-02 0.12725408E+03</pdfrwt>
<totfact> 0.72316703E+04</totfact>
</mgrwt>
</event>
<event>
 6    4  0.6325740E-003  0.1305353E+03  0.7818608E-02  0.1226664E+00
          4   -1    0    0  502    0 -0.00000000000E+00  0.00000000000E+00  0.82783803328E+01  0.83752302019E+01  0.12700000000E+01 0.  1.
         21   -1    0    0  501  502  0.00000000000E+00 -0.00000000000E+00 -0.10281672884E+04  0.10281672884E+04  0.00000000000E+00 0. -1.
         25    2    1    2    0    0  0.24808053122E+02 -0.28266656441E+02 -0.55547910971E+03  0.57061063831E+03  0.12500006343E+03 0.  0.
    9000005    1    3    3    0    0 -0.41627029920E+02 -0.99739765145E+01 -0.85668979309E+02  0.95772980758E+02  0.10000000000E+01 0.  0.
    9000005    1    3    3    0    0  0.66435083043E+02 -0.18292679926E+02 -0.46981013040E+03  0.47483765755E+03  0.10000000000E+01 0.  0.
          4    1    1    2  501    0 -0.24808053122E+02  0.28266656441E+02 -0.46440979839E+03  0.46593188033E+03  0.12700000000E+01 0. -1.
<mgrwt>
<rscale>  1 0.13053528E+03</rscale>
<asrwt>0</asrwt>
<pdfrwt beam="2">  1       21 0.15817946E+00 0.13053528E+03</pdfrwt>
<pdfrwt beam="1">  1        4 0.12811083E-02 0.13053528E+03</pdfrwt>
<totfact> 0.21685797E+04</totfact>
</mgrwt>
</event>
<event>
 6    4  0.6325740E-003  0.1502043E+03  0.7818608E-02  0.1200222E+00
          4   -1    0    0  502    0 -0.00000000000E+00  0.00000000000E+00  0.83683364557E+02  0.83693000924E+02  0.12700000000E+01 0.  1.
         21   -1    0    0  501  502  0.00000000000E+00 -0.00000000000E+00 -0.43217311005E+03  0.43217311005E+03  0.00000000000E+00 0. -1.
         25    2    1    2    0    0 -0.37351057358E+02 -0.74438856292E+02  0.73732534283E+01  0.15038515153E+03  0.12500033650E+03 0.  0.
    9000005    1    3    3    0    0 -0.83131739103E+02 -0.43825783926E+02  0.13566761704E+02  0.94956002475E+02  0.10000000000E+01 0.  0.
    9000005    1    3    3    0    0  0.45780681744E+02 -0.30613072366E+02 -0.61935082753E+01  0.55429149059E+02  0.10000000000E+01 0.  0.
          4    1    1    2  501    0  0.37351057358E+02  0.74438856292E+02 -0.35586299892E+03  0.36548095944E+03  0.12700000000E+01 0. -1.
<mgrwt>
<rscale>  1 0.15020429E+03</rscale>
<asrwt>0</asrwt>
<pdfrwt beam="2">  1       21 0.66488169E-01 0.15020429E+03</pdfrwt>
<pdfrwt beam="1">  1        4 0.12875249E-01 0.15020429E+03</pdfrwt>
<totfact> 0.42542787E+03</totfact>
</mgrwt>
</event>
<event>
 6    4  0.6325740E-003  0.1398437E+03  0.7818608E-02  0.1213539E+00
         21   -1    0    0  501  502  0.00000000000E+00  0.00000000000E+00  0.29975645222E+03  0.29975645222E+03  0.00000000000E+00 0. -1.
          4   -1    0    0  502    0 -0.00000000000E+00 -0.00000000000E+00 -0.39253117589E+02  0.39273657080E+02  0.12700000000E+01 0. -1.
         25    2    1    2    0    0 -0.10983382632E+02  0.61732025117E+02  0.11667853424E+03  0.18212675138E+03  0.12499918238E+03 0.  0.
    9000005    1    3    3    0    0 -0.49680481512E+02  0.14068564680E+02  0.15729345286E+01  0.51667677308E+02  0.10000000000E+01 0.  0.
    9000005    1    3    3    0    0  0.38697098880E+02  0.47663460437E+02  0.11510559971E+03  0.13045907407E+03  0.10000000000E+01 0.  0.
          4    1    1    2  501    0  0.10983382632E+02 -0.61732025117E+02  0.14382480039E+03  0.15690335792E+03  0.12700000000E+01 0.  1.
<mgrwt>
<rscale>  1 0.13984375E+03</rscale>
<asrwt>0</asrwt>
<pdfrwt beam="1">  1       21 0.46116376E-01 0.13984375E+03</pdfrwt>
<pdfrwt beam="2">  1        4 0.60407283E-02 0.13984375E+03</pdfrwt>
<totfact> 0.32405201E+04</totfact>
</mgrwt>
</event>
<event>
 6    4  0.6325740E-003  0.1275298E+03  0.7818608E-02  0.1231168E+00
         21   -1    0    0  501  502  0.00000000000E+00  0.00000000000E+00  0.19178759662E+03  0.19178759662E+03  0.00000000000E+00 0. -1.
          4   -1    0    0  502    0 -0.00000000000E+00 -0.00000000000E+00 -0.11382185780E+03  0.11382894278E+03  0.12700000000E+01 0.  1.
         25    2    1    2    0    0  0.23136852147E+02  0.10074405391E+02 -0.76755026192E+02  0.14884621186E+03  0.12500821241E+03 0.  0.
    9000005    1    3    3    0    0 -0.44178223163E+02  0.24470670788E+02 -0.72731046917E+01  0.51033588768E+02  0.10000000000E+01 0.  0.
    9000005    1    3    3    0    0  0.67315075310E+02 -0.14396265398E+02 -0.69481921500E+02  0.97812623095E+02  0.10000000000E+01 0.  0.
          4    1    1    2  501    0 -0.23136852147E+02 -0.10074405391E+02  0.15472076501E+03  0.15677032754E+03  0.12700000000E+01 0. -1.
<mgrwt>
<rscale>  1 0.12752984E+03</rscale>
<asrwt>0</asrwt>
<pdfrwt beam="1">  1       21 0.29505784E-01 0.12752984E+03</pdfrwt>
<pdfrwt beam="2">  1        4 0.17511924E-01 0.12752984E+03</pdfrwt>
<totfact> 0.12857638E+04</totfact>
</mgrwt>
</event>
<event>
 6    4  0.6325740E-003  0.1294808E+03  0.7818608E-02  0.1228228E+00
          4   -1    0    0  502    0 -0.00000000000E+00  0.00000000000E+00  0.78131741766E+03  0.78131844982E+03  0.12700000000E+01 0. -1.
         21   -1    0    0  501  502  0.00000000000E+00 -0.00000000000E+00 -0.99141339143E+01  0.99141339143E+01  0.00000000000E+00 0.  1.
         25    2    1    2    0    0 -0.33505126912E+02 -0.41849527947E+01  0.70428945641E+03  0.71609280680E+03  0.12500064871E+03 0.  0.
    9000005    1    3    3    0    0 -0.80969911225E+02 -0.29311255424E+01  0.48470804632E+03  0.49143423587E+03  0.10000000000E+01 0.  0.
    9000005    1    3    3    0    0  0.47464784313E+02 -0.12538272523E+01  0.21958141009E+03  0.22465857093E+03  0.10000000000E+01 0.  0.
          4    1    1    2  501    0  0.33505126912E+02  0.41849527947E+01  0.67113827328E+02  0.75139776936E+02  0.12700000000E+01 0.  1.
<mgrwt>
<rscale>  1 0.12948077E+03</rscale>
<asrwt>0</asrwt>
<pdfrwt beam="2">  1       21 0.15252520E-02 0.12948077E+03</pdfrwt>
<pdfrwt beam="1">  1        4 0.12020897E+00 0.12948077E+03</pdfrwt>
<totfact> 0.42379867E+04</totfact>
</mgrwt>
</event>
<event>
 6    4  0.6325740E-003  0.1272375E+03  0.7818608E-02  0.1231613E+00
         -4   -1    0    0    0  501 -0.00000000000E+00  0.00000000000E+00  0.85687103391E+01  0.86623147527E+01  0.12700000000E+01 0.  1.
         21   -1    0    0  501  502  0.00000000000E+00 -0.00000000000E+00 -0.92072652096E+03  0.92072652096E+03  0.00000000000E+00 0.  1.
         25    2    1    2    0    0 -0.18237937517E+01  0.23804134602E+02 -0.48023354448E+03  0.49680341336E+03  0.12497764295E+03 0.  0.
    9000005    1    3    3    0    0  0.30125487851E+02  0.63862940164E+02 -0.34569631254E+03  0.35283560003E+03  0.10000000000E+01 0.  0.
    9000005    1    3    3    0    0 -0.31949281602E+02 -0.40058805562E+02 -0.13453723194E+03  0.14396781333E+03  0.10000000000E+01 0.  0.
         -4    1    1    2    0  502  0.18237937517E+01 -0.23804134602E+02 -0.43192426615E+03  0.43258542236E+03  0.12700000000E+01 0. -1.
<mgrwt>
<rscale>  1 0.12723747E+03</rscale>
<asrwt>0</asrwt>
<pdfrwt beam="2">  1       21 0.14165027E+00 0.12723747E+03</pdfrwt>
<pdfrwt beam="1">  1       -4 0.13255305E-02 0.12723747E+03</pdfrwt>
<totfact> 0.27365024E+04</totfact>
</mgrwt>
</event>
<event>
 6    4  0.6325740E-003  0.1320931E+03  0.7818608E-02  0.1224383E+00
          4   -1    0    0  502    0 -0.00000000000E+00  0.00000000000E+00  0.11845482452E+04  0.11845489260E+04  0.12700000000E+01 0. -1.
         21   -1    0    0  501  502  0.00000000000E+00 -0.00000000000E+00 -0.27199431589E+02  0.27199431589E+02  0.00000000000E+00 0.  1.
         25    2    1    2    0    0 -0.21913437533E+02  0.36656346042E+02  0.11613476904E+04  0.11688357678E+04  0.12499883012E+03 0.  0.
    9000005    1    3    3    0    0 -0.21372905344E+02 -0.20776587349E+02  0.71440892569E+02  0.77416204994E+02  0.10000000000E+01 0.  0.
    9000005    1    3    3    0    0 -0.54053218930E+00  0.57432933390E+02  0.10899067979E+04  0.10914195628E+04  0.10000000000E+01 0.  0.
          4    1    1    2  501    0  0.21913437533E+02 -0.36656346042E+02 -0.39988768095E+01  0.42912589824E+02  0.12700000000E+01 0.  1.
<mgrwt>
<rscale>  1 0.13209313E+03</rscale>
<asrwt>0</asrwt>
<pdfrwt beam="2">  1       21 0.41845289E-02 0.13209313E+03</pdfrwt>
<pdfrwt beam="1">  1        4 0.18224048E+00 0.13209313E+03</pdfrwt>
<totfact> 0.28410965E+03</totfact>
</mgrwt>
</event>
<event>
 6    4  0.6325740E-003  0.1679634E+03  0.7818608E-02  0.1179989E+00
          4   -1    0    0  502    0 -0.00000000000E+00  0.00000000000E+00  0.70996882539E+02  0.71008240580E+02  0.12700000000E+01 0. -1.
         21   -1    0    0  501  502  0.00000000000E+00 -0.00000000000E+00 -0.44495800681E+03  0.44495800681E+03  0.00000000000E+00 0.  1.
         25    2    1    2    0    0  0.19624932994E+02 -0.11045993924E+03 -0.53259730574E+02  0.17620525347E+03  0.12500062510E+03 0.  0.
    9000005    1    3    3    0    0 -0.91613314689E+01 -0.53001506974E+02 -0.88001861659E+02  0.10314270401E+03  0.10000000000E+01 0.  0.
    9000005    1    3    3    0    0  0.28786264463E+02 -0.57458432265E+02  0.34742131085E+02  0.73062549452E+02  0.10000000000E+01 0.  0.
          4    1    1    2  501    0 -0.19624932994E+02  0.11045993924E+03 -0.32070139370E+03  0.33976099392E+03  0.12700000000E+01 0.  1.
<mgrwt>
<rscale>  1 0.16796337E+03</rscale>
<asrwt>0</asrwt>
<pdfrwt beam="2">  1       21 0.68455076E-01 0.16796337E+03</pdfrwt>
<pdfrwt beam="1">  1        4 0.10923611E-01 0.16796337E+03</pdfrwt>
<totfact> 0.53179095E+03</totfact>
</mgrwt>
</event>
<event>
 6    4  0.6325740E-003  0.1336828E+03  0.7818608E-02  0.1222091E+00
         -4   -1    0    0    0  501 -0.00000000000E+00  0.00000000000E+00  0.53191809878E+02  0.53206968887E+02  0.12700000000E+01 0. -1.
         21   -1    0    0  501  502  0.00000000000E+00 -0.00000000000E+00 -0.20871536694E+03  0.20871536694E+03  0.00000000000E+00 0. -1.
         25    2    1    2    0    0 -0.94531999245E+01 -0.46446368521E+02 -0.44000178348E+02  0.14073774507E+03  0.12499787620E+03 0.  0.
    9000005    1    3    3    0    0  0.47455384248E+02 -0.19984011259E+02 -0.56806018574E+02  0.76676580169E+02  0.10000000000E+01 0.  0.
    9000005    1    3    3    0    0 -0.56908584172E+02 -0.26462357262E+02  0.12805840226E+02  0.64061164899E+02  0.10000000000E+01 0.  0.
         -4    1    1    2    0  502  0.94531999245E+01  0.46446368521E+02 -0.11152337871E+03  0.12118459076E+03  0.12700000000E+01 0.  1.
<mgrwt>
<rscale>  1 0.13368282E+03</rscale>
<asrwt>0</asrwt>
<pdfrwt beam="2">  1       21 0.32110057E-01 0.13368282E+03</pdfrwt>
<pdfrwt beam="1">  1       -4 0.81848186E-02 0.13368282E+03</pdfrwt>
<totfact> 0.40294614E+04</totfact>
</mgrwt>
</event>
<event>
 6    4  0.6325740E-003  0.1364230E+03  0.7818608E-02  0.1218225E+00
         -4   -1    0    0    0  501 -0.00000000000E+00  0.00000000000E+00  0.40970651556E+02  0.40990330432E+02  0.12700000000E+01 0.  1.
         21   -1    0    0  501  502  0.00000000000E+00 -0.00000000000E+00 -0.52516644990E+03  0.52516644990E+03  0.00000000000E+00 0. -1.
         25    2    1    2    0    0  0.52897302327E+02  0.13702619884E+02 -0.79726858636E+02  0.15801143554E+03  0.12500142155E+03 0.  0.
    9000005    1    3    3    0    0  0.85229052965E+02  0.17813314756E+02 -0.19061766730E+02  0.89138412611E+02  0.10000000000E+01 0.  0.
    9000005    1    3    3    0    0 -0.32331750639E+02 -0.41106948720E+01 -0.60665091906E+02  0.68873022931E+02  0.10000000000E+01 0.  0.
         -4    1    1    2    0  502 -0.52897302327E+02 -0.13702619884E+02 -0.40446893971E+03  0.40814534479E+03  0.12700000000E+01 0. -1.
<mgrwt>
<rscale>  1 0.13642303E+03</rscale>
<asrwt>0</asrwt>
<pdfrwt beam="2">  1       21 0.80794835E-01 0.13642303E+03</pdfrwt>
<pdfrwt beam="1">  1       -4 0.63048093E-02 0.13642303E+03</pdfrwt>
<totfact> 0.91028327E+03</totfact>
</mgrwt>
</event>
<event>
 6    4  0.6325740E-003  0.1378208E+03  0.7818608E-02  0.1216292E+00
          4   -1    0    0  502    0 -0.00000000000E+00  0.00000000000E+00  0.41292115294E+02  0.41311641040E+02  0.12700000000E+01 0. -1.
         21   -1    0    0  501  502  0.00000000000E+00 -0.00000000000E+00 -0.72873071921E+03  0.72873071921E+03  0.00000000000E+00 0.  1.
         25    2    1    2    0    0 -0.51364147803E+02 -0.27038659855E+02 -0.79034568858E+02  0.15887425933E+03  0.12500080959E+03 0.  0.
    9000005    1    3    3    0    0 -0.22258467473E+02  0.50240206561E+02 -0.26678279852E+02  0.61092129979E+02  0.10000000000E+01 0.  0.
    9000005    1    3    3    0    0 -0.29105680331E+02 -0.77278866416E+02 -0.52356289006E+02  0.97782129352E+02  0.10000000000E+01 0.  0.
          4    1    1    2  501    0  0.51364147803E+02  0.27038659855E+02 -0.60840403506E+03  0.61116810092E+03  0.12700000000E+01 0.  1.
<mgrwt>
<rscale>  1 0.13782078E+03</rscale>
<asrwt>0</asrwt>
<pdfrwt beam="2">  1       21 0.11211241E+00 0.13782078E+03</pdfrwt>
<pdfrwt beam="1">  1        4 0.63542206E-02 0.13782078E+03</pdfrwt>
<totfact> 0.42035052E+03</totfact>
</mgrwt>
</event>
<event>
 6    4  0.6325740E-003  0.1279904E+03  0.7818608E-02  0.1230468E+00
         -4   -1    0    0    0  501 -0.00000000000E+00  0.00000000000E+00  0.82751933506E+03  0.82752030960E+03  0.12700000000E+01 0. -1.
         21   -1    0    0  501  502  0.00000000000E+00 -0.00000000000E+00 -0.50601329757E+02  0.50601329757E+02  0.00000000000E+00 0.  1.
         25    2    1    2    0    0  0.25512355086E+02  0.10273646188E+02  0.81839248136E+03  0.82834038654E+03  0.12500045743E+03 0.  0.
    9000005    1    3    3    0    0  0.27258731052E+02  0.63593275853E+02  0.33917528397E+03  0.34616183557E+03  0.10000000000E+01 0.  0.
    9000005    1    3    3    0    0 -0.17463759656E+01 -0.53319629665E+02  0.47921719740E+03  0.48217855097E+03  0.10000000000E+01 0.  0.
         -4    1    1    2    0  502 -0.25512355086E+02 -0.10273646188E+02 -0.41474476055E+02  0.49781252818E+02  0.12700000000E+01 0.  1.
<mgrwt>
<rscale>  1 0.12799040E+03</rscale>
<asrwt>0</asrwt>
<pdfrwt beam="2">  1       21 0.77848206E-02 0.12799040E+03</pdfrwt>
<pdfrwt beam="1">  1       -4 0.12731196E+00 0.12799040E+03</pdfrwt>
<totfact> 0.24896225E+03</totfact>
</mgrwt>
</event>
<event>
 6    4  0.6325740E-003  0.1295996E+03  0.7818608E-02  0.1228051E+00
         -4   -1    0    0    0  501 -0.00000000000E+00  0.00000000000E+00  0.66847929191E+01  0.68043630393E+01  0.12700000000E+01 0.  1.
         21   -1    0    0  501  502  0.00000000000E+00 -0.00000000000E+00 -0.99692841927E+03  0.99692841927E+03  0.00000000000E+00 0.  1.
         25    2    1    2    0    0  0.34183598351E+02 -0.14966623121E+01 -0.80096399983E+03  0.81138115557E+03  0.12500116876E+03 0.  0.
    9000005    1    3    3    0    0  0.40943905774E+02  0.10283098888E+02 -0.79563865094E+03  0.79675843793E+03  0.10000000000E+01 0.  0.
    9000005    1    3    3    0    0 -0.67603074227E+01 -0.11779761201E+02 -0.53253488941E+01  0.14622717642E+02  0.10000000000E+01 0.  0.
         -4    1    1    2    0  502 -0.34183598351E+02  0.14966623121E+01 -0.18927962652E+03  0.19235162674E+03  0.12700000000E+01 0. -1.
<mgrwt>
<rscale>  1 0.12959958E+03</rscale>
<asrwt>0</asrwt>
<pdfrwt beam="2">  1       21 0.15337363E+00 0.12959958E+03</pdfrwt>
<pdfrwt beam="1">  1       -4 0.10376894E-02 0.12959958E+03</pdfrwt>
<totfact> 0.32315944E+04</totfact>
</mgrwt>
</event>
<event>
 6    4  0.6325740E-003  0.1273313E+03  0.7818608E-02  0.1231470E+00
          4   -1    0    0  502    0 -0.00000000000E+00  0.00000000000E+00  0.15547491091E+03  0.15548009784E+03  0.12700000000E+01 0.  1.
         21   -1    0    0  501  502  0.00000000000E+00 -0.00000000000E+00 -0.46099065305E+02  0.46099065305E+02  0.00000000000E+00 0.  1.
         25    2    1    2    0    0 -0.25677720481E+01  0.24092175645E+02  0.12011630179E+03  0.17504622739E+03  0.12500491746E+03 0.  0.
    9000005    1    3    3    0    0 -0.62229024080E+02  0.25214322822E+02  0.71306510992E+02  0.97948108830E+02  0.10000000000E+01 0.  0.
    9000005    1    3    3    0    0  0.59661252032E+02 -0.11221471775E+01  0.48809790797E+02  0.77098118563E+02  0.10000000000E+01 0.  0.
          4    1    1    2  501    0  0.25677720481E+01 -0.24092175645E+02 -0.10740456179E+02  0.26532935750E+02  0.12700000000E+01 0. -1.
<mgrwt>
<rscale>  1 0.12733128E+03</rscale>
<asrwt>0</asrwt>
<pdfrwt beam="2">  1       21 0.70921640E-02 0.12733128E+03</pdfrwt>
<pdfrwt beam="1">  1        4 0.23920961E-01 0.12733128E+03</pdfrwt>
<totfact> 0.95892343E+04</totfact>
</mgrwt>
</event>
<event>
 6    4  0.6325740E-003  0.1288793E+03  0.7818608E-02  0.1229128E+00
          4   -1    0    0  502    0 -0.00000000000E+00  0.00000000000E+00  0.88312278868E+02  0.88321410195E+02  0.12700000000E+01 0. -1.
         21   -1    0    0  501  502  0.00000000000E+00 -0.00000000000E+00 -0.11397000147E+03  0.11397000147E+03  0.00000000000E+00 0.  1.
         25    2    1    2    0    0  0.61342423678E+00 -0.31372978770E+02  0.35380937587E+02  0.13364761352E+03  0.12500093507E+03 0.  0.
    9000005    1    3    3    0    0 -0.34061946668E+02  0.24705620399E+02  0.50756553633E+02  0.65937937690E+02  0.10000000000E+01 0.  0.
    9000005    1    3    3    0    0  0.34675370904E+02 -0.56078599170E+02 -0.15375616047E+02  0.67709675830E+02  0.10000000000E+01 0.  0.
          4    1    1    2  501    0 -0.61342423678E+00  0.31372978770E+02 -0.61038660191E+02  0.68643798147E+02  0.12700000000E+01 0.  1.
<mgrwt>
<rscale>  1 0.12887930E+03</rscale>
<asrwt>0</asrwt>
<pdfrwt beam="2">  1       21 0.17533846E-01 0.12887930E+03</pdfrwt>
<pdfrwt beam="1">  1        4 0.13587751E-01 0.12887930E+03</pdfrwt>
<totfact> 0.53170339E+04</totfact>
</mgrwt>
</event>
<event>
 6    4  0.6325740E-003  0.1266899E+03  0.7818608E-02  0.1232452E+00
         21   -1    0    0  501  502  0.00000000000E+00  0.00000000000E+00  0.16190789068E+03  0.16190789068E+03  0.00000000000E+00 0.  1.
         -4   -1    0    0    0  501 -0.00000000000E+00 -0.00000000000E+00 -0.33764076442E+02  0.33787952852E+02  0.12700000000E+01 0.  1.
         25    2    1    2    0    0 -0.20401619807E+02 -0.27724741459E+01  0.11590645103E+03  0.17171087612E+03  0.12500562740E+03 0.  0.
    9000005    1    3    3    0    0  0.33665350130E+02  0.13622801046E+02 -0.64845490252E+01  0.36905092924E+02  0.10000000000E+01 0.  0.
    9000005    1    3    3    0    0 -0.54066969937E+02 -0.16395275192E+02  0.12239100006E+03  0.13480578319E+03  0.10000000000E+01 0.  0.
         -4    1    1    2    0  502  0.20401619807E+02  0.27724741459E+01  0.12237363202E+02  0.23984967413E+02  0.12700000000E+01 0. -1.
<mgrwt>
<rscale>  1 0.12668986E+03</rscale>
<asrwt>0</asrwt>
<pdfrwt beam="1">  1       21 0.24908906E-01 0.12668986E+03</pdfrwt>
<pdfrwt beam="2">  1       -4 0.51966932E-02 0.12668986E+03</pdfrwt>
<totfact> 0.13671711E+05</totfact>
</mgrwt>
</event>
<event>
 6    4  0.6325740E-003  0.1275412E+03  0.7818608E-02  0.1231150E+00
          4   -1    0    0  502    0 -0.00000000000E+00  0.00000000000E+00  0.26795810704E+03  0.26796111664E+03  0.12700000000E+01 0.  1.
         21   -1    0    0  501  502  0.00000000000E+00 -0.00000000000E+00 -0.22978610954E+02  0.22978610954E+02  0.00000000000E+00 0.  1.
         25    2    1    2    0    0  0.24945199771E+02  0.44075625056E+01  0.22507067826E+03  0.25869591382E+03  0.12500030408E+03 0.  0.
    9000005    1    3    3    0    0 -0.51162181916E+02  0.40796285901E+01  0.95511497717E+02  0.10843273686E+03  0.10000000000E+01 0.  0.
    9000005    1    3    3    0    0  0.76107381687E+02  0.32793391555E+00  0.12955918054E+03  0.15026317696E+03  0.10000000000E+01 0.  0.
          4    1    1    2  501    0 -0.24945199771E+02 -0.44075625056E+01  0.19908817836E+02  0.32243813771E+02  0.12700000000E+01 0. -1.
<mgrwt>
<rscale>  1 0.12754123E+03</rscale>
<asrwt>0</asrwt>
<pdfrwt beam="2">  1       21 0.35351711E-02 0.12754123E+03</pdfrwt>
<pdfrwt beam="1">  1        4 0.41227253E-01 0.12754123E+03</pdfrwt>
<totfact> 0.10978114E+05</totfact>
</mgrwt>
</event>
<event>
 6    4  0.6325740E-003  0.1278504E+03  0.7818608E-02  0.1230681E+00
         -4   -1    0    0    0  501 -0.00000000000E+00  0.00000000000E+00  0.13299086126E+03  0.13299692507E+03  0.12700000000E+01 0.  1.
         21   -1    0    0  501  502  0.00000000000E+00 -0.00000000000E+00 -0.49468844138E+02  0.49468844138E+02  0.00000000000E+00 0. -1.
         25    2    1    2    0    0 -0.50187741020E+01  0.26393513796E+02  0.87986957652E+02  0.15520124541E+03  0.12499566471E+03 0.  0.
    9000005    1    3    3    0    0  0.31115741064E+02 -0.35656193620E+02  0.63767540729E+02  0.79415695779E+02  0.10000000000E+01 0.  0.
    9000005    1    3    3    0    0 -0.36134515166E+02  0.62049707416E+02  0.24219416922E+02  0.75785549631E+02  0.10000000000E+01 0.  0.
         -4    1    1    2    0  502  0.50187741020E+01 -0.26393513796E+02 -0.44649405319E+01  0.27264523798E+02  0.12700000000E+01 0. -1.
<mgrwt>
<rscale>  1 0.12785039E+03</rscale>
<asrwt>0</asrwt>
<pdfrwt beam="2">  1       21 0.76105915E-02 0.12785039E+03</pdfrwt>
<pdfrwt beam="1">  1       -4 0.20461853E-01 0.12785039E+03</pdfrwt>
<totfact> 0.11292098E+05</totfact>
</mgrwt>
</event>
<event>
 6    4  0.6325740E-003  0.1281701E+03  0.7818608E-02  0.1230196E+00
         21   -1    0    0  501  502  0.00000000000E+00  0.00000000000E+00  0.21948141781E+02  0.21948141781E+02  0.00000000000E+00 0.  1.
         -4   -1    0    0    0  501 -0.00000000000E+00 -0.00000000000E+00 -0.61017517849E+03  0.61017650016E+03  0.12700000000E+01 0. -1.
         25    2    1    2    0    0 -0.27878473013E+02  0.50182689402E+01 -0.58995484078E+03  0.60371706395E+03  0.12500074743E+03 0.  0.
    9000005    1    3    3    0    0 -0.45278768821E+01 -0.77578985678E+01  0.34798976213E+01  0.96848514032E+01  0.10000000000E+01 0.  0.
    9000005    1    3    3    0    0 -0.23350596131E+02  0.12776167508E+02 -0.59343473840E+03  0.59403221254E+03  0.10000000000E+01 0.  0.
         -4    1    1    2    0  502  0.27878473013E+02 -0.50182689402E+01  0.17278040686E+01  0.28407577996E+02  0.12700000000E+01 0.  1.
<mgrwt>
<rscale>  1 0.12817012E+03</rscale>
<asrwt>0</asrwt>
<pdfrwt beam="1">  1       21 0.33766377E-02 0.12817012E+03</pdfrwt>
<pdfrwt beam="2">  1       -4 0.93876019E-01 0.12817012E+03</pdfrwt>
<totfact> 0.20788345E+04</totfact>
</mgrwt>
</event>
<event>
 6    4  0.6325740E-003  0.1277337E+03  0.7818608E-02  0.1230858E+00
         21   -1    0    0  501  502  0.00000000000E+00  0.00000000000E+00  0.54039889240E+02  0.54039889240E+02  0.00000000000E+00 0.  1.
         -4   -1    0    0    0  501 -0.00000000000E+00 -0.00000000000E+00 -0.22584739879E+03  0.22585096953E+03  0.12700000000E+01 0. -1.
         25    2    1    2    0    0  0.21594071194E+02  0.14919312409E+02 -0.20254099385E+03  0.23945511035E+03  0.12500802329E+03 0.  0.
    9000005    1    3    3    0    0  0.11426435127E+02 -0.53407954024E+02 -0.11977914924E+03  0.13164732266E+03  0.10000000000E+01 0.  0.
    9000005    1    3    3    0    0  0.10167636067E+02  0.68327266433E+02 -0.82761844616E+02  0.10780778768E+03  0.10000000000E+01 0.  0.
         -4    1    1    2    0  502 -0.21594071194E+02 -0.14919312409E+02  0.30733484303E+02  0.40435748427E+02  0.12700000000E+01 0.  1.
<mgrwt>
<rscale>  1 0.12773369E+03</rscale>
<asrwt>0</asrwt>
<pdfrwt beam="1">  1       21 0.83138290E-02 0.12773369E+03</pdfrwt>
<pdfrwt beam="2">  1       -4 0.34747177E-01 0.12773369E+03</pdfrwt>
<totfact> 0.36203878E+04</totfact>
</mgrwt>
</event>
<event>
 6    4  0.6325740E-003  0.1266108E+03  0.7818608E-02  0.1232573E+00
         -4   -1    0    0    0  501 -0.00000000000E+00  0.00000000000E+00  0.53348586470E+02  0.53363700943E+02  0.12700000000E+01 0.  1.
         21   -1    0    0  501  502  0.00000000000E+00 -0.00000000000E+00 -0.18668761698E+03  0.18668761698E+03  0.00000000000E+00 0.  1.
         25    2    1    2    0    0  0.16568756956E+02  0.11381016871E+02 -0.23990919563E+02  0.12886375783E+03  0.12500501033E+03 0.  0.
    9000005    1    3    3    0    0 -0.23443552512E+02 -0.48591172586E+02 -0.16215953637E+02  0.56344115576E+02  0.10000000000E+01 0.  0.
    9000005    1    3    3    0    0  0.40012309468E+02  0.59972189457E+02 -0.77749659261E+01  0.72519642252E+02  0.10000000000E+01 0.  0.
         -4    1    1    2    0  502 -0.16568756956E+02 -0.11381016871E+02 -0.10934811094E+03  0.11118756009E+03  0.12700000000E+01 0. -1.
<mgrwt>
<rscale>  1 0.12661084E+03</rscale>
<asrwt>0</asrwt>
<pdfrwt beam="2">  1       21 0.28721172E-01 0.12661084E+03</pdfrwt>
<pdfrwt beam="1">  1       -4 0.82089698E-02 0.12661084E+03</pdfrwt>
<totfact> 0.49433861E+04</totfact>
</mgrwt>
</event>
<event>
 6    4  0.6325740E-003  0.1268064E+03  0.7818608E-02  0.1232273E+00
         21   -1    0    0  501  502  0.00000000000E+00  0.00000000000E+00  0.65185697749E+02  0.65185697749E+02  0.00000000000E+00 0. -1.
         -4   -1    0    0    0  501 -0.00000000000E+00 -0.00000000000E+00 -0.11078762696E+03  0.11079490596E+03  0.12700000000E+01 0.  1.
         25    2    1    2    0    0  0.21216086798E+02  0.21896057291E+01 -0.68943265640E+02  0.14433652688E+03  0.12499976961E+03 0.  0.
    9000005    1    3    3    0    0  0.18989371993E+02 -0.25139258565E+02  0.28872305431E+02  0.42745626569E+02  0.10000000000E+01 0.  0.
    9000005    1    3    3    0    0  0.22267148047E+01  0.27328864294E+02 -0.97815571071E+02  0.10159090031E+03  0.10000000000E+01 0.  0.
         -4    1    1    2    0  502 -0.21216086798E+02 -0.21896057291E+01  0.23341336428E+02  0.31644076831E+02  0.12700000000E+01 0. -1.
<mgrwt>
<rscale>  1 0.12680638E+03</rscale>
<asrwt>0</asrwt>
<pdfrwt beam="1">  1       21 0.10028569E-01 0.12680638E+03</pdfrwt>
<pdfrwt beam="2">  1       -4 0.17045762E-01 0.12680638E+03</pdfrwt>
<totfact> 0.96833171E+04</totfact>
</mgrwt>
</event>
<event>
 6    4  0.6325740E-003  0.1269249E+03  0.7818608E-02  0.1232091E+00
         21   -1    0    0  501  502  0.00000000000E+00  0.00000000000E+00  0.29373372397E+02  0.29373372397E+02  0.00000000000E+00 0. -1.
          4   -1    0    0  502    0 -0.00000000000E+00 -0.00000000000E+00 -0.19012805262E+03  0.19013229418E+03  0.12700000000E+01 0. -1.
         25    2    1    2    0    0  0.22004783182E+02 -0.10906822929E+01 -0.14281420921E+03  0.19106496563E+03  0.12499809065E+03 0.  0.
    9000005    1    3    3    0    0 -0.19761167167E+01 -0.18701455999E+02  0.18872097436E+02  0.26660936882E+02  0.10000000000E+01 0.  0.
    9000005    1    3    3    0    0  0.23980899898E+02  0.17610773706E+02 -0.16168630665E+03  0.16440402875E+03  0.10000000000E+01 0.  0.
          4    1    1    2  501    0 -0.22004783182E+02  0.10906822929E+01 -0.17940471005E+02  0.28440700952E+02  0.12700000000E+01 0.  1.
<mgrwt>
<rscale>  1 0.12692487E+03</rscale>
<asrwt>0</asrwt>
<pdfrwt beam="1">  1       21 0.45189805E-02 0.12692487E+03</pdfrwt>
<pdfrwt beam="2">  1        4 0.29252907E-01 0.12692487E+03</pdfrwt>
<totfact> 0.14129748E+05</totfact>
</mgrwt>
</event>
<event>
 6    4  0.6325740E-003  0.1273238E+03  0.7818608E-02  0.1231482E+00
         21   -1    0    0  501  502  0.00000000000E+00  0.00000000000E+00  0.46438407553E+02  0.46438407553E+02  0.00000000000E+00 0.  1.
         -4   -1    0    0    0  501 -0.00000000000E+00 -0.00000000000E+00 -0.24885016305E+03  0.24885340373E+03  0.12700000000E+01 0. -1.
         25    2    1    2    0    0  0.24208887623E+02  0.28813513908E+00 -0.22730989002E+03  0.26054007371E+03  0.12500076259E+03 0.  0.
    9000005    1    3    3    0    0  0.69437048691E+02 -0.12093131375E+02 -0.18263387066E+03  0.19576485453E+03  0.10000000000E+01 0.  0.
    9000005    1    3    3    0    0 -0.45228161068E+02  0.12381266514E+02 -0.44676019356E+02  0.64775219178E+02  0.10000000000E+01 0.  0.
         -4    1    1    2    0  502 -0.24208887623E+02 -0.28813513908E+00  0.24898134522E+02  0.34751737575E+02  0.12700000000E+01 0.  1.
<mgrwt>
<rscale>  1 0.12732378E+03</rscale>
<asrwt>0</asrwt>
<pdfrwt beam="1">  1       21 0.71443703E-02 0.12732378E+03</pdfrwt>
<pdfrwt beam="2">  1       -4 0.38286226E-01 0.12732378E+03</pdfrwt>
<totfact> 0.38916878E+04</totfact>
</mgrwt>
</event>
<event>
 6    4  0.6325740E-003  0.1283859E+03  0.7818608E-02  0.1229871E+00
          4   -1    0    0  502    0 -0.00000000000E+00  0.00000000000E+00  0.16194436834E+03  0.16194934806E+03  0.12700000000E+01 0. -1.
         21   -1    0    0  501  502  0.00000000000E+00 -0.00000000000E+00 -0.39308681060E+02  0.39308681060E+02  0.00000000000E+00 0. -1.
         25    2    1    2    0    0 -0.29256894919E+02  0.13393820213E+01  0.11100340239E+03  0.16971943695E+03  0.12500068836E+03 0.  0.
    9000005    1    3    3    0    0  0.28952350990E+02 -0.25011224668E+02 -0.36639509943E+01  0.38447685550E+02  0.10000000000E+01 0.  0.
    9000005    1    3    3    0    0 -0.58209245909E+02  0.26350606690E+02  0.11466735339E+03  0.13127175140E+03  0.10000000000E+01 0.  0.
          4    1    1    2  501    0  0.29256894919E+02 -0.13393820213E+01  0.11632284889E+02  0.31538592172E+02  0.12700000000E+01 0.  1.
<mgrwt>
<rscale>  1 0.12838587E+03</rscale>
<asrwt>0</asrwt>
<pdfrwt beam="2">  1       21 0.60474895E-02 0.12838587E+03</pdfrwt>
<pdfrwt beam="1">  1        4 0.24916479E-01 0.12838587E+03</pdfrwt>
<totfact> 0.11686086E+05</totfact>
</mgrwt>
</event>
<event>
 6    4  0.6325740E-003  0.1307531E+03  0.7818608E-02  0.1226343E+00
         21   -1    0    0  501  502  0.00000000000E+00  0.00000000000E+00  0.21833305962E+02  0.21833305962E+02  0.00000000000E+00 0. -1.
          4   -1    0    0  502    0 -0.00000000000E+00 -0.00000000000E+00 -0.34347437820E+03  0.34347672611E+03  0.12700000000E+01 0. -1.
         25    2    1    2    0    0  0.31638665932E+02 -0.21626271546E+02 -0.27801711415E+03  0.30722936900E+03  0.12501067401E+03 0.  0.
    9000005    1    3    3    0    0  0.57740583069E+02  0.28286623937E+02 -0.87697538469E+02  0.10874725873E+03  0.10000000000E+01 0.  0.
    9000005    1    3    3    0    0 -0.26101917137E+02 -0.49912895484E+02 -0.19031957568E+03  0.19848211028E+03  0.10000000000E+01 0.  0.
          4    1    1    2  501    0 -0.31638665932E+02  0.21626271546E+02 -0.43623958087E+02  0.58080663066E+02  0.12700000000E+01 0.  1.
<mgrwt>
<rscale>  1 0.13075309E+03</rscale>
<asrwt>0</asrwt>
<pdfrwt beam="1">  1       21 0.33589703E-02 0.13075309E+03</pdfrwt>
<pdfrwt beam="2">  1        4 0.52845231E-01 0.13075309E+03</pdfrwt>
<totfact> 0.72727344E+04</totfact>
</mgrwt>
</event>
<event>
 6    4  0.6325740E-003  0.1270751E+03  0.7818608E-02  0.1231861E+00
         -4   -1    0    0    0  501 -0.00000000000E+00  0.00000000000E+00  0.64217245430E+03  0.64217371012E+03  0.12700000000E+01 0.  1.
         21   -1    0    0  501  502  0.00000000000E+00 -0.00000000000E+00 -0.23294794993E+02  0.23294794993E+02  0.00000000000E+00 0. -1.
         25    2    1    2    0    0  0.17729158113E+02  0.14430737552E+02  0.62807048060E+03  0.64079685950E+03  0.12500206922E+03 0.  0.
    9000005    1    3    3    0    0 -0.37125280213E+02  0.36489235987E+02  0.14390843511E+03  0.15303721270E+03  0.10000000000E+01 0.  0.
    9000005    1    3    3    0    0  0.54854438326E+02 -0.22058498436E+02  0.48416204549E+03  0.48775964681E+03  0.10000000000E+01 0.  0.
         -4    1    1    2    0  502 -0.17729158113E+02 -0.14430737552E+02 -0.91928212933E+01  0.24671645608E+02  0.12700000000E+01 0. -1.
<mgrwt>
<rscale>  1 0.12707512E+03</rscale>
<asrwt>0</asrwt>
<pdfrwt beam="2">  1       21 0.35838151E-02 0.12707512E+03</pdfrwt>
<pdfrwt beam="1">  1       -4 0.98798508E-01 0.12707512E+03</pdfrwt>
<totfact> 0.16747615E+04</totfact>
</mgrwt>
</event>
<event>
 6    4  0.6325740E-003  0.1276389E+03  0.7818608E-02  0.1231002E+00
         21   -1    0    0  501  502  0.00000000000E+00  0.00000000000E+00  0.12705836257E+03  0.12705836257E+03  0.00000000000E+00 0. -1.
         -4   -1    0    0    0  501 -0.00000000000E+00 -0.00000000000E+00 -0.94852480047E+02  0.94860981816E+02  0.12700000000E+01 0. -1.
         25    2    1    2    0    0  0.70780174921E+01 -0.24871115111E+02 -0.48973358279E+02  0.13671164089E+03  0.12499204868E+03 0.  0.
    9000005    1    3    3    0    0  0.36334539730E+02 -0.24143982510E+02  0.29687160727E+02  0.52777440075E+02  0.10000000000E+01 0.  0.
    9000005    1    3    3    0    0 -0.29256522238E+02 -0.72713260152E+00 -0.78660519007E+02  0.83934200810E+02  0.10000000000E+01 0.  0.
         -4    1    1    2    0  502 -0.70780174921E+01  0.24871115111E+02  0.81179240801E+02  0.85207703498E+02  0.12700000000E+01 0.  1.
<mgrwt>
<rscale>  1 0.12763888E+03</rscale>
<asrwt>0</asrwt>
<pdfrwt beam="1">  1       21 0.19547440E-01 0.12763888E+03</pdfrwt>
<pdfrwt beam="2">  1       -4 0.14593831E-01 0.12763888E+03</pdfrwt>
<totfact> 0.38436292E+04</totfact>
</mgrwt>
</event>
<event>
 6    4  0.6325740E-003  0.1279092E+03  0.7818608E-02  0.1230591E+00
         -4   -1    0    0    0  501 -0.00000000000E+00  0.00000000000E+00  0.34857308528E+03  0.34857539885E+03  0.12700000000E+01 0.  1.
         21   -1    0    0  501  502  0.00000000000E+00 -0.00000000000E+00 -0.17303902490E+02  0.17303902490E+02  0.00000000000E+00 0.  1.
         25    2    1    2    0    0 -0.64985138619E+01  0.26366645127E+02  0.26515754839E+03  0.29439649389E+03  0.12499335778E+03 0.  0.
    9000005    1    3    3    0    0 -0.23746188262E+02 -0.36758246709E+02  0.37892001661E+02  0.57895197970E+02  0.10000000000E+01 0.  0.
    9000005    1    3    3    0    0  0.17247674400E+02  0.63124891836E+02  0.22726554673E+03  0.23650129592E+03  0.10000000000E+01 0.  0.
         -4    1    1    2    0  502  0.64985138619E+01 -0.26366645127E+02  0.66111634401E+02  0.71482807449E+02  0.12700000000E+01 0. -1.
<mgrwt>
<rscale>  1 0.12790923E+03</rscale>
<asrwt>0</asrwt>
<pdfrwt beam="2">  1       21 0.26621391E-02 0.12790923E+03</pdfrwt>
<pdfrwt beam="1">  1       -4 0.53630386E-01 0.12790923E+03</pdfrwt>
<totfact> 0.10297153E+05</totfact>
</mgrwt>
</event>
<event>
 6    4  0.6325740E-003  0.1271437E+03  0.7818608E-02  0.1231756E+00
         21   -1    0    0  501  502  0.00000000000E+00  0.00000000000E+00  0.48263716076E+02  0.48263716076E+02  0.00000000000E+00 0. -1.
          4   -1    0    0  502    0 -0.00000000000E+00 -0.00000000000E+00 -0.15978618091E+03  0.15979122789E+03  0.12700000000E+01 0.  1.
         25    2    1    2    0    0  0.13654843191E+02  0.18814627883E+02 -0.12730905813E+03  0.17992534402E+03  0.12500035270E+03 0.  0.
    9000005    1    3    3    0    0  0.21279261393E+02 -0.30497416343E+02  0.59074819067E+01  0.37666931273E+02  0.10000000000E+01 0.  0.
    9000005    1    3    3    0    0 -0.76244182026E+01  0.49312044226E+02 -0.13321654004E+03  0.14225841275E+03  0.10000000000E+01 0.  0.
          4    1    1    2  501    0 -0.13654843191E+02 -0.18814627883E+02  0.15786593296E+02  0.28129599941E+02  0.12700000000E+01 0. -1.
<mgrwt>
<rscale>  1 0.12714375E+03</rscale>
<asrwt>0</asrwt>
<pdfrwt beam="1">  1       21 0.74251870E-02 0.12714375E+03</pdfrwt>
<pdfrwt beam="2">  1        4 0.24584163E-01 0.12714375E+03</pdfrwt>
<totfact> 0.84280378E+04</totfact>
</mgrwt>
</event>
<event>
 6    4  0.6325740E-003  0.1280462E+03  0.7818608E-02  0.1230384E+00
          4   -1    0    0  502    0 -0.00000000000E+00  0.00000000000E+00  0.37471032046E+02  0.37492547828E+02  0.12700000000E+01 0.  1.
         21   -1    0    0  501  502  0.00000000000E+00 -0.00000000000E+00 -0.16892194154E+03  0.16892194154E+03  0.00000000000E+00 0.  1.
         25    2    1    2    0    0 -0.26508966474E+02  0.82246704222E+01 -0.89993926475E+02  0.15650792820E+03  0.12500181710E+03 0.  0.
    9000005    1    3    3    0    0 -0.73799732457E+02 -0.64551170360E+01 -0.33300379351E+02  0.81227977394E+02  0.10000000000E+01 0.  0.
    9000005    1    3    3    0    0  0.47290765983E+02  0.14679787458E+02 -0.56693547125E+02  0.75279950801E+02  0.10000000000E+01 0.  0.
          4    1    1    2  501    0  0.26508966474E+02 -0.82246704222E+01 -0.41456983019E+02  0.49906561173E+02  0.12700000000E+01 0. -1.
<mgrwt>
<rscale>  1 0.12804618E+03</rscale>
<asrwt>0</asrwt>
<pdfrwt beam="2">  1       21 0.25987991E-01 0.12804618E+03</pdfrwt>
<pdfrwt beam="1">  1        4 0.57667964E-02 0.12804618E+03</pdfrwt>
<totfact> 0.10681803E+05</totfact>
</mgrwt>
</event>
<event>
 6    4  0.6325740E-003  0.1287101E+03  0.7818608E-02  0.1229382E+00
         21   -1    0    0  501  502  0.00000000000E+00  0.00000000000E+00  0.16485878355E+03  0.16485878355E+03  0.00000000000E+00 0.  1.
          4   -1    0    0  502    0 -0.00000000000E+00 -0.00000000000E+00 -0.39534125389E+02  0.39554518962E+02  0.12700000000E+01 0.  1.
         25    2    1    2    0    0  0.17260509661E+02  0.25370743823E+02  0.87247211379E+02  0.15549393325E+03  0.12499875018E+03 0.  0.
    9000005    1    3    3    0    0  0.67169190889E+02  0.24304658004E+02  0.76016334503E+02  0.10431634444E+03  0.10000000000E+01 0.  0.
    9000005    1    3    3    0    0 -0.49908681228E+02  0.10660858195E+01  0.11230876876E+02  0.51177588809E+02  0.10000000000E+01 0.  0.
          4    1    1    2  501    0 -0.17260509661E+02 -0.25370743823E+02  0.38077446779E+02  0.48919369263E+02  0.12700000000E+01 0. -1.
<mgrwt>
<rscale>  1 0.12871009E+03</rscale>
<asrwt>0</asrwt>
<pdfrwt beam="1">  1       21 0.25362889E-01 0.12871009E+03</pdfrwt>
<pdfrwt beam="2">  1        4 0.60841182E-02 0.12871009E+03</pdfrwt>
<totfact> 0.10262508E+05</totfact>
</mgrwt>
</event>
<event>
 6    4  0.6325740E-003  0.1659520E+03  0.7818608E-02  0.1182136E+00
         -4   -1    0    0    0  501 -0.00000000000E+00  0.00000000000E+00  0.18574972377E+03  0.18575406532E+03  0.12700000000E+01 0. -1.
         21   -1    0    0  501  502  0.00000000000E+00 -0.00000000000E+00 -0.10381985627E+03  0.10381985627E+03  0.00000000000E+00 0.  1.
         25    2    1    2    0    0  0.91704278934E+02 -0.59209542745E+02  0.68699669878E+02  0.17960985584E+03  0.12499844378E+03 0.  0.
    9000005    1    3    3    0    0  0.18138728720E+02 -0.75085512311E+01  0.85846370832E+02  0.88068105499E+02  0.10000000000E+01 0.  0.
    9000005    1    3    3    0    0  0.73565550213E+02 -0.51700991514E+02 -0.17146700954E+02  0.91541750340E+02  0.10000000000E+01 0.  0.
         -4    1    1    2    0  502 -0.91704278934E+02  0.59209542745E+02  0.13230197626E+02  0.10996406575E+03  0.12700000000E+01 0.  1.
<mgrwt>
<rscale>  1 0.16595197E+03</rscale>
<asrwt>0</asrwt>
<pdfrwt beam="2">  1       21 0.15972286E-01 0.16595197E+03</pdfrwt>
<pdfrwt beam="1">  1       -4 0.28577812E-01 0.16595197E+03</pdfrwt>
<totfact> 0.16953228E+04</totfact>
</mgrwt>
</event>
<event>
 6    4  0.6325740E-003  0.1291714E+03  0.7818608E-02  0.1228690E+00
          4   -1    0    0  502    0 -0.00000000000E+00  0.00000000000E+00  0.24246225641E+02  0.24279463706E+02  0.12700000000E+01 0.  1.
         21   -1    0    0  501  502  0.00000000000E+00 -0.00000000000E+00 -0.49297341418E+03  0.49297341418E+03  0.00000000000E+00 0.  1.
         25    2    1    2    0    0 -0.27599916008E+02  0.17281705689E+02 -0.15469194578E+03  0.20153122942E+03  0.12499930251E+03 0.  0.
    9000005    1    3    3    0    0  0.27209487763E+02  0.21509354749E+02 -0.14053675897E+03  0.14475700048E+03  0.10000000000E+01 0.  0.
    9000005    1    3    3    0    0 -0.54809403770E+02 -0.42276490595E+01 -0.14155186810E+02  0.56774228941E+02  0.10000000000E+01 0.  0.
          4    1    1    2  501    0  0.27599916008E+02 -0.17281705689E+02 -0.31403524276E+03  0.31572164847E+03  0.12700000000E+01 0. -1.
<mgrwt>
<rscale>  1 0.12917135E+03</rscale>
<asrwt>0</asrwt>
<pdfrwt beam="2">  1       21 0.75842061E-01 0.12917135E+03</pdfrwt>
<pdfrwt beam="1">  1        4 0.37328713E-02 0.12917135E+03</pdfrwt>
<totfact> 0.24202060E+04</totfact>
</mgrwt>
</event>
<event>
 6    4  0.6325740E-003  0.1277177E+03  0.7818608E-02  0.1230882E+00
          4   -1    0    0  502    0 -0.00000000000E+00  0.00000000000E+00  0.31700023106E+02  0.31725452951E+02  0.12700000000E+01 0. -1.
         21   -1    0    0  501  502  0.00000000000E+00 -0.00000000000E+00 -0.27006159776E+03  0.27006159776E+03  0.00000000000E+00 0. -1.
         25    2    1    2    0    0 -0.26176223624E+02  0.15952894748E+01 -0.10349006426E+03  0.16438371433E+03  0.12499628997E+03 0.  0.
    9000005    1    3    3    0    0 -0.39228976167E+02  0.44119597550E+02 -0.10433239041E+03  0.11988202179E+03  0.10000000000E+01 0.  0.
    9000005    1    3    3    0    0  0.13052752544E+02 -0.42524308075E+02  0.84232614814E+00  0.44501692548E+02  0.10000000000E+01 0.  0.
          4    1    1    2  501    0  0.26176223624E+02 -0.15952894748E+01 -0.13487151040E+03  0.13740333638E+03  0.12700000000E+01 0.  1.
<mgrwt>
<rscale>  1 0.12771770E+03</rscale>
<asrwt>0</asrwt>
<pdfrwt beam="2">  1       21 0.41547938E-01 0.12771770E+03</pdfrwt>
<pdfrwt beam="1">  1        4 0.48791125E-02 0.12771770E+03</pdfrwt>
<totfact> 0.55979988E+04</totfact>
</mgrwt>
</event>
<event>
 6    4  0.6325740E-003  0.1309752E+03  0.7818608E-02  0.1226016E+00
         21   -1    0    0  501  502  0.00000000000E+00  0.00000000000E+00  0.27135314296E+02  0.27135314296E+02  0.00000000000E+00 0.  1.
         -4   -1    0    0    0  501 -0.00000000000E+00 -0.00000000000E+00 -0.28377071671E+03  0.28377355860E+03  0.12700000000E+01 0.  1.
         25    2    1    2    0    0 -0.13256919379E+02  0.36791066252E+02 -0.22602173246E+03  0.26122851304E+03  0.12500073605E+03 0.  0.
    9000005    1    3    3    0    0  0.35940482707E+02  0.64473189226E+02 -0.14122916407E+03  0.15935867472E+03  0.10000000000E+01 0.  0.
    9000005    1    3    3    0    0 -0.49197402086E+02 -0.27682122974E+02 -0.84792568392E+02  0.10186983832E+03  0.10000000000E+01 0.  0.
         -4    1    1    2    0  502  0.13256919379E+02 -0.36791066252E+02 -0.30613669952E+02  0.49680359855E+02  0.12700000000E+01 0. -1.
<mgrwt>
<rscale>  1 0.13097524E+03</rscale>
<asrwt>0</asrwt>
<pdfrwt beam="1">  1       21 0.41746636E-02 0.13097524E+03</pdfrwt>
<pdfrwt beam="2">  1       -4 0.43659540E-01 0.13097524E+03</pdfrwt>
<totfact> 0.74665471E+04</totfact>
</mgrwt>
</event>
<event>
 6    4  0.6325740E-003  0.1426593E+03  0.7818608E-02  0.1209795E+00
          4   -1    0    0  502    0 -0.00000000000E+00  0.00000000000E+00  0.19796063759E+04  0.19796067833E+04  0.12700000000E+01 0.  1.
         21   -1    0    0  501  502  0.00000000000E+00 -0.00000000000E+00 -0.60383862758E+01  0.60383862758E+01  0.00000000000E+00 0.  1.
         25    2    1    2    0    0  0.59827670378E+02 -0.33876271905E+02  0.15477374541E+04  0.15542981980E+04  0.12499883879E+03 0.  0.
    9000005    1    3    3    0    0 -0.34180870601E+02 -0.34092157916E+02  0.47428942784E+03  0.47674109169E+03  0.10000000000E+01 0.  0.
    9000005    1    3    3    0    0  0.94008540979E+02  0.21588601059E+00  0.10734480262E+04  0.10775571063E+04  0.10000000000E+01 0.  0.
          4    1    1    2  501    0 -0.59827670378E+02  0.33876271905E+02  0.42583053556E+03  0.43134697154E+03  0.12700000000E+01 0. -1.
<mgrwt>
<rscale>  1 0.14265925E+03</rscale>
<asrwt>0</asrwt>
<pdfrwt beam="2">  1       21 0.92898408E-03 0.14265925E+03</pdfrwt>
<pdfrwt beam="1">  1        4 0.30456461E+00 0.14265925E+03</pdfrwt>
<totfact> 0.61307012E+03</totfact>
</mgrwt>
</event>
<event>
 6    4  0.6325740E-003  0.1288579E+03  0.7818608E-02  0.1229160E+00
         -4   -1    0    0    0  501 -0.00000000000E+00  0.00000000000E+00  0.67612377860E+01  0.68794793698E+01  0.12700000000E+01 0. -1.
         21   -1    0    0  501  502  0.00000000000E+00 -0.00000000000E+00 -0.13989681716E+04  0.13989681716E+04  0.00000000000E+00 0. -1.
         25    2    1    2    0    0  0.25895350151E+01 -0.31182434251E+02 -0.63234283323E+03  0.64533853587E+03  0.12500126896E+03 0.  0.
    9000005    1    3    3    0    0  0.54327294319E+02 -0.39541263469E+02 -0.46902722499E+03  0.47381695222E+03  0.10000000000E+01 0.  0.
    9000005    1    3    3    0    0 -0.51737759304E+02  0.83588292179E+01 -0.16331560824E+03  0.17152158365E+03  0.10000000000E+01 0.  0.
         -4    1    1    2    0  502 -0.25895350151E+01  0.31182434251E+02 -0.75986410060E+03  0.76050911512E+03  0.12700000000E+01 0.  1.
<mgrwt>
<rscale>  1 0.12885793E+03</rscale>
<asrwt>0</asrwt>
<pdfrwt beam="2">  1       21 0.21522596E+00 0.12885793E+03</pdfrwt>
<pdfrwt beam="1">  1       -4 0.10493298E-02 0.12885793E+03</pdfrwt>
<totfact> 0.12359120E+04</totfact>
</mgrwt>
</event>
<event>
 6    4  0.6325740E-003  0.1278572E+03  0.7818608E-02  0.1230670E+00
          4   -1    0    0  502    0 -0.00000000000E+00  0.00000000000E+00  0.13368158672E+03  0.13368761920E+03  0.12700000000E+01 0. -1.
         21   -1    0    0  501  502  0.00000000000E+00 -0.00000000000E+00 -0.60766670123E+02  0.60766670123E+02  0.00000000000E+00 0.  1.
         25    2    1    2    0    0 -0.59244564999E+01  0.26220656015E+02  0.95286380234E+02  0.15945832853E+03  0.12499936917E+03 0.  0.
    9000005    1    3    3    0    0  0.35039255159E+02  0.53264535520E+02  0.15247987652E+02  0.65561888881E+02  0.10000000000E+01 0.  0.
    9000005    1    3    3    0    0 -0.40963711659E+02 -0.27043879505E+02  0.80038392582E+02  0.93896439649E+02  0.10000000000E+01 0.  0.
          4    1    1    2  501    0  0.59244564999E+01 -0.26220656015E+02 -0.22371463637E+02  0.34995960795E+02  0.12700000000E+01 0.  1.
<mgrwt>
<rscale>  1 0.12785720E+03</rscale>
<asrwt>0</asrwt>
<pdfrwt beam="2">  1       21 0.93487185E-02 0.12785720E+03</pdfrwt>
<pdfrwt beam="1">  1        4 0.20567883E-01 0.12785720E+03</pdfrwt>
<totfact> 0.78384576E+04</totfact>
</mgrwt>
</event>
<event>
 6    4  0.6325740E-003  0.1302482E+03  0.7818608E-02  0.1227088E+00
          4   -1    0    0  502    0 -0.00000000000E+00  0.00000000000E+00  0.24958911319E+03  0.24959234428E+03  0.12700000000E+01 0.  1.
         21   -1    0    0  501  502  0.00000000000E+00 -0.00000000000E+00 -0.10945203552E+03  0.10945203552E+03  0.00000000000E+00 0. -1.
         25    2    1    2    0    0 -0.32007884933E+02  0.17734000144E+02  0.22871253142E+03  0.26319959191E+03  0.12500241475E+03 0.  0.
    9000005    1    3    3    0    0 -0.30295395037E+02  0.70662808388E+02  0.14533268936E+03  0.16441908054E+03  0.10000000000E+01 0.  0.
    9000005    1    3    3    0    0 -0.17124898966E+01 -0.52928808244E+02  0.83379842061E+02  0.98780511367E+02  0.10000000000E+01 0.  0.
          4    1    1    2  501    0  0.32007884933E+02 -0.17734000144E+02 -0.88575453748E+02  0.95844787890E+02  0.12700000000E+01 0. -1.
<mgrwt>
<rscale>  1 0.13024824E+03</rscale>
<asrwt>0</asrwt>
<pdfrwt beam="2">  1       21 0.16838775E-01 0.13024824E+03</pdfrwt>
<pdfrwt beam="1">  1        4 0.38399140E-01 0.13024824E+03</pdfrwt>
<totfact> 0.85605823E+03</totfact>
</mgrwt>
</event>
<event>
 6    4  0.6325740E-003  0.1354128E+03  0.7818608E-02  0.1219638E+00
         -4   -1    0    0    0  501 -0.00000000000E+00  0.00000000000E+00  0.31731494343E+03  0.31731748490E+03  0.12700000000E+01 0.  1.
         21   -1    0    0  501  502  0.00000000000E+00 -0.00000000000E+00 -0.51970382400E+02  0.51970382400E+02  0.00000000000E+00 0. -1.
         25    2    1    2    0    0 -0.51049764325E+02 -0.10328475779E+02  0.28344785191E+03  0.31413265096E+03  0.12499552709E+03 0.  0.
    9000005    1    3    3    0    0 -0.87454970418E+02  0.16696398842E+02  0.16887318049E+03  0.19090912151E+03  0.10000000000E+01 0.  0.
    9000005    1    3    3    0    0  0.36405206093E+02 -0.27024874621E+02  0.11457467142E+03  0.12322352945E+03  0.10000000000E+01 0.  0.
         -4    1    1    2    0  502  0.51049764325E+02  0.10328475779E+02 -0.18103290880E+02  0.55155216346E+02  0.12700000000E+01 0. -1.
<mgrwt>
<rscale>  1 0.13541284E+03</rscale>
<asrwt>0</asrwt>
<pdfrwt beam="2">  1       21 0.79954437E-02 0.13541284E+03</pdfrwt>
<pdfrwt beam="1">  1       -4 0.48819071E-01 0.13541284E+03</pdfrwt>
<totfact> 0.19913364E+04</totfact>
</mgrwt>
</event>
<event>
 6    4  0.6325740E-003  0.1272442E+03  0.7818608E-02  0.1231603E+00
          4   -1    0    0  502    0 -0.00000000000E+00  0.00000000000E+00  0.58435306915E+02  0.58449106017E+02  0.12700000000E+01 0.  1.
         21   -1    0    0  501  502  0.00000000000E+00 -0.00000000000E+00 -0.11836111363E+03  0.11836111363E+03  0.00000000000E+00 0.  1.
         25    2    1    2    0    0 -0.22328311528E+02 -0.82008967835E+01 -0.17891954269E+02  0.12849597894E+03  0.12500114548E+03 0.  0.
    9000005    1    3    3    0    0 -0.70309849640E+02 -0.25785113109E+02 -0.19380078460E+02  0.77362358131E+02  0.10000000000E+01 0.  0.
    9000005    1    3    3    0    0  0.47981538112E+02  0.17584216326E+02  0.14881241912E+01  0.51133620809E+02  0.10000000000E+01 0.  0.
          4    1    1    2  501    0  0.22328311528E+02  0.82008967835E+01 -0.42033852447E+02  0.48314240709E+02  0.12700000000E+01 0. -1.
<mgrwt>
<rscale>  1 0.12724423E+03</rscale>
<asrwt>0</asrwt>
<pdfrwt beam="2">  1       21 0.18209402E-01 0.12724423E+03</pdfrwt>
<pdfrwt beam="1">  1        4 0.89916328E-02 0.12724423E+03</pdfrwt>
<totfact> 0.99822131E+04</totfact>
</mgrwt>
</event>
<event>
 6    4  0.6325740E-003  0.1305081E+03  0.7818608E-02  0.1226704E+00
         21   -1    0    0  501  502  0.00000000000E+00  0.00000000000E+00  0.10280224253E+04  0.10280224253E+04  0.00000000000E+00 0.  1.
          4   -1    0    0  502    0 -0.00000000000E+00 -0.00000000000E+00 -0.10803051602E+02  0.10877445652E+02  0.12700000000E+01 0. -1.
         25    2    1    2    0    0 -0.14011565963E+02 -0.34786006739E+02  0.40449780735E+03  0.42503040518E+03  0.12500391565E+03 0.  0.
    9000005    1    3    3    0    0 -0.64698233264E+02 -0.10764842664E+02  0.29253831788E+03  0.29980228594E+03  0.10000000000E+01 0.  0.
    9000005    1    3    3    0    0  0.50686667301E+02 -0.24021164075E+02  0.11195948947E+03  0.12522811924E+03  0.10000000000E+01 0.  0.
          4    1    1    2  501    0  0.14011565963E+02  0.34786006739E+02  0.61272156633E+03  0.61386946576E+03  0.12700000000E+01 0.  1.
<mgrwt>
<rscale>  1 0.13050812E+03</rscale>
<asrwt>0</asrwt>
<pdfrwt beam="1">  1       21 0.15815722E+00 0.13050812E+03</pdfrwt>
<pdfrwt beam="2">  1        4 0.16677917E-02 0.13050812E+03</pdfrwt>
<totfact> 0.14519242E+04</totfact>
</mgrwt>
</event>
<event>
 6    4  0.6325740E-003  0.1334492E+03  0.7818608E-02  0.1222426E+00
         -4   -1    0    0    0  501 -0.00000000000E+00  0.00000000000E+00  0.13701282924E+03  0.13701871506E+03  0.12700000000E+01 0. -1.
         21   -1    0    0  501  502  0.00000000000E+00 -0.00000000000E+00 -0.81000215017E+02  0.81000215017E+02  0.00000000000E+00 0. -1.
         25    2    1    2    0    0  0.44745979587E+02 -0.13467678671E+02 -0.13628757739E+02  0.13414333979E+03  0.12500044605E+03 0.  0.
    9000005    1    3    3    0    0  0.54191205280E+02 -0.55618765181E+02  0.19057810319E+02  0.79964579059E+02  0.10000000000E+01 0.  0.
    9000005    1    3    3    0    0 -0.94452256924E+01  0.42151086510E+02 -0.32686568058E+02  0.54178760726E+02  0.10000000000E+01 0.  0.
         -4    1    1    2    0  502 -0.44745979587E+02  0.13467678671E+02  0.69641371965E+02  0.83875590294E+02  0.12700000000E+01 0.  1.
<mgrwt>
<rscale>  1 0.13344921E+03</rscale>
<asrwt>0</asrwt>
<pdfrwt beam="2">  1       21 0.12461572E-01 0.13344921E+03</pdfrwt>
<pdfrwt beam="1">  1       -4 0.21080115E-01 0.13344921E+03</pdfrwt>
<totfact> 0.45475410E+04</totfact>
</mgrwt>
</event>
<event>
 6    4  0.6325740E-003  0.1273684E+03  0.7818608E-02  0.1231414E+00
         -4   -1    0    0    0  501 -0.00000000000E+00  0.00000000000E+00  0.98732293385E+02  0.98740461094E+02  0.12700000000E+01 0. -1.
         21   -1    0    0  501  502  0.00000000000E+00 -0.00000000000E+00 -0.35412713909E+03  0.35412713909E+03  0.00000000000E+00 0.  1.
         25    2    1    2    0    0 -0.24404778541E+02 -0.15637391491E+01  0.56981044703E+02  0.13953335644E+03  0.12499871842E+03 0.  0.
    9000005    1    3    3    0    0  0.80554558600E+01 -0.56265292588E+02  0.49686326112E+02  0.75501023315E+02  0.10000000000E+01 0.  0.
    9000005    1    3    3    0    0 -0.32460234401E+02  0.54701553439E+02  0.72947185914E+01  0.64032333124E+02  0.10000000000E+01 0.  0.
         -4    1    1    2    0  502  0.24404778541E+02  0.15637391491E+01 -0.31237589041E+03  0.31333424375E+03  0.12700000000E+01 0.  1.
<mgrwt>
<rscale>  1 0.12736843E+03</rscale>
<asrwt>0</asrwt>
<pdfrwt beam="2">  1       21 0.54481099E-01 0.12736843E+03</pdfrwt>
<pdfrwt beam="1">  1       -4 0.15190387E-01 0.12736843E+03</pdfrwt>
<totfact> 0.48374641E+03</totfact>
</mgrwt>
</event>
<event>
 6    4  0.6325740E-003  0.1410687E+03  0.7818608E-02  0.1211898E+00
         -4   -1    0    0    0  501 -0.00000000000E+00  0.00000000000E+00  0.44182329359E+02  0.44200578363E+02  0.12700000000E+01 0. -1.
         21   -1    0    0  501  502  0.00000000000E+00 -0.00000000000E+00 -0.24829946246E+03  0.24829946246E+03  0.00000000000E+00 0. -1.
         25    2    1    2    0    0  0.29178383911E+02  0.58515182800E+02 -0.16152518995E+03  0.21445459748E+03  0.12499993074E+03 0.  0.
    9000005    1    3    3    0    0  0.69221930324E+02  0.35975843698E+02 -0.14670822737E+03  0.16616329602E+03  0.10000000000E+01 0.  0.
    9000005    1    3    3    0    0 -0.40043546413E+02  0.22539339102E+02 -0.14816962589E+02  0.48291301461E+02  0.10000000000E+01 0.  0.
         -4    1    1    2    0  502 -0.29178383911E+02 -0.58515182800E+02 -0.42591943152E+02  0.78045443347E+02  0.12700000000E+01 0.  1.
<mgrwt>
<rscale>  1 0.14106873E+03</rscale>
<asrwt>0</asrwt>
<pdfrwt beam="2">  1       21 0.38199917E-01 0.14106873E+03</pdfrwt>
<pdfrwt beam="1">  1       -4 0.67989351E-02 0.14106873E+03</pdfrwt>
<totfact> 0.39093211E+04</totfact>
</mgrwt>
</event>
<event>
 6    4  0.6325740E-003  0.1563129E+03  0.7818608E-02  0.1192923E+00
         21   -1    0    0  501  502  0.00000000000E+00  0.00000000000E+00  0.12095466505E+04  0.12095466505E+04  0.00000000000E+00 0. -1.
          4   -1    0    0  502    0 -0.00000000000E+00 -0.00000000000E+00 -0.15600450622E+02  0.15652059277E+02  0.12700000000E+01 0.  1.
         25    2    1    2    0    0 -0.49366703783E+02 -0.79824168505E+02  0.47280037997E+03  0.49796980786E+03  0.12499904366E+03 0.  0.
    9000005    1    3    3    0    0  0.14134273424E+02 -0.17272344837E+02  0.65593852763E+01  0.23283838099E+02  0.10000000000E+01 0.  0.
    9000005    1    3    3    0    0 -0.63500977207E+02 -0.62551823668E+02  0.46624099470E+03  0.47468596976E+03  0.10000000000E+01 0.  0.
          4    1    1    2  501    0  0.49366703783E+02  0.79824168505E+02  0.72114581986E+03  0.72722890187E+03  0.12700000000E+01 0. -1.
<mgrwt>
<rscale>  1 0.15631292E+03</rscale>
<asrwt>0</asrwt>
<pdfrwt beam="1">  1       21 0.18608403E+00 0.15631292E+03</pdfrwt>
<pdfrwt beam="2">  1        4 0.24040915E-02 0.15631292E+03</pdfrwt>
<totfact> 0.53290619E+03</totfact>
</mgrwt>
</event>
<event>
 6    4  0.6325740E-003  0.1284561E+03  0.7818608E-02  0.1229765E+00
          4   -1    0    0  502    0 -0.00000000000E+00  0.00000000000E+00  0.53371563460E+01  0.54861769806E+01  0.12700000000E+01 0.  1.
         21   -1    0    0  501  502  0.00000000000E+00 -0.00000000000E+00 -0.11579403074E+04  0.11579403074E+04  0.00000000000E+00 0.  1.
         25    2    1    2    0    0 -0.22825851722E+02 -0.18834922296E+02 -0.96098704896E+03  0.96953445957E+03  0.12500074485E+03 0.  0.
    9000005    1    3    3    0    0 -0.55144829554E+02  0.35003496337E+02 -0.45516888003E+03  0.45983247637E+03  0.10000000000E+01 0.  0.
    9000005    1    3    3    0    0  0.32318977831E+02 -0.53838418633E+02 -0.50581816894E+03  0.50970198320E+03  0.10000000000E+01 0.  0.
          4    1    1    2  501    0  0.22825851722E+02  0.18834922296E+02 -0.19161610211E+03  0.19389202483E+03  0.12700000000E+01 0. -1.
<mgrwt>
<rscale>  1 0.12845606E+03</rscale>
<asrwt>0</asrwt>
<pdfrwt beam="2">  1       21 0.17814438E+00 0.12845606E+03</pdfrwt>
<pdfrwt beam="1">  1        4 0.83261900E-03 0.12845606E+03</pdfrwt>
<totfact> 0.30092209E+04</totfact>
</mgrwt>
</event>
<event>
 6    4  0.6325740E-003  0.1274578E+03  0.7818608E-02  0.1231277E+00
         -4   -1    0    0    0  501 -0.00000000000E+00  0.00000000000E+00  0.23730062265E+03  0.23730402105E+03  0.12700000000E+01 0.  1.
         21   -1    0    0  501  502  0.00000000000E+00 -0.00000000000E+00 -0.26274104707E+02  0.26274104707E+02  0.00000000000E+00 0.  1.
         25    2    1    2    0    0  0.14222851643E+02  0.20492574661E+02  0.19781685652E+03  0.23532315841E+03  0.12499297995E+03 0.  0.
    9000005    1    3    3    0    0  0.34995559790E+02 -0.45004900849E+02  0.70771949927E+02  0.90883437446E+02  0.10000000000E+01 0.  0.
    9000005    1    3    3    0    0 -0.20772708147E+02  0.65497475510E+02  0.12704490659E+03  0.14443972096E+03  0.10000000000E+01 0.  0.
         -4    1    1    2    0  502 -0.14222851643E+02 -0.20492574661E+02  0.13209661424E+02  0.28254967351E+02  0.12700000000E+01 0. -1.
<mgrwt>
<rscale>  1 0.12745776E+03</rscale>
<asrwt>0</asrwt>
<pdfrwt beam="2">  1       21 0.40421701E-02 0.12745776E+03</pdfrwt>
<pdfrwt beam="1">  1       -4 0.36510409E-01 0.12745776E+03</pdfrwt>
<totfact> 0.11150966E+05</totfact>
</mgrwt>
</event>
<event>
 6    4  0.6325740E-003  0.1276590E+03  0.7818608E-02  0.1230971E+00
         21   -1    0    0  501  502  0.00000000000E+00  0.00000000000E+00  0.18543530391E+02  0.18543530391E+02  0.00000000000E+00 0.  1.
          4   -1    0    0  502    0 -0.00000000000E+00 -0.00000000000E+00 -0.38655505344E+03  0.38655713968E+03  0.12700000000E+01 0. -1.
         25    2    1    2    0    0 -0.98060547784E+01 -0.23976768389E+02 -0.35244447877E+03  0.37485187009E+03  0.12500307902E+03 0.  0.
    9000005    1    3    3    0    0  0.10805608254E+01 -0.58587363353E+02 -0.75686932367E+02  0.95724388154E+02  0.10000000000E+01 0.  0.
    9000005    1    3    3    0    0 -0.10886615604E+02  0.34610594964E+02 -0.27675754640E+03  0.27912748194E+03  0.10000000000E+01 0.  0.
          4    1    1    2  501    0  0.98060547784E+01  0.23976768389E+02 -0.15567044280E+02  0.30248799981E+02  0.12700000000E+01 0.  1.
<mgrwt>
<rscale>  1 0.12765897E+03</rscale>
<asrwt>0</asrwt>
<pdfrwt beam="1">  1       21 0.28528509E-02 0.12765897E+03</pdfrwt>
<pdfrwt beam="2">  1        4 0.59473513E-01 0.12765897E+03</pdfrwt>
<totfact> 0.74178771E+04</totfact>
</mgrwt>
</event>
<event>
 6    4  0.6325740E-003  0.1270289E+03  0.7818608E-02  0.1231932E+00
         -4   -1    0    0    0  501 -0.00000000000E+00  0.00000000000E+00  0.11037755897E+03  0.11038486501E+03  0.12700000000E+01 0. -1.
         21   -1    0    0  501  502  0.00000000000E+00 -0.00000000000E+00 -0.11422807236E+03  0.11422807236E+03  0.00000000000E+00 0.  1.
         25    2    1    2    0    0  0.20332346335E+02  0.98487755481E+01  0.71616807895E+02  0.14582631306E+03  0.12500377483E+03 0.  0.
    9000005    1    3    3    0    0  0.73225923064E+01  0.21872972050E+02 -0.32690029803E+02  0.40021060867E+02  0.10000000000E+01 0.  0.
    9000005    1    3    3    0    0  0.13009754029E+02 -0.12024196502E+02  0.10430683770E+03  0.10580525220E+03  0.10000000000E+01 0.  0.
         -4    1    1    2    0  502 -0.20332346335E+02 -0.98487755481E+01 -0.75467321294E+02  0.78786624312E+02  0.12700000000E+01 0.  1.
<mgrwt>
<rscale>  1 0.12702892E+03</rscale>
<asrwt>0</asrwt>
<pdfrwt beam="2">  1       21 0.17573549E-01 0.12702892E+03</pdfrwt>
<pdfrwt beam="1">  1       -4 0.16982268E-01 0.12702892E+03</pdfrwt>
<totfact> 0.35810061E+04</totfact>
</mgrwt>
</event>
<event>
 6    4  0.6325740E-003  0.1363659E+03  0.7818608E-02  0.1218304E+00
         21   -1    0    0  501  502  0.00000000000E+00  0.00000000000E+00  0.96192756035E+02  0.96192756035E+02  0.00000000000E+00 0. -1.
         -4   -1    0    0    0  501 -0.00000000000E+00 -0.00000000000E+00 -0.15431289693E+03  0.15431812291E+03  0.12700000000E+01 0. -1.
         25    2    1    2    0    0  0.39515575280E+01 -0.54359213612E+02 -0.11003930187E+03  0.17522641117E+03  0.12500043321E+03 0.  0.
    9000005    1    3    3    0    0  0.58064086070E+02 -0.57561488145E+02 -0.59678219289E+02  0.10122871562E+03  0.10000000000E+01 0.  0.
    9000005    1    3    3    0    0 -0.54112528542E+02  0.32022745338E+01 -0.50361082585E+02  0.73997695549E+02  0.10000000000E+01 0.  0.
         -4    1    1    2    0  502 -0.39515575280E+01  0.54359213612E+02  0.51919160981E+02  0.75284467776E+02  0.12700000000E+01 0.  1.
<mgrwt>
<rscale>  1 0.13636586E+03</rscale>
<asrwt>0</asrwt>
<pdfrwt beam="1">  1       21 0.14798886E-01 0.13636586E+03</pdfrwt>
<pdfrwt beam="2">  1       -4 0.23741493E-01 0.13636586E+03</pdfrwt>
<totfact> 0.26980266E+04</totfact>
</mgrwt>
</event>
<event>
 6    4  0.6325740E-003  0.1404759E+03  0.7818608E-02  0.1212690E+00
          4   -1    0    0  502    0 -0.00000000000E+00  0.00000000000E+00  0.66169469400E+03  0.66169591277E+03  0.12700000000E+01 0.  1.
         21   -1    0    0  501  502  0.00000000000E+00 -0.00000000000E+00 -0.25470934739E+02  0.25470934739E+02  0.00000000000E+00 0. -1.
         25    2    1    2    0    0  0.45494387152E+02 -0.45154140076E+02  0.59403698865E+03  0.61042069358E+03  0.12499937452E+03 0.  0.
    9000005    1    3    3    0    0 -0.18810377729E+02  0.30802982577E+02  0.23843831158E+03  0.24115655180E+03  0.10000000000E+01 0.  0.
    9000005    1    3    3    0    0  0.64304764881E+02 -0.75957122653E+02  0.35559867707E+03  0.36926414178E+03  0.10000000000E+01 0.  0.
          4    1    1    2  501    0 -0.45494387152E+02  0.45154140076E+02  0.42186770612E+02  0.76746153929E+02  0.12700000000E+01 0. -1.
<mgrwt>
<rscale>  1 0.14047590E+03</rscale>
<asrwt>0</asrwt>
<pdfrwt beam="2">  1       21 0.39186058E-02 0.14047590E+03</pdfrwt>
<pdfrwt beam="1">  1        4 0.10180170E+00 0.14047590E+03</pdfrwt>
<totfact> 0.13613701E+04</totfact>
</mgrwt>
</event>
<event>
 6    4  0.6325740E-003  0.1454045E+03  0.7818608E-02  0.1206236E+00
          4   -1    0    0  502    0 -0.00000000000E+00  0.00000000000E+00  0.12566707363E+03  0.12567349082E+03  0.12700000000E+01 0. -1.
         21   -1    0    0  501  502  0.00000000000E+00 -0.00000000000E+00 -0.38937701775E+03  0.38937701775E+03  0.00000000000E+00 0.  1.
         25    2    1    2    0    0 -0.30916250968E+02 -0.67539801505E+02  0.78243849738E+02  0.16511987346E+03  0.12500013291E+03 0.  0.
    9000005    1    3    3    0    0 -0.72498700492E+01 -0.65520583360E+02 -0.16068004179E+02  0.67857853030E+02  0.10000000000E+01 0.  0.
    9000005    1    3    3    0    0 -0.23666380918E+02 -0.20192181453E+01  0.94311853918E+02  0.97262020425E+02  0.10000000000E+01 0.  0.
          4    1    1    2  501    0  0.30916250968E+02  0.67539801505E+02 -0.34195379386E+03  0.34993063512E+03  0.12700000000E+01 0.  1.
<mgrwt>
<rscale>  1 0.14540451E+03</rscale>
<asrwt>0</asrwt>
<pdfrwt beam="2">  1       21 0.59904156E-01 0.14540451E+03</pdfrwt>
<pdfrwt beam="1">  1        4 0.19334049E-01 0.14540451E+03</pdfrwt>
<totfact> 0.26007680E+03</totfact>
</mgrwt>
</event>
<event>
 6    4  0.6325740E-003  0.1273740E+03  0.7818608E-02  0.1231405E+00
         21   -1    0    0  501  502  0.00000000000E+00  0.00000000000E+00  0.74392639138E+02  0.74392639138E+02  0.00000000000E+00 0. -1.
         -4   -1    0    0    0  501 -0.00000000000E+00 -0.00000000000E+00 -0.78675086453E+02  0.78685336171E+02  0.12700000000E+01 0. -1.
         25    2    1    2    0    0  0.23879818308E+02  0.53560152732E+01  0.33278707936E+01  0.12741745186E+03  0.12500079877E+03 0.  0.
    9000005    1    3    3    0    0 -0.23279486986E+02  0.31538916843E+02  0.44677002013E+02  0.59444699501E+02  0.10000000000E+01 0.  0.
    9000005    1    3    3    0    0  0.47159305294E+02 -0.26182901569E+02 -0.41349131219E+02  0.67972752357E+02  0.10000000000E+01 0.  0.
         -4    1    1    2    0  502 -0.23879818308E+02 -0.53560152732E+01 -0.76103181087E+01  0.25660523451E+02  0.12700000000E+01 0.  1.
<mgrwt>
<rscale>  1 0.12737399E+03</rscale>
<asrwt>0</asrwt>
<pdfrwt beam="1">  1       21 0.11445021E-01 0.12737399E+03</pdfrwt>
<pdfrwt beam="2">  1       -4 0.12105482E-01 0.12737399E+03</pdfrwt>
<totfact> 0.13920360E+05</totfact>
</mgrwt>
</event>
<event>
 6    4  0.6325740E-003  0.1268157E+03  0.7818608E-02  0.1232259E+00
         21   -1    0    0  501  502  0.00000000000E+00  0.00000000000E+00  0.28785617636E+02  0.28785617636E+02  0.00000000000E+00 0. -1.
          4   -1    0    0  502    0 -0.00000000000E+00 -0.00000000000E+00 -0.59066344690E+03  0.59066481223E+03  0.12700000000E+01 0.  1.
         25    2    1    2    0    0  0.20339047572E+02 -0.65874681137E+01 -0.57856478423E+03  0.59230012676E+03  0.12500063609E+03 0.  0.
    9000005    1    3    3    0    0 -0.40958144632E+02 -0.33746559349E+02 -0.16478573514E+03  0.17312347728E+03  0.10000000000E+01 0.  0.
    9000005    1    3    3    0    0  0.61297192204E+02  0.27159091235E+02 -0.41377904909E+03  0.41917664948E+03  0.10000000000E+01 0.  0.
          4    1    1    2  501    0 -0.20339047572E+02  0.65874681137E+01  0.16686954966E+02  0.27150303098E+02  0.12700000000E+01 0. -1.
<mgrwt>
<rscale>  1 0.12681573E+03</rscale>
<asrwt>0</asrwt>
<pdfrwt beam="1">  1       21 0.44285568E-02 0.12681573E+03</pdfrwt>
<pdfrwt beam="2">  1        4 0.90873554E-01 0.12681573E+03</pdfrwt>
<totfact> 0.14257215E+04</totfact>
</mgrwt>
</event>
<event>
 6    4  0.6325740E-003  0.1266440E+03  0.7818608E-02  0.1232522E+00
          4   -1    0    0  502    0 -0.00000000000E+00  0.00000000000E+00  0.76819972905E+02  0.76830470109E+02  0.12700000000E+01 0.  1.
         21   -1    0    0  501  502  0.00000000000E+00 -0.00000000000E+00 -0.74948813907E+02  0.74948813907E+02  0.00000000000E+00 0.  1.
         25    2    1    2    0    0  0.80671080226E+01  0.18588193023E+02  0.15108623649E+02  0.12754207044E+03  0.12501243966E+03 0.  0.
    9000005    1    3    3    0    0 -0.47648472815E+02  0.44033950126E+02  0.13413434600E+02  0.66259232965E+02  0.10000000000E+01 0.  0.
    9000005    1    3    3    0    0  0.55715580837E+02 -0.25445757103E+02  0.16951890490E+01  0.61282837471E+02  0.10000000000E+01 0.  0.
          4    1    1    2  501    0 -0.80671080226E+01 -0.18588193023E+02 -0.13237464651E+02  0.24237213580E+02  0.12700000000E+01 0. -1.
<mgrwt>
<rscale>  1 0.12664403E+03</rscale>
<asrwt>0</asrwt>
<pdfrwt beam="2">  1       21 0.11530587E-01 0.12664403E+03</pdfrwt>
<pdfrwt beam="1">  1        4 0.11820093E-01 0.12664403E+03</pdfrwt>
<totfact> 0.14297453E+05</totfact>
</mgrwt>
</event>
<event>
 6    4  0.6325740E-003  0.1273553E+03  0.7818608E-02  0.1231434E+00
         21   -1    0    0  501  502  0.00000000000E+00  0.00000000000E+00  0.94946632498E+02  0.94946632498E+02  0.00000000000E+00 0. -1.
          4   -1    0    0  502    0 -0.00000000000E+00 -0.00000000000E+00 -0.12012896501E+03  0.12013567802E+03  0.12700000000E+01 0.  1.
         25    2    1    2    0    0  0.12988656952E+02 -0.20645884462E+02 -0.83206346518E+02  0.15212711331E+03  0.12499761897E+03 0.  0.
    9000005    1    3    3    0    0  0.33936903318E+02 -0.51584590343E+02 -0.94670324271E+02  0.11303164895E+03  0.10000000000E+01 0.  0.
    9000005    1    3    3    0    0 -0.20948246365E+02  0.30938705881E+02  0.11463977753E+02  0.39095464357E+02  0.10000000000E+01 0.  0.
          4    1    1    2  501    0 -0.12988656952E+02  0.20645884462E+02  0.58024014006E+02  0.62955197212E+02  0.12700000000E+01 0. -1.
<mgrwt>
<rscale>  1 0.12735526E+03</rscale>
<asrwt>0</asrwt>
<pdfrwt beam="1">  1       21 0.14607174E-01 0.12735526E+03</pdfrwt>
<pdfrwt beam="2">  1        4 0.18482549E-01 0.12735526E+03</pdfrwt>
<totfact> 0.43095928E+04</totfact>
</mgrwt>
</event>
<event>
 6    4  0.6325740E-003  0.1272663E+03  0.7818608E-02  0.1231569E+00
         -4   -1    0    0    0  501 -0.00000000000E+00  0.00000000000E+00  0.25158342834E+03  0.25158663382E+03  0.12700000000E+01 0.  1.
         21   -1    0    0  501  502  0.00000000000E+00 -0.00000000000E+00 -0.35048294630E+02  0.35048294630E+02  0.00000000000E+00 0. -1.
         25    2    1    2    0    0 -0.46447145618E+01  0.23436326093E+02  0.22721846640E+03  0.26043223295E+03  0.12500352687E+03 0.  0.
    9000005    1    3    3    0    0 -0.48215115811E+02  0.13270558690E+02  0.30272098852E+02  0.58465417894E+02  0.10000000000E+01 0.  0.
    9000005    1    3    3    0    0  0.43570401250E+02  0.10165767403E+02  0.19694636755E+03  0.20196681505E+03  0.10000000000E+01 0.  0.
         -4    1    1    2    0  502  0.46447145618E+01 -0.23436326093E+02 -0.10683332691E+02  0.26202695500E+02  0.12700000000E+01 0. -1.
<mgrwt>
<rscale>  1 0.12726632E+03</rscale>
<asrwt>0</asrwt>
<pdfrwt beam="2">  1       21 0.53920455E-02 0.12726632E+03</pdfrwt>
<pdfrwt beam="1">  1       -4 0.38707158E-01 0.12726632E+03</pdfrwt>
<totfact> 0.61433794E+04</totfact>
</mgrwt>
</event>
<event>
 6    4  0.6325740E-003  0.1280700E+03  0.7818608E-02  0.1230348E+00
         21   -1    0    0  501  502  0.00000000000E+00  0.00000000000E+00  0.25845219946E+02  0.25845219946E+02  0.00000000000E+00 0. -1.
          4   -1    0    0  502    0 -0.00000000000E+00 -0.00000000000E+00 -0.28861581496E+03  0.28861860914E+03  0.12700000000E+01 0.  1.
         25    2    1    2    0    0  0.22279855155E+02  0.16734247848E+02 -0.25524515884E+03  0.28557313705E+03  0.12500199398E+03 0.  0.
    9000005    1    3    3    0    0  0.53831701341E+02  0.53697985091E+02 -0.18624308378E+03  0.20116861567E+03  0.10000000000E+01 0.  0.
    9000005    1    3    3    0    0 -0.31551846186E+02 -0.36963737243E+02 -0.69002075052E+02  0.84404521385E+02  0.10000000000E+01 0.  0.
          4    1    1    2  501    0 -0.22279855155E+02 -0.16734247848E+02 -0.75254361773E+01  0.28890692038E+02  0.12700000000E+01 0. -1.
<mgrwt>
<rscale>  1 0.12807000E+03</rscale>
<asrwt>0</asrwt>
<pdfrwt beam="1">  1       21 0.39761875E-02 0.12807000E+03</pdfrwt>
<pdfrwt beam="2">  1        4 0.44405050E-01 0.12807000E+03</pdfrwt>
<totfact> 0.78024535E+04</totfact>
</mgrwt>
</event>
<event>
 6    4  0.6325740E-003  0.1284187E+03  0.7818608E-02  0.1229821E+00
         21   -1    0    0  501  502  0.00000000000E+00  0.00000000000E+00  0.42808123714E+03  0.42808123714E+03  0.00000000000E+00 0.  1.
         -4   -1    0    0    0  501 -0.00000000000E+00 -0.00000000000E+00 -0.32332173222E+02  0.32357106256E+02  0.12700000000E+01 0. -1.
         25    2    1    2    0    0 -0.67128238738E+01 -0.28661211544E+02  0.98789749465E+02  0.16202089352E+03  0.12499931314E+03 0.  0.
    9000005    1    3    3    0    0 -0.29137416779E+02  0.42540931764E+02  0.26013989920E+02  0.57761990992E+02  0.10000000000E+01 0.  0.
    9000005    1    3    3    0    0  0.22424592905E+02 -0.71202143307E+02  0.72775759546E+02  0.10425890253E+03  0.10000000000E+01 0.  0.
         -4    1    1    2    0  502  0.67128238738E+01  0.28661211544E+02  0.29695931445E+03  0.29841744988E+03  0.12700000000E+01 0.  1.
<mgrwt>
<rscale>  1 0.12841867E+03</rscale>
<asrwt>0</asrwt>
<pdfrwt beam="1">  1       21 0.65858648E-01 0.12841867E+03</pdfrwt>
<pdfrwt beam="2">  1       -4 0.49762437E-02 0.12841867E+03</pdfrwt>
<totfact> 0.20826397E+04</totfact>
</mgrwt>
</event>
<event>
 6    4  0.6325740E-003  0.1357643E+03  0.7818608E-02  0.1219145E+00
         -4   -1    0    0    0  501 -0.00000000000E+00  0.00000000000E+00  0.13813585430E+03  0.13814169227E+03  0.12700000000E+01 0. -1.
         21   -1    0    0  501  502  0.00000000000E+00 -0.00000000000E+00 -0.73904036277E+02  0.73904036277E+02  0.00000000000E+00 0.  1.
         25    2    1    2    0    0  0.50552910225E+02  0.15839330280E+02  0.78946337350E+02  0.15704926416E+03  0.12500186429E+03 0.  0.
    9000005    1    3    3    0    0  0.51700948818E+02 -0.14122706325E+02  0.10462617278E+03  0.11755881496E+03  0.10000000000E+01 0.  0.
    9000005    1    3    3    0    0 -0.11480385925E+01  0.29962036605E+02 -0.25679835433E+02  0.39490449199E+02  0.10000000000E+01 0.  0.
         -4    1    1    2    0  502 -0.50552910225E+02 -0.15839330280E+02 -0.14714519332E+02  0.54996464387E+02  0.12700000000E+01 0.  1.
<mgrwt>
<rscale>  1 0.13576431E+03</rscale>
<asrwt>0</asrwt>
<pdfrwt beam="2">  1       21 0.11369852E-01 0.13576431E+03</pdfrwt>
<pdfrwt beam="1">  1       -4 0.21252958E-01 0.13576431E+03</pdfrwt>
<totfact> 0.52821252E+04</totfact>
</mgrwt>
</event>
<event>
 6    4  0.6325740E-003  0.1272842E+03  0.7818608E-02  0.1231542E+00
         -4   -1    0    0    0  501 -0.00000000000E+00  0.00000000000E+00  0.89450880208E+02  0.89459895316E+02  0.12700000000E+01 0.  1.
         21   -1    0    0  501  502  0.00000000000E+00 -0.00000000000E+00 -0.69794447928E+02  0.69794447928E+02  0.00000000000E+00 0.  1.
         25    2    1    2    0    0 -0.12044409218E+02  0.20760901676E+02 -0.14124099852E+01  0.12729199280E+03  0.12500069478E+03 0.  0.
    9000005    1    3    3    0    0 -0.22976990410E+02 -0.48112289254E+02 -0.16725379134E+02  0.55888037832E+02  0.10000000000E+01 0.  0.
    9000005    1    3    3    0    0  0.10932581192E+02  0.68873190929E+02  0.15312969149E+02  0.71403954964E+02  0.10000000000E+01 0.  0.
         -4    1    1    2    0  502  0.12044409218E+02 -0.20760901676E+02  0.21068842265E+02  0.31962350448E+02  0.12700000000E+01 0. -1.
<mgrwt>
<rscale>  1 0.12728416E+03</rscale>
<asrwt>0</asrwt>
<pdfrwt beam="2">  1       21 0.10737607E-01 0.12728416E+03</pdfrwt>
<pdfrwt beam="1">  1       -4 0.13763256E-01 0.12728416E+03</pdfrwt>
<totfact> 0.12490095E+05</totfact>
</mgrwt>
</event>
<event>
 6    4  0.6325740E-003  0.1573283E+03  0.7818608E-02  0.1191746E+00
          4   -1    0    0  502    0 -0.00000000000E+00  0.00000000000E+00  0.24552274707E+03  0.24552603167E+03  0.12700000000E+01 0.  1.
         21   -1    0    0  501  502  0.00000000000E+00 -0.00000000000E+00 -0.81844882178E+02  0.81844882178E+02  0.00000000000E+00 0.  1.
         25    2    1    2    0    0 -0.52589351428E+02 -0.79751595094E+02  0.16999273522E+03  0.23162412649E+03  0.12500499645E+03 0.  0.
    9000005    1    3    3    0    0 -0.34760690750E+01  0.31253447451E+02  0.15286431424E+02  0.34979079741E+02  0.10000000000E+01 0.  0.
    9000005    1    3    3    0    0 -0.49113282353E+02 -0.11100504254E+03  0.15470630380E+03  0.19664504675E+03  0.10000000000E+01 0.  0.
          4    1    1    2  501    0  0.52589351428E+02  0.79751595094E+02 -0.63148703316E+01  0.95746787366E+02  0.12700000000E+01 0. -1.
<mgrwt>
<rscale>  1 0.15732834E+03</rscale>
<asrwt>0</asrwt>
<pdfrwt beam="2">  1       21 0.12591520E-01 0.15732834E+03</pdfrwt>
<pdfrwt beam="1">  1        4 0.37773741E-01 0.15732834E+03</pdfrwt>
<totfact> 0.15174632E+04</totfact>
</mgrwt>
</event>
<event>
 6    4  0.6325740E-003  0.1275754E+03  0.7818608E-02  0.1231098E+00
         -4   -1    0    0    0  501 -0.00000000000E+00  0.00000000000E+00  0.92252512461E+02  0.92261253814E+02  0.12700000000E+01 0. -1.
         21   -1    0    0  501  502  0.00000000000E+00 -0.00000000000E+00 -0.10778758542E+03  0.10778758542E+03  0.00000000000E+00 0.  1.
         25    2    1    2    0    0 -0.47457395418E+01 -0.25075759288E+02  0.44250344631E+02  0.13503172761E+03  0.12499663481E+03 0.  0.
    9000005    1    3    3    0    0 -0.45933935929E+02  0.21538372781E+01 -0.23135995861E+02  0.51486306814E+02  0.10000000000E+01 0.  0.
    9000005    1    3    3    0    0  0.41188196387E+02 -0.27229596566E+02  0.67386340492E+02  0.83545420794E+02  0.10000000000E+01 0.  0.
         -4    1    1    2    0  502  0.47457395418E+01  0.25075759288E+02 -0.59785417589E+02  0.65017111624E+02  0.12700000000E+01 0.  1.
<mgrwt>
<rscale>  1 0.12757537E+03</rscale>
<asrwt>0</asrwt>
<pdfrwt beam="2">  1       21 0.16582705E-01 0.12757537E+03</pdfrwt>
<pdfrwt beam="1">  1       -4 0.14193942E-01 0.12757537E+03</pdfrwt>
<totfact> 0.54502892E+04</totfact>
</mgrwt>
</event>
<event>
 6    4  0.6325740E-003  0.1272257E+03  0.7818608E-02  0.1231631E+00
          4   -1    0    0  502    0 -0.00000000000E+00  0.00000000000E+00  0.49248746126E+02  0.49265118441E+02  0.12700000000E+01 0.  1.
         21   -1    0    0  501  502  0.00000000000E+00 -0.00000000000E+00 -0.20652225120E+03  0.20652225120E+03  0.00000000000E+00 0.  1.
         25    2    1    2    0    0 -0.23561074179E+02 -0.24299699797E+01 -0.36007098764E+02  0.13222287972E+03  0.12500139915E+03 0.  0.
    9000005    1    3    3    0    0 -0.44688647017E+02  0.52095583713E+02 -0.22016144077E+02  0.72088387516E+02  0.10000000000E+01 0.  0.
    9000005    1    3    3    0    0  0.21127572838E+02 -0.54525553692E+02 -0.13990954687E+02  0.60134492203E+02  0.10000000000E+01 0.  0.
          4    1    1    2  501    0  0.23561074179E+02  0.24299699797E+01 -0.12126640631E+03  0.12356448992E+03  0.12700000000E+01 0. -1.
<mgrwt>
<rscale>  1 0.12722570E+03</rscale>
<asrwt>0</asrwt>
<pdfrwt beam="2">  1       21 0.31772655E-01 0.12722570E+03</pdfrwt>
<pdfrwt beam="1">  1        4 0.75782897E-02 0.12722570E+03</pdfrwt>
<totfact> 0.46454590E+04</totfact>
</mgrwt>
</event>
<event>
 6    4  0.6325740E-003  0.1270621E+03  0.7818608E-02  0.1231881E+00
         21   -1    0    0  501  502  0.00000000000E+00  0.00000000000E+00  0.10233936581E+03  0.10233936581E+03  0.00000000000E+00 0.  1.
          4   -1    0    0  502    0 -0.00000000000E+00 -0.00000000000E+00 -0.10720444799E+03  0.10721197027E+03  0.12700000000E+01 0.  1.
         25    2    1    2    0    0  0.19826865093E+02 -0.11279414842E+02 -0.66789824015E+02  0.14354666707E+03  0.12499774101E+03 0.  0.
    9000005    1    3    3    0    0  0.19160428943E+02 -0.61584032558E+02 -0.62210038382E+01  0.64802901109E+02  0.10000000000E+01 0.  0.
    9000005    1    3    3    0    0  0.66643615001E+00  0.50304617716E+02 -0.60568820177E+02  0.78743765965E+02  0.10000000000E+01 0.  0.
          4    1    1    2  501    0 -0.19826865093E+02  0.11279414842E+02  0.61924741835E+02  0.66004669001E+02  0.12700000000E+01 0. -1.
<mgrwt>
<rscale>  1 0.12706205E+03</rscale>
<asrwt>0</asrwt>
<pdfrwt beam="1">  1       21 0.15744518E-01 0.12706205E+03</pdfrwt>
<pdfrwt beam="2">  1        4 0.16494177E-01 0.12706205E+03</pdfrwt>
<totfact> 0.46034490E+04</totfact>
</mgrwt>
</event>
<event>
 6    4  0.6325740E-003  0.1289083E+03  0.7818608E-02  0.1229085E+00
         21   -1    0    0  501  502  0.00000000000E+00  0.00000000000E+00  0.20089213572E+02  0.20089213572E+02  0.00000000000E+00 0.  1.
         -4   -1    0    0    0  501 -0.00000000000E+00 -0.00000000000E+00 -0.33512509554E+03  0.33512750194E+03  0.12700000000E+01 0.  1.
         25    2    1    2    0    0  0.11031239133E+02 -0.29497817858E+02 -0.27900653494E+03  0.30734672239E+03  0.12500220689E+03 0.  0.
    9000005    1    3    3    0    0  0.41103411257E+02  0.15814152309E+02 -0.22984952192E+03  0.23403286213E+03  0.10000000000E+01 0.  0.
    9000005    1    3    3    0    0 -0.30072172123E+02 -0.45311970167E+02 -0.49157013023E+02  0.73313860258E+02  0.10000000000E+01 0.  0.
         -4    1    1    2    0  502 -0.11031239133E+02  0.29497817858E+02 -0.36029347025E+02  0.47869993129E+02  0.12700000000E+01 0. -1.
<mgrwt>
<rscale>  1 0.12890834E+03</rscale>
<asrwt>0</asrwt>
<pdfrwt beam="1">  1       21 0.30906483E-02 0.12890834E+03</pdfrwt>
<pdfrwt beam="2">  1       -4 0.51560979E-01 0.12890834E+03</pdfrwt>
<totfact> 0.87537381E+04</totfact>
</mgrwt>
</event>
<event>
 6    4  0.6325740E-003  0.1535822E+03  0.7818608E-02  0.1196139E+00
         21   -1    0    0  501  502  0.00000000000E+00  0.00000000000E+00  0.15381599034E+03  0.15381599034E+03  0.00000000000E+00 0. -1.
          4   -1    0    0  502    0 -0.00000000000E+00 -0.00000000000E+00 -0.22380225007E+03  0.22380585344E+03  0.12700000000E+01 0.  1.
         25    2    1    2    0    0  0.76295226256E+01  0.88884654797E+02 -0.17958344034E+03  0.23630006070E+03  0.12501525975E+03 0.  0.
    9000005    1    3    3    0    0 -0.42987248427E+02  0.93085651945E+02 -0.12626673738E+03  0.16265648187E+03  0.10000000000E+01 0.  0.
    9000005    1    3    3    0    0  0.50616771052E+02 -0.42009971484E+01 -0.53316702960E+02  0.73643578833E+02  0.10000000000E+01 0.  0.
          4    1    1    2  501    0 -0.76295226256E+01 -0.88884654797E+02  0.10959718061E+03  0.14132178308E+03  0.12700000000E+01 0. -1.
<mgrwt>
<rscale>  1 0.15358225E+03</rscale>
<asrwt>0</asrwt>
<pdfrwt beam="1">  1       21 0.23663999E-01 0.15358225E+03</pdfrwt>
<pdfrwt beam="2">  1        4 0.34431796E-01 0.15358225E+03</pdfrwt>
<totfact> 0.56994252E+03</totfact>
</mgrwt>
</event>
<event>
 6    4  0.6325740E-003  0.1272132E+03  0.7818608E-02  0.1231650E+00
          4   -1    0    0  502    0 -0.00000000000E+00  0.00000000000E+00  0.96266952269E+01  0.97101061267E+01  0.12700000000E+01 0. -1.
         21   -1    0    0  501  502  0.00000000000E+00 -0.00000000000E+00 -0.58995941538E+03  0.58995941538E+03  0.00000000000E+00 0. -1.
         25    2    1    2    0    0  0.20330536627E+02 -0.12011585909E+02 -0.47781222480E+03  0.49445700427E+03  0.12500239193E+03 0.  0.
    9000005    1    3    3    0    0  0.53348746134E+02  0.36041309393E+02 -0.18473503581E+03  0.19563511482E+03  0.10000000000E+01 0.  0.
    9000005    1    3    3    0    0 -0.33018209507E+02 -0.48052895302E+02 -0.29307718899E+03  0.29882188945E+03  0.10000000000E+01 0.  0.
          4    1    1    2  501    0 -0.20330536627E+02  0.12011585909E+02 -0.10252049535E+03  0.10521251724E+03  0.12700000000E+01 0.  1.
<mgrwt>
<rscale>  1 0.12721323E+03</rscale>
<asrwt>0</asrwt>
<pdfrwt beam="2">  1       21 0.90763001E-01 0.12721323E+03</pdfrwt>
<pdfrwt beam="1">  1        4 0.14875512E-02 0.12721323E+03</pdfrwt>
<totfact> 0.67126172E+04</totfact>
</mgrwt>
</event>
<event>
 6    4  0.6325740E-003  0.1270397E+03  0.7818608E-02  0.1231916E+00
         -4   -1    0    0    0  501 -0.00000000000E+00  0.00000000000E+00  0.23489313689E+01  0.26702768725E+01  0.12700000000E+01 0. -1.
         21   -1    0    0  501  502  0.00000000000E+00 -0.00000000000E+00 -0.23743586280E+04  0.23743586280E+04  0.00000000000E+00 0. -1.
         25    2    1    2    0    0 -0.30343605892E+01  0.22472030448E+02 -0.21765108407E+04  0.21802152491E+04  0.12499957431E+03 0.  0.
    9000005    1    3    3    0    0  0.27221878107E+02  0.54240627626E+02 -0.18202877399E+04  0.18212994076E+04  0.10000000000E+01 0.  0.
    9000005    1    3    3    0    0 -0.30256238696E+02 -0.31768597178E+02 -0.35622310077E+03  0.35891584148E+03  0.10000000000E+01 0.  0.
         -4    1    1    2    0  502  0.30343605892E+01 -0.22472030448E+02 -0.19549885603E+03  0.19681365579E+03  0.12700000000E+01 0.  1.
<mgrwt>
<rscale>  1 0.12703973E+03</rscale>
<asrwt>0</asrwt>
<pdfrwt beam="2">  1       21 0.36528557E+00 0.12703973E+03</pdfrwt>
<pdfrwt beam="1">  1       -4 0.38611946E-03 0.12703973E+03</pdfrwt>
<totfact> 0.75565417E+03</totfact>
</mgrwt>
</event>
<event>
 6    4  0.6325740E-003  0.1274644E+03  0.7818608E-02  0.1231267E+00
         -4   -1    0    0    0  501 -0.00000000000E+00  0.00000000000E+00  0.32234199017E+03  0.32234449201E+03  0.12700000000E+01 0. -1.
         21   -1    0    0  501  502  0.00000000000E+00 -0.00000000000E+00 -0.57479978916E+02  0.57479978916E+02  0.00000000000E+00 0.  1.
         25    2    1    2    0    0 -0.24611053620E+02 -0.39198341682E+01  0.30612568743E+03  0.33160235016E+03  0.12500445219E+03 0.  0.
    9000005    1    3    3    0    0  0.40161281028E+02  0.27560026382E+02  0.17878969220E+03  0.18530849302E+03  0.10000000000E+01 0.  0.
    9000005    1    3    3    0    0 -0.64772334647E+02 -0.31479860550E+02  0.12733599522E+03  0.14629385714E+03  0.10000000000E+01 0.  0.
         -4    1    1    2    0  502  0.24611053620E+02  0.39198341682E+01 -0.41263676170E+02  0.48222120767E+02  0.12700000000E+01 0.  1.
<mgrwt>
<rscale>  1 0.12746443E+03</rscale>
<asrwt>0</asrwt>
<pdfrwt beam="2">  1       21 0.88430739E-02 0.12746443E+03</pdfrwt>
<pdfrwt beam="1">  1       -4 0.49592346E-01 0.12746443E+03</pdfrwt>
<totfact> 0.16100227E+04</totfact>
</mgrwt>
</event>
<event>
 6    4  0.6325740E-003  0.2252815E+03  0.7818608E-02  0.1130006E+00
         21   -1    0    0  501  502  0.00000000000E+00  0.00000000000E+00  0.28343073325E+03  0.28343073325E+03  0.00000000000E+00 0.  1.
          4   -1    0    0  502    0 -0.00000000000E+00 -0.00000000000E+00 -0.15078579539E+03  0.15079114361E+03  0.12700000000E+01 0. -1.
         25    2    1    2    0    0 -0.18596562070E+03  0.23296906104E+02  0.59274416922E+02  0.23294891752E+03  0.12500313498E+03 0.  0.
    9000005    1    3    3    0    0 -0.17493158095E+03  0.60581227005E+02  0.39415380876E+02  0.18927682195E+03  0.10000000000E+01 0.  0.
    9000005    1    3    3    0    0 -0.11034039750E+02 -0.37284320901E+02  0.19859036046E+02  0.43672095564E+02  0.10000000000E+01 0.  0.
          4    1    1    2  501    0  0.18596562070E+03 -0.23296906104E+02  0.73370520940E+02  0.20127295934E+03  0.12700000000E+01 0.  1.
<mgrwt>
<rscale>  1 0.22528147E+03</rscale>
<asrwt>0</asrwt>
<pdfrwt beam="1">  1       21 0.43604728E-01 0.22528147E+03</pdfrwt>
<pdfrwt beam="2">  1        4 0.23198445E-01 0.22528147E+03</pdfrwt>
<totfact> 0.36713255E+03</totfact>
</mgrwt>
</event>
<event>
 6    4  0.6325740E-003  0.1410236E+03  0.7818608E-02  0.1211958E+00
         21   -1    0    0  501  502  0.00000000000E+00  0.00000000000E+00  0.18465511690E+03  0.18465511690E+03  0.00000000000E+00 0. -1.
         -4   -1    0    0    0  501 -0.00000000000E+00 -0.00000000000E+00 -0.76978339515E+02  0.76988815126E+02  0.12700000000E+01 0.  1.
         25    2    1    2    0    0 -0.10355180708E+02  0.64422325675E+02  0.64093726067E+01  0.14116917955E+03  0.12502076382E+03 0.  0.
    9000005    1    3    3    0    0 -0.33659128433E+02  0.78344380647E+02 -0.34560506915E+02  0.92011996740E+02  0.10000000000E+01 0.  0.
    9000005    1    3    3    0    0  0.23303947725E+02 -0.13922054972E+02  0.40969879522E+02  0.49157182814E+02  0.10000000000E+01 0.  0.
         -4    1    1    2    0  502  0.10355180708E+02 -0.64422325675E+02  0.10126740478E+03  0.12047475248E+03  0.12700000000E+01 0. -1.
<mgrwt>
<rscale>  1 0.14102361E+03</rscale>
<asrwt>0</asrwt>
<pdfrwt beam="1">  1       21 0.28408479E-01 0.14102361E+03</pdfrwt>
<pdfrwt beam="2">  1       -4 0.11843963E-01 0.14102361E+03</pdfrwt>
<totfact> 0.27558792E+04</totfact>
</mgrwt>
</event>
<event>
 6    4  0.6325740E-003  0.1266814E+03  0.7818608E-02  0.1232465E+00
         21   -1    0    0  501  502  0.00000000000E+00  0.00000000000E+00  0.30211920312E+02  0.30211920312E+02  0.00000000000E+00 0.  1.
          4   -1    0    0  502    0 -0.00000000000E+00 -0.00000000000E+00 -0.62096320598E+03  0.62096450468E+03  0.12700000000E+01 0. -1.
         25    2    1    2    0    0  0.89033371925E+01  0.18541723124E+02 -0.60997707303E+03  0.62299294208E+03  0.12500044536E+03 0.  0.
    9000005    1    3    3    0    0 -0.25565875973E+02 -0.44899328346E+02 -0.19242368880E+03  0.19924216349E+03  0.10000000000E+01 0.  0.
    9000005    1    3    3    0    0  0.34469213165E+02  0.63441051471E+02 -0.41755338423E+03  0.42375077859E+03  0.10000000000E+01 0.  0.
          4    1    1    2  501    0 -0.89033371925E+01 -0.18541723124E+02  0.19225787369E+02  0.28183482921E+02  0.12700000000E+01 0.  1.
<mgrwt>
<rscale>  1 0.12668140E+03</rscale>
<asrwt>0</asrwt>
<pdfrwt beam="1">  1       21 0.46479876E-02 0.12668140E+03</pdfrwt>
<pdfrwt beam="2">  1        4 0.95534957E-01 0.12668140E+03</pdfrwt>
<totfact> 0.11736546E+04</totfact>
</mgrwt>
</event>
<event>
 6    4  0.6325740E-003  0.1349436E+03  0.7818608E-02  0.1220299E+00
         21   -1    0    0  501  502  0.00000000000E+00  0.00000000000E+00  0.37611001731E+02  0.37611001731E+02  0.00000000000E+00 0.  1.
         -4   -1    0    0    0  501 -0.00000000000E+00 -0.00000000000E+00 -0.93223011690E+03  0.93223098198E+03  0.12700000000E+01 0. -1.
         25    2    1    2    0    0 -0.38239670003E+02 -0.33503734937E+02 -0.90742018845E+03  0.91739912916E+03  0.12499996466E+03 0.  0.
    9000005    1    3    3    0    0  0.30560655768E+02 -0.17377653592E+02 -0.63460625791E+03  0.63558008079E+03  0.10000000000E+01 0.  0.
    9000005    1    3    3    0    0 -0.68800325771E+02 -0.16126081345E+02 -0.27281393054E+03  0.28181904836E+03  0.10000000000E+01 0.  0.
         -4    1    1    2    0  502  0.38239670003E+02  0.33503734937E+02  0.12801073273E+02  0.52442854553E+02  0.12700000000E+01 0.  1.
<mgrwt>
<rscale>  1 0.13494356E+03</rscale>
<asrwt>0</asrwt>
<pdfrwt beam="1">  1       21 0.57863085E-02 0.13494356E+03</pdfrwt>
<pdfrwt beam="2">  1       -4 0.14342172E+00 0.13494356E+03</pdfrwt>
<totfact> 0.30877217E+03</totfact>
</mgrwt>
</event>
<event>
 6    4  0.6325740E-003  0.1270713E+03  0.7818608E-02  0.1231867E+00
         21   -1    0    0  501  502  0.00000000000E+00  0.00000000000E+00  0.14264648490E+03  0.14264648490E+03  0.00000000000E+00 0.  1.
         -4   -1    0    0    0  501 -0.00000000000E+00 -0.00000000000E+00 -0.49858906186E+02  0.49875078206E+02  0.12700000000E+01 0. -1.
         25    2    1    2    0    0 -0.21573765454E+02 -0.75763118718E+01  0.37204706840E+02  0.13240587128E+03  0.12499718670E+03 0.  0.
    9000005    1    3    3    0    0 -0.37846254341E+02  0.31742997940E+02 -0.26288856559E+02  0.55964818101E+02  0.10000000000E+01 0.  0.
    9000005    1    3    3    0    0  0.16272488887E+02 -0.39319309812E+02  0.63493563399E+02  0.76441053184E+02  0.10000000000E+01 0.  0.
         -4    1    1    2    0  502  0.21573765454E+02  0.75763118718E+01  0.55582871877E+02  0.60115691824E+02  0.12700000000E+01 0.  1.
<mgrwt>
<rscale>  1 0.12707134E+03</rscale>
<asrwt>0</asrwt>
<pdfrwt beam="1">  1       21 0.21945613E-01 0.12707134E+03</pdfrwt>
<pdfrwt beam="2">  1       -4 0.76722799E-02 0.12707134E+03</pdfrwt>
<totfact> 0.91974335E+04</totfact>
</mgrwt>
</event>
<event>
 6    4  0.6325740E-003  0.1585314E+03  0.7818608E-02  0.1190365E+00
         -4   -1    0    0    0  501 -0.00000000000E+00  0.00000000000E+00  0.12101100957E+02  0.12167561151E+02  0.12700000000E+01 0.  1.
         21   -1    0    0  501  502  0.00000000000E+00 -0.00000000000E+00 -0.20817135556E+04  0.20817135556E+04  0.00000000000E+00 0. -1.
         25    2    1    2    0    0 -0.97071683447E+02  0.89076675588E+01 -0.58587984974E+03  0.60694927096E+03  0.12501984211E+03 0.  0.
    9000005    1    3    3    0    0 -0.84657803901E+02  0.54772203907E+01 -0.58779842665E+03  0.59388966490E+03  0.10000000000E+01 0.  0.
    9000005    1    3    3    0    0 -0.12413879546E+02  0.34304471681E+01  0.19185769074E+01  0.13059606063E+02  0.10000000000E+01 0.  0.
         -4    1    1    2    0  502  0.97071683447E+02 -0.89076675588E+01 -0.14837326049E+04  0.14869318457E+04  0.12700000000E+01 0. -1.
<mgrwt>
<rscale>  1 0.15853145E+03</rscale>
<asrwt>0</asrwt>
<pdfrwt beam="2">  1       21 0.32026344E+00 0.15853145E+03</pdfrwt>
<pdfrwt beam="1">  1       -4 0.18668510E-02 0.15853145E+03</pdfrwt>
<totfact> 0.12674631E+03</totfact>
</mgrwt>
</event>
<event>
 6    4  0.6325740E-003  0.1331656E+03  0.7818608E-02  0.1222833E+00
         21   -1    0    0  501  502  0.00000000000E+00  0.00000000000E+00  0.79408166549E+02  0.79408166549E+02  0.00000000000E+00 0. -1.
         -4   -1    0    0    0  501 -0.00000000000E+00 -0.00000000000E+00 -0.14308314042E+03  0.14308877654E+03  0.12700000000E+01 0.  1.
         25    2    1    2    0    0 -0.33520271743E+02 -0.31362095167E+02 -0.97853173567E+02  0.16525227640E+03  0.12500352653E+03 0.  0.
    9000005    1    3    3    0    0 -0.39671027886E+02 -0.76513309464E+02 -0.75049224902E+02  0.11428675836E+03  0.10000000000E+01 0.  0.
    9000005    1    3    3    0    0  0.61507561427E+01  0.45151214297E+02 -0.22803948665E+02  0.50965518032E+02  0.10000000000E+01 0.  0.
         -4    1    1    2    0  502  0.33520271743E+02  0.31362095167E+02  0.34178199694E+02  0.57244666698E+02  0.12700000000E+01 0. -1.
<mgrwt>
<rscale>  1 0.13316558E+03</rscale>
<asrwt>0</asrwt>
<pdfrwt beam="1">  1       21 0.12216641E-01 0.13316558E+03</pdfrwt>
<pdfrwt beam="2">  1       -4 0.22014006E-01 0.13316558E+03</pdfrwt>
<totfact> 0.43535802E+04</totfact>
</mgrwt>
</event>
<event>
 6    4  0.6325740E-003  0.1285449E+03  0.7818608E-02  0.1229631E+00
          4   -1    0    0  502    0 -0.00000000000E+00  0.00000000000E+00  0.44590946828E+03  0.44591127683E+03  0.12700000000E+01 0. -1.
         21   -1    0    0  501  502  0.00000000000E+00 -0.00000000000E+00 -0.15360430059E+02  0.15360430059E+02  0.00000000000E+00 0.  1.
         25    2    1    2    0    0  0.52819815770E+01 -0.29524481644E+02  0.39120381477E+03  0.41178176999E+03  0.12499682820E+03 0.  0.
    9000005    1    3    3    0    0 -0.34366137695E+02  0.93905871999E+01  0.31742809084E+03  0.31942261567E+03  0.10000000000E+01 0.  0.
    9000005    1    3    3    0    0  0.39648119272E+02 -0.38915068844E+02  0.73775723931E+02  0.92359154319E+02  0.10000000000E+01 0.  0.
          4    1    1    2  501    0 -0.52819815770E+01  0.29524481644E+02  0.39345223451E+02  0.49489936897E+02  0.12700000000E+01 0.  1.
<mgrwt>
<rscale>  1 0.12854494E+03</rscale>
<asrwt>0</asrwt>
<pdfrwt beam="2">  1       21 0.23631434E-02 0.12854494E+03</pdfrwt>
<pdfrwt beam="1">  1        4 0.68605624E-01 0.12854494E+03</pdfrwt>
<totfact> 0.74554847E+04</totfact>
</mgrwt>
</event>
<event>
 6    4  0.6325740E-003  0.1375386E+03  0.7818608E-02  0.1216680E+00
          4   -1    0    0  502    0 -0.00000000000E+00  0.00000000000E+00  0.12326522727E+03  0.12327176949E+03  0.12700000000E+01 0.  1.
         21   -1    0    0  501  502  0.00000000000E+00 -0.00000000000E+00 -0.28257952807E+03  0.28257952807E+03  0.00000000000E+00 0. -1.
         25    2    1    2    0    0 -0.54755097130E+02  0.17154313898E+02  0.80432384871E+02  0.15933055332E+03  0.12499786214E+03 0.  0.
    9000005    1    3    3    0    0 -0.20092073902E+02  0.75457033837E+01  0.11041897508E+03  0.11248990679E+03  0.10000000000E+01 0.  0.
    9000005    1    3    3    0    0 -0.34663023228E+02  0.96086105147E+01 -0.29986590205E+02  0.46840646531E+02  0.10000000000E+01 0.  0.
          4    1    1    2  501    0  0.54755097130E+02 -0.17154313898E+02 -0.23974668567E+03  0.24652074423E+03  0.12700000000E+01 0. -1.
<mgrwt>
<rscale>  1 0.13753856E+03</rscale>
<asrwt>0</asrwt>
<pdfrwt beam="2">  1       21 0.43473773E-01 0.13753856E+03</pdfrwt>
<pdfrwt beam="1">  1        4 0.18964604E-01 0.13753856E+03</pdfrwt>
<totfact> 0.52231129E+03</totfact>
</mgrwt>
</event>
<event>
 6    4  0.6325740E-003  0.1419884E+03  0.7818608E-02  0.1210678E+00
         21   -1    0    0  501  502  0.00000000000E+00  0.00000000000E+00  0.11291457478E+03  0.11291457478E+03  0.00000000000E+00 0.  1.
          4   -1    0    0  502    0 -0.00000000000E+00 -0.00000000000E+00 -0.37230477595E+03  0.37230694204E+03  0.12700000000E+01 0. -1.
         25    2    1    2    0    0  0.94217150298E+01 -0.66684016409E+02 -0.34687459067E+03  0.37481020370E+03  0.12500072155E+03 0.  0.
    9000005    1    3    3    0    0 -0.20161525989E+02  0.20520172707E+02 -0.19595994168E+02  0.34821941438E+02  0.10000000000E+01 0.  0.
    9000005    1    3    3    0    0  0.29583241018E+02 -0.87204189116E+02 -0.32727859650E+03  0.33998826226E+03  0.10000000000E+01 0.  0.
          4    1    1    2  501    0 -0.94217150298E+01  0.66684016409E+02  0.87484389498E+02  0.11041131312E+03  0.12700000000E+01 0.  1.
<mgrwt>
<rscale>  1 0.14198840E+03</rscale>
<asrwt>0</asrwt>
<pdfrwt beam="1">  1       21 0.17371473E-01 0.14198840E+03</pdfrwt>
<pdfrwt beam="2">  1        4 0.57278375E-01 0.14198840E+03</pdfrwt>
<totfact> 0.36314709E+03</totfact>
</mgrwt>
</event>
<event>
 6    4  0.6325740E-003  0.1371624E+03  0.7818608E-02  0.1217199E+00
         21   -1    0    0  501  502  0.00000000000E+00  0.00000000000E+00  0.22072495857E+03  0.22072495857E+03  0.00000000000E+00 0.  1.
         -4   -1    0    0    0  501 -0.00000000000E+00 -0.00000000000E+00 -0.87782767490E+02  0.87791953892E+02  0.12700000000E+01 0. -1.
         25    2    1    2    0    0 -0.55478863956E+02  0.10478752138E+02 -0.26208103207E+02  0.13964377172E+03  0.12500323882E+03 0.  0.
    9000005    1    3    3    0    0  0.35554626702E+02  0.13002709367E+02  0.13614941839E+02  0.40243863782E+02  0.10000000000E+01 0.  0.
    9000005    1    3    3    0    0 -0.91033490658E+02 -0.25239572294E+01 -0.39823045046E+02  0.99399907939E+02  0.10000000000E+01 0.  0.
         -4    1    1    2    0  502  0.55478863956E+02 -0.10478752138E+02  0.15915029429E+03  0.16887314074E+03  0.12700000000E+01 0.  1.
<mgrwt>
<rscale>  1 0.13716238E+03</rscale>
<asrwt>0</asrwt>
<pdfrwt beam="1">  1       21 0.33957686E-01 0.13716238E+03</pdfrwt>
<pdfrwt beam="2">  1       -4 0.13506029E-01 0.13716238E+03</pdfrwt>
<totfact> 0.15514014E+04</totfact>
</mgrwt>
</event>
<event>
 6    4  0.6325740E-003  0.1278209E+03  0.7818608E-02  0.1230725E+00
         21   -1    0    0  501  502  0.00000000000E+00  0.00000000000E+00  0.15131579165E+03  0.15131579165E+03  0.00000000000E+00 0. -1.
          4   -1    0    0  502    0 -0.00000000000E+00 -0.00000000000E+00 -0.80303129003E+02  0.80313170947E+02  0.12700000000E+01 0.  1.
         25    2    1    2    0    0 -0.21069272079E+02  0.16390015904E+02 -0.26484339779E+02  0.13053581135E+03  0.12500252375E+03 0.  0.
    9000005    1    3    3    0    0  0.18026198908E+02 -0.36638315427E+02 -0.46289855681E+02  0.61733789317E+02  0.10000000000E+01 0.  0.
    9000005    1    3    3    0    0 -0.39095470987E+02  0.53028331332E+02  0.19805515902E+02  0.68802022032E+02  0.10000000000E+01 0.  0.
          4    1    1    2  501    0  0.21069272079E+02 -0.16390015904E+02  0.97497002428E+02  0.10109315125E+03  0.12700000000E+01 0. -1.
<mgrwt>
<rscale>  1 0.12782088E+03</rscale>
<asrwt>0</asrwt>
<pdfrwt beam="1">  1       21 0.23279352E-01 0.12782088E+03</pdfrwt>
<pdfrwt beam="2">  1        4 0.12355510E-01 0.12782088E+03</pdfrwt>
<totfact> 0.37023140E+04</totfact>
</mgrwt>
</event>
<event>
 6    4  0.6325740E-003  0.1440275E+03  0.7818608E-02  0.1208010E+00
          4   -1    0    0  502    0 -0.00000000000E+00  0.00000000000E+00  0.14740744247E+03  0.14741291325E+03  0.12700000000E+01 0. -1.
         21   -1    0    0  501  502  0.00000000000E+00 -0.00000000000E+00 -0.25161879680E+03  0.25161879680E+03  0.00000000000E+00 0.  1.
         25    2    1    2    0    0 -0.25740646365E+02 -0.66769591022E+02  0.10479051378E+03  0.17811509018E+03  0.12499269743E+03 0.  0.
    9000005    1    3    3    0    0 -0.29461764361E+02 -0.24370552904E+02  0.12519280485E+03  0.13090514808E+03  0.10000000000E+01 0.  0.
    9000005    1    3    3    0    0  0.37211179957E+01 -0.42399038118E+02 -0.20402291067E+02  0.47209942102E+02  0.10000000000E+01 0.  0.
          4    1    1    2  501    0  0.25740646365E+02  0.66769591022E+02 -0.20900186811E+03  0.22091661987E+03  0.12700000000E+01 0.  1.
<mgrwt>
<rscale>  1 0.14402754E+03</rscale>
<asrwt>0</asrwt>
<pdfrwt beam="2">  1       21 0.38710584E-01 0.14402754E+03</pdfrwt>
<pdfrwt beam="1">  1        4 0.22678736E-01 0.14402754E+03</pdfrwt>
<totfact> 0.47863657E+03</totfact>
</mgrwt>
</event>
<event>
 6    4  0.6325740E-003  0.1296019E+03  0.7818608E-02  0.1228048E+00
         21   -1    0    0  501  502  0.00000000000E+00  0.00000000000E+00  0.38346551473E+02  0.38346551473E+02  0.00000000000E+00 0. -1.
          4   -1    0    0  502    0 -0.00000000000E+00 -0.00000000000E+00 -0.28821905633E+03  0.28822185436E+03  0.12700000000E+01 0.  1.
         25    2    1    2    0    0 -0.22112464653E+02  0.26117552388E+02 -0.26029306337E+03  0.29077331434E+03  0.12500221540E+03 0.  0.
    9000005    1    3    3    0    0 -0.72216872147E+01 -0.50760362390E+02 -0.10452766935E+03  0.11642938124E+03  0.10000000000E+01 0.  0.
    9000005    1    3    3    0    0 -0.14890777438E+02  0.76877914778E+02 -0.15576539402E+03  0.17434393310E+03  0.10000000000E+01 0.  0.
          4    1    1    2  501    0  0.22112464653E+02 -0.26117552388E+02  0.10420558512E+02  0.35795091500E+02  0.12700000000E+01 0. -1.
<mgrwt>
<rscale>  1 0.12960186E+03</rscale>
<asrwt>0</asrwt>
<pdfrwt beam="1">  1       21 0.58994696E-02 0.12960186E+03</pdfrwt>
<pdfrwt beam="2">  1        4 0.44343225E-01 0.12960186E+03</pdfrwt>
<totfact> 0.40438967E+04</totfact>
</mgrwt>
</event>
<event>
 6    4  0.6325740E-003  0.1269499E+03  0.7818608E-02  0.1232053E+00
          4   -1    0    0  502    0 -0.00000000000E+00  0.00000000000E+00  0.44309999590E+03  0.44310181591E+03  0.12700000000E+01 0. -1.
         21   -1    0    0  501  502  0.00000000000E+00 -0.00000000000E+00 -0.21540191000E+02  0.21540191000E+02  0.00000000000E+00 0.  1.
         25    2    1    2    0    0  0.22155040883E+02 -0.89080305561E+00  0.42371900219E+03  0.44232801131E+03  0.12499854961E+03 0.  0.
    9000005    1    3    3    0    0  0.72971157171E+02 -0.13590948879E+02  0.26388192598E+03  0.27412437785E+03  0.10000000000E+01 0.  0.
    9000005    1    3    3    0    0 -0.50816116288E+02  0.12700145823E+02  0.15983707621E+03  0.16820363346E+03  0.10000000000E+01 0.  0.
          4    1    1    2  501    0 -0.22155040883E+02  0.89080305561E+00 -0.21591972966E+01  0.22313995599E+02  0.12700000000E+01 0.  1.
<mgrwt>
<rscale>  1 0.12694990E+03</rscale>
<asrwt>0</asrwt>
<pdfrwt beam="2">  1       21 0.33138759E-02 0.12694990E+03</pdfrwt>
<pdfrwt beam="1">  1        4 0.68172243E-01 0.12694990E+03</pdfrwt>
<totfact> 0.43406466E+04</totfact>
</mgrwt>
</event>
<event>
 6    4  0.6325740E-003  0.1547525E+03  0.7818608E-02  0.1194752E+00
         21   -1    0    0  501  502  0.00000000000E+00  0.00000000000E+00  0.63281810002E+03  0.63281810002E+03  0.00000000000E+00 0.  1.
          4   -1    0    0  502    0 -0.00000000000E+00 -0.00000000000E+00 -0.98309807142E+02  0.98318009949E+02  0.12700000000E+01 0. -1.
         25    2    1    2    0    0  0.86874296451E+02 -0.27860711746E+02 -0.31411520122E+02  0.15790822310E+03  0.12499984273E+03 0.  0.
    9000005    1    3    3    0    0 -0.40124269356E+00 -0.61041764286E+02 -0.17438070708E+02  0.63492868047E+02  0.10000000000E+01 0.  0.
    9000005    1    3    3    0    0  0.87275539144E+02  0.33181052540E+02 -0.13973449414E+02  0.94415355049E+02  0.10000000000E+01 0.  0.
          4    1    1    2  501    0 -0.86874296451E+02  0.27860711746E+02  0.56591981300E+03  0.57322788688E+03  0.12700000000E+01 0.  1.
<mgrwt>
<rscale>  1 0.15475246E+03</rscale>
<asrwt>0</asrwt>
<pdfrwt beam="1">  1       21 0.97356628E-01 0.15475246E+03</pdfrwt>
<pdfrwt beam="2">  1        4 0.15125315E-01 0.15475246E+03</pdfrwt>
<totfact> 0.13646315E+03</totfact>
</mgrwt>
</event>
<event>
 6    4  0.6325740E-003  0.1651691E+03  0.7818608E-02  0.1182981E+00
         21   -1    0    0  501  502  0.00000000000E+00  0.00000000000E+00  0.47267938233E+03  0.47267938233E+03  0.00000000000E+00 0. -1.
          4   -1    0    0  502    0 -0.00000000000E+00 -0.00000000000E+00 -0.10064145307E+03  0.10064946585E+03  0.12700000000E+01 0.  1.
         25    2    1    2    0    0 -0.82366655391E+02  0.69795341101E+02 -0.20294476079E+02  0.16641118484E+03  0.12500064448E+03 0.  0.
    9000005    1    3    3    0    0  0.17933161347E+02  0.33954909746E+02 -0.42835861759E+02  0.57536468647E+02  0.10000000000E+01 0.  0.
    9000005    1    3    3    0    0 -0.10029981674E+03  0.35840431355E+02  0.22541385680E+02  0.10887471619E+03  0.10000000000E+01 0.  0.
          4    1    1    2  501    0  0.82366655391E+02 -0.69795341101E+02  0.39233240534E+03  0.40691766334E+03  0.12700000000E+01 0. -1.
<mgrwt>
<rscale>  1 0.16516905E+03</rscale>
<asrwt>0</asrwt>
<pdfrwt beam="1">  1       21 0.72719904E-01 0.16516905E+03</pdfrwt>
<pdfrwt beam="2">  1        4 0.15484048E-01 0.16516905E+03</pdfrwt>
<totfact> 0.25443151E+03</totfact>
</mgrwt>
</event>
<event>
 6    4  0.6325740E-003  0.1405445E+03  0.7818608E-02  0.1212598E+00
         -4   -1    0    0    0  501 -0.00000000000E+00  0.00000000000E+00  0.18539273769E+03  0.18539708759E+03  0.12700000000E+01 0.  1.
         21   -1    0    0  501  502  0.00000000000E+00 -0.00000000000E+00 -0.11321000951E+03  0.11321000951E+03  0.00000000000E+00 0. -1.
         25    2    1    2    0    0 -0.61431579253E+02 -0.18707037455E+02  0.14471055646E+03  0.20172732132E+03  0.12501589834E+03 0.  0.
    9000005    1    3    3    0    0 -0.41690146355E+02  0.37073645584E+02  0.12942929143E+02  0.57280388571E+02  0.10000000000E+01 0.  0.
    9000005    1    3    3    0    0 -0.19741432898E+02 -0.55780683039E+02  0.13176762732E+03  0.14444693275E+03  0.10000000000E+01 0.  0.
         -4    1    1    2    0  502  0.61431579253E+02  0.18707037455E+02 -0.72527828281E+02  0.96879775779E+02  0.12700000000E+01 0. -1.
<mgrwt>
<rscale>  1 0.14054454E+03</rscale>
<asrwt>0</asrwt>
<pdfrwt beam="2">  1       21 0.17416925E-01 0.14054454E+03</pdfrwt>
<pdfrwt beam="1">  1       -4 0.28522842E-01 0.14054454E+03</pdfrwt>
<totfact> 0.14318640E+04</totfact>
</mgrwt>
</event>
<event>
 6    4  0.6325740E-003  0.1266201E+03  0.7818608E-02  0.1232559E+00
          4   -1    0    0  502    0 -0.00000000000E+00  0.00000000000E+00  0.24536776892E+02  0.24569621898E+02  0.12700000000E+01 0.  1.
         21   -1    0    0  501  502  0.00000000000E+00 -0.00000000000E+00 -0.23163066005E+03  0.23163066005E+03  0.00000000000E+00 0.  1.
         25    2    1    2    0    0 -0.97927507445E+01  0.17718865588E+02 -0.15404457226E+03  0.19940504930E+03  0.12499114880E+03 0.  0.
    9000005    1    3    3    0    0 -0.62441566489E+02 -0.15278482432E+02 -0.83727806848E+02  0.10556385220E+03  0.10000000000E+01 0.  0.
    9000005    1    3    3    0    0  0.52648815745E+02  0.32997348020E+02 -0.70316765410E+02  0.93841197101E+02  0.10000000000E+01 0.  0.
          4    1    1    2  501    0  0.97927507445E+01 -0.17718865588E+02 -0.53049310902E+02  0.56795232652E+02  0.12700000000E+01 0. -1.
<mgrwt>
<rscale>  1 0.12662008E+03</rscale>
<asrwt>0</asrwt>
<pdfrwt beam="2">  1       21 0.35635487E-01 0.12662008E+03</pdfrwt>
<pdfrwt beam="1">  1        4 0.37776830E-02 0.12662008E+03</pdfrwt>
<totfact> 0.11402519E+05</totfact>
</mgrwt>
</event>
<event>
 6    4  0.6325740E-003  0.1281231E+03  0.7818608E-02  0.1230268E+00
         21   -1    0    0  501  502  0.00000000000E+00  0.00000000000E+00  0.29279255013E+03  0.29279255013E+03  0.00000000000E+00 0.  1.
          4   -1    0    0  502    0 -0.00000000000E+00 -0.00000000000E+00 -0.41500745713E+02  0.41520173347E+02  0.12700000000E+01 0.  1.
         25    2    1    2    0    0 -0.20530418923E+02  0.19199430035E+02  0.60913038428E+02  0.14186583820E+03  0.12500160632E+03 0.  0.
    9000005    1    3    3    0    0 -0.65003584651E+02 -0.17012702334E+02  0.49292293506E+02  0.83340435907E+02  0.10000000000E+01 0.  0.
    9000005    1    3    3    0    0  0.44473165728E+02  0.36212132369E+02  0.11620744923E+02  0.58525402289E+02  0.10000000000E+01 0.  0.
          4    1    1    2  501    0  0.20530418923E+02 -0.19199430035E+02  0.19037876599E+03  0.19244688528E+03  0.12700000000E+01 0. -1.
<mgrwt>
<rscale>  1 0.12812306E+03</rscale>
<asrwt>0</asrwt>
<pdfrwt beam="1">  1       21 0.45045006E-01 0.12812306E+03</pdfrwt>
<pdfrwt beam="2">  1        4 0.63864366E-02 0.12812306E+03</pdfrwt>
<totfact> 0.30783101E+04</totfact>
</mgrwt>
</event>
<event>
 6    4  0.6325740E-003  0.1381386E+03  0.7818608E-02  0.1215856E+00
         -4   -1    0    0    0  501 -0.00000000000E+00  0.00000000000E+00  0.41603889205E+02  0.41623268696E+02  0.12700000000E+01 0.  1.
         21   -1    0    0  501  502  0.00000000000E+00 -0.00000000000E+00 -0.36994231291E+03  0.36994231291E+03  0.00000000000E+00 0. -1.
         25    2    1    2    0    0 -0.57359253906E+02 -0.12952135438E+02 -0.87202851146E+02  0.16336038610E+03  0.12499774670E+03 0.  0.
    9000005    1    3    3    0    0 -0.69599941593E+02  0.37478891336E+02 -0.77205999069E+02  0.11050151790E+03  0.10000000000E+01 0.  0.
    9000005    1    3    3    0    0  0.12240687687E+02 -0.50431026774E+02 -0.99968520772E+01  0.52858868206E+02  0.10000000000E+01 0.  0.
         -4    1    1    2    0  502  0.57359253906E+02  0.12952135438E+02 -0.24113557255E+03  0.24820519550E+03  0.12700000000E+01 0. -1.
<mgrwt>
<rscale>  1 0.13813862E+03</rscale>
<asrwt>0</asrwt>
<pdfrwt beam="2">  1       21 0.56914203E-01 0.13813862E+03</pdfrwt>
<pdfrwt beam="1">  1       -4 0.64022567E-02 0.13813862E+03</pdfrwt>
<totfact> 0.19028455E+04</totfact>
</mgrwt>
</event>
<event>
 6    4  0.6325740E-003  0.1266341E+03  0.7818608E-02  0.1232537E+00
         21   -1    0    0  501  502  0.00000000000E+00  0.00000000000E+00  0.11393432379E+03  0.11393432379E+03  0.00000000000E+00 0. -1.
          4   -1    0    0  502    0 -0.00000000000E+00 -0.00000000000E+00 -0.48292062719E+02  0.48308759264E+02  0.12700000000E+01 0. -1.
         25    2    1    2    0    0  0.19391000232E+02 -0.59171792165E+01  0.48296248450E+02  0.13553127005E+03  0.12500069459E+03 0.  0.
    9000005    1    3    3    0    0  0.46018010641E+02 -0.13589088018E+02 -0.27157518245E+02  0.55143915473E+02  0.10000000000E+01 0.  0.
    9000005    1    3    3    0    0 -0.26627010408E+02  0.76719088012E+01  0.75453766695E+02  0.80387354580E+02  0.10000000000E+01 0.  0.
          4    1    1    2  501    0 -0.19391000232E+02  0.59171792165E+01  0.17346012618E+02  0.26711812998E+02  0.12700000000E+01 0.  1.
<mgrwt>
<rscale>  1 0.12663411E+03</rscale>
<asrwt>0</asrwt>
<pdfrwt beam="1">  1       21 0.17528357E-01 0.12663411E+03</pdfrwt>
<pdfrwt beam="2">  1        4 0.74313770E-02 0.12663411E+03</pdfrwt>
<totfact> 0.14666967E+05</totfact>
</mgrwt>
</event>
<event>
 6    4  0.6325740E-003  0.1313385E+03  0.7818608E-02  0.1225483E+00
          4   -1    0    0  502    0 -0.00000000000E+00  0.00000000000E+00  0.12540541080E+03  0.12541184138E+03  0.12700000000E+01 0. -1.
         21   -1    0    0  501  502  0.00000000000E+00 -0.00000000000E+00 -0.14335468909E+03  0.14335468909E+03  0.00000000000E+00 0.  1.
         25    2    1    2    0    0  0.22477057321E+02  0.33460492329E+02  0.86187959586E+02  0.15709289945E+03  0.12499996811E+03 0.  0.
    9000005    1    3    3    0    0 -0.15067666548E+02 -0.32093994012E+02 -0.79877119208E+01  0.36357427970E+02  0.10000000000E+01 0.  0.
    9000005    1    3    3    0    0  0.37544723869E+02  0.65554486340E+02  0.94175671507E+02  0.12073547148E+03  0.10000000000E+01 0.  0.
          4    1    1    2  501    0 -0.22477057321E+02 -0.33460492329E+02 -0.10413723788E+03  0.11167363102E+03  0.12700000000E+01 0.  1.
<mgrwt>
<rscale>  1 0.13133855E+03</rscale>
<asrwt>0</asrwt>
<pdfrwt beam="2">  1       21 0.22054568E-01 0.13133855E+03</pdfrwt>
<pdfrwt beam="1">  1        4 0.19294067E-01 0.13133855E+03</pdfrwt>
<totfact> 0.18833526E+04</totfact>
</mgrwt>
</event>
<event>
 6    4  0.6325740E-003  0.1285323E+03  0.7818608E-02  0.1229650E+00
         21   -1    0    0  501  502  0.00000000000E+00  0.00000000000E+00  0.30855771072E+03  0.30855771072E+03  0.00000000000E+00 0.  1.
          4   -1    0    0  502    0 -0.00000000000E+00 -0.00000000000E+00 -0.21031175980E+02  0.21069486541E+02  0.12700000000E+01 0.  1.
         25    2    1    2    0    0  0.29914435829E+02  0.61739644438E+00  0.20639558990E+03  0.24314542022E+03  0.12500120477E+03 0.  0.
    9000005    1    3    3    0    0  0.42214246450E+02 -0.48539962089E+02  0.59052328697E+02  0.87328964540E+02  0.10000000000E+01 0.  0.
    9000005    1    3    3    0    0 -0.12299810621E+02  0.49157358534E+02  0.14734326120E+03  0.15581645568E+03  0.10000000000E+01 0.  0.
          4    1    1    2  501    0 -0.29914435829E+02 -0.61739644438E+00  0.81130944847E+02  0.86481777047E+02  0.12700000000E+01 0. -1.
<mgrwt>
<rscale>  1 0.12853231E+03</rscale>
<asrwt>0</asrwt>
<pdfrwt beam="1">  1       21 0.47470414E-01 0.12853231E+03</pdfrwt>
<pdfrwt beam="2">  1        4 0.32387138E-02 0.12853231E+03</pdfrwt>
<totfact> 0.81901352E+04</totfact>
</mgrwt>
</event>
<event>
 6    4  0.6325740E-003  0.1268416E+03  0.7818608E-02  0.1232219E+00
         21   -1    0    0  501  502  0.00000000000E+00  0.00000000000E+00  0.39520351007E+03  0.39520351007E+03  0.00000000000E+00 0. -1.
         -4   -1    0    0    0  501 -0.00000000000E+00 -0.00000000000E+00 -0.25534302336E+02  0.25565865833E+02  0.12700000000E+01 0.  1.
         25    2    1    2    0    0 -0.54321956990E+00  0.21513187598E+02  0.13547940271E+03  0.18558946603E+03  0.12500267604E+03 0.  0.
    9000005    1    3    3    0    0 -0.32562804962E+02  0.51353013474E+02  0.23223176517E+02  0.65098265625E+02  0.10000000000E+01 0.  0.
    9000005    1    3    3    0    0  0.32019585392E+02 -0.29839825876E+02  0.11225622619E+03  0.12049120041E+03  0.10000000000E+01 0.  0.
         -4    1    1    2    0  502  0.54321956990E+00 -0.21513187598E+02  0.23418980503E+03  0.23517990987E+03  0.12700000000E+01 0. -1.
<mgrwt>
<rscale>  1 0.12684156E+03</rscale>
<asrwt>0</asrwt>
<pdfrwt beam="1">  1       21 0.60800536E-01 0.12684156E+03</pdfrwt>
<pdfrwt beam="2">  1       -4 0.39309394E-02 0.12684156E+03</pdfrwt>
<totfact> 0.35955786E+04</totfact>
</mgrwt>
</event>
<event>
 6    4  0.6325740E-003  0.1311028E+03  0.7818608E-02  0.1225829E+00
         21   -1    0    0  501  502  0.00000000000E+00  0.00000000000E+00  0.33087519221E+02  0.33087519221E+02  0.00000000000E+00 0.  1.
         -4   -1    0    0    0  501 -0.00000000000E+00 -0.00000000000E+00 -0.36673376946E+03  0.36673596846E+03  0.12700000000E+01 0. -1.
         25    2    1    2    0    0 -0.20856499430E+02  0.33576318614E+02 -0.33552776488E+03  0.36023162315E+03  0.12500231426E+03 0.  0.
    9000005    1    3    3    0    0  0.14495794321E+02  0.28146866980E+02 -0.31942946358E+03  0.32099619371E+03  0.10000000000E+01 0.  0.
    9000005    1    3    3    0    0 -0.35352293751E+02  0.54294516342E+01 -0.16098301304E+02  0.39235429440E+02  0.10000000000E+01 0.  0.
         -4    1    1    2    0  502  0.20856499430E+02 -0.33576318614E+02  0.18815146380E+01  0.39591864537E+02  0.12700000000E+01 0.  1.
<mgrwt>
<rscale>  1 0.13110279E+03</rscale>
<asrwt>0</asrwt>
<pdfrwt beam="1">  1       21 0.50903877E-02 0.13110279E+03</pdfrwt>
<pdfrwt beam="2">  1       -4 0.56422622E-01 0.13110279E+03</pdfrwt>
<totfact> 0.31809295E+04</totfact>
</mgrwt>
</event>
<event>
 6    4  0.6325740E-003  0.1339829E+03  0.7818608E-02  0.1221663E+00
         21   -1    0    0  501  502  0.00000000000E+00  0.00000000000E+00  0.17377387817E+03  0.17377387817E+03  0.00000000000E+00 0. -1.
         -4   -1    0    0    0  501 -0.00000000000E+00 -0.00000000000E+00 -0.47880280950E+02  0.47897121039E+02  0.12700000000E+01 0. -1.
         25    2    1    2    0    0  0.94021272357E+01 -0.47307048882E+02  0.87683003986E+02  0.16012411297E+03  0.12500026198E+03 0.  0.
    9000005    1    3    3    0    0  0.16120464171E+02  0.35996929406E+02  0.65317998283E+00  0.39459788847E+02  0.10000000000E+01 0.  0.
    9000005    1    3    3    0    0 -0.67183369355E+01 -0.83303978288E+02  0.87029824003E+02  0.12066432412E+03  0.10000000000E+01 0.  0.
         -4    1    1    2    0  502 -0.94021272357E+01  0.47307048882E+02  0.38210593235E+02  0.61546886240E+02  0.12700000000E+01 0.  1.
<mgrwt>
<rscale>  1 0.13398292E+03</rscale>
<asrwt>0</asrwt>
<pdfrwt beam="1">  1       21 0.26734443E-01 0.13398292E+03</pdfrwt>
<pdfrwt beam="2">  1       -4 0.73678495E-02 0.13398292E+03</pdfrwt>
<totfact> 0.68243578E+04</totfact>
</mgrwt>
</event>
<event>
 6    4  0.6325740E-003  0.1471030E+03  0.7818608E-02  0.1204079E+00
         21   -1    0    0  501  502  0.00000000000E+00  0.00000000000E+00  0.30306679099E+03  0.30306679099E+03  0.00000000000E+00 0. -1.
         -4   -1    0    0    0  501 -0.00000000000E+00 -0.00000000000E+00 -0.71786374701E+02  0.71797607848E+02  0.12700000000E+01 0.  1.
         25    2    1    2    0    0 -0.75317579927E+02 -0.18547978817E+02  0.18351367669E+02  0.14824322152E+03  0.12499005827E+03 0.  0.
    9000005    1    3    3    0    0 -0.36850927509E+02 -0.54528055046E+02 -0.33906240636E+02  0.74040075631E+02  0.10000000000E+01 0.  0.
    9000005    1    3    3    0    0 -0.38466652418E+02  0.35980076229E+02  0.52257608304E+02  0.74203145886E+02  0.10000000000E+01 0.  0.
         -4    1    1    2    0  502  0.75317579927E+02  0.18547978817E+02  0.21292904862E+03  0.22662117732E+03  0.12700000000E+01 0. -1.
<mgrwt>
<rscale>  1 0.14710296E+03</rscale>
<asrwt>0</asrwt>
<pdfrwt beam="1">  1       21 0.46625659E-01 0.14710296E+03</pdfrwt>
<pdfrwt beam="2">  1       -4 0.11045127E-01 0.14710296E+03</pdfrwt>
<totfact> 0.11670386E+04</totfact>
</mgrwt>
</event>
<event>
 6    4  0.6325740E-003  0.1297376E+03  0.7818608E-02  0.1227846E+00
         21   -1    0    0  501  502  0.00000000000E+00  0.00000000000E+00  0.58764237209E+02  0.58764237209E+02  0.00000000000E+00 0.  1.
         -4   -1    0    0    0  501 -0.00000000000E+00 -0.00000000000E+00 -0.20385684351E+03  0.20386079944E+03  0.12700000000E+01 0.  1.
         25    2    1    2    0    0 -0.27762290102E+02  0.20839857293E+02 -0.17427011416E+03  0.21726002514E+03  0.12500720551E+03 0.  0.
    9000005    1    3    3    0    0  0.29192379838E+02 -0.25973113259E+02 -0.15210220171E+02  0.41942203693E+02  0.10000000000E+01 0.  0.
    9000005    1    3    3    0    0 -0.56954669941E+02  0.46812970552E+02 -0.15905989399E+03  0.17531782145E+03  0.10000000000E+01 0.  0.
         -4    1    1    2    0  502  0.27762290102E+02 -0.20839857293E+02  0.29177507862E+02  0.45365011504E+02  0.12700000000E+01 0. -1.
<mgrwt>
<rscale>  1 0.12973760E+03</rscale>
<asrwt>0</asrwt>
<pdfrwt beam="1">  1       21 0.90406519E-02 0.12973760E+03</pdfrwt>
<pdfrwt beam="2">  1       -4 0.31363951E-01 0.12973760E+03</pdfrwt>
<totfact> 0.38159228E+04</totfact>
</mgrwt>
</event>
<event>
 6    4  0.6325740E-003  0.1383264E+03  0.7818608E-02  0.1215599E+00
         -4   -1    0    0    0  501 -0.00000000000E+00  0.00000000000E+00  0.19803303311E+03  0.19803710537E+03  0.12700000000E+01 0. -1.
         21   -1    0    0  501  502  0.00000000000E+00 -0.00000000000E+00 -0.50213284280E+02  0.50213284280E+02  0.00000000000E+00 0.  1.
         25    2    1    2    0    0  0.47697695975E+02  0.35103321222E+02  0.11855403387E+03  0.18217915283E+03  0.12500748545E+03 0.  0.
    9000005    1    3    3    0    0  0.80957207388E+02  0.55017045545E+02  0.97025991606E+02  0.13782593289E+03  0.10000000000E+01 0.  0.
    9000005    1    3    3    0    0 -0.33259511414E+02 -0.19913724324E+02  0.21528042260E+02  0.44353219945E+02  0.10000000000E+01 0.  0.
         -4    1    1    2    0  502 -0.47697695975E+02 -0.35103321222E+02  0.29265714961E+02  0.66071236815E+02  0.12700000000E+01 0.  1.
<mgrwt>
<rscale>  1 0.13832637E+03</rscale>
<asrwt>0</asrwt>
<pdfrwt beam="2">  1       21 0.77251207E-02 0.13832637E+03</pdfrwt>
<pdfrwt beam="1">  1       -4 0.30468169E-01 0.13832637E+03</pdfrwt>
<totfact> 0.53336020E+04</totfact>
</mgrwt>
</event>
<event>
 6    4  0.6325740E-003  0.1271217E+03  0.7818608E-02  0.1231790E+00
          4   -1    0    0  502    0 -0.00000000000E+00  0.00000000000E+00  0.33738293899E+03  0.33738532929E+03  0.12700000000E+01 0.  1.
         21   -1    0    0  501  502  0.00000000000E+00 -0.00000000000E+00 -0.48936784961E+02  0.48936784961E+02  0.00000000000E+00 0. -1.
         25    2    1    2    0    0 -0.11684054970E+02  0.19865329027E+02  0.32166399721E+03  0.34587231272E+03  0.12501512373E+03 0.  0.
    9000005    1    3    3    0    0 -0.26189761421E+02  0.36640922259E+02  0.32049072959E+03  0.32364141969E+03  0.10000000000E+01 0.  0.
    9000005    1    3    3    0    0  0.14505706451E+02 -0.16775593232E+02  0.11732676282E+01  0.22230893029E+02  0.10000000000E+01 0.  0.
          4    1    1    2  501    0  0.11684054970E+02 -0.19865329027E+02 -0.33217843189E+02  0.40449801533E+02  0.12700000000E+01 0. -1.
<mgrwt>
<rscale>  1 0.12712171E+03</rscale>
<asrwt>0</asrwt>
<pdfrwt beam="2">  1       21 0.75287364E-02 0.12712171E+03</pdfrwt>
<pdfrwt beam="1">  1        4 0.51906518E-01 0.12712171E+03</pdfrwt>
<totfact> 0.19359916E+04</totfact>
</mgrwt>
</event>
<event>
 6    4  0.6325740E-003  0.1310787E+03  0.7818608E-02  0.1225864E+00
         21   -1    0    0  501  502  0.00000000000E+00  0.00000000000E+00  0.21703942999E+03  0.21703942999E+03  0.00000000000E+00 0.  1.
          4   -1    0    0  502    0 -0.00000000000E+00 -0.00000000000E+00 -0.85472133387E+02  0.85481568105E+02  0.12700000000E+01 0. -1.
         25    2    1    2    0    0  0.36099402984E+02 -0.15931743481E+02 -0.31443743129E+02  0.13479741800E+03  0.12499859027E+03 0.  0.
    9000005    1    3    3    0    0  0.85059979771E+01 -0.69593227302E+02 -0.10401471359E+02  0.70885540798E+02  0.10000000000E+01 0.  0.
    9000005    1    3    3    0    0  0.27593405007E+02  0.53661483821E+02 -0.21042271771E+02  0.63911877198E+02  0.10000000000E+01 0.  0.
          4    1    1    2  501    0 -0.36099402984E+02  0.15931743481E+02  0.16301103973E+03  0.16772358010E+03  0.12700000000E+01 0.  1.
<mgrwt>
<rscale>  1 0.13107874E+03</rscale>
<asrwt>0</asrwt>
<pdfrwt beam="1">  1       21 0.33390681E-01 0.13107874E+03</pdfrwt>
<pdfrwt beam="2">  1        4 0.13150571E-01 0.13107874E+03</pdfrwt>
<totfact> 0.16723353E+04</totfact>
</mgrwt>
</event>
<event>
 6    4  0.6325740E-003  0.1330120E+03  0.7818608E-02  0.1223054E+00
         21   -1    0    0  501  502  0.00000000000E+00  0.00000000000E+00  0.21224290145E+03  0.21224290145E+03  0.00000000000E+00 0. -1.
         -4   -1    0    0    0  501 -0.00000000000E+00 -0.00000000000E+00 -0.38900642367E+03  0.38900849676E+03  0.12700000000E+01 0.  1.
         25    2    1    2    0    0 -0.43159179003E+02  0.14305851081E+02 -0.37498562627E+03  0.39787738920E+03  0.12499929931E+03 0.  0.
    9000005    1    3    3    0    0  0.34432395376E+02 -0.17468912917E+02 -0.55811335217E+02  0.67872364837E+02  0.10000000000E+01 0.  0.
    9000005    1    3    3    0    0 -0.77591574378E+02  0.31774763998E+02 -0.31917429105E+03  0.33000502437E+03  0.10000000000E+01 0.  0.
         -4    1    1    2    0  502  0.43159179003E+02 -0.14305851081E+02  0.19822210405E+03  0.20337400901E+03  0.12700000000E+01 0. -1.
<mgrwt>
<rscale>  1 0.13301202E+03</rscale>
<asrwt>0</asrwt>
<pdfrwt beam="1">  1       21 0.32652754E-01 0.13301202E+03</pdfrwt>
<pdfrwt beam="2">  1       -4 0.59847594E-01 0.13301202E+03</pdfrwt>
<totfact> 0.10049479E+03</totfact>
</mgrwt>
</event>
<event>
 6    4  0.6325740E-003  0.1413582E+03  0.7818608E-02  0.1211513E+00
         21   -1    0    0  501  502  0.00000000000E+00  0.00000000000E+00  0.42280203596E+03  0.42280203596E+03  0.00000000000E+00 0.  1.
          4   -1    0    0  502    0 -0.00000000000E+00 -0.00000000000E+00 -0.47619822457E+02  0.47636754621E+02  0.12700000000E+01 0. -1.
         25    2    1    2    0    0 -0.31168456852E+02  0.58182911863E+02  0.69147321596E+02  0.15736421177E+03  0.12500167649E+03 0.  0.
    9000005    1    3    3    0    0  0.46053342559E+02  0.42105882598E+02  0.28161799389E+02  0.68468260201E+02  0.10000000000E+01 0.  0.
    9000005    1    3    3    0    0 -0.77221799410E+02  0.16077029265E+02  0.40985522207E+02  0.88895951566E+02  0.10000000000E+01 0.  0.
          4    1    1    2  501    0  0.31168456852E+02 -0.58182911863E+02  0.30603489191E+03  0.31307457882E+03  0.12700000000E+01 0.  1.
<mgrwt>
<rscale>  1 0.14135821E+03</rscale>
<asrwt>0</asrwt>
<pdfrwt beam="1">  1       21 0.65046465E-01 0.14135821E+03</pdfrwt>
<pdfrwt beam="2">  1        4 0.73275760E-02 0.14135821E+03</pdfrwt>
<totfact> 0.11487829E+04</totfact>
</mgrwt>
</event>
<event>
 6    4  0.6325740E-003  0.1458732E+03  0.7818608E-02  0.1205638E+00
         -4   -1    0    0    0  501 -0.00000000000E+00  0.00000000000E+00  0.27261113576E+03  0.27261409398E+03  0.12700000000E+01 0.  1.
         21   -1    0    0  501  502  0.00000000000E+00 -0.00000000000E+00 -0.11807104447E+03  0.11807104447E+03  0.00000000000E+00 0. -1.
         25    2    1    2    0    0  0.30016099059E+02  0.68928767830E+02  0.23749981796E+03  0.27872054411E+03  0.12500734754E+03 0.  0.
    9000005    1    3    3    0    0 -0.96323259319E+01  0.94874483091E+02  0.12993123513E+03  0.16117405221E+03  0.10000000000E+01 0.  0.
    9000005    1    3    3    0    0  0.39648424991E+02 -0.25945715261E+02  0.10756858283E+03  0.11754649190E+03  0.10000000000E+01 0.  0.
         -4    1    1    2    0  502 -0.30016099059E+02 -0.68928767830E+02 -0.82959726677E+02  0.11196459435E+03  0.12700000000E+01 0. -1.
<mgrwt>
<rscale>  1 0.14587316E+03</rscale>
<asrwt>0</asrwt>
<pdfrwt beam="2">  1       21 0.18164776E-01 0.14587316E+03</pdfrwt>
<pdfrwt beam="1">  1       -4 0.41940927E-01 0.14587316E+03</pdfrwt>
<totfact> 0.63176334E+03</totfact>
</mgrwt>
</event>
<event>
 6    4  0.6325740E-003  0.1276231E+03  0.7818608E-02  0.1231026E+00
         21   -1    0    0  501  502  0.00000000000E+00  0.00000000000E+00  0.28972035914E+03  0.28972035914E+03  0.00000000000E+00 0. -1.
         -4   -1    0    0    0  501 -0.00000000000E+00 -0.00000000000E+00 -0.32926327179E+02  0.32950810635E+02  0.12700000000E+01 0. -1.
         25    2    1    2    0    0  0.16968429646E+02  0.19426333799E+02  0.95695368199E+02  0.15951571502E+03  0.12498939873E+03 0.  0.
    9000005    1    3    3    0    0  0.33771294989E+02  0.67326436262E+02  0.69000758912E+02  0.10215407048E+03  0.10000000000E+01 0.  0.
    9000005    1    3    3    0    0 -0.16802865343E+02 -0.47900102463E+02  0.26694609287E+02  0.57361644543E+02  0.10000000000E+01 0.  0.
         -4    1    1    2    0  502 -0.16968429646E+02 -0.19426333799E+02  0.16109866377E+03  0.16315545476E+03  0.12700000000E+01 0.  1.
<mgrwt>
<rscale>  1 0.12762312E+03</rscale>
<asrwt>0</asrwt>
<pdfrwt beam="1">  1       21 0.44572361E-01 0.12762312E+03</pdfrwt>
<pdfrwt beam="2">  1       -4 0.50676864E-02 0.12762312E+03</pdfrwt>
<totfact> 0.45703940E+04</totfact>
</mgrwt>
</event>
<event>
 6    4  0.6325740E-003  0.1298242E+03  0.7818608E-02  0.1227717E+00
         21   -1    0    0  501  502  0.00000000000E+00  0.00000000000E+00  0.30537552754E+02  0.30537552754E+02  0.00000000000E+00 0.  1.
         -4   -1    0    0    0  501 -0.00000000000E+00 -0.00000000000E+00 -0.45888721383E+03  0.45888897123E+03  0.12700000000E+01 0. -1.
         25    2    1    2    0    0 -0.31775833027E+02 -0.14814831809E+02 -0.43478928590E+03  0.45375770744E+03  0.12500060449E+03 0.  0.
    9000005    1    3    3    0    0  0.10891650398E+02  0.26671311613E+02 -0.34394897410E+03  0.34515486915E+03  0.10000000000E+01 0.  0.
    9000005    1    3    3    0    0 -0.42667483425E+02 -0.41486143422E+02 -0.90840311801E+02  0.10860283830E+03  0.10000000000E+01 0.  0.
         -4    1    1    2    0  502  0.31775833027E+02  0.14814831809E+02  0.64396248190E+01  0.35668816548E+02  0.12700000000E+01 0.  1.
<mgrwt>
<rscale>  1 0.12982424E+03</rscale>
<asrwt>0</asrwt>
<pdfrwt beam="1">  1       21 0.46980848E-02 0.12982424E+03</pdfrwt>
<pdfrwt beam="2">  1       -4 0.70600204E-01 0.12982424E+03</pdfrwt>
<totfact> 0.22615649E+04</totfact>
</mgrwt>
</event>
<event>
 6    4  0.6325740E-003  0.1280751E+03  0.7818608E-02  0.1230340E+00
         -4   -1    0    0    0  501 -0.00000000000E+00  0.00000000000E+00  0.11687728263E+04  0.11687735163E+04  0.12700000000E+01 0.  1.
         21   -1    0    0  501  502  0.00000000000E+00 -0.00000000000E+00 -0.80416093200E+01  0.80416093200E+01  0.00000000000E+00 0. -1.
         25    2    1    2    0    0  0.25192120663E+02 -0.12023661579E+02  0.11207073743E+04  0.11280018870E+04  0.12499610758E+03 0.  0.
    9000005    1    3    3    0    0  0.80943683153E+01 -0.12180175102E+02  0.11039259699E+04  0.11040232890E+04  0.10000000000E+01 0.  0.
    9000005    1    3    3    0    0  0.17097752347E+02  0.15651352281E+00  0.16781404339E+02  0.23978598028E+02  0.10000000000E+01 0.  0.
         -4    1    1    2    0  502 -0.25192120663E+02  0.12023661579E+02  0.40023842738E+02  0.48813238663E+02  0.12700000000E+01 0. -1.
<mgrwt>
<rscale>  1 0.12807513E+03</rscale>
<asrwt>0</asrwt>
<pdfrwt beam="2">  1       21 0.12371716E-02 0.12807513E+03</pdfrwt>
<pdfrwt beam="1">  1       -4 0.17981884E+00 0.12807513E+03</pdfrwt>
<totfact> 0.21245605E+04</totfact>
</mgrwt>
</event>
<event>
 6    4  0.6325740E-003  0.1702313E+03  0.7818608E-02  0.1177607E+00
          4   -1    0    0  502    0 -0.00000000000E+00  0.00000000000E+00  0.15249766107E+04  0.15249771395E+04  0.12700000000E+01 0. -1.
         21   -1    0    0  501  502  0.00000000000E+00 -0.00000000000E+00 -0.18479998772E+02  0.18479998772E+02  0.00000000000E+00 0.  1.
         25    2    1    2    0    0  0.36481692482E+02 -0.10964491935E+03  0.12572678932E+04  0.12687400304E+04  0.12500314911E+03 0.  0.
    9000005    1    3    3    0    0  0.56011533729E+02 -0.19747105790E+02  0.80621656199E+03  0.80840174723E+03  0.10000000000E+01 0.  0.
    9000005    1    3    3    0    0 -0.19529841247E+02 -0.89897813559E+02  0.45105133118E+03  0.46033828316E+03  0.10000000000E+01 0.  0.
          4    1    1    2  501    0 -0.36481692482E+02  0.10964491935E+03  0.24922871877E+03  0.27471710792E+03  0.12700000000E+01 0.  1.
<mgrwt>
<rscale>  1 0.17023134E+03</rscale>
<asrwt>0</asrwt>
<pdfrwt beam="2">  1       21 0.28430779E-02 0.17023134E+03</pdfrwt>
<pdfrwt beam="1">  1        4 0.23461508E+00 0.17023134E+03</pdfrwt>
<totfact> 0.25932058E+03</totfact>
</mgrwt>
</event>
<event>
 6    4  0.6325740E-003  0.1294056E+03  0.7818608E-02  0.1228340E+00
         21   -1    0    0  501  502  0.00000000000E+00  0.00000000000E+00  0.23354192048E+02  0.23354192048E+02  0.00000000000E+00 0.  1.
         -4   -1    0    0    0  501 -0.00000000000E+00 -0.00000000000E+00 -0.51415714882E+03  0.51415871730E+03  0.12700000000E+01 0. -1.
         25    2    1    2    0    0  0.28414283277E+02 -0.17727203566E+02 -0.48686320902E+03  0.50376739479E+03  0.12499671403E+03 0.  0.
    9000005    1    3    3    0    0  0.14078292611E+02 -0.47207852031E+02 -0.45625099877E+03  0.45890386084E+03  0.10000000000E+01 0.  0.
    9000005    1    3    3    0    0  0.14335990666E+02  0.29480648465E+02 -0.30612210254E+02  0.44863533955E+02  0.10000000000E+01 0.  0.
         -4    1    1    2    0  502 -0.28414283277E+02  0.17727203566E+02 -0.39397477461E+01  0.33745514557E+02  0.12700000000E+01 0.  1.
<mgrwt>
<rscale>  1 0.12940558E+03</rscale>
<asrwt>0</asrwt>
<pdfrwt beam="1">  1       21 0.35929528E-02 0.12940558E+03</pdfrwt>
<pdfrwt beam="2">  1       -4 0.79103873E-01 0.12940558E+03</pdfrwt>
<totfact> 0.27559328E+04</totfact>
</mgrwt>
</event>
<event>
 6    4  0.6325740E-003  0.1361703E+03  0.7818608E-02  0.1218577E+00
         -4   -1    0    0    0  501 -0.00000000000E+00  0.00000000000E+00  0.49736119365E+03  0.49736281510E+03  0.12700000000E+01 0.  1.
         21   -1    0    0  501  502  0.00000000000E+00 -0.00000000000E+00 -0.20070818787E+02  0.20070818787E+02  0.00000000000E+00 0. -1.
         25    2    1    2    0    0  0.53986695353E+02 -0.17475723203E+01  0.40434201764E+03  0.42665537104E+03  0.12499888450E+03 0.  0.
    9000005    1    3    3    0    0  0.72371252193E+02 -0.15123954535E+02  0.11695293021E+03  0.13836661457E+03  0.10000000000E+01 0.  0.
    9000005    1    3    3    0    0 -0.18384556840E+02  0.13376382215E+02  0.28738908743E+03  0.28828875647E+03  0.10000000000E+01 0.  0.
         -4    1    1    2    0  502 -0.53986695353E+02  0.17475723203E+01  0.72948357224E+02  0.90778262848E+02  0.12700000000E+01 0. -1.
<mgrwt>
<rscale>  1 0.13617026E+03</rscale>
<asrwt>0</asrwt>
<pdfrwt beam="2">  1       21 0.30878187E-02 0.13617026E+03</pdfrwt>
<pdfrwt beam="1">  1       -4 0.76520313E-01 0.13617026E+03</pdfrwt>
<totfact> 0.38292202E+04</totfact>
</mgrwt>
</event>
<event>
 6    4  0.6325740E-003  0.1276959E+03  0.7818608E-02  0.1230915E+00
         21   -1    0    0  501  502  0.00000000000E+00  0.00000000000E+00  0.10709855541E+03  0.10709855541E+03  0.00000000000E+00 0.  1.
          4   -1    0    0  502    0 -0.00000000000E+00 -0.00000000000E+00 -0.72844806404E+02  0.72855876359E+02  0.12700000000E+01 0.  1.
         25    2    1    2    0    0 -0.20649214273E+02 -0.15960247453E+02 -0.10504779087E+02  0.12812723538E+03  0.12500047405E+03 0.  0.
    9000005    1    3    3    0    0  0.33062672034E+02 -0.48885283678E+02 -0.23953294517E+02  0.63699855263E+02  0.10000000000E+01 0.  0.
    9000005    1    3    3    0    0 -0.53711886306E+02  0.32925036225E+02  0.13448515430E+02  0.64427380113E+02  0.10000000000E+01 0.  0.
          4    1    1    2  501    0  0.20649214273E+02  0.15960247453E+02  0.44758528096E+02  0.51827196395E+02  0.12700000000E+01 0. -1.
<mgrwt>
<rscale>  1 0.12769588E+03</rscale>
<asrwt>0</asrwt>
<pdfrwt beam="1">  1       21 0.16476701E-01 0.12769588E+03</pdfrwt>
<pdfrwt beam="2">  1        4 0.11208324E-01 0.12769588E+03</pdfrwt>
<totfact> 0.82705220E+04</totfact>
</mgrwt>
</event>
<event>
 6    4  0.6325740E-003  0.1292524E+03  0.7818608E-02  0.1228569E+00
         21   -1    0    0  501  502  0.00000000000E+00  0.00000000000E+00  0.57090300856E+03  0.57090300856E+03  0.00000000000E+00 0.  1.
         -4   -1    0    0    0  501 -0.00000000000E+00 -0.00000000000E+00 -0.19813840685E+02  0.19854500313E+02  0.12700000000E+01 0. -1.
         25    2    1    2    0    0  0.32600346862E+02  0.45075886221E+01  0.20002353889E+03  0.23815037660E+03  0.12499233895E+03 0.  0.
    9000005    1    3    3    0    0 -0.16405234170E+02  0.17520621183E+02 -0.69869544608E+01  0.25018421362E+02  0.10000000000E+01 0.  0.
    9000005    1    3    3    0    0  0.49005581031E+02 -0.13013032561E+02  0.20701049335E+03  0.21313195524E+03  0.10000000000E+01 0.  0.
         -4    1    1    2    0  502 -0.32600346862E+02 -0.45075886221E+01  0.35106562899E+03  0.35260713227E+03  0.12700000000E+01 0.  1.
<mgrwt>
<rscale>  1 0.12925241E+03</rscale>
<asrwt>0</asrwt>
<pdfrwt beam="1">  1       21 0.87831220E-01 0.12925241E+03</pdfrwt>
<pdfrwt beam="2">  1       -4 0.30515199E-02 0.12925241E+03</pdfrwt>
<totfact> 0.23912514E+04</totfact>
</mgrwt>
</event>
<event>
 6    4  0.6325740E-003  0.1273712E+03  0.7818608E-02  0.1231409E+00
         -4   -1    0    0    0  501 -0.00000000000E+00  0.00000000000E+00  0.10124067789E+03  0.10124864325E+03  0.12700000000E+01 0.  1.
         21   -1    0    0  501  502  0.00000000000E+00 -0.00000000000E+00 -0.57899186883E+02  0.57899186883E+02  0.00000000000E+00 0.  1.
         25    2    1    2    0    0 -0.14822953861E+02 -0.19456382823E+02  0.43680543923E+02  0.13465296025E+03  0.12500063597E+03 0.  0.
    9000005    1    3    3    0    0 -0.62428277472E+02 -0.34829910277E+02  0.54845519418E+01  0.71704203420E+02  0.10000000000E+01 0.  0.
    9000005    1    3    3    0    0  0.47605323611E+02  0.15373527454E+02  0.38195991981E+02  0.62948756825E+02  0.10000000000E+01 0.  0.
         -4    1    1    2    0  502  0.14822953861E+02  0.19456382823E+02 -0.33905291876E+00  0.24494869883E+02  0.12700000000E+01 0. -1.
<mgrwt>
<rscale>  1 0.12737123E+03</rscale>
<asrwt>0</asrwt>
<pdfrwt beam="2">  1       21 0.89075673E-02 0.12737123E+03</pdfrwt>
<pdfrwt beam="1">  1       -4 0.15577173E-01 0.12737123E+03</pdfrwt>
<totfact> 0.13956559E+05</totfact>
</mgrwt>
</event>
<event>
 6    4  0.6325740E-003  0.1267160E+03  0.7818608E-02  0.1232412E+00
         21   -1    0    0  501  502  0.00000000000E+00  0.00000000000E+00  0.19351031344E+02  0.19351031344E+02  0.00000000000E+00 0.  1.
         -4   -1    0    0    0  501 -0.00000000000E+00 -0.00000000000E+00 -0.28254683767E+03  0.28254969187E+03  0.12700000000E+01 0.  1.
         25    2    1    2    0    0  0.12602898611E+02  0.16664435986E+02 -0.23162816248E+03  0.26402374448E+03  0.12498158071E+03 0.  0.
    9000005    1    3    3    0    0  0.29400882429E+02  0.37025390126E+02 -0.20994608510E+02  0.51740361306E+02  0.10000000000E+01 0.  0.
    9000005    1    3    3    0    0 -0.16797983818E+02 -0.20360954140E+02 -0.21063355397E+03  0.21228338318E+03  0.10000000000E+01 0.  0.
         -4    1    1    2    0  502 -0.12602898611E+02 -0.16664435986E+02 -0.31567643842E+02  0.37876978732E+02  0.12700000000E+01 0. -1.
<mgrwt>
<rscale>  1 0.12671595E+03</rscale>
<asrwt>0</asrwt>
<pdfrwt beam="1">  1       21 0.29770819E-02 0.12671595E+03</pdfrwt>
<pdfrwt beam="2">  1       -4 0.43472168E-01 0.12671595E+03</pdfrwt>
<totfact> 0.13098267E+05</totfact>
</mgrwt>
</event>
<event>
 6    4  0.6325740E-003  0.1302855E+03  0.7818608E-02  0.1227033E+00
         21   -1    0    0  501  502  0.00000000000E+00  0.00000000000E+00  0.85736766230E+01  0.85736766230E+01  0.00000000000E+00 0. -1.
         -4   -1    0    0    0  501 -0.00000000000E+00 -0.00000000000E+00 -0.82118822233E+03  0.82118920438E+03  0.12700000000E+01 0. -1.
         25    2    1    2    0    0  0.36277903866E+02 -0.57082331289E+01 -0.66508538287E+03  0.67772625048E+03  0.12500253536E+03 0.  0.
    9000005    1    3    3    0    0 -0.14601532424E+02 -0.38045526007E+02 -0.82420391657E+02  0.91949919843E+02  0.10000000000E+01 0.  0.
    9000005    1    3    3    0    0  0.50879436290E+02  0.32337292878E+02 -0.58266499121E+03  0.58577633063E+03  0.10000000000E+01 0.  0.
         -4    1    1    2    0  502 -0.36277903866E+02  0.57082331289E+01 -0.14752916284E+03  0.15203663053E+03  0.12700000000E+01 0.  1.
<mgrwt>
<rscale>  1 0.13028547E+03</rscale>
<asrwt>0</asrwt>
<pdfrwt beam="1">  1       21 0.13190271E-02 0.13028547E+03</pdfrwt>
<pdfrwt beam="2">  1       -4 0.12634397E+00 0.13028547E+03</pdfrwt>
<totfact> 0.47400060E+04</totfact>
</mgrwt>
</event>
<event>
 6    4  0.6325740E-003  0.1355557E+03  0.7818608E-02  0.1219437E+00
         21   -1    0    0  501  502  0.00000000000E+00  0.00000000000E+00  0.52897195308E+02  0.52897195308E+02  0.00000000000E+00 0. -1.
         -4   -1    0    0    0  501 -0.00000000000E+00 -0.00000000000E+00 -0.20011582741E+03  0.20011985728E+03  0.12700000000E+01 0.  1.
         25    2    1    2    0    0  0.28829584224E+02  0.43798426689E+02 -0.14781814737E+03  0.20056307824E+03  0.12500358617E+03 0.  0.
    9000005    1    3    3    0    0 -0.17466038869E+02  0.61398875604E+02 -0.25775605567E+02  0.68849591731E+02  0.10000000000E+01 0.  0.
    9000005    1    3    3    0    0  0.46295623092E+02 -0.17600448915E+02 -0.12204254180E+03  0.13171348651E+03  0.10000000000E+01 0.  0.
         -4    1    1    2    0  502 -0.28829584224E+02 -0.43798426689E+02  0.59951526501E+00  0.52453974353E+02  0.12700000000E+01 0. -1.
<mgrwt>
<rscale>  1 0.13555568E+03</rscale>
<asrwt>0</asrwt>
<pdfrwt beam="1">  1       21 0.81380299E-02 0.13555568E+03</pdfrwt>
<pdfrwt beam="2">  1       -4 0.30788534E-01 0.13555568E+03</pdfrwt>
<totfact> 0.47678779E+04</totfact>
</mgrwt>
</event>
<event>
 6    4  0.6325740E-003  0.1275347E+03  0.7818608E-02  0.1231160E+00
         -4   -1    0    0    0  501 -0.00000000000E+00  0.00000000000E+00  0.58214363227E+03  0.58214501758E+03  0.12700000000E+01 0.  1.
         21   -1    0    0  501  502  0.00000000000E+00 -0.00000000000E+00 -0.16138441205E+02  0.16138441205E+02  0.00000000000E+00 0. -1.
         25    2    1    2    0    0 -0.52633900311E+01 -0.24753371239E+02  0.55696573305E+03  0.57138071983E+03  0.12499866613E+03 0.  0.
    9000005    1    3    3    0    0  0.46850029743E+02  0.21722271753E+02  0.15460067700E+03  0.16300046536E+03  0.10000000000E+01 0.  0.
    9000005    1    3    3    0    0 -0.52113419775E+02 -0.46475642992E+02  0.40236505605E+03  0.40838025447E+03  0.10000000000E+01 0.  0.
         -4    1    1    2    0  502  0.52633900311E+01  0.24753371239E+02  0.90394580167E+01  0.26902738960E+02  0.12700000000E+01 0. -1.
<mgrwt>
<rscale>  1 0.12753470E+03</rscale>
<asrwt>0</asrwt>
<pdfrwt beam="2">  1       21 0.24828376E-02 0.12753470E+03</pdfrwt>
<pdfrwt beam="1">  1       -4 0.89564493E-01 0.12753470E+03</pdfrwt>
<totfact> 0.38232904E+04</totfact>
</mgrwt>
</event>
<event>
 6    4  0.6325740E-003  0.1266699E+03  0.7818608E-02  0.1232482E+00
         21   -1    0    0  501  502  0.00000000000E+00  0.00000000000E+00  0.47133483074E+03  0.47133483074E+03  0.00000000000E+00 0.  1.
          4   -1    0    0  502    0 -0.00000000000E+00 -0.00000000000E+00 -0.12212456262E+02  0.12278313726E+02  0.12700000000E+01 0.  1.
         25    2    1    2    0    0  0.15601840673E+02  0.13311796907E+02  0.34205212975E+03  0.36475324177E+03  0.12499858617E+03 0.  0.
    9000005    1    3    3    0    0 -0.20962742033E+02 -0.24368563899E+01  0.75560040353E+00  0.21141091613E+02  0.10000000000E+01 0.  0.
    9000005    1    3    3    0    0  0.36564582706E+02  0.15748653297E+02  0.34129652935E+03  0.34361215016E+03  0.10000000000E+01 0.  0.
          4    1    1    2  501    0 -0.15601840673E+02 -0.13311796907E+02  0.11707024472E+03  0.11885990269E+03  0.12700000000E+01 0. -1.
<mgrwt>
<rscale>  1 0.12666992E+03</rscale>
<asrwt>0</asrwt>
<pdfrwt beam="1">  1       21 0.72513037E-01 0.12666992E+03</pdfrwt>
<pdfrwt beam="2">  1        4 0.18840374E-02 0.12666992E+03</pdfrwt>
<totfact> 0.77303437E+04</totfact>
</mgrwt>
</event>
<event>
 6    4  0.6325740E-003  0.1303991E+03  0.7818608E-02  0.1226865E+00
         21   -1    0    0  501  502  0.00000000000E+00  0.00000000000E+00  0.12365705584E+03  0.12365705584E+03  0.00000000000E+00 0. -1.
         -4   -1    0    0    0  501 -0.00000000000E+00 -0.00000000000E+00 -0.13872008761E+03  0.13872590099E+03  0.12700000000E+01 0.  1.
         25    2    1    2    0    0  0.33405548519E+02  0.16212766010E+02 -0.10348496112E+03  0.16647239983E+03  0.12500055309E+03 0.  0.
    9000005    1    3    3    0    0  0.35050671925E+02 -0.14528774945E+02  0.17379058097E+02  0.41745257984E+02  0.10000000000E+01 0.  0.
    9000005    1    3    3    0    0 -0.16451234060E+01  0.30741540955E+02 -0.12086401922E+03  0.12472714185E+03  0.10000000000E+01 0.  0.
         -4    1    1    2    0  502 -0.33405548519E+02 -0.16212766010E+02  0.88421929353E+02  0.95910557000E+02  0.12700000000E+01 0. -1.
<mgrwt>
<rscale>  1 0.13039909E+03</rscale>
<asrwt>0</asrwt>
<pdfrwt beam="1">  1       21 0.19024163E-01 0.13039909E+03</pdfrwt>
<pdfrwt beam="2">  1       -4 0.21342501E-01 0.13039909E+03</pdfrwt>
<totfact> 0.20640426E+04</totfact>
</mgrwt>
</event>
<event>
 6    4  0.6325740E-003  0.1290529E+03  0.7818608E-02  0.1228868E+00
         21   -1    0    0  501  502  0.00000000000E+00  0.00000000000E+00  0.97413296400E+03  0.97413296400E+03  0.00000000000E+00 0.  1.
         -4   -1    0    0    0  501 -0.00000000000E+00 -0.00000000000E+00 -0.99903787563E+01  0.10070777909E+02  0.12700000000E+01 0. -1.
         25    2    1    2    0    0 -0.83556162480E+01 -0.30989716752E+02  0.42637284833E+03  0.44547553427E+03  0.12499786787E+03 0.  0.
    9000005    1    3    3    0    0 -0.64196314352E+02 -0.26628110743E+02  0.18342907880E+03  0.19615669759E+03  0.10000000000E+01 0.  0.
    9000005    1    3    3    0    0  0.55840698104E+02 -0.43616060094E+01  0.24294376953E+03  0.24931883668E+03  0.10000000000E+01 0.  0.
         -4    1    1    2    0  502  0.83556162480E+01  0.30989716752E+02  0.53776973691E+03  0.53872820764E+03  0.12700000000E+01 0.  1.
<mgrwt>
<rscale>  1 0.12905288E+03</rscale>
<asrwt>0</asrwt>
<pdfrwt beam="1">  1       21 0.14986654E+00 0.12905288E+03</pdfrwt>
<pdfrwt beam="2">  1       -4 0.15432303E-02 0.12905288E+03</pdfrwt>
<totfact> 0.18804339E+04</totfact>
</mgrwt>
</event>
<event>
 6    4  0.6325740E-003  0.1313420E+03  0.7818608E-02  0.1225478E+00
          4   -1    0    0  502    0 -0.00000000000E+00  0.00000000000E+00  0.15348863540E+03  0.15349388945E+03  0.12700000000E+01 0.  1.
         21   -1    0    0  501  502  0.00000000000E+00 -0.00000000000E+00 -0.48825175332E+02  0.48825175332E+02  0.00000000000E+00 0.  1.
         25    2    1    2    0    0 -0.34100366998E+02  0.21507757049E+02  0.90775409050E+02  0.15965866741E+03  0.12500118619E+03 0.  0.
    9000005    1    3    3    0    0 -0.33998844781E+02  0.22801320159E+02  0.12184705365E+03  0.12854386851E+03  0.10000000000E+01 0.  0.
    9000005    1    3    3    0    0 -0.10152221660E+00 -0.12935631095E+01 -0.31071644603E+02  0.31114798901E+02  0.10000000000E+01 0.  0.
          4    1    1    2  501    0  0.34100366998E+02 -0.21507757049E+02  0.13888051023E+02  0.42660397371E+02  0.12700000000E+01 0. -1.
<mgrwt>
<rscale>  1 0.13134198E+03</rscale>
<asrwt>0</asrwt>
<pdfrwt beam="2">  1       21 0.75115655E-02 0.13134198E+03</pdfrwt>
<pdfrwt beam="1">  1        4 0.23615311E-01 0.13134198E+03</pdfrwt>
<totfact> 0.89365016E+04</totfact>
</mgrwt>
</event>
<event>
 6    4  0.6325740E-003  0.1303713E+03  0.7818608E-02  0.1226906E+00
          4   -1    0    0  502    0 -0.00000000000E+00  0.00000000000E+00  0.89837342111E+01  0.90730579396E+01  0.12700000000E+01 0.  1.
         21   -1    0    0  501  502  0.00000000000E+00 -0.00000000000E+00 -0.92311949155E+03  0.92311949155E+03  0.00000000000E+00 0. -1.
         25    2    1    2    0    0 -0.32199414313E+02  0.18319015130E+02 -0.51146240493E+03  0.52781669680E+03  0.12499714064E+03 0.  0.
    9000005    1    3    3    0    0 -0.13449345790E+02  0.72107892761E+02 -0.29443282575E+03  0.30343388403E+03  0.10000000000E+01 0.  0.
    9000005    1    3    3    0    0 -0.18750068523E+02 -0.53788877630E+02 -0.21702957918E+03  0.22438281277E+03  0.10000000000E+01 0.  0.
          4    1    1    2  501    0  0.32199414313E+02 -0.18319015130E+02 -0.40267335241E+03  0.40437585269E+03  0.12700000000E+01 0. -1.
<mgrwt>
<rscale>  1 0.13037129E+03</rscale>
<asrwt>0</asrwt>
<pdfrwt beam="2">  1       21 0.14201834E+00 0.13037129E+03</pdfrwt>
<pdfrwt beam="1">  1        4 0.13890516E-02 0.13037129E+03</pdfrwt>
<totfact> 0.25362555E+04</totfact>
</mgrwt>
</event>
<event>
 6    4  0.6325740E-003  0.1505692E+03  0.7818608E-02  0.1199775E+00
         -4   -1    0    0    0  501 -0.00000000000E+00  0.00000000000E+00  0.38976613151E+03  0.38976820057E+03  0.12700000000E+01 0. -1.
         21   -1    0    0  501  502  0.00000000000E+00 -0.00000000000E+00 -0.80819022802E+02  0.80819022802E+02  0.00000000000E+00 0.  1.
         25    2    1    2    0    0 -0.69504474286E+02 -0.47059663047E+02  0.34711945603E+03  0.37836886928E+03  0.12500240257E+03 0.  0.
    9000005    1    3    3    0    0 -0.83275972239E+02  0.11092624349E+02  0.25566041030E+03  0.26911183412E+03  0.10000000000E+01 0.  0.
    9000005    1    3    3    0    0  0.13771497953E+02 -0.58152287396E+02  0.91459045729E+02  0.10925703516E+03  0.10000000000E+01 0.  0.
         -4    1    1    2    0  502  0.69504474286E+02  0.47059663047E+02 -0.38172347322E+02  0.92218354095E+02  0.12700000000E+01 0.  1.
<mgrwt>
<rscale>  1 0.15056920E+03</rscale>
<asrwt>0</asrwt>
<pdfrwt beam="2">  1       21 0.12433696E-01 0.15056920E+03</pdfrwt>
<pdfrwt beam="1">  1       -4 0.59964946E-01 0.15056920E+03</pdfrwt>
<totfact> 0.60580778E+03</totfact>
</mgrwt>
</event>
<event>
 6    4  0.6325740E-003  0.1269682E+03  0.7818608E-02  0.1232025E+00
         21   -1    0    0  501  502  0.00000000000E+00  0.00000000000E+00  0.27568114698E+02  0.27568114698E+02  0.00000000000E+00 0.  1.
         -4   -1    0    0    0  501 -0.00000000000E+00 -0.00000000000E+00 -0.26301959454E+03  0.26302266064E+03  0.12700000000E+01 0.  1.
         25    2    1    2    0    0  0.87494856947E+01  0.20493952253E+02 -0.23630430649E+03  0.26825480005E+03  0.12499742760E+03 0.  0.
    9000005    1    3    3    0    0 -0.45687674236E+02  0.37493821002E+02 -0.17408574616E+03  0.18384775551E+03  0.10000000000E+01 0.  0.
    9000005    1    3    3    0    0  0.54437159931E+02 -0.16999868748E+02 -0.62218560332E+02  0.84407044544E+02  0.10000000000E+01 0.  0.
         -4    1    1    2    0  502 -0.87494856947E+01 -0.20493952253E+02  0.85282664726E+00  0.22335975290E+02  0.12700000000E+01 0. -1.
<mgrwt>
<rscale>  1 0.12696816E+03</rscale>
<asrwt>0</asrwt>
<pdfrwt beam="1">  1       21 0.42412482E-02 0.12696816E+03</pdfrwt>
<pdfrwt beam="2">  1       -4 0.40467041E-01 0.12696816E+03</pdfrwt>
<totfact> 0.84148607E+04</totfact>
</mgrwt>
</event>
<event>
 6    4  0.6325740E-003  0.1288740E+03  0.7818608E-02  0.1229136E+00
         21   -1    0    0  501  502  0.00000000000E+00  0.00000000000E+00  0.22822111072E+03  0.22822111072E+03  0.00000000000E+00 0. -1.
          4   -1    0    0  502    0 -0.00000000000E+00 -0.00000000000E+00 -0.26009138465E+03  0.26009448527E+03  0.12700000000E+01 0.  1.
         25    2    1    2    0    0  0.28286015871E+02  0.13558133954E+02 -0.24289618132E+03  0.27496736379E+03  0.12499829823E+03 0.  0.
    9000005    1    3    3    0    0  0.69815735604E+02  0.33584612365E+02 -0.18756171671E+03  0.20293486812E+03  0.10000000000E+01 0.  0.
    9000005    1    3    3    0    0 -0.41529719733E+02 -0.20026478411E+02 -0.55334464614E+02  0.72032495672E+02  0.10000000000E+01 0.  0.
          4    1    1    2  501    0 -0.28286015871E+02 -0.13558133954E+02  0.21102590740E+03  0.21334823220E+03  0.12700000000E+01 0. -1.
<mgrwt>
<rscale>  1 0.12887395E+03</rscale>
<asrwt>0</asrwt>
<pdfrwt beam="1">  1       21 0.35110940E-01 0.12887395E+03</pdfrwt>
<pdfrwt beam="2">  1        4 0.40014569E-01 0.12887395E+03</pdfrwt>
<totfact> 0.19712166E+03</totfact>
</mgrwt>
</event>
<event>
 6    4  0.6325740E-003  0.1318161E+03  0.7818608E-02  0.1224786E+00
         21   -1    0    0  501  502  0.00000000000E+00  0.00000000000E+00  0.47975327831E+02  0.47975327831E+02  0.00000000000E+00 0.  1.
          4   -1    0    0  502    0 -0.00000000000E+00 -0.00000000000E+00 -0.15730153933E+03  0.15730666602E+03  0.12700000000E+01 0.  1.
         25    2    1    2    0    0 -0.75842796982E+01  0.41149956605E+02 -0.80461614371E+02  0.15443302047E+03  0.12499858478E+03 0.  0.
    9000005    1    3    3    0    0 -0.12592456095E+02 -0.14926658322E+02  0.26867372237E+02  0.33229967952E+02  0.10000000000E+01 0.  0.
    9000005    1    3    3    0    0  0.50081763970E+01  0.56076614926E+02 -0.10732898661E+03  0.12120305251E+03  0.10000000000E+01 0.  0.
          4    1    1    2  501    0  0.75842796982E+01 -0.41149956605E+02 -0.28864597123E+02  0.50848973384E+02  0.12700000000E+01 0. -1.
<mgrwt>
<rscale>  1 0.13181611E+03</rscale>
<asrwt>0</asrwt>
<pdfrwt beam="1">  1       21 0.73808197E-02 0.13181611E+03</pdfrwt>
<pdfrwt beam="2">  1        4 0.24201924E-01 0.13181611E+03</pdfrwt>
<totfact> 0.88091584E+04</totfact>
</mgrwt>
</event>
<event>
 6    4  0.6325740E-003  0.1269911E+03  0.7818608E-02  0.1231990E+00
         21   -1    0    0  501  502  0.00000000000E+00  0.00000000000E+00  0.10501761140E+02  0.10501761140E+02  0.00000000000E+00 0.  1.
          4   -1    0    0  502    0 -0.00000000000E+00 -0.00000000000E+00 -0.12378703353E+04  0.12378709868E+04  0.12700000000E+01 0.  1.
         25    2    1    2    0    0  0.15462070187E+02 -0.16190527627E+02 -0.12171044572E+04  0.12237115680E+04  0.12500213260E+03 0.  0.
    9000005    1    3    3    0    0  0.49364204744E+01  0.18356469203E+02 -0.11190674241E+04  0.11192293008E+04  0.10000000000E+01 0.  0.
    9000005    1    3    3    0    0  0.10525649712E+02 -0.34546996830E+02 -0.98037033101E+02  0.10448226716E+03  0.10000000000E+01 0.  0.
          4    1    1    2  501    0 -0.15462070187E+02  0.16190527627E+02 -0.10264117022E+02  0.24661179970E+02  0.12700000000E+01 0. -1.
<mgrwt>
<rscale>  1 0.12699111E+03</rscale>
<asrwt>0</asrwt>
<pdfrwt beam="1">  1       21 0.16156552E-02 0.12699111E+03</pdfrwt>
<pdfrwt beam="2">  1        4 0.19044759E+00 0.12699111E+03</pdfrwt>
<totfact> 0.11848521E+04</totfact>
</mgrwt>
</event>
<event>
 6    4  0.6325740E-003  0.1317816E+03  0.7818608E-02  0.1224836E+00
         21   -1    0    0  501  502  0.00000000000E+00  0.00000000000E+00  0.45077406826E+03  0.45077406826E+03  0.00000000000E+00 0. -1.
         -4   -1    0    0    0  501 -0.00000000000E+00 -0.00000000000E+00 -0.32891735582E+02  0.32916244767E+02  0.12700000000E+01 0.  1.
         25    2    1    2    0    0  0.13849905391E+02  0.39362906730E+02  0.10626424107E+03  0.16928817209E+03  0.12500055190E+03 0.  0.
    9000005    1    3    3    0    0 -0.47086460205E+02  0.40368130222E+02  0.83946788489E+02  0.10437808185E+03  0.10000000000E+01 0.  0.
    9000005    1    3    3    0    0  0.60936365596E+02 -0.10052234922E+01  0.22317452582E+02  0.64910090249E+02  0.10000000000E+01 0.  0.
         -4    1    1    2    0  502 -0.13849905391E+02 -0.39362906730E+02  0.31161809161E+03  0.31440214093E+03  0.12700000000E+01 0. -1.
<mgrwt>
<rscale>  1 0.13178162E+03</rscale>
<asrwt>0</asrwt>
<pdfrwt beam="1">  1       21 0.69349852E-01 0.13178162E+03</pdfrwt>
<pdfrwt beam="2">  1       -4 0.50622903E-02 0.13178162E+03</pdfrwt>
<totfact> 0.18154887E+04</totfact>
</mgrwt>
</event>
<event>
 6    4  0.6325740E-003  0.1302680E+03  0.7818608E-02  0.1227059E+00
         21   -1    0    0  501  502  0.00000000000E+00  0.00000000000E+00  0.43536556517E+02  0.43536556517E+02  0.00000000000E+00 0.  1.
          4   -1    0    0  502    0 -0.00000000000E+00 -0.00000000000E+00 -0.21586247817E+03  0.21586621408E+03  0.12700000000E+01 0. -1.
         25    2    1    2    0    0  0.74161243848E+01  0.35929885123E+02 -0.17971005377E+03  0.22195822690E+03  0.12499518197E+03 0.  0.
    9000005    1    3    3    0    0  0.50627808621E+02  0.92101316756E+01 -0.21483784525E+02  0.55772345555E+02  0.10000000000E+01 0.  0.
    9000005    1    3    3    0    0 -0.43211684236E+02  0.26719753448E+02 -0.15822626925E+03  0.16618588134E+03  0.10000000000E+01 0.  0.
          4    1    1    2  501    0 -0.74161243848E+01 -0.35929885123E+02  0.73841321145E+01  0.37444543701E+02  0.12700000000E+01 0.  1.
<mgrwt>
<rscale>  1 0.13026800E+03</rscale>
<asrwt>0</asrwt>
<pdfrwt beam="1">  1       21 0.66979318E-02 0.13026800E+03</pdfrwt>
<pdfrwt beam="2">  1        4 0.33211324E-01 0.13026800E+03</pdfrwt>
<totfact> 0.57373376E+04</totfact>
</mgrwt>
</event>
<event>
 6    4  0.6325740E-003  0.1284130E+03  0.7818608E-02  0.1229830E+00
         21   -1    0    0  501  502  0.00000000000E+00  0.00000000000E+00  0.12105903617E+02  0.12105903617E+02  0.00000000000E+00 0.  1.
         -4   -1    0    0    0  501 -0.00000000000E+00 -0.00000000000E+00 -0.68729350752E+03  0.68729468089E+03  0.12700000000E+01 0.  1.
         25    2    1    2    0    0 -0.29273784732E+02 -0.27494376635E+01 -0.64336581186E+03  0.65605599743E+03  0.12500156005E+03 0.  0.
    9000005    1    3    3    0    0  0.11420259149E+02  0.38239122428E+02 -0.49851808458E+03  0.50011392048E+03  0.10000000000E+01 0.  0.
    9000005    1    3    3    0    0 -0.40694043881E+02 -0.40988560091E+02 -0.14484772728E+03  0.15594207695E+03  0.10000000000E+01 0.  0.
         -4    1    1    2    0  502  0.29273784732E+02  0.27494376635E+01 -0.31821792044E+02  0.43344587077E+02  0.12700000000E+01 0. -1.
<mgrwt>
<rscale>  1 0.12841302E+03</rscale>
<asrwt>0</asrwt>
<pdfrwt beam="1">  1       21 0.18624464E-02 0.12841302E+03</pdfrwt>
<pdfrwt beam="2">  1       -4 0.10574270E+00 0.12841302E+03</pdfrwt>
<totfact> 0.41618356E+04</totfact>
</mgrwt>
</event>
<event>
 6    4  0.6325740E-003  0.1274022E+03  0.7818608E-02  0.1231362E+00
         21   -1    0    0  501  502  0.00000000000E+00  0.00000000000E+00  0.10270168705E+03  0.10270168705E+03  0.00000000000E+00 0.  1.
         -4   -1    0    0    0  501 -0.00000000000E+00 -0.00000000000E+00 -0.12325920041E+03  0.12326574295E+03  0.12700000000E+01 0. -1.
         25    2    1    2    0    0 -0.22148705824E+02 -0.10758721285E+02 -0.87548263998E+02  0.15458333637E+03  0.12499997640E+03 0.  0.
    9000005    1    3    3    0    0 -0.11395059112E+02 -0.60925954961E+01 -0.11967264700E+03  0.12037237861E+03  0.10000000000E+01 0.  0.
    9000005    1    3    3    0    0 -0.10753646712E+02 -0.46661257886E+01  0.32124383003E+02  0.34210957759E+02  0.10000000000E+01 0.  0.
         -4    1    1    2    0  502  0.22148705824E+02  0.10758721285E+02  0.66990750636E+02  0.71384093635E+02  0.12700000000E+01 0.  1.
<mgrwt>
<rscale>  1 0.12740216E+03</rscale>
<asrwt>0</asrwt>
<pdfrwt beam="1">  1       21 0.15800260E-01 0.12740216E+03</pdfrwt>
<pdfrwt beam="2">  1       -4 0.18964061E-01 0.12740216E+03</pdfrwt>
<totfact> 0.35729098E+04</totfact>
</mgrwt>
</event>
<event>
 6    4  0.6325740E-003  0.1318912E+03  0.7818608E-02  0.1224676E+00
          4   -1    0    0  502    0 -0.00000000000E+00  0.00000000000E+00  0.12885885466E+02  0.12948318202E+02  0.12700000000E+01 0. -1.
         21   -1    0    0  501  502  0.00000000000E+00 -0.00000000000E+00 -0.58590577417E+03  0.58590577417E+03  0.00000000000E+00 0. -1.
         25    2    1    2    0    0  0.27050174398E+02  0.32230370564E+02 -0.43678319470E+03  0.45626181203E+03  0.12499909287E+03 0.  0.
    9000005    1    3    3    0    0  0.37803046983E+01 -0.23388185119E+02 -0.10842302199E+02  0.26073998998E+02  0.10000000000E+01 0.  0.
    9000005    1    3    3    0    0  0.23269869700E+02  0.55618555683E+02 -0.42594089250E+03  0.43018781303E+03  0.10000000000E+01 0.  0.
          4    1    1    2  501    0 -0.27050174398E+02 -0.32230370564E+02 -0.13623669400E+03  0.14259228035E+03  0.12700000000E+01 0.  1.
<mgrwt>
<rscale>  1 0.13189117E+03</rscale>
<asrwt>0</asrwt>
<pdfrwt beam="2">  1       21 0.90139357E-01 0.13189117E+03</pdfrwt>
<pdfrwt beam="1">  1        4 0.19873522E-02 0.13189117E+03</pdfrwt>
<totfact> 0.43932317E+04</totfact>
</mgrwt>
</event>
<event>
 6    4  0.6325740E-003  0.1302354E+03  0.7818608E-02  0.1227107E+00
          4   -1    0    0  502    0 -0.00000000000E+00  0.00000000000E+00  0.43554274368E+03  0.43554459528E+03  0.12700000000E+01 0. -1.
         21   -1    0    0  501  502  0.00000000000E+00 -0.00000000000E+00 -0.18562437802E+02  0.18562437802E+02  0.00000000000E+00 0. -1.
         25    2    1    2    0    0 -0.36286486898E+02 -0.36334796513E+01  0.38187437974E+03  0.40347156867E+03  0.12502541149E+03 0.  0.
    9000005    1    3    3    0    0  0.22068790831E+02  0.47602167294E+02  0.16158469082E+03  0.16989293737E+03  0.10000000000E+01 0.  0.
    9000005    1    3    3    0    0 -0.58355277728E+02 -0.51235646946E+02  0.22028968892E+03  0.23357863130E+03  0.10000000000E+01 0.  0.
          4    1    1    2  501    0  0.36286486898E+02  0.36334796513E+01  0.35105926140E+02  0.50635464408E+02  0.12700000000E+01 0.  1.
<mgrwt>
<rscale>  1 0.13023542E+03</rscale>
<asrwt>0</asrwt>
<pdfrwt beam="2">  1       21 0.28557600E-02 0.13023542E+03</pdfrwt>
<pdfrwt beam="1">  1        4 0.67010053E-01 0.13023542E+03</pdfrwt>
<totfact> 0.57693458E+04</totfact>
</mgrwt>
</event>
<event>
 6    4  0.6325740E-003  0.1275151E+03  0.7818608E-02  0.1231190E+00
         21   -1    0    0  501  502  0.00000000000E+00  0.00000000000E+00  0.17485544652E+02  0.17485544652E+02  0.00000000000E+00 0. -1.
         -4   -1    0    0    0  501 -0.00000000000E+00 -0.00000000000E+00 -0.38048250202E+03  0.38048462156E+03  0.12700000000E+01 0. -1.
         25    2    1    2    0    0  0.16227448549E+02 -0.19269615212E+02 -0.34250243736E+03  0.36546960611E+03  0.12500186092E+03 0.  0.
    9000005    1    3    3    0    0 -0.14707370853E+02  0.23904372500E+02 -0.11691600611E+02  0.30420705233E+02  0.10000000000E+01 0.  0.
    9000005    1    3    3    0    0  0.30934819402E+02 -0.43173987712E+02 -0.33081083675E+03  0.33504890087E+03  0.10000000000E+01 0.  0.
         -4    1    1    2    0  502 -0.16227448549E+02  0.19269615212E+02 -0.20494520013E+02  0.32500560109E+02  0.12700000000E+01 0.  1.
<mgrwt>
<rscale>  1 0.12751515E+03</rscale>
<asrwt>0</asrwt>
<pdfrwt beam="1">  1       21 0.26900837E-02 0.12751515E+03</pdfrwt>
<pdfrwt beam="2">  1       -4 0.58539482E-01 0.12751515E+03</pdfrwt>
<totfact> 0.84385606E+04</totfact>
</mgrwt>
</event>
<event>
 6    4  0.6325740E-003  0.1273400E+03  0.7818608E-02  0.1231457E+00
         -4   -1    0    0    0  501 -0.00000000000E+00  0.00000000000E+00  0.12095796479E+02  0.12162285659E+02  0.12700000000E+01 0.  1.
         21   -1    0    0  501  502  0.00000000000E+00 -0.00000000000E+00 -0.47937457140E+03  0.47937457140E+03  0.00000000000E+00 0.  1.
         25    2    1    2    0    0 -0.23533755658E+02 -0.60794087157E+01 -0.40945424317E+03  0.42879862120E+03  0.12499873372E+03 0.  0.
    9000005    1    3    3    0    0 -0.11908747901E+02 -0.60760686551E+01 -0.41545964904E+03  0.41567590364E+03  0.10000000000E+01 0.  0.
    9000005    1    3    3    0    0 -0.11625007757E+02 -0.33400606344E-02  0.60054058735E+01  0.13122717562E+02  0.10000000000E+01 0.  0.
         -4    1    1    2    0  502  0.23533755658E+02  0.60794087157E+01 -0.57824531749E+02  0.62738235851E+02  0.12700000000E+01 0. -1.
<mgrwt>
<rscale>  1 0.12734002E+03</rscale>
<asrwt>0</asrwt>
<pdfrwt beam="2">  1       21 0.73749934E-01 0.12734002E+03</pdfrwt>
<pdfrwt beam="1">  1       -4 0.18661357E-02 0.12734002E+03</pdfrwt>
<totfact> 0.75629094E+04</totfact>
</mgrwt>
</event>
<event>
 6    4  0.6325740E-003  0.1398650E+03  0.7818608E-02  0.1213511E+00
          4   -1    0    0  502    0 -0.00000000000E+00  0.00000000000E+00  0.10612091749E+03  0.10612851657E+03  0.12700000000E+01 0. -1.
         21   -1    0    0  501  502  0.00000000000E+00 -0.00000000000E+00 -0.15017362553E+03  0.15017362553E+03  0.00000000000E+00 0.  1.
         25    2    1    2    0    0  0.49950208742E+02  0.37968082527E+02  0.45384866466E+02  0.14704423036E+03  0.12500248371E+03 0.  0.
    9000005    1    3    3    0    0  0.24349863352E+02  0.75121767462E+02  0.60460843875E+02  0.99462100491E+02  0.10000000000E+01 0.  0.
    9000005    1    3    3    0    0  0.25600345390E+02 -0.37153684936E+02 -0.15075977409E+02  0.47582129872E+02  0.10000000000E+01 0.  0.
          4    1    1    2  501    0 -0.49950208742E+02 -0.37968082527E+02 -0.89437574501E+02  0.10925791173E+03  0.12700000000E+01 0.  1.
<mgrwt>
<rscale>  1 0.13986500E+03</rscale>
<asrwt>0</asrwt>
<pdfrwt beam="2">  1       21 0.23103635E-01 0.13986500E+03</pdfrwt>
<pdfrwt beam="1">  1        4 0.16327293E-01 0.13986500E+03</pdfrwt>
<totfact> 0.23361548E+04</totfact>
</mgrwt>
</event>
<event>
 6    4  0.6325740E-003  0.1285679E+03  0.7818608E-02  0.1229596E+00
          4   -1    0    0  502    0 -0.00000000000E+00  0.00000000000E+00  0.28138743966E+02  0.28167389158E+02  0.12700000000E+01 0. -1.
         21   -1    0    0  501  502  0.00000000000E+00 -0.00000000000E+00 -0.22791180058E+03  0.22791180058E+03  0.00000000000E+00 0. -1.
         25    2    1    2    0    0 -0.77675908840E+01 -0.29058979655E+02 -0.14673239188E+03  0.19508997116E+03  0.12499976902E+03 0.  0.
    9000005    1    3    3    0    0  0.14528955816E+02  0.20217887583E+02 -0.13807578627E+03  0.14030600946E+03  0.10000000000E+01 0.  0.
    9000005    1    3    3    0    0 -0.22296546700E+02 -0.49276867238E+02 -0.86566056054E+01  0.54783961705E+02  0.10000000000E+01 0.  0.
          4    1    1    2  501    0  0.77675908840E+01  0.29058979655E+02 -0.53040664740E+02  0.60989218578E+02  0.12700000000E+01 0.  1.
<mgrwt>
<rscale>  1 0.12856789E+03</rscale>
<asrwt>0</asrwt>
<pdfrwt beam="2">  1       21 0.35063353E-01 0.12856789E+03</pdfrwt>
<pdfrwt beam="1">  1        4 0.43315133E-02 0.12856789E+03</pdfrwt>
<totfact> 0.94928129E+04</totfact>
</mgrwt>
</event>
<event>
 6    4  0.6325740E-003  0.1279420E+03  0.7818608E-02  0.1230542E+00
         21   -1    0    0  501  502  0.00000000000E+00  0.00000000000E+00  0.13411757540E+03  0.13411757540E+03  0.00000000000E+00 0. -1.
          4   -1    0    0  502    0 -0.00000000000E+00 -0.00000000000E+00 -0.14575604039E+03  0.14576157316E+03  0.12700000000E+01 0.  1.
         25    2    1    2    0    0  0.26086374041E+02 -0.80156619054E+01 -0.11557356063E+03  0.17241349473E+03  0.12499766198E+03 0.  0.
    9000005    1    3    3    0    0  0.44723127367E+02  0.25870178850E+02 -0.12167965110E+01  0.51690471743E+02  0.10000000000E+01 0.  0.
    9000005    1    3    3    0    0 -0.18636753326E+02 -0.33885840756E+02 -0.11435676412E+03  0.12072302299E+03  0.10000000000E+01 0.  0.
          4    1    1    2  501    0 -0.26086374041E+02  0.80156619054E+01  0.10393509565E+03  0.10746565383E+03  0.12700000000E+01 0. -1.
<mgrwt>
<rscale>  1 0.12794204E+03</rscale>
<asrwt>0</asrwt>
<pdfrwt beam="1">  1       21 0.20633473E-01 0.12794204E+03</pdfrwt>
<pdfrwt beam="2">  1        4 0.22424894E-01 0.12794204E+03</pdfrwt>
<totfact> 0.16207936E+04</totfact>
</mgrwt>
</event>
<event>
 6    4  0.6325740E-003  0.1374633E+03  0.7818608E-02  0.1216784E+00
          4   -1    0    0  502    0 -0.00000000000E+00  0.00000000000E+00  0.30216254100E+02  0.30242931601E+02  0.12700000000E+01 0. -1.
         21   -1    0    0  501  502  0.00000000000E+00 -0.00000000000E+00 -0.35648494897E+03  0.35648494897E+03  0.00000000000E+00 0.  1.
         25    2    1    2    0    0 -0.53891376438E+02  0.19159085979E+02 -0.16026269439E+03  0.21114042053E+03  0.12499917974E+03 0.  0.
    9000005    1    3    3    0    0 -0.92261583725E+02  0.77764548003E+01 -0.84051250830E+02  0.12505313209E+03  0.10000000000E+01 0.  0.
    9000005    1    3    3    0    0  0.38370207287E+02  0.11382631179E+02 -0.76211443562E+02  0.86087288432E+02  0.10000000000E+01 0.  0.
          4    1    1    2  501    0  0.53891376438E+02 -0.19159085979E+02 -0.16600600048E+03  0.17558746005E+03  0.12700000000E+01 0.  1.
<mgrwt>
<rscale>  1 0.13746325E+03</rscale>
<asrwt>0</asrwt>
<pdfrwt beam="2">  1       21 0.54843837E-01 0.13746325E+03</pdfrwt>
<pdfrwt beam="1">  1        4 0.46508807E-02 0.13746325E+03</pdfrwt>
<totfact> 0.34468449E+04</totfact>
</mgrwt>
</event>
<event>
 6    4  0.6325740E-003  0.1280023E+03  0.7818608E-02  0.1230450E+00
         21   -1    0    0  501  502  0.00000000000E+00  0.00000000000E+00  0.53280373133E+02  0.53280373133E+02  0.00000000000E+00 0.  1.
         -4   -1    0    0    0  501 -0.00000000000E+00 -0.00000000000E+00 -0.11589148762E+03  0.11589844608E+03  0.12700000000E+01 0.  1.
         25    2    1    2    0    0  0.19928392320E+02 -0.19053817664E+02 -0.41948401425E+02  0.13470057391E+03  0.12499754974E+03 0.  0.
    9000005    1    3    3    0    0  0.68229597052E+02 -0.16297042095E+02 -0.49312768485E+02  0.85753254344E+02  0.10000000000E+01 0.  0.
    9000005    1    3    3    0    0 -0.48301204732E+02 -0.27567755690E+01  0.73643670607E+01  0.48947319562E+02  0.10000000000E+01 0.  0.
         -4    1    1    2    0  502 -0.19928392320E+02  0.19053817664E+02 -0.20662713062E+02  0.34478245302E+02  0.12700000000E+01 0. -1.
<mgrwt>
<rscale>  1 0.12800225E+03</rscale>
<asrwt>0</asrwt>
<pdfrwt beam="1">  1       21 0.81969806E-02 0.12800225E+03</pdfrwt>
<pdfrwt beam="2">  1       -4 0.17831159E-01 0.12800225E+03</pdfrwt>
<totfact> 0.12710737E+05</totfact>
</mgrwt>
</event>
<event>
 6    4  0.6325740E-003  0.1274916E+03  0.7818608E-02  0.1231226E+00
         21   -1    0    0  501  502  0.00000000000E+00  0.00000000000E+00  0.92401513626E+02  0.92401513626E+02  0.00000000000E+00 0.  1.
          4   -1    0    0  502    0 -0.00000000000E+00 -0.00000000000E+00 -0.85964794753E+02  0.85974175407E+02  0.12700000000E+01 0. -1.
         25    2    1    2    0    0 -0.24792472120E+02 -0.35811352449E+01 -0.32950013272E+02  0.13168073457E+03  0.12500648494E+03 0.  0.
    9000005    1    3    3    0    0 -0.54627256327E+02  0.36328140249E+02  0.93968800909E+01  0.66281009823E+02  0.10000000000E+01 0.  0.
    9000005    1    3    3    0    0  0.29834784207E+02 -0.39909275494E+02 -0.42346893363E+02  0.65399724744E+02  0.10000000000E+01 0.  0.
          4    1    1    2  501    0  0.24792472120E+02  0.35811352449E+01  0.39386732145E+02  0.46694954466E+02  0.12700000000E+01 0.  1.
<mgrwt>
<rscale>  1 0.12749162E+03</rscale>
<asrwt>0</asrwt>
<pdfrwt beam="1">  1       21 0.14215617E-01 0.12749162E+03</pdfrwt>
<pdfrwt beam="2">  1        4 0.13226746E-01 0.12749162E+03</pdfrwt>
<totfact> 0.81312121E+04</totfact>
</mgrwt>
</event>
<event>
 6    4  0.6325740E-003  0.1274050E+03  0.7818608E-02  0.1231358E+00
          4   -1    0    0  502    0 -0.00000000000E+00  0.00000000000E+00  0.46012248880E+01  0.47732767016E+01  0.12700000000E+01 0.  1.
         21   -1    0    0  501  502  0.00000000000E+00 -0.00000000000E+00 -0.12333085062E+04  0.12333085062E+04  0.00000000000E+00 0.  1.
         25    2    1    2    0    0  0.35326176145E+01 -0.24372778122E+02 -0.10325745148E+04  0.10404048072E+04  0.12500209057E+03 0.  0.
    9000005    1    3    3    0    0 -0.56877247742E+02 -0.34858260270E+01 -0.65323555035E+03  0.65571705524E+03  0.10000000000E+01 0.  0.
    9000005    1    3    3    0    0  0.60409865357E+02 -0.20886952095E+02 -0.37933896443E+03  0.38468775200E+03  0.10000000000E+01 0.  0.
          4    1    1    2  501    0 -0.35326176145E+01  0.24372778122E+02 -0.19613276658E+03  0.19767697571E+03  0.12700000000E+01 0. -1.
<mgrwt>
<rscale>  1 0.12740500E+03</rscale>
<asrwt>0</asrwt>
<pdfrwt beam="2">  1       21 0.18973981E+00 0.12740500E+03</pdfrwt>
<pdfrwt beam="1">  1        4 0.72116564E-03 0.12740500E+03</pdfrwt>
<totfact> 0.31267640E+04</totfact>
</mgrwt>
</event>
<event>
 6    4  0.6325740E-003  0.1298001E+03  0.7818608E-02  0.1227753E+00
         21   -1    0    0  501  502  0.00000000000E+00  0.00000000000E+00  0.38217575808E+03  0.38217575808E+03  0.00000000000E+00 0.  1.
         -4   -1    0    0    0  501 -0.00000000000E+00 -0.00000000000E+00 -0.77162844399E+02  0.77173294965E+02  0.12700000000E+01 0. -1.
         25    2    1    2    0    0 -0.22609626642E+02 -0.26678070605E+02 -0.20978828194E+02  0.13148453325E+03  0.12500062633E+03 0.  0.
    9000005    1    3    3    0    0 -0.62403386751E+02  0.22465795386E+02 -0.14611286912E+02  0.67921898866E+02  0.10000000000E+01 0.  0.
    9000005    1    3    3    0    0  0.39793760109E+02 -0.49143865991E+02 -0.63675412825E+01  0.63562634387E+02  0.10000000000E+01 0.  0.
         -4    1    1    2    0  502  0.22609626642E+02  0.26678070605E+02  0.32599174187E+03  0.32786451979E+03  0.12700000000E+01 0.  1.
<mgrwt>
<rscale>  1 0.12980012E+03</rscale>
<asrwt>0</asrwt>
<pdfrwt beam="1">  1       21 0.58796269E-01 0.12980012E+03</pdfrwt>
<pdfrwt beam="2">  1       -4 0.11872173E-01 0.12980012E+03</pdfrwt>
<totfact> 0.63136631E+03</totfact>
</mgrwt>
</event>
<event>
 6    4  0.6325740E-003  0.1276317E+03  0.7818608E-02  0.1231013E+00
         -4   -1    0    0    0  501 -0.00000000000E+00  0.00000000000E+00  0.10595485961E+02  0.10671327131E+02  0.12700000000E+01 0. -1.
         21   -1    0    0  501  502  0.00000000000E+00 -0.00000000000E+00 -0.89051755280E+03  0.89051755280E+03  0.00000000000E+00 0.  1.
         25    2    1    2    0    0 -0.18378391581E+01  0.25634016646E+02 -0.38511958136E+03  0.40571779803E+03  0.12501743571E+03 0.  0.
    9000005    1    3    3    0    0 -0.13460906637E+02  0.74711653441E+02 -0.25853558160E+03  0.26945254521E+03  0.10000000000E+01 0.  0.
    9000005    1    3    3    0    0  0.11623067479E+02 -0.49077636795E+02 -0.12658399976E+03  0.13626525282E+03  0.10000000000E+01 0.  0.
         -4    1    1    2    0  502  0.18378391581E+01 -0.25634016646E+02 -0.49480248548E+03  0.49547108191E+03  0.12700000000E+01 0.  1.
<mgrwt>
<rscale>  1 0.12763166E+03</rscale>
<asrwt>0</asrwt>
<pdfrwt beam="2">  1       21 0.13700273E+00 0.12763166E+03</pdfrwt>
<pdfrwt beam="1">  1       -4 0.16359780E-02 0.12763166E+03</pdfrwt>
<totfact> 0.21627215E+04</totfact>
</mgrwt>
</event>
<event>
 6    4  0.6325740E-003  0.1731950E+03  0.7818608E-02  0.1174556E+00
         -4   -1    0    0    0  501 -0.00000000000E+00  0.00000000000E+00  0.22933978901E+03  0.22934330538E+03  0.12700000000E+01 0. -1.
         21   -1    0    0  501  502  0.00000000000E+00 -0.00000000000E+00 -0.97591545304E+02  0.97591545304E+02  0.00000000000E+00 0. -1.
         25    2    1    2    0    0 -0.96229695269E+02  0.71461390045E+02  0.44928514668E+02  0.17892754421E+03  0.12501843916E+03 0.  0.
    9000005    1    3    3    0    0 -0.42008716378E+02  0.46594989973E+02  0.86030326143E+02  0.10648024398E+03  0.10000000000E+01 0.  0.
    9000005    1    3    3    0    0 -0.54220978891E+02  0.24866400073E+02 -0.41101811475E+02  0.72447300233E+02  0.10000000000E+01 0.  0.
         -4    1    1    2    0  502  0.96229695269E+02 -0.71461390045E+02  0.86819729040E+02  0.14800730647E+03  0.12700000000E+01 0.  1.
<mgrwt>
<rscale>  1 0.17319496E+03</rscale>
<asrwt>0</asrwt>
<pdfrwt beam="2">  1       21 0.15014084E-01 0.17319496E+03</pdfrwt>
<pdfrwt beam="1">  1       -4 0.35283951E-01 0.17319496E+03</pdfrwt>
<totfact> 0.12716618E+04</totfact>
</mgrwt>
</event>
<event>
 6    4  0.6325740E-003  0.1305203E+03  0.7818608E-02  0.1226686E+00
         -4   -1    0    0    0  501 -0.00000000000E+00  0.00000000000E+00  0.25103215492E+03  0.25103536744E+03  0.12700000000E+01 0.  1.
         21   -1    0    0  501  502  0.00000000000E+00 -0.00000000000E+00 -0.29539458040E+02  0.29539458040E+02  0.00000000000E+00 0. -1.
         25    2    1    2    0    0 -0.29061827956E+02 -0.23779450859E+02  0.19481000604E+03  0.23449195428E+03  0.12500194415E+03 0.  0.
    9000005    1    3    3    0    0 -0.62829929032E+02  0.27199853697E+02  0.89170746273E+02  0.11242710534E+03  0.10000000000E+01 0.  0.
    9000005    1    3    3    0    0  0.33768101076E+02 -0.50979304556E+02  0.10563925977E+03  0.12206484895E+03  0.10000000000E+01 0.  0.
         -4    1    1    2    0  502  0.29061827956E+02  0.23779450859E+02  0.26682690837E+02  0.46082871195E+02  0.12700000000E+01 0. -1.
<mgrwt>
<rscale>  1 0.13052026E+03</rscale>
<asrwt>0</asrwt>
<pdfrwt beam="2">  1       21 0.45445322E-02 0.13052026E+03</pdfrwt>
<pdfrwt beam="1">  1       -4 0.38622677E-01 0.13052026E+03</pdfrwt>
<totfact> 0.82503639E+04</totfact>
</mgrwt>
</event>
<event>
 6    4  0.6325740E-003  0.1282976E+03  0.7818608E-02  0.1230004E+00
         21   -1    0    0  501  502  0.00000000000E+00  0.00000000000E+00  0.16456221635E+03  0.16456221635E+03  0.00000000000E+00 0. -1.
          4   -1    0    0  502    0 -0.00000000000E+00 -0.00000000000E+00 -0.14326029063E+03  0.14326591979E+03  0.12700000000E+01 0.  1.
         25    2    1    2    0    0  0.27004530628E+02 -0.10225377473E+02 -0.11268590800E+03  0.17075824337E+03  0.12500584306E+03 0.  0.
    9000005    1    3    3    0    0  0.24597651056E+02  0.51686256620E+02 -0.22888528929E+02  0.61655480838E+02  0.10000000000E+01 0.  0.
    9000005    1    3    3    0    0  0.24068795722E+01 -0.61911634093E+02 -0.89797379069E+02  0.10910276254E+03  0.10000000000E+01 0.  0.
          4    1    1    2  501    0 -0.27004530628E+02  0.10225377473E+02  0.13398783371E+03  0.13706989276E+03  0.12700000000E+01 0. -1.
<mgrwt>
<rscale>  1 0.12829756E+03</rscale>
<asrwt>0</asrwt>
<pdfrwt beam="1">  1       21 0.25317264E-01 0.12829756E+03</pdfrwt>
<pdfrwt beam="2">  1        4 0.22040855E-01 0.12829756E+03</pdfrwt>
<totfact> 0.11405495E+04</totfact>
</mgrwt>
</event>
<event>
 6    4  0.6325740E-003  0.1474640E+03  0.7818608E-02  0.1203624E+00
          4   -1    0    0  502    0 -0.00000000000E+00  0.00000000000E+00  0.87923748770E+01  0.88836229083E+01  0.12700000000E+01 0. -1.
         21   -1    0    0  501  502  0.00000000000E+00 -0.00000000000E+00 -0.21487763305E+04  0.21487763305E+04  0.00000000000E+00 0.  1.
         25    2    1    2    0    0 -0.77011357413E+02 -0.13794282114E+02 -0.69075295903E+03  0.70631811712E+03  0.12499840306E+03 0.  0.
    9000005    1    3    3    0    0 -0.38154420863E+01 -0.34888784663E+01 -0.52267528273E+03  0.52270180892E+03  0.10000000000E+01 0.  0.
    9000005    1    3    3    0    0 -0.73195915326E+02 -0.10305403648E+02 -0.16807767630E+03  0.18361630820E+03  0.10000000000E+01 0.  0.
          4    1    1    2  501    0  0.77011357413E+02  0.13794282114E+02 -0.14492309966E+04  0.14513418363E+04  0.12700000000E+01 0.  1.
<mgrwt>
<rscale>  1 0.14746400E+03</rscale>
<asrwt>0</asrwt>
<pdfrwt beam="2">  1       21 0.33058094E+00 0.14746400E+03</pdfrwt>
<pdfrwt beam="1">  1        4 0.13597212E-02 0.14746400E+03</pdfrwt>
<totfact> 0.18094445E+03</totfact>
</mgrwt>
</event>
<event>
 6    4  0.6325740E-003  0.2022087E+03  0.7818608E-02  0.1147889E+00
         21   -1    0    0  501  502  0.00000000000E+00  0.00000000000E+00  0.19100636630E+03  0.19100636630E+03  0.00000000000E+00 0. -1.
         -4   -1    0    0    0  501 -0.00000000000E+00 -0.00000000000E+00 -0.21682383153E+03  0.21682755087E+03  0.12700000000E+01 0. -1.
         25    2    1    2    0    0  0.13207715787E+03 -0.88422173008E+02  0.79375064518E+02  0.21722977890E+03  0.12500207863E+03 0.  0.
    9000005    1    3    3    0    0 -0.18202753335E+02  0.10864346238E+02  0.14851050666E+02  0.25902277005E+02  0.10000000000E+01 0.  0.
    9000005    1    3    3    0    0  0.15027991121E+03 -0.99286519246E+02  0.64524013853E+02  0.19132750189E+03  0.10000000000E+01 0.  0.
         -4    1    1    2    0  502 -0.13207715787E+03  0.88422173008E+02 -0.10519252975E+03  0.19060413827E+03  0.12700000000E+01 0.  1.
<mgrwt>
<rscale>  1 0.20220874E+03</rscale>
<asrwt>0</asrwt>
<pdfrwt beam="1">  1       21 0.29385595E-01 0.20220874E+03</pdfrwt>
<pdfrwt beam="2">  1       -4 0.33358124E-01 0.20220874E+03</pdfrwt>
<totfact> 0.40533926E+03</totfact>
</mgrwt>
</event>
<event>
 6    4  0.6325740E-003  0.1307640E+03  0.7818608E-02  0.1226326E+00
          4   -1    0    0  502    0 -0.00000000000E+00  0.00000000000E+00  0.33879734835E+03  0.33879972867E+03  0.12700000000E+01 0.  1.
         21   -1    0    0  501  502  0.00000000000E+00 -0.00000000000E+00 -0.21169262378E+02  0.21169262378E+02  0.00000000000E+00 0.  1.
         25    2    1    2    0    0  0.16655116134E+02  0.34628159122E+02  0.23850251755E+03  0.27199757083E+03  0.12499090112E+03 0.  0.
    9000005    1    3    3    0    0  0.27409415308E+02 -0.20868650810E+02  0.20150283316E+03  0.20442888349E+03  0.10000000000E+01 0.  0.
    9000005    1    3    3    0    0 -0.10754299174E+02  0.55496809932E+02  0.36999684385E+02  0.67568687333E+02  0.10000000000E+01 0.  0.
          4    1    1    2  501    0 -0.16655116134E+02 -0.34628159122E+02  0.79125568419E+02  0.87971420219E+02  0.12700000000E+01 0. -1.
<mgrwt>
<rscale>  1 0.13076402E+03</rscale>
<asrwt>0</asrwt>
<pdfrwt beam="2">  1       21 0.32568099E-02 0.13076402E+03</pdfrwt>
<pdfrwt beam="1">  1        4 0.52125778E-01 0.13076402E+03</pdfrwt>
<totfact> 0.78707526E+04</totfact>
</mgrwt>
</event>
<event>
 6    4  0.6325740E-003  0.1269816E+03  0.7818608E-02  0.1232004E+00
         21   -1    0    0  501  502  0.00000000000E+00  0.00000000000E+00  0.12870315408E+03  0.12870315408E+03  0.00000000000E+00 0.  1.
          4   -1    0    0  502    0 -0.00000000000E+00 -0.00000000000E+00 -0.76236716580E+02  0.76247294082E+02  0.12700000000E+01 0. -1.
         25    2    1    2    0    0 -0.21160042067E+02 -0.72253041971E+01 -0.20498782760E+02  0.12862555924E+03  0.12499752796E+03 0.  0.
    9000005    1    3    3    0    0 -0.18483151714E+02  0.29202282820E+02 -0.63435365103E+02  0.72245731812E+02  0.10000000000E+01 0.  0.
    9000005    1    3    3    0    0 -0.26768903527E+01 -0.36427587017E+02  0.42936582344E+02  0.56379827431E+02  0.10000000000E+01 0.  0.
          4    1    1    2  501    0  0.21160042067E+02  0.72253041971E+01  0.72965220258E+02  0.76324888918E+02  0.12700000000E+01 0.  1.
<mgrwt>
<rscale>  1 0.12698163E+03</rscale>
<asrwt>0</asrwt>
<pdfrwt beam="1">  1       21 0.19800485E-01 0.12698163E+03</pdfrwt>
<pdfrwt beam="2">  1        4 0.11730021E-01 0.12698163E+03</pdfrwt>
<totfact> 0.54637586E+04</totfact>
</mgrwt>
</event>
<event>
 6    4  0.6325740E-003  0.1266057E+03  0.7818608E-02  0.1232581E+00
          4   -1    0    0  502    0 -0.00000000000E+00  0.00000000000E+00  0.12685334383E+03  0.12685970101E+03  0.12700000000E+01 0. -1.
         21   -1    0    0  501  502  0.00000000000E+00 -0.00000000000E+00 -0.98135247658E+02  0.98135247658E+02  0.00000000000E+00 0. -1.
         25    2    1    2    0    0  0.18995731735E+02  0.64968701831E+01  0.93353302761E+02  0.15730174387E+03  0.12500380931E+03 0.  0.
    9000005    1    3    3    0    0  0.51139496800E+02 -0.37759157745E+02  0.21755734791E+02  0.67196087109E+02  0.10000000000E+01 0.  0.
    9000005    1    3    3    0    0 -0.32143765065E+02  0.44256027928E+02  0.71597567970E+02  0.90105656758E+02  0.10000000000E+01 0.  0.
          4    1    1    2  501    0 -0.18995731735E+02 -0.64968701831E+01 -0.64635206587E+02  0.67693204805E+02  0.12700000000E+01 0.  1.
<mgrwt>
<rscale>  1 0.12660569E+03</rscale>
<asrwt>0</asrwt>
<pdfrwt beam="2">  1       21 0.15097730E-01 0.12660569E+03</pdfrwt>
<pdfrwt beam="1">  1        4 0.19517020E-01 0.12660569E+03</pdfrwt>
<totfact> 0.36817080E+04</totfact>
</mgrwt>
</event>
<event>
 6    4  0.6325740E-003  0.1265940E+03  0.7818608E-02  0.1232599E+00
         21   -1    0    0  501  502  0.00000000000E+00  0.00000000000E+00  0.43544440471E+01  0.43544440471E+01  0.00000000000E+00 0. -1.
         -4   -1    0    0    0  501 -0.00000000000E+00 -0.00000000000E+00 -0.14455016385E+04  0.14455021964E+04  0.12700000000E+01 0. -1.
         25    2    1    2    0    0 -0.14252954408E+02 -0.14071116460E+02 -0.13727814545E+04  0.13786061644E+04  0.12499956749E+03 0.  0.
    9000005    1    3    3    0    0 -0.64634571506E+01 -0.23350425110E+02 -0.48079789307E+02  0.53848721163E+02  0.10000000000E+01 0.  0.
    9000005    1    3    3    0    0 -0.77894972574E+01  0.92793086504E+01 -0.13247016652E+04  0.13247574433E+04  0.10000000000E+01 0.  0.
         -4    1    1    2    0  502  0.14252954408E+02  0.14071116460E+02 -0.68365739955E+02  0.71250475980E+02  0.12700000000E+01 0.  1.
<mgrwt>
<rscale>  1 0.12659398E+03</rscale>
<asrwt>0</asrwt>
<pdfrwt beam="1">  1       21 0.66991444E-03 0.12659398E+03</pdfrwt>
<pdfrwt beam="2">  1       -4 0.22239917E+00 0.12659398E+03</pdfrwt>
<totfact> 0.30293604E+04</totfact>
</mgrwt>
</event>
<event>
 6    4  0.6325740E-003  0.1357865E+03  0.7818608E-02  0.1219114E+00
         21   -1    0    0  501  502  0.00000000000E+00  0.00000000000E+00  0.94656644155E+01  0.94656644155E+01  0.00000000000E+00 0. -1.
          4   -1    0    0  502    0 -0.00000000000E+00 -0.00000000000E+00 -0.94600209663E+03  0.94600294911E+03  0.12700000000E+01 0. -1.
         25    2    1    2    0    0  0.52006157053E+02  0.10409097646E+02 -0.70118300959E+03  0.71420975644E+03  0.12499989425E+03 0.  0.
    9000005    1    3    3    0    0 -0.22278984140E+02  0.13311120124E+02 -0.33443651351E+02  0.42344029909E+02  0.10000000000E+01 0.  0.
    9000005    1    3    3    0    0  0.74285141193E+02 -0.29020224780E+01 -0.66773935824E+03  0.67186572653E+03  0.10000000000E+01 0.  0.
          4    1    1    2  501    0 -0.52006157053E+02 -0.10409097646E+02 -0.23535342262E+03  0.24125885709E+03  0.12700000000E+01 0.  1.
<mgrwt>
<rscale>  1 0.13578646E+03</rscale>
<asrwt>0</asrwt>
<pdfrwt beam="1">  1       21 0.14562565E-02 0.13578646E+03</pdfrwt>
<pdfrwt beam="2">  1        4 0.14554536E+00 0.13578646E+03</pdfrwt>
<totfact> 0.28664302E+04</totfact>
</mgrwt>
</event>
<event>
 6    4  0.6325740E-003  0.1359108E+03  0.7818608E-02  0.1218940E+00
         -4   -1    0    0    0  501 -0.00000000000E+00  0.00000000000E+00  0.37406146402E+02  0.37427699484E+02  0.12700000000E+01 0.  1.
         21   -1    0    0  501  502  0.00000000000E+00 -0.00000000000E+00 -0.30470933521E+03  0.30470933521E+03  0.00000000000E+00 0. -1.
         25    2    1    2    0    0  0.52946806409E+02  0.65823391167E+01 -0.10637556681E+03  0.17259056932E+03  0.12500020763E+03 0.  0.
    9000005    1    3    3    0    0  0.36854104279E+02  0.25173554705E+02 -0.13062414631E+03  0.13804202425E+03  0.10000000000E+01 0.  0.
    9000005    1    3    3    0    0  0.16092702131E+02 -0.18591215588E+02  0.24248579504E+02  0.34548545076E+02  0.10000000000E+01 0.  0.
         -4    1    1    2    0  502 -0.52946806409E+02 -0.65823391167E+01 -0.16092762200E+03  0.16954646537E+03  0.12700000000E+01 0. -1.
<mgrwt>
<rscale>  1 0.13591079E+03</rscale>
<asrwt>0</asrwt>
<pdfrwt beam="2">  1       21 0.46878358E-01 0.13591079E+03</pdfrwt>
<pdfrwt beam="1">  1       -4 0.57566534E-02 0.13591079E+03</pdfrwt>
<totfact> 0.33793441E+04</totfact>
</mgrwt>
</event>
<event>
 6    4  0.6325740E-003  0.1266504E+03  0.7818608E-02  0.1232512E+00
         21   -1    0    0  501  502  0.00000000000E+00  0.00000000000E+00  0.13527753764E+03  0.13527753764E+03  0.00000000000E+00 0.  1.
         -4   -1    0    0    0  501 -0.00000000000E+00 -0.00000000000E+00 -0.38437120320E+03  0.38437330130E+03  0.12700000000E+01 0. -1.
         25    2    1    2    0    0 -0.20178302411E+02  0.28986326636E+01 -0.37308117399E+03  0.39399224947E+03  0.12499905719E+03 0.  0.
    9000005    1    3    3    0    0 -0.61076163999E+02 -0.35370555400E+02 -0.21321296738E+03  0.22459328453E+03  0.10000000000E+01 0.  0.
    9000005    1    3    3    0    0  0.40897861587E+02  0.38269188064E+02 -0.15986820661E+03  0.16939896494E+03  0.10000000000E+01 0.  0.
         -4    1    1    2    0  502  0.20178302411E+02 -0.28986326636E+01  0.12398750843E+03  0.12565858946E+03  0.12700000000E+01 0.  1.
<mgrwt>
<rscale>  1 0.12665043E+03</rscale>
<asrwt>0</asrwt>
<pdfrwt beam="1">  1       21 0.20811929E-01 0.12665043E+03</pdfrwt>
<pdfrwt beam="2">  1       -4 0.59134651E-01 0.12665043E+03</pdfrwt>
<totfact> 0.24196060E+03</totfact>
</mgrwt>
</event>
<event>
 6    4  0.6325740E-003  0.1268271E+03  0.7818608E-02  0.1232241E+00
         -4   -1    0    0    0  501 -0.00000000000E+00  0.00000000000E+00  0.48644652519E+02  0.48661228084E+02  0.12700000000E+01 0. -1.
         21   -1    0    0  501  502  0.00000000000E+00 -0.00000000000E+00 -0.11339213084E+03  0.11339213084E+03  0.00000000000E+00 0. -1.
         25    2    1    2    0    0 -0.15488567918E+02  0.14835582934E+02 -0.52016000920E+02  0.13707949911E+03  0.12500053787E+03 0.  0.
    9000005    1    3    3    0    0  0.28868277054E+01 -0.20830794267E+02  0.35231997062E+02  0.41043262309E+02  0.10000000000E+01 0.  0.
    9000005    1    3    3    0    0 -0.18375395623E+02  0.35666377201E+02 -0.87247997982E+02  0.96036236801E+02  0.10000000000E+01 0.  0.
         -4    1    1    2    0  502  0.15488567918E+02 -0.14835582934E+02 -0.12731477399E+02  0.24973859812E+02  0.12700000000E+01 0.  1.
<mgrwt>
<rscale>  1 0.12682715E+03</rscale>
<asrwt>0</asrwt>
<pdfrwt beam="2">  1       21 0.17444943E-01 0.12682715E+03</pdfrwt>
<pdfrwt beam="1">  1       -4 0.74856148E-02 0.12682715E+03</pdfrwt>
<totfact> 0.14622414E+05</totfact>
</mgrwt>
</event>
<event>
 6    4  0.6325740E-003  0.1302821E+03  0.7818608E-02  0.1227038E+00
         -4   -1    0    0    0  501 -0.00000000000E+00  0.00000000000E+00  0.22005301398E+03  0.22005667875E+03  0.12700000000E+01 0. -1.
         21   -1    0    0  501  502  0.00000000000E+00 -0.00000000000E+00 -0.73082989646E+02  0.73082989646E+02  0.00000000000E+00 0.  1.
         25    2    1    2    0    0  0.24849702726E+02 -0.27016712989E+02  0.19386417434E+03  0.23357386687E+03  0.12500409066E+03 0.  0.
    9000005    1    3    3    0    0 -0.15364664096E+02 -0.69842306826E+02  0.10521436649E+03  0.12722061013E+03  0.10000000000E+01 0.  0.
    9000005    1    3    3    0    0  0.40214366822E+02  0.42825593837E+02  0.88649807854E+02  0.10635325674E+03  0.10000000000E+01 0.  0.
         -4    1    1    2    0  502 -0.24849702726E+02  0.27016712989E+02 -0.46894150010E+02  0.59565801527E+02  0.12700000000E+01 0.  1.
<mgrwt>
<rscale>  1 0.13028213E+03</rscale>
<asrwt>0</asrwt>
<pdfrwt beam="2">  1       21 0.11243537E-01 0.13028213E+03</pdfrwt>
<pdfrwt beam="1">  1       -4 0.33855440E-01 0.13028213E+03</pdfrwt>
<totfact> 0.22522825E+04</totfact>
</mgrwt>
</event>
<event>
 6    4  0.6325740E-003  0.1337726E+03  0.7818608E-02  0.1221963E+00
         21   -1    0    0  501  502  0.00000000000E+00  0.00000000000E+00  0.28162828055E+02  0.28162828055E+02  0.00000000000E+00 0.  1.
          4   -1    0    0  502    0 -0.00000000000E+00 -0.00000000000E+00 -0.38110501587E+03  0.38110713195E+03  0.12700000000E+01 0. -1.
         25    2    1    2    0    0 -0.38498222005E+02  0.28079032327E+02 -0.33057493432E+03  0.35661588055E+03  0.12499821561E+03 0.  0.
    9000005    1    3    3    0    0  0.14431776670E+01  0.36544302535E+02 -0.16913541193E+02  0.40306782125E+02  0.10000000000E+01 0.  0.
    9000005    1    3    3    0    0 -0.39941399672E+02 -0.84652702083E+01 -0.31366139313E+03  0.31630909843E+03  0.10000000000E+01 0.  0.
          4    1    1    2  501    0  0.38498222005E+02 -0.28079032327E+02 -0.22367253489E+02  0.52654079449E+02  0.12700000000E+01 0.  1.
<mgrwt>
<rscale>  1 0.13377256E+03</rscale>
<asrwt>0</asrwt>
<pdfrwt beam="1">  1       21 0.43327429E-02 0.13377256E+03</pdfrwt>
<pdfrwt beam="2">  1        4 0.58633905E-01 0.13377256E+03</pdfrwt>
<totfact> 0.38555783E+04</totfact>
</mgrwt>
</event>
<event>
 6    4  0.6325740E-003  0.1269282E+03  0.7818608E-02  0.1232086E+00
         21   -1    0    0  501  502  0.00000000000E+00  0.00000000000E+00  0.21827910944E+02  0.21827910944E+02  0.00000000000E+00 0.  1.
          4   -1    0    0  502    0 -0.00000000000E+00 -0.00000000000E+00 -0.55208974507E+03  0.55209120579E+03  0.12700000000E+01 0. -1.
         25    2    1    2    0    0 -0.12418751258E+02 -0.18193614220E+02 -0.53624142262E+03  0.55105864081E+03  0.12500211718E+03 0.  0.
    9000005    1    3    3    0    0  0.22257406600E+02  0.41765722762E+02 -0.33274052251E+03  0.33609079587E+03  0.10000000000E+01 0.  0.
    9000005    1    3    3    0    0 -0.34676157858E+02 -0.59959336982E+02 -0.20350090011E+03  0.21496784494E+03  0.10000000000E+01 0.  0.
          4    1    1    2  501    0  0.12418751258E+02  0.18193614220E+02  0.59795884876E+01  0.22860475928E+02  0.12700000000E+01 0.  1.
<mgrwt>
<rscale>  1 0.12692818E+03</rscale>
<asrwt>0</asrwt>
<pdfrwt beam="1">  1       21 0.33581409E-02 0.12692818E+03</pdfrwt>
<pdfrwt beam="2">  1        4 0.84939819E-01 0.12692818E+03</pdfrwt>
<totfact> 0.26250556E+04</totfact>
</mgrwt>
</event>
<event>
 6    4  0.6325740E-003  0.1273569E+03  0.7818608E-02  0.1231431E+00
          4   -1    0    0  502    0 -0.00000000000E+00  0.00000000000E+00  0.14703770496E+03  0.14704318951E+03  0.12700000000E+01 0. -1.
         21   -1    0    0  501  502  0.00000000000E+00 -0.00000000000E+00 -0.47176625312E+02  0.47176625312E+02  0.00000000000E+00 0. -1.
         25    2    1    2    0    0  0.21793260397E+02  0.11283283279E+02  0.10936676187E+03  0.16787157816E+03  0.12497007431E+03 0.  0.
    9000005    1    3    3    0    0 -0.27442440128E+02  0.35386804784E+02 -0.81780140080E+00  0.44799355711E+02  0.10000000000E+01 0.  0.
    9000005    1    3    3    0    0  0.49235700525E+02 -0.24103521505E+02  0.11018456328E+03  0.12307222245E+03  0.10000000000E+01 0.  0.
          4    1    1    2  501    0 -0.21793260397E+02 -0.11283283279E+02 -0.95056822246E+01  0.26348236655E+02  0.12700000000E+01 0.  1.
<mgrwt>
<rscale>  1 0.12735689E+03</rscale>
<asrwt>0</asrwt>
<pdfrwt beam="2">  1       21 0.72579424E-02 0.12735689E+03</pdfrwt>
<pdfrwt beam="1">  1        4 0.22622922E-01 0.12735689E+03</pdfrwt>
<totfact> 0.10207045E+05</totfact>
</mgrwt>
</event>
<event>
 6    4  0.6325740E-003  0.1274725E+03  0.7818608E-02  0.1231255E+00
          4   -1    0    0  502    0 -0.00000000000E+00  0.00000000000E+00  0.16299891965E+03  0.16300386715E+03  0.12700000000E+01 0.  1.
         21   -1    0    0  501  502  0.00000000000E+00 -0.00000000000E+00 -0.40175147562E+02  0.40175147562E+02  0.00000000000E+00 0.  1.
         25    2    1    2    0    0  0.10218257843E+02  0.22785947552E+02  0.12441424032E+03  0.17812398152E+03  0.12500254956E+03 0.  0.
    9000005    1    3    3    0    0 -0.45807528569E+02 -0.24778349904E+02  0.66948761644E+02  0.84825898069E+02  0.10000000000E+01 0.  0.
    9000005    1    3    3    0    0  0.56025786411E+02  0.47564297457E+02  0.57465478678E+02  0.93298083449E+02  0.10000000000E+01 0.  0.
          4    1    1    2  501    0 -0.10218257843E+02 -0.22785947552E+02 -0.15904682376E+01  0.25055033195E+02  0.12700000000E+01 0. -1.
<mgrwt>
<rscale>  1 0.12747254E+03</rscale>
<asrwt>0</asrwt>
<pdfrwt beam="2">  1       21 0.61807920E-02 0.12747254E+03</pdfrwt>
<pdfrwt beam="1">  1        4 0.25078681E-01 0.12747254E+03</pdfrwt>
<totfact> 0.11115801E+05</totfact>
</mgrwt>
</event>
<event>
 6    4  0.6325740E-003  0.1279689E+03  0.7818608E-02  0.1230501E+00
         21   -1    0    0  501  502  0.00000000000E+00  0.00000000000E+00  0.75169662357E+02  0.75169662357E+02  0.00000000000E+00 0.  1.
         -4   -1    0    0    0  501 -0.00000000000E+00 -0.00000000000E+00 -0.13314654438E+03  0.13315260110E+03  0.12700000000E+01 0. -1.
         25    2    1    2    0    0 -0.15018226984E+01 -0.27348310439E+02 -0.97036726600E+02  0.16059941868E+03  0.12500344562E+03 0.  0.
    9000005    1    3    3    0    0  0.51904065565E+01 -0.43940754083E+02 -0.12205195184E+03  0.12982838340E+03  0.10000000000E+01 0.  0.
    9000005    1    3    3    0    0 -0.66922292549E+01  0.16592443645E+02  0.25015225238E+02  0.30771035280E+02  0.10000000000E+01 0.  0.
         -4    1    1    2    0  502  0.15018226984E+01  0.27348310439E+02  0.39059844576E+02  0.47722844777E+02  0.12700000000E+01 0.  1.
<mgrwt>
<rscale>  1 0.12796893E+03</rscale>
<asrwt>0</asrwt>
<pdfrwt beam="1">  1       21 0.11564564E-01 0.12796893E+03</pdfrwt>
<pdfrwt beam="2">  1       -4 0.20485375E-01 0.12796893E+03</pdfrwt>
<totfact> 0.54378666E+04</totfact>
</mgrwt>
</event>
<event>
 6    4  0.6325740E-003  0.1298923E+03  0.7818608E-02  0.1227616E+00
          4   -1    0    0  502    0 -0.00000000000E+00  0.00000000000E+00  0.18599884424E+04  0.18599888760E+04  0.12700000000E+01 0. -1.
         21   -1    0    0  501  502  0.00000000000E+00 -0.00000000000E+00 -0.41461465350E+01  0.41461465350E+01  0.00000000000E+00 0. -1.
         25    2    1    2    0    0 -0.24130957422E+02 -0.25789538057E+02  0.16641887904E+04  0.16692502298E+04  0.12499838465E+03 0.  0.
    9000005    1    3    3    0    0 -0.64600204899E+02 -0.50187637182E+02  0.11420493684E+04  0.11449758711E+04  0.10000000000E+01 0.  0.
    9000005    1    3    3    0    0  0.40469247477E+02  0.24398099125E+02  0.52213942198E+03  0.52427435872E+03  0.10000000000E+01 0.  0.
          4    1    1    2  501    0  0.24130957422E+02  0.25789538057E+02  0.19165350544E+03  0.19488479270E+03  0.12700000000E+01 0.  1.
<mgrwt>
<rscale>  1 0.12989226E+03</rscale>
<asrwt>0</asrwt>
<pdfrwt beam="2">  1       21 0.63787018E-03 0.12989226E+03</pdfrwt>
<pdfrwt beam="1">  1        4 0.28616640E+00 0.12989226E+03</pdfrwt>
<totfact> 0.14036575E+04</totfact>
</mgrwt>
</event>
<event>
 6    4  0.6325740E-003  0.1304298E+03  0.7818608E-02  0.1226819E+00
          4   -1    0    0  502    0 -0.00000000000E+00  0.00000000000E+00  0.29736965160E+02  0.29764072251E+02  0.12700000000E+01 0. -1.
         21   -1    0    0  501  502  0.00000000000E+00 -0.00000000000E+00 -0.23981383291E+03  0.23981383291E+03  0.00000000000E+00 0. -1.
         25    2    1    2    0    0  0.69248373186E+01  0.36584143650E+02 -0.17620669681E+03  0.21922758919E+03  0.12500233168E+03 0.  0.
    9000005    1    3    3    0    0  0.50178610749E+02  0.55276035473E+02 -0.67125401694E+02  0.10039996328E+03  0.10000000000E+01 0.  0.
    9000005    1    3    3    0    0 -0.43253773431E+02 -0.18691891823E+02 -0.10908129512E+03  0.11882762591E+03  0.10000000000E+01 0.  0.
          4    1    1    2  501    0 -0.69248373186E+01 -0.36584143650E+02 -0.33870170941E+02  0.50350315968E+02  0.12700000000E+01 0.  1.
<mgrwt>
<rscale>  1 0.13042981E+03</rscale>
<asrwt>0</asrwt>
<pdfrwt beam="2">  1       21 0.36894437E-01 0.13042981E+03</pdfrwt>
<pdfrwt beam="1">  1        4 0.45772614E-02 0.13042981E+03</pdfrwt>
<totfact> 0.78770112E+04</totfact>
</mgrwt>
</event>
<event>
 6    4  0.6325740E-003  0.1267864E+03  0.7818608E-02  0.1232304E+00
         21   -1    0    0  501  502  0.00000000000E+00  0.00000000000E+00  0.16422922622E+03  0.16422922622E+03  0.00000000000E+00 0.  1.
          4   -1    0    0  502    0 -0.00000000000E+00 -0.00000000000E+00 -0.51181679503E+02  0.51197433693E+02  0.12700000000E+01 0.  1.
         25    2    1    2    0    0  0.16998713261E+02 -0.12778008127E+02  0.30812290043E+02  0.13047676830E+03  0.12499022404E+03 0.  0.
    9000005    1    3    3    0    0 -0.11171371639E+01 -0.67082682664E+02  0.39023270724E+01  0.67212814741E+02  0.10000000000E+01 0.  0.
    9000005    1    3    3    0    0  0.18115850424E+02  0.54304674537E+02  0.26909962970E+02  0.63263953562E+02  0.10000000000E+01 0.  0.
          4    1    1    2  501    0 -0.16998713261E+02  0.12778008127E+02  0.82235256673E+02  0.84949891608E+02  0.12700000000E+01 0. -1.
<mgrwt>
<rscale>  1 0.12678639E+03</rscale>
<asrwt>0</asrwt>
<pdfrwt beam="1">  1       21 0.25266035E-01 0.12678639E+03</pdfrwt>
<pdfrwt beam="2">  1        4 0.78756942E-02 0.12678639E+03</pdfrwt>
<totfact> 0.67591442E+04</totfact>
</mgrwt>
</event>
<event>
 6    4  0.6325740E-003  0.1270841E+03  0.7818608E-02  0.1231848E+00
         21   -1    0    0  501  502  0.00000000000E+00  0.00000000000E+00  0.23121545939E+02  0.23121545939E+02  0.00000000000E+00 0. -1.
         -4   -1    0    0    0  501 -0.00000000000E+00 -0.00000000000E+00 -0.25252074370E+03  0.25252393727E+03  0.12700000000E+01 0. -1.
         25    2    1    2    0    0 -0.20253843926E+02 -0.10603943073E+02 -0.17206496362E+03  0.21390822455E+03  0.12501085963E+03 0.  0.
    9000005    1    3    3    0    0  0.41066537518E+02 -0.13992746470E+01 -0.13620420048E+03  0.14227087791E+03  0.10000000000E+01 0.  0.
    9000005    1    3    3    0    0 -0.61320381444E+02 -0.92046684260E+01 -0.35860763140E+02  0.71637346644E+02  0.10000000000E+01 0.  0.
         -4    1    1    2    0  502  0.20253843926E+02  0.10603943073E+02 -0.57334234139E+02  0.61737258660E+02  0.12700000000E+01 0.  1.
<mgrwt>
<rscale>  1 0.12708413E+03</rscale>
<asrwt>0</asrwt>
<pdfrwt beam="1">  1       21 0.35571611E-02 0.12708413E+03</pdfrwt>
<pdfrwt beam="2">  1       -4 0.38852272E-01 0.12708413E+03</pdfrwt>
<totfact> 0.12203464E+05</totfact>
</mgrwt>
</event>
<event>
 6    4  0.6325740E-003  0.1554226E+03  0.7818608E-02  0.1193964E+00
         -4   -1    0    0    0  501 -0.00000000000E+00  0.00000000000E+00  0.29661939534E+03  0.29662211413E+03  0.12700000000E+01 0. -1.
         21   -1    0    0  501  502  0.00000000000E+00 -0.00000000000E+00 -0.51768629749E+02  0.51768629749E+02  0.00000000000E+00 0.  1.
         25    2    1    2    0    0  0.36022018194E+01 -0.92290363653E+02  0.15028025761E+03  0.21619512761E+03  0.12500276115E+03 0.  0.
    9000005    1    3    3    0    0  0.44794769566E+02 -0.43847535756E+02  0.13779328960E+03  0.15138417497E+03  0.10000000000E+01 0.  0.
    9000005    1    3    3    0    0 -0.41192567747E+02 -0.48442827897E+02  0.12486968008E+02  0.64810952641E+02  0.10000000000E+01 0.  0.
         -4    1    1    2    0  502 -0.36022018194E+01  0.92290363653E+02  0.94570507983E+02  0.13219561627E+03  0.12700000000E+01 0.  1.
<mgrwt>
<rscale>  1 0.15542258E+03</rscale>
<asrwt>0</asrwt>
<pdfrwt beam="2">  1       21 0.79644048E-02 0.15542258E+03</pdfrwt>
<pdfrwt beam="1">  1       -4 0.45635159E-01 0.15542258E+03</pdfrwt>
<totfact> 0.23301679E+04</totfact>
</mgrwt>
</event>
<event>
 6    4  0.6325740E-003  0.1307475E+03  0.7818608E-02  0.1226351E+00
         21   -1    0    0  501  502  0.00000000000E+00  0.00000000000E+00  0.29273018347E+02  0.29273018347E+02  0.00000000000E+00 0. -1.
         -4   -1    0    0    0  501 -0.00000000000E+00 -0.00000000000E+00 -0.26569580707E+03  0.26569884229E+03  0.12700000000E+01 0.  1.
         25    2    1    2    0    0 -0.10685717651E+02 -0.36886307243E+02 -0.21313155945E+03  0.25003992895E+03  0.12498047933E+03 0.  0.
    9000005    1    3    3    0    0 -0.32822559079E+02  0.39307223582E+02 -0.77297803295E+02  0.92727172956E+02  0.10000000000E+01 0.  0.
    9000005    1    3    3    0    0  0.22136841428E+02 -0.76193530826E+02 -0.13583375615E+03  0.15731275600E+03  0.10000000000E+01 0.  0.
         -4    1    1    2    0  502  0.10685717651E+02  0.36886307243E+02 -0.23291229271E+02  0.44931931682E+02  0.12700000000E+01 0. -1.
<mgrwt>
<rscale>  1 0.13074748E+03</rscale>
<asrwt>0</asrwt>
<pdfrwt beam="1">  1       21 0.45035414E-02 0.13074748E+03</pdfrwt>
<pdfrwt beam="2">  1       -4 0.40878629E-01 0.13074748E+03</pdfrwt>
<totfact> 0.74943474E+04</totfact>
</mgrwt>
</event>
<event>
 6    4  0.6325740E-003  0.1273683E+03  0.7818608E-02  0.1231414E+00
         -4   -1    0    0    0  501 -0.00000000000E+00  0.00000000000E+00  0.16830636791E+02  0.16878484375E+02  0.12700000000E+01 0.  1.
         21   -1    0    0  501  502  0.00000000000E+00 -0.00000000000E+00 -0.52242161379E+03  0.52242161379E+03  0.00000000000E+00 0. -1.
         25    2    1    2    0    0  0.20152685840E+02 -0.13842716496E+02 -0.23239729158E+03  0.26501164745E+03  0.12499968240E+03 0.  0.
    9000005    1    3    3    0    0 -0.41234375783E+02 -0.42139260971E+02 -0.12316285963E+03  0.13655065380E+03  0.10000000000E+01 0.  0.
    9000005    1    3    3    0    0  0.61387061624E+02  0.28296544475E+02 -0.10923443196E+03  0.12846099365E+03  0.10000000000E+01 0.  0.
         -4    1    1    2    0  502 -0.20152685840E+02  0.13842716496E+02 -0.27319368542E+03  0.27428845072E+03  0.12700000000E+01 0. -1.
<mgrwt>
<rscale>  1 0.12736825E+03</rscale>
<asrwt>0</asrwt>
<pdfrwt beam="2">  1       21 0.80372557E-01 0.12736825E+03</pdfrwt>
<pdfrwt beam="1">  1       -4 0.25931280E-02 0.12736825E+03</pdfrwt>
<totfact> 0.37605378E+04</totfact>
</mgrwt>
</event>
<event>
 6    4  0.6325740E-003  0.1273322E+03  0.7818608E-02  0.1231469E+00
         -4   -1    0    0    0  501 -0.00000000000E+00  0.00000000000E+00  0.30353517620E+03  0.30353783305E+03  0.12700000000E+01 0. -1.
         21   -1    0    0  501  502  0.00000000000E+00 -0.00000000000E+00 -0.34392772019E+02  0.34392772019E+02  0.00000000000E+00 0.  1.
         25    2    1    2    0    0 -0.15961441944E+02 -0.18280905574E+02  0.28273577600E+03  0.31008546555E+03  0.12499807109E+03 0.  0.
    9000005    1    3    3    0    0 -0.71978117695E+01 -0.56430867200E+02  0.25701390898E+03  0.26323639694E+03  0.10000000000E+01 0.  0.
    9000005    1    3    3    0    0 -0.87636301742E+01  0.38149961626E+02  0.25721867022E+02  0.46849068604E+02  0.10000000000E+01 0.  0.
         -4    1    1    2    0  502  0.15961441944E+02  0.18280905574E+02 -0.13593371818E+02  0.27845139521E+02  0.12700000000E+01 0.  1.
<mgrwt>
<rscale>  1 0.12733215E+03</rscale>
<asrwt>0</asrwt>
<pdfrwt beam="2">  1       21 0.52911959E-02 0.12733215E+03</pdfrwt>
<pdfrwt beam="1">  1       -4 0.46699726E-01 0.12733215E+03</pdfrwt>
<totfact> 0.43707259E+04</totfact>
</mgrwt>
</event>
<event>
 6    4  0.6325740E-003  0.1297039E+03  0.7818608E-02  0.1227896E+00
         21   -1    0    0  501  502  0.00000000000E+00  0.00000000000E+00  0.40641459070E+03  0.40641459070E+03  0.00000000000E+00 0. -1.
         -4   -1    0    0    0  501 -0.00000000000E+00 -0.00000000000E+00 -0.16719404428E+02  0.16767569425E+02  0.12700000000E+01 0. -1.
         25    2    1    2    0    0  0.18888002751E+02  0.28966042386E+02  0.32237758386E+03  0.34749160091E+03  0.12500927113E+03 0.  0.
    9000005    1    3    3    0    0 -0.78647162254E+01 -0.10774126865E+02  0.28849710554E+03  0.28880705579E+03  0.10000000000E+01 0.  0.
    9000005    1    3    3    0    0  0.26752718976E+02  0.39740169251E+02  0.33880478324E+02  0.58684545122E+02  0.10000000000E+01 0.  0.
         -4    1    1    2    0  502 -0.18888002751E+02 -0.28966042386E+02  0.67317602408E+02  0.75690559209E+02  0.12700000000E+01 0.  1.
<mgrwt>
<rscale>  1 0.12970392E+03</rscale>
<asrwt>0</asrwt>
<pdfrwt beam="1">  1       21 0.62525314E-01 0.12970392E+03</pdfrwt>
<pdfrwt beam="2">  1       -4 0.25760740E-02 0.12970392E+03</pdfrwt>
<totfact> 0.65899460E+04</totfact>
</mgrwt>
</event>
<event>
 6    4  0.6325740E-003  0.1273941E+03  0.7818608E-02  0.1231374E+00
         21   -1    0    0  501  502  0.00000000000E+00  0.00000000000E+00  0.52793542340E+02  0.52793542340E+02  0.00000000000E+00 0. -1.
          4   -1    0    0  502    0 -0.00000000000E+00 -0.00000000000E+00 -0.25845886429E+03  0.25846198449E+03  0.12700000000E+01 0.  1.
         25    2    1    2    0    0 -0.24547128618E+02 -0.14036380235E+01 -0.23839557082E+03  0.27029928416E+03  0.12499889243E+03 0.  0.
    9000005    1    3    3    0    0 -0.58482822786E+02 -0.14468998842E+02 -0.49635516606E+02  0.78065850391E+02  0.10000000000E+01 0.  0.
    9000005    1    3    3    0    0  0.33935694168E+02  0.13065360818E+02 -0.18876005421E+03  0.19223343377E+03  0.10000000000E+01 0.  0.
          4    1    1    2  501    0  0.24547128618E+02  0.14036380235E+01  0.32730248870E+02  0.40956242676E+02  0.12700000000E+01 0. -1.
<mgrwt>
<rscale>  1 0.12739409E+03</rscale>
<asrwt>0</asrwt>
<pdfrwt beam="1">  1       21 0.81220832E-02 0.12739409E+03</pdfrwt>
<pdfrwt beam="2">  1        4 0.39764318E-01 0.12739409E+03</pdfrwt>
<totfact> 0.28988905E+04</totfact>
</mgrwt>
</event>
<event>
 6    4  0.6325740E-003  0.1292704E+03  0.7818608E-02  0.1228542E+00
         -4   -1    0    0    0  501 -0.00000000000E+00  0.00000000000E+00  0.33004680199E+02  0.33029105575E+02  0.12700000000E+01 0.  1.
         21   -1    0    0  501  502  0.00000000000E+00 -0.00000000000E+00 -0.22159189156E+03  0.22159189156E+03  0.00000000000E+00 0. -1.
         25    2    1    2    0    0  0.24701772776E+02  0.21814183532E+02 -0.11126786431E+03  0.17056190774E+03  0.12499916225E+03 0.  0.
    9000005    1    3    3    0    0  0.75478061287E+02  0.15249417243E+02 -0.56007845443E+02  0.95222692742E+02  0.10000000000E+01 0.  0.
    9000005    1    3    3    0    0 -0.50776288511E+02  0.65647662886E+01 -0.55260018862E+02  0.75339214995E+02  0.10000000000E+01 0.  0.
         -4    1    1    2    0  502 -0.24701772776E+02 -0.21814183532E+02 -0.77319347056E+02  0.84059089399E+02  0.12700000000E+01 0. -1.
<mgrwt>
<rscale>  1 0.12927036E+03</rscale>
<asrwt>0</asrwt>
<pdfrwt beam="2">  1       21 0.34091059E-01 0.12927036E+03</pdfrwt>
<pdfrwt beam="1">  1       -4 0.50798021E-02 0.12927036E+03</pdfrwt>
<totfact> 0.77785250E+04</totfact>
</mgrwt>
</event>
<event>
 6    4  0.6325740E-003  0.1308053E+03  0.7818608E-02  0.1226266E+00
         21   -1    0    0  501  502  0.00000000000E+00  0.00000000000E+00  0.28296165144E+03  0.28296165144E+03  0.00000000000E+00 0. -1.
          4   -1    0    0  502    0 -0.00000000000E+00 -0.00000000000E+00 -0.29602514990E+02  0.29629745084E+02  0.12700000000E+01 0. -1.
         25    2    1    2    0    0  0.28132798430E+02  0.26379932409E+02  0.13446520027E+03  0.18759245196E+03  0.12499073073E+03 0.  0.
    9000005    1    3    3    0    0  0.14747745511E+02 -0.50445748159E+02  0.48514509671E+02  0.71532699890E+02  0.10000000000E+01 0.  0.
    9000005    1    3    3    0    0  0.13385052918E+02  0.76825680568E+02  0.85950690600E+02  0.11605975207E+03  0.10000000000E+01 0.  0.
          4    1    1    2  501    0 -0.28132798430E+02 -0.26379932409E+02  0.11889393618E+03  0.12499894456E+03  0.12700000000E+01 0.  1.
<mgrwt>
<rscale>  1 0.13080534E+03</rscale>
<asrwt>0</asrwt>
<pdfrwt beam="1">  1       21 0.43532560E-01 0.13080534E+03</pdfrwt>
<pdfrwt beam="2">  1        4 0.45565471E-02 0.13080534E+03</pdfrwt>
<totfact> 0.57006950E+04</totfact>
</mgrwt>
</event>
<event>
 6    4  0.6325740E-003  0.1324129E+03  0.7818608E-02  0.1223919E+00
          4   -1    0    0  502    0 -0.00000000000E+00  0.00000000000E+00  0.79482209095E+03  0.79482310558E+03  0.12700000000E+01 0. -1.
         21   -1    0    0  501  502  0.00000000000E+00 -0.00000000000E+00 -0.51003626185E+02  0.51003626185E+02  0.00000000000E+00 0.  1.
         25    2    1    2    0    0 -0.30938564636E+02  0.30862949809E+02  0.77871242513E+03  0.78989000124E+03  0.12499382611E+03 0.  0.
    9000005    1    3    3    0    0 -0.25192313102E+02 -0.42119568002E+02  0.47264715059E+03  0.47518947758E+03  0.10000000000E+01 0.  0.
    9000005    1    3    3    0    0 -0.57462515338E+01  0.72982517811E+02  0.30606527454E+03  0.31470052366E+03  0.10000000000E+01 0.  0.
          4    1    1    2  501    0  0.30938564636E+02 -0.30862949809E+02 -0.34893960356E+02  0.55936730526E+02  0.12700000000E+01 0.  1.
<mgrwt>
<rscale>  1 0.13241289E+03</rscale>
<asrwt>0</asrwt>
<pdfrwt beam="2">  1       21 0.78467123E-02 0.13241289E+03</pdfrwt>
<pdfrwt beam="1">  1        4 0.12228161E+00 0.13241289E+03</pdfrwt>
<totfact> 0.27139204E+03</totfact>
</mgrwt>
</event>
<event>
 6    4  0.6325740E-003  0.1271951E+03  0.7818608E-02  0.1231678E+00
          4   -1    0    0  502    0 -0.00000000000E+00  0.00000000000E+00  0.22812089892E+02  0.22847414411E+02  0.12700000000E+01 0. -1.
         21   -1    0    0  501  502  0.00000000000E+00 -0.00000000000E+00 -0.24900309130E+03  0.24900309130E+03  0.00000000000E+00 0. -1.
         25    2    1    2    0    0 -0.15466181737E+02  0.17723178515E+02 -0.18833275127E+03  0.22726156271E+03  0.12500111540E+03 0.  0.
    9000005    1    3    3    0    0 -0.50832939099E+02  0.50585990415E+00 -0.20407285948E+02  0.54787780676E+02  0.10000000000E+01 0.  0.
    9000005    1    3    3    0    0  0.35366757361E+02  0.17217318610E+02 -0.16792546532E+03  0.17247378203E+03  0.10000000000E+01 0.  0.
          4    1    1    2  501    0  0.15466181737E+02 -0.17723178515E+02 -0.37858250136E+02  0.44588942996E+02  0.12700000000E+01 0.  1.
<mgrwt>
<rscale>  1 0.12719510E+03</rscale>
<asrwt>0</asrwt>
<pdfrwt beam="2">  1       21 0.38308173E-01 0.12719510E+03</pdfrwt>
<pdfrwt beam="1">  1        4 0.35125183E-02 0.12719510E+03</pdfrwt>
<totfact> 0.11093510E+05</totfact>
</mgrwt>
</event>
<event>
 6    4  0.6325740E-003  0.1294998E+03  0.7818608E-02  0.1228200E+00
          4   -1    0    0  502    0 -0.00000000000E+00  0.00000000000E+00  0.48631947249E+03  0.48632113076E+03  0.12700000000E+01 0.  1.
         21   -1    0    0  501  502  0.00000000000E+00 -0.00000000000E+00 -0.14927890783E+02  0.14927890783E+02  0.00000000000E+00 0.  1.
         25    2    1    2    0    0 -0.15632811735E+02 -0.30007910187E+02  0.42156054929E+03  0.44100282524E+03  0.12500134271E+03 0.  0.
    9000005    1    3    3    0    0 -0.24869976107E+02  0.36496432026E+02  0.28949298744E+03  0.29284414804E+03  0.10000000000E+01 0.  0.
    9000005    1    3    3    0    0  0.92371643719E+01 -0.66504342214E+02  0.13206756184E+03  0.14815867720E+03  0.10000000000E+01 0.  0.
          4    1    1    2  501    0  0.15632811735E+02  0.30007910187E+02  0.49831032419E+02  0.60246196299E+02  0.12700000000E+01 0. -1.
<mgrwt>
<rscale>  1 0.12949979E+03</rscale>
<asrwt>0</asrwt>
<pdfrwt beam="2">  1       21 0.22965990E-02 0.12949979E+03</pdfrwt>
<pdfrwt beam="1">  1        4 0.74822651E-01 0.12949979E+03</pdfrwt>
<totfact> 0.64793806E+04</totfact>
</mgrwt>
</event>
<event>
 6    4  0.6325740E-003  0.1282963E+03  0.7818608E-02  0.1230006E+00
          4   -1    0    0  502    0 -0.00000000000E+00  0.00000000000E+00  0.11014030763E+03  0.11014762941E+03  0.12700000000E+01 0. -1.
         21   -1    0    0  501  502  0.00000000000E+00 -0.00000000000E+00 -0.11115004147E+03  0.11115004147E+03  0.00000000000E+00 0.  1.
         25    2    1    2    0    0  0.28687987701E+02  0.34405520844E+01  0.68910724791E+02  0.14563181681E+03  0.12500040015E+03 0.  0.
    9000005    1    3    3    0    0 -0.45114414904E+02 -0.16661210843E+02  0.43970304332E+02  0.65171266996E+02  0.10000000000E+01 0.  0.
    9000005    1    3    3    0    0  0.73802402605E+02  0.20101762927E+02  0.24940420460E+02  0.80460549810E+02  0.10000000000E+01 0.  0.
          4    1    1    2  501    0 -0.28687987701E+02 -0.34405520844E+01 -0.69920458638E+02  0.75665854077E+02  0.12700000000E+01 0.  1.
<mgrwt>
<rscale>  1 0.12829629E+03</rscale>
<asrwt>0</asrwt>
<pdfrwt beam="2">  1       21 0.17100006E-01 0.12829629E+03</pdfrwt>
<pdfrwt beam="1">  1        4 0.16945784E-01 0.12829629E+03</pdfrwt>
<totfact> 0.37826519E+04</totfact>
</mgrwt>
</event>
<event>
 6    4  0.6325740E-003  0.1298031E+03  0.7818608E-02  0.1227748E+00
         21   -1    0    0  501  502  0.00000000000E+00  0.00000000000E+00  0.17846482765E+02  0.17846482765E+02  0.00000000000E+00 0. -1.
          4   -1    0    0  502    0 -0.00000000000E+00 -0.00000000000E+00 -0.63746674188E+03  0.63746800696E+03  0.12700000000E+01 0.  1.
         25    2    1    2    0    0 -0.16069226931E+00 -0.34971570064E+02 -0.60255993291E+03  0.61638244425E+03  0.12500323314E+03 0.  0.
    9000005    1    3    3    0    0 -0.51220725764E+02 -0.10550234879E+02 -0.46047004248E+03  0.46343125728E+03  0.10000000000E+01 0.  0.
    9000005    1    3    3    0    0  0.51060033494E+02 -0.24421335185E+02 -0.14208989044E+03  0.15295118698E+03  0.10000000000E+01 0.  0.
          4    1    1    2  501    0  0.16069226931E+00  0.34971570064E+02 -0.17060326197E+02  0.38932045473E+02  0.12700000000E+01 0. -1.
<mgrwt>
<rscale>  1 0.12980310E+03</rscale>
<asrwt>0</asrwt>
<pdfrwt beam="1">  1       21 0.27456128E-02 0.12980310E+03</pdfrwt>
<pdfrwt beam="2">  1        4 0.98075378E-01 0.12980310E+03</pdfrwt>
<totfact> 0.26451977E+04</totfact>
</mgrwt>
</event>
<event>
 6    4  0.6325740E-003  0.1270068E+03  0.7818608E-02  0.1231966E+00
         21   -1    0    0  501  502  0.00000000000E+00  0.00000000000E+00  0.14797892835E+03  0.14797892835E+03  0.00000000000E+00 0.  1.
          4   -1    0    0  502    0 -0.00000000000E+00 -0.00000000000E+00 -0.40907009589E+02  0.40926719066E+02  0.12700000000E+01 0. -1.
         25    2    1    2    0    0  0.10028374348E+02 -0.20143573231E+02  0.68679886548E+02  0.14438719201E+03  0.12499761024E+03 0.  0.
    9000005    1    3    3    0    0  0.11946761477E+02 -0.34447040452E+02 -0.28405589811E+02  0.46229873872E+02  0.10000000000E+01 0.  0.
    9000005    1    3    3    0    0 -0.19183871288E+01  0.14303467221E+02  0.97085476359E+02  0.98157318136E+02  0.10000000000E+01 0.  0.
          4    1    1    2  501    0 -0.10028374348E+02  0.20143573231E+02  0.38392032212E+02  0.44518455408E+02  0.12700000000E+01 0.  1.
<mgrwt>
<rscale>  1 0.12700683E+03</rscale>
<asrwt>0</asrwt>
<pdfrwt beam="1">  1       21 0.22765989E-01 0.12700683E+03</pdfrwt>
<pdfrwt beam="2">  1        4 0.62953215E-02 0.12700683E+03</pdfrwt>
<totfact> 0.11874897E+05</totfact>
</mgrwt>
</event>
<event>
 6    4  0.6325740E-003  0.1296817E+03  0.7818608E-02  0.1227929E+00
          4   -1    0    0  502    0 -0.00000000000E+00  0.00000000000E+00  0.18852750151E+03  0.18853177909E+03  0.12700000000E+01 0. -1.
         21   -1    0    0  501  502  0.00000000000E+00 -0.00000000000E+00 -0.36011833968E+02  0.36011833968E+02  0.00000000000E+00 0. -1.
         25    2    1    2    0    0  0.28269330841E+02 -0.19862551360E+02  0.12757051213E+03  0.18191088277E+03  0.12499463066E+03 0.  0.
    9000005    1    3    3    0    0  0.50797515126E+01 -0.71513427536E+02  0.58099384669E+02  0.92284953770E+02  0.10000000000E+01 0.  0.
    9000005    1    3    3    0    0  0.23189579328E+02  0.51650876176E+02  0.69471127458E+02  0.89625929002E+02  0.10000000000E+01 0.  0.
          4    1    1    2  501    0 -0.28269330841E+02  0.19862551360E+02  0.24945155415E+02  0.42632730283E+02  0.12700000000E+01 0.  1.
<mgrwt>
<rscale>  1 0.12968166E+03</rscale>
<asrwt>0</asrwt>
<pdfrwt beam="2">  1       21 0.55402823E-02 0.12968166E+03</pdfrwt>
<pdfrwt beam="1">  1        4 0.29006282E-01 0.12968166E+03</pdfrwt>
<totfact> 0.10229351E+05</totfact>
</mgrwt>
</event>
<event>
 6    4  0.6325740E-003  0.1269955E+03  0.7818608E-02  0.1231983E+00
         21   -1    0    0  501  502  0.00000000000E+00  0.00000000000E+00  0.94695580565E+02  0.94695580565E+02  0.00000000000E+00 0.  1.
          4   -1    0    0  502    0 -0.00000000000E+00 -0.00000000000E+00 -0.17096606080E+03  0.17097077776E+03  0.12700000000E+01 0. -1.
         25    2    1    2    0    0 -0.39244390196E+01 -0.22079946094E+02 -0.14535734836E+03  0.19301972393E+03  0.12499971944E+03 0.  0.
    9000005    1    3    3    0    0 -0.27360912328E+02  0.45751621215E+02 -0.45802478823E+02  0.70290094847E+02  0.10000000000E+01 0.  0.
    9000005    1    3    3    0    0  0.23436473308E+02 -0.67831567309E+02 -0.99554869541E+02  0.12272962908E+03  0.10000000000E+01 0.  0.
          4    1    1    2  501    0  0.39244390196E+01  0.22079946094E+02  0.69086868127E+02  0.72646634393E+02  0.12700000000E+01 0.  1.
<mgrwt>
<rscale>  1 0.12699549E+03</rscale>
<asrwt>0</asrwt>
<pdfrwt beam="1">  1       21 0.14568551E-01 0.12699549E+03</pdfrwt>
<pdfrwt beam="2">  1        4 0.26303489E-01 0.12699549E+03</pdfrwt>
<totfact> 0.22798559E+04</totfact>
</mgrwt>
</event>
<event>
 6    4  0.6325740E-003  0.1273290E+03  0.7818608E-02  0.1231474E+00
          4   -1    0    0  502    0 -0.00000000000E+00  0.00000000000E+00  0.20583658288E+02  0.20622800210E+02  0.12700000000E+01 0. -1.
         21   -1    0    0  501  502  0.00000000000E+00 -0.00000000000E+00 -0.37749072826E+03  0.37749072826E+03  0.00000000000E+00 0.  1.
         25    2    1    2    0    0 -0.35578362474E+01 -0.23969835305E+02 -0.18548820641E+03  0.22498568297E+03  0.12500188647E+03 0.  0.
    9000005    1    3    3    0    0 -0.38304143638E+02 -0.18912443393E+02 -0.18498427938E+03  0.18985539643E+03  0.10000000000E+01 0.  0.
    9000005    1    3    3    0    0  0.34746307391E+02 -0.50573919122E+01 -0.50392703430E+00  0.35130286545E+02  0.10000000000E+01 0.  0.
          4    1    1    2  501    0  0.35578362474E+01  0.23969835305E+02 -0.17141886355E+03  0.17312784549E+03  0.12700000000E+01 0.  1.
<mgrwt>
<rscale>  1 0.12732903E+03</rscale>
<asrwt>0</asrwt>
<pdfrwt beam="2">  1       21 0.58075500E-01 0.12732903E+03</pdfrwt>
<pdfrwt beam="1">  1        4 0.31698917E-02 0.12732903E+03</pdfrwt>
<totfact> 0.55650560E+04</totfact>
</mgrwt>
</event>
<event>
 6    4  0.6325740E-003  0.1720266E+03  0.7818608E-02  0.1175751E+00
         21   -1    0    0  501  502  0.00000000000E+00  0.00000000000E+00  0.92600523860E+02  0.92600523860E+02  0.00000000000E+00 0. -1.
         -4   -1    0    0    0  501 -0.00000000000E+00 -0.00000000000E+00 -0.30833387383E+03  0.30833648932E+03  0.12700000000E+01 0.  1.
         25    2    1    2    0    0 -0.15061433169E+02 -0.11722997446E+03 -0.22401572709E+03  0.28244682645E+03  0.12499380027E+03 0.  0.
    9000005    1    3    3    0    0 -0.49687190943E+02 -0.85451723281E+02 -0.69239530706E+02  0.12068938051E+03  0.10000000000E+01 0.  0.
    9000005    1    3    3    0    0  0.34625757774E+02 -0.31778251182E+02 -0.15477619638E+03  0.16175744594E+03  0.10000000000E+01 0.  0.
         -4    1    1    2    0  502  0.15061433169E+02  0.11722997446E+03  0.82823771232E+01  0.11849018674E+03  0.12700000000E+01 0. -1.
<mgrwt>
<rscale>  1 0.17202664E+03</rscale>
<asrwt>0</asrwt>
<pdfrwt beam="1">  1       21 0.14246234E-01 0.17202664E+03</pdfrwt>
<pdfrwt beam="2">  1       -4 0.47436853E-01 0.17202664E+03</pdfrwt>
<totfact> 0.77692360E+03</totfact>
</mgrwt>
</event>
<event>
 6    4  0.6325740E-003  0.1442040E+03  0.7818608E-02  0.1207782E+00
         -4   -1    0    0    0  501 -0.00000000000E+00  0.00000000000E+00  0.40160074854E+03  0.40160275662E+03  0.12700000000E+01 0.  1.
         21   -1    0    0  501  502  0.00000000000E+00 -0.00000000000E+00 -0.75861780162E+02  0.75861780162E+02  0.00000000000E+00 0. -1.
         25    2    1    2    0    0 -0.61507737724E+02 -0.37236282781E+02  0.36716909214E+03  0.39447170209E+03  0.12500015589E+03 0.  0.
    9000005    1    3    3    0    0 -0.34327729825E+02 -0.75300241760E+02  0.30863764300E+03  0.31954141221E+03  0.10000000000E+01 0.  0.
    9000005    1    3    3    0    0 -0.27180007899E+02  0.38063958980E+02  0.58531449143E+02  0.74930289879E+02  0.10000000000E+01 0.  0.
         -4    1    1    2    0  502  0.61507737724E+02  0.37236282781E+02 -0.41430123763E+02  0.82992834692E+02  0.12700000000E+01 0. -1.
<mgrwt>
<rscale>  1 0.14420396E+03</rscale>
<asrwt>0</asrwt>
<pdfrwt beam="2">  1       21 0.11671043E-01 0.14420396E+03</pdfrwt>
<pdfrwt beam="1">  1       -4 0.61785701E-01 0.14420396E+03</pdfrwt>
<totfact> 0.63451586E+03</totfact>
</mgrwt>
</event>
<event>
 6    4  0.6325740E-003  0.1427750E+03  0.7818608E-02  0.1209643E+00
         21   -1    0    0  501  502  0.00000000000E+00  0.00000000000E+00  0.14164375984E+03  0.14164375984E+03  0.00000000000E+00 0.  1.
         -4   -1    0    0    0  501 -0.00000000000E+00 -0.00000000000E+00 -0.11661741227E+03  0.11662432742E+03  0.12700000000E+01 0. -1.
         25    2    1    2    0    0 -0.25596117388E+02  0.64155924098E+02 -0.54591315247E+02  0.15285590127E+03  0.12495427576E+03 0.  0.
    9000005    1    3    3    0    0  0.13282036425E+02 -0.88458695772E+01 -0.67297272452E+02  0.69170693069E+02  0.10000000000E+01 0.  0.
    9000005    1    3    3    0    0 -0.38878153814E+02  0.73001793676E+02  0.12705957206E+02  0.83685208205E+02  0.10000000000E+01 0.  0.
         -4    1    1    2    0  502  0.25596117388E+02 -0.64155924098E+02  0.79617662816E+02  0.10541218599E+03  0.12700000000E+01 0.  1.
<mgrwt>
<rscale>  1 0.14277505E+03</rscale>
<asrwt>0</asrwt>
<pdfrwt beam="1">  1       21 0.21791348E-01 0.14277505E+03</pdfrwt>
<pdfrwt beam="2">  1       -4 0.17942110E-01 0.14277505E+03</pdfrwt>
<totfact> 0.22101694E+04</totfact>
</mgrwt>
</event>
<event>
 6    4  0.6325740E-003  0.1291796E+03  0.7818608E-02  0.1228678E+00
         21   -1    0    0  501  502  0.00000000000E+00  0.00000000000E+00  0.15073287370E+03  0.15073287370E+03  0.00000000000E+00 0. -1.
          4   -1    0    0  502    0 -0.00000000000E+00 -0.00000000000E+00 -0.43451198668E+02  0.43469754608E+02  0.12700000000E+01 0. -1.
         25    2    1    2    0    0  0.24342940626E+02  0.21651714251E+02  0.88326742150E+02  0.15648952888E+03  0.12500393506E+03 0.  0.
    9000005    1    3    3    0    0 -0.45414413288E+01 -0.28393023394E+02 -0.19079576765E+02  0.34522727533E+02  0.10000000000E+01 0.  0.
    9000005    1    3    3    0    0  0.28884381955E+02  0.50044737644E+02  0.10740631892E+03  0.12196680134E+03  0.10000000000E+01 0.  0.
          4    1    1    2  501    0 -0.24342940626E+02 -0.21651714251E+02  0.18954932884E+02  0.37713099435E+02  0.12700000000E+01 0.  1.
<mgrwt>
<rscale>  1 0.12917956E+03</rscale>
<asrwt>0</asrwt>
<pdfrwt beam="1">  1       21 0.23189673E-01 0.12917956E+03</pdfrwt>
<pdfrwt beam="2">  1        4 0.66866388E-02 0.12917956E+03</pdfrwt>
<totfact> 0.10421139E+05</totfact>
</mgrwt>
</event>
<event>
 6    4  0.6325740E-003  0.1346070E+03  0.7818608E-02  0.1220776E+00
          4   -1    0    0  502    0 -0.00000000000E+00  0.00000000000E+00  0.48884959613E+02  0.48901453724E+02  0.12700000000E+01 0. -1.
         21   -1    0    0  501  502  0.00000000000E+00 -0.00000000000E+00 -0.40924598192E+03  0.40924598192E+03  0.00000000000E+00 0. -1.
         25    2    1    2    0    0  0.24106732299E+02  0.43741011572E+02 -0.49691224239E+02  0.14348611459E+03  0.12499854671E+03 0.  0.
    9000005    1    3    3    0    0 -0.27238009115E+02  0.71272627844E+02 -0.26637451817E+02  0.80822338865E+02  0.10000000000E+01 0.  0.
    9000005    1    3    3    0    0  0.51344741413E+02 -0.27531616272E+02 -0.23053772423E+02  0.62663775726E+02  0.10000000000E+01 0.  0.
          4    1    1    2  501    0 -0.24106732299E+02 -0.43741011572E+02 -0.31066979807E+03  0.31466132106E+03  0.12700000000E+01 0.  1.
<mgrwt>
<rscale>  1 0.13460701E+03</rscale>
<asrwt>0</asrwt>
<pdfrwt beam="2">  1       21 0.62960920E-01 0.13460701E+03</pdfrwt>
<pdfrwt beam="1">  1        4 0.75221835E-02 0.13460701E+03</pdfrwt>
<totfact> 0.11760186E+04</totfact>
</mgrwt>
</event>
<event>
 6    4  0.6325740E-003  0.1275275E+03  0.7818608E-02  0.1231171E+00
         21   -1    0    0  501  502  0.00000000000E+00  0.00000000000E+00  0.52166463493E+02  0.52166463493E+02  0.00000000000E+00 0. -1.
          4   -1    0    0  502    0 -0.00000000000E+00 -0.00000000000E+00 -0.24288997053E+03  0.24289329074E+03  0.12700000000E+01 0.  1.
         25    2    1    2    0    0 -0.24629439186E+02 -0.55810444539E+01 -0.22127991522E+03  0.25539787943E+03  0.12500207441E+03 0.  0.
    9000005    1    3    3    0    0 -0.32354106800E+02 -0.61784835166E+02 -0.10567632695E+03  0.12662006224E+03  0.10000000000E+01 0.  0.
    9000005    1    3    3    0    0  0.77246676138E+01  0.56203790712E+02 -0.11560358827E+03  0.12877781719E+03  0.10000000000E+01 0.  0.
          4    1    1    2  501    0  0.24629439186E+02  0.55810444539E+01  0.30556408180E+02  0.39661874800E+02  0.12700000000E+01 0. -1.
<mgrwt>
<rscale>  1 0.12752755E+03</rscale>
<asrwt>0</asrwt>
<pdfrwt beam="1">  1       21 0.80256098E-02 0.12752755E+03</pdfrwt>
<pdfrwt beam="2">  1        4 0.37369132E-01 0.12752755E+03</pdfrwt>
<totfact> 0.33416786E+04</totfact>
</mgrwt>
</event>
<event>
 6    4  0.6325740E-003  0.1448583E+03  0.7818608E-02  0.1206937E+00
         21   -1    0    0  501  502  0.00000000000E+00  0.00000000000E+00  0.19269326346E+04  0.19269326346E+04  0.00000000000E+00 0.  1.
          4   -1    0    0  502    0 -0.00000000000E+00 -0.00000000000E+00 -0.23507692827E+02  0.23541973623E+02  0.12700000000E+01 0. -1.
         25    2    1    2    0    0  0.16001156056E+02 -0.71437180526E+02  0.20801298202E+03  0.25348237668E+03  0.12499842735E+03 0.  0.
    9000005    1    3    3    0    0  0.42923113151E+02 -0.86884805206E+02  0.19867730154E+03  0.22105436699E+03  0.10000000000E+01 0.  0.
    9000005    1    3    3    0    0 -0.26921957095E+02  0.15447624680E+02  0.93356804776E+01  0.32428009684E+02  0.10000000000E+01 0.  0.
          4    1    1    2  501    0 -0.16001156056E+02  0.71437180526E+02  0.16954119598E+04  0.16969922316E+04  0.12700000000E+01 0.  1.
<mgrwt>
<rscale>  1 0.14485826E+03</rscale>
<asrwt>0</asrwt>
<pdfrwt beam="1">  1       21 0.29645105E+00 0.14485826E+03</pdfrwt>
<pdfrwt beam="2">  1        4 0.36192388E-02 0.14485826E+03</pdfrwt>
<totfact> 0.62101606E+02</totfact>
</mgrwt>
</event>
<event>
 6    4  0.6325740E-003  0.1266210E+03  0.7818608E-02  0.1232557E+00
         21   -1    0    0  501  502  0.00000000000E+00  0.00000000000E+00  0.27606398333E+03  0.27606398333E+03  0.00000000000E+00 0. -1.
          4   -1    0    0  502    0 -0.00000000000E+00 -0.00000000000E+00 -0.27094677000E+02  0.27124424818E+02  0.12700000000E+01 0. -1.
         25    2    1    2    0    0 -0.12231641123E+02 -0.16110814903E+02  0.12625116304E+03  0.17880783493E+03  0.12499485694E+03 0.  0.
    9000005    1    3    3    0    0 -0.16157818508E+02  0.28125832608E+01 -0.23022672741E+02  0.28284787142E+02  0.10000000000E+01 0.  0.
    9000005    1    3    3    0    0  0.39261773849E+01 -0.18923398163E+02  0.14927383578E+03  0.15052304779E+03  0.10000000000E+01 0.  0.
          4    1    1    2  501    0  0.12231641123E+02  0.16110814903E+02  0.12271814329E+03  0.12438057322E+03  0.12700000000E+01 0.  1.
<mgrwt>
<rscale>  1 0.12662103E+03</rscale>
<asrwt>0</asrwt>
<pdfrwt beam="1">  1       21 0.42471380E-01 0.12662103E+03</pdfrwt>
<pdfrwt beam="2">  1        4 0.41709250E-02 0.12662103E+03</pdfrwt>
<totfact> 0.68724541E+04</totfact>
</mgrwt>
</event>
<event>
 6    4  0.6325740E-003  0.1293177E+03  0.7818608E-02  0.1228472E+00
          4   -1    0    0  502    0 -0.00000000000E+00  0.00000000000E+00  0.60617735782E+02  0.60631038184E+02  0.12700000000E+01 0.  1.
         21   -1    0    0  501  502  0.00000000000E+00 -0.00000000000E+00 -0.10931001315E+03  0.10931001315E+03  0.00000000000E+00 0.  1.
         25    2    1    2    0    0  0.15088698515E+02  0.29499702567E+02 -0.34270684330E+02  0.13378172999E+03  0.12500068080E+03 0.  0.
    9000005    1    3    3    0    0  0.22881079963E+02  0.71798591416E+02 -0.47120427148E+02  0.88881472783E+02  0.10000000000E+01 0.  0.
    9000005    1    3    3    0    0 -0.77923814475E+01 -0.42298888849E+02  0.12849742817E+02  0.44900257204E+02  0.10000000000E+01 0.  0.
          4    1    1    2  501    0 -0.15088698515E+02 -0.29499702567E+02 -0.14421593035E+02  0.36159321345E+02  0.12700000000E+01 0. -1.
<mgrwt>
<rscale>  1 0.12931772E+03</rscale>
<asrwt>0</asrwt>
<pdfrwt beam="2">  1       21 0.16816925E-01 0.12931772E+03</pdfrwt>
<pdfrwt beam="1">  1        4 0.93273962E-02 0.12931772E+03</pdfrwt>
<totfact> 0.10880904E+05</totfact>
</mgrwt>
</event>
<event>
 6    4  0.6325740E-003  0.1275637E+03  0.7818608E-02  0.1231116E+00
         -4   -1    0    0    0  501 -0.00000000000E+00  0.00000000000E+00  0.79420407695E+02  0.79430561237E+02  0.12700000000E+01 0.  1.
         21   -1    0    0  501  502  0.00000000000E+00 -0.00000000000E+00 -0.16918972311E+03  0.16918972311E+03  0.00000000000E+00 0. -1.
         25    2    1    2    0    0  0.22156995195E+02  0.12505291069E+02  0.25910753882E+02  0.13016858080E+03  0.12500071008E+03 0.  0.
    9000005    1    3    3    0    0  0.11051027391E+02 -0.56252764281E+02  0.55896191877E+01  0.57608528347E+02  0.10000000000E+01 0.  0.
    9000005    1    3    3    0    0  0.11105967804E+02  0.68758055351E+02  0.20321134694E+02  0.72560052451E+02  0.10000000000E+01 0.  0.
         -4    1    1    2    0  502 -0.22156995195E+02 -0.12505291069E+02 -0.11568006929E+03  0.11845170354E+03  0.12700000000E+01 0. -1.
<mgrwt>
<rscale>  1 0.12756368E+03</rscale>
<asrwt>0</asrwt>
<pdfrwt beam="2">  1       21 0.26029188E-01 0.12756368E+03</pdfrwt>
<pdfrwt beam="1">  1       -4 0.12219672E-01 0.12756368E+03</pdfrwt>
<totfact> 0.30558331E+04</totfact>
</mgrwt>
</event>
<event>
 6    4  0.6325740E-003  0.1289999E+03  0.7818608E-02  0.1228947E+00
         21   -1    0    0  501  502  0.00000000000E+00  0.00000000000E+00  0.34640829984E+03  0.34640829984E+03  0.00000000000E+00 0. -1.
         -4   -1    0    0    0  501 -0.00000000000E+00 -0.00000000000E+00 -0.12792240668E+03  0.12792871073E+03  0.12700000000E+01 0.  1.
         25    2    1    2    0    0 -0.94680351848E+01  0.30421510726E+02 -0.94387109405E+02  0.15984338482E+03  0.12500347692E+03 0.  0.
    9000005    1    3    3    0    0  0.46951643360E+02  0.40842196553E+02 -0.78737430277E+02  0.10036495783E+03  0.10000000000E+01 0.  0.
    9000005    1    3    3    0    0 -0.56419678545E+02 -0.10420685827E+02 -0.15649679127E+02  0.59478426989E+02  0.10000000000E+01 0.  0.
         -4    1    1    2    0  502  0.94680351848E+01 -0.30421510726E+02  0.31287300257E+03  0.31449362576E+03  0.12700000000E+01 0. -1.
<mgrwt>
<rscale>  1 0.12899993E+03</rscale>
<asrwt>0</asrwt>
<pdfrwt beam="1">  1       21 0.53293584E-01 0.12899993E+03</pdfrwt>
<pdfrwt beam="2">  1       -4 0.19681034E-01 0.12899993E+03</pdfrwt>
<totfact> 0.32055953E+03</totfact>
</mgrwt>
</event>
<event>
 6    4  0.6325740E-003  0.1332254E+03  0.7818608E-02  0.1222747E+00
         21   -1    0    0  501  502  0.00000000000E+00  0.00000000000E+00  0.24827949413E+03  0.24827949413E+03  0.00000000000E+00 0. -1.
         -4   -1    0    0    0  501 -0.00000000000E+00 -0.00000000000E+00 -0.36403794524E+02  0.36425940698E+02  0.12700000000E+01 0. -1.
         25    2    1    2    0    0  0.26784084958E+02  0.37542664747E+02  0.10963078808E+03  0.17253380866E+03  0.12498866570E+03 0.  0.
    9000005    1    3    3    0    0 -0.24476856602E+02  0.14859076705E+02  0.11279793959E+03  0.11637991169E+03  0.10000000000E+01 0.  0.
    9000005    1    3    3    0    0  0.51260941560E+02  0.22683588043E+02 -0.31671515131E+01  0.56153896969E+02  0.10000000000E+01 0.  0.
         -4    1    1    2    0  502 -0.26784084958E+02 -0.37542664747E+02  0.10224491153E+03  0.11217162617E+03  0.12700000000E+01 0.  1.
<mgrwt>
<rscale>  1 0.13322539E+03</rscale>
<asrwt>0</asrwt>
<pdfrwt beam="1">  1       21 0.38196844E-01 0.13322539E+03</pdfrwt>
<pdfrwt beam="2">  1       -4 0.56025373E-02 0.13322539E+03</pdfrwt>
<totfact> 0.53264135E+04</totfact>
</mgrwt>
</event>
<event>
 6    4  0.6325740E-003  0.1444226E+03  0.7818608E-02  0.1207499E+00
         -4   -1    0    0    0  501 -0.00000000000E+00  0.00000000000E+00  0.27147738632E+03  0.27148035690E+03  0.12700000000E+01 0. -1.
         21   -1    0    0  501  502  0.00000000000E+00 -0.00000000000E+00 -0.77312217205E+02  0.77312217205E+02  0.00000000000E+00 0.  1.
         25    2    1    2    0    0  0.16634510726E+02  0.70399192804E+02  0.22723304383E+03  0.26924478638E+03  0.12500058196E+03 0.  0.
    9000005    1    3    3    0    0  0.23991391801E+01  0.88920463718E+01  0.20044068604E+03  0.20065466099E+03  0.10000000000E+01 0.  0.
    9000005    1    3    3    0    0  0.14235371546E+02  0.61507146433E+02  0.26792357790E+02  0.68590125392E+02  0.10000000000E+01 0.  0.
         -4    1    1    2    0  502 -0.16634510726E+02 -0.70399192804E+02 -0.33067874710E+02  0.79547787728E+02  0.12700000000E+01 0.  1.
<mgrwt>
<rscale>  1 0.14442264E+03</rscale>
<asrwt>0</asrwt>
<pdfrwt beam="2">  1       21 0.11894187E-01 0.14442264E+03</pdfrwt>
<pdfrwt beam="1">  1       -4 0.41766782E-01 0.14442264E+03</pdfrwt>
<totfact> 0.13672319E+04</totfact>
</mgrwt>
</event>
<event>
 6    4  0.6325740E-003  0.1417452E+03  0.7818608E-02  0.1211000E+00
          4   -1    0    0  502    0 -0.00000000000E+00  0.00000000000E+00  0.10426248234E+03  0.10427021686E+03  0.12700000000E+01 0.  1.
         21   -1    0    0  501  502  0.00000000000E+00 -0.00000000000E+00 -0.18200677921E+03  0.18200677921E+03  0.00000000000E+00 0. -1.
         25    2    1    2    0    0  0.37385441695E+02  0.55397689178E+02  0.43120842804E+02  0.14815903886E+03  0.12500047397E+03 0.  0.
    9000005    1    3    3    0    0  0.35417085225E+02  0.17017521431E+02  0.83572023699E+02  0.92353933899E+02  0.10000000000E+01 0.  0.
    9000005    1    3    3    0    0  0.19683564701E+01  0.38380167747E+02 -0.40451180895E+02  0.55805104957E+02  0.10000000000E+01 0.  0.
          4    1    1    2  501    0 -0.37385441695E+02 -0.55397689178E+02 -0.12086513967E+03  0.13811795721E+03  0.12700000000E+01 0. -1.
<mgrwt>
<rscale>  1 0.14174517E+03</rscale>
<asrwt>0</asrwt>
<pdfrwt beam="2">  1       21 0.28001043E-01 0.14174517E+03</pdfrwt>
<pdfrwt beam="1">  1        4 0.16041318E-01 0.14174517E+03</pdfrwt>
<totfact> 0.16752600E+04</totfact>
</mgrwt>
</event>
<event>
 6    4  0.6325740E-003  0.1272892E+03  0.7818608E-02  0.1231534E+00
         21   -1    0    0  501  502  0.00000000000E+00  0.00000000000E+00  0.76082293345E+03  0.76082293345E+03  0.00000000000E+00 0. -1.
          4   -1    0    0  502    0 -0.00000000000E+00 -0.00000000000E+00 -0.83826654013E+01  0.84783240815E+01  0.12700000000E+01 0. -1.
         25    2    1    2    0    0  0.24023995329E+02 -0.48932555158E+00  0.50900124453E+03  0.52467590549E+03  0.12500058830E+03 0.  0.
    9000005    1    3    3    0    0  0.66826815537E+02  0.39928775899E+01  0.16615369698E+03  0.17913630946E+03  0.10000000000E+01 0.  0.
    9000005    1    3    3    0    0 -0.42802820207E+02 -0.44822031415E+01  0.34284754755E+03  0.34553959603E+03  0.10000000000E+01 0.  0.
          4    1    1    2  501    0 -0.24023995329E+02  0.48932555158E+00  0.24343902352E+03  0.24462535205E+03  0.12700000000E+01 0.  1.
<mgrwt>
<rscale>  1 0.12728919E+03</rscale>
<asrwt>0</asrwt>
<pdfrwt beam="1">  1       21 0.11704963E+00 0.12728919E+03</pdfrwt>
<pdfrwt beam="2">  1        4 0.12970813E-02 0.12728919E+03</pdfrwt>
<totfact> 0.45415137E+04</totfact>
</mgrwt>
</event>
<event>
 6    4  0.6325740E-003  0.1303575E+03  0.7818608E-02  0.1226926E+00
         21   -1    0    0  501  502  0.00000000000E+00  0.00000000000E+00  0.14957920335E+03  0.14957920335E+03  0.00000000000E+00 0.  1.
         -4   -1    0    0    0  501 -0.00000000000E+00 -0.00000000000E+00 -0.17947742263E+03  0.17948191589E+03  0.12700000000E+01 0. -1.
         25    2    1    2    0    0  0.28870228589E+00 -0.36979401942E+02 -0.15271820405E+03  0.20078828082E+03  0.12500209738E+03 0.  0.
    9000005    1    3    3    0    0 -0.66430617917E+01  0.37889785348E+02 -0.10457058045E+02  0.39876260690E+02  0.10000000000E+01 0.  0.
    9000005    1    3    3    0    0  0.69317640776E+01 -0.74869187290E+02 -0.14226114601E+03  0.16091202013E+03  0.10000000000E+01 0.  0.
         -4    1    1    2    0  502 -0.28870228589E+00  0.36979401942E+02  0.12281998477E+03  0.12827283842E+03  0.12700000000E+01 0.  1.
<mgrwt>
<rscale>  1 0.13035752E+03</rscale>
<asrwt>0</asrwt>
<pdfrwt beam="1">  1       21 0.23012185E-01 0.13035752E+03</pdfrwt>
<pdfrwt beam="2">  1       -4 0.27612671E-01 0.13035752E+03</pdfrwt>
<totfact> 0.90266856E+03</totfact>
</mgrwt>
</event>
<event>
 6    4  0.6325740E-003  0.1266509E+03  0.7818608E-02  0.1232512E+00
         21   -1    0    0  501  502  0.00000000000E+00  0.00000000000E+00  0.90544176894E+02  0.90544176894E+02  0.00000000000E+00 0.  1.
          4   -1    0    0  502    0 -0.00000000000E+00 -0.00000000000E+00 -0.11655942576E+03  0.11656634435E+03  0.12700000000E+01 0. -1.
         25    2    1    2    0    0 -0.18774968573E+02  0.79610200870E+01 -0.79718767585E+02  0.14965133479E+03  0.12499825124E+03 0.  0.
    9000005    1    3    3    0    0  0.20111539118E+02 -0.49242034940E+02 -0.15879396741E+02  0.55519431297E+02  0.10000000000E+01 0.  0.
    9000005    1    3    3    0    0 -0.38886507691E+02  0.57203055027E+02 -0.63839370844E+02  0.94131903490E+02  0.10000000000E+01 0.  0.
          4    1    1    2  501    0  0.18774968573E+02 -0.79610200870E+01  0.53703518714E+02  0.57459186455E+02  0.12700000000E+01 0.  1.
<mgrwt>
<rscale>  1 0.12665086E+03</rscale>
<asrwt>0</asrwt>
<pdfrwt beam="1">  1       21 0.13929873E-01 0.12665086E+03</pdfrwt>
<pdfrwt beam="2">  1        4 0.17933437E-01 0.12665086E+03</pdfrwt>
<totfact> 0.49480343E+04</totfact>
</mgrwt>
</event>
<event>
 6    4  0.6325740E-003  0.1270888E+03  0.7818608E-02  0.1231841E+00
         21   -1    0    0  501  502  0.00000000000E+00  0.00000000000E+00  0.32075564572E+02  0.32075564572E+02  0.00000000000E+00 0.  1.
         -4   -1    0    0    0  501 -0.00000000000E+00 -0.00000000000E+00 -0.29341031266E+03  0.29341306119E+03  0.12700000000E+01 0.  1.
         25    2    1    2    0    0 -0.14974246381E+02 -0.17417180931E+02 -0.27192936784E+03  0.30016185901E+03  0.12499589699E+03 0.  0.
    9000005    1    3    3    0    0 -0.33471483999E+02 -0.34583694021E+02 -0.29581639886E+02  0.56501730519E+02  0.10000000000E+01 0.  0.
    9000005    1    3    3    0    0  0.18497237618E+02  0.17166513091E+02 -0.24234772796E+03  0.24366012849E+03  0.10000000000E+01 0.  0.
         -4    1    1    2    0  502  0.14974246381E+02  0.17417180931E+02  0.10594619754E+02  0.25326766750E+02  0.12700000000E+01 0. -1.
<mgrwt>
<rscale>  1 0.12708879E+03</rscale>
<asrwt>0</asrwt>
<pdfrwt beam="1">  1       21 0.49347022E-02 0.12708879E+03</pdfrwt>
<pdfrwt beam="2">  1       -4 0.45142194E-01 0.12708879E+03</pdfrwt>
<totfact> 0.52592619E+04</totfact>
</mgrwt>
</event>
<event>
 6    4  0.6325740E-003  0.1313496E+03  0.7818608E-02  0.1225467E+00
         21   -1    0    0  501  502  0.00000000000E+00  0.00000000000E+00  0.13071239286E+03  0.13071239286E+03  0.00000000000E+00 0. -1.
         -4   -1    0    0    0  501 -0.00000000000E+00 -0.00000000000E+00 -0.56490812100E+02  0.56505086070E+02  0.12700000000E+01 0. -1.
         25    2    1    2    0    0 -0.33698215717E+02  0.22189220716E+02  0.53318008669E+02  0.14175866807E+03  0.12499911466E+03 0.  0.
    9000005    1    3    3    0    0 -0.79176209023E+02 -0.28836153597E+01  0.28631020666E+02  0.84249170068E+02  0.10000000000E+01 0.  0.
    9000005    1    3    3    0    0  0.45477993306E+02  0.25072836076E+02  0.24686988003E+02  0.57509498004E+02  0.10000000000E+01 0.  0.
         -4    1    1    2    0  502  0.33698215717E+02 -0.22189220716E+02  0.20903572091E+02  0.45458810858E+02  0.12700000000E+01 0.  1.
<mgrwt>
<rscale>  1 0.13134957E+03</rscale>
<asrwt>0</asrwt>
<pdfrwt beam="1">  1       21 0.20109599E-01 0.13134957E+03</pdfrwt>
<pdfrwt beam="2">  1       -4 0.86924668E-02 0.13134957E+03</pdfrwt>
<totfact> 0.88353599E+04</totfact>
</mgrwt>
</event>
<event>
 6    4  0.6325740E-003  0.1319804E+03  0.7818608E-02  0.1224546E+00
          4   -1    0    0  502    0 -0.00000000000E+00  0.00000000000E+00  0.38886922767E+03  0.38887130150E+03  0.12700000000E+01 0.  1.
         21   -1    0    0  501  502  0.00000000000E+00 -0.00000000000E+00 -0.32735795158E+02  0.32735795158E+02  0.00000000000E+00 0.  1.
         25    2    1    2    0    0  0.35476534183E+02  0.23133013977E+02  0.35552438695E+03  0.37923134121E+03  0.12500039851E+03 0.  0.
    9000005    1    3    3    0    0 -0.39618858386E+02  0.33175926049E+02  0.19483344109E+03  0.20157223464E+03  0.10000000000E+01 0.  0.
    9000005    1    3    3    0    0  0.75095392570E+02 -0.10042912072E+02  0.16069094585E+03  0.17765910657E+03  0.10000000000E+01 0.  0.
          4    1    1    2  501    0 -0.35476534183E+02 -0.23133013977E+02  0.60904556760E+00  0.42375755449E+02  0.12700000000E+01 0. -1.
<mgrwt>
<rscale>  1 0.13198038E+03</rscale>
<asrwt>0</asrwt>
<pdfrwt beam="2">  1       21 0.50362765E-02 0.13198038E+03</pdfrwt>
<pdfrwt beam="1">  1        4 0.59828086E-01 0.13198038E+03</pdfrwt>
<totfact> 0.28680950E+04</totfact>
</mgrwt>
</event>
<event>
 6    4  0.6325740E-003  0.1281567E+03  0.7818608E-02  0.1230217E+00
          4   -1    0    0  502    0 -0.00000000000E+00  0.00000000000E+00  0.80823919335E+02  0.80833896582E+02  0.12700000000E+01 0. -1.
         21   -1    0    0  501  502  0.00000000000E+00 -0.00000000000E+00 -0.82457646770E+02  0.82457646770E+02  0.00000000000E+00 0. -1.
         25    2    1    2    0    0  0.24557625559E+02  0.14013236261E+02  0.17184236911E+02  0.12930365660E+03  0.12499875939E+03 0.  0.
    9000005    1    3    3    0    0 -0.50797794449E+02  0.10507002927E+02  0.14245550931E+02  0.53802869373E+02  0.10000000000E+01 0.  0.
    9000005    1    3    3    0    0  0.75355420008E+02  0.35062333332E+01  0.29386859804E+01  0.75500787228E+02  0.10000000000E+01 0.  0.
          4    1    1    2  501    0 -0.24557625559E+02 -0.14013236261E+02 -0.18817964346E+02  0.33987886750E+02  0.12700000000E+01 0.  1.
<mgrwt>
<rscale>  1 0.12815669E+03</rscale>
<asrwt>0</asrwt>
<pdfrwt beam="2">  1       21 0.12685792E-01 0.12815669E+03</pdfrwt>
<pdfrwt beam="1">  1        4 0.12435969E-01 0.12815669E+03</pdfrwt>
<totfact> 0.11087347E+05</totfact>
</mgrwt>
</event>
<event>
 6    4  0.6325740E-003  0.1651144E+03  0.7818608E-02  0.1183041E+00
         -4   -1    0    0    0  501 -0.00000000000E+00  0.00000000000E+00  0.64694028493E+02  0.64706492895E+02  0.12700000000E+01 0. -1.
         21   -1    0    0  501  502  0.00000000000E+00 -0.00000000000E+00 -0.41515483910E+03  0.41515483910E+03  0.00000000000E+00 0.  1.
         25    2    1    2    0    0 -0.37840366029E+02  0.10102092355E+03 -0.69950399650E+02  0.17932044650E+03  0.12500257528E+03 0.  0.
    9000005    1    3    3    0    0  0.26026989649E+02  0.40482165030E+02  0.21217437948E+02  0.52605983963E+02  0.10000000000E+01 0.  0.
    9000005    1    3    3    0    0 -0.63867355677E+02  0.60538758523E+02 -0.91167837598E+02  0.12671446254E+03  0.10000000000E+01 0.  0.
         -4    1    1    2    0  502  0.37840366029E+02 -0.10102092355E+03 -0.28051041096E+03  0.30054088549E+03  0.12700000000E+01 0.  1.
<mgrwt>
<rscale>  1 0.16511440E+03</rscale>
<asrwt>0</asrwt>
<pdfrwt beam="2">  1       21 0.63869973E-01 0.16511440E+03</pdfrwt>
<pdfrwt beam="1">  1       -4 0.99540360E-02 0.16511440E+03</pdfrwt>
<totfact> 0.72347748E+03</totfact>
</mgrwt>
</event>
<event>
 6    4  0.6325740E-003  0.1268451E+03  0.7818608E-02  0.1232214E+00
         21   -1    0    0  501  502  0.00000000000E+00  0.00000000000E+00  0.26146777635E+03  0.26146777635E+03  0.00000000000E+00 0.  1.
          4   -1    0    0  502    0 -0.00000000000E+00 -0.00000000000E+00 -0.49748142350E+02  0.49764350365E+02  0.12700000000E+01 0.  1.
         25    2    1    2    0    0  0.20676013213E+02 -0.61259800995E+01  0.32805494981E+02  0.13101862224E+03  0.12499861486E+03 0.  0.
    9000005    1    3    3    0    0  0.25314404772E+02  0.39504507282E+02 -0.28152283475E+02  0.54726376177E+02  0.10000000000E+01 0.  0.
    9000005    1    3    3    0    0 -0.46383915591E+01 -0.45630487381E+02  0.60957778456E+02  0.76292246062E+02  0.10000000000E+01 0.  0.
          4    1    1    2  501    0 -0.20676013213E+02  0.61259800995E+01  0.17891413902E+03  0.18021350447E+03  0.12700000000E+01 0. -1.
<mgrwt>
<rscale>  1 0.12684510E+03</rscale>
<asrwt>0</asrwt>
<pdfrwt beam="1">  1       21 0.40225811E-01 0.12684510E+03</pdfrwt>
<pdfrwt beam="2">  1        4 0.76550445E-02 0.12684510E+03</pdfrwt>
<totfact> 0.28702999E+04</totfact>
</mgrwt>
</event>
<event>
 6    4  0.6325740E-003  0.1302776E+03  0.7818608E-02  0.1227044E+00
         -4   -1    0    0    0  501 -0.00000000000E+00  0.00000000000E+00  0.38524393399E+01  0.40563763223E+01  0.12700000000E+01 0. -1.
         21   -1    0    0  501  502  0.00000000000E+00 -0.00000000000E+00 -0.17873371423E+04  0.17873371423E+04  0.00000000000E+00 0. -1.
         25    2    1    2    0    0  0.33779309273E+01 -0.36551016940E+02 -0.14710100492E+04  0.14767676942E+04  0.12499948201E+03 0.  0.
    9000005    1    3    3    0    0  0.16978778661E+02  0.33171416135E+02 -0.97321185296E+03  0.97392552719E+03  0.10000000000E+01 0.  0.
    9000005    1    3    3    0    0 -0.13600847733E+02 -0.69722433075E+02 -0.49779819623E+03  0.50284216699E+03  0.10000000000E+01 0.  0.
         -4    1    1    2    0  502 -0.33779309273E+01  0.36551016940E+02 -0.31247465380E+03  0.31462582447E+03  0.12700000000E+01 0.  1.
<mgrwt>
<rscale>  1 0.13027762E+03</rscale>
<asrwt>0</asrwt>
<pdfrwt beam="2">  1       21 0.27497589E+00 0.13027762E+03</pdfrwt>
<pdfrwt beam="1">  1       -4 0.60840305E-03 0.13027762E+03</pdfrwt>
<totfact> 0.12573611E+04</totfact>
</mgrwt>
</event>
<event>
 6    4  0.6325740E-003  0.1281766E+03  0.7818608E-02  0.1230187E+00
         -4   -1    0    0    0  501 -0.00000000000E+00  0.00000000000E+00  0.40723050208E+02  0.40742848676E+02  0.12700000000E+01 0.  1.
         21   -1    0    0  501  502  0.00000000000E+00 -0.00000000000E+00 -0.26544701021E+03  0.26544701021E+03  0.00000000000E+00 0. -1.
         25    2    1    2    0    0  0.25561374798E+02  0.12177846229E+02 -0.64522407366E+02  0.14350047943E+03  0.12501025048E+03 0.  0.
    9000005    1    3    3    0    0 -0.31789384477E+02  0.22664555074E+02  0.17555311831E+02  0.42818640749E+02  0.10000000000E+01 0.  0.
    9000005    1    3    3    0    0  0.57350759275E+02 -0.10486708845E+02 -0.82077719197E+02  0.10068183868E+03  0.10000000000E+01 0.  0.
         -4    1    1    2    0  502 -0.25561374798E+02 -0.12177846229E+02 -0.16020155264E+03  0.16268937946E+03  0.12700000000E+01 0. -1.
<mgrwt>
<rscale>  1 0.12817662E+03</rscale>
<asrwt>0</asrwt>
<pdfrwt beam="2">  1       21 0.40838001E-01 0.12817662E+03</pdfrwt>
<pdfrwt beam="1">  1       -4 0.62668414E-02 0.12817662E+03</pdfrwt>
<totfact> 0.38693897E+04</totfact>
</mgrwt>
</event>
<event>
 6    4  0.6325740E-003  0.1285979E+03  0.7818608E-02  0.1229551E+00
         21   -1    0    0  501  502  0.00000000000E+00  0.00000000000E+00  0.76209672529E+02  0.76209672529E+02  0.00000000000E+00 0.  1.
         -4   -1    0    0    0  501 -0.00000000000E+00 -0.00000000000E+00 -0.90207891785E+02  0.90216831247E+02  0.12700000000E+01 0. -1.
         25    2    1    2    0    0  0.92732447422E+01 -0.28724865125E+02 -0.30269147453E+02  0.13211226549E+03  0.12500527374E+03 0.  0.
    9000005    1    3    3    0    0 -0.81064264949E+01 -0.18271099368E+02 -0.77849030327E+02  0.80380462461E+02  0.10000000000E+01 0.  0.
    9000005    1    3    3    0    0  0.17379671237E+02 -0.10453765757E+02  0.47579882874E+02  0.51731803033E+02  0.10000000000E+01 0.  0.
         -4    1    1    2    0  502 -0.92732447422E+01  0.28724865125E+02  0.16270928197E+02  0.34314238282E+02  0.12700000000E+01 0.  1.
<mgrwt>
<rscale>  1 0.12859794E+03</rscale>
<asrwt>0</asrwt>
<pdfrwt beam="1">  1       21 0.11724565E-01 0.12859794E+03</pdfrwt>
<pdfrwt beam="2">  1       -4 0.13879639E-01 0.12859794E+03</pdfrwt>
<totfact> 0.10557661E+05</totfact>
</mgrwt>
</event>
<event>
 6    4  0.6325740E-003  0.1285546E+03  0.7818608E-02  0.1229616E+00
         21   -1    0    0  501  502  0.00000000000E+00  0.00000000000E+00  0.19188239741E+03  0.19188239741E+03  0.00000000000E+00 0.  1.
          4   -1    0    0  502    0 -0.00000000000E+00 -0.00000000000E+00 -0.61697906749E+02  0.61710976311E+02  0.12700000000E+01 0.  1.
         25    2    1    2    0    0  0.26285130573E+02  0.14499812954E+02  0.91439552646E+01  0.12887939385E+03  0.12500053431E+03 0.  0.
    9000005    1    3    3    0    0 -0.40925928799E+02  0.17288994579E+02 -0.27510850591E+02  0.52265551579E+02  0.10000000000E+01 0.  0.
    9000005    1    3    3    0    0  0.67211059372E+02 -0.27891816251E+01  0.36654805855E+02  0.76613842276E+02  0.10000000000E+01 0.  0.
          4    1    1    2  501    0 -0.26285130573E+02 -0.14499812954E+02  0.12104053540E+03  0.12471397987E+03  0.12700000000E+01 0. -1.
<mgrwt>
<rscale>  1 0.12855460E+03</rscale>
<asrwt>0</asrwt>
<pdfrwt beam="1">  1       21 0.29520369E-01 0.12855460E+03</pdfrwt>
<pdfrwt beam="2">  1        4 0.94933144E-02 0.12855460E+03</pdfrwt>
<totfact> 0.36869713E+04</totfact>
</mgrwt>
</event>
<event>
 6    4  0.6325740E-003  0.1389664E+03  0.7818608E-02  0.1214726E+00
         -4   -1    0    0    0  501 -0.00000000000E+00  0.00000000000E+00  0.47209273661E+03  0.47209444485E+03  0.12700000000E+01 0. -1.
         21   -1    0    0  501  502  0.00000000000E+00 -0.00000000000E+00 -0.30138154689E+02  0.30138154689E+02  0.00000000000E+00 0.  1.
         25    2    1    2    0    0  0.59153853405E+02 -0.13680817425E+02  0.41142782752E+03  0.43426320369E+03  0.12500131872E+03 0.  0.
    9000005    1    3    3    0    0  0.65227379012E+02  0.44945407046E+02  0.21255183721E+03  0.22683470654E+03  0.10000000000E+01 0.  0.
    9000005    1    3    3    0    0 -0.60735256069E+01 -0.58626224471E+02  0.19887599031E+03  0.20742849715E+03  0.10000000000E+01 0.  0.
         -4    1    1    2    0  502 -0.59153853405E+02  0.13680817425E+02  0.30526754398E+02  0.67969395850E+02  0.12700000000E+01 0.  1.
<mgrwt>
<rscale>  1 0.13896644E+03</rscale>
<asrwt>0</asrwt>
<pdfrwt beam="2">  1       21 0.46366395E-02 0.13896644E+03</pdfrwt>
<pdfrwt beam="1">  1       -4 0.72631836E-01 0.13896644E+03</pdfrwt>
<totfact> 0.21903992E+04</totfact>
</mgrwt>
</event>
<event>
 6    4  0.6325740E-003  0.1295657E+03  0.7818608E-02  0.1228102E+00
         21   -1    0    0  501  502  0.00000000000E+00  0.00000000000E+00  0.19968903932E+04  0.19968903932E+04  0.00000000000E+00 0. -1.
          4   -1    0    0  502    0 -0.00000000000E+00 -0.00000000000E+00 -0.93231720404E+01  0.94092739834E+01  0.12700000000E+01 0.  1.
         25    2    1    2    0    0 -0.23630994440E+02 -0.24568426649E+02  0.44812797470E+03  0.46648252287E+03  0.12500092378E+03 0.  0.
    9000005    1    3    3    0    0  0.32063677211E+01  0.20761282304E+02  0.37890958196E+03  0.37949279696E+03  0.10000000000E+01 0.  0.
    9000005    1    3    3    0    0 -0.26837362161E+02 -0.45329708952E+02  0.69218392736E+02  0.86989725913E+02  0.10000000000E+01 0.  0.
          4    1    1    2  501    0  0.23630994440E+02  0.24568426649E+02  0.15394392465E+04  0.15398171443E+04  0.12700000000E+01 0. -1.
<mgrwt>
<rscale>  1 0.12956567E+03</rscale>
<asrwt>0</asrwt>
<pdfrwt beam="1">  1       21 0.30721357E+00 0.12956567E+03</pdfrwt>
<pdfrwt beam="2">  1        4 0.14409900E-02 0.12956567E+03</pdfrwt>
<totfact> 0.22691362E+03</totfact>
</mgrwt>
</event>
<event>
 6    4  0.6325740E-003  0.1282254E+03  0.7818608E-02  0.1230113E+00
         -4   -1    0    0    0  501 -0.00000000000E+00  0.00000000000E+00  0.91949584405E+02  0.91958354553E+02  0.12700000000E+01 0. -1.
         21   -1    0    0  501  502  0.00000000000E+00 -0.00000000000E+00 -0.14852231456E+03  0.14852231456E+03  0.00000000000E+00 0.  1.
         25    2    1    2    0    0 -0.48947686208E+01 -0.28152187475E+02  0.44275887834E+02  0.13565433144E+03  0.12500095590E+03 0.  0.
    9000005    1    3    3    0    0  0.72383579099E+01  0.42797970554E+02  0.46518953304E+02  0.63632327674E+02  0.10000000000E+01 0.  0.
    9000005    1    3    3    0    0 -0.12133126531E+02 -0.70950158029E+02 -0.22430654694E+01  0.72022003766E+02  0.10000000000E+01 0.  0.
         -4    1    1    2    0  502  0.48947686208E+01  0.28152187475E+02 -0.10084861799E+03  0.10482633767E+03  0.12700000000E+01 0.  1.
<mgrwt>
<rscale>  1 0.12822536E+03</rscale>
<asrwt>0</asrwt>
<pdfrwt beam="2">  1       21 0.22849587E-01 0.12822536E+03</pdfrwt>
<pdfrwt beam="1">  1       -4 0.14147182E-01 0.12822536E+03</pdfrwt>
<totfact> 0.30369817E+04</totfact>
</mgrwt>
</event>
<event>
 6    4  0.6325740E-003  0.1361069E+03  0.7818608E-02  0.1218666E+00
         21   -1    0    0  501  502  0.00000000000E+00  0.00000000000E+00  0.55680216750E+03  0.55680216750E+03  0.00000000000E+00 0. -1.
          4   -1    0    0  502    0 -0.00000000000E+00 -0.00000000000E+00 -0.43312365872E+02  0.43330981265E+02  0.12700000000E+01 0.  1.
         25    2    1    2    0    0  0.53336935329E+02  0.75927320417E+01  0.69387867179E+02  0.15277354025E+03  0.12499040059E+03 0.  0.
    9000005    1    3    3    0    0 -0.12005033676E+02 -0.29588725367E+02  0.70691979052E+02  0.77575572216E+02  0.10000000000E+01 0.  0.
    9000005    1    3    3    0    0  0.65341969006E+02  0.37181457409E+02 -0.13041118722E+01  0.75197968034E+02  0.10000000000E+01 0.  0.
          4    1    1    2  501    0 -0.53336935329E+02 -0.75927320417E+01  0.44410193444E+03  0.44735960851E+03  0.12700000000E+01 0. -1.
<mgrwt>
<rscale>  1 0.13610686E+03</rscale>
<asrwt>0</asrwt>
<pdfrwt beam="1">  1       21 0.85661867E-01 0.13610686E+03</pdfrwt>
<pdfrwt beam="2">  1        4 0.66649847E-02 0.13610686E+03</pdfrwt>
<totfact> 0.72848833E+03</totfact>
</mgrwt>
</event>
<event>
 6    4  0.6325740E-003  0.1381203E+03  0.7818608E-02  0.1215881E+00
         21   -1    0    0  501  502  0.00000000000E+00  0.00000000000E+00  0.21249385643E+02  0.21249385643E+02  0.00000000000E+00 0.  1.
         -4   -1    0    0    0  501 -0.00000000000E+00 -0.00000000000E+00 -0.56166871280E+03  0.56167014861E+03  0.12700000000E+01 0. -1.
         25    2    1    2    0    0 -0.57570349005E+02  0.12010030075E+02 -0.47622372219E+03  0.49584901970E+03  0.12497452082E+03 0.  0.
    9000005    1    3    3    0    0 -0.60281895132E+02 -0.29989925641E+02 -0.42129634606E+03  0.42664377849E+03  0.10000000000E+01 0.  0.
    9000005    1    3    3    0    0  0.27115461265E+01  0.41999955717E+02 -0.54927376134E+02  0.69205241214E+02  0.10000000000E+01 0.  0.
         -4    1    1    2    0  502  0.57570349005E+02 -0.12010030075E+02 -0.64195604965E+02  0.87070514549E+02  0.12700000000E+01 0.  1.
<mgrwt>
<rscale>  1 0.13812030E+03</rscale>
<asrwt>0</asrwt>
<pdfrwt beam="1">  1       21 0.32691362E-02 0.13812030E+03</pdfrwt>
<pdfrwt beam="2">  1       -4 0.86413603E-01 0.13812030E+03</pdfrwt>
<totfact> 0.26662468E+04</totfact>
</mgrwt>
</event>
<event>
 6    4  0.6325740E-003  0.1293047E+03  0.7818608E-02  0.1228491E+00
         -4   -1    0    0    0  501 -0.00000000000E+00  0.00000000000E+00  0.52592911689E+02  0.52608243270E+02  0.12700000000E+01 0.  1.
         21   -1    0    0  501  502  0.00000000000E+00 -0.00000000000E+00 -0.56640091493E+03  0.56640091493E+03  0.00000000000E+00 0. -1.
         25    2    1    2    0    0  0.32988626985E+02  0.28702465689E+01 -0.28292093593E+02  0.13236370282E+03  0.12499287755E+03 0.  0.
    9000005    1    3    3    0    0 -0.31112809871E+02  0.42033008990E+02 -0.63130752425E+00  0.52308501527E+02  0.10000000000E+01 0.  0.
    9000005    1    3    3    0    0  0.64101436856E+02 -0.39162762421E+02 -0.27660786069E+02  0.80055201289E+02  0.10000000000E+01 0.  0.
         -4    1    1    2    0  502 -0.32988626985E+02 -0.28702465689E+01 -0.48551590965E+03  0.48664545539E+03  0.12700000000E+01 0. -1.
<mgrwt>
<rscale>  1 0.12930471E+03</rscale>
<asrwt>0</asrwt>
<pdfrwt beam="2">  1       21 0.87138607E-01 0.12930471E+03</pdfrwt>
<pdfrwt beam="1">  1       -4 0.80925056E-02 0.12930471E+03</pdfrwt>
<totfact> 0.50771552E+03</totfact>
</mgrwt>
</event>
<event>
 6    4  0.6325740E-003  0.1276627E+03  0.7818608E-02  0.1230966E+00
         21   -1    0    0  501  502  0.00000000000E+00  0.00000000000E+00  0.63027402092E+01  0.63027402092E+01  0.00000000000E+00 0. -1.
         -4   -1    0    0    0  501 -0.00000000000E+00 -0.00000000000E+00 -0.12156763532E+04  0.12156770166E+04  0.12700000000E+01 0. -1.
         25    2    1    2    0    0  0.23213004998E+02  0.11573628758E+02 -0.11513955167E+04  0.11584512983E+04  0.12499992905E+03 0.  0.
    9000005    1    3    3    0    0  0.43498124757E+02 -0.47589290757E+02 -0.64180562379E+03  0.64503665491E+03  0.10000000000E+01 0.  0.
    9000005    1    3    3    0    0 -0.20285119759E+02  0.59162919515E+02 -0.50958989287E+03  0.51341464339E+03  0.10000000000E+01 0.  0.
         -4    1    1    2    0  502 -0.23213004998E+02 -0.11573628758E+02 -0.57978096358E+02  0.63528458513E+02  0.12700000000E+01 0.  1.
<mgrwt>
<rscale>  1 0.12766274E+03</rscale>
<asrwt>0</asrwt>
<pdfrwt beam="1">  1       21 0.96965291E-03 0.12766274E+03</pdfrwt>
<pdfrwt beam="2">  1       -4 0.18703692E+00 0.12766274E+03</pdfrwt>
<totfact> 0.28022348E+04</totfact>
</mgrwt>
</event>
<event>
 6    4  0.6325740E-003  0.1519824E+03  0.7818608E-02  0.1198058E+00
          4   -1    0    0  502    0 -0.00000000000E+00  0.00000000000E+00  0.48497881699E+02  0.48514507411E+02  0.12700000000E+01 0. -1.
         21   -1    0    0  501  502  0.00000000000E+00 -0.00000000000E+00 -0.38424772953E+03  0.38424772953E+03  0.00000000000E+00 0.  1.
         25    2    1    2    0    0  0.84627568799E+02  0.17685532564E+02 -0.10070693081E+03  0.18231984994E+03  0.12499615317E+03 0.  0.
    9000005    1    3    3    0    0  0.12952491912E+02  0.19043504486E+01  0.29813648649E+02  0.32576789945E+02  0.10000000000E+01 0.  0.
    9000005    1    3    3    0    0  0.71675076887E+02  0.15781182115E+02 -0.13052057946E+03  0.14974306000E+03  0.10000000000E+01 0.  0.
          4    1    1    2  501    0 -0.84627568799E+02 -0.17685532564E+02 -0.23504291702E+03  0.25044238700E+03  0.12700000000E+01 0.  1.
<mgrwt>
<rscale>  1 0.15198237E+03</rscale>
<asrwt>0</asrwt>
<pdfrwt beam="2">  1       21 0.59115037E-01 0.15198237E+03</pdfrwt>
<pdfrwt beam="1">  1        4 0.74626527E-02 0.15198237E+03</pdfrwt>
<totfact> 0.13752527E+04</totfact>
</mgrwt>
</event>
<event>
 6    4  0.6325740E-003  0.1373684E+03  0.7818608E-02  0.1216914E+00
         21   -1    0    0  501  502  0.00000000000E+00  0.00000000000E+00  0.10005456603E+02  0.10005456603E+02  0.00000000000E+00 0.  1.
         -4   -1    0    0    0  501 -0.00000000000E+00 -0.00000000000E+00 -0.10511257734E+04  0.10511265406E+04  0.12700000000E+01 0.  1.
         25    2    1    2    0    0 -0.55568593824E+02  0.12500364264E+02 -0.86997310177E+03  0.88075153864E+03  0.12500378912E+03 0.  0.
    9000005    1    3    3    0    0 -0.89083187618E+02 -0.17923542332E+02 -0.52287173628E+03  0.53070982682E+03  0.10000000000E+01 0.  0.
    9000005    1    3    3    0    0  0.33514593794E+02  0.30423906595E+02 -0.34710136549E+03  0.35004171182E+03  0.10000000000E+01 0.  0.
         -4    1    1    2    0  502  0.55568593824E+02 -0.12500364264E+02 -0.17114721498E+03  0.18038045854E+03  0.12700000000E+01 0. -1.
<mgrwt>
<rscale>  1 0.13736839E+03</rscale>
<asrwt>0</asrwt>
<pdfrwt beam="1">  1       21 0.15393022E-02 0.13736839E+03</pdfrwt>
<pdfrwt beam="2">  1       -4 0.16171780E+00 0.13736839E+03</pdfrwt>
<totfact> 0.20038190E+04</totfact>
</mgrwt>
</event>
<event>
 6    4  0.6325740E-003  0.1294968E+03  0.7818608E-02  0.1228204E+00
          4   -1    0    0  502    0 -0.00000000000E+00  0.00000000000E+00  0.59001429149E+01  0.60352784870E+01  0.12700000000E+01 0.  1.
         21   -1    0    0  501  502  0.00000000000E+00 -0.00000000000E+00 -0.11314318534E+04  0.11314318534E+04  0.00000000000E+00 0.  1.
         25    2    1    2    0    0 -0.63577649941E+00 -0.33837479631E+02 -0.83776432840E+03  0.84771368785E+03  0.12499618949E+03 0.  0.
    9000005    1    3    3    0    0  0.29482882021E+02 -0.37591296569E+02 -0.11798718083E+03  0.12729619299E+03  0.10000000000E+01 0.  0.
    9000005    1    3    3    0    0 -0.30118658521E+02  0.37538169375E+01 -0.71977714757E+03  0.72041749486E+03  0.10000000000E+01 0.  0.
          4    1    1    2  501    0  0.63577649941E+00  0.33837479631E+02 -0.28776738206E+03  0.28975344401E+03  0.12700000000E+01 0. -1.
<mgrwt>
<rscale>  1 0.12949682E+03</rscale>
<asrwt>0</asrwt>
<pdfrwt beam="2">  1       21 0.17406636E+00 0.12949682E+03</pdfrwt>
<pdfrwt beam="1">  1        4 0.91816461E-03 0.12949682E+03</pdfrwt>
<totfact> 0.27708785E+04</totfact>
</mgrwt>
</event>
<event>
 6    4  0.6325740E-003  0.1420693E+03  0.7818608E-02  0.1210571E+00
         21   -1    0    0  501  502  0.00000000000E+00  0.00000000000E+00  0.16839416433E+03  0.16839416433E+03  0.00000000000E+00 0.  1.
         -4   -1    0    0    0  501 -0.00000000000E+00 -0.00000000000E+00 -0.15772229868E+03  0.15772741170E+03  0.12700000000E+01 0. -1.
         25    2    1    2    0    0  0.66962764807E+02  0.86049621856E+01 -0.11544793896E+03  0.18306258380E+03  0.12500250290E+03 0.  0.
    9000005    1    3    3    0    0  0.98840215226E+02  0.30397364931E+02 -0.85663646003E+02  0.13428569614E+03  0.10000000000E+01 0.  0.
    9000005    1    3    3    0    0 -0.31877450419E+02 -0.21792402746E+02 -0.29784292959E+02  0.48776887659E+02  0.10000000000E+01 0.  0.
         -4    1    1    2    0  502 -0.66962764807E+02 -0.86049621856E+01  0.12611980461E+03  0.14305899223E+03  0.12700000000E+01 0.  1.
<mgrwt>
<rscale>  1 0.14206929E+03</rscale>
<asrwt>0</asrwt>
<pdfrwt beam="1">  1       21 0.25906795E-01 0.14206929E+03</pdfrwt>
<pdfrwt beam="2">  1       -4 0.24265731E-01 0.14206929E+03</pdfrwt>
<totfact> 0.92328057E+03</totfact>
</mgrwt>
</event>
<event>
 6    4  0.6325740E-003  0.1282896E+03  0.7818608E-02  0.1230016E+00
         -4   -1    0    0    0  501 -0.00000000000E+00  0.00000000000E+00  0.33088193122E+03  0.33088436848E+03  0.12700000000E+01 0.  1.
         21   -1    0    0  501  502  0.00000000000E+00 -0.00000000000E+00 -0.21204690413E+02  0.21204690413E+02  0.00000000000E+00 0.  1.
         25    2    1    2    0    0  0.53009210370E+01 -0.28385688138E+02  0.29003815291E+03  0.31714404883E+03  0.12499748202E+03 0.  0.
    9000005    1    3    3    0    0  0.11087340943E+02 -0.65047919886E+02  0.79337327030E+02  0.10319676580E+03  0.10000000000E+01 0.  0.
    9000005    1    3    3    0    0 -0.57864199062E+01  0.36662231748E+02  0.21070082588E+03  0.21394728304E+03  0.10000000000E+01 0.  0.
         -4    1    1    2    0  502 -0.53009210370E+01  0.28385688138E+02  0.19639087893E+02  0.34945010061E+02  0.12700000000E+01 0. -1.
<mgrwt>
<rscale>  1 0.12828958E+03</rscale>
<asrwt>0</asrwt>
<pdfrwt beam="2">  1       21 0.32622603E-02 0.12828958E+03</pdfrwt>
<pdfrwt beam="1">  1       -4 0.50908022E-01 0.12828958E+03</pdfrwt>
<totfact> 0.82150475E+04</totfact>
</mgrwt>
</event>
<event>
 6    4  0.6325740E-003  0.1310834E+03  0.7818608E-02  0.1225857E+00
          4   -1    0    0  502    0 -0.00000000000E+00  0.00000000000E+00  0.83267892579E+03  0.83267989429E+03  0.12700000000E+01 0. -1.
         21   -1    0    0  501  502  0.00000000000E+00 -0.00000000000E+00 -0.35417462699E+02  0.35417462699E+02  0.00000000000E+00 0.  1.
         25    2    1    2    0    0 -0.20148325353E+02 -0.34024183048E+02  0.81447215032E+03  0.82495317197E+03  0.12497700685E+03 0.  0.
    9000005    1    3    3    0    0 -0.38020690888E+02 -0.68480242482E+02  0.34054687897E+03  0.34943997099E+03  0.10000000000E+01 0.  0.
    9000005    1    3    3    0    0  0.17872365535E+02  0.34456059434E+02  0.47392527135E+03  0.47551320098E+03  0.10000000000E+01 0.  0.
          4    1    1    2  501    0  0.20148325353E+02  0.34024183048E+02 -0.17210687228E+02  0.43144185025E+02  0.12700000000E+01 0.  1.
<mgrwt>
<rscale>  1 0.13108338E+03</rscale>
<asrwt>0</asrwt>
<pdfrwt beam="2">  1       21 0.54488410E-02 0.13108338E+03</pdfrwt>
<pdfrwt beam="1">  1        4 0.12810626E+00 0.13108338E+03</pdfrwt>
<totfact> 0.45110451E+03</totfact>
</mgrwt>
</event>
<event>
 6    4  0.6325740E-003  0.1308783E+03  0.7818608E-02  0.1226158E+00
         21   -1    0    0  501  502  0.00000000000E+00  0.00000000000E+00  0.84839903548E+02  0.84839903548E+02  0.00000000000E+00 0.  1.
          4   -1    0    0  502    0 -0.00000000000E+00 -0.00000000000E+00 -0.88144061488E+02  0.88153210240E+02  0.12700000000E+01 0. -1.
         25    2    1    2    0    0  0.14799906057E+02 -0.35937689286E+02 -0.16531914631E+02  0.13191828965E+03  0.12497430221E+03 0.  0.
    9000005    1    3    3    0    0 -0.66988879530E+01  0.43171707768E+02  0.11648341113E+02  0.45225604497E+02  0.10000000000E+01 0.  0.
    9000005    1    3    3    0    0  0.21498794010E+02 -0.79109397054E+02 -0.28180255744E+02  0.86692685158E+02  0.10000000000E+01 0.  0.
          4    1    1    2  501    0 -0.14799906057E+02  0.35937689286E+02  0.13227756691E+02  0.41074824133E+02  0.12700000000E+01 0.  1.
<mgrwt>
<rscale>  1 0.13087831E+03</rscale>
<asrwt>0</asrwt>
<pdfrwt beam="1">  1       21 0.13052293E-01 0.13087831E+03</pdfrwt>
<pdfrwt beam="2">  1        4 0.13562060E-01 0.13087831E+03</pdfrwt>
<totfact> 0.91053883E+04</totfact>
</mgrwt>
</event>
<event>
 6    4  0.6325740E-003  0.1267876E+03  0.7818608E-02  0.1232302E+00
          4   -1    0    0  502    0 -0.00000000000E+00  0.00000000000E+00  0.50123900976E+01  0.51707789056E+01  0.12700000000E+01 0.  1.
         21   -1    0    0  501  502  0.00000000000E+00 -0.00000000000E+00 -0.12266510457E+04  0.12266510457E+04  0.00000000000E+00 0. -1.
         25    2    1    2    0    0 -0.19137534555E+02  0.91462103298E+01 -0.83208818081E+03  0.84169225164E+03  0.12500082973E+03 0.  0.
    9000005    1    3    3    0    0  0.16233906110E+02  0.47465081547E+02 -0.65922309101E+03  0.66112975837E+03  0.10000000000E+01 0.  0.
    9000005    1    3    3    0    0 -0.35371440665E+02 -0.38318871217E+02 -0.17286508980E+03  0.18056249327E+03  0.10000000000E+01 0.  0.
          4    1    1    2  501    0  0.19137534555E+02 -0.91462103298E+01 -0.38955047477E+03  0.39012957295E+03  0.12700000000E+01 0. -1.
<mgrwt>
<rscale>  1 0.12678764E+03</rscale>
<asrwt>0</asrwt>
<pdfrwt beam="2">  1       21 0.18871606E+00 0.12678764E+03</pdfrwt>
<pdfrwt beam="1">  1        4 0.78336915E-03 0.12678764E+03</pdfrwt>
<totfact> 0.28054544E+04</totfact>
</mgrwt>
</event>
<event>
 6    4  0.6325740E-003  0.1756306E+03  0.7818608E-02  0.1172100E+00
          4   -1    0    0  502    0 -0.00000000000E+00  0.00000000000E+00  0.20784276095E+03  0.20784664101E+03  0.12700000000E+01 0.  1.
         21   -1    0    0  501  502  0.00000000000E+00 -0.00000000000E+00 -0.30461564609E+03  0.30461564609E+03  0.00000000000E+00 0. -1.
         25    2    1    2    0    0 -0.41329057301E+02  0.11624539279E+03  0.15361164428E+03  0.23332950904E+03  0.12500016083E+03 0.  0.
    9000005    1    3    3    0    0 -0.50051876057E+02  0.12788819242E+03  0.81374393164E+02  0.15963512120E+03  0.10000000000E+01 0.  0.
    9000005    1    3    3    0    0  0.87228187554E+01 -0.11642799632E+02  0.72237251113E+02  0.73694387837E+02  0.10000000000E+01 0.  0.
          4    1    1    2  501    0  0.41329057301E+02 -0.11624539279E+03 -0.25038452942E+03  0.27913277807E+03  0.12700000000E+01 0. -1.
<mgrwt>
<rscale>  1 0.17563064E+03</rscale>
<asrwt>0</asrwt>
<pdfrwt beam="2">  1       21 0.46863945E-01 0.17563064E+03</pdfrwt>
<pdfrwt beam="1">  1        4 0.31976312E-01 0.17563064E+03</pdfrwt>
<totfact> 0.17217829E+03</totfact>
</mgrwt>
</event>
<event>
 6    4  0.6325740E-003  0.1303295E+03  0.7818608E-02  0.1226968E+00
          4   -1    0    0  502    0 -0.00000000000E+00  0.00000000000E+00  0.32483873107E+03  0.32484121367E+03  0.12700000000E+01 0.  1.
         21   -1    0    0  501  502  0.00000000000E+00 -0.00000000000E+00 -0.22726925090E+02  0.22726925090E+02  0.00000000000E+00 0.  1.
         25    2    1    2    0    0  0.18082010100E+02  0.32156314790E+02  0.19742290383E+03  0.23656198216E+03  0.12499912311E+03 0.  0.
    9000005    1    3    3    0    0 -0.52559601551E+02  0.16000602591E+02  0.11035250034E+03  0.12327694565E+03  0.10000000000E+01 0.  0.
    9000005    1    3    3    0    0  0.70641611651E+02  0.16155712198E+02  0.87070403488E+02  0.11328503651E+03  0.10000000000E+01 0.  0.
          4    1    1    2  501    0 -0.18082010100E+02 -0.32156314790E+02  0.10468890215E+03  0.11100615660E+03  0.12700000000E+01 0. -1.
<mgrwt>
<rscale>  1 0.13032946E+03</rscale>
<asrwt>0</asrwt>
<pdfrwt beam="2">  1       21 0.34964502E-02 0.13032946E+03</pdfrwt>
<pdfrwt beam="1">  1        4 0.49978107E-01 0.13032946E+03</pdfrwt>
<totfact> 0.76256816E+04</totfact>
</mgrwt>
</event>
<event>
 6    4  0.6325740E-003  0.1329447E+03  0.7818608E-02  0.1223151E+00
         21   -1    0    0  501  502  0.00000000000E+00  0.00000000000E+00  0.68960464638E+02  0.68960464638E+02  0.00000000000E+00 0. -1.
         -4   -1    0    0    0  501 -0.00000000000E+00 -0.00000000000E+00 -0.11530696306E+03  0.11531395679E+03  0.12700000000E+01 0.  1.
         25    2    1    2    0    0 -0.92815462143E+00  0.45253159914E+02 -0.31542205782E+02  0.13663525756E+03  0.12500229162E+03 0.  0.
    9000005    1    3    3    0    0 -0.43849185581E+02  0.49841240902E+02  0.20055761958E+02  0.69355129288E+02  0.10000000000E+01 0.  0.
    9000005    1    3    3    0    0  0.42921030960E+02 -0.45880809880E+01 -0.51597967741E+02  0.67280128275E+02  0.10000000000E+01 0.  0.
         -4    1    1    2    0  502  0.92815462143E+00 -0.45253159914E+02 -0.14804292643E+02  0.47639163866E+02  0.12700000000E+01 0. -1.
<mgrwt>
<rscale>  1 0.13294466E+03</rscale>
<asrwt>0</asrwt>
<pdfrwt beam="1">  1       21 0.10609302E-01 0.13294466E+03</pdfrwt>
<pdfrwt beam="2">  1       -4 0.17740970E-01 0.13294466E+03</pdfrwt>
<totfact> 0.82280708E+04</totfact>
</mgrwt>
</event>
<event>
 6    4  0.6325740E-003  0.1285767E+03  0.7818608E-02  0.1229583E+00
         21   -1    0    0  501  502  0.00000000000E+00  0.00000000000E+00  0.12268202213E+03  0.12268202213E+03  0.00000000000E+00 0. -1.
          4   -1    0    0  502    0 -0.00000000000E+00 -0.00000000000E+00 -0.11732109451E+03  0.11732796818E+03  0.12700000000E+01 0.  1.
         25    2    1    2    0    0  0.27924052034E+02 -0.11196257256E+02 -0.78678290239E+02  0.15073898776E+03  0.12500744065E+03 0.  0.
    9000005    1    3    3    0    0  0.23863033323E+01 -0.63728773553E+02 -0.17479162130E+02  0.66132988221E+02  0.10000000000E+01 0.  0.
    9000005    1    3    3    0    0  0.25537748701E+02  0.52532516297E+02 -0.61199128108E+02  0.84605999542E+02  0.10000000000E+01 0.  0.
          4    1    1    2  501    0 -0.27924052034E+02  0.11196257256E+02  0.84039217858E+02  0.89271002553E+02  0.12700000000E+01 0. -1.
<mgrwt>
<rscale>  1 0.12857671E+03</rscale>
<asrwt>0</asrwt>
<pdfrwt beam="1">  1       21 0.18874157E-01 0.12857671E+03</pdfrwt>
<pdfrwt beam="2">  1        4 0.18050433E-01 0.12857671E+03</pdfrwt>
<totfact> 0.28241282E+04</totfact>
</mgrwt>
</event>
<event>
 6    4  0.6325740E-003  0.1276897E+03  0.7818608E-02  0.1230925E+00
          4   -1    0    0  502    0 -0.00000000000E+00  0.00000000000E+00  0.58246902299E+03  0.58247040752E+03  0.12700000000E+01 0. -1.
         21   -1    0    0  501  502  0.00000000000E+00 -0.00000000000E+00 -0.10418621646E+02  0.10418621646E+02  0.00000000000E+00 0. -1.
         25    2    1    2    0    0  0.25837422773E+02  0.36309207072E+01  0.50595007209E+03  0.52181426271E+03  0.12499557318E+03 0.  0.
    9000005    1    3    3    0    0  0.29219378885E+02 -0.10876092758E+02  0.50592394761E+03  0.50688470312E+03  0.10000000000E+01 0.  0.
    9000005    1    3    3    0    0 -0.33819561125E+01  0.14507013465E+02  0.26124480785E-01  0.14929559582E+02  0.10000000000E+01 0.  0.
          4    1    1    2  501    0 -0.25837422773E+02 -0.36309207072E+01  0.66100329250E+02  0.71074766462E+02  0.12700000000E+01 0.  1.
<mgrwt>
<rscale>  1 0.12768966E+03</rscale>
<asrwt>0</asrwt>
<pdfrwt beam="2">  1       21 0.16028653E-02 0.12768966E+03</pdfrwt>
<pdfrwt beam="1">  1        4 0.89616654E-01 0.12768966E+03</pdfrwt>
<totfact> 0.77361346E+04</totfact>
</mgrwt>
</event>
<event>
 6    4  0.6325740E-003  0.1280691E+03  0.7818608E-02  0.1230349E+00
         21   -1    0    0  501  502  0.00000000000E+00  0.00000000000E+00  0.89123239786E+03  0.89123239786E+03  0.00000000000E+00 0.  1.
          4   -1    0    0  502    0 -0.00000000000E+00 -0.00000000000E+00 -0.70371895978E+01  0.71508696979E+01  0.12700000000E+01 0. -1.
         25    2    1    2    0    0  0.14033734885E+02  0.24197348309E+02  0.64802799632E+03  0.66056185919E+03  0.12497691157E+03 0.  0.
    9000005    1    3    3    0    0  0.29517851140E+02 -0.11569508551E+02  0.58879880030E+03  0.58965259628E+03  0.10000000000E+01 0.  0.
    9000005    1    3    3    0    0 -0.15484116255E+02  0.35766856860E+02  0.59229196022E+02  0.70909262916E+02  0.10000000000E+01 0.  0.
          4    1    1    2  501    0 -0.14033734885E+02 -0.24197348309E+02  0.23616721194E+03  0.23782140836E+03  0.12700000000E+01 0.  1.
<mgrwt>
<rscale>  1 0.12806907E+03</rscale>
<asrwt>0</asrwt>
<pdfrwt beam="1">  1       21 0.13711259E+00 0.12806907E+03</pdfrwt>
<pdfrwt beam="2">  1        4 0.10914595E-02 0.12806907E+03</pdfrwt>
<totfact> 0.39895202E+04</totfact>
</mgrwt>
</event>
<event>
 6    4  0.6325740E-003  0.1275498E+03  0.7818608E-02  0.1231137E+00
         21   -1    0    0  501  502  0.00000000000E+00  0.00000000000E+00  0.19663322775E+03  0.19663322775E+03  0.00000000000E+00 0. -1.
         -4   -1    0    0    0  501 -0.00000000000E+00 -0.00000000000E+00 -0.92979663388E+02  0.92988336386E+02  0.12700000000E+01 0.  1.
         25    2    1    2    0    0 -0.22609644315E+02 -0.11516612433E+02 -0.47680038227E+02  0.13617026714E+03  0.12500050891E+03 0.  0.
    9000005    1    3    3    0    0  0.27742592759E+02 -0.54508805616E+02 -0.19468518136E+02  0.64194116094E+02  0.10000000000E+01 0.  0.
    9000005    1    3    3    0    0 -0.50352237074E+02  0.42992193183E+02 -0.28211520091E+02  0.71976151043E+02  0.10000000000E+01 0.  0.
         -4    1    1    2    0  502  0.22609644315E+02  0.11516612433E+02  0.15133360259E+03  0.15345129700E+03  0.12700000000E+01 0. -1.
<mgrwt>
<rscale>  1 0.12754982E+03</rscale>
<asrwt>0</asrwt>
<pdfrwt beam="1">  1       21 0.30251266E-01 0.12754982E+03</pdfrwt>
<pdfrwt beam="2">  1       -4 0.14305546E-01 0.12754982E+03</pdfrwt>
<totfact> 0.17468175E+04</totfact>
</mgrwt>
</event>
<event>
 6    4  0.6325740E-003  0.1280408E+03  0.7818608E-02  0.1230392E+00
         21   -1    0    0  501  502  0.00000000000E+00  0.00000000000E+00  0.52389882263E+03  0.52389882263E+03  0.00000000000E+00 0. -1.
         -4   -1    0    0    0  501 -0.00000000000E+00 -0.00000000000E+00 -0.11727751174E+02  0.11796315001E+02  0.12700000000E+01 0. -1.
         25    2    1    2    0    0  0.15527264118E+02  0.22992721717E+02  0.39307329265E+03  0.41340182220E+03  0.12499876807E+03 0.  0.
    9000005    1    3    3    0    0 -0.50737088642E+02  0.29112392811E+02  0.14020383025E+03  0.15192069509E+03  0.10000000000E+01 0.  0.
    9000005    1    3    3    0    0  0.66264352760E+02 -0.61196710936E+01  0.25286946240E+03  0.26148112711E+03  0.10000000000E+01 0.  0.
         -4    1    1    2    0  502 -0.15527264118E+02 -0.22992721717E+02  0.11909777880E+03  0.12229331543E+03  0.12700000000E+01 0.  1.
<mgrwt>
<rscale>  1 0.12804083E+03</rscale>
<asrwt>0</asrwt>
<pdfrwt beam="1">  1       21 0.80599800E-01 0.12804083E+03</pdfrwt>
<pdfrwt beam="2">  1       -4 0.18096624E-02 0.12804083E+03</pdfrwt>
<totfact> 0.65141943E+04</totfact>
</mgrwt>
</event>
<event>
 6    4  0.6325740E-003  0.1299725E+03  0.7818608E-02  0.1227497E+00
         21   -1    0    0  501  502  0.00000000000E+00  0.00000000000E+00  0.10236723485E+03  0.10236723485E+03  0.00000000000E+00 0.  1.
          4   -1    0    0  502    0 -0.00000000000E+00 -0.00000000000E+00 -0.76454240170E+02  0.76464787582E+02  0.12700000000E+01 0.  1.
         25    2    1    2    0    0  0.35564867376E+02 -0.12885582509E+01 -0.72449348213E+01  0.13017422385E+03  0.12500527709E+03 0.  0.
    9000005    1    3    3    0    0 -0.18294808603E+02 -0.32075866394E+02  0.38296110607E+02  0.53208583089E+02  0.10000000000E+01 0.  0.
    9000005    1    3    3    0    0  0.53859675979E+02  0.30787308143E+02 -0.45541045428E+02  0.76965640763E+02  0.10000000000E+01 0.  0.
          4    1    1    2  501    0 -0.35564867376E+02  0.12885582509E+01  0.33157929499E+02  0.48657798578E+02  0.12700000000E+01 0. -1.
<mgrwt>
<rscale>  1 0.12997246E+03</rscale>
<asrwt>0</asrwt>
<pdfrwt beam="1">  1       21 0.15748805E-01 0.12997246E+03</pdfrwt>
<pdfrwt beam="2">  1        4 0.11763608E-01 0.12997246E+03</pdfrwt>
<totfact> 0.82871150E+04</totfact>
</mgrwt>
</event>
<event>
 6    4  0.6325740E-003  0.1281128E+03  0.7818608E-02  0.1230283E+00
          4   -1    0    0  502    0 -0.00000000000E+00  0.00000000000E+00  0.59395952949E+03  0.59396088724E+03  0.12700000000E+01 0. -1.
         21   -1    0    0  501  502  0.00000000000E+00 -0.00000000000E+00 -0.28360949463E+02  0.28360949463E+02  0.00000000000E+00 0.  1.
         25    2    1    2    0    0 -0.26468070895E+02  0.93436285873E+01  0.57769573321E+03  0.59173072382E+03  0.12500010872E+03 0.  0.
    9000005    1    3    3    0    0 -0.50293318775E+02 -0.20238684474E+01  0.55387970393E+03  0.55616296208E+03  0.10000000000E+01 0.  0.
    9000005    1    3    3    0    0  0.23825247879E+02  0.11367497035E+02  0.23816029275E+02  0.35567761748E+02  0.10000000000E+01 0.  0.
          4    1    1    2  501    0  0.26468070895E+02 -0.93436285873E+01 -0.12097153182E+02  0.30591112879E+02  0.12700000000E+01 0.  1.
<mgrwt>
<rscale>  1 0.12811280E+03</rscale>
<asrwt>0</asrwt>
<pdfrwt beam="2">  1       21 0.43632234E-02 0.12811280E+03</pdfrwt>
<pdfrwt beam="1">  1        4 0.91380672E-01 0.12811280E+03</pdfrwt>
<totfact> 0.14447913E+04</totfact>
</mgrwt>
</event>
<event>
 6    4  0.6325740E-003  0.1882829E+03  0.7818608E-02  0.1160019E+00
          4   -1    0    0  502    0 -0.00000000000E+00  0.00000000000E+00  0.14374357272E+03  0.14374918295E+03  0.12700000000E+01 0. -1.
         21   -1    0    0  501  502  0.00000000000E+00 -0.00000000000E+00 -0.65685815784E+03  0.65685815784E+03  0.00000000000E+00 0.  1.
         25    2    1    2    0    0  0.99282020259E+02  0.99842478159E+02  0.69892746341E+02  0.20083688350E+03  0.12500007117E+03 0.  0.
    9000005    1    3    3    0    0  0.91442898474E+02  0.12398023275E+03  0.35522367547E+02  0.15810041236E+03  0.10000000000E+01 0.  0.
    9000005    1    3    3    0    0  0.78391217844E+01 -0.24137754588E+02  0.34370378794E+02  0.42736471138E+02  0.10000000000E+01 0.  0.
          4    1    1    2  501    0 -0.99282020259E+02 -0.99842478159E+02 -0.58300733147E+03  0.59977045729E+03  0.12700000000E+01 0.  1.
<mgrwt>
<rscale>  1 0.18828292E+03</rscale>
<asrwt>0</asrwt>
<pdfrwt beam="2">  1       21 0.10105510E+00 0.18828292E+03</pdfrwt>
<pdfrwt beam="1">  1        4 0.22114922E-01 0.18828292E+03</pdfrwt>
<totfact> 0.63277057E+02</totfact>
</mgrwt>
</event>
<event>
 6    4  0.6325740E-003  0.1366342E+03  0.7818608E-02  0.1217931E+00
          4   -1    0    0  502    0 -0.00000000000E+00  0.00000000000E+00  0.50162827009E+03  0.50162987775E+03  0.12700000000E+01 0.  1.
         21   -1    0    0  501  502  0.00000000000E+00 -0.00000000000E+00 -0.28612241445E+02  0.28612241445E+02  0.00000000000E+00 0. -1.
         25    2    1    2    0    0  0.31440523517E+02  0.45337853616E+02  0.45028164710E+03  0.47055550015E+03  0.12499955806E+03 0.  0.
    9000005    1    3    3    0    0  0.58752302209E+02  0.22544344599E+02  0.41734952822E+03  0.42206837028E+03  0.10000000000E+01 0.  0.
    9000005    1    3    3    0    0 -0.27311778692E+02  0.22793509016E+02  0.32932118875E+02  0.48487129861E+02  0.10000000000E+01 0.  0.
          4    1    1    2  501    0 -0.31440523517E+02 -0.45337853616E+02  0.22734381551E+02  0.59686619053E+02  0.12700000000E+01 0. -1.
<mgrwt>
<rscale>  1 0.13663425E+03</rscale>
<asrwt>0</asrwt>
<pdfrwt beam="2">  1       21 0.44018837E-02 0.13663425E+03</pdfrwt>
<pdfrwt beam="1">  1        4 0.77175865E-01 0.13663425E+03</pdfrwt>
<totfact> 0.20890062E+04</totfact>
</mgrwt>
</event>
<event>
 6    4  0.6325740E-003  0.1330176E+03  0.7818608E-02  0.1223046E+00
         21   -1    0    0  501  502  0.00000000000E+00  0.00000000000E+00  0.36757713453E+03  0.36757713453E+03  0.00000000000E+00 0. -1.
         -4   -1    0    0    0  501 -0.00000000000E+00 -0.00000000000E+00 -0.22855405616E+02  0.22890663290E+02  0.12700000000E+01 0. -1.
         25    2    1    2    0    0 -0.34517322275E+02  0.29612724205E+02  0.21313204186E+03  0.25123483617E+03  0.12500126665E+03 0.  0.
    9000005    1    3    3    0    0 -0.55072826746E+02  0.60843409774E+02  0.19072656367E+03  0.20763563964E+03  0.10000000000E+01 0.  0.
    9000005    1    3    3    0    0  0.20555504471E+02 -0.31230685568E+02  0.22405478195E+02  0.43599196532E+02  0.10000000000E+01 0.  0.
         -4    1    1    2    0  502  0.34517322275E+02 -0.29612724205E+02  0.13158968705E+03  0.13923296165E+03  0.12700000000E+01 0.  1.
<mgrwt>
<rscale>  1 0.13301758E+03</rscale>
<asrwt>0</asrwt>
<pdfrwt beam="1">  1       21 0.56550324E-01 0.13301758E+03</pdfrwt>
<pdfrwt beam="2">  1       -4 0.35190974E-02 0.13301758E+03</pdfrwt>
<totfact> 0.50178686E+04</totfact>
</mgrwt>
</event>
<event>
 6    4  0.6325740E-003  0.1480812E+03  0.7818608E-02  0.1202851E+00
         21   -1    0    0  501  502  0.00000000000E+00  0.00000000000E+00  0.10811931464E+03  0.10811931464E+03  0.00000000000E+00 0. -1.
         -4   -1    0    0    0  501 -0.00000000000E+00 -0.00000000000E+00 -0.16011947106E+03  0.16012450753E+03  0.12700000000E+01 0.  1.
         25    2    1    2    0    0  0.62224853135E+02 -0.49301440205E+02 -0.96958551425E+02  0.17700000300E+03  0.12500190405E+03 0.  0.
    9000005    1    3    3    0    0  0.91739216399E+02 -0.49443638387E+01 -0.77733991057E+02  0.12034992283E+03  0.10000000000E+01 0.  0.
    9000005    1    3    3    0    0 -0.29514363264E+02 -0.44357076366E+02 -0.19224560368E+02  0.56650080176E+02  0.10000000000E+01 0.  0.
         -4    1    1    2    0  502 -0.62224853135E+02  0.49301440205E+02  0.44958395003E+02  0.91243819161E+02  0.12700000000E+01 0. -1.
<mgrwt>
<rscale>  1 0.14808120E+03</rscale>
<asrwt>0</asrwt>
<pdfrwt beam="1">  1       21 0.16633741E-01 0.14808120E+03</pdfrwt>
<pdfrwt beam="2">  1       -4 0.24634726E-01 0.14808120E+03</pdfrwt>
<totfact> 0.20559298E+04</totfact>
</mgrwt>
</event>
<event>
 6    4  0.6325740E-003  0.1395590E+03  0.7818608E-02  0.1213924E+00
         21   -1    0    0  501  502  0.00000000000E+00  0.00000000000E+00  0.15232075806E+03  0.15232075806E+03  0.00000000000E+00 0. -1.
          4   -1    0    0  502    0 -0.00000000000E+00 -0.00000000000E+00 -0.13272990513E+03  0.13273598086E+03  0.12700000000E+01 0.  1.
         25    2    1    2    0    0 -0.61987136030E+02  0.31386117184E+01 -0.85016779567E+02  0.16341535783E+03  0.12499788178E+03 0.  0.
    9000005    1    3    3    0    0 -0.11235044384E+02 -0.39459728095E+02  0.14780093788E+02  0.43620494450E+02  0.10000000000E+01 0.  0.
    9000005    1    3    3    0    0 -0.50752091646E+02  0.42598339814E+02 -0.99796873355E+02  0.11979486338E+03  0.10000000000E+01 0.  0.
          4    1    1    2  501    0  0.61987136030E+02 -0.31386117184E+01  0.10460763250E+03  0.12164138109E+03  0.12700000000E+01 0. -1.
<mgrwt>
<rscale>  1 0.13955904E+03</rscale>
<asrwt>0</asrwt>
<pdfrwt beam="1">  1       21 0.23433963E-01 0.13955904E+03</pdfrwt>
<pdfrwt beam="2">  1        4 0.20420860E-01 0.13955904E+03</pdfrwt>
<totfact> 0.15263108E+04</totfact>
</mgrwt>
</event>
<event>
 6    4  0.6325740E-003  0.1287884E+03  0.7818608E-02  0.1229265E+00
          4   -1    0    0  502    0 -0.00000000000E+00  0.00000000000E+00  0.38721998152E+03  0.38722206418E+03  0.12700000000E+01 0. -1.
         21   -1    0    0  501  502  0.00000000000E+00 -0.00000000000E+00 -0.18507527481E+02  0.18507527481E+02  0.00000000000E+00 0. -1.
         25    2    1    2    0    0 -0.31015001528E+02 -0.12906539575E+01  0.33941097445E+03  0.36302378745E+03  0.12499145798E+03 0.  0.
    9000005    1    3    3    0    0  0.41552414391E+02  0.28149982873E+02  0.12126455437E+03  0.13124449255E+03  0.10000000000E+01 0.  0.
    9000005    1    3    3    0    0 -0.72567415919E+02 -0.29440636831E+02  0.21814642008E+03  0.23177929490E+03  0.10000000000E+01 0.  0.
          4    1    1    2  501    0  0.31015001528E+02  0.12906539575E+01  0.29301479585E+02  0.42705804211E+02  0.12700000000E+01 0.  1.
<mgrwt>
<rscale>  1 0.12878843E+03</rscale>
<asrwt>0</asrwt>
<pdfrwt beam="2">  1       21 0.28473122E-02 0.12878843E+03</pdfrwt>
<pdfrwt beam="1">  1        4 0.59575811E-01 0.12878843E+03</pdfrwt>
<totfact> 0.74241705E+04</totfact>
</mgrwt>
</event>
<event>
 6    4  0.6325740E-003  0.1299453E+03  0.7818608E-02  0.1227537E+00
         21   -1    0    0  501  502  0.00000000000E+00  0.00000000000E+00  0.23982330503E+02  0.23982330503E+02  0.00000000000E+00 0.  1.
          4   -1    0    0  502    0 -0.00000000000E+00 -0.00000000000E+00 -0.28600000523E+03  0.28600282497E+03  0.12700000000E+01 0.  1.
         25    2    1    2    0    0 -0.10007406350E+02  0.34069304480E+02 -0.21130845412E+03  0.24806663124E+03  0.12499970024E+03 0.  0.
    9000005    1    3    3    0    0  0.33324341974E+02 -0.29512858267E+02 -0.12366231291E+03  0.13143396899E+03  0.10000000000E+01 0.  0.
    9000005    1    3    3    0    0 -0.43331748324E+02  0.63582162747E+02 -0.87646141216E+02  0.11663266225E+03  0.10000000000E+01 0.  0.
          4    1    1    2  501    0  0.10007406350E+02 -0.34069304480E+02 -0.50709220602E+02  0.61918524237E+02  0.12700000000E+01 0. -1.
<mgrwt>
<rscale>  1 0.12994534E+03</rscale>
<asrwt>0</asrwt>
<pdfrwt beam="1">  1       21 0.36895892E-02 0.12994534E+03</pdfrwt>
<pdfrwt beam="2">  1        4 0.44002805E-01 0.12994534E+03</pdfrwt>
<totfact> 0.90135034E+04</totfact>
</mgrwt>
</event>
<event>
 6    4  0.6325740E-003  0.1485578E+03  0.7818608E-02  0.1202256E+00
          4   -1    0    0  502    0 -0.00000000000E+00  0.00000000000E+00  0.10181555332E+03  0.10182347371E+03  0.12700000000E+01 0. -1.
         21   -1    0    0  501  502  0.00000000000E+00 -0.00000000000E+00 -0.21509054595E+03  0.21509054595E+03  0.00000000000E+00 0.  1.
         25    2    1    2    0    0  0.26787963954E+02 -0.75677736751E+02  0.31042074128E+02  0.15176637811E+03  0.12499883322E+03 0.  0.
    9000005    1    3    3    0    0  0.23633869421E+02 -0.63577132220E+02 -0.40584989852E+02  0.79049053924E+02  0.10000000000E+01 0.  0.
    9000005    1    3    3    0    0  0.31540945338E+01 -0.12100604532E+02  0.71627063980E+02  0.72717324186E+02  0.10000000000E+01 0.  0.
          4    1    1    2  501    0 -0.26787963954E+02  0.75677736751E+02 -0.14431706675E+03  0.16514764155E+03  0.12700000000E+01 0.  1.
<mgrwt>
<rscale>  1 0.14855781E+03</rscale>
<asrwt>0</asrwt>
<pdfrwt beam="2">  1       21 0.33090853E-01 0.14855781E+03</pdfrwt>
<pdfrwt beam="1">  1        4 0.15664829E-01 0.14855781E+03</pdfrwt>
<totfact> 0.12685645E+04</totfact>
</mgrwt>
</event>
<event>
 6    4  0.6325740E-003  0.1266026E+03  0.7818608E-02  0.1232586E+00
         21   -1    0    0  501  502  0.00000000000E+00  0.00000000000E+00  0.26032245857E+03  0.26032245857E+03  0.00000000000E+00 0. -1.
          4   -1    0    0  502    0 -0.00000000000E+00 -0.00000000000E+00 -0.28049824006E+02  0.28078559912E+02  0.12700000000E+01 0.  1.
         25    2    1    2    0    0 -0.16607830831E+02  0.11200399887E+02  0.12029920360E+03  0.17464280495E+03  0.12500776749E+03 0.  0.
    9000005    1    3    3    0    0 -0.55792410878E+02 -0.34135041879E+02  0.50463483549E+02  0.82616931482E+02  0.10000000000E+01 0.  0.
    9000005    1    3    3    0    0  0.39184580047E+02  0.45335441766E+02  0.69835720048E+02  0.92025873471E+02  0.10000000000E+01 0.  0.
          4    1    1    2  501    0  0.16607830831E+02 -0.11200399887E+02  0.11197343096E+03  0.11375821352E+03  0.12700000000E+01 0. -1.
<mgrwt>
<rscale>  1 0.12660257E+03</rscale>
<asrwt>0</asrwt>
<pdfrwt beam="1">  1       21 0.40049607E-01 0.12660257E+03</pdfrwt>
<pdfrwt beam="2">  1        4 0.43178065E-02 0.12660257E+03</pdfrwt>
<totfact> 0.73174286E+04</totfact>
</mgrwt>
</event>
<event>
 6    4  0.6325740E-003  0.1579823E+03  0.7818608E-02  0.1190994E+00
         21   -1    0    0  501  502  0.00000000000E+00  0.00000000000E+00  0.19682756365E+04  0.19682756365E+04  0.00000000000E+00 0.  1.
          4   -1    0    0  502    0 -0.00000000000E+00 -0.00000000000E+00 -0.11150083214E+02  0.11222176958E+02  0.12700000000E+01 0. -1.
         25    2    1    2    0    0 -0.15583933104E+02  0.95346825649E+02  0.65461938182E+03  0.67341289442E+03  0.12499806072E+03 0.  0.
    9000005    1    3    3    0    0  0.22964664223E+02  0.11311725465E+03  0.46810435593E+03  0.48212610087E+03  0.10000000000E+01 0.  0.
    9000005    1    3    3    0    0 -0.38548597327E+02 -0.17770428999E+02  0.18651502590E+03  0.19128679355E+03  0.10000000000E+01 0.  0.
          4    1    1    2  501    0  0.15583933104E+02 -0.95346825649E+02  0.13025061714E+04  0.13060849190E+04  0.12700000000E+01 0.  1.
<mgrwt>
<rscale>  1 0.15798225E+03</rscale>
<asrwt>0</asrwt>
<pdfrwt beam="1">  1       21 0.30281136E+00 0.15798225E+03</pdfrwt>
<pdfrwt beam="2">  1        4 0.17209762E-02 0.15798225E+03</pdfrwt>
<totfact> 0.18071372E+03</totfact>
</mgrwt>
</event>
<event>
 6    4  0.6325740E-003  0.1267615E+03  0.7818608E-02  0.1232342E+00
          4   -1    0    0  502    0 -0.00000000000E+00  0.00000000000E+00  0.21725353788E+03  0.21725724987E+03  0.12700000000E+01 0.  1.
         21   -1    0    0  501  502  0.00000000000E+00 -0.00000000000E+00 -0.32215491295E+02  0.32215491295E+02  0.00000000000E+00 0.  1.
         25    2    1    2    0    0  0.61829189607E+01  0.20131985015E+02  0.18942220069E+03  0.22792375012E+03  0.12499976179E+03 0.  0.
    9000005    1    3    3    0    0 -0.44806175449E+01 -0.87463964279E+01 -0.16759618413E+02  0.19454053392E+02  0.10000000000E+01 0.  0.
    9000005    1    3    3    0    0  0.10663536506E+02  0.28878381443E+02  0.20618181910E+03  0.20846969673E+03  0.10000000000E+01 0.  0.
          4    1    1    2  501    0 -0.61829189607E+01 -0.20131985015E+02 -0.43841541105E+01  0.21548991039E+02  0.12700000000E+01 0. -1.
<mgrwt>
<rscale>  1 0.12676145E+03</rscale>
<asrwt>0</asrwt>
<pdfrwt beam="2">  1       21 0.49562296E-02 0.12676145E+03</pdfrwt>
<pdfrwt beam="1">  1        4 0.33425831E-01 0.12676145E+03</pdfrwt>
<totfact> 0.93969507E+04</totfact>
</mgrwt>
</event>
<event>
 6    4  0.6325740E-003  0.1281896E+03  0.7818608E-02  0.1230167E+00
         21   -1    0    0  501  502  0.00000000000E+00  0.00000000000E+00  0.30874737288E+03  0.30874737288E+03  0.00000000000E+00 0. -1.
         -4   -1    0    0    0  501 -0.00000000000E+00 -0.00000000000E+00 -0.44204899172E+02  0.44223138862E+02  0.12700000000E+01 0.  1.
         25    2    1    2    0    0  0.12287728924E+02  0.25597730805E+02  0.51673755240E+02  0.13821265669E+03  0.12500531742E+03 0.  0.
    9000005    1    3    3    0    0 -0.42718347223E+02  0.50965040988E+02  0.17997730653E+02  0.68900006538E+02  0.10000000000E+01 0.  0.
    9000005    1    3    3    0    0  0.55006076147E+02 -0.25367310183E+02  0.33676024587E+02  0.69312650151E+02  0.10000000000E+01 0.  0.
         -4    1    1    2    0  502 -0.12287728924E+02 -0.25597730805E+02  0.21286871847E+03  0.21475785506E+03  0.12700000000E+01 0. -1.
<mgrwt>
<rscale>  1 0.12818955E+03</rscale>
<asrwt>0</asrwt>
<pdfrwt beam="1">  1       21 0.47499594E-01 0.12818955E+03</pdfrwt>
<pdfrwt beam="2">  1       -4 0.68023579E-02 0.12818955E+03</pdfrwt>
<totfact> 0.24922256E+04</totfact>
</mgrwt>
</event>
<event>
 6    4  0.6325740E-003  0.1266560E+03  0.7818608E-02  0.1232504E+00
         21   -1    0    0  501  502  0.00000000000E+00  0.00000000000E+00  0.14216820805E+03  0.14216820805E+03  0.00000000000E+00 0.  1.
         -4   -1    0    0    0  501 -0.00000000000E+00 -0.00000000000E+00 -0.38381431502E+02  0.38402437217E+02  0.12700000000E+01 0.  1.
         25    2    1    2    0    0  0.18845395865E+02 -0.78306950765E+01  0.83098044416E+02  0.15148275658E+03  0.12500108730E+03 0.  0.
    9000005    1    3    3    0    0  0.20767315064E+02  0.18542442302E+01  0.11561541355E+03  0.11748465196E+03  0.10000000000E+01 0.  0.
    9000005    1    3    3    0    0 -0.19219191995E+01 -0.96849393067E+01 -0.32517369132E+02  0.33998104624E+02  0.10000000000E+01 0.  0.
         -4    1    1    2    0  502 -0.18845395865E+02  0.78306950765E+01  0.20688732129E+02  0.29087888679E+02  0.12700000000E+01 0. -1.
<mgrwt>
<rscale>  1 0.12665599E+03</rscale>
<asrwt>0</asrwt>
<pdfrwt beam="1">  1       21 0.21872032E-01 0.12665599E+03</pdfrwt>
<pdfrwt beam="2">  1       -4 0.59068879E-02 0.12665599E+03</pdfrwt>
<totfact> 0.14186723E+05</totfact>
</mgrwt>
</event>
<event>
 6    4  0.6325740E-003  0.1371929E+03  0.7818608E-02  0.1217157E+00
         21   -1    0    0  501  502  0.00000000000E+00  0.00000000000E+00  0.35197513775E+02  0.35197513775E+02  0.00000000000E+00 0. -1.
          4   -1    0    0  502    0 -0.00000000000E+00 -0.00000000000E+00 -0.27740140984E+03  0.27740431698E+03  0.12700000000E+01 0. -1.
         25    2    1    2    0    0  0.56319604569E+02 -0.49937231552E+01 -0.19768584634E+03  0.24062749658E+03  0.12500025254E+03 0.  0.
    9000005    1    3    3    0    0  0.77019685984E+02  0.33481301993E+02 -0.16791700799E+03  0.18775023617E+03  0.10000000000E+01 0.  0.
    9000005    1    3    3    0    0 -0.20700081414E+02 -0.38475025149E+02 -0.29768838353E+02  0.52877260402E+02  0.10000000000E+01 0.  0.
          4    1    1    2  501    0 -0.56319604569E+02  0.49937231552E+01 -0.44518049726E+02  0.71974334184E+02  0.12700000000E+01 0.  1.
<mgrwt>
<rscale>  1 0.13719292E+03</rscale>
<asrwt>0</asrwt>
<pdfrwt beam="1">  1       21 0.54150020E-02 0.13719292E+03</pdfrwt>
<pdfrwt beam="2">  1        4 0.42679127E-01 0.13719292E+03</pdfrwt>
<totfact> 0.50805691E+04</totfact>
</mgrwt>
</event>
<event>
 6    4  0.6325740E-003  0.1296285E+03  0.7818608E-02  0.1228008E+00
         21   -1    0    0  501  502  0.00000000000E+00  0.00000000000E+00  0.26757131054E+02  0.26757131054E+02  0.00000000000E+00 0. -1.
         -4   -1    0    0    0  501 -0.00000000000E+00 -0.00000000000E+00 -0.42058946328E+03  0.42059138070E+03  0.12700000000E+01 0.  1.
         25    2    1    2    0    0  0.25686110687E+02  0.22722399056E+02 -0.39211683879E+03  0.41298807638E+03  0.12500980870E+03 0.  0.
    9000005    1    3    3    0    0  0.36979430246E+02  0.70973794336E+02 -0.23803796204E+03  0.25113309044E+03  0.10000000000E+01 0.  0.
    9000005    1    3    3    0    0 -0.11293319559E+02 -0.48251395280E+02 -0.15407887675E+03  0.16185498594E+03  0.10000000000E+01 0.  0.
         -4    1    1    2    0  502 -0.25686110687E+02 -0.22722399056E+02 -0.17154934318E+01  0.34360435370E+02  0.12700000000E+01 0. -1.
<mgrwt>
<rscale>  1 0.12962845E+03</rscale>
<asrwt>0</asrwt>
<pdfrwt beam="1">  1       21 0.41164814E-02 0.12962845E+03</pdfrwt>
<pdfrwt beam="2">  1       -4 0.64708543E-01 0.12962845E+03</pdfrwt>
<totfact> 0.33977842E+04</totfact>
</mgrwt>
</event>
<event>
 6    4  0.6325740E-003  0.1282982E+03  0.7818608E-02  0.1230003E+00
         21   -1    0    0  501  502  0.00000000000E+00  0.00000000000E+00  0.67211578120E+02  0.67211578120E+02  0.00000000000E+00 0.  1.
          4   -1    0    0  502    0 -0.00000000000E+00 -0.00000000000E+00 -0.15365615463E+03  0.15366140295E+03  0.12700000000E+01 0. -1.
         25    2    1    2    0    0 -0.27036716639E+02 -0.10934553216E+02 -0.12050354482E+03  0.17601571049E+03  0.12493949546E+03 0.  0.
    9000005    1    3    3    0    0 -0.43963857230E+02 -0.25962549137E+02  0.23197664830E+01  0.51120015813E+02  0.10000000000E+01 0.  0.
    9000005    1    3    3    0    0  0.16927140591E+02  0.15027995920E+02 -0.12282331130E+03  0.12489569468E+03  0.10000000000E+01 0.  0.
          4    1    1    2  501    0  0.27036716639E+02  0.10934553216E+02  0.34058968313E+02  0.44857270572E+02  0.12700000000E+01 0.  1.
<mgrwt>
<rscale>  1 0.12829819E+03</rscale>
<asrwt>0</asrwt>
<pdfrwt beam="1">  1       21 0.10340243E-01 0.12829819E+03</pdfrwt>
<pdfrwt beam="2">  1        4 0.23640735E-01 0.12829819E+03</pdfrwt>
<totfact> 0.51059929E+04</totfact>
</mgrwt>
</event>
<event>
 6    4  0.6325740E-003  0.1269201E+03  0.7818608E-02  0.1232099E+00
          4   -1    0    0  502    0 -0.00000000000E+00  0.00000000000E+00  0.15386718101E+03  0.15387242213E+03  0.12700000000E+01 0.  1.
         21   -1    0    0  501  502  0.00000000000E+00 -0.00000000000E+00 -0.46318734351E+02  0.46318734351E+02  0.00000000000E+00 0. -1.
         25    2    1    2    0    0 -0.13802152869E+02  0.17202411480E+02  0.12013957643E+03  0.17476337968E+03  0.12498919420E+03 0.  0.
    9000005    1    3    3    0    0  0.46399637127E+02  0.43889330858E+01  0.99428141760E+02  0.10981413585E+03  0.10000000000E+01 0.  0.
    9000005    1    3    3    0    0 -0.60201789996E+02  0.12813478394E+02  0.20711434671E+02  0.64949243825E+02  0.10000000000E+01 0.  0.
          4    1    1    2  501    0  0.13802152869E+02 -0.17202411480E+02 -0.12591129768E+02  0.25427776808E+02  0.12700000000E+01 0. -1.
<mgrwt>
<rscale>  1 0.12692014E+03</rscale>
<asrwt>0</asrwt>
<pdfrwt beam="2">  1       21 0.71259592E-02 0.12692014E+03</pdfrwt>
<pdfrwt beam="1">  1        4 0.23673616E-01 0.12692014E+03</pdfrwt>
<totfact> 0.96899010E+04</totfact>
</mgrwt>
</event>
<event>
 6    4  0.6325740E-003  0.1386734E+03  0.7818608E-02  0.1215125E+00
         21   -1    0    0  501  502  0.00000000000E+00  0.00000000000E+00  0.55990541826E+02  0.55990541826E+02  0.00000000000E+00 0. -1.
          4   -1    0    0  502    0 -0.00000000000E+00 -0.00000000000E+00 -0.57893883670E+03  0.57894022968E+03  0.12700000000E+01 0.  1.
         25    2    1    2    0    0 -0.51763989821E+02 -0.30519947016E+02 -0.55130093255E+03  0.56847429874E+03  0.12497732710E+03 0.  0.
    9000005    1    3    3    0    0  0.49835763324E+01 -0.68594959265E+02 -0.23419197607E+03  0.24408397351E+03  0.10000000000E+01 0.  0.
    9000005    1    3    3    0    0 -0.56747566153E+02  0.38075012249E+02 -0.31710895648E+03  0.32439032523E+03  0.10000000000E+01 0.  0.
          4    1    1    2  501    0  0.51763989821E+02  0.30519947016E+02  0.28352637681E+02  0.66456472759E+02  0.12700000000E+01 0. -1.
<mgrwt>
<rscale>  1 0.13867339E+03</rscale>
<asrwt>0</asrwt>
<pdfrwt beam="1">  1       21 0.86139301E-02 0.13867339E+03</pdfrwt>
<pdfrwt beam="2">  1        4 0.89068723E-01 0.13867339E+03</pdfrwt>
<totfact> 0.48507099E+03</totfact>
</mgrwt>
</event>
<event>
 6    4  0.6325740E-003  0.1403147E+03  0.7818608E-02  0.1212906E+00
          4   -1    0    0  502    0 -0.00000000000E+00  0.00000000000E+00  0.44994390473E+03  0.44994569706E+03  0.12700000000E+01 0. -1.
         21   -1    0    0  501  502  0.00000000000E+00 -0.00000000000E+00 -0.42697610169E+02  0.42697610169E+02  0.00000000000E+00 0.  1.
         25    2    1    2    0    0 -0.63660366366E+02 -0.33034921694E+01  0.40524929370E+03  0.42885336901E+03  0.12499866701E+03 0.  0.
    9000005    1    3    3    0    0 -0.32659534820E+02 -0.23491642768E+02  0.26241196155E+02  0.48042719222E+02  0.10000000000E+01 0.  0.
    9000005    1    3    3    0    0 -0.31000831546E+02  0.20188150598E+02  0.37900809755E+03  0.38081064978E+03  0.10000000000E+01 0.  0.
          4    1    1    2  501    0  0.63660366366E+02  0.33034921694E+01  0.19970008592E+01  0.63789938225E+02  0.12700000000E+01 0.  1.
<mgrwt>
<rscale>  1 0.14031473E+03</rscale>
<asrwt>0</asrwt>
<pdfrwt beam="2">  1       21 0.65688634E-02 0.14031473E+03</pdfrwt>
<pdfrwt beam="1">  1        4 0.69223727E-01 0.14031473E+03</pdfrwt>
<totfact> 0.13495629E+04</totfact>
</mgrwt>
</event>
<event>
 6    4  0.6325740E-003  0.1283772E+03  0.7818608E-02  0.1229884E+00
         -4   -1    0    0    0  501 -0.00000000000E+00  0.00000000000E+00  0.15708184373E+03  0.15708697759E+03  0.12700000000E+01 0. -1.
         21   -1    0    0  501  502  0.00000000000E+00 -0.00000000000E+00 -0.68478358170E+02  0.68478358170E+02  0.00000000000E+00 0.  1.
         25    2    1    2    0    0 -0.20830183771E+02  0.20580711020E+02  0.12476526393E+03  0.17901698094E+03  0.12499298444E+03 0.  0.
    9000005    1    3    3    0    0 -0.22012578997E+02 -0.43080839368E+01 -0.21234228811E+02  0.30903166416E+02  0.10000000000E+01 0.  0.
    9000005    1    3    3    0    0  0.11823952265E+01  0.24888794957E+02  0.14599949274E+03  0.14811381452E+03  0.10000000000E+01 0.  0.
         -4    1    1    2    0  502  0.20830183771E+02 -0.20580711020E+02 -0.36161778368E+02  0.46548354824E+02  0.12700000000E+01 0.  1.
<mgrwt>
<rscale>  1 0.12837721E+03</rscale>
<asrwt>0</asrwt>
<pdfrwt beam="2">  1       21 0.10535132E-01 0.12837721E+03</pdfrwt>
<pdfrwt beam="1">  1       -4 0.24167738E-01 0.12837721E+03</pdfrwt>
<totfact> 0.47460116E+04</totfact>
</mgrwt>
</event>
<event>
 6    4  0.6325740E-003  0.1266202E+03  0.7818608E-02  0.1232559E+00
         21   -1    0    0  501  502  0.00000000000E+00  0.00000000000E+00  0.56597022357E+02  0.56597022357E+02  0.00000000000E+00 0. -1.
         -4   -1    0    0    0  501 -0.00000000000E+00 -0.00000000000E+00 -0.95281877111E+02  0.95290340569E+02  0.12700000000E+01 0. -1.
         25    2    1    2    0    0 -0.54984195917E+01  0.19421074438E+02 -0.34474655457E+02  0.13122944850E+03  0.12500102213E+03 0.  0.
    9000005    1    3    3    0    0  0.89985196062E+01  0.36992167310E+02 -0.75348285039E+02  0.84426049627E+02  0.10000000000E+01 0.  0.
    9000005    1    3    3    0    0 -0.14496939198E+02 -0.17571092872E+02  0.40873629581E+02  0.46803398872E+02  0.10000000000E+01 0.  0.
         -4    1    1    2    0  502  0.54984195917E+01 -0.19421074438E+02 -0.42101992964E+01  0.20657914427E+02  0.12700000000E+01 0.  1.
<mgrwt>
<rscale>  1 0.12662017E+03</rscale>
<asrwt>0</asrwt>
<pdfrwt beam="1">  1       21 0.87072343E-02 0.12662017E+03</pdfrwt>
<pdfrwt beam="2">  1       -4 0.14660497E-01 0.12662017E+03</pdfrwt>
<totfact> 0.16123899E+05</totfact>
</mgrwt>
</event>
<event>
 6    4  0.6325740E-003  0.1334747E+03  0.7818608E-02  0.1222389E+00
         21   -1    0    0  501  502  0.00000000000E+00  0.00000000000E+00  0.21060891509E+02  0.21060891509E+02  0.00000000000E+00 0.  1.
          4   -1    0    0  502    0 -0.00000000000E+00 -0.00000000000E+00 -0.38827311573E+03  0.38827519274E+03  0.12700000000E+01 0.  1.
         25    2    1    2    0    0 -0.39732413587E+02 -0.24744299051E+02 -0.25713319252E+03  0.28971187623E+03  0.12499819001E+03 0.  0.
    9000005    1    3    3    0    0 -0.48617216410E+02  0.18923438912E+02 -0.34252258078E+02  0.62417525225E+02  0.10000000000E+01 0.  0.
    9000005    1    3    3    0    0  0.88848028229E+01 -0.43667737963E+02 -0.22288093444E+03  0.22729435100E+03  0.10000000000E+01 0.  0.
          4    1    1    2  501    0  0.39732413587E+02  0.24744299051E+02 -0.11007903170E+03  0.11962420802E+03  0.12700000000E+01 0. -1.
<mgrwt>
<rscale>  1 0.13347469E+03</rscale>
<asrwt>0</asrwt>
<pdfrwt beam="1">  1       21 0.32401375E-02 0.13347469E+03</pdfrwt>
<pdfrwt beam="2">  1        4 0.59737424E-01 0.13347469E+03</pdfrwt>
<totfact> 0.60007409E+04</totfact>
</mgrwt>
</event>
<event>
 6    4  0.6325740E-003  0.1349400E+03  0.7818608E-02  0.1220304E+00
         -4   -1    0    0    0  501 -0.00000000000E+00  0.00000000000E+00  0.16679378929E+02  0.16727659174E+02  0.12700000000E+01 0.  1.
         21   -1    0    0  501  502  0.00000000000E+00 -0.00000000000E+00 -0.77349531849E+03  0.77349531849E+03  0.00000000000E+00 0. -1.
         25    2    1    2    0    0  0.27123136935E+02  0.42976817329E+02 -0.28123255215E+03  0.31193034479E+03  0.12500448082E+03 0.  0.
    9000005    1    3    3    0    0  0.63038186252E+02 -0.15291069908E+02 -0.11290714927E+03  0.13021771807E+03  0.10000000000E+01 0.  0.
    9000005    1    3    3    0    0 -0.35915049316E+02  0.58267887237E+02 -0.16832540289E+03  0.18171262671E+03  0.10000000000E+01 0.  0.
         -4    1    1    2    0  502 -0.27123136935E+02 -0.42976817329E+02 -0.47558338741E+03  0.47829263288E+03  0.12700000000E+01 0. -1.
<mgrwt>
<rscale>  1 0.13493996E+03</rscale>
<asrwt>0</asrwt>
<pdfrwt beam="2">  1       21 0.11899929E+00 0.13493996E+03</pdfrwt>
<pdfrwt beam="1">  1       -4 0.25698521E-02 0.13493996E+03</pdfrwt>
<totfact> 0.15348149E+04</totfact>
</mgrwt>
</event>
<event>
 6    4  0.6325740E-003  0.1294343E+03  0.7818608E-02  0.1228298E+00
         21   -1    0    0  501  502  0.00000000000E+00  0.00000000000E+00  0.63414999508E+01  0.63414999508E+01  0.00000000000E+00 0.  1.
         -4   -1    0    0    0  501 -0.00000000000E+00 -0.00000000000E+00 -0.15693829551E+04  0.15693834689E+04  0.12700000000E+01 0. -1.
         25    2    1    2    0    0 -0.23293279227E+02  0.24200657627E+02 -0.14865433235E+04  0.14921676489E+04  0.12499996403E+03 0.  0.
    9000005    1    3    3    0    0 -0.14833462322E+02  0.62380112078E+02 -0.41634548490E+03  0.42125511603E+03  0.10000000000E+01 0.  0.
    9000005    1    3    3    0    0 -0.84598169042E+01 -0.38179454451E+02 -0.10701978386E+04  0.10709125328E+04  0.10000000000E+01 0.  0.
         -4    1    1    2    0  502  0.23293279227E+02 -0.24200657627E+02 -0.76498131611E+02  0.83557320006E+02  0.12700000000E+01 0.  1.
<mgrwt>
<rscale>  1 0.12943431E+03</rscale>
<asrwt>0</asrwt>
<pdfrwt beam="1">  1       21 0.97561558E-03 0.12943431E+03</pdfrwt>
<pdfrwt beam="2">  1       -4 0.24145330E+00 0.12943431E+03</pdfrwt>
<totfact> 0.13035544E+04</totfact>
</mgrwt>
</event>
<event>
 6    4  0.6325740E-003  0.1295663E+03  0.7818608E-02  0.1228101E+00
         21   -1    0    0  501  502  0.00000000000E+00  0.00000000000E+00  0.24172044755E+03  0.24172044755E+03  0.00000000000E+00 0. -1.
         -4   -1    0    0    0  501 -0.00000000000E+00 -0.00000000000E+00 -0.38693856511E+02  0.38714692710E+02  0.12700000000E+01 0.  1.
         25    2    1    2    0    0  0.31976995901E+02 -0.11804505879E+02  0.78881955144E+02  0.15168973977E+03  0.12500215869E+03 0.  0.
    9000005    1    3    3    0    0  0.47172161601E+02 -0.61288708617E+02  0.41040230130E+02  0.87560374161E+02  0.10000000000E+01 0.  0.
    9000005    1    3    3    0    0 -0.15195165700E+02  0.49484202738E+02  0.37841725014E+02  0.64129365609E+02  0.10000000000E+01 0.  0.
         -4    1    1    2    0  502 -0.31976995901E+02  0.11804505879E+02  0.12414463589E+03  0.12874540049E+03  0.12700000000E+01 0. -1.
<mgrwt>
<rscale>  1 0.12956625E+03</rscale>
<asrwt>0</asrwt>
<pdfrwt beam="1">  1       21 0.37187760E-01 0.12956625E+03</pdfrwt>
<pdfrwt beam="2">  1       -4 0.59547606E-02 0.12956625E+03</pdfrwt>
<totfact> 0.50724289E+04</totfact>
</mgrwt>
</event>
<event>
 6    4  0.6325740E-003  0.1362245E+03  0.7818608E-02  0.1218501E+00
         21   -1    0    0  501  502  0.00000000000E+00  0.00000000000E+00  0.30997096628E+03  0.30997096628E+03  0.00000000000E+00 0.  1.
         -4   -1    0    0    0  501 -0.00000000000E+00 -0.00000000000E+00 -0.68126872082E+02  0.68138708527E+02  0.12700000000E+01 0. -1.
         25    2    1    2    0    0 -0.50108981432E+02  0.20487796761E+02  0.62448906632E+01  0.13636754475E+03  0.12500579493E+03 0.  0.
    9000005    1    3    3    0    0 -0.79411659317E+02 -0.20895439804E+01  0.37572808230E+02  0.87882272091E+02  0.10000000000E+01 0.  0.
    9000005    1    3    3    0    0  0.29302677885E+02  0.22577340741E+02 -0.31327917567E+02  0.48485272664E+02  0.10000000000E+01 0.  0.
         -4    1    1    2    0  502  0.50108981432E+02 -0.20487796761E+02  0.23559920354E+03  0.24174213005E+03  0.12700000000E+01 0.  1.
<mgrwt>
<rscale>  1 0.13622448E+03</rscale>
<asrwt>0</asrwt>
<pdfrwt beam="1">  1       21 0.47687840E-01 0.13622448E+03</pdfrwt>
<pdfrwt beam="2">  1       -4 0.10482168E-01 0.13622448E+03</pdfrwt>
<totfact> 0.12108396E+04</totfact>
</mgrwt>
</event>
<event>
 6    4  0.6325740E-003  0.1279849E+03  0.7818608E-02  0.1230477E+00
         21   -1    0    0  501  502  0.00000000000E+00  0.00000000000E+00  0.11487218895E+03  0.11487218895E+03  0.00000000000E+00 0. -1.
         -4   -1    0    0    0  501 -0.00000000000E+00 -0.00000000000E+00 -0.13377887712E+03  0.13378490522E+03  0.12700000000E+01 0.  1.
         25    2    1    2    0    0  0.17956236522E+02 -0.20796484344E+02 -0.10038790685E+03  0.16265870994E+03  0.12500081555E+03 0.  0.
    9000005    1    3    3    0    0  0.63372341057E+02  0.20441395621E+02 -0.50300036437E+02  0.83456563143E+02  0.10000000000E+01 0.  0.
    9000005    1    3    3    0    0 -0.45416104535E+02 -0.41237879965E+02 -0.50087870416E+02  0.79202146801E+02  0.10000000000E+01 0.  0.
         -4    1    1    2    0  502 -0.17956236522E+02  0.20796484344E+02  0.81481218685E+02  0.85998384227E+02  0.12700000000E+01 0. -1.
<mgrwt>
<rscale>  1 0.12798486E+03</rscale>
<asrwt>0</asrwt>
<pdfrwt beam="1">  1       21 0.17672644E-01 0.12798486E+03</pdfrwt>
<pdfrwt beam="2">  1       -4 0.20582369E-01 0.12798486E+03</pdfrwt>
<totfact> 0.25176478E+04</totfact>
</mgrwt>
</event>
<event>
 6    4  0.6325740E-003  0.1322262E+03  0.7818608E-02  0.1224189E+00
          4   -1    0    0  502    0 -0.00000000000E+00  0.00000000000E+00  0.73571309862E+02  0.73582270520E+02  0.12700000000E+01 0.  1.
         21   -1    0    0  501  502  0.00000000000E+00 -0.00000000000E+00 -0.20707328332E+03  0.20707328332E+03  0.00000000000E+00 0. -1.
         25    2    1    2    0    0  0.39909993287E+02 -0.16312407238E+02  0.82529253926E+01  0.13248346996E+03  0.12499942736E+03 0.  0.
    9000005    1    3    3    0    0  0.63728038649E+02 -0.52302032029E+02  0.25037503385E+02  0.86166362579E+02  0.10000000000E+01 0.  0.
    9000005    1    3    3    0    0 -0.23818045361E+02  0.35989624791E+02 -0.16784577993E+02  0.46317107378E+02  0.10000000000E+01 0.  0.
          4    1    1    2  501    0 -0.39909993287E+02  0.16312407238E+02 -0.14175489885E+03  0.14817208388E+03  0.12700000000E+01 0. -1.
<mgrwt>
<rscale>  1 0.13222617E+03</rscale>
<asrwt>0</asrwt>
<pdfrwt beam="2">  1       21 0.31857428E-01 0.13222617E+03</pdfrwt>
<pdfrwt beam="1">  1        4 0.11319806E-01 0.13222617E+03</pdfrwt>
<totfact> 0.23709841E+04</totfact>
</mgrwt>
</event>
<event>
 6    4  0.6325740E-003  0.1266949E+03  0.7818608E-02  0.1232444E+00
         21   -1    0    0  501  502  0.00000000000E+00  0.00000000000E+00  0.19838393999E+03  0.19838393999E+03  0.00000000000E+00 0.  1.
          4   -1    0    0  502    0 -0.00000000000E+00 -0.00000000000E+00 -0.68083298276E+02  0.68095142294E+02  0.12700000000E+01 0. -1.
         25    2    1    2    0    0 -0.39792510775E+01 -0.20264163808E+02 -0.77069725634E+01  0.12692914401E+03  0.12500055759E+03 0.  0.
    9000005    1    3    3    0    0 -0.14550985382E+02 -0.50225670156E+02 -0.51112329993E+02  0.73128786367E+02  0.10000000000E+01 0.  0.
    9000005    1    3    3    0    0  0.10571734304E+02  0.29961506348E+02  0.43405357430E+02  0.53800357642E+02  0.10000000000E+01 0.  0.
          4    1    1    2  501    0  0.39792510775E+01  0.20264163808E+02  0.13800761428E+03  0.13954993827E+03  0.12700000000E+01 0.  1.
<mgrwt>
<rscale>  1 0.12669495E+03</rscale>
<asrwt>0</asrwt>
<pdfrwt beam="1">  1       21 0.30520606E-01 0.12669495E+03</pdfrwt>
<pdfrwt beam="2">  1        4 0.10475577E-01 0.12669495E+03</pdfrwt>
<totfact> 0.29250425E+04</totfact>
</mgrwt>
</event>
<event>
 6    4  0.6325740E-003  0.1404651E+03  0.7818608E-02  0.1212704E+00
          4   -1    0    0  502    0 -0.00000000000E+00  0.00000000000E+00  0.69302889525E+02  0.69314525148E+02  0.12700000000E+01 0. -1.
         21   -1    0    0  501  502  0.00000000000E+00 -0.00000000000E+00 -0.15969620516E+03  0.15969620516E+03  0.00000000000E+00 0. -1.
         25    2    1    2    0    0 -0.63893630843E+02 -0.38092292624E+01 -0.86305150548E+02  0.16486065406E+03  0.12503419514E+03 0.  0.
    9000005    1    3    3    0    0 -0.39964590231E+02 -0.40753344410E+02  0.10927635778E+02  0.58124149685E+02  0.10000000000E+01 0.  0.
    9000005    1    3    3    0    0 -0.23929040612E+02  0.36944115147E+02 -0.97232786326E+02  0.10673650437E+03  0.10000000000E+01 0.  0.
          4    1    1    2  501    0  0.63893630843E+02  0.38092292624E+01 -0.40881650902E+01  0.64150076256E+02  0.12700000000E+01 0.  1.
<mgrwt>
<rscale>  1 0.14046514E+03</rscale>
<asrwt>0</asrwt>
<pdfrwt beam="2">  1       21 0.24568646E-01 0.14046514E+03</pdfrwt>
<pdfrwt beam="1">  1        4 0.10663267E-01 0.14046514E+03</pdfrwt>
<totfact> 0.43440697E+04</totfact>
</mgrwt>
</event>
<event>
 6    4  0.6325740E-003  0.1704756E+03  0.7818608E-02  0.1177353E+00
         21   -1    0    0  501  502  0.00000000000E+00  0.00000000000E+00  0.57041882864E+02  0.57041882864E+02  0.00000000000E+00 0.  1.
         -4   -1    0    0    0  501 -0.00000000000E+00 -0.00000000000E+00 -0.49347770405E+03  0.49347933827E+03  0.12700000000E+01 0. -1.
         25    2    1    2    0    0 -0.84426024278E+02  0.79425164134E+02 -0.39002575075E+03  0.42565482128E+03  0.12500332138E+03 0.  0.
    9000005    1    3    3    0    0 -0.68818993959E+02  0.82393333031E+02 -0.14658641134E+03  0.18169560052E+03  0.10000000000E+01 0.  0.
    9000005    1    3    3    0    0 -0.15607030319E+02 -0.29681688972E+01 -0.24343933942E+03  0.24395922077E+03  0.10000000000E+01 0.  0.
         -4    1    1    2    0  502  0.84426024278E+02 -0.79425164134E+02 -0.46410070433E+02  0.12486639985E+03  0.12700000000E+01 0.  1.
<mgrwt>
<rscale>  1 0.17047563E+03</rscale>
<asrwt>0</asrwt>
<pdfrwt beam="1">  1       21 0.87756741E-02 0.17047563E+03</pdfrwt>
<pdfrwt beam="2">  1       -4 0.75920862E-01 0.17047563E+03</pdfrwt>
<totfact> 0.67994149E+03</totfact>
</mgrwt>
</event>
<event>
 6    4  0.6325740E-003  0.1316432E+03  0.7818608E-02  0.1225038E+00
          4   -1    0    0  502    0 -0.00000000000E+00  0.00000000000E+00  0.13530295326E+02  0.13589767902E+02  0.12700000000E+01 0. -1.
         21   -1    0    0  501  502  0.00000000000E+00 -0.00000000000E+00 -0.63347694250E+03  0.63347694250E+03  0.00000000000E+00 0.  1.
         25    2    1    2    0    0 -0.20548412027E+02  0.35807662285E+02 -0.34924109990E+03  0.37322819569E+03  0.12500205711E+03 0.  0.
    9000005    1    3    3    0    0 -0.35068719285E+02  0.69557552219E+02 -0.13506976120E+03  0.15592597133E+03  0.10000000000E+01 0.  0.
    9000005    1    3    3    0    0  0.14520307257E+02 -0.33749889934E+02 -0.21417133869E+03  0.21730222436E+03  0.10000000000E+01 0.  0.
          4    1    1    2  501    0  0.20548412027E+02 -0.35807662285E+02 -0.27070554728E+03  0.27383851472E+03  0.12700000000E+01 0.  1.
<mgrwt>
<rscale>  1 0.13164323E+03</rscale>
<asrwt>0</asrwt>
<pdfrwt beam="2">  1       21 0.97457954E-01 0.13164323E+03</pdfrwt>
<pdfrwt beam="1">  1        4 0.20862574E-02 0.13164323E+03</pdfrwt>
<totfact> 0.34039437E+04</totfact>
</mgrwt>
</event>
<event>
 6    4  0.6325740E-003  0.1270710E+03  0.7818608E-02  0.1231868E+00
         -4   -1    0    0    0  501 -0.00000000000E+00  0.00000000000E+00  0.32695536132E+02  0.32720192282E+02  0.12700000000E+01 0. -1.
         21   -1    0    0  501  502  0.00000000000E+00 -0.00000000000E+00 -0.29743180597E+03  0.29743180597E+03  0.00000000000E+00 0.  1.
         25    2    1    2    0    0 -0.19668935224E+02 -0.11635118949E+02 -0.94434422344E+02  0.15831901200E+03  0.12499922572E+03 0.  0.
    9000005    1    3    3    0    0  0.17477606970E+02  0.26891680139E+02 -0.99506135499E+02  0.10455190198E+03  0.10000000000E+01 0.  0.
    9000005    1    3    3    0    0 -0.37146542194E+02 -0.38526799088E+02  0.50717131543E+01  0.53767110014E+02  0.10000000000E+01 0.  0.
         -4    1    1    2    0  502  0.19668935224E+02  0.11635118949E+02 -0.17030184749E+03  0.17183298625E+03  0.12700000000E+01 0.  1.
<mgrwt>
<rscale>  1 0.12707104E+03</rscale>
<asrwt>0</asrwt>
<pdfrwt beam="2">  1       21 0.45758740E-01 0.12707104E+03</pdfrwt>
<pdfrwt beam="1">  1       -4 0.50321876E-02 0.12707104E+03</pdfrwt>
<totfact> 0.43799073E+04</totfact>
</mgrwt>
</event>
<event>
 6    4  0.6325740E-003  0.1303137E+03  0.7818608E-02  0.1226991E+00
         -4   -1    0    0    0  501 -0.00000000000E+00  0.00000000000E+00  0.33024721024E+03  0.33024965219E+03  0.12700000000E+01 0. -1.
         21   -1    0    0  501  502  0.00000000000E+00 -0.00000000000E+00 -0.34058337590E+02  0.34058337590E+02  0.00000000000E+00 0.  1.
         25    2    1    2    0    0 -0.21578986199E+02 -0.29846278957E+02  0.30017506980E+03  0.32724108162E+03  0.12500079984E+03 0.  0.
    9000005    1    3    3    0    0 -0.11937604197E+02 -0.41182388666E+02  0.21155455351E+02  0.47823099244E+02  0.10000000000E+01 0.  0.
    9000005    1    3    3    0    0 -0.96413820018E+01  0.11336109709E+02  0.27901961445E+03  0.27941798238E+03  0.10000000000E+01 0.  0.
         -4    1    1    2    0  502  0.21578986199E+02  0.29846278957E+02 -0.39861971449E+01  0.37066908161E+02  0.12700000000E+01 0.  1.
<mgrwt>
<rscale>  1 0.13031367E+03</rscale>
<asrwt>0</asrwt>
<pdfrwt beam="2">  1       21 0.52397445E-02 0.13031367E+03</pdfrwt>
<pdfrwt beam="1">  1       -4 0.50809270E-01 0.13031367E+03</pdfrwt>
<totfact> 0.37563634E+04</totfact>
</mgrwt>
</event>
<event>
 6    4  0.6325740E-003  0.1266846E+03  0.7818608E-02  0.1232460E+00
         -4   -1    0    0    0  501 -0.00000000000E+00  0.00000000000E+00  0.21093930017E+03  0.21094312327E+03  0.12700000000E+01 0.  1.
         21   -1    0    0  501  502  0.00000000000E+00 -0.00000000000E+00 -0.25970194783E+02  0.25970194783E+02  0.00000000000E+00 0. -1.
         25    2    1    2    0    0  0.15803863315E+02  0.13156028277E+02  0.15012888995E+03  0.19643744021E+03  0.12500456449E+03 0.  0.
    9000005    1    3    3    0    0  0.28974562377E+02 -0.34406867309E+01 -0.12983209842E+02  0.31951953429E+02  0.10000000000E+01 0.  0.
    9000005    1    3    3    0    0 -0.13170699062E+02  0.16596715008E+02  0.16311209979E+03  0.16448548678E+03  0.10000000000E+01 0.  0.
         -4    1    1    2    0  502 -0.15803863315E+02 -0.13156028277E+02  0.34840215433E+02  0.40475877843E+02  0.12700000000E+01 0. -1.
<mgrwt>
<rscale>  1 0.12668459E+03</rscale>
<asrwt>0</asrwt>
<pdfrwt beam="2">  1       21 0.39954147E-02 0.12668459E+03</pdfrwt>
<pdfrwt beam="1">  1       -4 0.32454882E-01 0.12668459E+03</pdfrwt>
<totfact> 0.14243885E+05</totfact>
</mgrwt>
</event>
<event>
 6    4  0.6325740E-003  0.1292052E+03  0.7818608E-02  0.1228640E+00
         21   -1    0    0  501  502  0.00000000000E+00  0.00000000000E+00  0.32820638541E+03  0.32820638541E+03  0.00000000000E+00 0. -1.
          4   -1    0    0  502    0 -0.00000000000E+00 -0.00000000000E+00 -0.50349499289E+02  0.50365513783E+02  0.12700000000E+01 0.  1.
         25    2    1    2    0    0 -0.27177373878E+01 -0.32530669027E+02  0.35459090601E+02  0.13398258075E+03  0.12501341654E+03 0.  0.
    9000005    1    3    3    0    0  0.45276259979E+02 -0.12693330581E+02  0.60245234685E+02  0.76430024606E+02  0.10000000000E+01 0.  0.
    9000005    1    3    3    0    0 -0.47993997367E+02 -0.19837338446E+02 -0.24786144085E+02  0.57552556142E+02  0.10000000000E+01 0.  0.
          4    1    1    2  501    0  0.27177373878E+01  0.32530669027E+02  0.24239779552E+03  0.24458931844E+03  0.12700000000E+01 0. -1.
<mgrwt>
<rscale>  1 0.12920520E+03</rscale>
<asrwt>0</asrwt>
<pdfrwt beam="1">  1       21 0.50493289E-01 0.12920520E+03</pdfrwt>
<pdfrwt beam="2">  1        4 0.77474979E-02 0.12920520E+03</pdfrwt>
<totfact> 0.17759867E+04</totfact>
</mgrwt>
</event>
<event>
 6    4  0.6325740E-003  0.1436798E+03  0.7818608E-02  0.1208462E+00
          4   -1    0    0  502    0 -0.00000000000E+00  0.00000000000E+00  0.14406179518E+02  0.14462050626E+02  0.12700000000E+01 0.  1.
         21   -1    0    0  501  502  0.00000000000E+00 -0.00000000000E+00 -0.14320587211E+04  0.14320587211E+04  0.00000000000E+00 0. -1.
         25    2    1    2    0    0  0.47299227314E+02  0.52742475188E+02 -0.37688023310E+03  0.40333929346E+03  0.12499955982E+03 0.  0.
    9000005    1    3    3    0    0 -0.35811703690E+02  0.48181502590E+02 -0.17287401264E+03  0.18300371460E+03  0.10000000000E+01 0.  0.
    9000005    1    3    3    0    0  0.83110931004E+02  0.45609725978E+01 -0.20400622046E+03  0.22033557886E+03  0.10000000000E+01 0.  0.
          4    1    1    2  501    0 -0.47299227314E+02 -0.52742475188E+02 -0.10407723085E+04  0.10431814783E+04  0.12700000000E+01 0. -1.
<mgrwt>
<rscale>  1 0.14367977E+03</rscale>
<asrwt>0</asrwt>
<pdfrwt beam="2">  1       21 0.22031682E+00 0.14367977E+03</pdfrwt>
<pdfrwt beam="1">  1        4 0.22206755E-02 0.14367977E+03</pdfrwt>
<totfact> 0.36694917E+03</totfact>
</mgrwt>
</event>
<event>
 6    4  0.6325740E-003  0.1314865E+03  0.7818608E-02  0.1225267E+00
         21   -1    0    0  501  502  0.00000000000E+00  0.00000000000E+00  0.43584959773E+02  0.43584959773E+02  0.00000000000E+00 0. -1.
         -4   -1    0    0    0  501 -0.00000000000E+00 -0.00000000000E+00 -0.19972139795E+03  0.19972543579E+03  0.12700000000E+01 0.  1.
         25    2    1    2    0    0 -0.58732383933E+01  0.40383869830E+02 -0.15390078955E+03  0.20242075266E+03  0.12499342468E+03 0.  0.
    9000005    1    3    3    0    0 -0.80940241551E+01  0.84423290870E+02 -0.11922125649E+03  0.14631306595E+03  0.10000000000E+01 0.  0.
    9000005    1    3    3    0    0  0.22207857618E+01 -0.44039421041E+02 -0.34679533059E+02  0.56107686712E+02  0.10000000000E+01 0.  0.
         -4    1    1    2    0  502  0.58732383933E+01 -0.40383869830E+02 -0.22356486314E+01  0.40889642899E+02  0.12700000000E+01 0. -1.
<mgrwt>
<rscale>  1 0.13148653E+03</rscale>
<asrwt>0</asrwt>
<pdfrwt beam="1">  1       21 0.67053785E-02 0.13148653E+03</pdfrwt>
<pdfrwt beam="2">  1       -4 0.30728102E-01 0.13148653E+03</pdfrwt>
<totfact> 0.66482875E+04</totfact>
</mgrwt>
</event>
<event>
 6    4  0.6325740E-003  0.1266982E+03  0.7818608E-02  0.1232439E+00
          4   -1    0    0  502    0 -0.00000000000E+00  0.00000000000E+00  0.23624581472E+03  0.23624922830E+03  0.12700000000E+01 0.  1.
         21   -1    0    0  501  502  0.00000000000E+00 -0.00000000000E+00 -0.38269230955E+02  0.38269230955E+02  0.00000000000E+00 0. -1.
         25    2    1    2    0    0  0.18375724474E+02 -0.94651035146E+01  0.21375547599E+03  0.24848306461E+03  0.12500069778E+03 0.  0.
    9000005    1    3    3    0    0  0.96757976100E+01 -0.53377750323E+02  0.19040201002E+03  0.19798164235E+03  0.10000000000E+01 0.  0.
    9000005    1    3    3    0    0  0.86999268640E+01  0.43912646809E+02  0.23353465977E+02  0.50501422260E+02  0.10000000000E+01 0.  0.
          4    1    1    2  501    0 -0.18375724474E+02  0.94651035146E+01 -0.15778892228E+02  0.26035394647E+02  0.12700000000E+01 0. -1.
<mgrwt>
<rscale>  1 0.12669818E+03</rscale>
<asrwt>0</asrwt>
<pdfrwt beam="2">  1       21 0.58875742E-02 0.12669818E+03</pdfrwt>
<pdfrwt beam="1">  1        4 0.36347392E-01 0.12669818E+03</pdfrwt>
<totfact> 0.59816014E+04</totfact>
</mgrwt>
</event>
<event>
 6    4  0.6325740E-003  0.1286485E+03  0.7818608E-02  0.1229475E+00
          4   -1    0    0  502    0 -0.00000000000E+00  0.00000000000E+00  0.97766765127E+02  0.97775013493E+02  0.12700000000E+01 0. -1.
         21   -1    0    0  501  502  0.00000000000E+00 -0.00000000000E+00 -0.92190432270E+02  0.92190432270E+02  0.00000000000E+00 0. -1.
         25    2    1    2    0    0  0.18404265993E+02  0.24223313652E+02  0.48373199494E+02  0.13744239725E+03  0.12499984081E+03 0.  0.
    9000005    1    3    3    0    0  0.51298753798E+02  0.58761764449E+02  0.43931252950E+02  0.89529113075E+02  0.10000000000E+01 0.  0.
    9000005    1    3    3    0    0 -0.32894487805E+02 -0.34538450797E+02  0.44419465444E+01  0.47913284175E+02  0.10000000000E+01 0.  0.
          4    1    1    2  501    0 -0.18404265993E+02 -0.24223313652E+02 -0.42796866636E+02  0.52523048511E+02  0.12700000000E+01 0.  1.
<mgrwt>
<rscale>  1 0.12864854E+03</rscale>
<asrwt>0</asrwt>
<pdfrwt beam="2">  1       21 0.14183144E-01 0.12864854E+03</pdfrwt>
<pdfrwt beam="1">  1        4 0.15042348E-01 0.12864854E+03</pdfrwt>
<totfact> 0.65404069E+04</totfact>
</mgrwt>
</event>
<event>
 6    4  0.6325740E-003  0.1290602E+03  0.7818608E-02  0.1228857E+00
         21   -1    0    0  501  502  0.00000000000E+00  0.00000000000E+00  0.28289591393E+02  0.28289591393E+02  0.00000000000E+00 0. -1.
          4   -1    0    0  502    0 -0.00000000000E+00 -0.00000000000E+00 -0.23732908321E+03  0.23733248121E+03  0.12700000000E+01 0. -1.
         25    2    1    2    0    0  0.30562784992E+02  0.98804070174E+01 -0.18459939031E+03  0.22524091696E+03  0.12499931800E+03 0.  0.
    9000005    1    3    3    0    0  0.14897443741E+02  0.62988622319E+02 -0.13961855365E+03  0.15389555190E+03  0.10000000000E+01 0.  0.
    9000005    1    3    3    0    0  0.15665341250E+02 -0.53108215301E+02 -0.44980836668E+02  0.71345365065E+02  0.10000000000E+01 0.  0.
          4    1    1    2  501    0 -0.30562784992E+02 -0.98804070174E+01 -0.24440101500E+02  0.40381155637E+02  0.12700000000E+01 0.  1.
<mgrwt>
<rscale>  1 0.12906020E+03</rscale>
<asrwt>0</asrwt>
<pdfrwt beam="1">  1       21 0.43522448E-02 0.12906020E+03</pdfrwt>
<pdfrwt beam="2">  1        4 0.36514621E-01 0.12906020E+03</pdfrwt>
<totfact> 0.98762877E+04</totfact>
</mgrwt>
</event>
<event>
 6    4  0.6325740E-003  0.1273143E+03  0.7818608E-02  0.1231496E+00
         21   -1    0    0  501  502  0.00000000000E+00  0.00000000000E+00  0.35450293465E+02  0.35450293465E+02  0.00000000000E+00 0. -1.
          4   -1    0    0  502    0 -0.00000000000E+00 -0.00000000000E+00 -0.23979884835E+03  0.23980221136E+03  0.12700000000E+01 0. -1.
         25    2    1    2    0    0  0.22488504258E+02 -0.81878689074E+01 -0.21432928899E+03  0.24929095683E+03  0.12504464408E+03 0.  0.
    9000005    1    3    3    0    0  0.24654110423E+02 -0.60461981500E+02 -0.69823328014E+02  0.95602162646E+02  0.10000000000E+01 0.  0.
    9000005    1    3    3    0    0 -0.21656061651E+01  0.52274112593E+02 -0.14450596098E+03  0.15368879418E+03  0.10000000000E+01 0.  0.
          4    1    1    2  501    0 -0.22488504258E+02  0.81878689074E+01  0.99807341069E+01  0.25961547995E+02  0.12700000000E+01 0.  1.
<mgrwt>
<rscale>  1 0.12731432E+03</rscale>
<asrwt>0</asrwt>
<pdfrwt beam="1">  1       21 0.54538912E-02 0.12731432E+03</pdfrwt>
<pdfrwt beam="2">  1        4 0.36894140E-01 0.12731432E+03</pdfrwt>
<totfact> 0.66172393E+04</totfact>
</mgrwt>
</event>
<event>
 6    4  0.6325740E-003  0.1306063E+03  0.7818608E-02  0.1226559E+00
         -4   -1    0    0    0  501 -0.00000000000E+00  0.00000000000E+00  0.82432923689E+02  0.82442706214E+02  0.12700000000E+01 0. -1.
         21   -1    0    0  501  502  0.00000000000E+00 -0.00000000000E+00 -0.12142509097E+03  0.12142509097E+03  0.00000000000E+00 0. -1.
         25    2    1    2    0    0  0.29158842282E+02  0.24130426607E+02  0.21634004690E+02  0.13238590298E+03  0.12500192629E+03 0.  0.
    9000005    1    3    3    0    0  0.10687791438E+02 -0.53991749829E+01 -0.50695786414E+02  0.52100314168E+02  0.10000000000E+01 0.  0.
    9000005    1    3    3    0    0  0.18471050844E+02  0.29529601590E+02  0.72329791104E+02  0.80285588809E+02  0.10000000000E+01 0.  0.
         -4    1    1    2    0  502 -0.29158842282E+02 -0.24130426607E+02 -0.60626171974E+02  0.71481894209E+02  0.12700000000E+01 0.  1.
<mgrwt>
<rscale>  1 0.13060627E+03</rscale>
<asrwt>0</asrwt>
<pdfrwt beam="2">  1       21 0.18680783E-01 0.13060627E+03</pdfrwt>
<pdfrwt beam="1">  1       -4 0.12683252E-01 0.13060627E+03</pdfrwt>
<totfact> 0.53398319E+04</totfact>
</mgrwt>
</event>
<event>
 6    4  0.6325740E-003  0.1270440E+03  0.7818608E-02  0.1231909E+00
         21   -1    0    0  501  502  0.00000000000E+00  0.00000000000E+00  0.13923692358E+03  0.13923692358E+03  0.00000000000E+00 0. -1.
         -4   -1    0    0    0  501 -0.00000000000E+00 -0.00000000000E+00 -0.45425910448E+02  0.45443660064E+02  0.12700000000E+01 0. -1.
         25    2    1    2    0    0  0.22259061182E+02  0.44603108569E+01  0.52375574718E+02  0.13741676414E+03  0.12499922424E+03 0.  0.
    9000005    1    3    3    0    0  0.32852379117E+02  0.60394743363E+02  0.38535774101E+02  0.78821378605E+02  0.10000000000E+01 0.  0.
    9000005    1    3    3    0    0 -0.10593317935E+02 -0.55934432506E+02  0.13839800617E+02  0.58595385533E+02  0.10000000000E+01 0.  0.
         -4    1    1    2    0  502 -0.22259061182E+02 -0.44603108569E+01  0.41435438410E+02  0.47263819501E+02  0.12700000000E+01 0.  1.
<mgrwt>
<rscale>  1 0.12704395E+03</rscale>
<asrwt>0</asrwt>
<pdfrwt beam="1">  1       21 0.21421065E-01 0.12704395E+03</pdfrwt>
<pdfrwt beam="2">  1       -4 0.69904126E-02 0.12704395E+03</pdfrwt>
<totfact> 0.11212055E+05</totfact>
</mgrwt>
</event>
<event>
 6    4  0.6325740E-003  0.1269076E+03  0.7818608E-02  0.1232118E+00
          4   -1    0    0  502    0 -0.00000000000E+00  0.00000000000E+00  0.39599228963E+02  0.39619589025E+02  0.12700000000E+01 0.  1.
         21   -1    0    0  501  502  0.00000000000E+00 -0.00000000000E+00 -0.13959355647E+03  0.13959355647E+03  0.00000000000E+00 0.  1.
         25    2    1    2    0    0  0.18749431904E+02  0.11048152119E+02 -0.86251159102E+02  0.15344319323E+03  0.12502778987E+03 0.  0.
    9000005    1    3    3    0    0  0.46169440529E+02 -0.35599821435E+02 -0.79955793520E+02  0.98959049320E+02  0.10000000000E+01 0.  0.
    9000005    1    3    3    0    0 -0.27420008625E+02  0.46647973553E+02 -0.62953655820E+01  0.54484143909E+02  0.10000000000E+01 0.  0.
          4    1    1    2  501    0 -0.18749431904E+02 -0.11048152119E+02 -0.13743168403E+02  0.25769952264E+02  0.12700000000E+01 0. -1.
<mgrwt>
<rscale>  1 0.12690765E+03</rscale>
<asrwt>0</asrwt>
<pdfrwt beam="2">  1       21 0.21475932E-01 0.12690765E+03</pdfrwt>
<pdfrwt beam="1">  1        4 0.60941996E-02 0.12690765E+03</pdfrwt>
<totfact> 0.13956807E+05</totfact>
</mgrwt>
</event>
<event>
 6    4  0.6325740E-003  0.1427093E+03  0.7818608E-02  0.1209729E+00
         -4   -1    0    0    0  501 -0.00000000000E+00  0.00000000000E+00  0.18228612763E+03  0.18229055167E+03  0.12700000000E+01 0. -1.
         21   -1    0    0  501  502  0.00000000000E+00 -0.00000000000E+00 -0.14241335637E+03  0.14241335637E+03  0.00000000000E+00 0.  1.
         25    2    1    2    0    0  0.23215871436E+02 -0.64821798464E+02  0.14213487965E+03  0.20141565249E+03  0.12500039524E+03 0.  0.
    9000005    1    3    3    0    0  0.51141615703E+02  0.16502871808E+02  0.35433868284E+02  0.64376771091E+02  0.10000000000E+01 0.  0.
    9000005    1    3    3    0    0 -0.27925744267E+02 -0.81324670272E+02  0.10670101137E+03  0.13703888140E+03  0.10000000000E+01 0.  0.
         -4    1    1    2    0  502 -0.23215871436E+02  0.64821798464E+02 -0.10226210839E+03  0.12328825555E+03  0.12700000000E+01 0.  1.
<mgrwt>
<rscale>  1 0.14270929E+03</rscale>
<asrwt>0</asrwt>
<pdfrwt beam="2">  1       21 0.21909747E-01 0.14270929E+03</pdfrwt>
<pdfrwt beam="1">  1       -4 0.28044795E-01 0.14270929E+03</pdfrwt>
<totfact> 0.96809020E+03</totfact>
</mgrwt>
</event>
<event>
 6    4  0.6325740E-003  0.1273003E+03  0.7818608E-02  0.1231517E+00
         21   -1    0    0  501  502  0.00000000000E+00  0.00000000000E+00  0.37155616310E+02  0.37155616310E+02  0.00000000000E+00 0.  1.
          4   -1    0    0  502    0 -0.00000000000E+00 -0.00000000000E+00 -0.41319224937E+03  0.41319420112E+03  0.12700000000E+01 0. -1.
         25    2    1    2    0    0 -0.23126444771E+02 -0.65736274261E+01 -0.39793719348E+03  0.41780304383E+03  0.12500931348E+03 0.  0.
    9000005    1    3    3    0    0 -0.15431598520E+02 -0.91206214669E+01 -0.40595880364E+03  0.40635559578E+03  0.10000000000E+01 0.  0.
    9000005    1    3    3    0    0 -0.76948462519E+01  0.25469940408E+01  0.80216101567E+01  0.11447448056E+02  0.10000000000E+01 0.  0.
          4    1    1    2  501    0  0.23126444771E+02  0.65736274261E+01  0.21900560416E+02  0.32546773601E+02  0.12700000000E+01 0.  1.
<mgrwt>
<rscale>  1 0.12730033E+03</rscale>
<asrwt>0</asrwt>
<pdfrwt beam="1">  1       21 0.57162483E-02 0.12730033E+03</pdfrwt>
<pdfrwt beam="2">  1        4 0.63569862E-01 0.12730033E+03</pdfrwt>
<totfact> 0.20300683E+04</totfact>
</mgrwt>
</event>
<event>
 6    4  0.6325740E-003  0.1319916E+03  0.7818608E-02  0.1224530E+00
         -4   -1    0    0    0  501 -0.00000000000E+00  0.00000000000E+00  0.14202489495E+03  0.14203057306E+03  0.12700000000E+01 0. -1.
         21   -1    0    0  501  502  0.00000000000E+00 -0.00000000000E+00 -0.88476245501E+02  0.88476245501E+02  0.00000000000E+00 0.  1.
         25    2    1    2    0    0 -0.33746697643E+02 -0.25611114675E+02  0.10150271822E+03  0.16650701850E+03  0.12500806616E+03 0.  0.
    9000005    1    3    3    0    0  0.31974109007E+02 -0.37333738048E+02  0.53605445245E+01  0.49455910476E+02  0.10000000000E+01 0.  0.
    9000005    1    3    3    0    0 -0.65720806651E+02  0.11722623373E+02  0.96142173696E+02  0.11705110802E+03  0.10000000000E+01 0.  0.
         -4    1    1    2    0  502  0.33746697643E+02  0.25611114675E+02 -0.47954068775E+02  0.63999800069E+02  0.12700000000E+01 0.  1.
<mgrwt>
<rscale>  1 0.13199161E+03</rscale>
<asrwt>0</asrwt>
<pdfrwt beam="2">  1       21 0.13611730E-01 0.13199161E+03</pdfrwt>
<pdfrwt beam="1">  1       -4 0.21851122E-01 0.13199161E+03</pdfrwt>
<totfact> 0.36353316E+04</totfact>
</mgrwt>
</event>
<event>
 6    4  0.6325740E-003  0.1316916E+03  0.7818608E-02  0.1224967E+00
         21   -1    0    0  501  502  0.00000000000E+00  0.00000000000E+00  0.30974454482E+02  0.30974454482E+02  0.00000000000E+00 0. -1.
          4   -1    0    0  502    0 -0.00000000000E+00 -0.00000000000E+00 -0.55109900099E+03  0.55110046434E+03  0.12700000000E+01 0.  1.
         25    2    1    2    0    0 -0.33795828500E+02 -0.23987129814E+02 -0.52412827179E+03  0.54041938933E+03  0.12500052262E+03 0.  0.
    9000005    1    3    3    0    0  0.24919156220E+02 -0.11021132501E+02 -0.41436680189E+03  0.41526290012E+03  0.10000000000E+01 0.  0.
    9000005    1    3    3    0    0 -0.58714984720E+02 -0.12965997313E+02 -0.10976146990E+03  0.12515648921E+03  0.10000000000E+01 0.  0.
          4    1    1    2  501    0  0.33795828500E+02  0.23987129814E+02  0.40037252826E+01  0.41655529487E+02  0.12700000000E+01 0. -1.
<mgrwt>
<rscale>  1 0.13169158E+03</rscale>
<asrwt>0</asrwt>
<pdfrwt beam="1">  1       21 0.47653010E-02 0.13169158E+03</pdfrwt>
<pdfrwt beam="2">  1        4 0.84786572E-01 0.13169158E+03</pdfrwt>
<totfact> 0.14796805E+04</totfact>
</mgrwt>
</event>
<event>
 6    4  0.6325740E-003  0.1336526E+03  0.7818608E-02  0.1222134E+00
         -4   -1    0    0    0  501 -0.00000000000E+00  0.00000000000E+00  0.36317811161E+03  0.36318033214E+03  0.12700000000E+01 0. -1.
         21   -1    0    0  501  502  0.00000000000E+00 -0.00000000000E+00 -0.35505332141E+02  0.35505332141E+02  0.00000000000E+00 0.  1.
         25    2    1    2    0    0 -0.35291119704E+01  0.47131058082E+02  0.32490949603E+03  0.35132492207E+03  0.12501691481E+03 0.  0.
    9000005    1    3    3    0    0  0.35238353375E+02  0.76730356840E+02  0.21916148291E+03  0.23486601457E+03  0.10000000000E+01 0.  0.
    9000005    1    3    3    0    0 -0.38767465346E+02 -0.29599298759E+02  0.10574801312E+03  0.11645890750E+03  0.10000000000E+01 0.  0.
         -4    1    1    2    0  502  0.35291119704E+01 -0.47131058082E+02  0.27632834344E+01  0.47360742208E+02  0.12700000000E+01 0.  1.
<mgrwt>
<rscale>  1 0.13365261E+03</rscale>
<asrwt>0</asrwt>
<pdfrwt beam="2">  1       21 0.54623590E-02 0.13365261E+03</pdfrwt>
<pdfrwt beam="1">  1       -4 0.55875471E-01 0.13365261E+03</pdfrwt>
<totfact> 0.28887324E+04</totfact>
</mgrwt>
</event>
<event>
 6    4  0.6325740E-003  0.1445124E+03  0.7818608E-02  0.1207383E+00
         21   -1    0    0  501  502  0.00000000000E+00  0.00000000000E+00  0.16784403072E+03  0.16784403072E+03  0.00000000000E+00 0. -1.
          4   -1    0    0  502    0 -0.00000000000E+00 -0.00000000000E+00 -0.24657274908E+03  0.24657601970E+03  0.12700000000E+01 0.  1.
         25    2    1    2    0    0  0.31571337148E+02 -0.65272221468E+02 -0.21558412328E+03  0.25953871850E+03  0.12500647969E+03 0.  0.
    9000005    1    3    3    0    0 -0.37947729512E+02  0.18474324589E+00 -0.11383940055E+03  0.12000197258E+03  0.10000000000E+01 0.  0.
    9000005    1    3    3    0    0  0.69519066659E+02 -0.65456964713E+02 -0.10174472272E+03  0.13953674592E+03  0.10000000000E+01 0.  0.
          4    1    1    2  501    0 -0.31571337148E+02  0.65272221468E+02  0.13685540492E+03  0.15488133193E+03  0.12700000000E+01 0. -1.
<mgrwt>
<rscale>  1 0.14451239E+03</rscale>
<asrwt>0</asrwt>
<pdfrwt beam="1">  1       21 0.25822159E-01 0.14451239E+03</pdfrwt>
<pdfrwt beam="2">  1        4 0.37934890E-01 0.14451239E+03</pdfrwt>
<totfact> 0.39869685E+03</totfact>
</mgrwt>
</event>
<event>
 6    4  0.6325740E-003  0.1366858E+03  0.7818608E-02  0.1217859E+00
         21   -1    0    0  501  502  0.00000000000E+00  0.00000000000E+00  0.87338984885E+01  0.87338984885E+01  0.00000000000E+00 0. -1.
         -4   -1    0    0    0  501 -0.00000000000E+00 -0.00000000000E+00 -0.10567783972E+04  0.10567791603E+04  0.12700000000E+01 0. -1.
         25    2    1    2    0    0 -0.44864869247E+02  0.32326171217E+02 -0.76481881047E+03  0.77693682760E+03  0.12500073359E+03 0.  0.
    9000005    1    3    3    0    0 -0.25264590706E+02  0.71537067840E+02 -0.64310944850E+03  0.64756977568E+03  0.10000000000E+01 0.  0.
    9000005    1    3    3    0    0 -0.19600278541E+02 -0.39210896623E+02 -0.12170936197E+03  0.12936705193E+03  0.10000000000E+01 0.  0.
         -4    1    1    2    0  502  0.44864869247E+02 -0.32326171217E+02 -0.28322568823E+03  0.28857623120E+03  0.12700000000E+01 0.  1.
<mgrwt>
<rscale>  1 0.13668585E+03</rscale>
<asrwt>0</asrwt>
<pdfrwt beam="1">  1       21 0.13436779E-02 0.13668585E+03</pdfrwt>
<pdfrwt beam="2">  1       -4 0.16258830E+00 0.13668585E+03</pdfrwt>
<totfact> 0.24535676E+04</totfact>
</mgrwt>
</event>
<event>
 6    4  0.6325740E-003  0.1309536E+03  0.7818608E-02  0.1226048E+00
          4   -1    0    0  502    0 -0.00000000000E+00  0.00000000000E+00  0.57850130379E+02  0.57864069032E+02  0.12700000000E+01 0.  1.
         21   -1    0    0  501  502  0.00000000000E+00 -0.00000000000E+00 -0.13116612593E+03  0.13116612593E+03  0.00000000000E+00 0. -1.
         25    2    1    2    0    0  0.39000681499E+02  0.18231843941E+01 -0.37966108127E+02  0.13634618791E+03  0.12499792171E+03 0.  0.
    9000005    1    3    3    0    0  0.32951933494E+02 -0.34754468871E+02  0.31686655827E+02  0.57434721076E+02  0.10000000000E+01 0.  0.
    9000005    1    3    3    0    0  0.60487480044E+01  0.36577653266E+02 -0.69652763954E+02  0.78911466830E+02  0.10000000000E+01 0.  0.
          4    1    1    2  501    0 -0.39000681499E+02 -0.18231843941E+01 -0.35349887426E+02  0.52684007059E+02  0.12700000000E+01 0. -1.
<mgrwt>
<rscale>  1 0.13095365E+03</rscale>
<asrwt>0</asrwt>
<pdfrwt beam="2">  1       21 0.20179404E-01 0.13095365E+03</pdfrwt>
<pdfrwt beam="1">  1        4 0.89015652E-02 0.13095365E+03</pdfrwt>
<totfact> 0.84344469E+04</totfact>
</mgrwt>
</event>
<event>
 6    4  0.6325740E-003  0.1282471E+03  0.7818608E-02  0.1230080E+00
         -4   -1    0    0    0  501 -0.00000000000E+00  0.00000000000E+00  0.68764891399E+02  0.68776618041E+02  0.12700000000E+01 0.  1.
         21   -1    0    0  501  502  0.00000000000E+00 -0.00000000000E+00 -0.91442690372E+02  0.91442690372E+02  0.00000000000E+00 0.  1.
         25    2    1    2    0    0  0.10842405600E+02 -0.26571863915E+02 -0.27306260878E+02  0.13112193275E+03  0.12499483050E+03 0.  0.
    9000005    1    3    3    0    0 -0.54860059524E+02  0.54028301137E+01 -0.13280974190E+02  0.56711559489E+02  0.10000000000E+01 0.  0.
    9000005    1    3    3    0    0  0.65702465124E+02 -0.31974694028E+02 -0.14025286688E+02  0.74410373257E+02  0.10000000000E+01 0.  0.
         -4    1    1    2    0  502 -0.10842405600E+02  0.26571863915E+02  0.46284619058E+01  0.29097375667E+02  0.12700000000E+01 0. -1.
<mgrwt>
<rscale>  1 0.12824714E+03</rscale>
<asrwt>0</asrwt>
<pdfrwt beam="2">  1       21 0.14068106E-01 0.12824714E+03</pdfrwt>
<pdfrwt beam="1">  1       -4 0.10580794E-01 0.12824714E+03</pdfrwt>
<totfact> 0.12135305E+05</totfact>
</mgrwt>
</event>
<event>
 6    4  0.6325740E-003  0.1274226E+03  0.7818608E-02  0.1231331E+00
          4   -1    0    0  502    0 -0.00000000000E+00  0.00000000000E+00  0.67596207191E+03  0.67596326495E+03  0.12700000000E+01 0.  1.
         21   -1    0    0  501  502  0.00000000000E+00 -0.00000000000E+00 -0.85658700974E+01  0.85658700974E+01  0.00000000000E+00 0.  1.
         25    2    1    2    0    0 -0.20940016393E+01 -0.24637249249E+02  0.55575913582E+03  0.57017955570E+03  0.12500051919E+03 0.  0.
    9000005    1    3    3    0    0 -0.42056115605E+02  0.15063136629E+02  0.43075057083E+03  0.43306196925E+03  0.10000000000E+01 0.  0.
    9000005    1    3    3    0    0  0.39962113965E+02 -0.39700385878E+02  0.12500856499E+03  0.13711758644E+03  0.10000000000E+01 0.  0.
          4    1    1    2  501    0  0.20940016393E+01  0.24637249249E+02  0.11163706600E+03  0.11434957935E+03  0.12700000000E+01 0. -1.
<mgrwt>
<rscale>  1 0.12742256E+03</rscale>
<asrwt>0</asrwt>
<pdfrwt beam="2">  1       21 0.13178267E-02 0.12742256E+03</pdfrwt>
<pdfrwt beam="1">  1        4 0.10400146E+00 0.12742256E+03</pdfrwt>
<totfact> 0.75143139E+04</totfact>
</mgrwt>
</event>
<event>
 6    4  0.6325740E-003  0.1486710E+03  0.7818608E-02  0.1202116E+00
          4   -1    0    0  502    0 -0.00000000000E+00  0.00000000000E+00  0.26198037647E+03  0.26198345473E+03  0.12700000000E+01 0. -1.
         21   -1    0    0  501  502  0.00000000000E+00 -0.00000000000E+00 -0.50892950559E+02  0.50892950559E+02  0.00000000000E+00 0.  1.
         25    2    1    2    0    0 -0.35640149797E+01 -0.80406844399E+02  0.11796996323E+03  0.18978929148E+03  0.12500040044E+03 0.  0.
    9000005    1    3    3    0    0 -0.45646412903E+02 -0.18377639337E+02  0.10184086788E+03  0.11311010127E+03  0.10000000000E+01 0.  0.
    9000005    1    3    3    0    0  0.42082397923E+02 -0.62029205062E+02  0.16129095348E+02  0.76679190217E+02  0.10000000000E+01 0.  0.
          4    1    1    2  501    0  0.35640149797E+01  0.80406844399E+02  0.93117462681E+02  0.12308711381E+03  0.12700000000E+01 0.  1.
<mgrwt>
<rscale>  1 0.14867099E+03</rscale>
<asrwt>0</asrwt>
<pdfrwt beam="2">  1       21 0.78296849E-02 0.14867099E+03</pdfrwt>
<pdfrwt beam="1">  1        4 0.40306128E-01 0.14867099E+03</pdfrwt>
<totfact> 0.30595042E+04</totfact>
</mgrwt>
</event>
<event>
 6    4  0.6325740E-003  0.1344973E+03  0.7818608E-02  0.1220931E+00
          4   -1    0    0  502    0 -0.00000000000E+00  0.00000000000E+00  0.21620341192E+02  0.21657609592E+02  0.12700000000E+01 0.  1.
         21   -1    0    0  501  502  0.00000000000E+00 -0.00000000000E+00 -0.49657028953E+03  0.49657028953E+03  0.00000000000E+00 0. -1.
         25    2    1    2    0    0 -0.75232007392E+01 -0.49067736090E+02 -0.21519042378E+03  0.25376454670E+03  0.12500114160E+03 0.  0.
    9000005    1    3    3    0    0 -0.45181787066E+02  0.24818116984E+02 -0.83297182107E+02  0.97963020370E+02  0.10000000000E+01 0.  0.
    9000005    1    3    3    0    0  0.37658586326E+02 -0.73885853074E+02 -0.13189324168E+03  0.15580152633E+03  0.10000000000E+01 0.  0.
          4    1    1    2  501    0  0.75232007392E+01  0.49067736090E+02 -0.25975952455E+03  0.26446335241E+03  0.12700000000E+01 0. -1.
<mgrwt>
<rscale>  1 0.13449731E+03</rscale>
<asrwt>0</asrwt>
<pdfrwt beam="2">  1       21 0.76395428E-01 0.13449731E+03</pdfrwt>
<pdfrwt beam="1">  1        4 0.33291981E-02 0.13449731E+03</pdfrwt>
<totfact> 0.28629428E+04</totfact>
</mgrwt>
</event>
<event>
 6    4  0.6325740E-003  0.1309474E+03  0.7818608E-02  0.1226057E+00
         21   -1    0    0  501  502  0.00000000000E+00  0.00000000000E+00  0.40828286616E+02  0.40828286616E+02  0.00000000000E+00 0.  1.
          4   -1    0    0  502    0 -0.00000000000E+00 -0.00000000000E+00 -0.17880786862E+03  0.17881237871E+03  0.12700000000E+01 0.  1.
         25    2    1    2    0    0  0.26028778167E+02 -0.29064961976E+02 -0.11542102590E+03  0.17455440733E+03  0.12499983435E+03 0.  0.
    9000005    1    3    3    0    0  0.51585807479E+02 -0.67343020319E+02 -0.77613829257E+02  0.11498297444E+03  0.10000000000E+01 0.  0.
    9000005    1    3    3    0    0 -0.25557029312E+02  0.38278058343E+02 -0.37807196647E+02  0.59571432886E+02  0.10000000000E+01 0.  0.
          4    1    1    2  501    0 -0.26028778167E+02  0.29064961976E+02 -0.22558556102E+02  0.45086258006E+02  0.12700000000E+01 0. -1.
<mgrwt>
<rscale>  1 0.13094742E+03</rscale>
<asrwt>0</asrwt>
<pdfrwt beam="1">  1       21 0.62812749E-02 0.13094742E+03</pdfrwt>
<pdfrwt beam="2">  1        4 0.27510769E-01 0.13094742E+03</pdfrwt>
<totfact> 0.91444819E+04</totfact>
</mgrwt>
</event>
<event>
 6    4  0.6325740E-003  0.1298695E+03  0.7818608E-02  0.1227649E+00
         21   -1    0    0  501  502  0.00000000000E+00  0.00000000000E+00  0.61682158090E+02  0.61682158090E+02  0.00000000000E+00 0. -1.
         -4   -1    0    0    0  501 -0.00000000000E+00 -0.00000000000E+00 -0.57196656793E+03  0.57196797789E+03  0.12700000000E+01 0.  1.
         25    2    1    2    0    0  0.17885018511E+02  0.30339588946E+02 -0.55879593526E+03  0.57368893567E+03  0.12500293239E+03 0.  0.
    9000005    1    3    3    0    0 -0.41690404356E+02 -0.24910538104E+02 -0.21563492454E+03  0.22103856090E+03  0.10000000000E+01 0.  0.
    9000005    1    3    3    0    0  0.59575422867E+02  0.55250127049E+02 -0.34316101071E+03  0.35265037477E+03  0.10000000000E+01 0.  0.
         -4    1    1    2    0  502 -0.17885018511E+02 -0.30339588946E+02  0.48511525415E+02  0.59961200310E+02  0.12700000000E+01 0. -1.
<mgrwt>
<rscale>  1 0.12986954E+03</rscale>
<asrwt>0</asrwt>
<pdfrwt beam="1">  1       21 0.94895627E-02 0.12986954E+03</pdfrwt>
<pdfrwt beam="2">  1       -4 0.87995971E-01 0.12986954E+03</pdfrwt>
<totfact> 0.41928357E+03</totfact>
</mgrwt>
</event>
<event>
 6    4  0.6325740E-003  0.1351307E+03  0.7818608E-02  0.1220035E+00
          4   -1    0    0  502    0 -0.00000000000E+00  0.00000000000E+00  0.21956458606E+03  0.21956825899E+03  0.12700000000E+01 0.  1.
         21   -1    0    0  501  502  0.00000000000E+00 -0.00000000000E+00 -0.18473936855E+03  0.18473936855E+03  0.00000000000E+00 0. -1.
         25    2    1    2    0    0 -0.23018532512E+02 -0.45878274014E+02  0.19435689271E+03  0.23671694416E+03  0.12500256414E+03 0.  0.
    9000005    1    3    3    0    0 -0.74083379567E+02 -0.18606395837E+02  0.12344828186E+03  0.14517239197E+03  0.10000000000E+01 0.  0.
    9000005    1    3    3    0    0  0.51064847055E+02 -0.27271878177E+02  0.70908610843E+02  0.91544552190E+02  0.10000000000E+01 0.  0.
          4    1    1    2  501    0  0.23018532512E+02  0.45878274014E+02 -0.15953167519E+03  0.16759068337E+03  0.12700000000E+01 0. -1.
<mgrwt>
<rscale>  1 0.13513071E+03</rscale>
<asrwt>0</asrwt>
<pdfrwt beam="2">  1       21 0.28421441E-01 0.13513071E+03</pdfrwt>
<pdfrwt beam="1">  1        4 0.33779785E-01 0.13513071E+03</pdfrwt>
<totfact> 0.41398673E+03</totfact>
</mgrwt>
</event>
<event>
 6    4  0.6325740E-003  0.1270627E+03  0.7818608E-02  0.1231880E+00
         21   -1    0    0  501  502  0.00000000000E+00  0.00000000000E+00  0.12532606212E+03  0.12532606212E+03  0.00000000000E+00 0.  1.
          4   -1    0    0  502    0 -0.00000000000E+00 -0.00000000000E+00 -0.50524379235E+02  0.50540338316E+02  0.12700000000E+01 0.  1.
         25    2    1    2    0    0 -0.78066123291E+01  0.21417193835E+02  0.82816993076E+02  0.15166934513E+03  0.12500118609E+03 0.  0.
    9000005    1    3    3    0    0 -0.27589976127E+02 -0.78683200513E+01  0.10571692970E+03  0.10954536260E+03  0.10000000000E+01 0.  0.
    9000005    1    3    3    0    0  0.19783363798E+02  0.29285513886E+02 -0.22899936623E+02  0.42123982529E+02  0.10000000000E+01 0.  0.
          4    1    1    2  501    0  0.78066123291E+01 -0.21417193835E+02 -0.80153101921E+01  0.24197055302E+02  0.12700000000E+01 0. -1.
<mgrwt>
<rscale>  1 0.12706272E+03</rscale>
<asrwt>0</asrwt>
<pdfrwt beam="1">  1       21 0.19280933E-01 0.12706272E+03</pdfrwt>
<pdfrwt beam="2">  1        4 0.77747041E-02 0.12706272E+03</pdfrwt>
<totfact> 0.11437822E+05</totfact>
</mgrwt>
</event>
<event>
 6    4  0.6325740E-003  0.1340307E+03  0.7818608E-02  0.1221594E+00
          4   -1    0    0  502    0 -0.00000000000E+00  0.00000000000E+00  0.52433018287E+02  0.52448396607E+02  0.12700000000E+01 0.  1.
         21   -1    0    0  501  502  0.00000000000E+00 -0.00000000000E+00 -0.17745975580E+03  0.17745975580E+03  0.00000000000E+00 0.  1.
         25    2    1    2    0    0 -0.11893433933E+02 -0.46878058548E+02 -0.12231377710E+03  0.18145220129E+03  0.12500094057E+03 0.  0.
    9000005    1    3    3    0    0 -0.48979818000E+02 -0.70369937210E+02 -0.57777955547E+02  0.10339363027E+03  0.10000000000E+01 0.  0.
    9000005    1    3    3    0    0  0.37086384067E+02  0.23491878662E+02 -0.64535821552E+02  0.78058571019E+02  0.10000000000E+01 0.  0.
          4    1    1    2  501    0  0.11893433933E+02  0.46878058548E+02 -0.27129604128E+01  0.48455951112E+02  0.12700000000E+01 0. -1.
<mgrwt>
<rscale>  1 0.13403075E+03</rscale>
<asrwt>0</asrwt>
<pdfrwt beam="2">  1       21 0.27301501E-01 0.13403075E+03</pdfrwt>
<pdfrwt beam="1">  1        4 0.80681506E-02 0.13403075E+03</pdfrwt>
<totfact> 0.56435430E+04</totfact>
</mgrwt>
</event>
<event>
 6    4  0.6325740E-003  0.1334441E+03  0.7818608E-02  0.1222433E+00
         21   -1    0    0  501  502  0.00000000000E+00  0.00000000000E+00  0.36242525418E+02  0.36242525418E+02  0.00000000000E+00 0.  1.
         -4   -1    0    0    0  501 -0.00000000000E+00 -0.00000000000E+00 -0.39097985541E+03  0.39098191805E+03  0.12700000000E+01 0. -1.
         25    2    1    2    0    0  0.24152703216E+02  0.39987042306E+02 -0.35629620033E+03  0.38046591909E+03  0.12500006637E+03 0.  0.
    9000005    1    3    3    0    0  0.60370172812E+02  0.59243729242E+02 -0.29355434666E+03  0.30549882432E+03  0.10000000000E+01 0.  0.
    9000005    1    3    3    0    0 -0.36217469596E+02 -0.19256686936E+02 -0.62741853677E+02  0.74967094771E+02  0.10000000000E+01 0.  0.
         -4    1    1    2    0  502 -0.24152703216E+02 -0.39987042306E+02  0.15588703351E+01  0.46758524375E+02  0.12700000000E+01 0.  1.
<mgrwt>
<rscale>  1 0.13344412E+03</rscale>
<asrwt>0</asrwt>
<pdfrwt beam="1">  1       21 0.55757731E-02 0.13344412E+03</pdfrwt>
<pdfrwt beam="2">  1       -4 0.60152618E-01 0.13344412E+03</pdfrwt>
<totfact> 0.23916907E+04</totfact>
</mgrwt>
</event>
<event>
 6    4  0.6325740E-003  0.1278826E+03  0.7818608E-02  0.1230632E+00
         21   -1    0    0  501  502  0.00000000000E+00  0.00000000000E+00  0.47670780129E+02  0.47670780129E+02  0.00000000000E+00 0. -1.
          4   -1    0    0  502    0 -0.00000000000E+00 -0.00000000000E+00 -0.18281755944E+03  0.18282197061E+03  0.12700000000E+01 0. -1.
         25    2    1    2    0    0 -0.48283848629E+01  0.26567821786E+02 -0.15199724735E+03  0.19863818077E+03  0.12499920481E+03 0.  0.
    9000005    1    3    3    0    0  0.52482440615E+02 -0.15539197317E+02 -0.48998625254E+02  0.73469303134E+02  0.10000000000E+01 0.  0.
    9000005    1    3    3    0    0 -0.57310825478E+02  0.42107019103E+02 -0.10299862210E+03  0.12516887763E+03  0.10000000000E+01 0.  0.
          4    1    1    2  501    0  0.48283848629E+01 -0.26567821786E+02  0.16850468043E+02  0.31854569972E+02  0.12700000000E+01 0.  1.
<mgrwt>
<rscale>  1 0.12788262E+03</rscale>
<asrwt>0</asrwt>
<pdfrwt beam="1">  1       21 0.73339663E-02 0.12788262E+03</pdfrwt>
<pdfrwt beam="2">  1        4 0.28127418E-01 0.12788262E+03</pdfrwt>
<totfact> 0.67110563E+04</totfact>
</mgrwt>
</event>
<event>
 6    4  0.6325740E-003  0.1281219E+03  0.7818608E-02  0.1230269E+00
         -4   -1    0    0    0  501 -0.00000000000E+00  0.00000000000E+00  0.17475736636E+04  0.17475741251E+04  0.12700000000E+01 0.  1.
         21   -1    0    0  501  502  0.00000000000E+00 -0.00000000000E+00 -0.35087577722E+01  0.35087577722E+01  0.00000000000E+00 0.  1.
         25    2    1    2    0    0  0.25089434012E+02 -0.12669005479E+02  0.13818275659E+04  0.13877545372E+04  0.12500100109E+03 0.  0.
    9000005    1    3    3    0    0  0.37492253401E+02 -0.35451237816E+02  0.23357455698E+03  0.23920813739E+03  0.10000000000E+01 0.  0.
    9000005    1    3    3    0    0 -0.12402819390E+02  0.22782232337E+02  0.11482530089E+04  0.11485463998E+04  0.10000000000E+01 0.  0.
         -4    1    1    2    0  502 -0.25089434012E+02  0.12669005479E+02  0.36223734001E+03  0.36332834571E+03  0.12700000000E+01 0. -1.
<mgrwt>
<rscale>  1 0.12812195E+03</rscale>
<asrwt>0</asrwt>
<pdfrwt beam="2">  1       21 0.53981029E-03 0.12812195E+03</pdfrwt>
<pdfrwt beam="1">  1       -4 0.26887451E+00 0.12812195E+03</pdfrwt>
<totfact> 0.22819114E+04</totfact>
</mgrwt>
</event>
<event>
 6    4  0.6325740E-003  0.1266536E+03  0.7818608E-02  0.1232507E+00
         21   -1    0    0  501  502  0.00000000000E+00  0.00000000000E+00  0.14032093275E+02  0.14032093275E+02  0.00000000000E+00 0.  1.
          4   -1    0    0  502    0 -0.00000000000E+00 -0.00000000000E+00 -0.43447301127E+03  0.43447486743E+03  0.12700000000E+01 0.  1.
         25    2    1    2    0    0  0.16976583206E+02  0.11233915302E+02 -0.40023406730E+03  0.41979572691E+03  0.12500695372E+03 0.  0.
    9000005    1    3    3    0    0  0.68676235766E+02  0.11628367260E+02 -0.28667418838E+03  0.29501649881E+03  0.10000000000E+01 0.  0.
    9000005    1    3    3    0    0 -0.51699652560E+02 -0.39445195793E+00 -0.11355987892E+03  0.12477922811E+03  0.10000000000E+01 0.  0.
          4    1    1    2  501    0 -0.16976583206E+02 -0.11233915302E+02 -0.20206850699E+02  0.28711233787E+02  0.12700000000E+01 0. -1.
<mgrwt>
<rscale>  1 0.12665364E+03</rscale>
<asrwt>0</asrwt>
<pdfrwt beam="1">  1       21 0.21587835E-02 0.12665364E+03</pdfrwt>
<pdfrwt beam="2">  1        4 0.66846568E-01 0.12665364E+03</pdfrwt>
<totfact> 0.91066480E+04</totfact>
</mgrwt>
</event>
<event>
 6    4  0.6325740E-003  0.1279217E+03  0.7818608E-02  0.1230572E+00
         -4   -1    0    0    0  501 -0.00000000000E+00  0.00000000000E+00  0.15294248310E+03  0.15294775591E+03  0.12700000000E+01 0.  1.
         21   -1    0    0  501  502  0.00000000000E+00 -0.00000000000E+00 -0.47896700056E+02  0.47896700056E+02  0.00000000000E+00 0. -1.
         25    2    1    2    0    0  0.25244472453E+02 -0.10047951291E+02  0.11486680954E+03  0.17192542805E+03  0.12500289661E+03 0.  0.
    9000005    1    3    3    0    0  0.69209890450E+02  0.19779865127E+02  0.83390228676E+02  0.11016434196E+03  0.10000000000E+01 0.  0.
    9000005    1    3    3    0    0 -0.43965417997E+02 -0.29827816419E+02  0.31476580861E+02  0.61761086087E+02  0.10000000000E+01 0.  0.
         -4    1    1    2    0  502 -0.25244472453E+02  0.10047951291E+02 -0.98210264891E+01  0.28919027921E+02  0.12700000000E+01 0. -1.
<mgrwt>
<rscale>  1 0.12792173E+03</rscale>
<asrwt>0</asrwt>
<pdfrwt beam="2">  1       21 0.73687232E-02 0.12792173E+03</pdfrwt>
<pdfrwt beam="1">  1       -4 0.23531313E-01 0.12792173E+03</pdfrwt>
<totfact> 0.92614027E+04</totfact>
</mgrwt>
</event>
<event>
 6    4  0.6325740E-003  0.1285929E+03  0.7818608E-02  0.1229559E+00
         21   -1    0    0  501  502  0.00000000000E+00  0.00000000000E+00  0.11135780107E+02  0.11135780107E+02  0.00000000000E+00 0.  1.
          4   -1    0    0  502    0 -0.00000000000E+00 -0.00000000000E+00 -0.57261167062E+03  0.57261307899E+03  0.12700000000E+01 0.  1.
         25    2    1    2    0    0  0.28662684590E+02  0.94601655531E+01 -0.42821308390E+03  0.44710467610E+03  0.12500040779E+03 0.  0.
    9000005    1    3    3    0    0 -0.24387140220E+02 -0.45003041303E+02 -0.14135898142E+03  0.15034416504E+03  0.10000000000E+01 0.  0.
    9000005    1    3    3    0    0  0.53049824810E+02  0.54463206856E+02 -0.28685410249E+03  0.29676051106E+03  0.10000000000E+01 0.  0.
          4    1    1    2  501    0 -0.28662684590E+02 -0.94601655531E+01 -0.13326280661E+03  0.13664418299E+03  0.12700000000E+01 0. -1.
<mgrwt>
<rscale>  1 0.12859295E+03</rscale>
<asrwt>0</asrwt>
<pdfrwt beam="1">  1       21 0.17131963E-02 0.12859295E+03</pdfrwt>
<pdfrwt beam="2">  1        4 0.88099817E-01 0.12859295E+03</pdfrwt>
<totfact> 0.72332650E+04</totfact>
</mgrwt>
</event>
<event>
 6    4  0.6325740E-003  0.1295710E+03  0.7818608E-02  0.1228094E+00
         21   -1    0    0  501  502  0.00000000000E+00  0.00000000000E+00  0.10548261287E+02  0.10548261287E+02  0.00000000000E+00 0.  1.
          4   -1    0    0  502    0 -0.00000000000E+00 -0.00000000000E+00 -0.64242599925E+03  0.64242725457E+03  0.12700000000E+01 0.  1.
         25    2    1    2    0    0 -0.21033179476E+02  0.26866123914E+02 -0.52624641421E+03  0.54196302687E+03  0.12499780307E+03 0.  0.
    9000005    1    3    3    0    0  0.16746674586E+02  0.11943445275E+02 -0.79476922196E+01  0.22074030134E+02  0.10000000000E+01 0.  0.
    9000005    1    3    3    0    0 -0.37779854062E+02  0.14922678638E+02 -0.51829872199E+03  0.51988899674E+03  0.10000000000E+01 0.  0.
          4    1    1    2  501    0  0.21033179476E+02 -0.26866123914E+02 -0.10563132375E+03  0.11101248898E+03  0.12700000000E+01 0. -1.
<mgrwt>
<rscale>  1 0.12957096E+03</rscale>
<asrwt>0</asrwt>
<pdfrwt beam="1">  1       21 0.16228096E-02 0.12957096E+03</pdfrwt>
<pdfrwt beam="2">  1        4 0.98840739E-01 0.12957096E+03</pdfrwt>
<totfact> 0.60804748E+04</totfact>
</mgrwt>
</event>
<event>
 6    4  0.6325740E-003  0.2035683E+03  0.7818608E-02  0.1146763E+00
         -4   -1    0    0    0  501 -0.00000000000E+00  0.00000000000E+00  0.17119044561E+04  0.17119049272E+04  0.12700000000E+01 0.  1.
         21   -1    0    0  501  502  0.00000000000E+00 -0.00000000000E+00 -0.51085370442E+02  0.51085370442E+02  0.00000000000E+00 0. -1.
         25    2    1    2    0    0  0.15899742948E+03 -0.23109634430E+02  0.15601725649E+04  0.15733971205E+04  0.12500331430E+03 0.  0.
    9000005    1    3    3    0    0  0.16612085476E+03  0.85530640306E+01  0.11537749205E+04  0.11657044482E+04  0.10000000000E+01 0.  0.
    9000005    1    3    3    0    0 -0.71234252841E+01 -0.31662698460E+02  0.40639764443E+03  0.40769267232E+03  0.10000000000E+01 0.  0.
         -4    1    1    2    0  502 -0.15899742948E+03  0.23109634430E+02  0.10064652072E+03  0.18959317714E+03  0.12700000000E+01 0. -1.
<mgrwt>
<rscale>  1 0.20356833E+03</rscale>
<asrwt>0</asrwt>
<pdfrwt beam="2">  1       21 0.78592891E-02 0.20356833E+03</pdfrwt>
<pdfrwt beam="1">  1       -4 0.26337112E+00 0.20356833E+03</pdfrwt>
<totfact> 0.31483906E+02</totfact>
</mgrwt>
</event>
<event>
 6    4  0.6325740E-003  0.1325286E+03  0.7818608E-02  0.1223751E+00
         21   -1    0    0  501  502  0.00000000000E+00  0.00000000000E+00  0.18181257445E+03  0.18181257445E+03  0.00000000000E+00 0.  1.
          4   -1    0    0  502    0 -0.00000000000E+00 -0.00000000000E+00 -0.57719159754E+02  0.57733130027E+02  0.12700000000E+01 0. -1.
         25    2    1    2    0    0 -0.15477813608E+02 -0.41233077998E+02  0.30343276932E+02  0.13595791241E+03  0.12499644017E+03 0.  0.
    9000005    1    3    3    0    0 -0.55567099326E+02 -0.57081590669E+02  0.43635971801E+02  0.90835612817E+02  0.10000000000E+01 0.  0.
    9000005    1    3    3    0    0  0.40089285719E+02  0.15848512670E+02 -0.13292694869E+02  0.45122299589E+02  0.10000000000E+01 0.  0.
          4    1    1    2  501    0  0.15477813608E+02  0.41233077998E+02  0.93750137761E+02  0.10358779207E+03  0.12700000000E+01 0.  1.
<mgrwt>
<rscale>  1 0.13252864E+03</rscale>
<asrwt>0</asrwt>
<pdfrwt beam="1">  1       21 0.27971165E-01 0.13252864E+03</pdfrwt>
<pdfrwt beam="2">  1        4 0.88812866E-02 0.13252864E+03</pdfrwt>
<totfact> 0.45870520E+04</totfact>
</mgrwt>
</event>
<event>
 6    4  0.6325740E-003  0.1303625E+03  0.7818608E-02  0.1226919E+00
         21   -1    0    0  501  502  0.00000000000E+00  0.00000000000E+00  0.30717030242E+03  0.30717030242E+03  0.00000000000E+00 0.  1.
          4   -1    0    0  502    0 -0.00000000000E+00 -0.00000000000E+00 -0.30740682778E+02  0.30766905559E+02  0.12700000000E+01 0. -1.
         25    2    1    2    0    0 -0.18267368192E+02 -0.32192272906E+02  0.12000504190E+03  0.17718802261E+03  0.12499738437E+03 0.  0.
    9000005    1    3    3    0    0 -0.72179008380E+02 -0.22099776162E+02  0.70691906227E+02  0.10342415077E+03  0.10000000000E+01 0.  0.
    9000005    1    3    3    0    0  0.53911640188E+02 -0.10092496744E+02  0.49313135673E+02  0.73763871836E+02  0.10000000000E+01 0.  0.
          4    1    1    2  501    0  0.18267368192E+02  0.32192272906E+02  0.15642457774E+03  0.16074918537E+03  0.12700000000E+01 0.  1.
<mgrwt>
<rscale>  1 0.13036251E+03</rscale>
<asrwt>0</asrwt>
<pdfrwt beam="1">  1       21 0.47256968E-01 0.13036251E+03</pdfrwt>
<pdfrwt beam="2">  1        4 0.47315551E-02 0.13036251E+03</pdfrwt>
<totfact> 0.45396865E+04</totfact>
</mgrwt>
</event>
<event>
 6    4  0.6325740E-003  0.1298546E+03  0.7818608E-02  0.1227672E+00
         21   -1    0    0  501  502  0.00000000000E+00  0.00000000000E+00  0.30060984442E+03  0.30060984442E+03  0.00000000000E+00 0.  1.
         -4   -1    0    0    0  501 -0.00000000000E+00 -0.00000000000E+00 -0.43092838172E+02  0.43111548357E+02  0.12700000000E+01 0. -1.
         25    2    1    2    0    0 -0.16686221379E+02  0.30883889831E+02  0.59895506447E+02  0.14300239836E+03  0.12501987686E+03 0.  0.
    9000005    1    3    3    0    0  0.11010009480E+02  0.73527425711E+02  0.16537625116E+02  0.76170832245E+02  0.10000000000E+01 0.  0.
    9000005    1    3    3    0    0 -0.27696230860E+02 -0.42643535880E+02  0.43357881331E+02  0.66831566117E+02  0.10000000000E+01 0.  0.
         -4    1    1    2    0  502  0.16686221379E+02 -0.30883889831E+02  0.19762149980E+03  0.20071899441E+03  0.12700000000E+01 0.  1.
<mgrwt>
<rscale>  1 0.12985459E+03</rscale>
<asrwt>0</asrwt>
<pdfrwt beam="1">  1       21 0.46247667E-01 0.12985459E+03</pdfrwt>
<pdfrwt beam="2">  1       -4 0.66313132E-02 0.12985459E+03</pdfrwt>
<totfact> 0.27474681E+04</totfact>
</mgrwt>
</event>
<event>
 6    4  0.6325740E-003  0.1295203E+03  0.7818608E-02  0.1228169E+00
         -4   -1    0    0    0  501 -0.00000000000E+00  0.00000000000E+00  0.32487901428E+03  0.32488149658E+03  0.12700000000E+01 0.  1.
         21   -1    0    0  501  502  0.00000000000E+00 -0.00000000000E+00 -0.84732560231E+02  0.84732560231E+02  0.00000000000E+00 0. -1.
         25    2    1    2    0    0 -0.22228580806E+02  0.25716437406E+02  0.30777236326E+03  0.33391517007E+03  0.12498027147E+03 0.  0.
    9000005    1    3    3    0    0  0.24742504383E+02  0.35300638713E+02  0.31216668452E+02  0.53233513936E+02  0.10000000000E+01 0.  0.
    9000005    1    3    3    0    0 -0.46971085189E+02 -0.95842013067E+01  0.27655569481E+03  0.28068165614E+03  0.10000000000E+01 0.  0.
         -4    1    1    2    0  502  0.22228580806E+02 -0.25716437406E+02 -0.67625909211E+02  0.75698886743E+02  0.12700000000E+01 0. -1.
<mgrwt>
<rscale>  1 0.12952032E+03</rscale>
<asrwt>0</asrwt>
<pdfrwt beam="2">  1       21 0.13035779E-01 0.12952032E+03</pdfrwt>
<pdfrwt beam="1">  1       -4 0.49982309E-01 0.12952032E+03</pdfrwt>
<totfact> 0.80224864E+03</totfact>
</mgrwt>
</event>
<event>
 6    4  0.6325740E-003  0.1360354E+03  0.7818608E-02  0.1218765E+00
         21   -1    0    0  501  502  0.00000000000E+00  0.00000000000E+00  0.44525210840E+02  0.44525210840E+02  0.00000000000E+00 0. -1.
         -4   -1    0    0    0  501 -0.00000000000E+00 -0.00000000000E+00 -0.20277178317E+03  0.20277576026E+03  0.12700000000E+01 0. -1.
         25    2    1    2    0    0  0.46821593848E+02 -0.26230039936E+02 -0.11984570117E+03  0.18129705871E+03  0.12500141904E+03 0.  0.
    9000005    1    3    3    0    0  0.33598955269E+02 -0.70791819515E+02 -0.10778943678E+03  0.13326640306E+03  0.10000000000E+01 0.  0.
    9000005    1    3    3    0    0  0.13222638579E+02  0.44561779579E+02 -0.12056264392E+02  0.48030655641E+02  0.10000000000E+01 0.  0.
         -4    1    1    2    0  502 -0.46821593848E+02  0.26230039936E+02 -0.38400871160E+02  0.66003912395E+02  0.12700000000E+01 0.  1.
<mgrwt>
<rscale>  1 0.13603540E+03</rscale>
<asrwt>0</asrwt>
<pdfrwt beam="1">  1       21 0.68500323E-02 0.13603540E+03</pdfrwt>
<pdfrwt beam="2">  1       -4 0.31197359E-01 0.13603540E+03</pdfrwt>
<totfact> 0.62558777E+04</totfact>
</mgrwt>
</event>
<event>
 6    4  0.6325740E-003  0.1283847E+03  0.7818608E-02  0.1229872E+00
         21   -1    0    0  501  502  0.00000000000E+00  0.00000000000E+00  0.91401861475E+03  0.91401861475E+03  0.00000000000E+00 0.  1.
          4   -1    0    0  502    0 -0.00000000000E+00 -0.00000000000E+00 -0.51013311001E+02  0.51029117172E+02  0.12700000000E+01 0. -1.
         25    2    1    2    0    0 -0.28474021570E+02 -0.65529770620E+01  0.30407589215E+02  0.13193652772E+03  0.12501565683E+03 0.  0.
    9000005    1    3    3    0    0  0.49807688950E+02 -0.51076028124E+01  0.12392532908E+02  0.51589420979E+02  0.10000000000E+01 0.  0.
    9000005    1    3    3    0    0 -0.78281710520E+02 -0.14453742496E+01  0.18015056307E+02  0.80347106745E+02  0.10000000000E+01 0.  0.
          4    1    1    2  501    0  0.28474021570E+02  0.65529770620E+01  0.83259771453E+03  0.83311120420E+03  0.12700000000E+01 0.  1.
<mgrwt>
<rscale>  1 0.12838468E+03</rscale>
<asrwt>0</asrwt>
<pdfrwt beam="1">  1       21 0.14061824E+00 0.12838468E+03</pdfrwt>
<pdfrwt beam="2">  1        4 0.78494861E-02 0.12838468E+03</pdfrwt>
<totfact> 0.16948841E+03</totfact>
</mgrwt>
</event>
<event>
 6    4  0.6325740E-003  0.1282176E+03  0.7818608E-02  0.1230125E+00
         -4   -1    0    0    0  501 -0.00000000000E+00  0.00000000000E+00  0.14869424406E+03  0.14869966751E+03  0.12700000000E+01 0.  1.
         21   -1    0    0  501  502  0.00000000000E+00 -0.00000000000E+00 -0.20864531957E+03  0.20864531957E+03  0.00000000000E+00 0. -1.
         25    2    1    2    0    0 -0.26963241992E+02  0.93417707458E+01  0.11971777541E+03  0.17541974421E+03  0.12500182323E+03 0.  0.
    9000005    1    3    3    0    0  0.26069625761E+02  0.47250034810E+02  0.22750235499E+02  0.58572727375E+02  0.10000000000E+01 0.  0.
    9000005    1    3    3    0    0 -0.53032867753E+02 -0.37908264064E+02  0.96967539915E+02  0.11684701684E+03  0.10000000000E+01 0.  0.
         -4    1    1    2    0  502  0.26963241992E+02 -0.93417707458E+01 -0.17966885093E+03  0.18192524287E+03  0.12700000000E+01 0. -1.
<mgrwt>
<rscale>  1 0.12821755E+03</rscale>
<asrwt>0</asrwt>
<pdfrwt beam="2">  1       21 0.32099280E-01 0.12821755E+03</pdfrwt>
<pdfrwt beam="1">  1       -4 0.22876752E-01 0.12821755E+03</pdfrwt>
<totfact> 0.67610160E+03</totfact>
</mgrwt>
</event>
<event>
 6    4  0.6325740E-003  0.1295062E+03  0.7818608E-02  0.1228190E+00
         21   -1    0    0  501  502  0.00000000000E+00  0.00000000000E+00  0.18209280031E+02  0.18209280031E+02  0.00000000000E+00 0. -1.
          4   -1    0    0  502    0 -0.00000000000E+00 -0.00000000000E+00 -0.70106535893E+03  0.70106650924E+03  0.12700000000E+01 0.  1.
         25    2    1    2    0    0  0.30918679011E+02  0.13771108075E+02 -0.67101020464E+03  0.68339340131E+03  0.12500495227E+03 0.  0.
    9000005    1    3    3    0    0  0.63128954499E+02  0.14131065134E+02 -0.61784213560E+03  0.62122045718E+03  0.10000000000E+01 0.  0.
    9000005    1    3    3    0    0 -0.32210275488E+02 -0.35995705900E+00 -0.53168069038E+02  0.62172944127E+02  0.10000000000E+01 0.  0.
          4    1    1    2  501    0 -0.30918679011E+02 -0.13771108075E+02 -0.11845874256E+02  0.35882387968E+02  0.12700000000E+01 0. -1.
<mgrwt>
<rscale>  1 0.12950616E+03</rscale>
<asrwt>0</asrwt>
<pdfrwt beam="1">  1       21 0.28014278E-02 0.12950616E+03</pdfrwt>
<pdfrwt beam="2">  1        4 0.10785970E+00 0.12950616E+03</pdfrwt>
<totfact> 0.20512030E+04</totfact>
</mgrwt>
</event>
<event>
 6    4  0.6325740E-003  0.1355551E+03  0.7818608E-02  0.1219438E+00
         21   -1    0    0  501  502  0.00000000000E+00  0.00000000000E+00  0.60677793494E+02  0.60677793494E+02  0.00000000000E+00 0. -1.
         -4   -1    0    0    0  501 -0.00000000000E+00 -0.00000000000E+00 -0.16541279174E+03  0.16541766704E+03  0.12700000000E+01 0.  1.
         25    2    1    2    0    0 -0.45160472179E+02 -0.26652353335E+02 -0.10832187857E+03  0.17351889926E+03  0.12500145134E+03 0.  0.
    9000005    1    3    3    0    0 -0.50945150748E+02 -0.27151352540E+02  0.68984606486E+01  0.58148027386E+02  0.10000000000E+01 0.  0.
    9000005    1    3    3    0    0  0.57846785694E+01  0.49899920541E+00 -0.11522033922E+03  0.11537087187E+03  0.10000000000E+01 0.  0.
         -4    1    1    2    0  502  0.45160472179E+02  0.26652353335E+02  0.35868803280E+01  0.52576561281E+02  0.12700000000E+01 0. -1.
<mgrwt>
<rscale>  1 0.13555508E+03</rscale>
<asrwt>0</asrwt>
<pdfrwt beam="1">  1       21 0.93350453E-02 0.13555508E+03</pdfrwt>
<pdfrwt beam="2">  1       -4 0.25449519E-01 0.13555508E+03</pdfrwt>
<totfact> 0.53677763E+04</totfact>
</mgrwt>
</event>
<event>
 6    4  0.6325740E-003  0.1275327E+03  0.7818608E-02  0.1231163E+00
          4   -1    0    0  502    0 -0.00000000000E+00  0.00000000000E+00  0.13368255754E+02  0.13428445997E+02  0.12700000000E+01 0. -1.
         21   -1    0    0  501  502  0.00000000000E+00 -0.00000000000E+00 -0.91759117039E+03  0.91759117039E+03  0.00000000000E+00 0.  1.
         25    2    1    2    0    0 -0.25071012283E+02  0.30991296383E+01 -0.29642299789E+03  0.32269362486E+03  0.12500568623E+03 0.  0.
    9000005    1    3    3    0    0 -0.20694655875E+02  0.63122494319E+02 -0.17459070552E+03  0.18680372728E+03  0.10000000000E+01 0.  0.
    9000005    1    3    3    0    0 -0.43763564075E+01 -0.60023364680E+02 -0.12183229237E+03  0.13588989759E+03  0.10000000000E+01 0.  0.
          4    1    1    2  501    0  0.25071012283E+02 -0.30991296383E+01 -0.60779991675E+03  0.60832599152E+03  0.12700000000E+01 0.  1.
<mgrwt>
<rscale>  1 0.12753267E+03</rscale>
<asrwt>0</asrwt>
<pdfrwt beam="2">  1       21 0.14116791E+00 0.12753267E+03</pdfrwt>
<pdfrwt beam="1">  1        4 0.20613518E-02 0.12753267E+03</pdfrwt>
<totfact> 0.14061115E+04</totfact>
</mgrwt>
</event>
<event>
 6    4  0.6325740E-003  0.1488222E+03  0.7818608E-02  0.1201928E+00
         -4   -1    0    0    0  501 -0.00000000000E+00  0.00000000000E+00  0.13156536084E+02  0.13217690484E+02  0.12700000000E+01 0.  1.
         21   -1    0    0  501  502  0.00000000000E+00 -0.00000000000E+00 -0.10177286636E+04  0.10177286636E+04  0.00000000000E+00 0. -1.
         25    2    1    2    0    0  0.19107828491E+02  0.78471605907E+02 -0.71471562833E+03  0.73004553145E+03  0.12500058626E+03 0.  0.
    9000005    1    3    3    0    0 -0.21817870433E+01 -0.21398358804E+02 -0.36734737141E+03  0.36797790863E+03  0.10000000000E+01 0.  0.
    9000005    1    3    3    0    0  0.21289615534E+02  0.99869964711E+02 -0.34736825692E+03  0.36206762282E+03  0.10000000000E+01 0.  0.
         -4    1    1    2    0  502 -0.19107828491E+02 -0.78471605907E+02 -0.28985649921E+03  0.30090082266E+03  0.12700000000E+01 0. -1.
<mgrwt>
<rscale>  1 0.14882220E+03</rscale>
<asrwt>0</asrwt>
<pdfrwt beam="2">  1       21 0.15657369E+00 0.14882220E+03</pdfrwt>
<pdfrwt beam="1">  1       -4 0.20288470E-02 0.14882220E+03</pdfrwt>
<totfact> 0.11100670E+04</totfact>
</mgrwt>
</event>
<event>
 6    4  0.6325740E-003  0.1299636E+03  0.7818608E-02  0.1227510E+00
         21   -1    0    0  501  502  0.00000000000E+00  0.00000000000E+00  0.11034235438E+03  0.11034235438E+03  0.00000000000E+00 0. -1.
          4   -1    0    0  502    0 -0.00000000000E+00 -0.00000000000E+00 -0.63256429513E+02  0.63269177130E+02  0.12700000000E+01 0. -1.
         25    2    1    2    0    0 -0.32186923568E+02  0.15147021143E+02  0.26995398039E+02  0.13273767108E+03  0.12500043004E+03 0.  0.
    9000005    1    3    3    0    0 -0.65204458238E+02 -0.13978917757E+02 -0.18709215283E+02  0.69268075275E+02  0.10000000000E+01 0.  0.
    9000005    1    3    3    0    0  0.33017534670E+02  0.29125938900E+02  0.45704613321E+02  0.63469595803E+02  0.10000000000E+01 0.  0.
          4    1    1    2  501    0  0.32186923568E+02 -0.15147021143E+02  0.20090526825E+02  0.40873860429E+02  0.12700000000E+01 0.  1.
<mgrwt>
<rscale>  1 0.12996360E+03</rscale>
<asrwt>0</asrwt>
<pdfrwt beam="1">  1       21 0.16975747E-01 0.12996360E+03</pdfrwt>
<pdfrwt beam="2">  1        4 0.97333012E-02 0.12996360E+03</pdfrwt>
<totfact> 0.99657504E+04</totfact>
</mgrwt>
</event>
<event>
 6    4  0.6325740E-003  0.1280287E+03  0.7818608E-02  0.1230410E+00
         21   -1    0    0  501  502  0.00000000000E+00  0.00000000000E+00  0.98235326591E+02  0.98235326591E+02  0.00000000000E+00 0.  1.
         -4   -1    0    0    0  501 -0.00000000000E+00 -0.00000000000E+00 -0.61794699835E+02  0.61807748929E+02  0.12700000000E+01 0.  1.
         25    2    1    2    0    0  0.25496686333E+02  0.10786855079E+02  0.27783392542E+02  0.13100865008E+03  0.12499964895E+03 0.  0.
    9000005    1    3    3    0    0  0.13623647539E+02  0.65918407770E+02 -0.17468544082E+01  0.67341604937E+02  0.10000000000E+01 0.  0.
    9000005    1    3    3    0    0  0.11873038794E+02 -0.55131552691E+02  0.29530246951E+02  0.63667045143E+02  0.10000000000E+01 0.  0.
         -4    1    1    2    0  502 -0.25496686333E+02 -0.10786855079E+02  0.86572342132E+01  0.29034425441E+02  0.12700000000E+01 0. -1.
<mgrwt>
<rscale>  1 0.12802871E+03</rscale>
<asrwt>0</asrwt>
<pdfrwt beam="1">  1       21 0.15113127E-01 0.12802871E+03</pdfrwt>
<pdfrwt beam="2">  1       -4 0.95085121E-02 0.12802871E+03</pdfrwt>
<totfact> 0.12767206E+05</totfact>
</mgrwt>
</event>
<event>
 6    4  0.6325740E-003  0.1355399E+03  0.7818608E-02  0.1219459E+00
         21   -1    0    0  501  502  0.00000000000E+00  0.00000000000E+00  0.22781136672E+03  0.22781136672E+03  0.00000000000E+00 0. -1.
         -4   -1    0    0    0  501 -0.00000000000E+00 -0.00000000000E+00 -0.94770676801E+02  0.94779185908E+02  0.12700000000E+01 0.  1.
         25    2    1    2    0    0 -0.46977389559E+02 -0.23215862597E+02 -0.40375561532E+02  0.14142581938E+03  0.12500090005E+03 0.  0.
    9000005    1    3    3    0    0  0.28554680560E+02  0.75265489532E+01  0.23565503573E+02  0.37793540184E+02  0.10000000000E+01 0.  0.
    9000005    1    3    3    0    0 -0.75532070118E+02 -0.30742411550E+02 -0.63941065105E+02  0.10363227919E+03  0.10000000000E+01 0.  0.
         -4    1    1    2    0  502  0.46977389559E+02  0.23215862597E+02  0.17341625145E+03  0.18116473325E+03  0.12700000000E+01 0. -1.
<mgrwt>
<rscale>  1 0.13553994E+03</rscale>
<asrwt>0</asrwt>
<pdfrwt beam="1">  1       21 0.35047902E-01 0.13553994E+03</pdfrwt>
<pdfrwt beam="2">  1       -4 0.14581031E-01 0.13553994E+03</pdfrwt>
<totfact> 0.12753603E+04</totfact>
</mgrwt>
</event>
<event>
 6    4  0.6325740E-003  0.1525334E+03  0.7818608E-02  0.1197394E+00
          4   -1    0    0  502    0 -0.00000000000E+00  0.00000000000E+00  0.12595647371E+03  0.12596287616E+03  0.12700000000E+01 0. -1.
         21   -1    0    0  501  502  0.00000000000E+00 -0.00000000000E+00 -0.15782683778E+03  0.15782683778E+03  0.00000000000E+00 0.  1.
         25    2    1    2    0    0 -0.31865903090E+01 -0.87354311180E+02  0.53456321951E+02  0.16162921997E+03  0.12500198539E+03 0.  0.
    9000005    1    3    3    0    0 -0.48714866925E+01 -0.75038118887E+02 -0.27233038920E+02  0.79981804665E+02  0.10000000000E+01 0.  0.
    9000005    1    3    3    0    0  0.16848963835E+01 -0.12316192293E+02  0.80689360871E+02  0.81647415307E+02  0.10000000000E+01 0.  0.
          4    1    1    2  501    0  0.31865903090E+01  0.87354311180E+02 -0.85326686023E+02  0.12216049397E+03  0.12700000000E+01 0.  1.
<mgrwt>
<rscale>  1 0.15253336E+03</rscale>
<asrwt>0</asrwt>
<pdfrwt beam="2">  1       21 0.24281052E-01 0.15253336E+03</pdfrwt>
<pdfrwt beam="1">  1        4 0.19378805E-01 0.15253336E+03</pdfrwt>
<totfact> 0.15807091E+04</totfact>
</mgrwt>
</event>
<event>
 6    4  0.6325740E-003  0.1286367E+03  0.7818608E-02  0.1229493E+00
          4   -1    0    0  502    0 -0.00000000000E+00  0.00000000000E+00  0.15409487829E+03  0.15410011166E+03  0.12700000000E+01 0.  1.
         21   -1    0    0  501  502  0.00000000000E+00 -0.00000000000E+00 -0.14331158279E+03  0.14331158279E+03  0.00000000000E+00 0. -1.
         25    2    1    2    0    0 -0.29967533237E+02 -0.50573944424E+01  0.12490817400E+03  0.17930271477E+03  0.12499512512E+03 0.  0.
    9000005    1    3    3    0    0 -0.70177348697E+02  0.15627301742E+02  0.11049910439E+03  0.13183370169E+03  0.10000000000E+01 0.  0.
    9000005    1    3    3    0    0  0.40209815460E+02 -0.20684696184E+02  0.14409069612E+02  0.47469013079E+02  0.10000000000E+01 0.  0.
          4    1    1    2  501    0  0.29967533237E+02  0.50573944424E+01 -0.11412487850E+03  0.11810897968E+03  0.12700000000E+01 0. -1.
<mgrwt>
<rscale>  1 0.12863674E+03</rscale>
<asrwt>0</asrwt>
<pdfrwt beam="2">  1       21 0.22047936E-01 0.12863674E+03</pdfrwt>
<pdfrwt beam="1">  1        4 0.23707740E-01 0.12863674E+03</pdfrwt>
<totfact> 0.12950051E+04</totfact>
</mgrwt>
</event>
<event>
 6    4  0.6325740E-003  0.1271508E+03  0.7818608E-02  0.1231746E+00
         21   -1    0    0  501  502  0.00000000000E+00  0.00000000000E+00  0.12392080516E+03  0.12392080516E+03  0.00000000000E+00 0.  1.
         -4   -1    0    0    0  501 -0.00000000000E+00 -0.00000000000E+00 -0.46400349058E+02  0.46417726061E+02  0.12700000000E+01 0.  1.
         25    2    1    2    0    0  0.20890175347E+02  0.10353553172E+02  0.57361909857E+02  0.13949091582E+03  0.12499492551E+03 0.  0.
    9000005    1    3    3    0    0  0.15467886144E+02 -0.44187659933E+02  0.69058383964E+02  0.83437792323E+02  0.10000000000E+01 0.  0.
    9000005    1    3    3    0    0  0.54222892036E+01  0.54541213105E+02 -0.11696474107E+02  0.56053123496E+02  0.10000000000E+01 0.  0.
         -4    1    1    2    0  502 -0.20890175347E+02 -0.10353553172E+02  0.20158546249E+02  0.30847615405E+02  0.12700000000E+01 0. -1.
<mgrwt>
<rscale>  1 0.12715080E+03</rscale>
<asrwt>0</asrwt>
<pdfrwt beam="1">  1       21 0.19064739E-01 0.12715080E+03</pdfrwt>
<pdfrwt beam="2">  1       -4 0.71403526E-02 0.12715080E+03</pdfrwt>
<totfact> 0.13435466E+05</totfact>
</mgrwt>
</event>
<event>
 6    4  0.6325740E-003  0.1269554E+03  0.7818608E-02  0.1232045E+00
         21   -1    0    0  501  502  0.00000000000E+00  0.00000000000E+00  0.42137163874E+01  0.42137163874E+01  0.00000000000E+00 0.  1.
         -4   -1    0    0    0  501 -0.00000000000E+00 -0.00000000000E+00 -0.14025251884E+04  0.14025257634E+04  0.12700000000E+01 0.  1.
         25    2    1    2    0    0 -0.21596658346E+02  0.50399128436E+01 -0.10363816355E+04  0.10441286197E+04  0.12500345500E+03 0.  0.
    9000005    1    3    3    0    0 -0.57023176135E+02  0.43831074879E+02 -0.49422833941E+03  0.49943513815E+03  0.10000000000E+01 0.  0.
    9000005    1    3    3    0    0  0.35426517789E+02 -0.38791162036E+02 -0.54215329606E+03  0.54469348155E+03  0.10000000000E+01 0.  0.
         -4    1    1    2    0  502  0.21596658346E+02 -0.50399128436E+01 -0.36192983653E+03  0.36261086007E+03  0.12700000000E+01 0. -1.
<mgrwt>
<rscale>  1 0.12695543E+03</rscale>
<asrwt>0</asrwt>
<pdfrwt beam="1">  1       21 0.64826471E-03 0.12695543E+03</pdfrwt>
<pdfrwt beam="2">  1       -4 0.21578766E+00 0.12695543E+03</pdfrwt>
<totfact> 0.34918202E+04</totfact>
</mgrwt>
</event>
<event>
 6    4  0.6325740E-003  0.1276700E+03  0.7818608E-02  0.1230955E+00
          4   -1    0    0  502    0 -0.00000000000E+00  0.00000000000E+00  0.14542844562E+03  0.14543399085E+03  0.12700000000E+01 0.  1.
         21   -1    0    0  501  502  0.00000000000E+00 -0.00000000000E+00 -0.40822362939E+02  0.40822362939E+02  0.00000000000E+00 0.  1.
         25    2    1    2    0    0 -0.17012948739E+02 -0.19625975125E+02  0.91951523020E+02  0.15733628974E+03  0.12500002464E+03 0.  0.
    9000005    1    3    3    0    0 -0.24578180108E+02 -0.71078088002E+02  0.60724266359E+02  0.96667564655E+02  0.10000000000E+01 0.  0.
    9000005    1    3    3    0    0  0.75652313696E+01  0.51452112877E+02  0.31227256661E+02  0.60668725087E+02  0.10000000000E+01 0.  0.
          4    1    1    2  501    0  0.17012948739E+02  0.19625975125E+02  0.12654559661E+02  0.28920064049E+02  0.12700000000E+01 0. -1.
<mgrwt>
<rscale>  1 0.12766999E+03</rscale>
<asrwt>0</asrwt>
<pdfrwt beam="2">  1       21 0.62803636E-02 0.12766999E+03</pdfrwt>
<pdfrwt beam="1">  1        4 0.22375553E-01 0.12766999E+03</pdfrwt>
<totfact> 0.13334711E+05</totfact>
</mgrwt>
</event>
<event>
 6    4  0.6325740E-003  0.1411340E+03  0.7818608E-02  0.1211811E+00
         21   -1    0    0  501  502  0.00000000000E+00  0.00000000000E+00  0.34898636389E+03  0.34898636389E+03  0.00000000000E+00 0.  1.
         -4   -1    0    0    0  501 -0.00000000000E+00 -0.00000000000E+00 -0.37421145629E+02  0.37442690077E+02  0.12700000000E+01 0.  1.
         25    2    1    2    0    0  0.57736271680E+02 -0.31036456552E+02  0.12447149284E+03  0.18818069031E+03  0.12498832334E+03 0.  0.
    9000005    1    3    3    0    0  0.82453988384E+02  0.14522637542E+02  0.50263032328E+02  0.97657255852E+02  0.10000000000E+01 0.  0.
    9000005    1    3    3    0    0 -0.24717716704E+02 -0.45559094094E+02  0.74208460515E+02  0.90523434456E+02  0.10000000000E+01 0.  0.
         -4    1    1    2    0  502 -0.57736271680E+02  0.31036456552E+02  0.18709372542E+03  0.19824836366E+03  0.12700000000E+01 0. -1.
<mgrwt>
<rscale>  1 0.14113405E+03</rscale>
<asrwt>0</asrwt>
<pdfrwt beam="1">  1       21 0.53690208E-01 0.14113405E+03</pdfrwt>
<pdfrwt beam="2">  1       -4 0.57589346E-02 0.14113405E+03</pdfrwt>
<totfact> 0.25598403E+04</totfact>
</mgrwt>
</event>
<event>
 6    4  0.6325740E-003  0.1268209E+03  0.7818608E-02  0.1232251E+00
         21   -1    0    0  501  502  0.00000000000E+00  0.00000000000E+00  0.24291003106E+03  0.24291003106E+03  0.00000000000E+00 0.  1.
          4   -1    0    0  502    0 -0.00000000000E+00 -0.00000000000E+00 -0.36932040249E+02  0.36953869851E+02  0.12700000000E+01 0. -1.
         25    2    1    2    0    0  0.21136440636E+02 -0.33554762093E+01  0.75409561443E+02  0.14754709929E+03  0.12500214482E+03 0.  0.
    9000005    1    3    3    0    0  0.70440328850E+02  0.78574957754E+01  0.22533707150E+02  0.74379756159E+02  0.10000000000E+01 0.  0.
    9000005    1    3    3    0    0 -0.49303888214E+02 -0.11212971985E+02  0.52875854293E+02  0.73167343132E+02  0.10000000000E+01 0.  0.
          4    1    1    2  501    0 -0.21136440636E+02  0.33554762093E+01  0.13056842937E+03  0.13231680162E+03  0.12700000000E+01 0.  1.
<mgrwt>
<rscale>  1 0.12682092E+03</rscale>
<asrwt>0</asrwt>
<pdfrwt beam="1">  1       21 0.37370773E-01 0.12682092E+03</pdfrwt>
<pdfrwt beam="2">  1        4 0.56837871E-02 0.12682092E+03</pdfrwt>
<totfact> 0.54035889E+04</totfact>
</mgrwt>
</event>
<event>
 6    4  0.6325740E-003  0.1358557E+03  0.7818608E-02  0.1219017E+00
         21   -1    0    0  501  502  0.00000000000E+00  0.00000000000E+00  0.28528158231E+02  0.28528158231E+02  0.00000000000E+00 0.  1.
          4   -1    0    0  502    0 -0.00000000000E+00 -0.00000000000E+00 -0.35127256380E+03  0.35127485959E+03  0.12700000000E+01 0. -1.
         25    2    1    2    0    0 -0.10741205394E+02 -0.52121225300E+02 -0.28113091146E+03  0.31223607759E+03  0.12499913260E+03 0.  0.
    9000005    1    3    3    0    0  0.42552415358E+02 -0.59157920357E+02 -0.21494511872E+03  0.22696425193E+03  0.10000000000E+01 0.  0.
    9000005    1    3    3    0    0 -0.53293620752E+02  0.70366950574E+01 -0.66185792736E+02  0.85271825654E+02  0.10000000000E+01 0.  0.
          4    1    1    2  501    0  0.10741205394E+02  0.52121225300E+02 -0.41613494110E+02  0.67566940230E+02  0.12700000000E+01 0.  1.
<mgrwt>
<rscale>  1 0.13585573E+03</rscale>
<asrwt>0</asrwt>
<pdfrwt beam="1">  1       21 0.43889474E-02 0.13585573E+03</pdfrwt>
<pdfrwt beam="2">  1        4 0.54044284E-01 0.13585573E+03</pdfrwt>
<totfact> 0.44778319E+04</totfact>
</mgrwt>
</event>
<event>
 6    4  0.6325740E-003  0.1316561E+03  0.7818608E-02  0.1225019E+00
         21   -1    0    0  501  502  0.00000000000E+00  0.00000000000E+00  0.11508160344E+03  0.11508160344E+03  0.00000000000E+00 0.  1.
         -4   -1    0    0    0  501 -0.00000000000E+00 -0.00000000000E+00 -0.68256417751E+02  0.68268231734E+02  0.12700000000E+01 0. -1.
         25    2    1    2    0    0  0.74504459319E+01 -0.40643576141E+02  0.17837052704E+02  0.13285890351E+03  0.12500367341E+03 0.  0.
    9000005    1    3    3    0    0 -0.43516729610E+02  0.15137245942E+02  0.31829788572E+02  0.56008726205E+02  0.10000000000E+01 0.  0.
    9000005    1    3    3    0    0  0.50967175542E+02 -0.55780822083E+02 -0.13992735868E+02  0.76850177306E+02  0.10000000000E+01 0.  0.
         -4    1    1    2    0  502 -0.74504459319E+01  0.40643576141E+02  0.28988132981E+02  0.50490931660E+02  0.12700000000E+01 0.  1.
<mgrwt>
<rscale>  1 0.13165610E+03</rscale>
<asrwt>0</asrwt>
<pdfrwt beam="1">  1       21 0.17704862E-01 0.13165610E+03</pdfrwt>
<pdfrwt beam="2">  1       -4 0.10502435E-01 0.13165610E+03</pdfrwt>
<totfact> 0.81335615E+04</totfact>
</mgrwt>
</event>
<event>
 6    4  0.6325740E-003  0.1276672E+03  0.7818608E-02  0.1230959E+00
         -4   -1    0    0    0  501 -0.00000000000E+00  0.00000000000E+00  0.97131237757E+02  0.97139540087E+02  0.12700000000E+01 0. -1.
         21   -1    0    0  501  502  0.00000000000E+00 -0.00000000000E+00 -0.85129299379E+02  0.85129299379E+02  0.00000000000E+00 0.  1.
         25    2    1    2    0    0  0.93588203788E+01 -0.24212634057E+02  0.49260668761E+02  0.13684125911E+03  0.12500031017E+03 0.  0.
    9000005    1    3    3    0    0  0.31541506478E+02  0.50320459703E+00 -0.34483641803E+02  0.46746565625E+02  0.10000000000E+01 0.  0.
    9000005    1    3    3    0    0 -0.22182686100E+02 -0.24715838654E+02  0.83744310564E+02  0.90094693488E+02  0.10000000000E+01 0.  0.
         -4    1    1    2    0  502 -0.93588203788E+01  0.24212634057E+02 -0.37258730383E+02  0.45427580352E+02  0.12700000000E+01 0.  1.
<mgrwt>
<rscale>  1 0.12766721E+03</rscale>
<asrwt>0</asrwt>
<pdfrwt beam="2">  1       21 0.13096815E-01 0.12766721E+03</pdfrwt>
<pdfrwt beam="1">  1       -4 0.14944635E-01 0.12766721E+03</pdfrwt>
<totfact> 0.76209289E+04</totfact>
</mgrwt>
</event>
<event>
 6    4  0.6325740E-003  0.1272540E+03  0.7818608E-02  0.1231588E+00
         21   -1    0    0  501  502  0.00000000000E+00  0.00000000000E+00  0.31735505644E+01  0.31735505644E+01  0.00000000000E+00 0.  1.
          4   -1    0    0  502    0 -0.00000000000E+00 -0.00000000000E+00 -0.19450585157E+04  0.19450589303E+04  0.12700000000E+01 0.  1.
         25    2    1    2    0    0  0.21518158306E+02  0.10192692593E+02 -0.17867479853E+04  0.17912738318E+04  0.12500662092E+03 0.  0.
    9000005    1    3    3    0    0 -0.15730049888E+02 -0.52163837004E+02 -0.80449708704E+03  0.80634053812E+03  0.10000000000E+01 0.  0.
    9000005    1    3    3    0    0  0.37248208194E+02  0.62356529597E+02 -0.98225089828E+03  0.98493329366E+03  0.10000000000E+01 0.  0.
          4    1    1    2  501    0 -0.21518158306E+02 -0.10192692593E+02 -0.15513697982E+03  0.15695864910E+03  0.12700000000E+01 0. -1.
<mgrwt>
<rscale>  1 0.12725399E+03</rscale>
<asrwt>0</asrwt>
<pdfrwt beam="1">  1       21 0.48823882E-03 0.12725399E+03</pdfrwt>
<pdfrwt beam="2">  1        4 0.29925918E+00 0.12725399E+03</pdfrwt>
<totfact> 0.17832351E+04</totfact>
</mgrwt>
</event>
<event>
 6    4  0.6325740E-003  0.1270642E+03  0.7818608E-02  0.1231878E+00
         21   -1    0    0  501  502  0.00000000000E+00  0.00000000000E+00  0.74076755652E+02  0.74076755652E+02  0.00000000000E+00 0.  1.
         -4   -1    0    0    0  501 -0.00000000000E+00 -0.00000000000E+00 -0.28705515913E+03  0.28705796851E+03  0.12700000000E+01 0. -1.
         25    2    1    2    0    0  0.16808504384E+01 -0.22784885971E+02 -0.27070270904E+03  0.29904056470E+03  0.12499330528E+03 0.  0.
    9000005    1    3    3    0    0  0.57608676975E+02 -0.90076268853E+00 -0.76587690479E+02  0.95844902677E+02  0.10000000000E+01 0.  0.
    9000005    1    3    3    0    0 -0.55927826536E+02 -0.21884123283E+02 -0.19411501856E+03  0.20319566202E+03  0.10000000000E+01 0.  0.
         -4    1    1    2    0  502 -0.16808504384E+01  0.22784885971E+02  0.57724305561E+02  0.62094159463E+02  0.12700000000E+01 0.  1.
<mgrwt>
<rscale>  1 0.12706417E+03</rscale>
<asrwt>0</asrwt>
<pdfrwt beam="1">  1       21 0.11396424E-01 0.12706417E+03</pdfrwt>
<pdfrwt beam="2">  1       -4 0.44163385E-01 0.12706417E+03</pdfrwt>
<totfact> 0.13041729E+04</totfact>
</mgrwt>
</event>
<event>
 6    4  0.6325740E-003  0.1292592E+03  0.7818608E-02  0.1228559E+00
         21   -1    0    0  501  502  0.00000000000E+00  0.00000000000E+00  0.14741960384E+02  0.14741960384E+02  0.00000000000E+00 0.  1.
          4   -1    0    0  502    0 -0.00000000000E+00 -0.00000000000E+00 -0.47261022101E+03  0.47261192738E+03  0.12700000000E+01 0.  1.
         25    2    1    2    0    0 -0.46632802601E+01  0.32564715134E+02 -0.40447657293E+03  0.42462835812E+03  0.12500295042E+03 0.  0.
    9000005    1    3    3    0    0 -0.54517748737E+02  0.44948047011E+02 -0.16156816916E+03  0.17634564112E+03  0.10000000000E+01 0.  0.
    9000005    1    3    3    0    0  0.49854468477E+02 -0.12383331877E+02 -0.24290840377E+03  0.24828271699E+03  0.10000000000E+01 0.  0.
          4    1    1    2  501    0  0.46632802601E+01 -0.32564715134E+02 -0.53391687696E+02  0.62725529647E+02  0.12700000000E+01 0. -1.
<mgrwt>
<rscale>  1 0.12925921E+03</rscale>
<asrwt>0</asrwt>
<pdfrwt beam="1">  1       21 0.22679941E-02 0.12925921E+03</pdfrwt>
<pdfrwt beam="2">  1        4 0.72713596E-01 0.12925921E+03</pdfrwt>
<totfact> 0.70350258E+04</totfact>
</mgrwt>
</event>
<event>
 6    4  0.6325740E-003  0.1306340E+03  0.7818608E-02  0.1226518E+00
         21   -1    0    0  501  502  0.00000000000E+00  0.00000000000E+00  0.11686771696E+03  0.11686771696E+03  0.00000000000E+00 0.  1.
          4   -1    0    0  502    0 -0.00000000000E+00 -0.00000000000E+00 -0.63917604653E+02  0.63930220432E+02  0.12700000000E+01 0.  1.
         25    2    1    2    0    0  0.77329384908E+01  0.37147831322E+02  0.57175090349E+02  0.14259815926E+03  0.12500193742E+03 0.  0.
    9000005    1    3    3    0    0 -0.43086798927E+02  0.52655941989E+02  0.58058959206E+02  0.89448103460E+02  0.10000000000E+01 0.  0.
    9000005    1    3    3    0    0  0.50819737418E+02 -0.15508110667E+02 -0.88386885724E+00  0.53150055803E+02  0.10000000000E+01 0.  0.
          4    1    1    2  501    0 -0.77329384908E+01 -0.37147831322E+02 -0.42249780429E+01  0.38199778128E+02  0.12700000000E+01 0. -1.
<mgrwt>
<rscale>  1 0.13063401E+03</rscale>
<asrwt>0</asrwt>
<pdfrwt beam="1">  1       21 0.17979649E-01 0.13063401E+03</pdfrwt>
<pdfrwt beam="2">  1        4 0.98349789E-02 0.13063401E+03</pdfrwt>
<totfact> 0.88239678E+04</totfact>
</mgrwt>
</event>
<event>
 6    4  0.6325740E-003  0.1298338E+03  0.7818608E-02  0.1227703E+00
          4   -1    0    0  502    0 -0.00000000000E+00  0.00000000000E+00  0.13637532584E+03  0.13638123917E+03  0.12700000000E+01 0.  1.
         21   -1    0    0  501  502  0.00000000000E+00 -0.00000000000E+00 -0.12395821877E+03  0.12395821877E+03  0.00000000000E+00 0. -1.
         25    2    1    2    0    0  0.20531904540E+02  0.28475287273E+02  0.10135794447E+03  0.16471264921E+03  0.12499769123E+03 0.  0.
    9000005    1    3    3    0    0  0.25227830888E+02 -0.37884502326E+02  0.25575636653E+01  0.45598465980E+02  0.10000000000E+01 0.  0.
    9000005    1    3    3    0    0 -0.46959263482E+01  0.66359789599E+02  0.98800380806E+02  0.11911418323E+03  0.10000000000E+01 0.  0.
          4    1    1    2  501    0 -0.20531904540E+02 -0.28475287273E+02 -0.88940837406E+02  0.95626808730E+02  0.12700000000E+01 0. -1.
<mgrwt>
<rscale>  1 0.12983383E+03</rscale>
<asrwt>0</asrwt>
<pdfrwt beam="2">  1       21 0.19070495E-01 0.12983383E+03</pdfrwt>
<pdfrwt beam="1">  1        4 0.20981775E-01 0.12983383E+03</pdfrwt>
<totfact> 0.21182063E+04</totfact>
</mgrwt>
</event>
<event>
 6    4  0.6325740E-003  0.1267628E+03  0.7818608E-02  0.1232340E+00
          4   -1    0    0  502    0 -0.00000000000E+00  0.00000000000E+00  0.22759168649E+02  0.22794575179E+02  0.12700000000E+01 0. -1.
         21   -1    0    0  501  502  0.00000000000E+00 -0.00000000000E+00 -0.38526929898E+03  0.38526929898E+03  0.00000000000E+00 0. -1.
         25    2    1    2    0    0 -0.26621982548E+01 -0.20872538719E+02 -0.15844498678E+03  0.20291284227E+03  0.12500423013E+03 0.  0.
    9000005    1    3    3    0    0 -0.40052848530E+02 -0.57148102876E+02 -0.11741486263E+03  0.13659204334E+03  0.10000000000E+01 0.  0.
    9000005    1    3    3    0    0  0.37390650275E+02  0.36275564157E+02 -0.41030124152E+02  0.66320798931E+02  0.10000000000E+01 0.  0.
          4    1    1    2  501    0  0.26621982548E+01  0.20872538719E+02 -0.20406514355E+03  0.20515103189E+03  0.12700000000E+01 0.  1.
<mgrwt>
<rscale>  1 0.12676280E+03</rscale>
<asrwt>0</asrwt>
<pdfrwt beam="2">  1       21 0.59272197E-01 0.12676280E+03</pdfrwt>
<pdfrwt beam="1">  1        4 0.35042953E-02 0.12676280E+03</pdfrwt>
<totfact> 0.45504154E+04</totfact>
</mgrwt>
</event>
<event>
 6    4  0.6325740E-003  0.1287344E+03  0.7818608E-02  0.1229346E+00
          4   -1    0    0  502    0 -0.00000000000E+00  0.00000000000E+00  0.37582111461E+03  0.37582326044E+03  0.12700000000E+01 0.  1.
         21   -1    0    0  501  502  0.00000000000E+00 -0.00000000000E+00 -0.20114069712E+02  0.20114069712E+02  0.00000000000E+00 0.  1.
         25    2    1    2    0    0 -0.20353842864E+02 -0.23137056168E+02  0.20471783561E+03  0.24183036565E+03  0.12499172470E+03 0.  0.
    9000005    1    3    3    0    0 -0.58052922941E+02  0.23718744104E+02  0.14039300285E+03  0.15376578271E+03  0.10000000000E+01 0.  0.
    9000005    1    3    3    0    0  0.37699080077E+02 -0.46855800271E+02  0.64324832760E+02  0.88064582934E+02  0.10000000000E+01 0.  0.
          4    1    1    2  501    0  0.20353842864E+02  0.23137056168E+02  0.15098920928E+03  0.15410696450E+03  0.12700000000E+01 0. -1.
<mgrwt>
<rscale>  1 0.12873435E+03</rscale>
<asrwt>0</asrwt>
<pdfrwt beam="2">  1       21 0.30944725E-02 0.12873435E+03</pdfrwt>
<pdfrwt beam="1">  1        4 0.57821877E-01 0.12873435E+03</pdfrwt>
<totfact> 0.68941246E+04</totfact>
</mgrwt>
</event>
<event>
 6    4  0.6325740E-003  0.1371991E+03  0.7818608E-02  0.1217148E+00
         21   -1    0    0  501  502  0.00000000000E+00  0.00000000000E+00  0.68055977524E+03  0.68055977524E+03  0.00000000000E+00 0.  1.
          4   -1    0    0  502    0 -0.00000000000E+00 -0.00000000000E+00 -0.16328152396E+02  0.16377468079E+02  0.12700000000E+01 0. -1.
         25    2    1    2    0    0  0.25274876529E+02 -0.50592291027E+02  0.32123590360E+03  0.34930802186E+03  0.12500075630E+03 0.  0.
    9000005    1    3    3    0    0  0.30977967319E+02  0.33502936565E+02  0.17156717256E+03  0.17753415423E+03  0.10000000000E+01 0.  0.
    9000005    1    3    3    0    0 -0.57030907893E+01 -0.84095227592E+02  0.14966873104E+03  0.17177386762E+03  0.10000000000E+01 0.  0.
          4    1    1    2  501    0 -0.25274876529E+02  0.50592291027E+02  0.34299571924E+03  0.34762922146E+03  0.12700000000E+01 0.  1.
<mgrwt>
<rscale>  1 0.13719908E+03</rscale>
<asrwt>0</asrwt>
<pdfrwt beam="1">  1       21 0.10470148E+00 0.13719908E+03</pdfrwt>
<pdfrwt beam="2">  1        4 0.25159086E-02 0.13719908E+03</pdfrwt>
<totfact> 0.21591100E+04</totfact>
</mgrwt>
</event>
<event>
 6    4  0.6325740E-003  0.1475430E+03  0.7818608E-02  0.1203525E+00
         21   -1    0    0  501  502  0.00000000000E+00  0.00000000000E+00  0.80291594902E+03  0.80291594902E+03  0.00000000000E+00 0. -1.
          4   -1    0    0  502    0 -0.00000000000E+00 -0.00000000000E+00 -0.16002772832E+02  0.16053088124E+02  0.12700000000E+01 0.  1.
         25    2    1    2    0    0  0.72374942564E+02 -0.30138344081E+02  0.54821920421E+03  0.56772637108E+03  0.12498993741E+03 0.  0.
    9000005    1    3    3    0    0  0.12558090406E+02 -0.31579892334E+02  0.45923253692E+03  0.46048943332E+03  0.10000000000E+01 0.  0.
    9000005    1    3    3    0    0  0.59816852159E+02  0.14415482533E+01  0.88986667295E+02  0.10723693776E+03  0.10000000000E+01 0.  0.
          4    1    1    2  501    0 -0.72374942564E+02  0.30138344081E+02  0.23869397198E+03  0.25124266607E+03  0.12700000000E+01 0. -1.
<mgrwt>
<rscale>  1 0.14754300E+03</rscale>
<asrwt>0</asrwt>
<pdfrwt beam="1">  1       21 0.12352550E+00 0.14754300E+03</pdfrwt>
<pdfrwt beam="2">  1        4 0.24659134E-02 0.14754300E+03</pdfrwt>
<totfact> 0.15012423E+04</totfact>
</mgrwt>
</event>
<event>
 6    4  0.6325740E-003  0.1281730E+03  0.7818608E-02  0.1230192E+00
          4   -1    0    0  502    0 -0.00000000000E+00  0.00000000000E+00  0.55104925401E+03  0.55105071749E+03  0.12700000000E+01 0.  1.
         21   -1    0    0  501  502  0.00000000000E+00 -0.00000000000E+00 -0.19021035387E+02  0.19021035387E+02  0.00000000000E+00 0.  1.
         25    2    1    2    0    0  0.22640108909E+02 -0.17054561936E+02  0.52556916758E+03  0.54097252858E+03  0.12499957660E+03 0.  0.
    9000005    1    3    3    0    0 -0.30413367226E+02  0.26108727470E+02  0.35411394691E+03  0.35637666303E+03  0.10000000000E+01 0.  0.
    9000005    1    3    3    0    0  0.53053476135E+02 -0.43163289406E+02  0.17145522067E+03  0.18459586555E+03  0.10000000000E+01 0.  0.
          4    1    1    2  501    0 -0.22640108909E+02  0.17054561936E+02  0.64590510402E+01  0.29099224295E+02  0.12700000000E+01 0. -1.
<mgrwt>
<rscale>  1 0.12817303E+03</rscale>
<asrwt>0</asrwt>
<pdfrwt beam="2">  1       21 0.29263136E-02 0.12817303E+03</pdfrwt>
<pdfrwt beam="1">  1        4 0.84780170E-01 0.12817303E+03</pdfrwt>
<totfact> 0.33089307E+04</totfact>
</mgrwt>
</event>
<event>
 6    4  0.6325740E-003  0.1271105E+03  0.7818608E-02  0.1231807E+00
         -4   -1    0    0    0  501 -0.00000000000E+00  0.00000000000E+00  0.39314319871E+03  0.39314524999E+03  0.12700000000E+01 0.  1.
         21   -1    0    0  501  502  0.00000000000E+00 -0.00000000000E+00 -0.31959697724E+02  0.31959697724E+02  0.00000000000E+00 0. -1.
         25    2    1    2    0    0  0.23092247148E+02  0.20715874056E+00  0.37649131421E+03  0.39736982848E+03  0.12499510436E+03 0.  0.
    9000005    1    3    3    0    0  0.65686609763E+02 -0.31374461369E+02  0.24494555872E+03  0.25553554404E+03  0.10000000000E+01 0.  0.
    9000005    1    3    3    0    0 -0.42594362615E+02  0.31581620109E+02  0.13154575549E+03  0.14183428444E+03  0.10000000000E+01 0.  0.
         -4    1    1    2    0  502 -0.23092247148E+02 -0.20715874056E+00 -0.15307813231E+02  0.27735119235E+02  0.12700000000E+01 0. -1.
<mgrwt>
<rscale>  1 0.12711047E+03</rscale>
<asrwt>0</asrwt>
<pdfrwt beam="2">  1       21 0.49168768E-02 0.12711047E+03</pdfrwt>
<pdfrwt beam="1">  1       -4 0.60485664E-01 0.12711047E+03</pdfrwt>
<totfact> 0.29050403E+04</totfact>
</mgrwt>
</event>
<event>
 6    4  0.6325740E-003  0.1270940E+03  0.7818608E-02  0.1231833E+00
          4   -1    0    0  502    0 -0.00000000000E+00  0.00000000000E+00  0.42314567357E+02  0.42333621515E+02  0.12700000000E+01 0.  1.
         21   -1    0    0  501  502  0.00000000000E+00 -0.00000000000E+00 -0.71105484348E+03  0.71105484348E+03  0.00000000000E+00 0. -1.
         25    2    1    2    0    0 -0.21632155090E+02  0.77537886054E+01 -0.53790817926E+02  0.13800848449E+03  0.12499927330E+03 0.  0.
    9000005    1    3    3    0    0 -0.45807459425E+02  0.22584532819E+01  0.27179909314E+02  0.53321397398E+02  0.10000000000E+01 0.  0.
    9000005    1    3    3    0    0  0.24175304335E+02  0.54953353235E+01 -0.80970727240E+02  0.84687087090E+02  0.10000000000E+01 0.  0.
          4    1    1    2  501    0  0.21632155090E+02 -0.77537886054E+01 -0.61494945819E+03  0.61537998050E+03  0.12700000000E+01 0. -1.
<mgrwt>
<rscale>  1 0.12709402E+03</rscale>
<asrwt>0</asrwt>
<pdfrwt beam="2">  1       21 0.10939306E+00 0.12709402E+03</pdfrwt>
<pdfrwt beam="1">  1        4 0.65114862E-02 0.12709402E+03</pdfrwt>
<totfact> 0.42696032E+03</totfact>
</mgrwt>
</event>
<event>
 6    4  0.6325740E-003  0.1304445E+03  0.7818608E-02  0.1226798E+00
         21   -1    0    0  501  502  0.00000000000E+00  0.00000000000E+00  0.22642576607E+03  0.22642576607E+03  0.00000000000E+00 0.  1.
         -4   -1    0    0    0  501 -0.00000000000E+00 -0.00000000000E+00 -0.40967749405E+02  0.40987429674E+02  0.12700000000E+01 0.  1.
         25    2    1    2    0    0  0.19367306916E+02 -0.31919286566E+02  0.74244916902E+02  0.15009354739E+03  0.12498732675E+03 0.  0.
    9000005    1    3    3    0    0  0.38420879886E+02  0.39899814189E+02  0.23904072830E+02  0.60337085456E+02  0.10000000000E+01 0.  0.
    9000005    1    3    3    0    0 -0.19053572970E+02 -0.71819100755E+02  0.50340844073E+02  0.89756461930E+02  0.10000000000E+01 0.  0.
         -4    1    1    2    0  502 -0.19367306916E+02  0.31919286566E+02  0.11121309977E+03  0.11731964836E+03  0.12700000000E+01 0. -1.
<mgrwt>
<rscale>  1 0.13044449E+03</rscale>
<asrwt>0</asrwt>
<pdfrwt beam="1">  1       21 0.34834732E-01 0.13044449E+03</pdfrwt>
<pdfrwt beam="2">  1       -4 0.63045187E-02 0.13044449E+03</pdfrwt>
<totfact> 0.52628796E+04</totfact>
</mgrwt>
</event>
<event>
 6    4  0.6325740E-003  0.1268017E+03  0.7818608E-02  0.1232280E+00
          4   -1    0    0  502    0 -0.00000000000E+00  0.00000000000E+00  0.15175612887E+02  0.15228661350E+02  0.12700000000E+01 0. -1.
         21   -1    0    0  501  502  0.00000000000E+00 -0.00000000000E+00 -0.44355106308E+03  0.44355106308E+03  0.00000000000E+00 0.  1.
         25    2    1    2    0    0 -0.16265699109E+02 -0.13739763630E+02 -0.26231688805E+03  0.29135686747E+03  0.12500128156E+03 0.  0.
    9000005    1    3    3    0    0  0.43924541794E+02  0.69703114441E+01 -0.18942637030E+03  0.19457980465E+03  0.10000000000E+01 0.  0.
    9000005    1    3    3    0    0 -0.60190240903E+02 -0.20710075074E+02 -0.72890517750E+02  0.96777062817E+02  0.10000000000E+01 0.  0.
          4    1    1    2  501    0  0.16265699109E+02  0.13739763630E+02 -0.16605856215E+03  0.16742285697E+03  0.12700000000E+01 0.  1.
<mgrwt>
<rscale>  1 0.12680171E+03</rscale>
<asrwt>0</asrwt>
<pdfrwt beam="2">  1       21 0.68238620E-01 0.12680171E+03</pdfrwt>
<pdfrwt beam="1">  1        4 0.23389304E-02 0.12680171E+03</pdfrwt>
<totfact> 0.63246846E+04</totfact>
</mgrwt>
</event>
<event>
 6    4  0.6325740E-003  0.1266805E+03  0.7818608E-02  0.1232466E+00
         21   -1    0    0  501  502  0.00000000000E+00  0.00000000000E+00  0.73026190248E+01  0.73026190248E+01  0.00000000000E+00 0.  1.
          4   -1    0    0  502    0 -0.00000000000E+00 -0.00000000000E+00 -0.78407175648E+03  0.78407278502E+03  0.12700000000E+01 0.  1.
         25    2    1    2    0    0 -0.15665441819E+02 -0.13325782645E+02 -0.71821165436E+03  0.72929824016E+03  0.12499984032E+03 0.  0.
    9000005    1    3    3    0    0 -0.36817015856E+02  0.21888350637E+02 -0.89301908847E+02  0.99047581868E+02  0.10000000000E+01 0.  0.
    9000005    1    3    3    0    0  0.21151574037E+02 -0.35214133281E+02 -0.62890974552E+03  0.63025065829E+03  0.10000000000E+01 0.  0.
          4    1    1    2  501    0  0.15665441819E+02  0.13325782645E+02 -0.58557483092E+02  0.62077163889E+02  0.12700000000E+01 0. -1.
<mgrwt>
<rscale>  1 0.12668047E+03</rscale>
<asrwt>0</asrwt>
<pdfrwt beam="1">  1       21 0.11234800E-02 0.12668047E+03</pdfrwt>
<pdfrwt beam="2">  1        4 0.12063498E+00 0.12668047E+03</pdfrwt>
<totfact> 0.68107991E+04</totfact>
</mgrwt>
</event>
<event>
 6    4  0.6325740E-003  0.1269893E+03  0.7818608E-02  0.1231993E+00
         21   -1    0    0  501  502  0.00000000000E+00  0.00000000000E+00  0.29313114711E+02  0.29313114711E+02  0.00000000000E+00 0. -1.
          4   -1    0    0  502    0 -0.00000000000E+00 -0.00000000000E+00 -0.71137571642E+03  0.71137685007E+03  0.12700000000E+01 0.  1.
         25    2    1    2    0    0  0.20794854524E+02  0.82805371966E+01 -0.70034288011E+03  0.71176290567E+03  0.12500116356E+03 0.  0.
    9000005    1    3    3    0    0 -0.75114707306E+01  0.56448784346E+02 -0.51608789351E+03  0.51922114872E+03  0.10000000000E+01 0.  0.
    9000005    1    3    3    0    0  0.28306325254E+02 -0.48168247149E+02 -0.18425498660E+03  0.19254175695E+03  0.10000000000E+01 0.  0.
          4    1    1    2  501    0 -0.20794854524E+02 -0.82805371966E+01  0.18280278395E+02  0.28927059117E+02  0.12700000000E+01 0. -1.
<mgrwt>
<rscale>  1 0.12698931E+03</rscale>
<asrwt>0</asrwt>
<pdfrwt beam="1">  1       21 0.45097097E-02 0.12698931E+03</pdfrwt>
<pdfrwt beam="2">  1        4 0.10944463E+00 0.12698931E+03</pdfrwt>
<totfact> 0.90075303E+03</totfact>
</mgrwt>
</event>
<event>
 6    4  0.6325740E-003  0.1288042E+03  0.7818608E-02  0.1229241E+00
         21   -1    0    0  501  502  0.00000000000E+00  0.00000000000E+00  0.81420676673E+03  0.81420676673E+03  0.00000000000E+00 0.  1.
          4   -1    0    0  502    0 -0.00000000000E+00 -0.00000000000E+00 -0.95887233569E+01  0.96724617143E+01  0.12700000000E+01 0.  1.
         25    2    1    2    0    0  0.20376541913E+02  0.23460386347E+02  0.45498123871E+03  0.47286199060E+03  0.12499976556E+03 0.  0.
    9000005    1    3    3    0    0  0.30097507988E+02  0.51027088080E+02  0.96836690530E+02  0.11352518812E+03  0.10000000000E+01 0.  0.
    9000005    1    3    3    0    0 -0.97209660755E+01 -0.27566701733E+02  0.35814454818E+03  0.35933680248E+03  0.10000000000E+01 0.  0.
          4    1    1    2  501    0 -0.20376541913E+02 -0.23460386347E+02  0.34963680467E+03  0.35101723785E+03  0.12700000000E+01 0. -1.
<mgrwt>
<rscale>  1 0.12880425E+03</rscale>
<asrwt>0</asrwt>
<pdfrwt beam="1">  1       21 0.12526253E+00 0.12880425E+03</pdfrwt>
<pdfrwt beam="2">  1        4 0.14817065E-02 0.12880425E+03</pdfrwt>
<totfact> 0.31462117E+04</totfact>
</mgrwt>
</event>
<event>
 6    4  0.6325740E-003  0.1288692E+03  0.7818608E-02  0.1229143E+00
         21   -1    0    0  501  502  0.00000000000E+00  0.00000000000E+00  0.60738604745E+02  0.60738604745E+02  0.00000000000E+00 0. -1.
         -4   -1    0    0    0  501 -0.00000000000E+00 -0.00000000000E+00 -0.11286721823E+03  0.11287436313E+03  0.12700000000E+01 0. -1.
         25    2    1    2    0    0 -0.24076188209E+02 -0.20064632554E+02 -0.23195757980E+02  0.13094008016E+03  0.12500003634E+03 0.  0.
    9000005    1    3    3    0    0 -0.70187182461E+02 -0.17421783881E+02  0.11410172915E+02  0.73218516656E+02  0.10000000000E+01 0.  0.
    9000005    1    3    3    0    0  0.46110994252E+02 -0.26428486722E+01 -0.34605930896E+02  0.57721563502E+02  0.10000000000E+01 0.  0.
         -4    1    1    2    0  502  0.24076188209E+02  0.20064632554E+02 -0.28932855508E+02  0.42672887716E+02  0.12700000000E+01 0.  1.
<mgrwt>
<rscale>  1 0.12886916E+03</rscale>
<asrwt>0</asrwt>
<pdfrwt beam="1">  1       21 0.93444008E-02 0.12886916E+03</pdfrwt>
<pdfrwt beam="2">  1       -4 0.17365758E-01 0.12886916E+03</pdfrwt>
<totfact> 0.10624561E+05</totfact>
</mgrwt>
</event>
<event>
 6    4  0.6325740E-003  0.1557724E+03  0.7818608E-02  0.1193554E+00
          4   -1    0    0  502    0 -0.00000000000E+00  0.00000000000E+00  0.36466146913E+03  0.36466368063E+03  0.12700000000E+01 0.  1.
         21   -1    0    0  501  502  0.00000000000E+00 -0.00000000000E+00 -0.43038031170E+02  0.43038031170E+02  0.00000000000E+00 0. -1.
         25    2    1    2    0    0 -0.57104586274E+02 -0.73367303005E+02  0.22446715549E+03  0.27322252736E+03  0.12498540170E+03 0.  0.
    9000005    1    3    3    0    0 -0.92793847403E+02 -0.69835242208E+02  0.19421854225E+03  0.22629516417E+03  0.10000000000E+01 0.  0.
    9000005    1    3    3    0    0  0.35689261129E+02 -0.35320607967E+01  0.30248613235E+02  0.46927363191E+02  0.10000000000E+01 0.  0.
          4    1    1    2  501    0  0.57104586274E+02  0.73367303005E+02  0.97156282474E+02  0.13447918444E+03  0.12700000000E+01 0. -1.
<mgrwt>
<rscale>  1 0.15577242E+03</rscale>
<asrwt>0</asrwt>
<pdfrwt beam="2">  1       21 0.66212358E-02 0.15577242E+03</pdfrwt>
<pdfrwt beam="1">  1        4 0.56103374E-01 0.15577242E+03</pdfrwt>
<totfact> 0.20990918E+04</totfact>
</mgrwt>
</event>
<event>
 6    4  0.6325740E-003  0.1278627E+03  0.7818608E-02  0.1230662E+00
         21   -1    0    0  501  502  0.00000000000E+00  0.00000000000E+00  0.26713155047E+02  0.26713155047E+02  0.00000000000E+00 0. -1.
         -4   -1    0    0    0  501 -0.00000000000E+00 -0.00000000000E+00 -0.30757305059E+03  0.30757567256E+03  0.12700000000E+01 0.  1.
         25    2    1    2    0    0  0.22767411385E+01  0.26820134416E+02 -0.27944137935E+03  0.30730497598E+03  0.12499744240E+03 0.  0.
    9000005    1    3    3    0    0  0.16063236865E+02 -0.14822508515E+02 -0.25717050704E+03  0.25809960099E+03  0.10000000000E+01 0.  0.
    9000005    1    3    3    0    0 -0.13786495726E+02  0.41642642931E+02 -0.22270872310E+02  0.49205374992E+02  0.10000000000E+01 0.  0.
         -4    1    1    2    0  502 -0.22767411385E+01 -0.26820134416E+02 -0.14185161895E+01  0.26983851624E+02  0.12700000000E+01 0. -1.
<mgrwt>
<rscale>  1 0.12786268E+03</rscale>
<asrwt>0</asrwt>
<pdfrwt beam="1">  1       21 0.41097163E-02 0.12786268E+03</pdfrwt>
<pdfrwt beam="2">  1       -4 0.47321454E-01 0.12786268E+03</pdfrwt>
<totfact> 0.64992418E+04</totfact>
</mgrwt>
</event>
<event>
 6    4  0.6325740E-003  0.1309096E+03  0.7818608E-02  0.1226112E+00
         21   -1    0    0  501  502  0.00000000000E+00  0.00000000000E+00  0.48817169459E+01  0.48817169459E+01  0.00000000000E+00 0. -1.
          4   -1    0    0  502    0 -0.00000000000E+00 -0.00000000000E+00 -0.18195926739E+04  0.18195931171E+04  0.12700000000E+01 0. -1.
         25    2    1    2    0    0  0.38065278205E+02 -0.79733507119E+01 -0.16518744859E+04  0.16570536020E+04  0.12499913241E+03 0.  0.
    9000005    1    3    3    0    0  0.89088992754E+01 -0.64223796533E+02 -0.10024033979E+04  0.10044986992E+04  0.10000000000E+01 0.  0.
    9000005    1    3    3    0    0  0.29156378930E+02  0.56250445821E+02 -0.64947108794E+03  0.65255490279E+03  0.10000000000E+01 0.  0.
          4    1    1    2  501    0 -0.38065278205E+02  0.79733507119E+01 -0.16283647110E+03  0.16742123207E+03  0.12700000000E+01 0.  1.
<mgrwt>
<rscale>  1 0.13090960E+03</rscale>
<asrwt>0</asrwt>
<pdfrwt beam="1">  1       21 0.75103197E-03 0.13090960E+03</pdfrwt>
<pdfrwt beam="2">  1        4 0.27995060E+00 0.13090960E+03</pdfrwt>
<totfact> 0.11818128E+04</totfact>
</mgrwt>
</event>
<event>
 6    4  0.6325740E-003  0.1330082E+03  0.7818608E-02  0.1223059E+00
         -4   -1    0    0    0  501 -0.00000000000E+00  0.00000000000E+00  0.83379024368E+01  0.84340688310E+01  0.12700000000E+01 0. -1.
         21   -1    0    0  501  502  0.00000000000E+00 -0.00000000000E+00 -0.11435369361E+04  0.11435369361E+04  0.00000000000E+00 0.  1.
         25    2    1    2    0    0 -0.34020734695E+02  0.30144048620E+02 -0.58658887487E+03  0.60147959420E+03  0.12500048025E+03 0.  0.
    9000005    1    3    3    0    0 -0.35893243327E+02  0.43518777263E+01 -0.38667951922E+02  0.52947844735E+02  0.10000000000E+01 0.  0.
    9000005    1    3    3    0    0  0.18725086313E+01  0.25792170894E+02 -0.54792092295E+03  0.54853174947E+03  0.10000000000E+01 0.  0.
         -4    1    1    2    0  502  0.34020734695E+02 -0.30144048620E+02 -0.54861015882E+03  0.55049141076E+03  0.12700000000E+01 0.  1.
<mgrwt>
<rscale>  1 0.13300825E+03</rscale>
<asrwt>0</asrwt>
<pdfrwt beam="2">  1       21 0.17592875E+00 0.13300825E+03</pdfrwt>
<pdfrwt beam="1">  1       -4 0.12902060E-02 0.13300825E+03</pdfrwt>
<totfact> 0.16131470E+04</totfact>
</mgrwt>
</event>
<event>
 6    4  0.6325740E-003  0.1284106E+03  0.7818608E-02  0.1229833E+00
         21   -1    0    0  501  502  0.00000000000E+00  0.00000000000E+00  0.51681366348E+01  0.51681366348E+01  0.00000000000E+00 0.  1.
          4   -1    0    0  502    0 -0.00000000000E+00 -0.00000000000E+00 -0.13320771413E+04  0.13320777467E+04  0.12700000000E+01 0.  1.
         25    2    1    2    0    0 -0.29320573753E+02 -0.20958659821E+01 -0.87408111117E+03  0.88346311293E+03  0.12500077719E+03 0.  0.
    9000005    1    3    3    0    0  0.27847362407E+02 -0.67663377982E+01 -0.69122035866E+03  0.69181489081E+03  0.10000000000E+01 0.  0.
    9000005    1    3    3    0    0 -0.57167936160E+02  0.46704718160E+01 -0.18286075251E+03  0.19164822211E+03  0.10000000000E+01 0.  0.
          4    1    1    2  501    0  0.29320573753E+02  0.20958659821E+01 -0.45282789353E+03  0.45378277045E+03  0.12700000000E+01 0. -1.
<mgrwt>
<rscale>  1 0.12841060E+03</rscale>
<asrwt>0</asrwt>
<pdfrwt beam="1">  1       21 0.79509823E-03 0.12841060E+03</pdfrwt>
<pdfrwt beam="2">  1        4 0.20494692E+00 0.12841060E+03</pdfrwt>
<totfact> 0.29572910E+04</totfact>
</mgrwt>
</event>
<event>
 6    4  0.6325740E-003  0.1267034E+03  0.7818608E-02  0.1232431E+00
         21   -1    0    0  501  502  0.00000000000E+00  0.00000000000E+00  0.39487563831E+02  0.39487563831E+02  0.00000000000E+00 0.  1.
         -4   -1    0    0    0  501 -0.00000000000E+00 -0.00000000000E+00 -0.18486174305E+03  0.18486610544E+03  0.12700000000E+01 0. -1.
         25    2    1    2    0    0 -0.47809441203E+01 -0.20223520611E+02 -0.15600577872E+03  0.20097650049E+03  0.12498760956E+03 0.  0.
    9000005    1    3    3    0    0 -0.51166058621E+02  0.29192252771E+02 -0.71730400617E+02  0.92824584832E+02  0.10000000000E+01 0.  0.
    9000005    1    3    3    0    0  0.46385114501E+02 -0.49415773382E+02 -0.84275378100E+02  0.10815191566E+03  0.10000000000E+01 0.  0.
         -4    1    1    2    0  502  0.47809441203E+01  0.20223520611E+02  0.10631599501E+02  0.23377168788E+02  0.12700000000E+01 0.  1.
<mgrwt>
<rscale>  1 0.12670340E+03</rscale>
<asrwt>0</asrwt>
<pdfrwt beam="1">  1       21 0.60750097E-02 0.12670340E+03</pdfrwt>
<pdfrwt beam="2">  1       -4 0.28442175E-01 0.12670340E+03</pdfrwt>
<totfact> 0.90504648E+04</totfact>
</mgrwt>
</event>
<event>
 6    4  0.6325740E-003  0.1311695E+03  0.7818608E-02  0.1225731E+00
          4   -1    0    0  502    0 -0.00000000000E+00  0.00000000000E+00  0.90019954278E+02  0.90028912401E+02  0.12700000000E+01 0. -1.
         21   -1    0    0  501  502  0.00000000000E+00 -0.00000000000E+00 -0.94307677727E+02  0.94307677727E+02  0.00000000000E+00 0.  1.
         25    2    1    2    0    0  0.38301872226E+02  0.10657990025E+02  0.26766628197E+02  0.13387262453E+03  0.12499920419E+03 0.  0.
    9000005    1    3    3    0    0  0.58334492758E+02  0.50967930240E+02 -0.67192513198E+01  0.77761116868E+02  0.10000000000E+01 0.  0.
    9000005    1    3    3    0    0 -0.20032620532E+02 -0.40309940215E+02  0.33485879516E+02  0.56111507666E+02  0.10000000000E+01 0.  0.
          4    1    1    2  501    0 -0.38301872226E+02 -0.10657990025E+02 -0.31054351646E+02  0.50463965594E+02  0.12700000000E+01 0.  1.
<mgrwt>
<rscale>  1 0.13116946E+03</rscale>
<asrwt>0</asrwt>
<pdfrwt beam="2">  1       21 0.14508874E-01 0.13116946E+03</pdfrwt>
<pdfrwt beam="1">  1        4 0.13850571E-01 0.13116946E+03</pdfrwt>
<totfact> 0.72661853E+04</totfact>
</mgrwt>
</event>
<event>
 6    4  0.6325740E-003  0.1293636E+03  0.7818608E-02  0.1228403E+00
          4   -1    0    0  502    0 -0.00000000000E+00  0.00000000000E+00  0.72501498136E+02  0.72512620501E+02  0.12700000000E+01 0. -1.
         21   -1    0    0  501  502  0.00000000000E+00 -0.00000000000E+00 -0.94446622794E+02  0.94446622794E+02  0.00000000000E+00 0. -1.
         25    2    1    2    0    0  0.25421590420E+02  0.21649492613E+02 -0.49204493270E+01  0.12945710656E+03  0.12497989369E+03 0.  0.
    9000005    1    3    3    0    0  0.16844074520E+02  0.53352995791E+02  0.43544024862E+02  0.70903787681E+02  0.10000000000E+01 0.  0.
    9000005    1    3    3    0    0  0.85775159003E+01 -0.31703503178E+02 -0.48464474189E+02  0.58553318874E+02  0.10000000000E+01 0.  0.
          4    1    1    2  501    0 -0.25421590420E+02 -0.21649492613E+02 -0.17024675331E+02  0.37502136739E+02  0.12700000000E+01 0.  1.
<mgrwt>
<rscale>  1 0.12936356E+03</rscale>
<asrwt>0</asrwt>
<pdfrwt beam="2">  1       21 0.14530250E-01 0.12936356E+03</pdfrwt>
<pdfrwt beam="1">  1        4 0.11155589E-01 0.12936356E+03</pdfrwt>
<totfact> 0.10482207E+05</totfact>
</mgrwt>
</event>
<event>
 6    4  0.6325740E-003  0.1341665E+03  0.7818608E-02  0.1221401E+00
         21   -1    0    0  501  502  0.00000000000E+00  0.00000000000E+00  0.15872267625E+03  0.15872267625E+03  0.00000000000E+00 0.  1.
         -4   -1    0    0    0  501 -0.00000000000E+00 -0.00000000000E+00 -0.62139775321E+02  0.62152751966E+02  0.12700000000E+01 0. -1.
         25    2    1    2    0    0 -0.34027859423E+02  0.34889113503E+02  0.28537360802E+02  0.13716787844E+03  0.12500200181E+03 0.  0.
    9000005    1    3    3    0    0 -0.60075008688E+02  0.49525741495E+02  0.56524127315E+02  0.96217372174E+02  0.10000000000E+01 0.  0.
    9000005    1    3    3    0    0  0.26047149264E+02 -0.14636627992E+02 -0.27986766513E+02  0.40950506268E+02  0.10000000000E+01 0.  0.
         -4    1    1    2    0  502  0.34027859423E+02 -0.34889113503E+02  0.68045540127E+02  0.83707549774E+02  0.12700000000E+01 0.  1.
<mgrwt>
<rscale>  1 0.13416649E+03</rscale>
<asrwt>0</asrwt>
<pdfrwt beam="1">  1       21 0.24418873E-01 0.13416649E+03</pdfrwt>
<pdfrwt beam="2">  1       -4 0.95613545E-02 0.13416649E+03</pdfrwt>
<totfact> 0.52553650E+04</totfact>
</mgrwt>
</event>
<event>
 6    4  0.6325740E-003  0.1276081E+03  0.7818608E-02  0.1231049E+00
         -4   -1    0    0    0  501 -0.00000000000E+00  0.00000000000E+00  0.16226085423E+03  0.16226582423E+03  0.12700000000E+01 0.  1.
         21   -1    0    0  501  502  0.00000000000E+00 -0.00000000000E+00 -0.41901340369E+02  0.41901340369E+02  0.00000000000E+00 0.  1.
         25    2    1    2    0    0 -0.76907373187E+01 -0.24453047094E+02  0.12437019768E+03  0.17819030110E+03  0.12500695333E+03 0.  0.
    9000005    1    3    3    0    0 -0.56013245128E+02  0.23386501084E+01  0.10606815224E+03  0.11997668871E+03  0.10000000000E+01 0.  0.
    9000005    1    3    3    0    0  0.48322507809E+02 -0.26791697203E+02  0.18302045444E+02  0.58213612389E+02  0.10000000000E+01 0.  0.
         -4    1    1    2    0  502  0.76907373187E+01  0.24453047094E+02 -0.40106838282E+01  0.25976863503E+02  0.12700000000E+01 0. -1.
<mgrwt>
<rscale>  1 0.12760814E+03</rscale>
<asrwt>0</asrwt>
<pdfrwt beam="2">  1       21 0.64463602E-02 0.12760814E+03</pdfrwt>
<pdfrwt beam="1">  1       -4 0.24965071E-01 0.12760814E+03</pdfrwt>
<totfact> 0.10437099E+05</totfact>
</mgrwt>
</event>
<event>
 6    4  0.6325740E-003  0.1267440E+03  0.7818608E-02  0.1232369E+00
         21   -1    0    0  501  502  0.00000000000E+00  0.00000000000E+00  0.34516451331E+03  0.34516451331E+03  0.00000000000E+00 0.  1.
          4   -1    0    0  502    0 -0.00000000000E+00 -0.00000000000E+00 -0.16848766731E+02  0.16896562974E+02  0.12700000000E+01 0.  1.
         25    2    1    2    0    0 -0.11503003256E+02 -0.17483034975E+02  0.24137334571E+03  0.27262635392E+03  0.12500424487E+03 0.  0.
    9000005    1    3    3    0    0 -0.44081311217E+02  0.29764942023E+02  0.18373663128E+03  0.19128320221E+03  0.10000000000E+01 0.  0.
    9000005    1    3    3    0    0  0.32578307961E+02 -0.47247976998E+02  0.57636714429E+02  0.81343151710E+02  0.10000000000E+01 0.  0.
          4    1    1    2  501    0  0.11503003256E+02  0.17483034975E+02  0.86942400871E+02  0.89434722368E+02  0.12700000000E+01 0. -1.
<mgrwt>
<rscale>  1 0.12674398E+03</rscale>
<asrwt>0</asrwt>
<pdfrwt beam="1">  1       21 0.53102228E-01 0.12674398E+03</pdfrwt>
<pdfrwt beam="2">  1        4 0.25959746E-02 0.12674398E+03</pdfrwt>
<totfact> 0.91651022E+04</totfact>
</mgrwt>
</event>
<event>
 6    4  0.6325740E-003  0.1403809E+03  0.7818608E-02  0.1212817E+00
          4   -1    0    0  502    0 -0.00000000000E+00  0.00000000000E+00  0.94248056182E+01  0.95099874311E+01  0.12700000000E+01 0.  1.
         21   -1    0    0  501  502  0.00000000000E+00 -0.00000000000E+00 -0.29607864169E+04  0.29607864169E+04  0.00000000000E+00 0. -1.
         25    2    1    2    0    0 -0.58743087191E+02  0.25123504165E+02 -0.53565100234E+03  0.55374073566E+03  0.12499946105E+03 0.  0.
    9000005    1    3    3    0    0 -0.71956215859E+02 -0.31583330834E+02 -0.24439198355E+03  0.25671705322E+03  0.10000000000E+01 0.  0.
    9000005    1    3    3    0    0  0.13213128668E+02  0.56706834998E+02 -0.29125901879E+03  0.29702368244E+03  0.10000000000E+01 0.  0.
          4    1    1    2  501    0  0.58743087191E+02 -0.25123504165E+02 -0.24157106089E+04  0.24165556687E+04  0.12700000000E+01 0. -1.
<mgrwt>
<rscale>  1 0.14038093E+03</rscale>
<asrwt>0</asrwt>
<pdfrwt beam="2">  1       21 0.45550600E+00 0.14038093E+03</pdfrwt>
<pdfrwt beam="1">  1        4 0.14565422E-02 0.14038093E+03</pdfrwt>
<totfact> 0.28242552E+02</totfact>
</mgrwt>
</event>
<event>
 6    4  0.6325740E-003  0.1275311E+03  0.7818608E-02  0.1231166E+00
          4   -1    0    0  502    0 -0.00000000000E+00  0.00000000000E+00  0.48891210958E+02  0.48907702961E+02  0.12700000000E+01 0.  1.
         21   -1    0    0  501  502  0.00000000000E+00 -0.00000000000E+00 -0.11939505540E+03  0.11939505540E+03  0.00000000000E+00 0.  1.
         25    2    1    2    0    0  0.22929303603E+02 -0.10593484851E+02 -0.58489806123E+02  0.14030409944E+03  0.12500483196E+03 0.  0.
    9000005    1    3    3    0    0 -0.11061291469E+02  0.53535442637E+02 -0.20639864607E+02  0.58441421940E+02  0.10000000000E+01 0.  0.
    9000005    1    3    3    0    0  0.33990595072E+02 -0.64128927488E+02 -0.37849941516E+02  0.81862677496E+02  0.10000000000E+01 0.  0.
          4    1    1    2  501    0 -0.22929303603E+02  0.10593484851E+02 -0.12014038323E+02  0.27998658930E+02  0.12700000000E+01 0. -1.
<mgrwt>
<rscale>  1 0.12753111E+03</rscale>
<asrwt>0</asrwt>
<pdfrwt beam="2">  1       21 0.18368470E-01 0.12753111E+03</pdfrwt>
<pdfrwt beam="1">  1        4 0.75235129E-02 0.12753111E+03</pdfrwt>
<totfact> 0.13206405E+05</totfact>
</mgrwt>
</event>
<event>
 6    4  0.6325740E-003  0.1268999E+03  0.7818608E-02  0.1232130E+00
         -4   -1    0    0    0  501 -0.00000000000E+00  0.00000000000E+00  0.36596520259E+03  0.36596740621E+03  0.12700000000E+01 0.  1.
         21   -1    0    0  501  502  0.00000000000E+00 -0.00000000000E+00 -0.64279519060E+02  0.64279519060E+02  0.00000000000E+00 0. -1.
         25    2    1    2    0    0 -0.21724459849E+02 -0.26599333924E+01  0.35263911919E+03  0.37477717759E+03  0.12499822823E+03 0.  0.
    9000005    1    3    3    0    0 -0.17420250981E+02  0.40256150702E+01 -0.37518691104E+01  0.18296099114E+02  0.10000000000E+01 0.  0.
    9000005    1    3    3    0    0 -0.43042088675E+01 -0.66855484626E+01  0.35639098830E+03  0.35648107848E+03  0.10000000000E+01 0.  0.
         -4    1    1    2    0  502  0.21724459849E+02  0.26599333924E+01 -0.50953435660E+02  0.55469747674E+02  0.12700000000E+01 0. -1.
<mgrwt>
<rscale>  1 0.12689990E+03</rscale>
<asrwt>0</asrwt>
<pdfrwt beam="2">  1       21 0.98891569E-02 0.12689990E+03</pdfrwt>
<pdfrwt beam="1">  1       -4 0.56303472E-01 0.12689990E+03</pdfrwt>
<totfact> 0.10208343E+04</totfact>
</mgrwt>
</event>
<event>
 6    4  0.6325740E-003  0.1356086E+03  0.7818608E-02  0.1219363E+00
         -4   -1    0    0    0  501 -0.00000000000E+00  0.00000000000E+00  0.16267146167E+03  0.16267641913E+03  0.12700000000E+01 0. -1.
         21   -1    0    0  501  502  0.00000000000E+00 -0.00000000000E+00 -0.11757319069E+03  0.11757319069E+03  0.00000000000E+00 0.  1.
         25    2    1    2    0    0 -0.10864958845E+02  0.51443659095E+02  0.12510652281E+03  0.18450290933E+03  0.12500073644E+03 0.  0.
    9000005    1    3    3    0    0  0.45684420097E+02  0.60737083975E+02  0.54327024326E+02  0.93426362348E+02  0.10000000000E+01 0.  0.
    9000005    1    3    3    0    0 -0.56549378942E+02 -0.92934248800E+01  0.70779498489E+02  0.91076546987E+02  0.10000000000E+01 0.  0.
         -4    1    1    2    0  502  0.10864958845E+02 -0.51443659095E+02 -0.80008251832E+02  0.95746700482E+02  0.12700000000E+01 0.  1.
<mgrwt>
<rscale>  1 0.13560856E+03</rscale>
<asrwt>0</asrwt>
<pdfrwt beam="2">  1       21 0.18088183E-01 0.13560856E+03</pdfrwt>
<pdfrwt beam="1">  1       -4 0.25027287E-01 0.13560856E+03</pdfrwt>
<totfact> 0.16988966E+04</totfact>
</mgrwt>
</event>
<event>
 6    4  0.6325740E-003  0.1303863E+03  0.7818608E-02  0.1226884E+00
         21   -1    0    0  501  502  0.00000000000E+00  0.00000000000E+00  0.50044615408E+02  0.50044615408E+02  0.00000000000E+00 0.  1.
         -4   -1    0    0    0  501 -0.00000000000E+00 -0.00000000000E+00 -0.15660845028E+03  0.15661359966E+03  0.12700000000E+01 0. -1.
         25    2    1    2    0    0 -0.33782593108E+02 -0.15242473042E+02 -0.10835248314E+03  0.16953128759E+03  0.12500800090E+03 0.  0.
    9000005    1    3    3    0    0  0.41138244013E+01 -0.26613489614E+02 -0.12405772351E+03  0.12695085719E+03  0.10000000000E+01 0.  0.
    9000005    1    3    3    0    0 -0.37896417509E+02  0.11371016572E+02  0.15705240365E+02  0.42580430397E+02  0.10000000000E+01 0.  0.
         -4    1    1    2    0  502  0.33782593108E+02  0.15242473042E+02  0.17886482680E+01  0.37126927480E+02  0.12700000000E+01 0.  1.
<mgrwt>
<rscale>  1 0.13038634E+03</rscale>
<asrwt>0</asrwt>
<pdfrwt beam="1">  1       21 0.76991717E-02 0.13038634E+03</pdfrwt>
<pdfrwt beam="2">  1       -4 0.24095243E-01 0.13038634E+03</pdfrwt>
<totfact> 0.82464816E+04</totfact>
</mgrwt>
</event>
<event>
 6    4  0.6325740E-003  0.1309740E+03  0.7818608E-02  0.1226018E+00
         -4   -1    0    0    0  501 -0.00000000000E+00  0.00000000000E+00  0.20181950375E+04  0.20181954371E+04  0.12700000000E+01 0.  1.
         21   -1    0    0  501  502  0.00000000000E+00 -0.00000000000E+00 -0.11805322117E+02  0.11805322117E+02  0.00000000000E+00 0. -1.
         25    2    1    2    0    0 -0.10547191344E+01 -0.39059363684E+02  0.19763836255E+04  0.19807186666E+04  0.12500981773E+03 0.  0.
    9000005    1    3    3    0    0 -0.32035880733E+02 -0.11061352009E+02  0.14705783486E+03  0.15091606261E+03  0.10000000000E+01 0.  0.
    9000005    1    3    3    0    0  0.30981161599E+02 -0.27998011675E+02  0.18293257907E+04  0.18298026040E+04  0.10000000000E+01 0.  0.
         -4    1    1    2    0  502  0.10547191344E+01  0.39059363684E+02  0.30006089797E+02  0.49282092577E+02  0.12700000000E+01 0. -1.
<mgrwt>
<rscale>  1 0.13097405E+03</rscale>
<asrwt>0</asrwt>
<pdfrwt beam="2">  1       21 0.18162050E-02 0.13097405E+03</pdfrwt>
<pdfrwt beam="1">  1       -4 0.31049656E+00 0.13097405E+03</pdfrwt>
<totfact> 0.19440972E+03</totfact>
</mgrwt>
</event>
<event>
 6    4  0.6325740E-003  0.1383001E+03  0.7818608E-02  0.1215635E+00
          4   -1    0    0  502    0 -0.00000000000E+00  0.00000000000E+00  0.37879412300E+02  0.37900696250E+02  0.12700000000E+01 0.  1.
         21   -1    0    0  501  502  0.00000000000E+00 -0.00000000000E+00 -0.34547650382E+03  0.34547650382E+03  0.00000000000E+00 0. -1.
         25    2    1    2    0    0  0.55334053333E+02  0.20956994191E+02 -0.10882786598E+03  0.17598416502E+03  0.12500347540E+03 0.  0.
    9000005    1    3    3    0    0  0.29817722250E+02 -0.10718494977E+02  0.22254202869E+02  0.38732831553E+02  0.10000000000E+01 0.  0.
    9000005    1    3    3    0    0  0.25516331083E+02  0.31675489168E+02 -0.13108206885E+03  0.13725133347E+03  0.10000000000E+01 0.  0.
          4    1    1    2  501    0 -0.55334053333E+02 -0.20956994191E+02 -0.19876922554E+03  0.20739303505E+03  0.12700000000E+01 0. -1.
<mgrwt>
<rscale>  1 0.13830012E+03</rscale>
<asrwt>0</asrwt>
<pdfrwt beam="2">  1       21 0.53150232E-01 0.13830012E+03</pdfrwt>
<pdfrwt beam="1">  1        4 0.58294187E-02 0.13830012E+03</pdfrwt>
<totfact> 0.25587157E+04</totfact>
</mgrwt>
</event>
<event>
 6    4  0.6325740E-003  0.1775136E+03  0.7818608E-02  0.1170231E+00
         21   -1    0    0  501  502  0.00000000000E+00  0.00000000000E+00  0.28919817123E+03  0.28919817123E+03  0.00000000000E+00 0.  1.
          4   -1    0    0  502    0 -0.00000000000E+00 -0.00000000000E+00 -0.18611321859E+03  0.18611755166E+03  0.12700000000E+01 0. -1.
         25    2    1    2    0    0 -0.12287744212E+03  0.28052151442E+02 -0.12335015077E+03  0.21616276046E+03  0.12500116132E+03 0.  0.
    9000005    1    3    3    0    0 -0.62594892540E+02  0.72561947035E+02 -0.39368938027E+02  0.10360632225E+03  0.10000000000E+01 0.  0.
    9000005    1    3    3    0    0 -0.60282549580E+02 -0.44509795593E+02 -0.83981212739E+02  0.11255643820E+03  0.10000000000E+01 0.  0.
          4    1    1    2  501    0  0.12287744212E+03 -0.28052151442E+02  0.22643510340E+03  0.25915296243E+03  0.12700000000E+01 0.  1.
<mgrwt>
<rscale>  1 0.17751360E+03</rscale>
<asrwt>0</asrwt>
<pdfrwt beam="1">  1       21 0.44492026E-01 0.17751360E+03</pdfrwt>
<pdfrwt beam="2">  1        4 0.28633351E-01 0.17751360E+03</pdfrwt>
<totfact> 0.23639264E+03</totfact>
</mgrwt>
</event>
<event>
 6    4  0.6325740E-003  0.1272906E+03  0.7818608E-02  0.1231532E+00
         21   -1    0    0  501  502  0.00000000000E+00  0.00000000000E+00  0.12642732035E+02  0.12642732035E+02  0.00000000000E+00 0. -1.
          4   -1    0    0  502    0 -0.00000000000E+00 -0.00000000000E+00 -0.46190057616E+03  0.46190232209E+03  0.12700000000E+01 0. -1.
         25    2    1    2    0    0  0.84700796268E+01  0.22537395012E+02 -0.39881926629E+03  0.41864031858E+03  0.12499293082E+03 0.  0.
    9000005    1    3    3    0    0 -0.22610437709E+02  0.62099430865E+02 -0.30601474253E+03  0.31307122808E+03  0.10000000000E+01 0.  0.
    9000005    1    3    3    0    0  0.31080517335E+02 -0.39562035853E+02 -0.92804523765E+02  0.10556909050E+03  0.10000000000E+01 0.  0.
          4    1    1    2  501    0 -0.84700796268E+01 -0.22537395012E+02 -0.50438577831E+02  0.55904735546E+02  0.12700000000E+01 0.  1.
<mgrwt>
<rscale>  1 0.12729065E+03</rscale>
<asrwt>0</asrwt>
<pdfrwt beam="1">  1       21 0.19450357E-02 0.12729065E+03</pdfrwt>
<pdfrwt beam="2">  1        4 0.71066670E-01 0.12729065E+03</pdfrwt>
<totfact> 0.94552117E+04</totfact>
</mgrwt>
</event>
<event>
 6    4  0.6325740E-003  0.1282624E+03  0.7818608E-02  0.1230057E+00
         21   -1    0    0  501  502  0.00000000000E+00  0.00000000000E+00  0.95230711004E+02  0.95230711004E+02  0.00000000000E+00 0. -1.
         -4   -1    0    0    0  501 -0.00000000000E+00 -0.00000000000E+00 -0.20927130939E+03  0.20927516297E+03  0.12700000000E+01 0.  1.
         25    2    1    2    0    0 -0.28586956876E+02  0.29864839218E+01 -0.18661147410E+03  0.22644001657E+03  0.12500042258E+03 0.  0.
    9000005    1    3    3    0    0 -0.44919682182E+02  0.56401429154E+02 -0.97589278717E+02  0.12134070372E+03  0.10000000000E+01 0.  0.
    9000005    1    3    3    0    0  0.16332725306E+02 -0.53414945232E+02 -0.89022195388E+02  0.10509931285E+03  0.10000000000E+01 0.  0.
         -4    1    1    2    0  502  0.28586956876E+02 -0.29864839218E+01  0.72570875717E+02  0.78065857403E+02  0.12700000000E+01 0. -1.
<mgrwt>
<rscale>  1 0.12826238E+03</rscale>
<asrwt>0</asrwt>
<pdfrwt beam="1">  1       21 0.14650879E-01 0.12826238E+03</pdfrwt>
<pdfrwt beam="2">  1       -4 0.32196533E-01 0.12826238E+03</pdfrwt>
<totfact> 0.15448784E+04</totfact>
</mgrwt>
</event>
<event>
 6    4  0.6325740E-003  0.1268639E+03  0.7818608E-02  0.1232185E+00
         21   -1    0    0  501  502  0.00000000000E+00  0.00000000000E+00  0.14233334943E+04  0.14233334943E+04  0.00000000000E+00 0.  1.
          4   -1    0    0  502    0 -0.00000000000E+00 -0.00000000000E+00 -0.38229950860E+01  0.40284229454E+01  0.12700000000E+01 0.  1.
         25    2    1    2    0    0 -0.15703133258E+02 -0.14915644949E+02  0.11488695416E+04  0.11558527908E+04  0.12500154289E+03 0.  0.
    9000005    1    3    3    0    0 -0.83665776387E+01  0.19348891697E+02  0.10615435711E+04  0.10617533295E+04  0.10000000000E+01 0.  0.
    9000005    1    3    3    0    0 -0.73365556195E+01 -0.34264536646E+02  0.87325970432E+02  0.94099461379E+02  0.10000000000E+01 0.  0.
          4    1    1    2  501    0  0.15703133258E+02  0.14915644949E+02  0.27064095769E+03  0.27150912644E+03  0.12700000000E+01 0. -1.
<mgrwt>
<rscale>  1 0.12686391E+03</rscale>
<asrwt>0</asrwt>
<pdfrwt beam="1">  1       21 0.21897397E+00 0.12686391E+03</pdfrwt>
<pdfrwt beam="2">  1        4 0.60399996E-03 0.12686391E+03</pdfrwt>
<totfact> 0.26771749E+04</totfact>
</mgrwt>
</event>
<event>
 6    4  0.6325740E-003  0.1277211E+03  0.7818608E-02  0.1230877E+00
          4   -1    0    0  502    0 -0.00000000000E+00  0.00000000000E+00  0.25127250734E+03  0.25127571678E+03  0.12700000000E+01 0.  1.
         21   -1    0    0  501  502  0.00000000000E+00 -0.00000000000E+00 -0.30350187426E+02  0.30350187426E+02  0.00000000000E+00 0.  1.
         25    2    1    2    0    0 -0.26226736407E+02 -0.51696945543E+00  0.22112746271E+03  0.25536254678E+03  0.12499826628E+03 0.  0.
    9000005    1    3    3    0    0 -0.26489882998E+02  0.59746919133E+02  0.13785524353E+03  0.15256630171E+03  0.10000000000E+01 0.  0.
    9000005    1    3    3    0    0  0.26314659106E+00 -0.60263888589E+02  0.83272219175E+02  0.10279624507E+03  0.10000000000E+01 0.  0.
          4    1    1    2  501    0  0.26226736407E+02  0.51696945543E+00 -0.20514279655E+00  0.26263357431E+02  0.12700000000E+01 0. -1.
<mgrwt>
<rscale>  1 0.12772108E+03</rscale>
<asrwt>0</asrwt>
<pdfrwt beam="2">  1       21 0.46692598E-02 0.12772108E+03</pdfrwt>
<pdfrwt beam="1">  1        4 0.38659598E-01 0.12772108E+03</pdfrwt>
<totfact> 0.78458415E+04</totfact>
</mgrwt>
</event>
<event>
 6    4  0.6325740E-003  0.1279621E+03  0.7818608E-02  0.1230511E+00
         -4   -1    0    0    0  501 -0.00000000000E+00  0.00000000000E+00  0.14796736017E+03  0.14797281026E+03  0.12700000000E+01 0. -1.
         21   -1    0    0  501  502  0.00000000000E+00 -0.00000000000E+00 -0.57212076309E+02  0.57212076309E+02  0.00000000000E+00 0.  1.
         25    2    1    2    0    0 -0.25655773036E+02  0.95795535184E+01  0.11235113230E+03  0.17028531485E+03  0.12499729993E+03 0.  0.
    9000005    1    3    3    0    0 -0.68117133484E+00  0.58821650190E+02  0.19004325270E+02  0.61827299022E+02  0.10000000000E+01 0.  0.
    9000005    1    3    3    0    0 -0.24974601702E+02 -0.49242096671E+02  0.93346807031E+02  0.10845801583E+03  0.10000000000E+01 0.  0.
         -4    1    1    2    0  502  0.25655773036E+02 -0.95795535184E+01 -0.21595848443E+02  0.34899571712E+02  0.12700000000E+01 0.  1.
<mgrwt>
<rscale>  1 0.12796215E+03</rscale>
<asrwt>0</asrwt>
<pdfrwt beam="2">  1       21 0.88018580E-02 0.12796215E+03</pdfrwt>
<pdfrwt beam="1">  1       -4 0.22765713E-01 0.12796215E+03</pdfrwt>
<totfact> 0.72417332E+04</totfact>
</mgrwt>
</event>
<event>
 6    4  0.6325740E-003  0.1332579E+03  0.7818608E-02  0.1222700E+00
          4   -1    0    0  502    0 -0.00000000000E+00  0.00000000000E+00  0.14991487121E+04  0.14991492500E+04  0.12700000000E+01 0. -1.
         21   -1    0    0  501  502  0.00000000000E+00 -0.00000000000E+00 -0.25816697348E+02  0.25816697348E+02  0.00000000000E+00 0.  1.
         25    2    1    2    0    0 -0.38902452000E+02  0.24880373686E+02  0.14727500820E+04  0.14787665392E+04  0.12500095858E+03 0.  0.
    9000005    1    3    3    0    0 -0.15506254047E+02 -0.50605213346E+02  0.69405590006E+03  0.69607178074E+03  0.10000000000E+01 0.  0.
    9000005    1    3    3    0    0 -0.23396197953E+02  0.75485587032E+02  0.77869418198E+03  0.78269475849E+03  0.10000000000E+01 0.  0.
          4    1    1    2  501    0  0.38902452000E+02 -0.24880373686E+02  0.58193269558E+00  0.46199408135E+02  0.12700000000E+01 0.  1.
<mgrwt>
<rscale>  1 0.13325792E+03</rscale>
<asrwt>0</asrwt>
<pdfrwt beam="2">  1       21 0.39718007E-02 0.13325792E+03</pdfrwt>
<pdfrwt beam="1">  1        4 0.23064064E+00 0.13325792E+03</pdfrwt>
<totfact> 0.15639584E+03</totfact>
</mgrwt>
</event>
<event>
 6    4  0.6325740E-003  0.1385193E+03  0.7818608E-02  0.1215335E+00
         -4   -1    0    0    0  501 -0.00000000000E+00  0.00000000000E+00  0.61755680019E+02  0.61768737356E+02  0.12700000000E+01 0.  1.
         21   -1    0    0  501  502  0.00000000000E+00 -0.00000000000E+00 -0.21559016055E+03  0.21559016055E+03  0.00000000000E+00 0. -1.
         25    2    1    2    0    0  0.46347672559E+02 -0.37610534350E+02 -0.32722980768E+02  0.14233198459E+03  0.12499976528E+03 0.  0.
    9000005    1    3    3    0    0 -0.47662647483E+01 -0.21372758153E+02 -0.72378234888E+02  0.75624869958E+02  0.10000000000E+01 0.  0.
    9000005    1    3    3    0    0  0.51113937307E+02 -0.16237776197E+02  0.39655254119E+02  0.66707114629E+02  0.10000000000E+01 0.  0.
         -4    1    1    2    0  502 -0.46347672559E+02  0.37610534350E+02 -0.12111149976E+03  0.13502691332E+03  0.12700000000E+01 0. -1.
<mgrwt>
<rscale>  1 0.13851931E+03</rscale>
<asrwt>0</asrwt>
<pdfrwt beam="2">  1       21 0.33167717E-01 0.13851931E+03</pdfrwt>
<pdfrwt beam="1">  1       -4 0.95021660E-02 0.13851931E+03</pdfrwt>
<totfact> 0.29594034E+04</totfact>
</mgrwt>
</event>
<event>
 6    4  0.6325740E-003  0.1286738E+03  0.7818608E-02  0.1229437E+00
         21   -1    0    0  501  502  0.00000000000E+00  0.00000000000E+00  0.41478723803E+01  0.41478723803E+01  0.00000000000E+00 0. -1.
         -4   -1    0    0    0  501 -0.00000000000E+00 -0.00000000000E+00 -0.15279567307E+04  0.15279572584E+04  0.12700000000E+01 0.  1.
         25    2    1    2    0    0  0.30513477136E+02  0.84019659819E+00 -0.12315242297E+04  0.12382281238E+04  0.12500072079E+03 0.  0.
    9000005    1    3    3    0    0  0.79406978098E+02 -0.40215507746E+01 -0.76995987309E+03  0.77405480892E+03  0.10000000000E+01 0.  0.
    9000005    1    3    3    0    0 -0.48893500962E+02  0.48617473728E+01 -0.46156435657E+03  0.46417331491E+03  0.10000000000E+01 0.  0.
         -4    1    1    2    0  502 -0.30513477136E+02 -0.84019659819E+00 -0.29228462861E+03  0.29387700700E+03  0.12700000000E+01 0. -1.
<mgrwt>
<rscale>  1 0.12867385E+03</rscale>
<asrwt>0</asrwt>
<pdfrwt beam="1">  1       21 0.63813444E-03 0.12867385E+03</pdfrwt>
<pdfrwt beam="2">  1       -4 0.23508518E+00 0.12867385E+03</pdfrwt>
<totfact> 0.27566437E+04</totfact>
</mgrwt>
</event>
<event>
 6    4  0.6325740E-003  0.1274121E+03  0.7818608E-02  0.1231347E+00
         21   -1    0    0  501  502  0.00000000000E+00  0.00000000000E+00  0.14289677245E+02  0.14289677245E+02  0.00000000000E+00 0. -1.
          4   -1    0    0  502    0 -0.00000000000E+00 -0.00000000000E+00 -0.87527200848E+03  0.87527292985E+03  0.12700000000E+01 0.  1.
         25    2    1    2    0    0 -0.24695415907E+02 -0.66682680033E+00 -0.85455907019E+03  0.86400523228E+03  0.12499411483E+03 0.  0.
    9000005    1    3    3    0    0 -0.40576608769E+02 -0.39713435926E+02 -0.19500634874E+03  0.20310611567E+03  0.10000000000E+01 0.  0.
    9000005    1    3    3    0    0  0.15881192861E+02  0.39046609126E+02 -0.65955272145E+03  0.66089911662E+03  0.10000000000E+01 0.  0.
          4    1    1    2  501    0  0.24695415907E+02  0.66682680033E+00 -0.64232610439E+01  0.25557374812E+02  0.12700000000E+01 0. -1.
<mgrwt>
<rscale>  1 0.12741208E+03</rscale>
<asrwt>0</asrwt>
<pdfrwt beam="1">  1       21 0.21984111E-02 0.12741208E+03</pdfrwt>
<pdfrwt beam="2">  1        4 0.13466169E+00 0.12741208E+03</pdfrwt>
<totfact> 0.17823865E+04</totfact>
</mgrwt>
</event>
<event>
 6    4  0.6325740E-003  0.1572891E+03  0.7818608E-02  0.1191792E+00
         -4   -1    0    0    0  501 -0.00000000000E+00  0.00000000000E+00  0.79665276534E+02  0.79675398871E+02  0.12700000000E+01 0. -1.
         21   -1    0    0  501  502  0.00000000000E+00 -0.00000000000E+00 -0.20323129496E+03  0.20323129496E+03  0.00000000000E+00 0. -1.
         25    2    1    2    0    0 -0.89391119217E+02  0.33523611015E+02 -0.60728883621E+02  0.16860567415E+03  0.12500108543E+03 0.  0.
    9000005    1    3    3    0    0 -0.53138427674E+02 -0.44638872894E+02 -0.39512152251E+02  0.79865710066E+02  0.10000000000E+01 0.  0.
    9000005    1    3    3    0    0 -0.36252691544E+02  0.78162483909E+02 -0.21216731370E+02  0.88739964081E+02  0.10000000000E+01 0.  0.
         -4    1    1    2    0  502  0.89391119217E+02 -0.33523611015E+02 -0.62837134804E+02  0.11430101968E+03  0.12700000000E+01 0.  1.
<mgrwt>
<rscale>  1 0.15728915E+03</rscale>
<asrwt>0</asrwt>
<pdfrwt beam="2">  1       21 0.31266352E-01 0.15728915E+03</pdfrwt>
<pdfrwt beam="1">  1       -4 0.12257281E-01 0.15728915E+03</pdfrwt>
<totfact> 0.21807828E+04</totfact>
</mgrwt>
</event>
<event>
 6    4  0.6325740E-003  0.1268505E+03  0.7818608E-02  0.1232205E+00
          4   -1    0    0  502    0 -0.00000000000E+00  0.00000000000E+00  0.15197735469E+02  0.15250706979E+02  0.12700000000E+01 0. -1.
         21   -1    0    0  501  502  0.00000000000E+00 -0.00000000000E+00 -0.38819456938E+03  0.38819456938E+03  0.00000000000E+00 0.  1.
         25    2    1    2    0    0 -0.20835563755E+02  0.56047418225E+01 -0.27149051782E+03  0.29966339473E+03  0.12500206009E+03 0.  0.
    9000005    1    3    3    0    0 -0.59030510250E+02 -0.14173425864E+02 -0.65846496966E+02  0.89567004548E+02  0.10000000000E+01 0.  0.
    9000005    1    3    3    0    0  0.38194946495E+02  0.19778167687E+02 -0.20564402085E+03  0.21009639018E+03  0.10000000000E+01 0.  0.
          4    1    1    2  501    0  0.20835563755E+02 -0.56047418225E+01 -0.10150631610E+03  0.10378188163E+03  0.12700000000E+01 0.  1.
<mgrwt>
<rscale>  1 0.12685050E+03</rscale>
<asrwt>0</asrwt>
<pdfrwt beam="2">  1       21 0.59722248E-01 0.12685050E+03</pdfrwt>
<pdfrwt beam="1">  1        4 0.23423474E-02 0.12685050E+03</pdfrwt>
<totfact> 0.83996687E+04</totfact>
</mgrwt>
</event>
<event>
 6    4  0.6325740E-003  0.1331650E+03  0.7818608E-02  0.1222834E+00
         21   -1    0    0  501  502  0.00000000000E+00  0.00000000000E+00  0.18292342432E+03  0.18292342432E+03  0.00000000000E+00 0.  1.
         -4   -1    0    0    0  501 -0.00000000000E+00 -0.00000000000E+00 -0.79797947971E+02  0.79808053481E+02  0.12700000000E+01 0. -1.
         25    2    1    2    0    0  0.38001385905E+02 -0.25795500118E+02 -0.16880124367E+02  0.13423062076E+03  0.12499363101E+03 0.  0.
    9000005    1    3    3    0    0  0.12077896341E+02 -0.59585539210E+02 -0.51227476848E+02  0.79508279111E+02  0.10000000000E+01 0.  0.
    9000005    1    3    3    0    0  0.25923489565E+02  0.33790039092E+02  0.34347352481E+02  0.54722341648E+02  0.10000000000E+01 0.  0.
         -4    1    1    2    0  502 -0.38001385905E+02  0.25795500118E+02  0.12000560071E+03  0.12850085704E+03  0.12700000000E+01 0.  1.
<mgrwt>
<rscale>  1 0.13316501E+03</rscale>
<asrwt>0</asrwt>
<pdfrwt beam="1">  1       21 0.28142065E-01 0.13316501E+03</pdfrwt>
<pdfrwt beam="2">  1       -4 0.12277724E-01 0.13316501E+03</pdfrwt>
<totfact> 0.26239286E+04</totfact>
</mgrwt>
</event>
<event>
 6    4  0.6325740E-003  0.1301760E+03  0.7818608E-02  0.1227195E+00
         -4   -1    0    0    0  501 -0.00000000000E+00  0.00000000000E+00  0.22150345783E+03  0.22150709860E+03  0.12700000000E+01 0. -1.
         21   -1    0    0  501  502  0.00000000000E+00 -0.00000000000E+00 -0.34137414830E+02  0.34137414830E+02  0.00000000000E+00 0. -1.
         25    2    1    2    0    0  0.35580271007E+02 -0.76134935100E+01  0.17299753378E+03  0.21650389609E+03  0.12498747682E+03 0.  0.
    9000005    1    3    3    0    0 -0.23802840471E+02  0.39276314696E+02  0.30437641190E+02  0.55105844625E+02  0.10000000000E+01 0.  0.
    9000005    1    3    3    0    0  0.59383111478E+02 -0.46889808206E+02  0.14255989259E+03  0.16139805147E+03  0.10000000000E+01 0.  0.
         -4    1    1    2    0  502 -0.35580271007E+02  0.76134935100E+01  0.14368509221E+02  0.39140617338E+02  0.12700000000E+01 0.  1.
<mgrwt>
<rscale>  1 0.13017600E+03</rscale>
<asrwt>0</asrwt>
<pdfrwt beam="2">  1       21 0.52519101E-02 0.13017600E+03</pdfrwt>
<pdfrwt beam="1">  1       -4 0.34079551E-01 0.13017600E+03</pdfrwt>
<totfact> 0.82455728E+04</totfact>
</mgrwt>
</event>
<event>
 6    4  0.6325740E-003  0.1419325E+03  0.7818608E-02  0.1210752E+00
          4   -1    0    0  502    0 -0.00000000000E+00  0.00000000000E+00  0.77878698562E+02  0.77889053080E+02  0.12700000000E+01 0.  1.
         21   -1    0    0  501  502  0.00000000000E+00 -0.00000000000E+00 -0.15509675560E+03  0.15509675560E+03  0.00000000000E+00 0. -1.
         25    2    1    2    0    0  0.67153423912E+02 -0.31789187017E+01 -0.17412027686E+02  0.14299657647E+03  0.12500061722E+03 0.  0.
    9000005    1    3    3    0    0  0.32721641985E+02 -0.39676626234E+02  0.41149493832E+02  0.65872766498E+02  0.10000000000E+01 0.  0.
    9000005    1    3    3    0    0  0.34431781927E+02  0.36497707532E+02 -0.58561521518E+02  0.77123809970E+02  0.10000000000E+01 0.  0.
          4    1    1    2  501    0 -0.67153423912E+02  0.31789187017E+01 -0.59806029348E+02  0.89989232209E+02  0.12700000000E+01 0. -1.
<mgrwt>
<rscale>  1 0.14193253E+03</rscale>
<asrwt>0</asrwt>
<pdfrwt beam="2">  1       21 0.23861039E-01 0.14193253E+03</pdfrwt>
<pdfrwt beam="1">  1        4 0.11982535E-01 0.14193253E+03</pdfrwt>
<totfact> 0.37675459E+04</totfact>
</mgrwt>
</event>
<event>
 6    4  0.6325740E-003  0.1392917E+03  0.7818608E-02  0.1214285E+00
         21   -1    0    0  501  502  0.00000000000E+00  0.00000000000E+00  0.41224373140E+02  0.41224373140E+02  0.00000000000E+00 0.  1.
         -4   -1    0    0    0  501 -0.00000000000E+00 -0.00000000000E+00 -0.24835939083E+03  0.24836263792E+03  0.12700000000E+01 0.  1.
         25    2    1    2    0    0  0.60397944987E+02  0.11362241097E+02 -0.15991735956E+03  0.21207486736E+03  0.12500070078E+03 0.  0.
    9000005    1    3    3    0    0  0.45116582433E+02  0.13182418589E+02  0.42310137476E+01  0.47203640195E+02  0.10000000000E+01 0.  0.
    9000005    1    3    3    0    0  0.15281362553E+02 -0.18201774913E+01 -0.16414837331E+03  0.16487122717E+03  0.10000000000E+01 0.  0.
         -4    1    1    2    0  502 -0.60397944987E+02 -0.11362241097E+02 -0.47217658133E+02  0.77512143699E+02  0.12700000000E+01 0. -1.
<mgrwt>
<rscale>  1 0.13929174E+03</rscale>
<asrwt>0</asrwt>
<pdfrwt beam="1">  1       21 0.63422114E-02 0.13929174E+03</pdfrwt>
<pdfrwt beam="2">  1       -4 0.38210891E-01 0.13929174E+03</pdfrwt>
<totfact> 0.48412551E+04</totfact>
</mgrwt>
</event>
<event>
 6    4  0.6325740E-003  0.1268789E+03  0.7818608E-02  0.1232162E+00
         -4   -1    0    0    0  501 -0.00000000000E+00  0.00000000000E+00  0.42212494212E+02  0.42231594424E+02  0.12700000000E+01 0. -1.
         21   -1    0    0  501  502  0.00000000000E+00 -0.00000000000E+00 -0.15025278141E+03  0.15025278141E+03  0.00000000000E+00 0. -1.
         25    2    1    2    0    0 -0.12692765299E+02 -0.17636671064E+02 -0.11328700670E+03  0.17009465894E+03  0.12500435455E+03 0.  0.
    9000005    1    3    3    0    0 -0.40112795406E+02 -0.61951599474E+02 -0.76469557598E+02  0.10628090267E+03  0.10000000000E+01 0.  0.
    9000005    1    3    3    0    0  0.27420030107E+02  0.44314928410E+02 -0.36817449106E+02  0.63813756274E+02  0.10000000000E+01 0.  0.
         -4    1    1    2    0  502  0.12692765299E+02  0.17636671064E+02  0.52467195027E+01  0.22389716896E+02  0.12700000000E+01 0.  1.
<mgrwt>
<rscale>  1 0.12687887E+03</rscale>
<asrwt>0</asrwt>
<pdfrwt beam="2">  1       21 0.23115812E-01 0.12687887E+03</pdfrwt>
<pdfrwt beam="1">  1       -4 0.64961121E-02 0.12687887E+03</pdfrwt>
<totfact> 0.10963425E+05</totfact>
</mgrwt>
</event>
<event>
 6    4  0.6325740E-003  0.1277663E+03  0.7818608E-02  0.1230808E+00
         -4   -1    0    0    0  501 -0.00000000000E+00  0.00000000000E+00  0.54694716494E+03  0.54694863940E+03  0.12700000000E+01 0. -1.
         21   -1    0    0  501  502  0.00000000000E+00 -0.00000000000E+00 -0.10948029708E+02  0.10948029708E+02  0.00000000000E+00 0. -1.
         25    2    1    2    0    0  0.22295330020E+02  0.14227238320E+02  0.46014985491E+03  0.47755849463E+03  0.12499892311E+03 0.  0.
    9000005    1    3    3    0    0  0.48403977053E+02 -0.42314126007E+02  0.20128766250E+03  0.21130819513E+03  0.10000000000E+01 0.  0.
    9000005    1    3    3    0    0 -0.26108647033E+02  0.56541364327E+02  0.25886219240E+03  0.26625029950E+03  0.10000000000E+01 0.  0.
         -4    1    1    2    0  502 -0.22295330020E+02 -0.14227238320E+02  0.75849280329E+02  0.80338174471E+02  0.12700000000E+01 0.  1.
<mgrwt>
<rscale>  1 0.12776630E+03</rscale>
<asrwt>0</asrwt>
<pdfrwt beam="2">  1       21 0.16843127E-02 0.12776630E+03</pdfrwt>
<pdfrwt beam="1">  1       -4 0.84151476E-01 0.12776630E+03</pdfrwt>
<totfact> 0.82285476E+04</totfact>
</mgrwt>
</event>
<event>
 6    4  0.6325740E-003  0.1277606E+03  0.7818608E-02  0.1230817E+00
         21   -1    0    0  501  502  0.00000000000E+00  0.00000000000E+00  0.59692555606E+03  0.59692555606E+03  0.00000000000E+00 0.  1.
         -4   -1    0    0    0  501 -0.00000000000E+00 -0.00000000000E+00 -0.16075864571E+02  0.16125951808E+02  0.12700000000E+01 0.  1.
         25    2    1    2    0    0  0.12054240482E+02  0.23502937807E+02  0.24635545898E+03  0.27751358560E+03  0.12500034089E+03 0.  0.
    9000005    1    3    3    0    0 -0.89727946482E+01  0.52515734240E+02  0.36427839804E+02  0.64547663780E+02  0.10000000000E+01 0.  0.
    9000005    1    3    3    0    0  0.21027035130E+02 -0.29012796433E+02  0.20992761918E+03  0.21296592182E+03  0.10000000000E+01 0.  0.
         -4    1    1    2    0  502 -0.12054240482E+02 -0.23502937807E+02  0.33449423251E+03  0.33553792227E+03  0.12700000000E+01 0. -1.
<mgrwt>
<rscale>  1 0.12776063E+03</rscale>
<asrwt>0</asrwt>
<pdfrwt beam="1">  1       21 0.91834684E-01 0.12776063E+03</pdfrwt>
<pdfrwt beam="2">  1       -4 0.24771672E-02 0.12776063E+03</pdfrwt>
<totfact> 0.29860826E+04</totfact>
</mgrwt>
</event>
<event>
 6    4  0.6325740E-003  0.1272123E+03  0.7818608E-02  0.1231652E+00
          4   -1    0    0  502    0 -0.00000000000E+00  0.00000000000E+00  0.68895746928E+03  0.68895863982E+03  0.12700000000E+01 0. -1.
         21   -1    0    0  501  502  0.00000000000E+00 -0.00000000000E+00 -0.12348798924E+02  0.12348798924E+02  0.00000000000E+00 0.  1.
         25    2    1    2    0    0 -0.18939508651E+01  0.23589885027E+02  0.66052938970E+03  0.67266785264E+03  0.12499158211E+03 0.  0.
    9000005    1    3    3    0    0  0.37696957624E+02 -0.36935517232E+02  0.34043749426E+03  0.34450541439E+03  0.10000000000E+01 0.  0.
    9000005    1    3    3    0    0 -0.39590908489E+02  0.60525402258E+02  0.32009189543E+03  0.32816243825E+03  0.10000000000E+01 0.  0.
          4    1    1    2  501    0  0.18939508651E+01 -0.23589885027E+02  0.16079280663E+02  0.28639586102E+02  0.12700000000E+01 0.  1.
<mgrwt>
<rscale>  1 0.12721228E+03</rscale>
<asrwt>0</asrwt>
<pdfrwt beam="2">  1       21 0.18998158E-02 0.12721228E+03</pdfrwt>
<pdfrwt beam="1">  1        4 0.10599854E+00 0.12721228E+03</pdfrwt>
<totfact> 0.40032595E+04</totfact>
</mgrwt>
</event>
<event>
 6    4  0.6325740E-003  0.1942055E+03  0.7818608E-02  0.1154722E+00
         21   -1    0    0  501  502  0.00000000000E+00  0.00000000000E+00  0.25657172433E+03  0.25657172433E+03  0.00000000000E+00 0.  1.
         -4   -1    0    0    0  501 -0.00000000000E+00 -0.00000000000E+00 -0.28901654207E+03  0.28901933238E+03  0.12700000000E+01 0. -1.
         25    2    1    2    0    0  0.38941588479E+02  0.14343853542E+03 -0.22829592334E+03  0.29972457013E+03  0.12499891428E+03 0.  0.
    9000005    1    3    3    0    0  0.28296027449E+02  0.13953793791E+03 -0.10753184491E+03  0.17842533160E+03  0.10000000000E+01 0.  0.
    9000005    1    3    3    0    0  0.10645561031E+02  0.39005975093E+01 -0.12076407843E+03  0.12129923853E+03  0.10000000000E+01 0.  0.
         -4    1    1    2    0  502 -0.38941588479E+02 -0.14343853542E+03  0.19585110560E+03  0.24586648657E+03  0.12700000000E+01 0.  1.
<mgrwt>
<rscale>  1 0.19420553E+03</rscale>
<asrwt>0</asrwt>
<pdfrwt beam="1">  1       21 0.39472573E-01 0.19420553E+03</pdfrwt>
<pdfrwt beam="2">  1       -4 0.44464540E-01 0.19420553E+03</pdfrwt>
<totfact> 0.12809744E+03</totfact>
</mgrwt>
</event>
<event>
 6    4  0.6325740E-003  0.1367968E+03  0.7818608E-02  0.1217705E+00
          4   -1    0    0  502    0 -0.00000000000E+00  0.00000000000E+00  0.11269116892E+03  0.11269832498E+03  0.12700000000E+01 0.  1.
         21   -1    0    0  501  502  0.00000000000E+00 -0.00000000000E+00 -0.82473649467E+02  0.82473649467E+02  0.00000000000E+00 0. -1.
         25    2    1    2    0    0 -0.77346948260E+01 -0.55026488319E+02  0.27432616685E+02  0.13952030328E+03  0.12500250657E+03 0.  0.
    9000005    1    3    3    0    0 -0.38825801174E+02 -0.43726273974E+02 -0.35500139570E+02  0.68415566810E+02  0.10000000000E+01 0.  0.
    9000005    1    3    3    0    0  0.31091106348E+02 -0.11300214345E+02  0.62932756255E+02  0.71104736467E+02  0.10000000000E+01 0.  0.
          4    1    1    2  501    0  0.77346948260E+01  0.55026488319E+02  0.27849027723E+01  0.55651671172E+02  0.12700000000E+01 0. -1.
<mgrwt>
<rscale>  1 0.13679681E+03</rscale>
<asrwt>0</asrwt>
<pdfrwt beam="2">  1       21 0.12688254E-01 0.13679681E+03</pdfrwt>
<pdfrwt beam="1">  1        4 0.17338405E-01 0.13679681E+03</pdfrwt>
<totfact> 0.62665519E+04</totfact>
</mgrwt>
</event>
<event>
 6    4  0.6325740E-003  0.1303313E+03  0.7818608E-02  0.1226965E+00
          4   -1    0    0  502    0 -0.00000000000E+00  0.00000000000E+00  0.79133445404E+02  0.79143635762E+02  0.12700000000E+01 0. -1.
         21   -1    0    0  501  502  0.00000000000E+00 -0.00000000000E+00 -0.10361138834E+03  0.10361138834E+03  0.00000000000E+00 0. -1.
         25    2    1    2    0    0  0.19783664483E+02 -0.31144979420E+02  0.11964714992E+02  0.13087937143E+03  0.12499940935E+03 0.  0.
    9000005    1    3    3    0    0 -0.18452982111E+02 -0.72013566839E+02  0.75726158746E+01  0.74731592174E+02  0.10000000000E+01 0.  0.
    9000005    1    3    3    0    0  0.38236646594E+02  0.40868587419E+02  0.43920991179E+01  0.56147779253E+02  0.10000000000E+01 0.  0.
          4    1    1    2  501    0 -0.19783664483E+02  0.31144979420E+02 -0.36442657924E+02  0.51875652670E+02  0.12700000000E+01 0.  1.
<mgrwt>
<rscale>  1 0.13033133E+03</rscale>
<asrwt>0</asrwt>
<pdfrwt beam="2">  1       21 0.15940214E-01 0.13033133E+03</pdfrwt>
<pdfrwt beam="1">  1        4 0.12175759E-01 0.13033133E+03</pdfrwt>
<totfact> 0.76473369E+04</totfact>
</mgrwt>
</event>
<event>
 6    4  0.6325740E-003  0.1274437E+03  0.7818608E-02  0.1231299E+00
          4   -1    0    0  502    0 -0.00000000000E+00  0.00000000000E+00  0.11585867015E+03  0.11586563058E+03  0.12700000000E+01 0.  1.
         21   -1    0    0  501  502  0.00000000000E+00 -0.00000000000E+00 -0.74822801549E+02  0.74822801549E+02  0.00000000000E+00 0.  1.
         25    2    1    2    0    0  0.19028591862E+02 -0.15979234324E+02  0.75540104797E+02  0.14814929187E+03  0.12499792803E+03 0.  0.
    9000005    1    3    3    0    0 -0.37431428522E+02 -0.42171091544E+02  0.63175573394E+02  0.84685688737E+02  0.10000000000E+01 0.  0.
    9000005    1    3    3    0    0  0.56460020384E+02  0.26191857220E+02  0.12364531403E+02  0.63463603138E+02  0.10000000000E+01 0.  0.
          4    1    1    2  501    0 -0.19028591862E+02  0.15979234324E+02 -0.34504236196E+02  0.42539140251E+02  0.12700000000E+01 0. -1.
<mgrwt>
<rscale>  1 0.12744373E+03</rscale>
<asrwt>0</asrwt>
<pdfrwt beam="2">  1       21 0.11511200E-01 0.12744373E+03</pdfrwt>
<pdfrwt beam="1">  1        4 0.17825775E-01 0.12744373E+03</pdfrwt>
<totfact> 0.70260175E+04</totfact>
</mgrwt>
</event>
<event>
 6    4  0.6325740E-003  0.1277085E+03  0.7818608E-02  0.1230896E+00
         21   -1    0    0  501  502  0.00000000000E+00  0.00000000000E+00  0.47945024273E+02  0.47945024273E+02  0.00000000000E+00 0. -1.
          4   -1    0    0  502    0 -0.00000000000E+00 -0.00000000000E+00 -0.14161884763E+03  0.14162454203E+03  0.12700000000E+01 0. -1.
         25    2    1    2    0    0  0.26116475513E+02  0.16090962201E+01 -0.47068440407E+02  0.13610617599E+03  0.12499917430E+03 0.  0.
    9000005    1    3    3    0    0  0.64371142157E+02 -0.33146695727E+02 -0.43081107523E+02  0.84257517205E+02  0.10000000000E+01 0.  0.
    9000005    1    3    3    0    0 -0.38254666643E+02  0.34755791947E+02 -0.39873328832E+01  0.51848658781E+02  0.10000000000E+01 0.  0.
          4    1    1    2  501    0 -0.26116475513E+02 -0.16090962201E+01 -0.46605382954E+02  0.53463390317E+02  0.12700000000E+01 0.  1.
<mgrwt>
<rscale>  1 0.12770847E+03</rscale>
<asrwt>0</asrwt>
<pdfrwt beam="1">  1       21 0.73761576E-02 0.12770847E+03</pdfrwt>
<pdfrwt beam="2">  1        4 0.21789247E-01 0.12770847E+03</pdfrwt>
<totfact> 0.10633830E+05</totfact>
</mgrwt>
</event>
<event>
 6    4  0.6325740E-003  0.1270803E+03  0.7818608E-02  0.1231853E+00
          4   -1    0    0  502    0 -0.00000000000E+00  0.00000000000E+00  0.45321541655E+01  0.47067314965E+01  0.12700000000E+01 0.  1.
         21   -1    0    0  501  502  0.00000000000E+00 -0.00000000000E+00 -0.19490485010E+04  0.19490485010E+04  0.00000000000E+00 0. -1.
         25    2    1    2    0    0  0.11828665958E+02 -0.19609218033E+02 -0.89383551691E+03  0.90282409391E+03  0.12499989797E+03 0.  0.
    9000005    1    3    3    0    0  0.24633141820E+02 -0.32414319647E+02 -0.87741210332E+03  0.87835669227E+03  0.10000000000E+01 0.  0.
    9000005    1    3    3    0    0 -0.12804475862E+02  0.12805101614E+02 -0.16423413584E+02  0.24467401644E+02  0.10000000000E+01 0.  0.
          4    1    1    2  501    0 -0.11828665958E+02  0.19609218033E+02 -0.10506808299E+04  0.10509311386E+04  0.12700000000E+01 0. -1.
<mgrwt>
<rscale>  1 0.12708034E+03</rscale>
<asrwt>0</asrwt>
<pdfrwt beam="2">  1       21 0.29985360E+00 0.12708034E+03</pdfrwt>
<pdfrwt beam="1">  1        4 0.71071538E-03 0.12708034E+03</pdfrwt>
<totfact> 0.72376621E+03</totfact>
</mgrwt>
</event>
<event>
 6    4  0.6325740E-003  0.1321298E+03  0.7818608E-02  0.1224329E+00
         21   -1    0    0  501  502  0.00000000000E+00  0.00000000000E+00  0.82133058734E+02  0.82133058734E+02  0.00000000000E+00 0. -1.
          4   -1    0    0  502    0 -0.00000000000E+00 -0.00000000000E+00 -0.16717993530E+03  0.16718475908E+03  0.12700000000E+01 0. -1.
         25    2    1    2    0    0 -0.39988917404E+02  0.15304887531E+02 -0.13130117450E+03  0.18627476844E+03  0.12499975134E+03 0.  0.
    9000005    1    3    3    0    0 -0.42254593124E+02 -0.36173176658E+02 -0.12175196236E+03  0.13385996298E+03  0.10000000000E+01 0.  0.
    9000005    1    3    3    0    0  0.22656757203E+01  0.51478064189E+02 -0.95492121369E+01  0.52414805461E+02  0.10000000000E+01 0.  0.
          4    1    1    2  501    0  0.39988917404E+02 -0.15304887531E+02  0.46254297928E+02  0.63043049373E+02  0.12700000000E+01 0.  1.
<mgrwt>
<rscale>  1 0.13212983E+03</rscale>
<asrwt>0</asrwt>
<pdfrwt beam="1">  1       21 0.12635855E-01 0.13212983E+03</pdfrwt>
<pdfrwt beam="2">  1        4 0.25721116E-01 0.13212983E+03</pdfrwt>
<totfact> 0.30791105E+04</totfact>
</mgrwt>
</event>
<event>
 6    4  0.6325740E-003  0.1267105E+03  0.7818608E-02  0.1232420E+00
          4   -1    0    0  502    0 -0.00000000000E+00  0.00000000000E+00  0.20270381152E+02  0.20310126835E+02  0.12700000000E+01 0.  1.
         21   -1    0    0  501  502  0.00000000000E+00 -0.00000000000E+00 -0.30561389087E+03  0.30561389087E+03  0.00000000000E+00 0.  1.
         25    2    1    2    0    0  0.15188547132E+02 -0.14160585096E+02 -0.19026823067E+03  0.22859911997E+03  0.12499737562E+03 0.  0.
    9000005    1    3    3    0    0 -0.13460095873E+02 -0.65211375095E+02 -0.83207103196E+02  0.10657447933E+03  0.10000000000E+01 0.  0.
    9000005    1    3    3    0    0  0.28648643004E+02  0.51050789999E+02 -0.10706112748E+03  0.12202464064E+03  0.10000000000E+01 0.  0.
          4    1    1    2  501    0 -0.15188547132E+02  0.14160585096E+02 -0.95075279047E+02  0.97324897740E+02  0.12700000000E+01 0. -1.
<mgrwt>
<rscale>  1 0.12671053E+03</rscale>
<asrwt>0</asrwt>
<pdfrwt beam="2">  1       21 0.47017526E-01 0.12671053E+03</pdfrwt>
<pdfrwt beam="1">  1        4 0.31217802E-02 0.12671053E+03</pdfrwt>
<totfact> 0.88327306E+04</totfact>
</mgrwt>
</event>
<event>
 6    4  0.6325740E-003  0.1279867E+03  0.7818608E-02  0.1230474E+00
         -4   -1    0    0    0  501 -0.00000000000E+00  0.00000000000E+00  0.11421092968E+03  0.11421799052E+03  0.12700000000E+01 0. -1.
         21   -1    0    0  501  502  0.00000000000E+00 -0.00000000000E+00 -0.19248124896E+03  0.19248124896E+03  0.00000000000E+00 0.  1.
         25    2    1    2    0    0  0.25471672226E+02 -0.10318629010E+02  0.76764234999E+02  0.14924255937E+03  0.12500125424E+03 0.  0.
    9000005    1    3    3    0    0  0.47625000886E+02  0.14393945408E+02  0.97942882819E+02  0.10985961346E+03  0.10000000000E+01 0.  0.
    9000005    1    3    3    0    0 -0.22153328660E+02 -0.24712574418E+02 -0.21178647820E+02  0.39382945910E+02  0.10000000000E+01 0.  0.
         -4    1    1    2    0  502 -0.25471672226E+02  0.10318629010E+02 -0.15503455428E+03  0.15745668011E+03  0.12700000000E+01 0.  1.
<mgrwt>
<rscale>  1 0.12798669E+03</rscale>
<asrwt>0</asrwt>
<pdfrwt beam="2">  1       21 0.29612500E-01 0.12798669E+03</pdfrwt>
<pdfrwt beam="1">  1       -4 0.17571778E-01 0.12798669E+03</pdfrwt>
<totfact> 0.12695687E+04</totfact>
</mgrwt>
</event>
<event>
 6    4  0.6325740E-003  0.1273250E+03  0.7818608E-02  0.1231480E+00
         21   -1    0    0  501  502  0.00000000000E+00  0.00000000000E+00  0.55239753424E+03  0.55239753424E+03  0.00000000000E+00 0.  1.
         -4   -1    0    0    0  501 -0.00000000000E+00 -0.00000000000E+00 -0.45384981026E+02  0.45402746643E+02  0.12700000000E+01 0.  1.
         25    2    1    2    0    0  0.19979514300E+02  0.13690881678E+02  0.44837159113E+02  0.13498894886E+03  0.12500009698E+03 0.  0.
    9000005    1    3    3    0    0 -0.49099623334E+02  0.20097010747E+02  0.13020224838E+01  0.53078791575E+02  0.10000000000E+01 0.  0.
    9000005    1    3    3    0    0  0.69079137634E+02 -0.64061290691E+01  0.43535136629E+02  0.81910157289E+02  0.10000000000E+01 0.  0.
         -4    1    1    2    0  502 -0.19979514300E+02 -0.13690881678E+02  0.46217539410E+03  0.46281133202E+03  0.12700000000E+01 0. -1.
<mgrwt>
<rscale>  1 0.12732496E+03</rscale>
<asrwt>0</asrwt>
<pdfrwt beam="1">  1       21 0.84984231E-01 0.12732496E+03</pdfrwt>
<pdfrwt beam="2">  1       -4 0.69837841E-02 0.12732496E+03</pdfrwt>
<totfact> 0.68439868E+03</totfact>
</mgrwt>
</event>
<event>
 6    4  0.6325740E-003  0.1373246E+03  0.7818608E-02  0.1216975E+00
         -4   -1    0    0    0  501 -0.00000000000E+00  0.00000000000E+00  0.39999625614E+02  0.40019781974E+02  0.12700000000E+01 0.  1.
         21   -1    0    0  501  502  0.00000000000E+00 -0.00000000000E+00 -0.25389757445E+03  0.25389757445E+03  0.00000000000E+00 0. -1.
         25    2    1    2    0    0  0.21049054635E+02 -0.52819692148E+02 -0.11193435987E+03  0.17716475922E+03  0.12500027364E+03 0.  0.
    9000005    1    3    3    0    0  0.46862774535E+02  0.25858069995E+02 -0.33791021753E+02  0.63305549300E+02  0.10000000000E+01 0.  0.
    9000005    1    3    3    0    0 -0.25813719900E+02 -0.78677762143E+02 -0.78143338115E+02  0.11385920992E+03  0.10000000000E+01 0.  0.
         -4    1    1    2    0  502 -0.21049054635E+02  0.52819692148E+02 -0.10196358897E+03  0.11675259721E+03  0.12700000000E+01 0. -1.
<mgrwt>
<rscale>  1 0.13732462E+03</rscale>
<asrwt>0</asrwt>
<pdfrwt beam="2">  1       21 0.39061165E-01 0.13732462E+03</pdfrwt>
<pdfrwt beam="1">  1       -4 0.61555834E-02 0.13732462E+03</pdfrwt>
<totfact> 0.43867606E+04</totfact>
</mgrwt>
</event>
<event>
 6    4  0.6325740E-003  0.1266044E+03  0.7818608E-02  0.1232583E+00
         -4   -1    0    0    0  501 -0.00000000000E+00  0.00000000000E+00  0.15625716103E+02  0.15677241586E+02  0.12700000000E+01 0.  1.
         21   -1    0    0  501  502  0.00000000000E+00 -0.00000000000E+00 -0.58390276606E+03  0.58390276606E+03  0.00000000000E+00 0. -1.
         25    2    1    2    0    0  0.16178026629E+02 -0.11916434475E+02 -0.24593022211E+03  0.27660505462E+03  0.12499980856E+03 0.  0.
    9000005    1    3    3    0    0  0.42877375380E+02 -0.45176823484E+02 -0.62361794003E+02  0.88144245705E+02  0.10000000000E+01 0.  0.
    9000005    1    3    3    0    0 -0.26699348751E+02  0.33260389009E+02 -0.18356842811E+03  0.18846080892E+03  0.10000000000E+01 0.  0.
         -4    1    1    2    0  502 -0.16178026629E+02  0.11916434475E+02 -0.32234682785E+03  0.32297495302E+03  0.12700000000E+01 0. -1.
<mgrwt>
<rscale>  1 0.12660443E+03</rscale>
<asrwt>0</asrwt>
<pdfrwt beam="2">  1       21 0.89831185E-01 0.12660443E+03</pdfrwt>
<pdfrwt beam="1">  1       -4 0.24080263E-02 0.12660443E+03</pdfrwt>
<totfact> 0.32790105E+04</totfact>
</mgrwt>
</event>
<event>
 6    4  0.6325740E-003  0.1599832E+03  0.7818608E-02  0.1188716E+00
          4   -1    0    0  502    0 -0.00000000000E+00  0.00000000000E+00  0.52768874380E+03  0.52769027207E+03  0.12700000000E+01 0.  1.
         21   -1    0    0  501  502  0.00000000000E+00 -0.00000000000E+00 -0.41283413728E+02  0.41283413728E+02  0.00000000000E+00 0. -1.
         25    2    1    2    0    0 -0.99801073460E+02  0.30499869431E+01  0.41898179801E+03  0.44848674767E+03  0.12500023634E+03 0.  0.
    9000005    1    3    3    0    0 -0.20416612662E+02 -0.51082191345E+01 -0.89856362936E+00  0.21088845201E+02  0.10000000000E+01 0.  0.
    9000005    1    3    3    0    0 -0.79384460798E+02  0.81582060777E+01  0.41988036164E+03  0.42739790246E+03  0.10000000000E+01 0.  0.
          4    1    1    2  501    0  0.99801073460E+02 -0.30499869431E+01  0.67423532069E+02  0.12048693813E+03  0.12700000000E+01 0. -1.
<mgrwt>
<rscale>  1 0.15998317E+03</rscale>
<asrwt>0</asrwt>
<pdfrwt beam="2">  1       21 0.63512948E-02 0.15998317E+03</pdfrwt>
<pdfrwt beam="1">  1        4 0.81184499E-01 0.15998317E+03</pdfrwt>
<totfact> 0.10204196E+04</totfact>
</mgrwt>
</event>
<event>
 6    4  0.6325740E-003  0.1290155E+03  0.7818608E-02  0.1228924E+00
          4   -1    0    0  502    0 -0.00000000000E+00  0.00000000000E+00  0.10273272781E+04  0.10273280631E+04  0.12700000000E+01 0.  1.
         21   -1    0    0  501  502  0.00000000000E+00 -0.00000000000E+00 -0.69951364308E+01  0.69951364308E+01  0.00000000000E+00 0.  1.
         25    2    1    2    0    0 -0.26059190003E+02 -0.18477771422E+02  0.92048610097E+03  0.92948354022E+03  0.12499792016E+03 0.  0.
    9000005    1    3    3    0    0 -0.27410701015E+01  0.35228920426E+02  0.71345129551E+03  0.71432649493E+03  0.10000000000E+01 0.  0.
    9000005    1    3    3    0    0 -0.23318119902E+02 -0.53706691847E+02  0.20703480546E+03  0.21515704529E+03  0.10000000000E+01 0.  0.
          4    1    1    2  501    0  0.26059190003E+02  0.18477771422E+02  0.99846040700E+02  0.10483965931E+03  0.12700000000E+01 0. -1.
<mgrwt>
<rscale>  1 0.12901546E+03</rscale>
<asrwt>0</asrwt>
<pdfrwt beam="2">  1       21 0.10761757E-02 0.12901546E+03</pdfrwt>
<pdfrwt beam="1">  1        4 0.15805916E+00 0.12901546E+03</pdfrwt>
<totfact> 0.37314916E+04</totfact>
</mgrwt>
</event>
<event>
 6    4  0.6325740E-003  0.1351973E+03  0.7818608E-02  0.1219942E+00
         21   -1    0    0  501  502  0.00000000000E+00  0.00000000000E+00  0.37203433562E+02  0.37203433562E+02  0.00000000000E+00 0. -1.
         -4   -1    0    0    0  501 -0.00000000000E+00 -0.00000000000E+00 -0.41297333401E+03  0.41297528680E+03  0.12700000000E+01 0.  1.
         25    2    1    2    0    0  0.67970120201E+00 -0.51521223928E+02 -0.37500523724E+03  0.39863169214E+03  0.12499359789E+03 0.  0.
    9000005    1    3    3    0    0  0.86070195353E+01 -0.86266450084E+02 -0.17305730685E+03  0.19356087583E+03  0.10000000000E+01 0.  0.
    9000005    1    3    3    0    0 -0.79273183333E+01  0.34745226157E+02 -0.20194793038E+03  0.20507081631E+03  0.10000000000E+01 0.  0.
         -4    1    1    2    0  502 -0.67970120201E+00  0.51521223928E+02 -0.76466321575E+00  0.51547028222E+02  0.12700000000E+01 0. -1.
<mgrwt>
<rscale>  1 0.13519726E+03</rscale>
<asrwt>0</asrwt>
<pdfrwt beam="1">  1       21 0.57236051E-02 0.13519726E+03</pdfrwt>
<pdfrwt beam="2">  1       -4 0.63536177E-01 0.13519726E+03</pdfrwt>
<totfact> 0.20413699E+04</totfact>
</mgrwt>
</event>
<event>
 6    4  0.6325740E-003  0.2508457E+03  0.7818608E-02  0.1112772E+00
          4   -1    0    0  502    0 -0.00000000000E+00  0.00000000000E+00  0.63011090801E+03  0.63011218786E+03  0.12700000000E+01 0.  1.
         21   -1    0    0  501  502  0.00000000000E+00 -0.00000000000E+00 -0.12260735888E+03  0.12260735888E+03  0.00000000000E+00 0. -1.
         25    2    1    2    0    0 -0.21608980730E+03 -0.24328749758E+02  0.46901333144E+03  0.53188068549E+03  0.12504745357E+03 0.  0.
    9000005    1    3    3    0    0 -0.22760688863E+03 -0.38486100931E+02  0.41530801203E+03  0.47515031366E+03  0.10000000000E+01 0.  0.
    9000005    1    3    3    0    0  0.11517081334E+02  0.14157351173E+02  0.53705319407E+02  0.56730371824E+02  0.10000000000E+01 0.  0.
          4    1    1    2  501    0  0.21608980730E+03  0.24328749758E+02  0.38490217692E+02  0.22083886126E+03  0.12700000000E+01 0. -1.
<mgrwt>
<rscale>  1 0.25084569E+03</rscale>
<asrwt>0</asrwt>
<pdfrwt beam="2">  1       21 0.18862671E-01 0.25084569E+03</pdfrwt>
<pdfrwt beam="1">  1        4 0.96940742E-01 0.25084569E+03</pdfrwt>
<totfact> 0.99589066E+02</totfact>
</mgrwt>
</event>
<event>
 6    4  0.6325740E-003  0.1269282E+03  0.7818608E-02  0.1232086E+00
          4   -1    0    0  502    0 -0.00000000000E+00  0.00000000000E+00  0.12308214520E+02  0.12373562328E+02  0.12700000000E+01 0. -1.
         21   -1    0    0  501  502  0.00000000000E+00 -0.00000000000E+00 -0.46547580264E+03  0.46547580264E+03  0.00000000000E+00 0.  1.
         25    2    1    2    0    0 -0.21740094097E+02  0.35968359772E+01 -0.34888920012E+03  0.37126060372E+03  0.12500077197E+03 0.  0.
    9000005    1    3    3    0    0 -0.41850780369E+02 -0.11147943706E+02 -0.33184066476E+02  0.54570566556E+02  0.10000000000E+01 0.  0.
    9000005    1    3    3    0    0  0.20110686272E+02  0.14744779683E+02 -0.31570513364E+03  0.31669003716E+03  0.10000000000E+01 0.  0.
          4    1    1    2  501    0  0.21740094097E+02 -0.35968359772E+01 -0.10427838800E+03  0.10658876125E+03  0.12700000000E+01 0.  1.
<mgrwt>
<rscale>  1 0.12692818E+03</rscale>
<asrwt>0</asrwt>
<pdfrwt beam="2">  1       21 0.71611649E-01 0.12692818E+03</pdfrwt>
<pdfrwt beam="1">  1        4 0.18987318E-02 0.12692818E+03</pdfrwt>
<totfact> 0.78527254E+04</totfact>
</mgrwt>
</event>
<event>
 6    4  0.6325740E-003  0.1599094E+03  0.7818608E-02  0.1188799E+00
         21   -1    0    0  501  502  0.00000000000E+00  0.00000000000E+00  0.18169817145E+03  0.18169817145E+03  0.00000000000E+00 0. -1.
         -4   -1    0    0    0  501 -0.00000000000E+00 -0.00000000000E+00 -0.18451823560E+03  0.18452260611E+03  0.12700000000E+01 0.  1.
         25    2    1    2    0    0 -0.59835373740E+02 -0.79786915910E+02 -0.12894764323E+03  0.20542275828E+03  0.12499916409E+03 0.  0.
    9000005    1    3    3    0    0 -0.63316314576E+01  0.11354986582E+02 -0.92814987098E+02  0.93726448280E+02  0.10000000000E+01 0.  0.
    9000005    1    3    3    0    0 -0.53503742282E+02 -0.91141902492E+02 -0.36132656130E+02  0.11169631000E+03  0.10000000000E+01 0.  0.
         -4    1    1    2    0  502  0.59835373740E+02  0.79786915910E+02  0.12612757908E+03  0.16079801928E+03  0.12700000000E+01 0. -1.
<mgrwt>
<rscale>  1 0.15990940E+03</rscale>
<asrwt>0</asrwt>
<pdfrwt beam="1">  1       21 0.27953565E-01 0.15990940E+03</pdfrwt>
<pdfrwt beam="2">  1       -4 0.28388098E-01 0.15990940E+03</pdfrwt>
<totfact> 0.60104633E+03</totfact>
</mgrwt>
</event>
<event>
 6    4  0.6325740E-003  0.1303534E+03  0.7818608E-02  0.1226932E+00
         21   -1    0    0  501  502  0.00000000000E+00  0.00000000000E+00  0.71473388644E+02  0.71473388644E+02  0.00000000000E+00 0. -1.
         -4   -1    0    0    0  501 -0.00000000000E+00 -0.00000000000E+00 -0.17878131988E+03  0.17878583064E+03  0.12700000000E+01 0.  1.
         25    2    1    2    0    0 -0.17942022620E+02  0.32361419136E+02 -0.14666734955E+03  0.19622261748E+03  0.12499130595E+03 0.  0.
    9000005    1    3    3    0    0 -0.41796037903E+01  0.67503611437E+02 -0.14312401709E+03  0.15830252971E+03  0.10000000000E+01 0.  0.
    9000005    1    3    3    0    0 -0.13762418830E+02 -0.35142192301E+02 -0.35433324576E+01  0.37920087772E+02  0.10000000000E+01 0.  0.
         -4    1    1    2    0  502  0.17942022620E+02 -0.32361419136E+02  0.39359418314E+02  0.54036601801E+02  0.12700000000E+01 0. -1.
<mgrwt>
<rscale>  1 0.13035338E+03</rscale>
<asrwt>0</asrwt>
<pdfrwt beam="1">  1       21 0.10995906E-01 0.13035338E+03</pdfrwt>
<pdfrwt beam="2">  1       -4 0.27506033E-01 0.13035338E+03</pdfrwt>
<totfact> 0.34707865E+04</totfact>
</mgrwt>
</event>
<event>
 6    4  0.6325740E-003  0.1309140E+03  0.7818608E-02  0.1226106E+00
          4   -1    0    0  502    0 -0.00000000000E+00  0.00000000000E+00  0.12095477200E+04  0.12095483868E+04  0.12700000000E+01 0.  1.
         21   -1    0    0  501  502  0.00000000000E+00 -0.00000000000E+00 -0.10680705855E+02  0.10680705855E+02  0.00000000000E+00 0. -1.
         25    2    1    2    0    0  0.24259768852E+02 -0.30398990574E+02  0.11515434800E+04  0.11589611173E+04  0.12500340029E+03 0.  0.
    9000005    1    3    3    0    0  0.26403872279E+02  0.45272661961E+02  0.59254205822E+03  0.59485617518E+03  0.10000000000E+01 0.  0.
    9000005    1    3    3    0    0 -0.21441034273E+01 -0.75671652536E+02  0.55900142178E+03  0.56410494212E+03  0.10000000000E+01 0.  0.
          4    1    1    2  501    0 -0.24259768852E+02  0.30398990574E+02  0.47323534188E+02  0.61267975328E+02  0.12700000000E+01 0. -1.
<mgrwt>
<rscale>  1 0.13091404E+03</rscale>
<asrwt>0</asrwt>
<pdfrwt beam="2">  1       21 0.16431865E-02 0.13091404E+03</pdfrwt>
<pdfrwt beam="1">  1        4 0.18609002E+00 0.13091404E+03</pdfrwt>
<totfact> 0.12329386E+04</totfact>
</mgrwt>
</event>
<event>
 6    4  0.6325740E-003  0.1614938E+03  0.7818608E-02  0.1187020E+00
         21   -1    0    0  501  502  0.00000000000E+00  0.00000000000E+00  0.30822132537E+02  0.30822132537E+02  0.00000000000E+00 0. -1.
         -4   -1    0    0    0  501 -0.00000000000E+00 -0.00000000000E+00 -0.60943263425E+03  0.60943395753E+03  0.12700000000E+01 0.  1.
         25    2    1    2    0    0  0.13964829541E+02 -0.10130177436E+03 -0.43453742965E+03  0.46357635453E+03  0.12499277085E+03 0.  0.
    9000005    1    3    3    0    0 -0.12191414980E+02 -0.12233509215E+03 -0.28627257455E+03  0.31155656358E+03  0.10000000000E+01 0.  0.
    9000005    1    3    3    0    0  0.26156244521E+02  0.21033317786E+02 -0.14826485509E+03  0.15201979095E+03  0.10000000000E+01 0.  0.
         -4    1    1    2    0  502 -0.13964829541E+02  0.10130177436E+03 -0.14407307207E+03  0.17667973553E+03  0.12700000000E+01 0. -1.
<mgrwt>
<rscale>  1 0.16149383E+03</rscale>
<asrwt>0</asrwt>
<pdfrwt beam="1">  1       21 0.47418663E-02 0.16149383E+03</pdfrwt>
<pdfrwt beam="2">  1       -4 0.93760986E-01 0.16149383E+03</pdfrwt>
<totfact> 0.12115420E+04</totfact>
</mgrwt>
</event>
<event>
 6    4  0.6325740E-003  0.1267892E+03  0.7818608E-02  0.1232299E+00
         21   -1    0    0  501  502  0.00000000000E+00  0.00000000000E+00  0.56425602134E+02  0.56425602134E+02  0.00000000000E+00 0. -1.
         -4   -1    0    0    0  501 -0.00000000000E+00 -0.00000000000E+00 -0.16166868792E+03  0.16167367613E+03  0.12700000000E+01 0.  1.
         25    2    1    2    0    0 -0.11089142066E+02  0.18083676136E+02 -0.13259759242E+03  0.18346013354E+03  0.12500204266E+03 0.  0.
    9000005    1    3    3    0    0 -0.31226903548E+02 -0.32344137810E+02 -0.11937515603E+03  0.12756445678E+03  0.10000000000E+01 0.  0.
    9000005    1    3    3    0    0  0.20137761482E+02  0.50427813946E+02 -0.13222436386E+02  0.55895676763E+02  0.10000000000E+01 0.  0.
         -4    1    1    2    0  502  0.11089142066E+02 -0.18083676136E+02  0.27354506629E+02  0.34639144725E+02  0.12700000000E+01 0. -1.
<mgrwt>
<rscale>  1 0.12678919E+03</rscale>
<asrwt>0</asrwt>
<pdfrwt beam="1">  1       21 0.86808618E-02 0.12678919E+03</pdfrwt>
<pdfrwt beam="2">  1       -4 0.24873589E-01 0.12678919E+03</pdfrwt>
<totfact> 0.62984367E+04</totfact>
</mgrwt>
</event>
<event>
 6    4  0.6325740E-003  0.1309348E+03  0.7818608E-02  0.1226075E+00
         -4   -1    0    0    0  501 -0.00000000000E+00  0.00000000000E+00  0.35226063871E+03  0.35226292806E+03  0.12700000000E+01 0.  1.
         21   -1    0    0  501  502  0.00000000000E+00 -0.00000000000E+00 -0.27391184731E+02  0.27391184731E+02  0.00000000000E+00 0. -1.
         25    2    1    2    0    0  0.21797444545E+02 -0.32321944196E+02  0.31235819275E+03  0.33869094369E+03  0.12499631232E+03 0.  0.
    9000005    1    3    3    0    0  0.21122424729E+02 -0.28133557165E+02  0.10396746269E+02  0.36698040794E+02  0.10000000000E+01 0.  0.
    9000005    1    3    3    0    0  0.67501981625E+00 -0.41883870313E+01  0.30196144648E+03  0.30199290290E+03  0.10000000000E+01 0.  0.
         -4    1    1    2    0  502 -0.21797444545E+02  0.32321944196E+02  0.12511261230E+02  0.40963169102E+02  0.12700000000E+01 0. -1.
<mgrwt>
<rscale>  1 0.13093477E+03</rscale>
<asrwt>0</asrwt>
<pdfrwt beam="2">  1       21 0.42140287E-02 0.13093477E+03</pdfrwt>
<pdfrwt beam="1">  1       -4 0.54196382E-01 0.13093477E+03</pdfrwt>
<totfact> 0.47425474E+04</totfact>
</mgrwt>
</event>
<event>
 6    4  0.6325740E-003  0.1273646E+03  0.7818608E-02  0.1231419E+00
         21   -1    0    0  501  502  0.00000000000E+00  0.00000000000E+00  0.29680099261E+03  0.29680099261E+03  0.00000000000E+00 0. -1.
          4   -1    0    0  502    0 -0.00000000000E+00 -0.00000000000E+00 -0.35805559202E+02  0.35828075162E+02  0.12700000000E+01 0.  1.
         25    2    1    2    0    0 -0.38550105985E+01  0.24121469342E+02  0.80912634794E+02  0.15089262771E+03  0.12500009695E+03 0.  0.
    9000005    1    3    3    0    0  0.34946794850E+02  0.45990969524E+02  0.88512591580E+02  0.10569733495E+03  0.10000000000E+01 0.  0.
    9000005    1    3    3    0    0 -0.38801805448E+02 -0.21869500182E+02 -0.75999567855E+01  0.45195292757E+02  0.10000000000E+01 0.  0.
          4    1    1    2  501    0  0.38550105985E+01 -0.24121469342E+02  0.18008279861E+03  0.18173644006E+03  0.12700000000E+01 0. -1.
<mgrwt>
<rscale>  1 0.12736456E+03</rscale>
<asrwt>0</asrwt>
<pdfrwt beam="1">  1       21 0.45661690E-01 0.12736456E+03</pdfrwt>
<pdfrwt beam="2">  1        4 0.55104888E-02 0.12736456E+03</pdfrwt>
<totfact> 0.38014752E+04</totfact>
</mgrwt>
</event>
<event>
 6    4  0.6325740E-003  0.1270304E+03  0.7818608E-02  0.1231930E+00
          4   -1    0    0  502    0 -0.00000000000E+00  0.00000000000E+00  0.38485395092E+02  0.38506344093E+02  0.12700000000E+01 0.  1.
         21   -1    0    0  501  502  0.00000000000E+00 -0.00000000000E+00 -0.23431256567E+03  0.23431256567E+03  0.00000000000E+00 0. -1.
         25    2    1    2    0    0  0.32445682356E+01 -0.22368126823E+02 -0.70137400624E+02  0.14510676668E+03  0.12500343375E+03 0.  0.
    9000005    1    3    3    0    0 -0.43432433895E+02 -0.50587994238E+02 -0.16700356690E+02  0.68741715055E+02  0.10000000000E+01 0.  0.
    9000005    1    3    3    0    0  0.46677002131E+02  0.28219867415E+02 -0.53437043934E+02  0.76365051622E+02  0.10000000000E+01 0.  0.
          4    1    1    2  501    0 -0.32445682356E+01  0.22368126823E+02 -0.12568976996E+03  0.12771214309E+03  0.12700000000E+01 0. -1.
<mgrwt>
<rscale>  1 0.12703039E+03</rscale>
<asrwt>0</asrwt>
<pdfrwt beam="2">  1       21 0.36048086E-01 0.12703039E+03</pdfrwt>
<pdfrwt beam="1">  1        4 0.59227063E-02 0.12703039E+03</pdfrwt>
<totfact> 0.54289694E+04</totfact>
</mgrwt>
</event>
<event>
 6    4  0.6325740E-003  0.1290412E+03  0.7818608E-02  0.1228885E+00
         -4   -1    0    0    0  501 -0.00000000000E+00  0.00000000000E+00  0.67443460136E+03  0.67443579710E+03  0.12700000000E+01 0.  1.
         21   -1    0    0  501  502  0.00000000000E+00 -0.00000000000E+00 -0.30720832443E+02  0.30720832443E+02  0.00000000000E+00 0. -1.
         25    2    1    2    0    0  0.26689847842E+02  0.17724840932E+02  0.65765299827E+03  0.67019332051E+03  0.12500041105E+03 0.  0.
    9000005    1    3    3    0    0 -0.25932776374E+02  0.57471471735E+02  0.32840423760E+03  0.33440368154E+03  0.10000000000E+01 0.  0.
    9000005    1    3    3    0    0  0.52622624215E+02 -0.39746630803E+02  0.32924876067E+03  0.33578963897E+03  0.10000000000E+01 0.  0.
         -4    1    1    2    0  502 -0.26689847842E+02 -0.17724840932E+02 -0.13939229348E+02  0.34963309036E+02  0.12700000000E+01 0. -1.
<mgrwt>
<rscale>  1 0.12904116E+03</rscale>
<asrwt>0</asrwt>
<pdfrwt beam="2">  1       21 0.47262824E-02 0.12904116E+03</pdfrwt>
<pdfrwt beam="1">  1       -4 0.10376127E+00 0.12904116E+03</pdfrwt>
<totfact> 0.94495795E+03</totfact>
</mgrwt>
</event>
<event>
 6    4  0.6325740E-003  0.1404456E+03  0.7818608E-02  0.1212731E+00
          4   -1    0    0  502    0 -0.00000000000E+00  0.00000000000E+00  0.31412321488E+03  0.31412578218E+03  0.12700000000E+01 0. -1.
         21   -1    0    0  501  502  0.00000000000E+00 -0.00000000000E+00 -0.49075005856E+02  0.49075005856E+02  0.00000000000E+00 0. -1.
         25    2    1    2    0    0  0.13509215769E+02 -0.62609304113E+02  0.26411077916E+03  0.29913117318E+03  0.12499012453E+03 0.  0.
    9000005    1    3    3    0    0  0.18545459768E+02  0.36117490231E+02  0.93654641476E+02  0.10208133546E+03  0.10000000000E+01 0.  0.
    9000005    1    3    3    0    0 -0.50362439996E+01 -0.98726794344E+02  0.17045613768E+03  0.19704983773E+03  0.10000000000E+01 0.  0.
          4    1    1    2  501    0 -0.13509215769E+02  0.62609304113E+02  0.93742986980E+00  0.64069614849E+02  0.12700000000E+01 0.  1.
<mgrwt>
<rscale>  1 0.14044556E+03</rscale>
<asrwt>0</asrwt>
<pdfrwt beam="2">  1       21 0.75500011E-02 0.14044556E+03</pdfrwt>
<pdfrwt beam="1">  1        4 0.48328109E-01 0.14044556E+03</pdfrwt>
<totfact> 0.22521121E+04</totfact>
</mgrwt>
</event>
<event>
 6    4  0.6325740E-003  0.1284602E+03  0.7818608E-02  0.1229759E+00
          4   -1    0    0  502    0 -0.00000000000E+00  0.00000000000E+00  0.49644710190E+02  0.49660951963E+02  0.12700000000E+01 0.  1.
         21   -1    0    0  501  502  0.00000000000E+00 -0.00000000000E+00 -0.22736924973E+03  0.22736924973E+03  0.00000000000E+00 0. -1.
         25    2    1    2    0    0 -0.66647276699E+00  0.29607694688E+02 -0.37664831959E+02  0.13386807556E+03  0.12499984927E+03 0.  0.
    9000005    1    3    3    0    0  0.61811362672E+02  0.12513183205E+02 -0.12094791930E+02  0.64222334909E+02  0.10000000000E+01 0.  0.
    9000005    1    3    3    0    0 -0.62477835439E+02  0.17094511482E+02 -0.25570040028E+02  0.69645740653E+02  0.10000000000E+01 0.  0.
          4    1    1    2  501    0  0.66647276699E+00 -0.29607694688E+02 -0.14005970758E+03  0.14316212613E+03  0.12700000000E+01 0. -1.
<mgrwt>
<rscale>  1 0.12846020E+03</rscale>
<asrwt>0</asrwt>
<pdfrwt beam="2">  1       21 0.34979885E-01 0.12846020E+03</pdfrwt>
<pdfrwt beam="1">  1        4 0.76391699E-02 0.12846020E+03</pdfrwt>
<totfact> 0.38039234E+04</totfact>
</mgrwt>
</event>
<event>
 6    4  0.6325740E-003  0.1506882E+03  0.7818608E-02  0.1199630E+00
         -4   -1    0    0    0  501 -0.00000000000E+00  0.00000000000E+00  0.51731842432E+03  0.51731998322E+03  0.12700000000E+01 0.  1.
         21   -1    0    0  501  502  0.00000000000E+00 -0.00000000000E+00 -0.52487773066E+02  0.52487773066E+02  0.00000000000E+00 0. -1.
         25    2    1    2    0    0  0.50111214226E+02  0.67604132524E+02  0.46161256327E+03  0.48558530372E+03  0.12500190437E+03 0.  0.
    9000005    1    3    3    0    0  0.40885730267E+02  0.29586421763E+02  0.43578097481E+03  0.43869471993E+03  0.10000000000E+01 0.  0.
    9000005    1    3    3    0    0  0.92254839595E+01  0.38017710760E+02  0.25831588468E+02  0.46890583794E+02  0.10000000000E+01 0.  0.
         -4    1    1    2    0  502 -0.50111214226E+02 -0.67604132524E+02  0.32180879795E+01  0.84222452563E+02  0.12700000000E+01 0. -1.
<mgrwt>
<rscale>  1 0.15068818E+03</rscale>
<asrwt>0</asrwt>
<pdfrwt beam="2">  1       21 0.80750424E-02 0.15068818E+03</pdfrwt>
<pdfrwt beam="1">  1       -4 0.79588748E-01 0.15068818E+03</pdfrwt>
<totfact> 0.70197663E+03</totfact>
</mgrwt>
</event>
<event>
 6    4  0.6325740E-003  0.1281198E+03  0.7818608E-02  0.1230273E+00
          4   -1    0    0  502    0 -0.00000000000E+00  0.00000000000E+00  0.51139633422E+02  0.51155400561E+02  0.12700000000E+01 0.  1.
         21   -1    0    0  501  502  0.00000000000E+00 -0.00000000000E+00 -0.11983769388E+03  0.11983769388E+03  0.00000000000E+00 0.  1.
         25    2    1    2    0    0 -0.23869159272E+02  0.14968351229E+02 -0.60046966713E+02  0.14149321942E+03  0.12498361744E+03 0.  0.
    9000005    1    3    3    0    0 -0.30799271400E+02  0.63930119759E+02 -0.10962058623E+02  0.71811016289E+02  0.10000000000E+01 0.  0.
    9000005    1    3    3    0    0  0.69301121277E+01 -0.48961768530E+02 -0.49084908089E+02  0.69682203136E+02  0.10000000000E+01 0.  0.
          4    1    1    2  501    0  0.23869159272E+02 -0.14968351229E+02 -0.86510937416E+01  0.29499875013E+02  0.12700000000E+01 0. -1.
<mgrwt>
<rscale>  1 0.12811984E+03</rscale>
<asrwt>0</asrwt>
<pdfrwt beam="2">  1       21 0.18436568E-01 0.12811984E+03</pdfrwt>
<pdfrwt beam="1">  1        4 0.78693664E-02 0.12811984E+03</pdfrwt>
<totfact> 0.12187569E+05</totfact>
</mgrwt>
</event>
<event>
 6    4  0.6325740E-003  0.1379368E+03  0.7818608E-02  0.1216132E+00
         -4   -1    0    0    0  501 -0.00000000000E+00  0.00000000000E+00  0.62913767754E+02  0.62926584788E+02  0.12700000000E+01 0.  1.
         21   -1    0    0  501  502  0.00000000000E+00 -0.00000000000E+00 -0.16485982647E+03  0.16485982647E+03  0.00000000000E+00 0.  1.
         25    2    1    2    0    0  0.39690274584E+02  0.42740149996E+02 -0.42122682151E+02  0.14422513074E+03  0.12499811865E+03 0.  0.
    9000005    1    3    3    0    0  0.49622899561E+02 -0.23079916831E+02  0.14725387296E+02  0.56682905295E+02  0.10000000000E+01 0.  0.
    9000005    1    3    3    0    0 -0.99326249762E+01  0.65820066826E+02 -0.56848069447E+02  0.87542225444E+02  0.10000000000E+01 0.  0.
         -4    1    1    2    0  502 -0.39690274584E+02 -0.42740149996E+02 -0.59823376567E+02  0.83561280520E+02  0.12700000000E+01 0. -1.
<mgrwt>
<rscale>  1 0.13793683E+03</rscale>
<asrwt>0</asrwt>
<pdfrwt beam="2">  1       21 0.25363050E-01 0.13793683E+03</pdfrwt>
<pdfrwt beam="1">  1       -4 0.96804034E-02 0.13793683E+03</pdfrwt>
<totfact> 0.48057247E+04</totfact>
</mgrwt>
</event>
<event>
 6    4  0.6325740E-003  0.1276700E+03  0.7818608E-02  0.1230955E+00
          4   -1    0    0  502    0 -0.00000000000E+00  0.00000000000E+00  0.81901913344E+03  0.81902011809E+03  0.12700000000E+01 0.  1.
         21   -1    0    0  501  502  0.00000000000E+00 -0.00000000000E+00 -0.73272169323E+01  0.73272169323E+01  0.00000000000E+00 0.  1.
         25    2    1    2    0    0 -0.25537795735E+02  0.47216857825E+01  0.70977584136E+03  0.72116666855E+03  0.12500058206E+03 0.  0.
    9000005    1    3    3    0    0 -0.49742183873E+01  0.63868524827E+02  0.40328893890E+03  0.40834654346E+03  0.10000000000E+01 0.  0.
    9000005    1    3    3    0    0 -0.20563577348E+02 -0.59146839044E+02  0.30648690246E+03  0.31282012509E+03  0.10000000000E+01 0.  0.
          4    1    1    2  501    0  0.25537795735E+02 -0.47216857825E+01  0.10191607514E+03  0.10518066648E+03  0.12700000000E+01 0. -1.
<mgrwt>
<rscale>  1 0.12766996E+03</rscale>
<asrwt>0</asrwt>
<pdfrwt beam="2">  1       21 0.11272648E-02 0.12766996E+03</pdfrwt>
<pdfrwt beam="1">  1        4 0.12601141E+00 0.12766996E+03</pdfrwt>
<totfact> 0.61033047E+04</totfact>
</mgrwt>
</event>
<event>
 6    4  0.6325740E-003  0.1332405E+03  0.7818608E-02  0.1222725E+00
         -4   -1    0    0    0  501 -0.00000000000E+00  0.00000000000E+00  0.71600425773E+03  0.71600538405E+03  0.12700000000E+01 0. -1.
         21   -1    0    0  501  502  0.00000000000E+00 -0.00000000000E+00 -0.15015397476E+02  0.15015397476E+02  0.00000000000E+00 0.  1.
         25    2    1    2    0    0  0.42724625850E+02 -0.17385442272E+02  0.64426546744E+03  0.65789894177E+03  0.12500151115E+03 0.  0.
    9000005    1    3    3    0    0 -0.32584884382E+02  0.12920660963E+02  0.74056320494E+02  0.81939348148E+02  0.10000000000E+01 0.  0.
    9000005    1    3    3    0    0  0.75309510232E+02 -0.30306103235E+02  0.57020914694E+03  0.57595959362E+03  0.10000000000E+01 0.  0.
         -4    1    1    2    0  502 -0.42724625850E+02  0.17385442272E+02  0.56723392819E+02  0.73121839761E+02  0.12700000000E+01 0.  1.
<mgrwt>
<rscale>  1 0.13324048E+03</rscale>
<asrwt>0</asrwt>
<pdfrwt beam="2">  1       21 0.23100617E-02 0.13324048E+03</pdfrwt>
<pdfrwt beam="1">  1       -4 0.11015869E+00 0.13324048E+03</pdfrwt>
<totfact> 0.26814479E+04</totfact>
</mgrwt>
</event>
<event>
 6    4  0.6325740E-003  0.1282886E+03  0.7818608E-02  0.1230017E+00
         21   -1    0    0  501  502  0.00000000000E+00  0.00000000000E+00  0.29667624393E+03  0.29667624393E+03  0.00000000000E+00 0. -1.
          4   -1    0    0  502    0 -0.00000000000E+00 -0.00000000000E+00 -0.12614161755E+03  0.12614801060E+03  0.12700000000E+01 0.  1.
         25    2    1    2    0    0  0.25323126851E+02 -0.13784621450E+02 -0.92533113331E+02  0.15817821712E+03  0.12500677888E+03 0.  0.
    9000005    1    3    3    0    0  0.38234406335E+02 -0.23081169965E+02  0.16771831446E+02  0.47716921158E+02  0.10000000000E+01 0.  0.
    9000005    1    3    3    0    0 -0.12911279484E+02  0.92965485155E+01 -0.10930494478E+03  0.11046129596E+03  0.10000000000E+01 0.  0.
          4    1    1    2  501    0 -0.25323126851E+02  0.13784621450E+02  0.26306773971E+03  0.26464603741E+03  0.12700000000E+01 0. -1.
<mgrwt>
<rscale>  1 0.12828863E+03</rscale>
<asrwt>0</asrwt>
<pdfrwt beam="1">  1       21 0.45642499E-01 0.12828863E+03</pdfrwt>
<pdfrwt beam="2">  1        4 0.19407104E-01 0.12828863E+03</pdfrwt>
<totfact> 0.45212591E+03</totfact>
</mgrwt>
</event>
<event>
 6    4  0.6325740E-003  0.1425280E+03  0.7818608E-02  0.1209967E+00
         21   -1    0    0  501  502  0.00000000000E+00  0.00000000000E+00  0.42093742693E+03  0.42093742693E+03  0.00000000000E+00 0.  1.
         -4   -1    0    0    0  501 -0.00000000000E+00 -0.00000000000E+00 -0.49020515891E+02  0.49036964406E+02  0.12700000000E+01 0. -1.
         25    2    1    2    0    0 -0.65769539343E+02 -0.19046422144E+02  0.67052555760E+02  0.15751273525E+03  0.12500327208E+03 0.  0.
    9000005    1    3    3    0    0 -0.97350989008E+02  0.11866890874E+02  0.41886206227E+02  0.10664657722E+03  0.10000000000E+01 0.  0.
    9000005    1    3    3    0    0  0.31581449664E+02 -0.30913313018E+02  0.25166349533E+02  0.50866158037E+02  0.10000000000E+01 0.  0.
         -4    1    1    2    0  502  0.65769539343E+02  0.19046422144E+02  0.30486435528E+03  0.31246165608E+03  0.12700000000E+01 0.  1.
<mgrwt>
<rscale>  1 0.14252795E+03</rscale>
<asrwt>0</asrwt>
<pdfrwt beam="1">  1       21 0.64759602E-01 0.14252795E+03</pdfrwt>
<pdfrwt beam="2">  1       -4 0.75430308E-02 0.14252795E+03</pdfrwt>
<totfact> 0.11062746E+04</totfact>
</mgrwt>
</event>
<event>
 6    4  0.6325740E-003  0.1462915E+03  0.7818608E-02  0.1205105E+00
          4   -1    0    0  502    0 -0.00000000000E+00  0.00000000000E+00  0.29506702257E+02  0.29534020690E+02  0.12700000000E+01 0.  1.
         21   -1    0    0  501  502  0.00000000000E+00 -0.00000000000E+00 -0.13780088711E+04  0.13780088711E+04  0.00000000000E+00 0. -1.
         25    2    1    2    0    0 -0.21303968606E+02 -0.72939179377E+02 -0.16071063241E+03  0.21732260550E+03  0.12500889779E+03 0.  0.
    9000005    1    3    3    0    0 -0.72722096669E+02 -0.42724517349E+02 -0.74815524453E+02  0.11274861607E+03  0.10000000000E+01 0.  0.
    9000005    1    3    3    0    0  0.51418128063E+02 -0.30214662027E+02 -0.85895107959E+02  0.10457398943E+03  0.10000000000E+01 0.  0.
          4    1    1    2  501    0  0.21303968606E+02  0.72939179377E+02 -0.11877915364E+04  0.11902202863E+04  0.12700000000E+01 0. -1.
<mgrwt>
<rscale>  1 0.14629152E+03</rscale>
<asrwt>0</asrwt>
<pdfrwt beam="2">  1       21 0.21200138E+00 0.14629152E+03</pdfrwt>
<pdfrwt beam="1">  1        4 0.45416387E-02 0.14629152E+03</pdfrwt>
<totfact> 0.13372117E+03</totfact>
</mgrwt>
</event>
<event>
 6    4  0.6325740E-003  0.1285182E+03  0.7818608E-02  0.1229671E+00
         21   -1    0    0  501  502  0.00000000000E+00  0.00000000000E+00  0.26979132213E+03  0.26979132213E+03  0.00000000000E+00 0. -1.
          4   -1    0    0  502    0 -0.00000000000E+00 -0.00000000000E+00 -0.23642709483E+02  0.23676794793E+02  0.12700000000E+01 0. -1.
         25    2    1    2    0    0  0.89185072704E+01 -0.28602399144E+02  0.18370664207E+03  0.22419871821E+03  0.12497718951E+03 0.  0.
    9000005    1    3    3    0    0  0.63539310286E+02  0.60054642951E+01  0.89353255383E+02  0.10981035380E+03  0.10000000000E+01 0.  0.
    9000005    1    3    3    0    0 -0.54620803016E+02 -0.34607863439E+02  0.94353386683E+02  0.11438836441E+03  0.10000000000E+01 0.  0.
          4    1    1    2  501    0 -0.89185072704E+01  0.28602399144E+02  0.62441970582E+02  0.69269398719E+02  0.12700000000E+01 0.  1.
<mgrwt>
<rscale>  1 0.12851823E+03</rscale>
<asrwt>0</asrwt>
<pdfrwt beam="1">  1       21 0.41506355E-01 0.12851823E+03</pdfrwt>
<pdfrwt beam="2">  1        4 0.36401920E-02 0.12851823E+03</pdfrwt>
<totfact> 0.89458669E+04</totfact>
</mgrwt>
</event>
<event>
 6    4  0.6325740E-003  0.1345573E+03  0.7818608E-02  0.1220846E+00
         -4   -1    0    0    0  501 -0.00000000000E+00  0.00000000000E+00  0.16429867698E+03  0.16430358535E+03  0.12700000000E+01 0.  1.
         21   -1    0    0  501  502  0.00000000000E+00 -0.00000000000E+00 -0.59556387699E+02  0.59556387699E+02  0.00000000000E+00 0.  1.
         25    2    1    2    0    0 -0.31750662230E+02 -0.38344978389E+02  0.10998006498E+03  0.17378513791E+03  0.12500886988E+03 0.  0.
    9000005    1    3    3    0    0  0.20845692706E+02 -0.53532237079E+02  0.10385531748E+03  0.11868938571E+03  0.10000000000E+01 0.  0.
    9000005    1    3    3    0    0 -0.52596354936E+02  0.15187258690E+02  0.61247474958E+01  0.55095752205E+02  0.10000000000E+01 0.  0.
         -4    1    1    2    0  502  0.31750662230E+02  0.38344978389E+02 -0.52377756902E+01  0.50074835136E+02  0.12700000000E+01 0. -1.
<mgrwt>
<rscale>  1 0.13455727E+03</rscale>
<asrwt>0</asrwt>
<pdfrwt beam="2">  1       21 0.91625213E-02 0.13455727E+03</pdfrwt>
<pdfrwt beam="1">  1       -4 0.25278138E-01 0.13455727E+03</pdfrwt>
<totfact> 0.56097996E+04</totfact>
</mgrwt>
</event>
<event>
 6    4  0.6325740E-003  0.1303556E+03  0.7818608E-02  0.1226929E+00
         -4   -1    0    0    0  501 -0.00000000000E+00  0.00000000000E+00  0.17375156451E+03  0.17375620585E+03  0.12700000000E+01 0.  1.
         21   -1    0    0  501  502  0.00000000000E+00 -0.00000000000E+00 -0.43194132704E+02  0.43194132704E+02  0.00000000000E+00 0.  1.
         25    2    1    2    0    0  0.11266459534E+02 -0.35235237698E+02  0.75603596965E+02  0.15069332421E+03  0.12499647595E+03 0.  0.
    9000005    1    3    3    0    0  0.23516004585E+02 -0.77740151226E+02  0.28531127128E+02  0.86090410613E+02  0.10000000000E+01 0.  0.
    9000005    1    3    3    0    0 -0.12249545051E+02  0.42504913528E+02  0.47072469837E+02  0.64602913592E+02  0.10000000000E+01 0.  0.
         -4    1    1    2    0  502 -0.11266459534E+02  0.35235237698E+02  0.54953834843E+02  0.66257014345E+02  0.12700000000E+01 0. -1.
<mgrwt>
<rscale>  1 0.13035557E+03</rscale>
<asrwt>0</asrwt>
<pdfrwt beam="2">  1       21 0.66452513E-02 0.13035557E+03</pdfrwt>
<pdfrwt beam="1">  1       -4 0.26732803E-01 0.13035557E+03</pdfrwt>
<totfact> 0.87582801E+04</totfact>
</mgrwt>
</event>
<event>
 6    4  0.6325740E-003  0.1284234E+03  0.7818608E-02  0.1229814E+00
         21   -1    0    0  501  502  0.00000000000E+00  0.00000000000E+00  0.10658937815E+03  0.10658937815E+03  0.00000000000E+00 0.  1.
         -4   -1    0    0    0  501 -0.00000000000E+00 -0.00000000000E+00 -0.10023219015E+03  0.10024023564E+03  0.12700000000E+01 0. -1.
         25    2    1    2    0    0  0.16326153443E+02 -0.24480051890E+02 -0.54275985649E+02  0.13942181844E+03  0.12500697826E+03 0.  0.
    9000005    1    3    3    0    0  0.14827172980E+02  0.46519410629E+02  0.18940254573E+01  0.48872159317E+02  0.10000000000E+01 0.  0.
    9000005    1    3    3    0    0  0.14989804633E+01 -0.70999462519E+02 -0.56170011106E+02  0.90549659127E+02  0.10000000000E+01 0.  0.
         -4    1    1    2    0  502 -0.16326153443E+02  0.24480051890E+02  0.60633173656E+02  0.67407795353E+02  0.12700000000E+01 0.  1.
<mgrwt>
<rscale>  1 0.12842337E+03</rscale>
<asrwt>0</asrwt>
<pdfrwt beam="1">  1       21 0.16398366E-01 0.12842337E+03</pdfrwt>
<pdfrwt beam="2">  1       -4 0.15421538E-01 0.12842337E+03</pdfrwt>
<totfact> 0.48178754E+04</totfact>
</mgrwt>
</event>
<event>
 6    4  0.6325740E-003  0.1364074E+03  0.7818608E-02  0.1218247E+00
         21   -1    0    0  501  502  0.00000000000E+00  0.00000000000E+00  0.21020370976E+03  0.21020370976E+03  0.00000000000E+00 0.  1.
          4   -1    0    0  502    0 -0.00000000000E+00 -0.00000000000E+00 -0.43511573658E+02  0.43530103862E+02  0.12700000000E+01 0.  1.
         25    2    1    2    0    0 -0.38499655025E+02 -0.38725445233E+02  0.11285691196E+03  0.17704139024E+03  0.12500035094E+03 0.  0.
    9000005    1    3    3    0    0  0.41293391246E+02  0.99319935142E+01  0.42153172046E+02  0.59847126658E+02  0.10000000000E+01 0.  0.
    9000005    1    3    3    0    0 -0.79793046271E+02 -0.48657438747E+02  0.70703739914E+02  0.11719426358E+03  0.10000000000E+01 0.  0.
          4    1    1    2  501    0  0.38499655025E+02  0.38725445233E+02  0.53835224140E+02  0.76692423379E+02  0.12700000000E+01 0. -1.
<mgrwt>
<rscale>  1 0.13640737E+03</rscale>
<asrwt>0</asrwt>
<pdfrwt beam="1">  1       21 0.32339032E-01 0.13640737E+03</pdfrwt>
<pdfrwt beam="2">  1        4 0.66958089E-02 0.13640737E+03</pdfrwt>
<totfact> 0.55446644E+04</totfact>
</mgrwt>
</event>
<event>
 6    4  0.6325740E-003  0.1279408E+03  0.7818608E-02  0.1230544E+00
         -4   -1    0    0    0  501 -0.00000000000E+00  0.00000000000E+00  0.13354901596E+03  0.13355505443E+03  0.12700000000E+01 0.  1.
         21   -1    0    0  501  502  0.00000000000E+00 -0.00000000000E+00 -0.13319032268E+03  0.13319032268E+03  0.00000000000E+00 0. -1.
         25    2    1    2    0    0 -0.15713860980E+02 -0.22305092651E+02  0.10065958790E+03  0.16279190219E+03  0.12499763277E+03 0.  0.
    9000005    1    3    3    0    0 -0.66357086910E+02 -0.28472956457E+02  0.36803700721E+02  0.81052357271E+02  0.10000000000E+01 0.  0.
    9000005    1    3    3    0    0  0.50643225930E+02  0.61678638053E+01  0.63855887178E+02  0.81739544920E+02  0.10000000000E+01 0.  0.
         -4    1    1    2    0  502  0.15713860980E+02  0.22305092651E+02 -0.10030089462E+03  0.10395347491E+03  0.12700000000E+01 0. -1.
<mgrwt>
<rscale>  1 0.12794081E+03</rscale>
<asrwt>0</asrwt>
<pdfrwt beam="2">  1       21 0.20490819E-01 0.12794081E+03</pdfrwt>
<pdfrwt beam="1">  1       -4 0.20546933E-01 0.12794081E+03</pdfrwt>
<totfact> 0.19235511E+04</totfact>
</mgrwt>
</event>
<event>
 6    4  0.6325740E-003  0.1296801E+03  0.7818608E-02  0.1227931E+00
         21   -1    0    0  501  502  0.00000000000E+00  0.00000000000E+00  0.22980190110E+02  0.22980190110E+02  0.00000000000E+00 0.  1.
          4   -1    0    0  502    0 -0.00000000000E+00 -0.00000000000E+00 -0.59535361080E+03  0.59535496537E+03  0.12700000000E+01 0. -1.
         25    2    1    2    0    0 -0.33305214500E+02  0.91328554005E+01 -0.56902539182E+03  0.58361529722E+03  0.12499708895E+03 0.  0.
    9000005    1    3    3    0    0 -0.69589284624E+02  0.41513305594E+02 -0.35444108327E+03  0.36358699727E+03  0.10000000000E+01 0.  0.
    9000005    1    3    3    0    0  0.36284070124E+02 -0.32380450194E+02 -0.21458430855E+03  0.22002829994E+03  0.10000000000E+01 0.  0.
          4    1    1    2  501    0  0.33305214500E+02 -0.91328554005E+01 -0.33480288690E+01  0.34719858265E+02  0.12700000000E+01 0.  1.
<mgrwt>
<rscale>  1 0.12968006E+03</rscale>
<asrwt>0</asrwt>
<pdfrwt beam="1">  1       21 0.35354137E-02 0.12968006E+03</pdfrwt>
<pdfrwt beam="2">  1        4 0.91595671E-01 0.12968006E+03</pdfrwt>
<totfact> 0.20404260E+04</totfact>
</mgrwt>
</event>
<event>
 6    4  0.6325740E-003  0.1274232E+03  0.7818608E-02  0.1231330E+00
         21   -1    0    0  501  502  0.00000000000E+00  0.00000000000E+00  0.33973375811E+02  0.33973375811E+02  0.00000000000E+00 0. -1.
         -4   -1    0    0    0  501 -0.00000000000E+00 -0.00000000000E+00 -0.53559849143E+03  0.53559999713E+03  0.12700000000E+01 0.  1.
         25    2    1    2    0    0  0.21919308251E+02  0.11431285844E+02 -0.52211534822E+03  0.53743938934E+03  0.12500211998E+03 0.  0.
    9000005    1    3    3    0    0 -0.21122294263E+02  0.19360948174E+02 -0.23959883583E+02  0.37364068976E+02  0.10000000000E+01 0.  0.
    9000005    1    3    3    0    0  0.43041602514E+02 -0.79296623300E+01 -0.49815546464E+03  0.50007532036E+03  0.10000000000E+01 0.  0.
         -4    1    1    2    0  502 -0.21919308251E+02 -0.11431285844E+02  0.20490232595E+02  0.32133983601E+02  0.12700000000E+01 0. -1.
<mgrwt>
<rscale>  1 0.12742315E+03</rscale>
<asrwt>0</asrwt>
<pdfrwt beam="1">  1       21 0.52266738E-02 0.12742315E+03</pdfrwt>
<pdfrwt beam="2">  1       -4 0.82401700E-01 0.12742315E+03</pdfrwt>
<totfact> 0.13453434E+04</totfact>
</mgrwt>
</event>
<event>
 6    4  0.6325740E-003  0.1288226E+03  0.7818608E-02  0.1229213E+00
         21   -1    0    0  501  502  0.00000000000E+00  0.00000000000E+00  0.53797881325E+02  0.53797881325E+02  0.00000000000E+00 0. -1.
          4   -1    0    0  502    0 -0.00000000000E+00 -0.00000000000E+00 -0.15145858010E+03  0.15146390457E+03  0.12700000000E+01 0.  1.
         25    2    1    2    0    0 -0.26949093535E+02  0.15894608782E+02 -0.11211116503E+03  0.17077525076E+03  0.12496551812E+03 0.  0.
    9000005    1    3    3    0    0 -0.64638871581E+02 -0.20028478194E+02 -0.31128956159E+02  0.74493862630E+02  0.10000000000E+01 0.  0.
    9000005    1    3    3    0    0  0.37689778046E+02  0.35923086976E+02 -0.80982208869E+02  0.96281388131E+02  0.10000000000E+01 0.  0.
          4    1    1    2  501    0  0.26949093535E+02 -0.15894608782E+02  0.14450466247E+02  0.34486535133E+02  0.12700000000E+01 0. -1.
<mgrwt>
<rscale>  1 0.12882264E+03</rscale>
<asrwt>0</asrwt>
<pdfrwt beam="1">  1       21 0.82765972E-02 0.12882264E+03</pdfrwt>
<pdfrwt beam="2">  1        4 0.23302883E-01 0.12882264E+03</pdfrwt>
<totfact> 0.77267707E+04</totfact>
</mgrwt>
</event>
<event>
 6    4  0.6325740E-003  0.1279665E+03  0.7818608E-02  0.1230505E+00
         21   -1    0    0  501  502  0.00000000000E+00  0.00000000000E+00  0.45225188897E+03  0.45225188897E+03  0.00000000000E+00 0. -1.
          4   -1    0    0  502    0 -0.00000000000E+00 -0.00000000000E+00 -0.51297973067E+02  0.51313691553E+02  0.12700000000E+01 0.  1.
         25    2    1    2    0    0 -0.26740866710E+02  0.58728894100E+01  0.29786311991E+02  0.13138744055E+03  0.12500348143E+03 0.  0.
    9000005    1    3    3    0    0 -0.23002567535E+02  0.54325888395E+02 -0.19521648141E+02  0.62149135225E+02  0.10000000000E+01 0.  0.
    9000005    1    3    3    0    0 -0.37382991752E+01 -0.48452998985E+02  0.49307960132E+02  0.69238305321E+02  0.10000000000E+01 0.  0.
          4    1    1    2  501    0  0.26740866710E+02 -0.58728894100E+01  0.37116760392E+03  0.37217813998E+03  0.12700000000E+01 0. -1.
<mgrwt>
<rscale>  1 0.12796654E+03</rscale>
<asrwt>0</asrwt>
<pdfrwt beam="1">  1       21 0.69577211E-01 0.12796654E+03</pdfrwt>
<pdfrwt beam="2">  1        4 0.78933424E-02 0.12796654E+03</pdfrwt>
<totfact> 0.87210093E+03</totfact>
</mgrwt>
</event>
<event>
 6    4  0.6325740E-003  0.1273803E+03  0.7818608E-02  0.1231396E+00
         21   -1    0    0  501  502  0.00000000000E+00  0.00000000000E+00  0.17625135998E+02  0.17625135998E+02  0.00000000000E+00 0.  1.
         -4   -1    0    0    0  501 -0.00000000000E+00 -0.00000000000E+00 -0.43384067631E+03  0.43384253517E+03  0.12700000000E+01 0. -1.
         25    2    1    2    0    0  0.17486555623E+02 -0.17188366376E+02 -0.40484186018E+03  0.42440860492E+03  0.12499805044E+03 0.  0.
    9000005    1    3    3    0    0 -0.69861603333E+01 -0.64498184475E+02 -0.14058613570E+03  0.15483631289E+03  0.10000000000E+01 0.  0.
    9000005    1    3    3    0    0  0.24472715957E+02  0.47309818100E+02 -0.26425572447E+03  0.26957229203E+03  0.10000000000E+01 0.  0.
         -4    1    1    2    0  502 -0.17486555623E+02  0.17188366376E+02 -0.11373680135E+02  0.27059066245E+02  0.12700000000E+01 0.  1.
<mgrwt>
<rscale>  1 0.12738027E+03</rscale>
<asrwt>0</asrwt>
<pdfrwt beam="1">  1       21 0.27115597E-02 0.12738027E+03</pdfrwt>
<pdfrwt beam="2">  1       -4 0.66748375E-01 0.12738027E+03</pdfrwt>
<totfact> 0.63124324E+04</totfact>
</mgrwt>
</event>
<event>
 6    4  0.6325740E-003  0.1294378E+03  0.7818608E-02  0.1228292E+00
         -4   -1    0    0    0  501 -0.00000000000E+00  0.00000000000E+00  0.12042029162E+04  0.12042035859E+04  0.12700000000E+01 0.  1.
         21   -1    0    0  501  502  0.00000000000E+00 -0.00000000000E+00 -0.84679956553E+01  0.84679956553E+01  0.00000000000E+00 0. -1.
         25    2    1    2    0    0  0.23125870848E+02  0.24378062875E+02  0.11417984113E+04  0.11491117217E+04  0.12500016443E+03 0.  0.
    9000005    1    3    3    0    0 -0.80123190463E+01  0.41506583557E+02  0.10471969494E+04  0.10480503063E+04  0.10000000000E+01 0.  0.
    9000005    1    3    3    0    0  0.31138189895E+02 -0.17128520682E+02  0.94601461868E+02  0.10106141538E+03  0.10000000000E+01 0.  0.
         -4    1    1    2    0  502 -0.23125870848E+02 -0.24378062875E+02  0.53936509269E+02  0.63559859850E+02  0.12700000000E+01 0. -1.
<mgrwt>
<rscale>  1 0.12943777E+03</rscale>
<asrwt>0</asrwt>
<pdfrwt beam="2">  1       21 0.13027695E-02 0.12943777E+03</pdfrwt>
<pdfrwt beam="1">  1       -4 0.18526923E+00 0.12943777E+03</pdfrwt>
<totfact> 0.18057585E+04</totfact>
</mgrwt>
</event>
<event>
 6    4  0.6325740E-003  0.1286983E+03  0.7818608E-02  0.1229400E+00
         -4   -1    0    0    0  501 -0.00000000000E+00  0.00000000000E+00  0.18464434597E+03  0.18464871350E+03  0.12700000000E+01 0. -1.
         21   -1    0    0  501  502  0.00000000000E+00 -0.00000000000E+00 -0.34460161818E+02  0.34460161818E+02  0.00000000000E+00 0. -1.
         25    2    1    2    0    0 -0.29878715994E+01 -0.30496434008E+02  0.12521970578E+03  0.17956399014E+03  0.12499716787E+03 0.  0.
    9000005    1    3    3    0    0 -0.44079197675E+02 -0.54625367549E+02  0.10815354517E+03  0.12893834100E+03  0.10000000000E+01 0.  0.
    9000005    1    3    3    0    0  0.41091326075E+02  0.24128933542E+02  0.17066160611E+02  0.50625649136E+02  0.10000000000E+01 0.  0.
         -4    1    1    2    0  502  0.29878715994E+01  0.30496434008E+02  0.24964478373E+02  0.39544885185E+02  0.12700000000E+01 0.  1.
<mgrwt>
<rscale>  1 0.12869830E+03</rscale>
<asrwt>0</asrwt>
<pdfrwt beam="2">  1       21 0.53015635E-02 0.12869830E+03</pdfrwt>
<pdfrwt beam="1">  1       -4 0.28408958E-01 0.12869830E+03</pdfrwt>
<totfact> 0.11443981E+05</totfact>
</mgrwt>
</event>
<event>
 6    4  0.6325740E-003  0.1274206E+03  0.7818608E-02  0.1231334E+00
         -4   -1    0    0    0  501 -0.00000000000E+00  0.00000000000E+00  0.15152042558E+02  0.15205173254E+02  0.12700000000E+01 0. -1.
         21   -1    0    0  501  502  0.00000000000E+00 -0.00000000000E+00 -0.10046178027E+04  0.10046178027E+04  0.00000000000E+00 0.  1.
         25    2    1    2    0    0 -0.24647910790E+02 -0.17692634128E+01 -0.25617367005E+03  0.28611352931E+03  0.12500141051E+03 0.  0.
    9000005    1    3    3    0    0 -0.61026691491E+01  0.21836914974E+02  0.49821740531E+01  0.23236081525E+02  0.10000000000E+01 0.  0.
    9000005    1    3    3    0    0 -0.18545241641E+02 -0.23606178387E+02 -0.26115584410E+03  0.26287744779E+03  0.10000000000E+01 0.  0.
         -4    1    1    2    0  502  0.24647910790E+02  0.17692634128E+01 -0.73329209005E+03  0.73370944660E+03  0.12700000000E+01 0.  1.
<mgrwt>
<rscale>  1 0.12742057E+03</rscale>
<asrwt>0</asrwt>
<pdfrwt beam="2">  1       21 0.15455661E+00 0.12742057E+03</pdfrwt>
<pdfrwt beam="1">  1       -4 0.23352319E-02 0.12742057E+03</pdfrwt>
<totfact> 0.91812181E+03</totfact>
</mgrwt>
</event>
<event>
 6    4  0.6325740E-003  0.1274763E+03  0.7818608E-02  0.1231249E+00
         21   -1    0    0  501  502  0.00000000000E+00  0.00000000000E+00  0.25889047515E+02  0.25889047515E+02  0.00000000000E+00 0. -1.
         -4   -1    0    0    0  501 -0.00000000000E+00 -0.00000000000E+00 -0.25047187204E+03  0.25047509174E+03  0.12700000000E+01 0. -1.
         25    2    1    2    0    0  0.24950307109E+02  0.10549916011E+01 -0.21425600593E+03  0.24931073071E+03  0.12500629398E+03 0.  0.
    9000005    1    3    3    0    0 -0.83381740748E+00 -0.40186352195E+02 -0.12997543536E+02  0.42256056278E+02  0.10000000000E+01 0.  0.
    9000005    1    3    3    0    0  0.25784124516E+02  0.41241343796E+02 -0.20125846240E+03  0.20705467443E+03  0.10000000000E+01 0.  0.
         -4    1    1    2    0  502 -0.24950307109E+02 -0.10549916011E+01 -0.10326818591E+02  0.27053408553E+02  0.12700000000E+01 0.  1.
<mgrwt>
<rscale>  1 0.12747629E+03</rscale>
<asrwt>0</asrwt>
<pdfrwt beam="1">  1       21 0.39829305E-02 0.12747629E+03</pdfrwt>
<pdfrwt beam="2">  1       -4 0.38536777E-01 0.12747629E+03</pdfrwt>
<totfact> 0.10287422E+05</totfact>
</mgrwt>
</event>
<event>
 6    4  0.6325740E-003  0.1273717E+03  0.7818608E-02  0.1231409E+00
         -4   -1    0    0    0  501 -0.00000000000E+00  0.00000000000E+00  0.25387682670E+02  0.25419428226E+02  0.12700000000E+01 0. -1.
         21   -1    0    0  501  502  0.00000000000E+00 -0.00000000000E+00 -0.53757595508E+03  0.53757595508E+03  0.00000000000E+00 0. -1.
         25    2    1    2    0    0  0.21905072285E+02  0.10872571171E+02 -0.13720400027E+03  0.18721238442E+03  0.12500197677E+03 0.  0.
    9000005    1    3    3    0    0  0.66306650868E+02  0.30716339264E+02 -0.54135672919E+02  0.90949087568E+02  0.10000000000E+01 0.  0.
    9000005    1    3    3    0    0 -0.44401578583E+02 -0.19843768093E+02 -0.83068327349E+02  0.96263296854E+02  0.10000000000E+01 0.  0.
         -4    1    1    2    0  502 -0.21905072285E+02 -0.10872571171E+02 -0.37498427215E+03  0.37578299889E+03  0.12700000000E+01 0.  1.
<mgrwt>
<rscale>  1 0.12737166E+03</rscale>
<asrwt>0</asrwt>
<pdfrwt beam="2">  1       21 0.82703994E-01 0.12737166E+03</pdfrwt>
<pdfrwt beam="1">  1       -4 0.39083546E-02 0.12737166E+03</pdfrwt>
<totfact> 0.18530559E+04</totfact>
</mgrwt>
</event>
<event>
 6    4  0.6325740E-003  0.1266177E+03  0.7818608E-02  0.1232562E+00
         -4   -1    0    0    0  501 -0.00000000000E+00  0.00000000000E+00  0.14491593344E+03  0.14492149828E+03  0.12700000000E+01 0.  1.
         21   -1    0    0  501  502  0.00000000000E+00 -0.00000000000E+00 -0.44897466938E+02  0.44897466938E+02  0.00000000000E+00 0.  1.
         25    2    1    2    0    0  0.15505026787E+02 -0.12816651770E+02  0.10963406727E+03  0.16748636357E+03  0.12500952307E+03 0.  0.
    9000005    1    3    3    0    0 -0.25669873479E+01 -0.27979460508E+02  0.13200150938E+03  0.13496235813E+03  0.10000000000E+01 0.  0.
    9000005    1    3    3    0    0  0.18072014135E+02  0.15162808738E+02 -0.22367442107E+02  0.32524005444E+02  0.10000000000E+01 0.  0.
         -4    1    1    2    0  502 -0.15505026787E+02  0.12816651770E+02 -0.96156007671E+01  0.22332601648E+02  0.12700000000E+01 0. -1.
<mgrwt>
<rscale>  1 0.12661774E+03</rscale>
<asrwt>0</asrwt>
<pdfrwt beam="2">  1       21 0.69073027E-02 0.12661774E+03</pdfrwt>
<pdfrwt beam="1">  1       -4 0.22296568E-01 0.12661774E+03</pdfrwt>
<totfact> 0.11397553E+05</totfact>
</mgrwt>
</event>
<event>
 6    4  0.6325740E-003  0.1857731E+03  0.7818608E-02  0.1162330E+00
         21   -1    0    0  501  502  0.00000000000E+00  0.00000000000E+00  0.13202707912E+03  0.13202707912E+03  0.00000000000E+00 0. -1.
         -4   -1    0    0    0  501 -0.00000000000E+00 -0.00000000000E+00 -0.54121327970E+03  0.54121476977E+03  0.12700000000E+01 0.  1.
         25    2    1    2    0    0  0.75585075490E+02 -0.11477692857E+03 -0.48281812055E+03  0.51732482125E+03  0.12499914475E+03 0.  0.
    9000005    1    3    3    0    0  0.23216215028E+02  0.22436117365E+02 -0.15161590904E+03  0.15501856623E+03  0.10000000000E+01 0.  0.
    9000005    1    3    3    0    0  0.52368860461E+02 -0.13721304594E+03 -0.33120221151E+03  0.36230625502E+03  0.10000000000E+01 0.  0.
         -4    1    1    2    0  502 -0.75585075490E+02  0.11477692857E+03  0.73631919966E+02  0.15591702764E+03  0.12700000000E+01 0. -1.
<mgrwt>
<rscale>  1 0.18577307E+03</rscale>
<asrwt>0</asrwt>
<pdfrwt beam="1">  1       21 0.20311859E-01 0.18577307E+03</pdfrwt>
<pdfrwt beam="2">  1       -4 0.83264165E-01 0.18577307E+03</pdfrwt>
<totfact> 0.12243702E+03</totfact>
</mgrwt>
</event>
<event>
 6    4  0.6325740E-003  0.1273839E+03  0.7818608E-02  0.1231390E+00
         -4   -1    0    0    0  501 -0.00000000000E+00  0.00000000000E+00  0.37441682668E+03  0.37441898056E+03  0.12700000000E+01 0. -1.
         21   -1    0    0  501  502  0.00000000000E+00 -0.00000000000E+00 -0.17824440107E+02  0.17824440107E+02  0.00000000000E+00 0. -1.
         25    2    1    2    0    0  0.24493070312E+02  0.14276847943E+01  0.33866736364E+03  0.36183177611E+03  0.12499880893E+03 0.  0.
    9000005    1    3    3    0    0 -0.40687356995E+02 -0.33959490185E+02  0.15132039474E+03  0.16033580341E+03  0.10000000000E+01 0.  0.
    9000005    1    3    3    0    0  0.65180427307E+02  0.35387174979E+02  0.18734696891E+03  0.20149597270E+03  0.10000000000E+01 0.  0.
         -4    1    1    2    0  502 -0.24493070312E+02 -0.14276847943E+01  0.17925022936E+02  0.30411644553E+02  0.12700000000E+01 0.  1.
<mgrwt>
<rscale>  1 0.12738387E+03</rscale>
<asrwt>0</asrwt>
<pdfrwt beam="2">  1       21 0.27422218E-02 0.12738387E+03</pdfrwt>
<pdfrwt beam="1">  1       -4 0.57606229E-01 0.12738387E+03</pdfrwt>
<totfact> 0.84556607E+04</totfact>
</mgrwt>
</event>
<event>
 6    4  0.6325740E-003  0.1266264E+03  0.7818608E-02  0.1232549E+00
          4   -1    0    0  502    0 -0.00000000000E+00  0.00000000000E+00  0.22582333418E+02  0.22618016770E+02  0.12700000000E+01 0.  1.
         21   -1    0    0  501  502  0.00000000000E+00 -0.00000000000E+00 -0.26545055519E+03  0.26545055519E+03  0.00000000000E+00 0. -1.
         25    2    1    2    0    0  0.15859013976E+02  0.12578140946E+02 -0.16725104429E+03  0.20977880006E+03  0.12499806072E+03 0.  0.
    9000005    1    3    3    0    0  0.40580829791E+02 -0.45806437478E+02 -0.63576798466E+02  0.88249888182E+02  0.10000000000E+01 0.  0.
    9000005    1    3    3    0    0 -0.24721815816E+02  0.58384578424E+02 -0.10367424583E+03  0.12152891188E+03  0.10000000000E+01 0.  0.
          4    1    1    2  501    0 -0.15859013976E+02 -0.12578140946E+02 -0.75617177480E+02  0.78289771899E+02  0.12700000000E+01 0. -1.
<mgrwt>
<rscale>  1 0.12662635E+03</rscale>
<asrwt>0</asrwt>
<pdfrwt beam="2">  1       21 0.40838548E-01 0.12662635E+03</pdfrwt>
<pdfrwt beam="1">  1        4 0.34771837E-02 0.12662635E+03</pdfrwt>
<totfact> 0.99154827E+04</totfact>
</mgrwt>
</event>
<event>
 6    4  0.6325740E-003  0.1349683E+03  0.7818608E-02  0.1220265E+00
         21   -1    0    0  501  502  0.00000000000E+00  0.00000000000E+00  0.33582694974E+02  0.33582694974E+02  0.00000000000E+00 0.  1.
         -4   -1    0    0    0  501 -0.00000000000E+00 -0.00000000000E+00 -0.36525899468E+03  0.36526120256E+03  0.12700000000E+01 0. -1.
         25    2    1    2    0    0 -0.37651296140E+02 -0.34263893713E+02 -0.31898285738E+03  0.34636179685E+03  0.12499918602E+03 0.  0.
    9000005    1    3    3    0    0  0.46663724069E+01  0.37154796110E+02 -0.18490837184E+03  0.18866467577E+03  0.10000000000E+01 0.  0.
    9000005    1    3    3    0    0 -0.42317668547E+02 -0.71418689823E+02 -0.13407448554E+03  0.15769712109E+03  0.10000000000E+01 0.  0.
         -4    1    1    2    0  502  0.37651296140E+02  0.34263893713E+02 -0.12693442328E+02  0.52482100678E+02  0.12700000000E+01 0.  1.
<mgrwt>
<rscale>  1 0.13496826E+03</rscale>
<asrwt>0</asrwt>
<pdfrwt beam="1">  1       21 0.51665687E-02 0.13496826E+03</pdfrwt>
<pdfrwt beam="2">  1       -4 0.56195706E-01 0.13496826E+03</pdfrwt>
<totfact> 0.31391144E+04</totfact>
</mgrwt>
</event>
<event>
 6    4  0.6325740E-003  0.1302168E+03  0.7818608E-02  0.1227134E+00
         -4   -1    0    0    0  501 -0.00000000000E+00  0.00000000000E+00  0.21528719614E+03  0.21529094203E+03  0.12700000000E+01 0.  1.
         21   -1    0    0  501  502  0.00000000000E+00 -0.00000000000E+00 -0.44130475499E+02  0.44130475499E+02  0.00000000000E+00 0.  1.
         25    2    1    2    0    0  0.34931862437E+02 -0.10569768027E+02  0.17969737860E+03  0.22191794105E+03  0.12499787868E+03 0.  0.
    9000005    1    3    3    0    0  0.22395276855E+02 -0.37687628642E+02  0.43785280060E+01  0.44069005952E+02  0.10000000000E+01 0.  0.
    9000005    1    3    3    0    0  0.12536585581E+02  0.27117860615E+02  0.17531885060E+03  0.17784893510E+03  0.10000000000E+01 0.  0.
         -4    1    1    2    0  502 -0.34931862437E+02  0.10569768027E+02 -0.85406579630E+01  0.37503476477E+02  0.12700000000E+01 0. -1.
<mgrwt>
<rscale>  1 0.13021684E+03</rscale>
<asrwt>0</asrwt>
<pdfrwt beam="2">  1       21 0.67893040E-02 0.13021684E+03</pdfrwt>
<pdfrwt beam="1">  1       -4 0.33122800E-01 0.13021684E+03</pdfrwt>
<totfact> 0.56345398E+04</totfact>
</mgrwt>
</event>
<event>
 6    4  0.6325740E-003  0.1267299E+03  0.7818608E-02  0.1232390E+00
          4   -1    0    0  502    0 -0.00000000000E+00  0.00000000000E+00  0.10903049189E+04  0.10903056585E+04  0.12700000000E+01 0. -1.
         21   -1    0    0  501  502  0.00000000000E+00 -0.00000000000E+00 -0.69388387713E+01  0.69388387713E+01  0.00000000000E+00 0. -1.
         25    2    1    2    0    0 -0.10857011641E+02 -0.17830364628E+02  0.10516191867E+04  0.10592277281E+04  0.12499867756E+03 0.  0.
    9000005    1    3    3    0    0  0.25533353659E+02 -0.63217896202E+02  0.52744369073E+03  0.53183296385E+03  0.10000000000E+01 0.  0.
    9000005    1    3    3    0    0 -0.36390365300E+02  0.45387531574E+02  0.52417549600E+03  0.52739476421E+03  0.10000000000E+01 0.  0.
          4    1    1    2  501    0  0.10857011641E+02  0.17830364628E+02  0.31746893375E+02  0.38016769240E+02  0.12700000000E+01 0.  1.
<mgrwt>
<rscale>  1 0.12672989E+03</rscale>
<asrwt>0</asrwt>
<pdfrwt beam="2">  1       21 0.10675145E-02 0.12672989E+03</pdfrwt>
<pdfrwt beam="1">  1        4 0.16774808E+00 0.12672989E+03</pdfrwt>
<totfact> 0.32278908E+04</totfact>
</mgrwt>
</event>
<event>
 6    4  0.6325740E-003  0.1286101E+03  0.7818608E-02  0.1229533E+00
         21   -1    0    0  501  502  0.00000000000E+00  0.00000000000E+00  0.86223583605E+02  0.86223583605E+02  0.00000000000E+00 0.  1.
         -4   -1    0    0    0  501 -0.00000000000E+00 -0.00000000000E+00 -0.74117200601E+02  0.74128080543E+02  0.12700000000E+01 0.  1.
         25    2    1    2    0    0  0.30287566114E+02  0.21008895020E+00  0.28005673196E+01  0.12864059504E+03  0.12499271465E+03 0.  0.
    9000005    1    3    3    0    0  0.72216257366E+02 -0.21609735310E+02 -0.17172054062E+02  0.77317837068E+02  0.10000000000E+01 0.  0.
    9000005    1    3    3    0    0 -0.41928691252E+02  0.21819824261E+02  0.19972621382E+02  0.51322757971E+02  0.10000000000E+01 0.  0.
         -4    1    1    2    0  502 -0.30287566114E+02 -0.21008895020E+00  0.93058156836E+01  0.31711069108E+02  0.12700000000E+01 0. -1.
<mgrwt>
<rscale>  1 0.12861011E+03</rscale>
<asrwt>0</asrwt>
<pdfrwt beam="1">  1       21 0.13265167E-01 0.12861011E+03</pdfrwt>
<pdfrwt beam="2">  1       -4 0.11404203E-01 0.12861011E+03</pdfrwt>
<totfact> 0.11877000E+05</totfact>
</mgrwt>
</event>
<event>
 6    4  0.6325740E-003  0.1402120E+03  0.7818608E-02  0.1213044E+00
         21   -1    0    0  501  502  0.00000000000E+00  0.00000000000E+00  0.79406022136E+03  0.79406022136E+03  0.00000000000E+00 0.  1.
          4   -1    0    0  502    0 -0.00000000000E+00 -0.00000000000E+00 -0.15612846774E+02  0.15664414588E+02  0.12700000000E+01 0.  1.
         25    2    1    2    0    0 -0.53481543214E+02  0.34272197510E+02  0.66572915562E+03  0.68033426238E+03  0.12499816371E+03 0.  0.
    9000005    1    3    3    0    0 -0.32578788374E+02  0.45151930326E+02  0.10282432737E+03  0.11693552310E+03  0.10000000000E+01 0.  0.
    9000005    1    3    3    0    0 -0.20902754840E+02 -0.10879732816E+02  0.56290482825E+03  0.56339873927E+03  0.10000000000E+01 0.  0.
          4    1    1    2  501    0  0.53481543214E+02 -0.34272197510E+02  0.11271821896E+03  0.12939037357E+03  0.12700000000E+01 0. -1.
<mgrwt>
<rscale>  1 0.14021198E+03</rscale>
<asrwt>0</asrwt>
<pdfrwt beam="1">  1       21 0.12216308E+00 0.14021198E+03</pdfrwt>
<pdfrwt beam="2">  1        4 0.24060219E-02 0.14021198E+03</pdfrwt>
<totfact> 0.15980947E+04</totfact>
</mgrwt>
</event>
<event>
 6    4  0.6325740E-003  0.1281452E+03  0.7818608E-02  0.1230234E+00
         -4   -1    0    0    0  501 -0.00000000000E+00  0.00000000000E+00  0.15849312386E+02  0.15900113305E+02  0.12700000000E+01 0. -1.
         21   -1    0    0  501  502  0.00000000000E+00 -0.00000000000E+00 -0.38967400818E+03  0.38967400818E+03  0.00000000000E+00 0. -1.
         25    2    1    2    0    0 -0.31565086655E+01 -0.28047039215E+02 -0.28810178886E+03  0.31531543975E+03  0.12499834336E+03 0.  0.
    9000005    1    3    3    0    0  0.25414051817E+02 -0.63354354187E+02 -0.95273951030E+02  0.11720825043E+03  0.10000000000E+01 0.  0.
    9000005    1    3    3    0    0 -0.28570560482E+02  0.35307314972E+02 -0.19282783783E+03  0.19810718932E+03  0.10000000000E+01 0.  0.
         -4    1    1    2    0  502  0.31565086655E+01  0.28047039215E+02 -0.85722906936E+02  0.90258681738E+02  0.12700000000E+01 0.  1.
<mgrwt>
<rscale>  1 0.12814517E+03</rscale>
<asrwt>0</asrwt>
<pdfrwt beam="2">  1       21 0.59949849E-01 0.12814517E+03</pdfrwt>
<pdfrwt beam="1">  1       -4 0.24424226E-02 0.12814517E+03</pdfrwt>
<totfact> 0.78186061E+04</totfact>
</mgrwt>
</event>
<event>
 6    4  0.6325740E-003  0.1382681E+03  0.7818608E-02  0.1215678E+00
         21   -1    0    0  501  502  0.00000000000E+00  0.00000000000E+00  0.30840483671E+03  0.30840483671E+03  0.00000000000E+00 0.  1.
          4   -1    0    0  502    0 -0.00000000000E+00 -0.00000000000E+00 -0.78497175380E+02  0.78507448326E+02  0.12700000000E+01 0. -1.
         25    2    1    2    0    0 -0.59006640396E+02  0.34146327214E+01 -0.11144372236E+02  0.13871651732E+03  0.12499852726E+03 0.  0.
    9000005    1    3    3    0    0 -0.94411649864E+02 -0.12051712520E+02  0.81275544180E+01  0.95529370067E+02  0.10000000000E+01 0.  0.
    9000005    1    3    3    0    0  0.35405009468E+02  0.15466345241E+02 -0.19271926654E+02  0.43187147249E+02  0.10000000000E+01 0.  0.
          4    1    1    2  501    0  0.59006640396E+02 -0.34146327214E+01  0.24105203356E+03  0.24819576772E+03  0.12700000000E+01 0.  1.
<mgrwt>
<rscale>  1 0.13826813E+03</rscale>
<asrwt>0</asrwt>
<pdfrwt beam="1">  1       21 0.47446898E-01 0.13826813E+03</pdfrwt>
<pdfrwt beam="2">  1        4 0.12077480E-01 0.13826813E+03</pdfrwt>
<totfact> 0.96245298E+03</totfact>
</mgrwt>
</event>
<event>
 6    4  0.6325740E-003  0.1280465E+03  0.7818608E-02  0.1230384E+00
         -4   -1    0    0    0  501 -0.00000000000E+00  0.00000000000E+00  0.17921579418E+03  0.17922029401E+03  0.12700000000E+01 0.  1.
         21   -1    0    0  501  502  0.00000000000E+00 -0.00000000000E+00 -0.72363953059E+02  0.72363953059E+02  0.00000000000E+00 0.  1.
         25    2    1    2    0    0  0.24025530868E+02  0.13877176744E+02  0.15189553319E+03  0.19866592072E+03  0.12500437147E+03 0.  0.
    9000005    1    3    3    0    0  0.48489695567E+02  0.48108493293E+02  0.13861432342E+03  0.15453351857E+03  0.10000000000E+01 0.  0.
    9000005    1    3    3    0    0 -0.24464164699E+02 -0.34231316549E+02  0.13281209764E+02  0.44132402154E+02  0.10000000000E+01 0.  0.
         -4    1    1    2    0  502 -0.24025530868E+02 -0.13877176744E+02 -0.45043692067E+02  0.52918326342E+02  0.12700000000E+01 0. -1.
<mgrwt>
<rscale>  1 0.12804646E+03</rscale>
<asrwt>0</asrwt>
<pdfrwt beam="2">  1       21 0.11132916E-01 0.12804646E+03</pdfrwt>
<pdfrwt beam="1">  1       -4 0.27572864E-01 0.12804646E+03</pdfrwt>
<totfact> 0.33733475E+04</totfact>
</mgrwt>
</event>
<event>
 6    4  0.6325740E-003  0.1447891E+03  0.7818608E-02  0.1207026E+00
          4   -1    0    0  502    0 -0.00000000000E+00  0.00000000000E+00  0.92201228221E+02  0.92209974436E+02  0.12700000000E+01 0. -1.
         21   -1    0    0  501  502  0.00000000000E+00 -0.00000000000E+00 -0.22007438744E+03  0.22007438744E+03  0.00000000000E+00 0.  1.
         25    2    1    2    0    0 -0.15138230676E+02 -0.71473116319E+02  0.21136079355E+02  0.14632370851E+03  0.12500528564E+03 0.  0.
    9000005    1    3    3    0    0  0.24730679021E+00 -0.34676449540E+02 -0.52294198237E+02  0.62755083321E+02  0.10000000000E+01 0.  0.
    9000005    1    3    3    0    0 -0.15385537466E+02 -0.36796666779E+02  0.73430277592E+02  0.83568625192E+02  0.10000000000E+01 0.  0.
          4    1    1    2  501    0  0.15138230676E+02  0.71473116319E+02 -0.14900923857E+03  0.16596065336E+03  0.12700000000E+01 0.  1.
<mgrwt>
<rscale>  1 0.14478914E+03</rscale>
<asrwt>0</asrwt>
<pdfrwt beam="2">  1       21 0.33857598E-01 0.14478914E+03</pdfrwt>
<pdfrwt beam="1">  1        4 0.14185759E-01 0.14478914E+03</pdfrwt>
<totfact> 0.14394666E+04</totfact>
</mgrwt>
</event>
<event>
 6    4  0.6325740E-003  0.1277398E+03  0.7818608E-02  0.1230849E+00
          4   -1    0    0  502    0 -0.00000000000E+00  0.00000000000E+00  0.20383250003E+03  0.20383645643E+03  0.12700000000E+01 0.  1.
         21   -1    0    0  501  502  0.00000000000E+00 -0.00000000000E+00 -0.33072079064E+02  0.33072079064E+02  0.00000000000E+00 0.  1.
         25    2    1    2    0    0 -0.23383770424E+01  0.26211923619E+02  0.16706354849E+03  0.21030378567E+03  0.12499968034E+03 0.  0.
    9000005    1    3    3    0    0  0.44453500818E+02  0.32283596503E+02  0.24558240577E+02  0.60186805185E+02  0.10000000000E+01 0.  0.
    9000005    1    3    3    0    0 -0.46791877860E+02 -0.60716728843E+01  0.14250530792E+03  0.15011698048E+03  0.10000000000E+01 0.  0.
          4    1    1    2  501    0  0.23383770424E+01 -0.26211923619E+02  0.36968724724E+01  0.26604749822E+02  0.12700000000E+01 0. -1.
<mgrwt>
<rscale>  1 0.12773979E+03</rscale>
<asrwt>0</asrwt>
<pdfrwt beam="2">  1       21 0.50880123E-02 0.12773979E+03</pdfrwt>
<pdfrwt beam="1">  1        4 0.31361025E-01 0.12773979E+03</pdfrwt>
<totfact> 0.10165800E+05</totfact>
</mgrwt>
</event>
<event>
 6    4  0.6325740E-003  0.1291202E+03  0.7818608E-02  0.1228767E+00
         21   -1    0    0  501  502  0.00000000000E+00  0.00000000000E+00  0.11043053073E+04  0.11043053073E+04  0.00000000000E+00 0. -1.
         -4   -1    0    0    0  501 -0.00000000000E+00 -0.00000000000E+00 -0.59639343855E+01  0.60976563821E+01  0.12700000000E+01 0.  1.
         25    2    1    2    0    0  0.21992671383E+02 -0.23729682746E+02  0.80645581431E+03  0.81672700679E+03  0.12500099095E+03 0.  0.
    9000005    1    3    3    0    0  0.31418777564E+02 -0.56651070783E+02  0.73091458007E+03  0.73378035322E+03  0.10000000000E+01 0.  0.
    9000005    1    3    3    0    0 -0.94261061813E+01  0.32921388037E+02  0.75541234240E+02  0.82946653570E+02  0.10000000000E+01 0.  0.
         -4    1    1    2    0  502 -0.21992671383E+02  0.23729682746E+02  0.29188555858E+03  0.29367595688E+03  0.12700000000E+01 0. -1.
<mgrwt>
<rscale>  1 0.12912019E+03</rscale>
<asrwt>0</asrwt>
<pdfrwt beam="1">  1       21 0.16989296E+00 0.12912019E+03</pdfrwt>
<pdfrwt beam="2">  1       -4 0.92787173E-03 0.12912019E+03</pdfrwt>
<totfact> 0.29127105E+04</totfact>
</mgrwt>
</event>
<event>
 6    4  0.6325740E-003  0.1284546E+03  0.7818608E-02  0.1229767E+00
         21   -1    0    0  501  502  0.00000000000E+00  0.00000000000E+00  0.42605305684E+02  0.42605305684E+02  0.00000000000E+00 0. -1.
         -4   -1    0    0    0  501 -0.00000000000E+00 -0.00000000000E+00 -0.12802746940E+04  0.12802753240E+04  0.12700000000E+01 0.  1.
         25    2    1    2    0    0 -0.16763852735E+02 -0.24398549315E+02 -0.12714639025E+04  0.12779362412E+04  0.12499706119E+03 0.  0.
    9000005    1    3    3    0    0  0.29968802403E+02  0.11732437349E+02 -0.10157151772E+03  0.10655304978E+03  0.10000000000E+01 0.  0.
    9000005    1    3    3    0    0 -0.46732655138E+02 -0.36130986664E+02 -0.11698923848E+04  0.11713831914E+04  0.10000000000E+01 0.  0.
         -4    1    1    2    0  502  0.16763852735E+02  0.24398549315E+02  0.33794514116E+02  0.44944388432E+02  0.12700000000E+01 0. -1.
<mgrwt>
<rscale>  1 0.12845459E+03</rscale>
<asrwt>0</asrwt>
<pdfrwt beam="1">  1       21 0.65546634E-02 0.12845459E+03</pdfrwt>
<pdfrwt beam="2">  1       -4 0.19696681E+00 0.12845459E+03</pdfrwt>
<totfact> 0.10735710E+03</totfact>
</mgrwt>
</event>
<event>
 6    4  0.6325740E-003  0.1285800E+03  0.7818608E-02  0.1229578E+00
          4   -1    0    0  502    0 -0.00000000000E+00  0.00000000000E+00  0.58321358826E+03  0.58321497103E+03  0.12700000000E+01 0. -1.
         21   -1    0    0  501  502  0.00000000000E+00 -0.00000000000E+00 -0.55130672015E+02  0.55130672015E+02  0.00000000000E+00 0.  1.
         25    2    1    2    0    0 -0.29071043040E+02 -0.78094635584E+01  0.57134033388E+03  0.58563008230E+03  0.12500681150E+03 0.  0.
    9000005    1    3    3    0    0  0.68060078360E+01 -0.38664104806E+02  0.48962363189E+03  0.49119602569E+03  0.10000000000E+01 0.  0.
    9000005    1    3    3    0    0 -0.35877050877E+02  0.30854641248E+02  0.81716701982E+02  0.94434056616E+02  0.10000000000E+01 0.  0.
          4    1    1    2  501    0  0.29071043040E+02  0.78094635584E+01 -0.43257417627E+02  0.52715560742E+02  0.12700000000E+01 0.  1.
<mgrwt>
<rscale>  1 0.12858000E+03</rscale>
<asrwt>0</asrwt>
<pdfrwt beam="2">  1       21 0.84816423E-02 0.12858000E+03</pdfrwt>
<pdfrwt beam="1">  1        4 0.89726395E-01 0.12858000E+03</pdfrwt>
<totfact> 0.48734029E+03</totfact>
</mgrwt>
</event>
<event>
 6    4  0.6325740E-003  0.1428361E+03  0.7818608E-02  0.1209563E+00
         21   -1    0    0  501  502  0.00000000000E+00  0.00000000000E+00  0.21792627000E+03  0.21792627000E+03  0.00000000000E+00 0.  1.
          4   -1    0    0  502    0 -0.00000000000E+00 -0.00000000000E+00 -0.28335421970E+03  0.28335706577E+03  0.12700000000E+01 0. -1.
         25    2    1    2    0    0 -0.69120554684E+02  0.58655947519E+00 -0.25897820025E+03  0.29575643359E+03  0.12499665865E+03 0.  0.
    9000005    1    3    3    0    0  0.25235665469E+02  0.33275153343E+02 -0.94737397701E+02  0.10353863610E+03  0.10000000000E+01 0.  0.
    9000005    1    3    3    0    0 -0.94356220153E+02 -0.32688593868E+02 -0.16424080255E+03  0.19221779749E+03  0.10000000000E+01 0.  0.
          4    1    1    2  501    0  0.69120554684E+02 -0.58655947519E+00  0.19355025055E+03  0.20552690218E+03  0.12700000000E+01 0.  1.
<mgrwt>
<rscale>  1 0.14283613E+03</rscale>
<asrwt>0</asrwt>
<pdfrwt beam="1">  1       21 0.33527118E-01 0.14283613E+03</pdfrwt>
<pdfrwt beam="2">  1        4 0.43593461E-01 0.14283613E+03</pdfrwt>
<totfact> 0.18291061E+03</totfact>
</mgrwt>
</event>
<event>
 6    4  0.6325740E-003  0.1293792E+03  0.7818608E-02  0.1228380E+00
         21   -1    0    0  501  502  0.00000000000E+00  0.00000000000E+00  0.72225609935E+01  0.72225609935E+01  0.00000000000E+00 0.  1.
          4   -1    0    0  502    0 -0.00000000000E+00 -0.00000000000E+00 -0.98440069617E+03  0.98440151540E+03  0.12700000000E+01 0. -1.
         25    2    1    2    0    0 -0.28430675452E+02  0.17517792218E+02 -0.86339584912E+03  0.87303572169E+03  0.12499521078E+03 0.  0.
    9000005    1    3    3    0    0  0.22741925445E+02  0.56553376218E+02 -0.52897379727E+03  0.53247512405E+03  0.10000000000E+01 0.  0.
    9000005    1    3    3    0    0 -0.51172600897E+02 -0.39035584000E+02 -0.33442205185E+03  0.34056059764E+03  0.10000000000E+01 0.  0.
          4    1    1    2  501    0  0.28430675452E+02 -0.17517792218E+02 -0.11378228606E+03  0.11858835471E+03  0.12700000000E+01 0.  1.
<mgrwt>
<rscale>  1 0.12937921E+03</rscale>
<asrwt>0</asrwt>
<pdfrwt beam="1">  1       21 0.11111639E-02 0.12937921E+03</pdfrwt>
<pdfrwt beam="2">  1        4 0.15145482E+00 0.12937921E+03</pdfrwt>
<totfact> 0.39599378E+04</totfact>
</mgrwt>
</event>
<event>
 6    4  0.6325740E-003  0.1275884E+03  0.7818608E-02  0.1231079E+00
         21   -1    0    0  501  502  0.00000000000E+00  0.00000000000E+00  0.24394699915E+02  0.24394699915E+02  0.00000000000E+00 0. -1.
         -4   -1    0    0    0  501 -0.00000000000E+00 -0.00000000000E+00 -0.24611561616E+03  0.24611889285E+03  0.12700000000E+01 0. -1.
         25    2    1    2    0    0  0.43447719911E+01 -0.25185602052E+02 -0.19844499562E+03  0.23592207682E+03  0.12500247378E+03 0.  0.
    9000005    1    3    3    0    0 -0.26556542310E+02  0.13400332070E+02  0.16501669404E+01  0.29808419783E+02  0.10000000000E+01 0.  0.
    9000005    1    3    3    0    0  0.30901314301E+02 -0.38585934122E+02 -0.20009516256E+03  0.20611365704E+03  0.10000000000E+01 0.  0.
         -4    1    1    2    0  502 -0.43447719911E+01  0.25185602052E+02 -0.23275920628E+02  0.34591515946E+02  0.12700000000E+01 0.  1.
<mgrwt>
<rscale>  1 0.12758844E+03</rscale>
<asrwt>0</asrwt>
<pdfrwt beam="1">  1       21 0.37530307E-02 0.12758844E+03</pdfrwt>
<pdfrwt beam="2">  1       -4 0.37866737E-01 0.12758844E+03</pdfrwt>
<totfact> 0.11750102E+05</totfact>
</mgrwt>
</event>
<event>
 6    4  0.6325740E-003  0.1357329E+03  0.7818608E-02  0.1219189E+00
         -4   -1    0    0    0  501 -0.00000000000E+00  0.00000000000E+00  0.31178959502E+03  0.31179218153E+03  0.12700000000E+01 0.  1.
         21   -1    0    0  501  502  0.00000000000E+00 -0.00000000000E+00 -0.34583536632E+02  0.34583536632E+02  0.00000000000E+00 0. -1.
         25    2    1    2    0    0  0.50329194688E+02 -0.16316116682E+02  0.12239146617E+03  0.18276516115E+03  0.12499675851E+03 0.  0.
    9000005    1    3    3    0    0  0.61674612327E+02 -0.43967162182E+02  0.13128099468E+03  0.15156704365E+03  0.10000000000E+01 0.  0.
    9000005    1    3    3    0    0 -0.11345417639E+02  0.27651045499E+02 -0.88895285101E+01  0.31198117503E+02  0.10000000000E+01 0.  0.
         -4    1    1    2    0  502 -0.50329194688E+02  0.16316116682E+02  0.15481459222E+03  0.16361055701E+03  0.12700000000E+01 0. -1.
<mgrwt>
<rscale>  1 0.13573295E+03</rscale>
<asrwt>0</asrwt>
<pdfrwt beam="2">  1       21 0.53205443E-02 0.13573295E+03</pdfrwt>
<pdfrwt beam="1">  1       -4 0.47969621E-01 0.13573295E+03</pdfrwt>
<totfact> 0.41350085E+04</totfact>
</mgrwt>
</event>
<event>
 6    4  0.6325740E-003  0.1286589E+03  0.7818608E-02  0.1229459E+00
         -4   -1    0    0    0  501 -0.00000000000E+00  0.00000000000E+00  0.11558242177E+04  0.11558249154E+04  0.12700000000E+01 0. -1.
         21   -1    0    0  501  502  0.00000000000E+00 -0.00000000000E+00 -0.58384373424E+01  0.58384373424E+01  0.00000000000E+00 0.  1.
         25    2    1    2    0    0 -0.30415235982E+02  0.10943740376E+01  0.10238214621E+04  0.10318737834E+04  0.12500733669E+03 0.  0.
    9000005    1    3    3    0    0  0.45025066609E+02 -0.20851171342E+02  0.35485611325E+03  0.35830976693E+03  0.10000000000E+01 0.  0.
    9000005    1    3    3    0    0 -0.75440302591E+02  0.21945545379E+02  0.66896534890E+03  0.67356401644E+03  0.10000000000E+01 0.  0.
         -4    1    1    2    0  502  0.30415235982E+02 -0.10943740376E+01  0.12616431821E+03  0.12978956939E+03  0.12700000000E+01 0.  1.
<mgrwt>
<rscale>  1 0.12865892E+03</rscale>
<asrwt>0</asrwt>
<pdfrwt beam="2">  1       21 0.89822205E-03 0.12865892E+03</pdfrwt>
<pdfrwt beam="1">  1       -4 0.17782961E+00 0.12865892E+03</pdfrwt>
<totfact> 0.36311693E+04</totfact>
</mgrwt>
</event>
<event>
 6    4  0.6325740E-003  0.1283826E+03  0.7818608E-02  0.1229876E+00
         21   -1    0    0  501  502  0.00000000000E+00  0.00000000000E+00  0.36325070539E+03  0.36325070539E+03  0.00000000000E+00 0. -1.
         -4   -1    0    0    0  501 -0.00000000000E+00 -0.00000000000E+00 -0.21226766130E+03  0.21227146048E+03  0.12700000000E+01 0.  1.
         25    2    1    2    0    0  0.11594366859E+02  0.26880015374E+02 -0.19217619978E+03  0.23111420411E+03  0.12500047604E+03 0.  0.
    9000005    1    3    3    0    0  0.62108488633E+02  0.26583979604E+02 -0.15275232733E+03  0.16702827855E+03  0.10000000000E+01 0.  0.
    9000005    1    3    3    0    0 -0.50514121774E+02  0.29603577026E+00 -0.39423872459E+02  0.64085925564E+02  0.10000000000E+01 0.  0.
         -4    1    1    2    0  502 -0.11594366859E+02 -0.26880015374E+02  0.34315924387E+03  0.34440796176E+03  0.12700000000E+01 0. -1.
<mgrwt>
<rscale>  1 0.12838257E+03</rscale>
<asrwt>0</asrwt>
<pdfrwt beam="1">  1       21 0.55884724E-01 0.12838257E+03</pdfrwt>
<pdfrwt beam="2">  1       -4 0.32657026E-01 0.12838257E+03</pdfrwt>
<totfact> 0.11379454E+03</totfact>
</mgrwt>
</event>
<event>
 6    4  0.6325740E-003  0.1268127E+03  0.7818608E-02  0.1232263E+00
         -4   -1    0    0    0  501 -0.00000000000E+00  0.00000000000E+00  0.84958872835E+03  0.84958967757E+03  0.12700000000E+01 0.  1.
         21   -1    0    0  501  502  0.00000000000E+00 -0.00000000000E+00 -0.37719663945E+02  0.37719663945E+02  0.00000000000E+00 0. -1.
         25    2    1    2    0    0  0.16384538086E+02 -0.13715391581E+02  0.84136329289E+03  0.85086640711E+03  0.12499954823E+03 0.  0.
    9000005    1    3    3    0    0  0.80805262433E+01 -0.14525118590E+02  0.84225186049E+03  0.84241644717E+03  0.10000000000E+01 0.  0.
    9000005    1    3    3    0    0  0.83040118428E+01  0.80972700882E+00 -0.88856759251E+00  0.84499599337E+01  0.10000000000E+01 0.  0.
         -4    1    1    2    0  502 -0.16384538086E+02  0.13715391581E+02 -0.29494228488E+02  0.36442934413E+02  0.12700000000E+01 0. -1.
<mgrwt>
<rscale>  1 0.12681267E+03</rscale>
<asrwt>0</asrwt>
<pdfrwt beam="2">  1       21 0.58030259E-02 0.12681267E+03</pdfrwt>
<pdfrwt beam="1">  1       -4 0.13070766E+00 0.12681267E+03</pdfrwt>
<totfact> 0.38519887E+03</totfact>
</mgrwt>
</event>
<event>
 6    4  0.6325740E-003  0.1283478E+03  0.7818608E-02  0.1229928E+00
         21   -1    0    0  501  502  0.00000000000E+00  0.00000000000E+00  0.20271015439E+03  0.20271015439E+03  0.00000000000E+00 0.  1.
          4   -1    0    0  502    0 -0.00000000000E+00 -0.00000000000E+00 -0.40893597393E+02  0.40913313332E+02  0.12700000000E+01 0. -1.
         25    2    1    2    0    0  0.26616237409E+02 -0.11828451060E+02  0.67727646180E+02  0.14512132365E+03  0.12499931269E+03 0.  0.
    9000005    1    3    3    0    0  0.17703321346E+02 -0.68049110194E+02  0.46772657977E+02  0.84455731121E+02  0.10000000000E+01 0.  0.
    9000005    1    3    3    0    0  0.89129160630E+01  0.56220659134E+02  0.20954988203E+02  0.60665592528E+02  0.10000000000E+01 0.  0.
          4    1    1    2  501    0 -0.26616237409E+02  0.11828451060E+02  0.94088910817E+02  0.98502144074E+02  0.12700000000E+01 0.  1.
<mgrwt>
<rscale>  1 0.12834783E+03</rscale>
<asrwt>0</asrwt>
<pdfrwt beam="1">  1       21 0.31186177E-01 0.12834783E+03</pdfrwt>
<pdfrwt beam="2">  1        4 0.62931455E-02 0.12834783E+03</pdfrwt>
<totfact> 0.65369377E+04</totfact>
</mgrwt>
</event>
<event>
 6    4  0.6325740E-003  0.1266983E+03  0.7818608E-02  0.1232439E+00
          4   -1    0    0  502    0 -0.00000000000E+00  0.00000000000E+00  0.38835764275E+02  0.38856524380E+02  0.12700000000E+01 0.  1.
         21   -1    0    0  501  502  0.00000000000E+00 -0.00000000000E+00 -0.20351931546E+03  0.20351931546E+03  0.00000000000E+00 0.  1.
         25    2    1    2    0    0 -0.19784163467E+02 -0.60069099464E+01 -0.68586429899E+02  0.14407138566E+03  0.12499987884E+03 0.  0.
    9000005    1    3    3    0    0 -0.13295579499E+02  0.42519932634E+02  0.15151020233E+02  0.47066660382E+02  0.10000000000E+01 0.  0.
    9000005    1    3    3    0    0 -0.64885839674E+01 -0.48526842580E+02 -0.83737450132E+02  0.97004725283E+02  0.10000000000E+01 0.  0.
          4    1    1    2  501    0  0.19784163467E+02  0.60069099464E+01 -0.96097121285E+02  0.98304454174E+02  0.12700000000E+01 0. -1.
<mgrwt>
<rscale>  1 0.12669833E+03</rscale>
<asrwt>0</asrwt>
<pdfrwt beam="2">  1       21 0.31310664E-01 0.12669833E+03</pdfrwt>
<pdfrwt beam="1">  1        4 0.59766347E-02 0.12669833E+03</pdfrwt>
<totfact> 0.70428887E+04</totfact>
</mgrwt>
</event>
<event>
 6    4  0.6325740E-003  0.1278766E+03  0.7818608E-02  0.1230641E+00
         21   -1    0    0  501  502  0.00000000000E+00  0.00000000000E+00  0.40170815564E+02  0.40170815564E+02  0.00000000000E+00 0.  1.
         -4   -1    0    0    0  501 -0.00000000000E+00 -0.00000000000E+00 -0.22106295691E+03  0.22106660494E+03  0.12700000000E+01 0.  1.
         25    2    1    2    0    0 -0.28191228038E+01 -0.26701755030E+02 -0.19318952530E+03  0.23167782431E+03  0.12502595896E+03 0.  0.
    9000005    1    3    3    0    0 -0.64013554163E+01 -0.48852336363E+02 -0.20171961021E+03  0.20765194259E+03  0.10000000000E+01 0.  0.
    9000005    1    3    3    0    0  0.35822326125E+01  0.22150581333E+02  0.85300849043E+01  0.24025881718E+02  0.10000000000E+01 0.  0.
         -4    1    1    2    0  502  0.28191228038E+01  0.26701755030E+02  0.12297383954E+02  0.29559596194E+02  0.12700000000E+01 0. -1.
<mgrwt>
<rscale>  1 0.12787659E+03</rscale>
<asrwt>0</asrwt>
<pdfrwt beam="1">  1       21 0.61801254E-02 0.12787659E+03</pdfrwt>
<pdfrwt beam="2">  1       -4 0.34011511E-01 0.12787659E+03</pdfrwt>
<totfact> 0.62703874E+04</totfact>
</mgrwt>
</event>
<event>
 6    4  0.6325740E-003  0.1274408E+03  0.7818608E-02  0.1231303E+00
         21   -1    0    0  501  502  0.00000000000E+00  0.00000000000E+00  0.18381179563E+02  0.18381179563E+02  0.00000000000E+00 0.  1.
          4   -1    0    0  502    0 -0.00000000000E+00 -0.00000000000E+00 -0.33618137736E+03  0.33618377621E+03  0.12700000000E+01 0. -1.
         25    2    1    2    0    0 -0.11389740447E+02  0.22040490304E+02 -0.29274664568E+03  0.31928319315E+03  0.12500259784E+03 0.  0.
    9000005    1    3    3    0    0 -0.51608166754E+02  0.23784295116E+02 -0.26338408712E+03  0.26944623382E+03  0.10000000000E+01 0.  0.
    9000005    1    3    3    0    0  0.40218426307E+02 -0.17438048126E+01 -0.29362558562E+02  0.49836959328E+02  0.10000000000E+01 0.  0.
          4    1    1    2  501    0  0.11389740447E+02 -0.22040490304E+02 -0.25053552117E+02  0.35281762626E+02  0.12700000000E+01 0.  1.
<mgrwt>
<rscale>  1 0.12744081E+03</rscale>
<asrwt>0</asrwt>
<pdfrwt beam="1">  1       21 0.28278738E-02 0.12744081E+03</pdfrwt>
<pdfrwt beam="2">  1        4 0.51723771E-01 0.12744081E+03</pdfrwt>
<totfact> 0.10043658E+05</totfact>
</mgrwt>
</event>
<event>
 6    4  0.6325740E-003  0.1302915E+03  0.7818608E-02  0.1227024E+00
         21   -1    0    0  501  502  0.00000000000E+00  0.00000000000E+00  0.11531448241E+03  0.11531448241E+03  0.00000000000E+00 0. -1.
          4   -1    0    0  502    0 -0.00000000000E+00 -0.00000000000E+00 -0.65656932322E+02  0.65669213958E+02  0.12700000000E+01 0. -1.
         25    2    1    2    0    0 -0.11339431078E+02 -0.34952089020E+02  0.16241371831E+02  0.13129984494E+03  0.12500254356E+03 0.  0.
    9000005    1    3    3    0    0 -0.67792585670E+02 -0.14524405554E+02  0.97226635796E+00  0.69345067095E+02  0.10000000000E+01 0.  0.
    9000005    1    3    3    0    0  0.56453154593E+02 -0.20427683465E+02  0.15269105473E+02  0.61954777840E+02  0.10000000000E+01 0.  0.
          4    1    1    2  501    0  0.11339431078E+02  0.34952089020E+02  0.33416178261E+02  0.49683851436E+02  0.12700000000E+01 0.  1.
<mgrwt>
<rscale>  1 0.13029147E+03</rscale>
<asrwt>0</asrwt>
<pdfrwt beam="1">  1       21 0.17740690E-01 0.13029147E+03</pdfrwt>
<pdfrwt beam="2">  1        4 0.10102549E-01 0.13029147E+03</pdfrwt>
<totfact> 0.86401399E+04</totfact>
</mgrwt>
</event>
<event>
 6    4  0.6325740E-003  0.1270037E+03  0.7818608E-02  0.1231971E+00
         -4   -1    0    0    0  501 -0.00000000000E+00  0.00000000000E+00  0.54251259576E+03  0.54251408227E+03  0.12700000000E+01 0.  1.
         21   -1    0    0  501  502  0.00000000000E+00 -0.00000000000E+00 -0.21043489241E+02  0.21043489241E+02  0.00000000000E+00 0. -1.
         25    2    1    2    0    0  0.74717820616E+00 -0.22453060855E+02  0.52555966229E+03  0.54068742145E+03  0.12500092348E+03 0.  0.
    9000005    1    3    3    0    0  0.30006709672E+02  0.20966466783E+02  0.43134778825E+03  0.43289942225E+03  0.10000000000E+01 0.  0.
    9000005    1    3    3    0    0 -0.29259531466E+02 -0.43419527638E+02  0.94211874041E+02  0.10778799920E+03  0.10000000000E+01 0.  0.
         -4    1    1    2    0  502 -0.74717820616E+00  0.22453060855E+02 -0.40905557743E+01  0.22870150055E+02  0.12700000000E+01 0. -1.
<mgrwt>
<rscale>  1 0.12700366E+03</rscale>
<asrwt>0</asrwt>
<pdfrwt beam="2">  1       21 0.32374603E-02 0.12700366E+03</pdfrwt>
<pdfrwt beam="1">  1       -4 0.83466528E-01 0.12700366E+03</pdfrwt>
<totfact> 0.28990840E+04</totfact>
</mgrwt>
</event>
<event>
 6    4  0.6325740E-003  0.1528026E+03  0.7818608E-02  0.1197071E+00
         -4   -1    0    0    0  501 -0.00000000000E+00  0.00000000000E+00  0.17358020613E+03  0.17358485205E+03  0.12700000000E+01 0.  1.
         21   -1    0    0  501  502  0.00000000000E+00 -0.00000000000E+00 -0.84896469476E+02  0.84896469476E+02  0.00000000000E+00 0. -1.
         25    2    1    2    0    0  0.35262482120E+02 -0.80502957090E+02  0.72409368251E+02  0.16909096012E+03  0.12499786974E+03 0.  0.
    9000005    1    3    3    0    0 -0.44111700847E+02 -0.35665345998E+02  0.76168507618E+01  0.57243999443E+02  0.10000000000E+01 0.  0.
    9000005    1    3    3    0    0  0.79374182967E+02 -0.44837611092E+02  0.64792517489E+02  0.11184696068E+03  0.10000000000E+01 0.  0.
         -4    1    1    2    0  502 -0.35262482120E+02  0.80502957090E+02  0.16274368408E+02  0.89390361408E+02  0.12700000000E+01 0. -1.
<mgrwt>
<rscale>  1 0.15280261E+03</rscale>
<asrwt>0</asrwt>
<pdfrwt beam="2">  1       21 0.13060995E-01 0.15280261E+03</pdfrwt>
<pdfrwt beam="1">  1       -4 0.26705735E-01 0.15280261E+03</pdfrwt>
<totfact> 0.27486042E+04</totfact>
</mgrwt>
</event>
<event>
 6    4  0.6325740E-003  0.1287916E+03  0.7818608E-02  0.1229260E+00
         -4   -1    0    0    0  501 -0.00000000000E+00  0.00000000000E+00  0.12124977760E+02  0.12191307792E+02  0.12700000000E+01 0. -1.
         21   -1    0    0  501  502  0.00000000000E+00 -0.00000000000E+00 -0.78076610395E+03  0.78076610395E+03  0.00000000000E+00 0. -1.
         25    2    1    2    0    0 -0.14605932882E+02  0.27379252549E+02 -0.34626712976E+03  0.36944311151E+03  0.12499732294E+03 0.  0.
    9000005    1    3    3    0    0  0.24185986226E+02 -0.33273772207E+01 -0.30218534576E+03  0.30317159591E+03  0.10000000000E+01 0.  0.
    9000005    1    3    3    0    0 -0.38791919108E+02  0.30706629769E+02 -0.44081784000E+02  0.66271515604E+02  0.10000000000E+01 0.  0.
         -4    1    1    2    0  502  0.14605932882E+02 -0.27379252549E+02 -0.42237399642E+03  0.42351430023E+03  0.12700000000E+01 0.  1.
<mgrwt>
<rscale>  1 0.12879164E+03</rscale>
<asrwt>0</asrwt>
<pdfrwt beam="2">  1       21 0.12011790E+00 0.12879164E+03</pdfrwt>
<pdfrwt beam="1">  1       -4 0.18705624E-02 0.12879164E+03</pdfrwt>
<totfact> 0.24424645E+04</totfact>
</mgrwt>
</event>
<event>
 6    4  0.6325740E-003  0.1967571E+03  0.7818608E-02  0.1152504E+00
         -4   -1    0    0    0  501 -0.00000000000E+00  0.00000000000E+00  0.16503778483E+03  0.16504267121E+03  0.12700000000E+01 0. -1.
         21   -1    0    0  501  502  0.00000000000E+00 -0.00000000000E+00 -0.19766333908E+03  0.19766333908E+03  0.00000000000E+00 0. -1.
         25    2    1    2    0    0 -0.15183654530E+03 -0.58275222992E+01  0.28709388782E+02  0.19884056354E+03  0.12500017680E+03 0.  0.
    9000005    1    3    3    0    0  0.14462600031E+02  0.15845142065E+02 -0.14179307919E+02  0.25734958710E+02  0.10000000000E+01 0.  0.
    9000005    1    3    3    0    0 -0.16629914533E+03 -0.21672664365E+02  0.42888696701E+02  0.17310560483E+03  0.10000000000E+01 0.  0.
         -4    1    1    2    0  502  0.15183654530E+03  0.58275222992E+01 -0.61334943031E+02  0.16386544676E+03  0.12700000000E+01 0.  1.
<mgrwt>
<rscale>  1 0.19675706E+03</rscale>
<asrwt>0</asrwt>
<pdfrwt beam="2">  1       21 0.30409744E-01 0.19675706E+03</pdfrwt>
<pdfrwt beam="1">  1       -4 0.25391118E-01 0.19675706E+03</pdfrwt>
<totfact> 0.63573087E+03</totfact>
</mgrwt>
</event>
<event>
 6    4  0.6325740E-003  0.1450741E+03  0.7818608E-02  0.1206660E+00
         21   -1    0    0  501  502  0.00000000000E+00  0.00000000000E+00  0.75989747464E+03  0.75989747464E+03  0.00000000000E+00 0. -1.
          4   -1    0    0  502    0 -0.00000000000E+00 -0.00000000000E+00 -0.22937206695E+02  0.22972338822E+02  0.12700000000E+01 0.  1.
         25    2    1    2    0    0  0.24800705991E+02  0.69331590416E+02  0.23968096951E+03  0.28016686141E+03  0.12499823455E+03 0.  0.
    9000005    1    3    3    0    0  0.45746054995E+02  0.87224308026E+02  0.11028244058E+03  0.14786479689E+03  0.10000000000E+01 0.  0.
    9000005    1    3    3    0    0 -0.20945349004E+02 -0.17892717609E+02  0.12939852893E+03  0.13230206452E+03  0.10000000000E+01 0.  0.
          4    1    1    2  501    0 -0.24800705991E+02 -0.69331590416E+02  0.49727929844E+03  0.50270295206E+03  0.12700000000E+01 0. -1.
<mgrwt>
<rscale>  1 0.14507413E+03</rscale>
<asrwt>0</asrwt>
<pdfrwt beam="1">  1       21 0.11690728E+00 0.14507413E+03</pdfrwt>
<pdfrwt beam="2">  1        4 0.35315857E-02 0.14507413E+03</pdfrwt>
<totfact> 0.97752767E+03</totfact>
</mgrwt>
</event>
<event>
 6    4  0.6325740E-003  0.1269947E+03  0.7818608E-02  0.1231984E+00
          4   -1    0    0  502    0 -0.00000000000E+00  0.00000000000E+00  0.12029065451E+03  0.12029735850E+03  0.12700000000E+01 0.  1.
         21   -1    0    0  501  502  0.00000000000E+00 -0.00000000000E+00 -0.11647341631E+03  0.11647341631E+03  0.00000000000E+00 0. -1.
         25    2    1    2    0    0  0.20472123669E+02  0.91523072502E+01  0.84817360688E+02  0.15271421457E+03  0.12499909632E+03 0.  0.
    9000005    1    3    3    0    0  0.19999926880E+02  0.54118604620E+01 -0.30743780069E+02  0.37087266303E+02  0.10000000000E+01 0.  0.
    9000005    1    3    3    0    0  0.47219678876E+00  0.37404467882E+01  0.11556114076E+03  0.11562694826E+03  0.10000000000E+01 0.  0.
          4    1    1    2  501    0 -0.20472123669E+02 -0.91523072502E+01 -0.81000122493E+02  0.84056560240E+02  0.12700000000E+01 0. -1.
<mgrwt>
<rscale>  1 0.12699467E+03</rscale>
<asrwt>0</asrwt>
<pdfrwt beam="2">  1       21 0.17918987E-01 0.12699467E+03</pdfrwt>
<pdfrwt beam="1">  1        4 0.18507303E-01 0.12699467E+03</pdfrwt>
<totfact> 0.29670814E+04</totfact>
</mgrwt>
</event>
<event>
 6    4  0.6325740E-003  0.1363484E+03  0.7818608E-02  0.1218329E+00
         21   -1    0    0  501  502  0.00000000000E+00  0.00000000000E+00  0.94404793419E+01  0.94404793419E+01  0.00000000000E+00 0.  1.
         -4   -1    0    0    0  501 -0.00000000000E+00 -0.00000000000E+00 -0.10694925122E+04  0.10694932663E+04  0.12700000000E+01 0. -1.
         25    2    1    2    0    0  0.35462605195E+02 -0.41334775145E+02 -0.88958322395E+03  0.89997177278E+03  0.12499887782E+03 0.  0.
    9000005    1    3    3    0    0 -0.31920681777E+02 -0.29424503371E+02 -0.63078999359E+03  0.63228296462E+03  0.10000000000E+01 0.  0.
    9000005    1    3    3    0    0  0.67383286972E+02 -0.11910271774E+02 -0.25879323036E+03  0.26768880816E+03  0.10000000000E+01 0.  0.
         -4    1    1    2    0  502 -0.35462605195E+02  0.41334775145E+02 -0.17046880893E+03  0.17896197284E+03  0.12700000000E+01 0.  1.
<mgrwt>
<rscale>  1 0.13634838E+03</rscale>
<asrwt>0</asrwt>
<pdfrwt beam="1">  1       21 0.14523825E-02 0.13634838E+03</pdfrwt>
<pdfrwt beam="2">  1       -4 0.16454382E+00 0.13634838E+03</pdfrwt>
<totfact> 0.20997640E+04</totfact>
</mgrwt>
</event>
<event>
 6    4  0.6325740E-003  0.1279012E+03  0.7818608E-02  0.1230604E+00
         21   -1    0    0  501  502  0.00000000000E+00  0.00000000000E+00  0.25131064710E+02  0.25131064710E+02  0.00000000000E+00 0.  1.
         -4   -1    0    0    0  501 -0.00000000000E+00 -0.00000000000E+00 -0.24040986405E+03  0.24041321851E+03  0.12700000000E+01 0.  1.
         25    2    1    2    0    0  0.12480875499E+02 -0.24066415820E+02 -0.16977018131E+03  0.21255738070E+03  0.12499504391E+03 0.  0.
    9000005    1    3    3    0    0  0.33125813655E+02  0.41668165086E+01 -0.17412253676E+03  0.17729732005E+03  0.10000000000E+01 0.  0.
    9000005    1    3    3    0    0 -0.20644938156E+02 -0.28233232328E+02  0.43523554435E+01  0.35260060650E+02  0.10000000000E+01 0.  0.
         -4    1    1    2    0  502 -0.12480875499E+02  0.24066415820E+02 -0.45508618030E+02  0.52986902520E+02  0.12700000000E+01 0. -1.
<mgrwt>
<rscale>  1 0.12790123E+03</rscale>
<asrwt>0</asrwt>
<pdfrwt beam="1">  1       21 0.38663180E-02 0.12790123E+03</pdfrwt>
<pdfrwt beam="2">  1       -4 0.36988856E-01 0.12790123E+03</pdfrwt>
<totfact> 0.11711919E+05</totfact>
</mgrwt>
</event>
<event>
 6    4  0.6325740E-003  0.1268040E+03  0.7818608E-02  0.1232277E+00
          4   -1    0    0  502    0 -0.00000000000E+00  0.00000000000E+00  0.63111924924E+02  0.63124701723E+02  0.12700000000E+01 0.  1.
         21   -1    0    0  501  502  0.00000000000E+00 -0.00000000000E+00 -0.12474540329E+03  0.12474540329E+03  0.00000000000E+00 0.  1.
         25    2    1    2    0    0  0.15985459396E+02  0.14168975678E+02 -0.45256313368E+01  0.12688474713E+03  0.12499185146E+03 0.  0.
    9000005    1    3    3    0    0 -0.20827902391E+02  0.62547438927E+02 -0.22043197760E+00  0.65932027305E+02  0.10000000000E+01 0.  0.
    9000005    1    3    3    0    0  0.36813361787E+02 -0.48378463249E+02 -0.43051993592E+01  0.60952719824E+02  0.10000000000E+01 0.  0.
          4    1    1    2  501    0 -0.15985459396E+02 -0.14168975678E+02 -0.57107847028E+02  0.60985357882E+02  0.12700000000E+01 0. -1.
<mgrwt>
<rscale>  1 0.12680401E+03</rscale>
<asrwt>0</asrwt>
<pdfrwt beam="2">  1       21 0.19191600E-01 0.12680401E+03</pdfrwt>
<pdfrwt beam="1">  1        4 0.97110071E-02 0.12680401E+03</pdfrwt>
<totfact> 0.79649055E+04</totfact>
</mgrwt>
</event>
<event>
 6    4  0.6325740E-003  0.1270259E+03  0.7818608E-02  0.1231937E+00
         21   -1    0    0  501  502  0.00000000000E+00  0.00000000000E+00  0.22016010777E+03  0.22016010777E+03  0.00000000000E+00 0. -1.
          4   -1    0    0  502    0 -0.00000000000E+00 -0.00000000000E+00 -0.52713104151E+02  0.52728400784E+02  0.12700000000E+01 0.  1.
         25    2    1    2    0    0 -0.14004581713E+02 -0.17706933521E+02  0.26017620998E+02  0.12966299766E+03  0.12500365017E+03 0.  0.
    9000005    1    3    3    0    0 -0.48028166099E+02  0.48242527628E+01 -0.32583279120E+02  0.58246443941E+02  0.10000000000E+01 0.  0.
    9000005    1    3    3    0    0  0.34023584386E+02 -0.22531186284E+02  0.58600900117E+02  0.71416553714E+02  0.10000000000E+01 0.  0.
          4    1    1    2  501    0  0.14004581713E+02  0.17706933521E+02  0.14142938262E+03  0.14322551090E+03  0.12700000000E+01 0. -1.
<mgrwt>
<rscale>  1 0.12702589E+03</rscale>
<asrwt>0</asrwt>
<pdfrwt beam="1">  1       21 0.33870785E-01 0.12702589E+03</pdfrwt>
<pdfrwt beam="2">  1        4 0.81111669E-02 0.12702589E+03</pdfrwt>
<totfact> 0.36651323E+04</totfact>
</mgrwt>
</event>
<event>
 6    4  0.6325740E-003  0.1283591E+03  0.7818608E-02  0.1229911E+00
         21   -1    0    0  501  502  0.00000000000E+00  0.00000000000E+00  0.43461066908E+01  0.43461066908E+01  0.00000000000E+00 0.  1.
          4   -1    0    0  502    0 -0.00000000000E+00 -0.00000000000E+00 -0.14499420322E+04  0.14499425884E+04  0.12700000000E+01 0.  1.
         25    2    1    2    0    0  0.28679147714E+02 -0.46312601343E+01 -0.12443478481E+04  0.12509506916E+04  0.12502849180E+03 0.  0.
    9000005    1    3    3    0    0 -0.10297158013E+02 -0.59768173382E+02 -0.62129383768E+03  0.62424778634E+03  0.10000000000E+01 0.  0.
    9000005    1    3    3    0    0  0.38976305727E+02  0.55136913248E+02 -0.62305401038E+03  0.62670290526E+03  0.10000000000E+01 0.  0.
          4    1    1    2  501    0 -0.28679147714E+02  0.46312601343E+01 -0.20124807746E+03  0.20333800350E+03  0.12700000000E+01 0. -1.
<mgrwt>
<rscale>  1 0.12835913E+03</rscale>
<asrwt>0</asrwt>
<pdfrwt beam="1">  1       21 0.66863142E-03 0.12835913E+03</pdfrwt>
<pdfrwt beam="2">  1        4 0.22308245E+00 0.12835913E+03</pdfrwt>
<totfact> 0.30145091E+04</totfact>
</mgrwt>
</event>
<event>
 6    4  0.6325740E-003  0.2960358E+03  0.7818608E-02  0.1087239E+00
         21   -1    0    0  501  502  0.00000000000E+00  0.00000000000E+00  0.81885803671E+03  0.81885803671E+03  0.00000000000E+00 0.  1.
          4   -1    0    0  502    0 -0.00000000000E+00 -0.00000000000E+00 -0.17316066959E+03  0.17316532676E+03  0.12700000000E+01 0. -1.
         25    2    1    2    0    0  0.40568525295E+02  0.26526607568E+03  0.35481240777E+01  0.29605701414E+03  0.12500108116E+03 0.  0.
    9000005    1    3    3    0    0 -0.14642873560E+01  0.22192690926E+03  0.40021651539E+02  0.22551370198E+03  0.10000000000E+01 0.  0.
    9000005    1    3    3    0    0  0.42032812651E+02  0.43339166418E+02 -0.36473527461E+02  0.70543312161E+02  0.10000000000E+01 0.  0.
          4    1    1    2  501    0 -0.40568525295E+02 -0.26526607568E+03  0.64214924305E+03  0.69596634933E+03  0.12700000000E+01 0.  1.
<mgrwt>
<rscale>  1 0.29603575E+03</rscale>
<asrwt>0</asrwt>
<pdfrwt beam="1">  1       21 0.12597816E+00 0.29603575E+03</pdfrwt>
<pdfrwt beam="2">  1        4 0.26640538E-01 0.29603575E+03</pdfrwt>
<totfact> 0.25629407E+02</totfact>
</mgrwt>
</event>
<event>
 6    4  0.6325740E-003  0.1297337E+03  0.7818608E-02  0.1227851E+00
         -4   -1    0    0    0  501 -0.00000000000E+00  0.00000000000E+00  0.12584303344E+03  0.12584944166E+03  0.12700000000E+01 0. -1.
         21   -1    0    0  501  502  0.00000000000E+00 -0.00000000000E+00 -0.16471202097E+03  0.16471202097E+03  0.00000000000E+00 0.  1.
         25    2    1    2    0    0  0.33217573533E+02  0.10077764385E+02  0.89477346779E+02  0.15759769705E+03  0.12500347997E+03 0.  0.
    9000005    1    3    3    0    0  0.10868790087E+02 -0.74859168166E+01 -0.31053605847E+02  0.33756421383E+02  0.10000000000E+01 0.  0.
    9000005    1    3    3    0    0  0.22348783446E+02  0.17563681201E+02  0.12053095263E+03  0.12384127567E+03  0.10000000000E+01 0.  0.
         -4    1    1    2    0  502 -0.33217573533E+02 -0.10077764385E+02 -0.12834633430E+03  0.13296376557E+03  0.12700000000E+01 0.  1.
<mgrwt>
<rscale>  1 0.12973372E+03</rscale>
<asrwt>0</asrwt>
<pdfrwt beam="2">  1       21 0.25340311E-01 0.12973372E+03</pdfrwt>
<pdfrwt beam="1">  1       -4 0.19361336E-01 0.12973372E+03</pdfrwt>
<totfact> 0.14399188E+04</totfact>
</mgrwt>
</event>
<event>
 6    4  0.6325740E-003  0.1268786E+03  0.7818608E-02  0.1232162E+00
          4   -1    0    0  502    0 -0.00000000000E+00  0.00000000000E+00  0.21352106453E+03  0.21352484141E+03  0.12700000000E+01 0.  1.
         21   -1    0    0  501  502  0.00000000000E+00 -0.00000000000E+00 -0.28869693371E+02  0.28869693371E+02  0.00000000000E+00 0. -1.
         25    2    1    2    0    0 -0.88767602410E+01 -0.19862234559E+02  0.17981480879E+03  0.22007166602E+03  0.12499946996E+03 0.  0.
    9000005    1    3    3    0    0  0.17813506671E+02 -0.26018326499E+02 -0.61126864339E+01  0.32134705058E+02  0.10000000000E+01 0.  0.
    9000005    1    3    3    0    0 -0.26690266912E+02  0.61560919399E+01  0.18592749522E+03  0.18793696096E+03  0.10000000000E+01 0.  0.
          4    1    1    2  501    0  0.88767602410E+01  0.19862234559E+02  0.48365623711E+01  0.22322868759E+02  0.12700000000E+01 0. -1.
<mgrwt>
<rscale>  1 0.12687857E+03</rscale>
<asrwt>0</asrwt>
<pdfrwt beam="2">  1       21 0.44414915E-02 0.12687857E+03</pdfrwt>
<pdfrwt beam="1">  1        4 0.32851833E-01 0.12687857E+03</pdfrwt>
<totfact> 0.11671756E+05</totfact>
</mgrwt>
</event>
<event>
 6    4  0.6325740E-003  0.1345471E+03  0.7818608E-02  0.1220860E+00
         21   -1    0    0  501  502  0.00000000000E+00  0.00000000000E+00  0.36659392428E+03  0.36659392428E+03  0.00000000000E+00 0. -1.
          4   -1    0    0  502    0 -0.00000000000E+00 -0.00000000000E+00 -0.31061701962E+02  0.31087653960E+02  0.12700000000E+01 0.  1.
         25    2    1    2    0    0  0.32118368117E+02  0.38043646305E+02  0.13326926608E+03  0.18937693365E+03  0.12499606842E+03 0.  0.
    9000005    1    3    3    0    0 -0.45183322446E+02 -0.24419156145E+01  0.61668701882E+02  0.76495257180E+02  0.10000000000E+01 0.  0.
    9000005    1    3    3    0    0  0.77301690563E+02  0.40485561920E+02  0.71600564200E+02  0.11288167647E+03  0.10000000000E+01 0.  0.
          4    1    1    2  501    0 -0.32118368117E+02 -0.38043646305E+02  0.20226295624E+03  0.20830464459E+03  0.12700000000E+01 0. -1.
<mgrwt>
<rscale>  1 0.13454711E+03</rscale>
<asrwt>0</asrwt>
<pdfrwt beam="1">  1       21 0.56399062E-01 0.13454711E+03</pdfrwt>
<pdfrwt beam="2">  1        4 0.47808892E-02 0.13454711E+03</pdfrwt>
<totfact> 0.31035136E+04</totfact>
</mgrwt>
</event>
<event>
 6    4  0.6325740E-003  0.1272682E+03  0.7818608E-02  0.1231566E+00
         21   -1    0    0  501  502  0.00000000000E+00  0.00000000000E+00  0.42074405984E+02  0.42074405984E+02  0.00000000000E+00 0.  1.
          4   -1    0    0  502    0 -0.00000000000E+00 -0.00000000000E+00 -0.15409635811E+03  0.15410159143E+03  0.12700000000E+01 0.  1.
         25    2    1    2    0    0 -0.40070768567E+00  0.23916205131E+02 -0.11563066053E+03  0.17195243222E+03  0.12500017542E+03 0.  0.
    9000005    1    3    3    0    0 -0.40847675656E+02 -0.32375949552E+02 -0.24911127112E+02  0.57778014590E+02  0.10000000000E+01 0.  0.
    9000005    1    3    3    0    0  0.40446967971E+02  0.56292154683E+02 -0.90719533417E+02  0.11417441763E+03  0.10000000000E+01 0.  0.
          4    1    1    2  501    0  0.40070768567E+00 -0.23916205131E+02  0.36087084083E+01  0.24223565198E+02  0.12700000000E+01 0. -1.
<mgrwt>
<rscale>  1 0.12726818E+03</rscale>
<asrwt>0</asrwt>
<pdfrwt beam="1">  1       21 0.64729855E-02 0.12726818E+03</pdfrwt>
<pdfrwt beam="2">  1        4 0.23709009E-01 0.12726818E+03</pdfrwt>
<totfact> 0.11390923E+05</totfact>
</mgrwt>
</event>
<event>
 6    4  0.6325740E-003  0.1274872E+03  0.7818608E-02  0.1231233E+00
         21   -1    0    0  501  502  0.00000000000E+00  0.00000000000E+00  0.10117918022E+02  0.10117918022E+02  0.00000000000E+00 0.  1.
         -4   -1    0    0    0  501 -0.00000000000E+00 -0.00000000000E+00 -0.10944397350E+04  0.10944404719E+04  0.12700000000E+01 0. -1.
         25    2    1    2    0    0  0.62420516088E+01  0.24274506152E+02 -0.10657236314E+04  0.10733218686E+04  0.12499904071E+03 0.  0.
    9000005    1    3    3    0    0  0.20712512952E+02  0.68729795682E+02 -0.82367498374E+03  0.82679760029E+03  0.10000000000E+01 0.  0.
    9000005    1    3    3    0    0 -0.14470461343E+02 -0.44455289530E+02 -0.24204864766E+03  0.24652426828E+03  0.10000000000E+01 0.  0.
         -4    1    1    2    0  502 -0.62420516088E+01 -0.24274506152E+02 -0.18598185599E+02  0.31236521330E+02  0.12700000000E+01 0.  1.
<mgrwt>
<rscale>  1 0.12748716E+03</rscale>
<asrwt>0</asrwt>
<pdfrwt beam="1">  1       21 0.15566027E-02 0.12748716E+03</pdfrwt>
<pdfrwt beam="2">  1       -4 0.16838154E+00 0.12748716E+03</pdfrwt>
<totfact> 0.17567616E+04</totfact>
</mgrwt>
</event>
<event>
 6    4  0.6325740E-003  0.1370495E+03  0.7818608E-02  0.1217355E+00
         21   -1    0    0  501  502  0.00000000000E+00  0.00000000000E+00  0.63150405556E+01  0.63150405556E+01  0.00000000000E+00 0.  1.
          4   -1    0    0  502    0 -0.00000000000E+00 -0.00000000000E+00 -0.18541990826E+04  0.18541995175E+04  0.12700000000E+01 0. -1.
         25    2    1    2    0    0  0.33384806928E+02 -0.45197198737E+02 -0.16205873121E+04  0.16263719766E+04  0.12500095251E+03 0.  0.
    9000005    1    3    3    0    0  0.56960828535E+02 -0.65952796286E+02 -0.14678581099E+04  0.14704430415E+04  0.10000000000E+01 0.  0.
    9000005    1    3    3    0    0 -0.23576021607E+02  0.20755597549E+02 -0.15272920211E+03  0.15592893510E+03  0.10000000000E+01 0.  0.
          4    1    1    2  501    0 -0.33384806928E+02  0.45197198737E+02 -0.22729672997E+03  0.23414258148E+03  0.12700000000E+01 0.  1.
<mgrwt>
<rscale>  1 0.13704952E+03</rscale>
<asrwt>0</asrwt>
<pdfrwt beam="1">  1       21 0.97154411E-03 0.13704952E+03</pdfrwt>
<pdfrwt beam="2">  1        4 0.28527143E+00 0.13704952E+03</pdfrwt>
<totfact> 0.73725263E+03</totfact>
</mgrwt>
</event>
<event>
 6    4  0.6325740E-003  0.1281131E+03  0.7818608E-02  0.1230283E+00
         21   -1    0    0  501  502  0.00000000000E+00  0.00000000000E+00  0.43180653986E+02  0.43180653986E+02  0.00000000000E+00 0. -1.
         -4   -1    0    0    0  501 -0.00000000000E+00 -0.00000000000E+00 -0.14269205008E+03  0.14269770165E+03  0.12700000000E+01 0. -1.
         25    2    1    2    0    0  0.27252960495E+02  0.69437948329E+01 -0.74374079413E+02  0.14813663161E+03  0.12498807061E+03 0.  0.
    9000005    1    3    3    0    0 -0.64168474807E+01  0.44098656312E+02 -0.85811415639E+02  0.96697810079E+02  0.10000000000E+01 0.  0.
    9000005    1    3    3    0    0  0.33669807976E+02 -0.37154861479E+02  0.11437336226E+02  0.51438821532E+02  0.10000000000E+01 0.  0.
         -4    1    1    2    0  502 -0.27252960495E+02 -0.69437948329E+01 -0.25137316685E+02  0.37741724027E+02  0.12700000000E+01 0.  1.
<mgrwt>
<rscale>  1 0.12811307E+03</rscale>
<asrwt>0</asrwt>
<pdfrwt beam="1">  1       21 0.66431775E-02 0.12811307E+03</pdfrwt>
<pdfrwt beam="2">  1       -4 0.21954494E-01 0.12811307E+03</pdfrwt>
<totfact> 0.12551068E+05</totfact>
</mgrwt>
</event>
<event>
 6    4  0.6325740E-003  0.1467048E+03  0.7818608E-02  0.1204582E+00
         -4   -1    0    0    0  501 -0.00000000000E+00  0.00000000000E+00  0.21521834225E+03  0.21522208934E+03  0.12700000000E+01 0.  1.
         21   -1    0    0  501  502  0.00000000000E+00 -0.00000000000E+00 -0.58120006880E+02  0.58120006880E+02  0.00000000000E+00 0. -1.
         25    2    1    2    0    0 -0.70501321443E+02 -0.30451558994E+02  0.97936281785E+02  0.17639110213E+03  0.12499828739E+03 0.  0.
    9000005    1    3    3    0    0 -0.94277861221E+01  0.29055549803E+02 -0.15665270716E+02  0.34343978105E+02  0.10000000000E+01 0.  0.
    9000005    1    3    3    0    0 -0.61073535321E+02 -0.59507108796E+02  0.11360155250E+03  0.14204712403E+03  0.10000000000E+01 0.  0.
         -4    1    1    2    0  502  0.70501321443E+02  0.30451558994E+02  0.59162053582E+02  0.96950994087E+02  0.12700000000E+01 0. -1.
<mgrwt>
<rscale>  1 0.14670482E+03</rscale>
<asrwt>0</asrwt>
<pdfrwt beam="2">  1       21 0.89415396E-02 0.14670482E+03</pdfrwt>
<pdfrwt beam="1">  1       -4 0.33111870E-01 0.14670482E+03</pdfrwt>
<totfact> 0.35571032E+04</totfact>
</mgrwt>
</event>
<event>
 6    4  0.6325740E-003  0.1315653E+03  0.7818608E-02  0.1225151E+00
          4   -1    0    0  502    0 -0.00000000000E+00  0.00000000000E+00  0.11189803233E+04  0.11189810440E+04  0.12700000000E+01 0. -1.
         21   -1    0    0  501  502  0.00000000000E+00 -0.00000000000E+00 -0.76862466262E+01  0.76862466262E+01  0.00000000000E+00 0. -1.
         25    2    1    2    0    0 -0.92281722559E+01 -0.39989870889E+02  0.98786923979E+03  0.99659172722E+03  0.12500034759E+03 0.  0.
    9000005    1    3    3    0    0 -0.18265577516E+01  0.33805026155E+01  0.88109019080E+03  0.88109913655E+03  0.10000000000E+01 0.  0.
    9000005    1    3    3    0    0 -0.74016145043E+01 -0.43370373505E+02  0.10677904900E+03  0.11549259067E+03  0.10000000000E+01 0.  0.
          4    1    1    2  501    0  0.92281722559E+01  0.39989870889E+02  0.12342483692E+03  0.13007556344E+03  0.12700000000E+01 0.  1.
<mgrwt>
<rscale>  1 0.13156533E+03</rscale>
<asrwt>0</asrwt>
<pdfrwt beam="2">  1       21 0.11825004E-02 0.13156533E+03</pdfrwt>
<pdfrwt beam="1">  1        4 0.17215882E+00 0.13156533E+03</pdfrwt>
<totfact> 0.25739219E+04</totfact>
</mgrwt>
</event>
<event>
 6    4  0.6325740E-003  0.1282896E+03  0.7818608E-02  0.1230016E+00
         21   -1    0    0  501  502  0.00000000000E+00  0.00000000000E+00  0.11829642064E+02  0.11829642064E+02  0.00000000000E+00 0. -1.
         -4   -1    0    0    0  501 -0.00000000000E+00 -0.00000000000E+00 -0.97921181521E+03  0.97921263878E+03  0.12700000000E+01 0.  1.
         25    2    1    2    0    0  0.17083988336E+02 -0.23305393500E+02 -0.94701881024E+03  0.95566879540E+03  0.12499286191E+03 0.  0.
    9000005    1    3    3    0    0  0.99868229811E+01  0.46479715613E+02 -0.58407369050E+03  0.58600612329E+03  0.10000000000E+01 0.  0.
    9000005    1    3    3    0    0  0.70971653553E+01 -0.69785109112E+02 -0.36294511974E+03  0.36966267211E+03  0.10000000000E+01 0.  0.
         -4    1    1    2    0  502 -0.17083988336E+02  0.23305393500E+02 -0.20363362905E+02  0.35373485444E+02  0.12700000000E+01 0. -1.
<mgrwt>
<rscale>  1 0.12828959E+03</rscale>
<asrwt>0</asrwt>
<pdfrwt beam="1">  1       21 0.18199442E-02 0.12828959E+03</pdfrwt>
<pdfrwt beam="2">  1       -4 0.15065334E+00 0.12828959E+03</pdfrwt>
<totfact> 0.18261982E+04</totfact>
</mgrwt>
</event>
<event>
 6    4  0.6325740E-003  0.1636973E+03  0.7818608E-02  0.1184585E+00
          4   -1    0    0  502    0 -0.00000000000E+00  0.00000000000E+00  0.15612590550E+03  0.15613107080E+03  0.12700000000E+01 0.  1.
         21   -1    0    0  501  502  0.00000000000E+00 -0.00000000000E+00 -0.17136588290E+03  0.17136588290E+03  0.00000000000E+00 0. -1.
         25    2    1    2    0    0  0.86531604373E+01 -0.10533248272E+03  0.82699545112E+02  0.18340124915E+03  0.12500797706E+03 0.  0.
    9000005    1    3    3    0    0 -0.53916341481E+02 -0.30256717612E+02  0.12545782930E+02  0.63093878536E+02  0.10000000000E+01 0.  0.
    9000005    1    3    3    0    0  0.62569501918E+02 -0.75075765103E+02  0.70153762183E+02  0.12030737062E+03  0.10000000000E+01 0.  0.
          4    1    1    2  501    0 -0.86531604373E+01  0.10533248272E+03 -0.97939522513E+02  0.14409570455E+03  0.12700000000E+01 0. -1.
<mgrwt>
<rscale>  1 0.16369729E+03</rscale>
<asrwt>0</asrwt>
<pdfrwt beam="2">  1       21 0.26363982E-01 0.16369729E+03</pdfrwt>
<pdfrwt beam="1">  1        4 0.24020130E-01 0.16369729E+03</pdfrwt>
<totfact> 0.91926994E+03</totfact>
</mgrwt>
</event>
<event>
 6    4  0.6325740E-003  0.1868039E+03  0.7818608E-02  0.1161376E+00
          4   -1    0    0  502    0 -0.00000000000E+00  0.00000000000E+00  0.16008046319E+03  0.16008550089E+03  0.12700000000E+01 0.  1.
         21   -1    0    0  501  502  0.00000000000E+00 -0.00000000000E+00 -0.28302314128E+03  0.28302314128E+03  0.00000000000E+00 0. -1.
         25    2    1    2    0    0 -0.12824408002E+03  0.53141013088E+02  0.75033271306E+02  0.20130996399E+03  0.12500079386E+03 0.  0.
    9000005    1    3    3    0    0 -0.10894110285E+03  0.64868857453E+02  0.10440229723E+03  0.16424668101E+03  0.10000000000E+01 0.  0.
    9000005    1    3    3    0    0 -0.19302977177E+02 -0.11727844365E+02 -0.29369025926E+02  0.37063282979E+02  0.10000000000E+01 0.  0.
          4    1    1    2  501    0  0.12824408002E+03 -0.53141013088E+02 -0.19797594939E+03  0.24179867818E+03  0.12700000000E+01 0. -1.
<mgrwt>
<rscale>  1 0.18680393E+03</rscale>
<asrwt>0</asrwt>
<pdfrwt beam="2">  1       21 0.43542022E-01 0.18680393E+03</pdfrwt>
<pdfrwt beam="1">  1        4 0.24628370E-01 0.18680393E+03</pdfrwt>
<totfact> 0.32804515E+03</totfact>
</mgrwt>
</event>
<event>
 6    4  0.6325740E-003  0.1279552E+03  0.7818608E-02  0.1230522E+00
          4   -1    0    0  502    0 -0.00000000000E+00  0.00000000000E+00  0.11602416920E+03  0.11603111970E+03  0.12700000000E+01 0. -1.
         21   -1    0    0  501  502  0.00000000000E+00 -0.00000000000E+00 -0.61550058475E+02  0.61550058475E+02  0.00000000000E+00 0.  1.
         25    2    1    2    0    0 -0.27152879552E+02  0.30064886215E+01  0.70288409571E+02  0.14598967947E+03  0.12500483251E+03 0.  0.
    9000005    1    3    3    0    0  0.43236816820E+02 -0.20291024448E+02  0.65690272279E+01  0.48221365810E+02  0.10000000000E+01 0.  0.
    9000005    1    3    3    0    0 -0.70389696373E+02  0.23297513069E+02  0.63719382343E+02  0.97768313665E+02  0.10000000000E+01 0.  0.
          4    1    1    2  501    0  0.27152879552E+02 -0.30064886215E+01 -0.15814298849E+02  0.31591498697E+02  0.12700000000E+01 0.  1.
<mgrwt>
<rscale>  1 0.12795517E+03</rscale>
<asrwt>0</asrwt>
<pdfrwt beam="2">  1       21 0.94692398E-02 0.12795517E+03</pdfrwt>
<pdfrwt beam="1">  1        4 0.17851415E-01 0.12795517E+03</pdfrwt>
<totfact> 0.98763646E+04</totfact>
</mgrwt>
</event>
<event>
 6    4  0.6325740E-003  0.1358147E+03  0.7818608E-02  0.1219074E+00
         21   -1    0    0  501  502  0.00000000000E+00  0.00000000000E+00  0.13880260203E+02  0.13880260203E+02  0.00000000000E+00 0.  1.
         -4   -1    0    0    0  501 -0.00000000000E+00 -0.00000000000E+00 -0.12176781658E+04  0.12176788281E+04  0.12700000000E+01 0. -1.
         25    2    1    2    0    0  0.43962316586E+02  0.29794068776E+02 -0.11420821581E+04  0.11501292522E+04  0.12500107652E+03 0.  0.
    9000005    1    3    3    0    0  0.65411333958E+02  0.20457922797E+02 -0.10986648245E+04  0.11008008748E+04  0.10000000000E+01 0.  0.
    9000005    1    3    3    0    0 -0.21449017372E+02  0.93361459792E+01 -0.43417333597E+02  0.49328377479E+02  0.10000000000E+01 0.  0.
         -4    1    1    2    0  502 -0.43962316586E+02 -0.29794068776E+02 -0.61715747485E+02  0.81429836064E+02  0.12700000000E+01 0.  1.
<mgrwt>
<rscale>  1 0.13581473E+03</rscale>
<asrwt>0</asrwt>
<pdfrwt beam="1">  1       21 0.21354240E-02 0.13581473E+03</pdfrwt>
<pdfrwt beam="2">  1       -4 0.18733968E+00 0.13581473E+03</pdfrwt>
<totfact> 0.79594596E+03</totfact>
</mgrwt>
</event>
<event>
 6    4  0.6325740E-003  0.1287479E+03  0.7818608E-02  0.1229326E+00
         21   -1    0    0  501  502  0.00000000000E+00  0.00000000000E+00  0.95255724695E+02  0.95255724695E+02  0.00000000000E+00 0.  1.
         -4   -1    0    0    0  501 -0.00000000000E+00 -0.00000000000E+00 -0.67262639661E+02  0.67274628161E+02  0.12700000000E+01 0.  1.
         25    2    1    2    0    0  0.19857406966E+01  0.30800760741E+02  0.17639677617E+02  0.12995066634E+03  0.12499354954E+03 0.  0.
    9000005    1    3    3    0    0 -0.24333723360E+02  0.42725574997E+02 -0.41352503361E+02  0.64254450317E+02  0.10000000000E+01 0.  0.
    9000005    1    3    3    0    0  0.26319464056E+02 -0.11924814256E+02  0.58992180978E+02  0.65696216023E+02  0.10000000000E+01 0.  0.
         -4    1    1    2    0  502 -0.19857406966E+01 -0.30800760741E+02  0.10353407416E+02  0.32579686516E+02  0.12700000000E+01 0. -1.
<mgrwt>
<rscale>  1 0.12874788E+03</rscale>
<asrwt>0</asrwt>
<pdfrwt beam="1">  1       21 0.14654727E-01 0.12874788E+03</pdfrwt>
<pdfrwt beam="2">  1       -4 0.10349672E-01 0.12874788E+03</pdfrwt>
<totfact> 0.11711826E+05</totfact>
</mgrwt>
</event>
<event>
 6    4  0.6325740E-003  0.1348220E+03  0.7818608E-02  0.1220471E+00
         21   -1    0    0  501  502  0.00000000000E+00  0.00000000000E+00  0.23886692217E+03  0.23886692217E+03  0.00000000000E+00 0. -1.
         -4   -1    0    0    0  501 -0.00000000000E+00 -0.00000000000E+00 -0.42532364183E+02  0.42551320814E+02  0.12700000000E+01 0.  1.
         25    2    1    2    0    0  0.30647094148E+02  0.40152814381E+02  0.85601043022E+02  0.15970128805E+03  0.12500187981E+03 0.  0.
    9000005    1    3    3    0    0  0.30417374717E+02  0.15908588224E+02  0.11590138354E+03  0.12088188686E+03  0.10000000000E+01 0.  0.
    9000005    1    3    3    0    0  0.22971943052E+00  0.24244226158E+02 -0.30300340520E+02  0.38819401188E+02  0.10000000000E+01 0.  0.
         -4    1    1    2    0  502 -0.30647094148E+02 -0.40152814381E+02  0.11073351497E+03  0.12171695494E+03  0.12700000000E+01 0. -1.
<mgrwt>
<rscale>  1 0.13482197E+03</rscale>
<asrwt>0</asrwt>
<pdfrwt beam="1">  1       21 0.36748757E-01 0.13482197E+03</pdfrwt>
<pdfrwt beam="2">  1       -4 0.65451587E-02 0.13482197E+03</pdfrwt>
<totfact> 0.44718128E+04</totfact>
</mgrwt>
</event>
<event>
 6    4  0.6325740E-003  0.1268769E+03  0.7818608E-02  0.1232165E+00
         21   -1    0    0  501  502  0.00000000000E+00  0.00000000000E+00  0.34570423131E+02  0.34570423131E+02  0.00000000000E+00 0. -1.
          4   -1    0    0  502    0 -0.00000000000E+00 -0.00000000000E+00 -0.25477938631E+03  0.25478255158E+03  0.12700000000E+01 0.  1.
         25    2    1    2    0    0  0.19457381990E+02 -0.97354068127E+01 -0.23210815891E+03  0.26452211450E+03  0.12499753504E+03 0.  0.
    9000005    1    3    3    0    0 -0.11317062638E+02  0.23616156792E+02 -0.21408540930E+03  0.21568347467E+03  0.10000000000E+01 0.  0.
    9000005    1    3    3    0    0  0.30774444629E+02 -0.33351563605E+02 -0.18022749607E+02  0.48838639831E+02  0.10000000000E+01 0.  0.
          4    1    1    2  501    0 -0.19457381990E+02  0.97354068127E+01  0.11899195732E+02  0.24830860211E+02  0.12700000000E+01 0. -1.
<mgrwt>
<rscale>  1 0.12687692E+03</rscale>
<asrwt>0</asrwt>
<pdfrwt beam="1">  1       21 0.53185265E-02 0.12687692E+03</pdfrwt>
<pdfrwt beam="2">  1        4 0.39198867E-01 0.12687692E+03</pdfrwt>
<totfact> 0.61311240E+04</totfact>
</mgrwt>
</event>
<event>
 6    4  0.6325740E-003  0.1273543E+03  0.7818608E-02  0.1231435E+00
         -4   -1    0    0    0  501 -0.00000000000E+00  0.00000000000E+00  0.90691010030E+02  0.90699901876E+02  0.12700000000E+01 0. -1.
         21   -1    0    0  501  502  0.00000000000E+00 -0.00000000000E+00 -0.63470402113E+02  0.63470402113E+02  0.00000000000E+00 0. -1.
         25    2    1    2    0    0  0.24225279355E+02  0.67251379984E+00  0.25153936346E+02  0.12981459694E+03  0.12502716757E+03 0.  0.
    9000005    1    3    3    0    0  0.21997471608E+02 -0.61144282319E+02  0.71359935576E+01  0.65379158923E+02  0.10000000000E+01 0.  0.
    9000005    1    3    3    0    0  0.22278077466E+01  0.61816796118E+02  0.18017942789E+02  0.64435438014E+02  0.10000000000E+01 0.  0.
         -4    1    1    2    0  502 -0.24225279355E+02 -0.67251379984E+00  0.20666715706E+01  0.24355707052E+02  0.12700000000E+01 0.  1.
<mgrwt>
<rscale>  1 0.12735427E+03</rscale>
<asrwt>0</asrwt>
<pdfrwt beam="2">  1       21 0.97646773E-02 0.12735427E+03</pdfrwt>
<pdfrwt beam="1">  1       -4 0.13954124E-01 0.12735427E+03</pdfrwt>
<totfact> 0.14404589E+05</totfact>
</mgrwt>
</event>
<event>
 6    4  0.6325740E-003  0.1278222E+03  0.7818608E-02  0.1230723E+00
         21   -1    0    0  501  502  0.00000000000E+00  0.00000000000E+00  0.17155432041E+03  0.17155432041E+03  0.00000000000E+00 0.  1.
          4   -1    0    0  502    0 -0.00000000000E+00 -0.00000000000E+00 -0.10685285450E+03  0.10686040153E+03  0.12700000000E+01 0. -1.
         25    2    1    2    0    0 -0.11698503375E+02  0.24025229346E+02 -0.66796532713E+02  0.14422305615E+03  0.12499778605E+03 0.  0.
    9000005    1    3    3    0    0 -0.16639409543E+02  0.65609309208E+02 -0.28191932510E+01  0.67752485233E+02  0.10000000000E+01 0.  0.
    9000005    1    3    3    0    0  0.49409061674E+01 -0.41584079862E+02 -0.63977339462E+02  0.76470570917E+02  0.10000000000E+01 0.  0.
          4    1    1    2  501    0  0.11698503375E+02 -0.24025229346E+02  0.13149799863E+03  0.13419166580E+03  0.12700000000E+01 0.  1.
<mgrwt>
<rscale>  1 0.12782219E+03</rscale>
<asrwt>0</asrwt>
<pdfrwt beam="1">  1       21 0.26392972E-01 0.12782219E+03</pdfrwt>
<pdfrwt beam="2">  1        4 0.16439843E-01 0.12782219E+03</pdfrwt>
<totfact> 0.17794399E+04</totfact>
</mgrwt>
</event>
<event>
 6    4  0.6325740E-003  0.1311699E+03  0.7818608E-02  0.1225730E+00
         21   -1    0    0  501  502  0.00000000000E+00  0.00000000000E+00  0.10980828838E+03  0.10980828838E+03  0.00000000000E+00 0. -1.
          4   -1    0    0  502    0 -0.00000000000E+00 -0.00000000000E+00 -0.14312789192E+03  0.14313352628E+03  0.12700000000E+01 0.  1.
         25    2    1    2    0    0  0.23372097073E+02 -0.32244892043E+02 -0.10693473760E+03  0.16923525073E+03  0.12497817409E+03 0.  0.
    9000005    1    3    3    0    0  0.24847099799E+02  0.89837940548E+01 -0.12235645880E+03  0.12518062923E+03  0.10000000000E+01 0.  0.
    9000005    1    3    3    0    0 -0.14750027259E+01 -0.41228686098E+02  0.15421721203E+02  0.44054621498E+02  0.10000000000E+01 0.  0.
          4    1    1    2  501    0 -0.23372097073E+02  0.32244892043E+02  0.73615134051E+02  0.83706563935E+02  0.12700000000E+01 0. -1.
<mgrwt>
<rscale>  1 0.13116986E+03</rscale>
<asrwt>0</asrwt>
<pdfrwt beam="1">  1       21 0.16893583E-01 0.13116986E+03</pdfrwt>
<pdfrwt beam="2">  1        4 0.22020674E-01 0.13116986E+03</pdfrwt>
<totfact> 0.24253565E+04</totfact>
</mgrwt>
</event>
<event>
 6    4  0.6325740E-003  0.1310189E+03  0.7818608E-02  0.1225952E+00
         21   -1    0    0  501  502  0.00000000000E+00  0.00000000000E+00  0.50714863886E+02  0.50714863886E+02  0.00000000000E+00 0.  1.
          4   -1    0    0  502    0 -0.00000000000E+00 -0.00000000000E+00 -0.38910534558E+03  0.38910741815E+03  0.12700000000E+01 0. -1.
         25    2    1    2    0    0 -0.39111693491E+02 -0.33193380454E+01 -0.36800679608E+03  0.39063405631E+03  0.12500088564E+03 0.  0.
    9000005    1    3    3    0    0  0.12079680545E+02 -0.16651681132E+02 -0.31523375752E+03  0.31590587055E+03  0.10000000000E+01 0.  0.
    9000005    1    3    3    0    0 -0.51191374035E+02  0.13332343086E+02 -0.52773038565E+02  0.74728185762E+02  0.10000000000E+01 0.  0.
          4    1    1    2  501    0  0.39111693491E+02  0.33193380454E+01  0.29616314386E+02  0.49188225731E+02  0.12700000000E+01 0.  1.
<mgrwt>
<rscale>  1 0.13101895E+03</rscale>
<asrwt>0</asrwt>
<pdfrwt beam="1">  1       21 0.78022868E-02 0.13101895E+03</pdfrwt>
<pdfrwt beam="2">  1        4 0.59863743E-01 0.13101895E+03</pdfrwt>
<totfact> 0.13593039E+04</totfact>
</mgrwt>
</event>
<event>
 6    4  0.6325740E-003  0.1525758E+03  0.7818608E-02  0.1197343E+00
          4   -1    0    0  502    0 -0.00000000000E+00  0.00000000000E+00  0.34959144917E+03  0.34959375600E+03  0.12700000000E+01 0. -1.
         21   -1    0    0  501  502  0.00000000000E+00 -0.00000000000E+00 -0.43566939560E+02  0.43566939560E+02  0.00000000000E+00 0. -1.
         25    2    1    2    0    0  0.59960051379E+02  0.63657857645E+02  0.14808753179E+03  0.21262473664E+03  0.12502732084E+03 0.  0.
    9000005    1    3    3    0    0  0.95251304311E+02  0.22906500659E+02  0.10496627504E+03  0.14358425277E+03  0.10000000000E+01 0.  0.
    9000005    1    3    3    0    0 -0.35291252933E+02  0.40751356985E+02  0.43121256746E+02  0.69040483870E+02  0.10000000000E+01 0.  0.
          4    1    1    2  501    0 -0.59960051379E+02 -0.63657857645E+02  0.15793697782E+03  0.18053595892E+03  0.12700000000E+01 0.  1.
<mgrwt>
<rscale>  1 0.15257576E+03</rscale>
<asrwt>0</asrwt>
<pdfrwt beam="2">  1       21 0.67026063E-02 0.15257576E+03</pdfrwt>
<pdfrwt beam="1">  1        4 0.53784900E-01 0.15257576E+03</pdfrwt>
<totfact> 0.22388940E+04</totfact>
</mgrwt>
</event>
<event>
 6    4  0.6325740E-003  0.1275098E+03  0.7818608E-02  0.1231198E+00
          4   -1    0    0  502    0 -0.00000000000E+00  0.00000000000E+00  0.86027162128E+02  0.86036535982E+02  0.12700000000E+01 0.  1.
         21   -1    0    0  501  502  0.00000000000E+00 -0.00000000000E+00 -0.96230760481E+02  0.96230760481E+02  0.00000000000E+00 0. -1.
         25    2    1    2    0    0  0.19984562606E+02  0.15357256015E+02  0.33467830293E+02  0.13182887227E+03  0.12499411124E+03 0.  0.
    9000005    1    3    3    0    0 -0.43415022970E+02 -0.23362645590E+02 -0.23139680327E+01  0.49366303047E+02  0.10000000000E+01 0.  0.
    9000005    1    3    3    0    0  0.63399585577E+02  0.38719901605E+02  0.35781798326E+02  0.82462569224E+02  0.10000000000E+01 0.  0.
          4    1    1    2  501    0 -0.19984562606E+02 -0.15357256015E+02 -0.43671428646E+02  0.50438424191E+02  0.12700000000E+01 0. -1.
<mgrwt>
<rscale>  1 0.12750983E+03</rscale>
<asrwt>0</asrwt>
<pdfrwt beam="2">  1       21 0.14804732E-01 0.12750983E+03</pdfrwt>
<pdfrwt beam="1">  1        4 0.13236314E-01 0.12750983E+03</pdfrwt>
<totfact> 0.75496194E+04</totfact>
</mgrwt>
</event>
<event>
 6    4  0.6325740E-003  0.1317617E+03  0.7818608E-02  0.1224865E+00
         -4   -1    0    0    0  501 -0.00000000000E+00  0.00000000000E+00  0.42658869960E+02  0.42677770399E+02  0.12700000000E+01 0.  1.
         21   -1    0    0  501  502  0.00000000000E+00 -0.00000000000E+00 -0.22576320114E+03  0.22576320114E+03  0.00000000000E+00 0. -1.
         25    2    1    2    0    0  0.48914685248E+01  0.41327726958E+02 -0.72789769683E+02  0.15053073934E+03  0.12501698059E+03 0.  0.
    9000005    1    3    3    0    0  0.30992267962E+02 -0.97046564966E+01  0.22362135932E+02  0.39443201627E+02  0.10000000000E+01 0.  0.
    9000005    1    3    3    0    0 -0.26100799437E+02  0.51032383454E+02 -0.95151905615E+02  0.11108753771E+03  0.10000000000E+01 0.  0.
         -4    1    1    2    0  502 -0.48914685248E+01 -0.41327726958E+02 -0.11031456150E+03  0.11791023220E+03  0.12700000000E+01 0. -1.
<mgrwt>
<rscale>  1 0.13176173E+03</rscale>
<asrwt>0</asrwt>
<pdfrwt beam="2">  1       21 0.34732801E-01 0.13176173E+03</pdfrwt>
<pdfrwt beam="1">  1       -4 0.65646315E-02 0.13176173E+03</pdfrwt>
<totfact> 0.49611685E+04</totfact>
</mgrwt>
</event>
<event>
 6    4  0.6325740E-003  0.1298195E+03  0.7818608E-02  0.1227724E+00
         -4   -1    0    0    0  501 -0.00000000000E+00  0.00000000000E+00  0.35690795995E+03  0.35691021949E+03  0.12700000000E+01 0. -1.
         21   -1    0    0  501  502  0.00000000000E+00 -0.00000000000E+00 -0.22444029995E+02  0.22444029995E+02  0.00000000000E+00 0. -1.
         25    2    1    2    0    0  0.45735713863E+01  0.34738820941E+02  0.31142707228E+03  0.33740174125E+03  0.12500164165E+03 0.  0.
    9000005    1    3    3    0    0  0.18453681707E+02  0.77025857960E+02  0.24458114518E+03  0.25708842397E+03  0.10000000000E+01 0.  0.
    9000005    1    3    3    0    0 -0.13880110321E+02 -0.42287037019E+02  0.66845927097E+02  0.80313317276E+02  0.10000000000E+01 0.  0.
         -4    1    1    2    0  502 -0.45735713863E+01 -0.34738820941E+02  0.23036857675E+02  0.41952508234E+02  0.12700000000E+01 0.  1.
<mgrwt>
<rscale>  1 0.12981954E+03</rscale>
<asrwt>0</asrwt>
<pdfrwt beam="2">  1       21 0.34529280E-02 0.12981954E+03</pdfrwt>
<pdfrwt beam="1">  1       -4 0.54911850E-01 0.12981954E+03</pdfrwt>
<totfact> 0.64146230E+04</totfact>
</mgrwt>
</event>
<event>
 6    4  0.6325740E-003  0.1271259E+03  0.7818608E-02  0.1231784E+00
          4   -1    0    0  502    0 -0.00000000000E+00  0.00000000000E+00  0.17956169998E+03  0.17956619114E+03  0.12700000000E+01 0. -1.
         21   -1    0    0  501  502  0.00000000000E+00 -0.00000000000E+00 -0.42762720444E+02  0.42762720444E+02  0.00000000000E+00 0. -1.
         25    2    1    2    0    0  0.21566743128E+02 -0.84408363056E+01  0.14921053008E+03  0.19602241783E+03  0.12499853549E+03 0.  0.
    9000005    1    3    3    0    0  0.18034272882E+02  0.36701075481E+02  0.14485826729E+03  0.15052282731E+03  0.10000000000E+01 0.  0.
    9000005    1    3    3    0    0  0.35324702460E+01 -0.45141911786E+02  0.43522627983E+01  0.45499590517E+02  0.10000000000E+01 0.  0.
          4    1    1    2  501    0 -0.21566743128E+02  0.84408363056E+01 -0.12411550549E+02  0.26306493756E+02  0.12700000000E+01 0.  1.
<mgrwt>
<rscale>  1 0.12712595E+03</rscale>
<asrwt>0</asrwt>
<pdfrwt beam="2">  1       21 0.65788802E-02 0.12712595E+03</pdfrwt>
<pdfrwt beam="1">  1        4 0.27626673E-01 0.12712595E+03</pdfrwt>
<totfact> 0.83498390E+04</totfact>
</mgrwt>
</event>
<event>
 6    4  0.6325740E-003  0.1271825E+03  0.7818608E-02  0.1231697E+00
         21   -1    0    0  501  502  0.00000000000E+00  0.00000000000E+00  0.12998292915E+03  0.12998292915E+03  0.00000000000E+00 0.  1.
         -4   -1    0    0    0  501 -0.00000000000E+00 -0.00000000000E+00 -0.52765135560E+02  0.52780417114E+02  0.12700000000E+01 0.  1.
         25    2    1    2    0    0  0.20283965604E+02  0.11788800096E+02  0.30984204729E+02  0.13090225577E+03  0.12499985822E+03 0.  0.
    9000005    1    3    3    0    0  0.55554187953E+01 -0.54447483008E+02  0.31267849253E+02  0.63040221135E+02  0.10000000000E+01 0.  0.
    9000005    1    3    3    0    0  0.14728546809E+02  0.66236283104E+02 -0.28364452400E+00  0.67862034634E+02  0.10000000000E+01 0.  0.
         -4    1    1    2    0  502 -0.20283965604E+02 -0.11788800096E+02  0.46233588866E+02  0.51861090499E+02  0.12700000000E+01 0. -1.
<mgrwt>
<rscale>  1 0.12718247E+03</rscale>
<asrwt>0</asrwt>
<pdfrwt beam="1">  1       21 0.19997374E-01 0.12718247E+03</pdfrwt>
<pdfrwt beam="2">  1       -4 0.81193660E-02 0.12718247E+03</pdfrwt>
<totfact> 0.99543841E+04</totfact>
</mgrwt>
</event>
<event>
 6    4  0.6325740E-003  0.1278205E+03  0.7818608E-02  0.1230726E+00
         -4   -1    0    0    0  501 -0.00000000000E+00  0.00000000000E+00  0.79766432994E+02  0.79776542495E+02  0.12700000000E+01 0.  1.
         21   -1    0    0  501  502  0.00000000000E+00 -0.00000000000E+00 -0.13330312360E+03  0.13330312360E+03  0.00000000000E+00 0.  1.
         25    2    1    2    0    0 -0.20914996002E+02  0.16584565972E+02  0.24893482386E+02  0.13022201816E+03  0.12500241462E+03 0.  0.
    9000005    1    3    3    0    0 -0.45039056789E+02  0.53229710499E+02 -0.14527470974E+02  0.71231777523E+02  0.10000000000E+01 0.  0.
    9000005    1    3    3    0    0  0.24124060787E+02 -0.36645144527E+02  0.39420953360E+02  0.58990240634E+02  0.10000000000E+01 0.  0.
         -4    1    1    2    0  502  0.20914996002E+02 -0.16584565972E+02 -0.78430172990E+02  0.82857647936E+02  0.12700000000E+01 0. -1.
<mgrwt>
<rscale>  1 0.12782053E+03</rscale>
<asrwt>0</asrwt>
<pdfrwt beam="2">  1       21 0.20508173E-01 0.12782053E+03</pdfrwt>
<pdfrwt beam="1">  1       -4 0.12273002E-01 0.12782053E+03</pdfrwt>
<totfact> 0.47431285E+04</totfact>
</mgrwt>
</event>
<event>
 6    4  0.6325740E-003  0.1281681E+03  0.7818608E-02  0.1230199E+00
         -4   -1    0    0    0  501 -0.00000000000E+00  0.00000000000E+00  0.28629524195E+03  0.28629805878E+03  0.12700000000E+01 0.  1.
         21   -1    0    0  501  502  0.00000000000E+00 -0.00000000000E+00 -0.22551900853E+02  0.22551900853E+02  0.00000000000E+00 0. -1.
         25    2    1    2    0    0 -0.98452117298E+01 -0.26573839994E+02  0.23904536240E+03  0.27123745882E+03  0.12499590639E+03 0.  0.
    9000005    1    3    3    0    0 -0.20287248000E+02 -0.38148801469E+02  0.13681792351E+02  0.45333154830E+02  0.10000000000E+01 0.  0.
    9000005    1    3    3    0    0  0.10442036270E+02  0.11574961475E+02  0.22536357005E+03  0.22590430399E+03  0.10000000000E+01 0.  0.
         -4    1    1    2    0  502  0.98452117298E+01  0.26573839994E+02  0.24697978696E+02  0.37612500817E+02  0.12700000000E+01 0. -1.
<mgrwt>
<rscale>  1 0.12816815E+03</rscale>
<asrwt>0</asrwt>
<pdfrwt beam="2">  1       21 0.34695234E-02 0.12816815E+03</pdfrwt>
<pdfrwt beam="1">  1       -4 0.44048387E-01 0.12816815E+03</pdfrwt>
<totfact> 0.99369036E+04</totfact>
</mgrwt>
</event>
<event>
 6    4  0.6325740E-003  0.1318396E+03  0.7818608E-02  0.1224751E+00
         21   -1    0    0  501  502  0.00000000000E+00  0.00000000000E+00  0.18416361361E+03  0.18416361361E+03  0.00000000000E+00 0. -1.
          4   -1    0    0  502    0 -0.00000000000E+00 -0.00000000000E+00 -0.43074419408E+02  0.43093137590E+02  0.12700000000E+01 0.  1.
         25    2    1    2    0    0  0.11987556123E+02 -0.40160830576E+02  0.83638466670E+02  0.15613156011E+03  0.12500030856E+03 0.  0.
    9000005    1    3    3    0    0 -0.24099742564E+02 -0.75347807535E+02  0.36554995880E+02  0.87151347757E+02  0.10000000000E+01 0.  0.
    9000005    1    3    3    0    0  0.36087298687E+02  0.35186976959E+02  0.47083470790E+02  0.68980212349E+02  0.10000000000E+01 0.  0.
          4    1    1    2  501    0 -0.11987556123E+02  0.40160830576E+02  0.57450727531E+02  0.71125191094E+02  0.12700000000E+01 0. -1.
<mgrwt>
<rscale>  1 0.13183957E+03</rscale>
<asrwt>0</asrwt>
<pdfrwt beam="1">  1       21 0.28332863E-01 0.13183957E+03</pdfrwt>
<pdfrwt beam="2">  1        4 0.66286106E-02 0.13183957E+03</pdfrwt>
<totfact> 0.72500896E+04</totfact>
</mgrwt>
</event>
<event>
 6    4  0.6325740E-003  0.1319863E+03  0.7818608E-02  0.1224538E+00
         21   -1    0    0  501  502  0.00000000000E+00  0.00000000000E+00  0.11089945055E+03  0.11089945055E+03  0.00000000000E+00 0. -1.
         -4   -1    0    0    0  501 -0.00000000000E+00 -0.00000000000E+00 -0.78743173245E+02  0.78753414102E+02  0.12700000000E+01 0. -1.
         25    2    1    2    0    0  0.51439460068E+01 -0.42108003227E+02  0.53172313948E+02  0.14229432992E+03  0.12498334785E+03 0.  0.
    9000005    1    3    3    0    0  0.31896503410E+02  0.36165841720E+02  0.11135403033E+02  0.49501032695E+02  0.10000000000E+01 0.  0.
    9000005    1    3    3    0    0 -0.26752557404E+02 -0.78273844947E+02  0.42036910915E+02  0.92793297224E+02  0.10000000000E+01 0.  0.
         -4    1    1    2    0  502 -0.51439460068E+01  0.42108003227E+02 -0.21016036640E+02  0.47358534736E+02  0.12700000000E+01 0.  1.
<mgrwt>
<rscale>  1 0.13198629E+03</rscale>
<asrwt>0</asrwt>
<pdfrwt beam="1">  1       21 0.17061454E-01 0.13198629E+03</pdfrwt>
<pdfrwt beam="2">  1       -4 0.12115681E-01 0.13198629E+03</pdfrwt>
<totfact> 0.68272974E+04</totfact>
</mgrwt>
</event>
<event>
 6    4  0.6325740E-003  0.1297614E+03  0.7818608E-02  0.1227810E+00
          4   -1    0    0  502    0 -0.00000000000E+00  0.00000000000E+00  0.11478839271E+03  0.11479541803E+03  0.12700000000E+01 0.  1.
         21   -1    0    0  501  502  0.00000000000E+00 -0.00000000000E+00 -0.71537286526E+02  0.71537286526E+02  0.00000000000E+00 0. -1.
         25    2    1    2    0    0  0.30061228156E+02 -0.17638069211E+02  0.65101490074E+02  0.14517652519E+03  0.12499296193E+03 0.  0.
    9000005    1    3    3    0    0  0.12686758299E+02  0.15085054262E+02 -0.34032263767E+02  0.39340916046E+02  0.10000000000E+01 0.  0.
    9000005    1    3    3    0    0  0.17374469858E+02 -0.32723123474E+02  0.99133753841E+02  0.10583560915E+03  0.10000000000E+01 0.  0.
          4    1    1    2  501    0 -0.30061228156E+02  0.17638069211E+02 -0.21850383891E+02  0.41156179365E+02  0.12700000000E+01 0. -1.
<mgrwt>
<rscale>  1 0.12976139E+03</rscale>
<asrwt>0</asrwt>
<pdfrwt beam="2">  1       21 0.11005736E-01 0.12976139E+03</pdfrwt>
<pdfrwt beam="1">  1        4 0.17661160E-01 0.12976139E+03</pdfrwt>
<totfact> 0.77500631E+04</totfact>
</mgrwt>
</event>
<event>
 6    4  0.6325740E-003  0.1315496E+03  0.7818608E-02  0.1225174E+00
         21   -1    0    0  501  502  0.00000000000E+00  0.00000000000E+00  0.40612847326E+03  0.40612847326E+03  0.00000000000E+00 0. -1.
          4   -1    0    0  502    0 -0.00000000000E+00 -0.00000000000E+00 -0.78017829561E+02  0.78028165616E+02  0.12700000000E+01 0.  1.
         25    2    1    2    0    0 -0.34226172653E+02  0.22548613762E+02 -0.20504570566E+02  0.13313804764E+03  0.12500172574E+03 0.  0.
    9000005    1    3    3    0    0 -0.57916413184E+02  0.19144614180E+02 -0.60882783787E+02  0.86188981487E+02  0.10000000000E+01 0.  0.
    9000005    1    3    3    0    0  0.23690240531E+02  0.34039995825E+01  0.40378213221E+02  0.46949066151E+02  0.10000000000E+01 0.  0.
          4    1    1    2  501    0  0.34226172653E+02 -0.22548613762E+02  0.34861521426E+03  0.35101859124E+03  0.12700000000E+01 0. -1.
<mgrwt>
<rscale>  1 0.13154962E+03</rscale>
<asrwt>0</asrwt>
<pdfrwt beam="1">  1       21 0.62481302E-01 0.13154962E+03</pdfrwt>
<pdfrwt beam="2">  1        4 0.12003691E-01 0.13154962E+03</pdfrwt>
<totfact> 0.54485753E+03</totfact>
</mgrwt>
</event>
<event>
 6    4  0.6325740E-003  0.1395511E+03  0.7818608E-02  0.1213934E+00
         21   -1    0    0  501  502  0.00000000000E+00  0.00000000000E+00  0.14444485825E+03  0.14444485825E+03  0.00000000000E+00 0. -1.
          4   -1    0    0  502    0 -0.00000000000E+00 -0.00000000000E+00 -0.90305313963E+02  0.90314243782E+02  0.12700000000E+01 0.  1.
         25    2    1    2    0    0 -0.28308447311E+02 -0.55217204452E+02 -0.16735317843E+02  0.14055099814E+03  0.12499681739E+03 0.  0.
    9000005    1    3    3    0    0  0.35362590453E+02 -0.32128014291E+02 -0.46396299188E+02  0.66605845721E+02  0.10000000000E+01 0.  0.
    9000005    1    3    3    0    0 -0.63671037764E+02 -0.23089190161E+02  0.29660981345E+02  0.73945152421E+02  0.10000000000E+01 0.  0.
          4    1    1    2  501    0  0.28308447311E+02  0.55217204452E+02  0.70874862128E+02  0.94208103889E+02  0.12700000000E+01 0. -1.
<mgrwt>
<rscale>  1 0.13955111E+03</rscale>
<asrwt>0</asrwt>
<pdfrwt beam="1">  1       21 0.22222286E-01 0.13955111E+03</pdfrwt>
<pdfrwt beam="2">  1        4 0.13894242E-01 0.13955111E+03</pdfrwt>
<totfact> 0.33309554E+04</totfact>
</mgrwt>
</event>
<event>
 6    4  0.6325740E-003  0.1267849E+03  0.7818608E-02  0.1232306E+00
         -4   -1    0    0    0  501 -0.00000000000E+00  0.00000000000E+00  0.62963498840E+02  0.62976305752E+02  0.12700000000E+01 0. -1.
         21   -1    0    0  501  502  0.00000000000E+00 -0.00000000000E+00 -0.93461721976E+02  0.93461721976E+02  0.00000000000E+00 0. -1.
         25    2    1    2    0    0  0.22095970077E+01 -0.21083679631E+02 -0.10420377340E+02  0.12721241127E+03  0.12500003780E+03 0.  0.
    9000005    1    3    3    0    0 -0.48501865476E+02 -0.72243059891E+01 -0.43108620981E+02  0.65299117563E+02  0.10000000000E+01 0.  0.
    9000005    1    3    3    0    0  0.50711462483E+02 -0.13859373642E+02  0.32688243640E+02  0.61913293704E+02  0.10000000000E+01 0.  0.
         -4    1    1    2    0  502 -0.22095970077E+01  0.21083679631E+02 -0.20077845796E+02  0.29225616461E+02  0.12700000000E+01 0.  1.
<mgrwt>
<rscale>  1 0.12678491E+03</rscale>
<asrwt>0</asrwt>
<pdfrwt beam="2">  1       21 0.14378727E-01 0.12678491E+03</pdfrwt>
<pdfrwt beam="1">  1       -4 0.96883410E-02 0.12678491E+03</pdfrwt>
<totfact> 0.13513355E+05</totfact>
</mgrwt>
</event>
<event>
 6    4  0.6325740E-003  0.1303002E+03  0.7818608E-02  0.1227011E+00
         -4   -1    0    0    0  501 -0.00000000000E+00  0.00000000000E+00  0.72985380857E+02  0.72996429493E+02  0.12700000000E+01 0. -1.
         21   -1    0    0  501  502  0.00000000000E+00 -0.00000000000E+00 -0.96300556120E+02  0.96300556120E+02  0.00000000000E+00 0. -1.
         25    2    1    2    0    0  0.30417146251E+02  0.20682500075E+02 -0.12300404088E+02  0.13087945473E+03  0.12500065253E+03 0.  0.
    9000005    1    3    3    0    0  0.24385103075E+02  0.15051664796E+02 -0.68400205243E+02  0.74167202606E+02  0.10000000000E+01 0.  0.
    9000005    1    3    3    0    0  0.60320431765E+01  0.56308352792E+01  0.56099801155E+02  0.56712252120E+02  0.10000000000E+01 0.  0.
         -4    1    1    2    0  502 -0.30417146251E+02 -0.20682500075E+02 -0.11014771175E+02  0.38417530887E+02  0.12700000000E+01 0.  1.
<mgrwt>
<rscale>  1 0.13030016E+03</rscale>
<asrwt>0</asrwt>
<pdfrwt beam="2">  1       21 0.14815470E-01 0.13030016E+03</pdfrwt>
<pdfrwt beam="1">  1       -4 0.11230014E-01 0.13030016E+03</pdfrwt>
<totfact> 0.10018234E+05</totfact>
</mgrwt>
</event>
<event>
 6    4  0.6325740E-003  0.1267438E+03  0.7818608E-02  0.1232369E+00
         21   -1    0    0  501  502  0.00000000000E+00  0.00000000000E+00  0.79851967692E+01  0.79851967692E+01  0.00000000000E+00 0.  1.
          4   -1    0    0  502    0 -0.00000000000E+00 -0.00000000000E+00 -0.10947987901E+04  0.10947995267E+04  0.12700000000E+01 0. -1.
         25    2    1    2    0    0  0.19319436287E+02  0.80968916111E+01 -0.10649996453E+04  0.10725149118E+04  0.12500076507E+03 0.  0.
    9000005    1    3    3    0    0 -0.36667502963E+02  0.35639306347E+01 -0.83282975208E+03  0.83364477047E+03  0.10000000000E+01 0.  0.
    9000005    1    3    3    0    0  0.55986939250E+02  0.45329609765E+01 -0.23216989318E+03  0.23887014129E+03  0.10000000000E+01 0.  0.
          4    1    1    2  501    0 -0.19319436287E+02 -0.80968916111E+01 -0.21813948097E+02  0.30269811756E+02  0.12700000000E+01 0.  1.
<mgrwt>
<rscale>  1 0.12674380E+03</rscale>
<asrwt>0</asrwt>
<pdfrwt beam="1">  1       21 0.12284921E-02 0.12674380E+03</pdfrwt>
<pdfrwt beam="2">  1        4 0.16843836E+00 0.12674380E+03</pdfrwt>
<totfact> 0.25569117E+04</totfact>
</mgrwt>
</event>
<event>
 6    4  0.6325740E-003  0.1860613E+03  0.7818608E-02  0.1162063E+00
         21   -1    0    0  501  502  0.00000000000E+00  0.00000000000E+00  0.22063041009E+03  0.22063041009E+03  0.00000000000E+00 0. -1.
         -4   -1    0    0    0  501 -0.00000000000E+00 -0.00000000000E+00 -0.12567114520E+03  0.12567756218E+03  0.12700000000E+01 0. -1.
         25    2    1    2    0    0  0.12649074783E+03  0.54710095582E+02  0.14279511230E+02  0.18660844379E+03  0.12500281200E+03 0.  0.
    9000005    1    3    3    0    0 -0.20055488328E+02 -0.10948474812E+02  0.12389502925E+02  0.26011372426E+02  0.10000000000E+01 0.  0.
    9000005    1    3    3    0    0  0.14654623616E+03  0.65658570394E+02  0.18900083053E+01  0.16059707136E+03  0.10000000000E+01 0.  0.
         -4    1    1    2    0  502 -0.12649074783E+03 -0.54710095582E+02  0.80679753654E+02  0.15969952848E+03  0.12700000000E+01 0.  1.
<mgrwt>
<rscale>  1 0.18606130E+03</rscale>
<asrwt>0</asrwt>
<pdfrwt beam="1">  1       21 0.33943140E-01 0.18606130E+03</pdfrwt>
<pdfrwt beam="2">  1       -4 0.19334797E-01 0.18606130E+03</pdfrwt>
<totfact> 0.84185909E+03</totfact>
</mgrwt>
</event>
<event>
 6    4  0.6325740E-003  0.1272440E+03  0.7818608E-02  0.1231603E+00
         -4   -1    0    0    0  501 -0.00000000000E+00  0.00000000000E+00  0.17052528377E+02  0.17099755087E+02  0.12700000000E+01 0. -1.
         21   -1    0    0  501  502  0.00000000000E+00 -0.00000000000E+00 -0.68280030789E+03  0.68280030789E+03  0.00000000000E+00 0.  1.
         25    2    1    2    0    0  0.16398837951E+02 -0.17208041883E+02 -0.22482882814E+03  0.25833899906E+03  0.12500399145E+03 0.  0.
    9000005    1    3    3    0    0  0.76886394390E+01  0.80670539738E+01  0.14053306347E+02  0.17963517348E+02  0.10000000000E+01 0.  0.
    9000005    1    3    3    0    0  0.87101985116E+01 -0.25275095857E+02 -0.23888213449E+03  0.24037548171E+03  0.10000000000E+01 0.  0.
         -4    1    1    2    0  502 -0.16398837951E+02  0.17208041883E+02 -0.44091895137E+03  0.44156106391E+03  0.12700000000E+01 0.  1.
<mgrwt>
<rscale>  1 0.12724400E+03</rscale>
<asrwt>0</asrwt>
<pdfrwt beam="2">  1       21 0.10504620E+00 0.12724400E+03</pdfrwt>
<pdfrwt beam="1">  1       -4 0.26271897E-02 0.12724400E+03</pdfrwt>
<totfact> 0.19915558E+04</totfact>
</mgrwt>
</event>
<event>
 6    4  0.6325740E-003  0.1273492E+03  0.7818608E-02  0.1231443E+00
         21   -1    0    0  501  502  0.00000000000E+00  0.00000000000E+00  0.17499614506E+02  0.17499614506E+02  0.00000000000E+00 0.  1.
          4   -1    0    0  502    0 -0.00000000000E+00 -0.00000000000E+00 -0.44433629351E+03  0.44433810846E+03  0.12700000000E+01 0.  1.
         25    2    1    2    0    0  0.23944040919E+02 -0.45333084611E+01 -0.41614683185E+03  0.43519651966E+03  0.12499582828E+03 0.  0.
    9000005    1    3    3    0    0  0.34444933449E+01 -0.58736231921E+02 -0.29610002043E+03  0.30189076099E+03  0.10000000000E+01 0.  0.
    9000005    1    3    3    0    0  0.20499547575E+02  0.54202923459E+02 -0.12004681142E+03  0.13330575867E+03  0.10000000000E+01 0.  0.
          4    1    1    2  501    0 -0.23944040919E+02  0.45333084611E+01 -0.10689847150E+02  0.26641203300E+02  0.12700000000E+01 0. -1.
<mgrwt>
<rscale>  1 0.12734922E+03</rscale>
<asrwt>0</asrwt>
<pdfrwt beam="1">  1       21 0.26922487E-02 0.12734922E+03</pdfrwt>
<pdfrwt beam="2">  1        4 0.68363106E-01 0.12734922E+03</pdfrwt>
<totfact> 0.60676850E+04</totfact>
</mgrwt>
</event>
<event>
 6    4  0.6325740E-003  0.1275914E+03  0.7818608E-02  0.1231074E+00
          4   -1    0    0  502    0 -0.00000000000E+00  0.00000000000E+00  0.78020785987E+03  0.78020889350E+03  0.12700000000E+01 0.  1.
         21   -1    0    0  501  502  0.00000000000E+00 -0.00000000000E+00 -0.10269020955E+02  0.10269020955E+02  0.00000000000E+00 0. -1.
         25    2    1    2    0    0 -0.12743998542E+02  0.22201380063E+02  0.74064265786E+03  0.75155247419E+03  0.12499705615E+03 0.  0.
    9000005    1    3    3    0    0 -0.19178890058E+02 -0.15302171230E+02  0.25512854805E+02  0.35410337877E+02  0.10000000000E+01 0.  0.
    9000005    1    3    3    0    0  0.64348915164E+01  0.37503551293E+02  0.71512980305E+03  0.71614213631E+03  0.10000000000E+01 0.  0.
          4    1    1    2  501    0  0.12743998542E+02 -0.22201380063E+02  0.29296181055E+02  0.38925440267E+02  0.12700000000E+01 0. -1.
<mgrwt>
<rscale>  1 0.12759144E+03</rscale>
<asrwt>0</asrwt>
<pdfrwt beam="2">  1       21 0.15798500E-02 0.12759144E+03</pdfrwt>
<pdfrwt beam="1">  1        4 0.12003805E+00 0.12759144E+03</pdfrwt>
<totfact> 0.40123633E+04</totfact>
</mgrwt>
</event>
<event>
 6    4  0.6325740E-003  0.1763706E+03  0.7818608E-02  0.1171363E+00
         -4   -1    0    0    0  501 -0.00000000000E+00  0.00000000000E+00  0.16859613875E+03  0.16860092201E+03  0.12700000000E+01 0.  1.
         21   -1    0    0  501  502  0.00000000000E+00 -0.00000000000E+00 -0.13574073133E+03  0.13574073133E+03  0.00000000000E+00 0.  1.
         25    2    1    2    0    0 -0.10558575969E+03 -0.65828189868E+02  0.35379500378E+02  0.17988408156E+03  0.12499948208E+03 0.  0.
    9000005    1    3    3    0    0 -0.11154060668E+03 -0.94688737183E+02  0.34780078261E+02  0.15039254547E+03  0.10000000000E+01 0.  0.
    9000005    1    3    3    0    0  0.59548469967E+01  0.28860547315E+02  0.59942211770E+00  0.29491536090E+02  0.10000000000E+01 0.  0.
         -4    1    1    2    0  502  0.10558575969E+03  0.65828189868E+02 -0.25240929610E+01  0.12445757179E+03  0.12700000000E+01 0. -1.
<mgrwt>
<rscale>  1 0.17637056E+03</rscale>
<asrwt>0</asrwt>
<pdfrwt beam="2">  1       21 0.20883189E-01 0.17637056E+03</pdfrwt>
<pdfrwt beam="1">  1       -4 0.25938692E-01 0.17637056E+03</pdfrwt>
<totfact> 0.12447075E+04</totfact>
</mgrwt>
</event>
<event>
 6    4  0.6325740E-003  0.1298757E+03  0.7818608E-02  0.1227640E+00
         -4   -1    0    0    0  501 -0.00000000000E+00  0.00000000000E+00  0.10318524522E+03  0.10319306048E+03  0.12700000000E+01 0.  1.
         21   -1    0    0  501  502  0.00000000000E+00 -0.00000000000E+00 -0.69863921403E+02  0.69863921403E+02  0.00000000000E+00 0. -1.
         25    2    1    2    0    0  0.22896630272E+02  0.26810363750E+02  0.42411081513E+02  0.13662501958E+03  0.12499857943E+03 0.  0.
    9000005    1    3    3    0    0  0.64904527586E+02  0.43792337735E+02  0.46583112965E+02  0.91111760816E+02  0.10000000000E+01 0.  0.
    9000005    1    3    3    0    0 -0.42007897315E+02 -0.16981973985E+02 -0.41720314523E+01  0.45513258768E+02  0.10000000000E+01 0.  0.
         -4    1    1    2    0  502 -0.22896630272E+02 -0.26810363750E+02 -0.90897576930E+01  0.36431962301E+02  0.12700000000E+01 0. -1.
<mgrwt>
<rscale>  1 0.12987569E+03</rscale>
<asrwt>0</asrwt>
<pdfrwt beam="2">  1       21 0.10748296E-01 0.12987569E+03</pdfrwt>
<pdfrwt beam="1">  1       -4 0.15876142E-01 0.12987569E+03</pdfrwt>
<totfact> 0.97509618E+04</totfact>
</mgrwt>
</event>
<event>
 6    4  0.6325740E-003  0.1741564E+03  0.7818608E-02  0.1173581E+00
         21   -1    0    0  501  502  0.00000000000E+00  0.00000000000E+00  0.72654619321E+02  0.72654619321E+02  0.00000000000E+00 0.  1.
         -4   -1    0    0    0  501 -0.00000000000E+00 -0.00000000000E+00 -0.30062145940E+03  0.30062414199E+03  0.12700000000E+01 0. -1.
         25    2    1    2    0    0 -0.98308752711E+02  0.70998745646E+02 -0.14025533253E+03  0.22361128255E+03  0.12500005856E+03 0.  0.
    9000005    1    3    3    0    0 -0.43169146773E+02  0.76583878995E+02 -0.14327387189E+03  0.16809838822E+03  0.10000000000E+01 0.  0.
    9000005    1    3    3    0    0 -0.55139605937E+02 -0.55851333494E+01  0.30185393620E+01  0.55512894334E+02  0.10000000000E+01 0.  0.
         -4    1    1    2    0  502  0.98308752711E+02 -0.70998745646E+02 -0.87711507547E+02  0.14966747876E+03  0.12700000000E+01 0.  1.
<mgrwt>
<rscale>  1 0.17415639E+03</rscale>
<asrwt>0</asrwt>
<pdfrwt beam="1">  1       21 0.11177634E-01 0.17415639E+03</pdfrwt>
<pdfrwt beam="2">  1       -4 0.46250515E-01 0.17415639E+03</pdfrwt>
<totfact> 0.12640839E+04</totfact>
</mgrwt>
</event>
<event>
 6    4  0.6325740E-003  0.1275521E+03  0.7818608E-02  0.1231134E+00
          4   -1    0    0  502    0 -0.00000000000E+00  0.00000000000E+00  0.22546487636E+03  0.22546845316E+03  0.12700000000E+01 0. -1.
         21   -1    0    0  501  502  0.00000000000E+00 -0.00000000000E+00 -0.40390258145E+02  0.40390258145E+02  0.00000000000E+00 0.  1.
         25    2    1    2    0    0  0.24961380747E+02 -0.46935368489E+01  0.19937337473E+03  0.23668394216E+03  0.12499778442E+03 0.  0.
    9000005    1    3    3    0    0 -0.33373725200E+02  0.26256964260E+02  0.22898214855E+02  0.48255175363E+02  0.10000000000E+01 0.  0.
    9000005    1    3    3    0    0  0.58335105946E+02 -0.30950501109E+02  0.17647515987E+03  0.18842876680E+03  0.10000000000E+01 0.  0.
          4    1    1    2  501    0 -0.24961380747E+02  0.46935368489E+01 -0.14298756513E+02  0.29174769147E+02  0.12700000000E+01 0.  1.
<mgrwt>
<rscale>  1 0.12755213E+03</rscale>
<asrwt>0</asrwt>
<pdfrwt beam="2">  1       21 0.62138860E-02 0.12755213E+03</pdfrwt>
<pdfrwt beam="1">  1        4 0.34688714E-01 0.12755213E+03</pdfrwt>
<totfact> 0.59794954E+04</totfact>
</mgrwt>
</event>
<event>
 6    4  0.6325740E-003  0.1309912E+03  0.7818608E-02  0.1225992E+00
         -4   -1    0    0    0  501 -0.00000000000E+00  0.00000000000E+00  0.48460854295E+02  0.48477492705E+02  0.12700000000E+01 0. -1.
         21   -1    0    0  501  502  0.00000000000E+00 -0.00000000000E+00 -0.24355563338E+03  0.24355563338E+03  0.00000000000E+00 0.  1.
         25    2    1    2    0    0  0.38600958284E+02 -0.64208777517E+01 -0.47506000639E+02  0.13933956998E+03  0.12500973568E+03 0.  0.
    9000005    1    3    3    0    0 -0.22766196122E+02  0.37456707131E+02 -0.46466201573E+02  0.63885933378E+02  0.10000000000E+01 0.  0.
    9000005    1    3    3    0    0  0.61367154406E+02 -0.43877584883E+02 -0.10397990655E+01  0.75453636606E+02  0.10000000000E+01 0.  0.
         -4    1    1    2    0  502 -0.38600958284E+02  0.64208777517E+01 -0.14758877845E+03  0.15269355610E+03  0.12700000000E+01 0.  1.
<mgrwt>
<rscale>  1 0.13099120E+03</rscale>
<asrwt>0</asrwt>
<pdfrwt beam="2">  1       21 0.37470097E-01 0.13099120E+03</pdfrwt>
<pdfrwt beam="1">  1       -4 0.74570507E-02 0.13099120E+03</pdfrwt>
<totfact> 0.34633785E+04</totfact>
</mgrwt>
</event>
<event>
 6    4  0.6325740E-003  0.1393438E+03  0.7818608E-02  0.1214215E+00
          4   -1    0    0  502    0 -0.00000000000E+00  0.00000000000E+00  0.11721699427E+03  0.11722387405E+03  0.12700000000E+01 0. -1.
         21   -1    0    0  501  502  0.00000000000E+00 -0.00000000000E+00 -0.11136735439E+03  0.11136735439E+03  0.00000000000E+00 0.  1.
         25    2    1    2    0    0  0.54418372677E+02  0.28825242176E+02  0.54984373735E+02  0.14979980224E+03  0.12499778208E+03 0.  0.
    9000005    1    3    3    0    0  0.36622043426E+02  0.48179103670E+02 -0.25084880989E+02  0.65518328347E+02  0.10000000000E+01 0.  0.
    9000005    1    3    3    0    0  0.17796329251E+02 -0.19353861494E+02  0.80069254724E+02  0.84281473893E+02  0.10000000000E+01 0.  0.
          4    1    1    2  501    0 -0.54418372677E+02 -0.28825242176E+02 -0.49134733855E+02  0.78791426198E+02  0.12700000000E+01 0.  1.
<mgrwt>
<rscale>  1 0.13934382E+03</rscale>
<asrwt>0</asrwt>
<pdfrwt beam="2">  1       21 0.17133439E-01 0.13934382E+03</pdfrwt>
<pdfrwt beam="1">  1        4 0.18034470E-01 0.13934382E+03</pdfrwt>
<totfact> 0.34065859E+04</totfact>
</mgrwt>
</event>
<event>
 6    4  0.6325740E-003  0.1499888E+03  0.7818608E-02  0.1200487E+00
          4   -1    0    0  502    0 -0.00000000000E+00  0.00000000000E+00  0.42058204534E+03  0.42058396280E+03  0.12700000000E+01 0.  1.
         21   -1    0    0  501  502  0.00000000000E+00 -0.00000000000E+00 -0.35357393951E+02  0.35357393951E+02  0.00000000000E+00 0. -1.
         25    2    1    2    0    0 -0.77626945745E+02  0.29050790111E+02  0.30831913425E+03  0.34286632601E+03  0.12500695121E+03 0.  0.
    9000005    1    3    3    0    0  0.12275151576E+02 -0.75021504766E+01  0.18675696835E+03  0.18731291156E+03  0.10000000000E+01 0.  0.
    9000005    1    3    3    0    0 -0.89902097320E+02  0.36552940588E+02  0.12156216590E+03  0.15555341445E+03  0.10000000000E+01 0.  0.
          4    1    1    2  501    0  0.77626945745E+02 -0.29050790111E+02  0.76905517136E+02  0.11307503074E+03  0.12700000000E+01 0. -1.
<mgrwt>
<rscale>  1 0.14998876E+03</rscale>
<asrwt>0</asrwt>
<pdfrwt beam="2">  1       21 0.54395994E-02 0.14998876E+03</pdfrwt>
<pdfrwt beam="1">  1        4 0.64706828E-01 0.14998876E+03</pdfrwt>
<totfact> 0.21635254E+04</totfact>
</mgrwt>
</event>
<event>
 6    4  0.6325740E-003  0.1285868E+03  0.7818608E-02  0.1229568E+00
          4   -1    0    0  502    0 -0.00000000000E+00  0.00000000000E+00  0.11852593614E+03  0.11853273994E+03  0.12700000000E+01 0. -1.
         21   -1    0    0  501  502  0.00000000000E+00 -0.00000000000E+00 -0.67309733817E+02  0.67309733817E+02  0.00000000000E+00 0.  1.
         25    2    1    2    0    0 -0.11361326301E+01 -0.30078301072E+02  0.73737124691E+02  0.14822864868E+03  0.12501429414E+03 0.  0.
    9000005    1    3    3    0    0 -0.37311772362E+02  0.30161332398E+02  0.59648403238E+02  0.76555903349E+02  0.10000000000E+01 0.  0.
    9000005    1    3    3    0    0  0.36175639731E+02 -0.60239633470E+02  0.14088721453E+02  0.71672745328E+02  0.10000000000E+01 0.  0.
          4    1    1    2  501    0  0.11361326301E+01  0.30078301072E+02 -0.22520922370E+02  0.37613825079E+02  0.12700000000E+01 0.  1.
<mgrwt>
<rscale>  1 0.12858681E+03</rscale>
<asrwt>0</asrwt>
<pdfrwt beam="2">  1       21 0.10355344E-01 0.12858681E+03</pdfrwt>
<pdfrwt beam="1">  1        4 0.18236204E-01 0.12858681E+03</pdfrwt>
<totfact> 0.81383402E+04</totfact>
</mgrwt>
</event>
<event>
 6    4  0.6325740E-003  0.1382293E+03  0.7818608E-02  0.1215732E+00
         21   -1    0    0  501  502  0.00000000000E+00  0.00000000000E+00  0.38829762026E+02  0.38829762026E+02  0.00000000000E+00 0. -1.
         -4   -1    0    0    0  501 -0.00000000000E+00 -0.00000000000E+00 -0.27801609904E+03  0.27801899976E+03  0.12700000000E+01 0.  1.
         25    2    1    2    0    0  0.45168817511E+02 -0.37977516376E+02 -0.20893487902E+03  0.25052171273E+03  0.12499932421E+03 0.  0.
    9000005    1    3    3    0    0 -0.20846016337E+02  0.34416284499E+02 -0.61263308216E+02  0.73302318991E+02  0.10000000000E+01 0.  0.
    9000005    1    3    3    0    0  0.66014833847E+02 -0.72393800876E+02 -0.14767157080E+03  0.17721939374E+03  0.10000000000E+01 0.  0.
         -4    1    1    2    0  502 -0.45168817511E+02  0.37977516376E+02 -0.30251457997E+02  0.66327049055E+02  0.12700000000E+01 0. -1.
<mgrwt>
<rscale>  1 0.13822932E+03</rscale>
<asrwt>0</asrwt>
<pdfrwt beam="1">  1       21 0.59738094E-02 0.13822932E+03</pdfrwt>
<pdfrwt beam="2">  1       -4 0.42773529E-01 0.13822932E+03</pdfrwt>
<totfact> 0.42872019E+04</totfact>
</mgrwt>
</event>
<event>
 6    4  0.6325740E-003  0.1271757E+03  0.7818608E-02  0.1231708E+00
          4   -1    0    0  502    0 -0.00000000000E+00  0.00000000000E+00  0.46158957005E+02  0.46176424849E+02  0.12700000000E+01 0. -1.
         21   -1    0    0  501  502  0.00000000000E+00 -0.00000000000E+00 -0.16973117169E+03  0.16973117169E+03  0.00000000000E+00 0.  1.
         25    2    1    2    0    0  0.16956784884E+00 -0.23420840235E+02 -0.46605988923E+02  0.13544656673E+03  0.12500035889E+03 0.  0.
    9000005    1    3    3    0    0  0.21162016447E+02 -0.45282984286E+02 -0.77454941418E+02  0.92188109624E+02  0.10000000000E+01 0.  0.
    9000005    1    3    3    0    0 -0.20992448598E+02  0.21862144051E+02  0.30848952496E+02  0.43258457101E+02  0.10000000000E+01 0.  0.
          4    1    1    2  501    0 -0.16956784884E+00  0.23420840235E+02 -0.76966225761E+02  0.80461029812E+02  0.12700000000E+01 0.  1.
<mgrwt>
<rscale>  1 0.12717568E+03</rscale>
<asrwt>0</asrwt>
<pdfrwt beam="2">  1       21 0.26112488E-01 0.12717568E+03</pdfrwt>
<pdfrwt beam="1">  1        4 0.71030872E-02 0.12717568E+03</pdfrwt>
<totfact> 0.75299002E+04</totfact>
</mgrwt>
</event>
<event>
 6    4  0.6325740E-003  0.1273656E+03  0.7818608E-02  0.1231418E+00
         21   -1    0    0  501  502  0.00000000000E+00  0.00000000000E+00  0.48773678799E+03  0.48773678799E+03  0.00000000000E+00 0.  1.
          4   -1    0    0  502    0 -0.00000000000E+00 -0.00000000000E+00 -0.12253377640E+02  0.12319016340E+02  0.12700000000E+01 0.  1.
         25    2    1    2    0    0  0.27033262806E+01  0.24161783529E+02  0.35549452505E+03  0.37762196403E+03  0.12502356025E+03 0.  0.
    9000005    1    3    3    0    0  0.51450257162E+02 -0.24206909628E+02  0.12985497535E+03  0.14176183570E+03  0.10000000000E+01 0.  0.
    9000005    1    3    3    0    0 -0.48746930881E+02  0.48368693157E+02  0.22563954970E+03  0.23586012833E+03  0.10000000000E+01 0.  0.
          4    1    1    2  501    0 -0.27033262806E+01 -0.24161783529E+02  0.11998888529E+03  0.12243384030E+03  0.12700000000E+01 0. -1.
<mgrwt>
<rscale>  1 0.12736558E+03</rscale>
<asrwt>0</asrwt>
<pdfrwt beam="1">  1       21 0.75036414E-01 0.12736558E+03</pdfrwt>
<pdfrwt beam="2">  1        4 0.18903117E-02 0.12736558E+03</pdfrwt>
<totfact> 0.71379114E+04</totfact>
</mgrwt>
</event>
<event>
 6    4  0.6325740E-003  0.1336773E+03  0.7818608E-02  0.1222099E+00
         21   -1    0    0  501  502  0.00000000000E+00  0.00000000000E+00  0.21464116568E+02  0.21464116568E+02  0.00000000000E+00 0.  1.
          4   -1    0    0  502    0 -0.00000000000E+00 -0.00000000000E+00 -0.48042126621E+03  0.48042294484E+03  0.12700000000E+01 0.  1.
         25    2    1    2    0    0  0.16936900131E+01  0.47344933753E+02 -0.41929367165E+03  0.44008725781E+03  0.12500080025E+03 0.  0.
    9000005    1    3    3    0    0  0.10164991490E+02  0.41350342772E+02 -0.33594729314E+02  0.54247430696E+02  0.10000000000E+01 0.  0.
    9000005    1    3    3    0    0 -0.84713014768E+01  0.59945909804E+01 -0.38569894234E+03  0.38583982712E+03  0.10000000000E+01 0.  0.
          4    1    1    2  501    0 -0.16936900131E+01 -0.47344933753E+02 -0.39663477990E+02  0.61799803593E+02  0.12700000000E+01 0. -1.
<mgrwt>
<rscale>  1 0.13367727E+03</rscale>
<asrwt>0</asrwt>
<pdfrwt beam="1">  1       21 0.33021717E-02 0.13367727E+03</pdfrwt>
<pdfrwt beam="2">  1        4 0.73913985E-01 0.13367727E+03</pdfrwt>
<totfact> 0.36903268E+04</totfact>
</mgrwt>
</event>
<event>
 6    4  0.6325740E-003  0.1394682E+03  0.7818608E-02  0.1214046E+00
         21   -1    0    0  501  502  0.00000000000E+00  0.00000000000E+00  0.90532025202E+03  0.90532025202E+03  0.00000000000E+00 0.  1.
          4   -1    0    0  502    0 -0.00000000000E+00 -0.00000000000E+00 -0.33918986799E+02  0.33942754241E+02  0.12700000000E+01 0. -1.
         25    2    1    2    0    0 -0.49642041704E+02  0.36948676992E+02  0.11620676910E+03  0.18153622376E+03  0.12498740064E+03 0.  0.
    9000005    1    3    3    0    0 -0.14029319319E+02  0.54809972082E+02  0.12802062993E+03  0.13996869839E+03  0.10000000000E+01 0.  0.
    9000005    1    3    3    0    0 -0.35612722385E+02 -0.17861295090E+02 -0.11813860836E+02  0.41567525375E+02  0.10000000000E+01 0.  0.
          4    1    1    2  501    0  0.49642041704E+02 -0.36948676992E+02  0.75519449612E+03  0.75772678249E+03  0.12700000000E+01 0.  1.
<mgrwt>
<rscale>  1 0.13946823E+03</rscale>
<asrwt>0</asrwt>
<pdfrwt beam="1">  1       21 0.13928002E+00 0.13946823E+03</pdfrwt>
<pdfrwt beam="2">  1        4 0.52202031E-02 0.13946823E+03</pdfrwt>
<totfact> 0.33843615E+03</totfact>
</mgrwt>
</event>
<event>
 6    4  0.6325740E-003  0.1398942E+03  0.7818608E-02  0.1213471E+00
         21   -1    0    0  501  502  0.00000000000E+00  0.00000000000E+00  0.50288853429E+03  0.50288853429E+03  0.00000000000E+00 0.  1.
         -4   -1    0    0    0  501 -0.00000000000E+00 -0.00000000000E+00 -0.25303769690E+02  0.25335620390E+02  0.12700000000E+01 0.  1.
         25    2    1    2    0    0  0.23819867620E+02  0.58090901654E+02  0.20289958506E+03  0.24645208419E+03  0.12501379618E+03 0.  0.
    9000005    1    3    3    0    0  0.33889369689E+02  0.60633734338E+02  0.34201734412E+02  0.77431891069E+02  0.10000000000E+01 0.  0.
    9000005    1    3    3    0    0 -0.10069502069E+02 -0.25428326843E+01  0.16869785065E+03  0.16902019312E+03  0.10000000000E+01 0.  0.
         -4    1    1    2    0  502 -0.23819867620E+02 -0.58090901654E+02  0.27468517954E+03  0.28177207048E+03  0.12700000000E+01 0. -1.
<mgrwt>
<rscale>  1 0.13989420E+03</rscale>
<asrwt>0</asrwt>
<pdfrwt beam="1">  1       21 0.77367459E-01 0.13989420E+03</pdfrwt>
<pdfrwt beam="2">  1       -4 0.38954614E-02 0.13989420E+03</pdfrwt>
<totfact> 0.21789020E+04</totfact>
</mgrwt>
</event>
<event>
 6    4  0.6325740E-003  0.1276274E+03  0.7818608E-02  0.1231019E+00
          4   -1    0    0  502    0 -0.00000000000E+00  0.00000000000E+00  0.38177659740E+02  0.38198777510E+02  0.12700000000E+01 0.  1.
         21   -1    0    0  501  502  0.00000000000E+00 -0.00000000000E+00 -0.48483191023E+03  0.48483191023E+03  0.00000000000E+00 0. -1.
         25    2    1    2    0    0  0.15663345240E+02  0.20439034813E+02 -0.70132670898E+02  0.14562744540E+03  0.12500266717E+03 0.  0.
    9000005    1    3    3    0    0 -0.18932663640E+01  0.51983630936E+02 -0.90334710558E+02  0.10424606599E+03  0.10000000000E+01 0.  0.
    9000005    1    3    3    0    0  0.17556611604E+02 -0.31544596123E+02  0.20202039661E+02  0.41381379412E+02  0.10000000000E+01 0.  0.
          4    1    1    2  501    0 -0.15663345240E+02 -0.20439034813E+02 -0.37652157959E+03  0.37740324234E+03  0.12700000000E+01 0. -1.
<mgrwt>
<rscale>  1 0.12762743E+03</rscale>
<asrwt>0</asrwt>
<pdfrwt beam="2">  1       21 0.74589531E-01 0.12762743E+03</pdfrwt>
<pdfrwt beam="1">  1        4 0.58752380E-02 0.12762743E+03</pdfrwt>
<totfact> 0.12138701E+04</totfact>
</mgrwt>
</event>
<event>
 6    4  0.6325740E-003  0.1301714E+03  0.7818608E-02  0.1227202E+00
         -4   -1    0    0    0  501 -0.00000000000E+00  0.00000000000E+00  0.40863259907E+02  0.40882990476E+02  0.12700000000E+01 0. -1.
         21   -1    0    0  501  502  0.00000000000E+00 -0.00000000000E+00 -0.23459689722E+03  0.23459689722E+03  0.00000000000E+00 0.  1.
         25    2    1    2    0    0 -0.35083231899E+02  0.94078229527E+01 -0.72678378480E+02  0.14908634006E+03  0.12500099920E+03 0.  0.
    9000005    1    3    3    0    0  0.35268558993E+02 -0.10976632123E+02 -0.65859817484E+02  0.75517370619E+02  0.10000000000E+01 0.  0.
    9000005    1    3    3    0    0 -0.70351790891E+02  0.20384455076E+02 -0.68185609954E+01  0.73568969439E+02  0.10000000000E+01 0.  0.
         -4    1    1    2    0  502  0.35083231899E+02 -0.94078229527E+01 -0.12105525883E+03  0.12639354764E+03  0.12700000000E+01 0.  1.
<mgrwt>
<rscale>  1 0.13017139E+03</rscale>
<asrwt>0</asrwt>
<pdfrwt beam="2">  1       21 0.36091829E-01 0.13017139E+03</pdfrwt>
<pdfrwt beam="1">  1       -4 0.62884377E-02 0.13017139E+03</pdfrwt>
<totfact> 0.49274681E+04</totfact>
</mgrwt>
</event>
<event>
 6    4  0.6325740E-003  0.1276031E+03  0.7818608E-02  0.1231056E+00
         21   -1    0    0  501  502  0.00000000000E+00  0.00000000000E+00  0.25276146996E+02  0.25276146996E+02  0.00000000000E+00 0. -1.
         -4   -1    0    0    0  501 -0.00000000000E+00 -0.00000000000E+00 -0.30941049337E+03  0.30941309977E+03  0.12700000000E+01 0. -1.
         25    2    1    2    0    0  0.25624782265E+02 -0.11389091930E+01 -0.28125385523E+03  0.30884670994E+03  0.12499853031E+03 0.  0.
    9000005    1    3    3    0    0 -0.31012806395E+02  0.44865133866E+02 -0.12572808607E+03  0.13705190996E+03  0.10000000000E+01 0.  0.
    9000005    1    3    3    0    0  0.56637588660E+02 -0.46004043059E+02 -0.15552576916E+03  0.17179479998E+03  0.10000000000E+01 0.  0.
         -4    1    1    2    0  502 -0.25624782265E+02  0.11389091930E+01 -0.28804911450E+01  0.25842536824E+02  0.12700000000E+01 0.  1.
<mgrwt>
<rscale>  1 0.12760313E+03</rscale>
<asrwt>0</asrwt>
<pdfrwt beam="1">  1       21 0.38886379E-02 0.12760313E+03</pdfrwt>
<pdfrwt beam="2">  1       -4 0.47604270E-01 0.12760313E+03</pdfrwt>
<totfact> 0.70371219E+04</totfact>
</mgrwt>
</event>
<event>
 6    4  0.6325740E-003  0.1286343E+03  0.7818608E-02  0.1229496E+00
          4   -1    0    0  502    0 -0.00000000000E+00  0.00000000000E+00  0.25978748882E+03  0.25979059306E+03  0.12700000000E+01 0.  1.
         21   -1    0    0  501  502  0.00000000000E+00 -0.00000000000E+00 -0.52364742238E+02  0.52364742238E+02  0.00000000000E+00 0. -1.
         25    2    1    2    0    0 -0.24579371809E+02 -0.17781981333E+02  0.23706871991E+03  0.26971901815E+03  0.12500570551E+03 0.  0.
    9000005    1    3    3    0    0 -0.74071169566E+02 -0.22832548778E+02  0.16293009998E+03  0.18043026609E+03  0.10000000000E+01 0.  0.
    9000005    1    3    3    0    0  0.49491797757E+02  0.50505674442E+01  0.74138619939E+02  0.89288752053E+02  0.10000000000E+01 0.  0.
          4    1    1    2  501    0  0.24579371809E+02  0.17781981333E+02 -0.29645973337E+02  0.42436317156E+02  0.12700000000E+01 0. -1.
<mgrwt>
<rscale>  1 0.12863425E+03</rscale>
<asrwt>0</asrwt>
<pdfrwt beam="2">  1       21 0.80561144E-02 0.12863425E+03</pdfrwt>
<pdfrwt beam="1">  1        4 0.39968729E-01 0.12863425E+03</pdfrwt>
<totfact> 0.29138351E+04</totfact>
</mgrwt>
</event>
<event>
 6    4  0.6325740E-003  0.1281354E+03  0.7818608E-02  0.1230249E+00
         21   -1    0    0  501  502  0.00000000000E+00  0.00000000000E+00  0.75948774851E+02  0.75948774851E+02  0.00000000000E+00 0. -1.
          4   -1    0    0  502    0 -0.00000000000E+00 -0.00000000000E+00 -0.12911199239E+03  0.12911823837E+03  0.12700000000E+01 0. -1.
         25    2    1    2    0    0  0.19951239197E+02 -0.19894813944E+02 -0.91515717153E+02  0.15746047276E+03  0.12499927372E+03 0.  0.
    9000005    1    3    3    0    0  0.65670944713E+02  0.16686261696E+02 -0.62145441802E+02  0.91946507522E+02  0.10000000000E+01 0.  0.
    9000005    1    3    3    0    0 -0.45719705516E+02 -0.36581075640E+02 -0.29370275351E+02  0.65513965242E+02  0.10000000000E+01 0.  0.
          4    1    1    2  501    0 -0.19951239197E+02  0.19894813944E+02  0.38352499614E+02  0.47606540454E+02  0.12700000000E+01 0.  1.
<mgrwt>
<rscale>  1 0.12813537E+03</rscale>
<asrwt>0</asrwt>
<pdfrwt beam="1">  1       21 0.11684427E-01 0.12813537E+03</pdfrwt>
<pdfrwt beam="2">  1        4 0.19864680E-01 0.12813537E+03</pdfrwt>
<totfact> 0.56444387E+04</totfact>
</mgrwt>
</event>
<event>
 6    4  0.6325740E-003  0.1328138E+03  0.7818608E-02  0.1223339E+00
         21   -1    0    0  501  502  0.00000000000E+00  0.00000000000E+00  0.89165928144E+02  0.89165928144E+02  0.00000000000E+00 0. -1.
         -4   -1    0    0    0  501 -0.00000000000E+00 -0.00000000000E+00 -0.12424888762E+03  0.12425537805E+03  0.12700000000E+01 0.  1.
         25    2    1    2    0    0 -0.34058491589E+02  0.29242922056E+02 -0.75697665750E+02  0.15287135487E+03  0.12499754077E+03 0.  0.
    9000005    1    3    3    0    0  0.38052294426E+02  0.37272202264E+02 -0.56827572963E+02  0.77894590451E+02  0.10000000000E+01 0.  0.
    9000005    1    3    3    0    0 -0.72110786015E+02 -0.80292802087E+01 -0.18870092788E+02  0.74976764415E+02  0.10000000000E+01 0.  0.
         -4    1    1    2    0  502  0.34058491589E+02 -0.29242922056E+02  0.40614706277E+02  0.60549951327E+02  0.12700000000E+01 0. -1.
<mgrwt>
<rscale>  1 0.13281383E+03</rscale>
<asrwt>0</asrwt>
<pdfrwt beam="1">  1       21 0.13717835E-01 0.13281383E+03</pdfrwt>
<pdfrwt beam="2">  1       -4 0.19116408E-01 0.13281383E+03</pdfrwt>
<totfact> 0.45655357E+04</totfact>
</mgrwt>
</event>
<event>
 6    4  0.6325740E-003  0.1273894E+03  0.7818608E-02  0.1231382E+00
         -4   -1    0    0    0  501 -0.00000000000E+00  0.00000000000E+00  0.55491815299E+02  0.55506346171E+02  0.12700000000E+01 0.  1.
         21   -1    0    0  501  502  0.00000000000E+00 -0.00000000000E+00 -0.10808465273E+03  0.10808465273E+03  0.00000000000E+00 0.  1.
         25    2    1    2    0    0 -0.54642030413E+01 -0.23954891473E+02 -0.31603149568E+02  0.13125101997E+03  0.12499750734E+03 0.  0.
    9000005    1    3    3    0    0  0.23362537748E+02 -0.52148437041E+02  0.24477201109E+02  0.62172349400E+02  0.10000000000E+01 0.  0.
    9000005    1    3    3    0    0 -0.28826740790E+02  0.28193545568E+02 -0.56080350677E+02  0.69078670574E+02  0.10000000000E+01 0.  0.
         -4    1    1    2    0  502  0.54642030413E+01  0.23954891473E+02 -0.20989687862E+02  0.32339978925E+02  0.12700000000E+01 0. -1.
<mgrwt>
<rscale>  1 0.12738945E+03</rscale>
<asrwt>0</asrwt>
<pdfrwt beam="2">  1       21 0.16628408E-01 0.12738945E+03</pdfrwt>
<pdfrwt beam="1">  1       -4 0.85388941E-02 0.12738945E+03</pdfrwt>
<totfact> 0.12841826E+05</totfact>
</mgrwt>
</event>
<event>
 6    4  0.6325740E-003  0.1296548E+03  0.7818608E-02  0.1227969E+00
         -4   -1    0    0    0  501 -0.00000000000E+00  0.00000000000E+00  0.58141723606E+02  0.58155592370E+02  0.12700000000E+01 0. -1.
         21   -1    0    0  501  502  0.00000000000E+00 -0.00000000000E+00 -0.21046461573E+03  0.21046461573E+03  0.00000000000E+00 0.  1.
         25    2    1    2    0    0  0.33167026405E+02 -0.91420366462E+01 -0.19140446118E+02  0.13106002019E+03  0.12500697476E+03 0.  0.
    9000005    1    3    3    0    0  0.21929742836E+02  0.12128464053E+02 -0.70233973787E+02  0.74577639645E+02  0.10000000000E+01 0.  0.
    9000005    1    3    3    0    0  0.11237283569E+02 -0.21270500699E+02  0.51093527669E+02  0.56482380542E+02  0.10000000000E+01 0.  0.
         -4    1    1    2    0  502 -0.33167026405E+02  0.91420366462E+01 -0.13318244600E+03  0.13756018791E+03  0.12700000000E+01 0.  1.
<mgrwt>
<rscale>  1 0.12965482E+03</rscale>
<asrwt>0</asrwt>
<pdfrwt beam="2">  1       21 0.32379172E-01 0.12965482E+03</pdfrwt>
<pdfrwt beam="1">  1       -4 0.89462420E-02 0.12965482E+03</pdfrwt>
<totfact> 0.34078859E+04</totfact>
</mgrwt>
</event>
<event>
 6    4  0.6325740E-003  0.1437168E+03  0.7818608E-02  0.1208413E+00
         21   -1    0    0  501  502  0.00000000000E+00  0.00000000000E+00  0.54938078586E+02  0.54938078586E+02  0.00000000000E+00 0.  1.
         -4   -1    0    0    0  501 -0.00000000000E+00 -0.00000000000E+00 -0.24787281706E+03  0.24787607052E+03  0.12700000000E+01 0. -1.
         25    2    1    2    0    0 -0.69460520457E+02  0.14315069284E+02 -0.18062153354E+03  0.23082169793E+03  0.12499933099E+03 0.  0.
    9000005    1    3    3    0    0  0.24530103541E+02  0.88654450163E+01  0.11340110443E+01  0.26126769339E+02  0.10000000000E+01 0.  0.
    9000005    1    3    3    0    0 -0.93990623998E+02  0.54496242681E+01 -0.18175554458E+03  0.20469492859E+03  0.10000000000E+01 0.  0.
         -4    1    1    2    0  502  0.69460520457E+02 -0.14315069284E+02 -0.12313204936E+02  0.71992451177E+02  0.12700000000E+01 0.  1.
<mgrwt>
<rscale>  1 0.14371680E+03</rscale>
<asrwt>0</asrwt>
<pdfrwt beam="1">  1       21 0.84520122E-02 0.14371680E+03</pdfrwt>
<pdfrwt beam="2">  1       -4 0.38135659E-01 0.14371680E+03</pdfrwt>
<totfact> 0.29770059E+04</totfact>
</mgrwt>
</event>
<event>
 6    4  0.6325740E-003  0.1419699E+03  0.7818608E-02  0.1210703E+00
         -4   -1    0    0    0  501 -0.00000000000E+00  0.00000000000E+00  0.12897088410E+04  0.12897094663E+04  0.12700000000E+01 0.  1.
         21   -1    0    0  501  502  0.00000000000E+00 -0.00000000000E+00 -0.12772079911E+02  0.12772079911E+02  0.00000000000E+00 0. -1.
         25    2    1    2    0    0  0.94673819811E+01  0.66620717732E+02  0.11506980723E+04  0.11594229191E+04  0.12501000081E+03 0.  0.
    9000005    1    3    3    0    0 -0.29768843526E+02  0.22095125789E+02  0.93420160881E+03  0.93493744418E+03  0.10000000000E+01 0.  0.
    9000005    1    3    3    0    0  0.39236225507E+02  0.44525591943E+02  0.21649646350E+03  0.22448547490E+03  0.10000000000E+01 0.  0.
         -4    1    1    2    0  502 -0.94673819811E+01 -0.66620717732E+02  0.12623868878E+03  0.14305862714E+03  0.12700000000E+01 0. -1.
<mgrwt>
<rscale>  1 0.14196990E+03</rscale>
<asrwt>0</asrwt>
<pdfrwt beam="2">  1       21 0.19649364E-02 0.14196990E+03</pdfrwt>
<pdfrwt beam="1">  1       -4 0.19842155E+00 0.14196990E+03</pdfrwt>
<totfact> 0.77724257E+03</totfact>
</mgrwt>
</event>
<event>
 6    4  0.6325740E-003  0.2586493E+03  0.7818608E-02  0.1107957E+00
         21   -1    0    0  501  502  0.00000000000E+00  0.00000000000E+00  0.20598709683E+03  0.20598709683E+03  0.00000000000E+00 0. -1.
          4   -1    0    0  502    0 -0.00000000000E+00 -0.00000000000E+00 -0.50200364025E+03  0.50200524671E+03  0.12700000000E+01 0.  1.
         25    2    1    2    0    0 -0.22458605369E+03  0.28889512272E+02 -0.38573556686E+03  0.46442589368E+03  0.12500393495E+03 0.  0.
    9000005    1    3    3    0    0 -0.57474027313E+01  0.36647624724E+02 -0.81777568245E+02  0.89803405861E+02  0.10000000000E+01 0.  0.
    9000005    1    3    3    0    0 -0.21883865096E+03 -0.77581124523E+01 -0.30395799861E+03  0.37462248782E+03  0.10000000000E+01 0.  0.
          4    1    1    2  501    0  0.22458605369E+03 -0.28889512272E+02  0.89719023437E+02  0.24356644986E+03  0.12700000000E+01 0. -1.
<mgrwt>
<rscale>  1 0.25864934E+03</rscale>
<asrwt>0</asrwt>
<pdfrwt beam="1">  1       21 0.31690322E-01 0.25864934E+03</pdfrwt>
<pdfrwt beam="2">  1        4 0.77231754E-01 0.25864934E+03</pdfrwt>
<totfact> 0.61695365E+02</totfact>
</mgrwt>
</event>
<event>
 6    4  0.6325740E-003  0.1271362E+03  0.7818608E-02  0.1231768E+00
         21   -1    0    0  501  502  0.00000000000E+00  0.00000000000E+00  0.17597765149E+02  0.17597765149E+02  0.00000000000E+00 0. -1.
         -4   -1    0    0    0  501 -0.00000000000E+00 -0.00000000000E+00 -0.32175940030E+03  0.32176190667E+03  0.12700000000E+01 0. -1.
         25    2    1    2    0    0  0.21303980699E+02  0.91522136947E+01 -0.25162209096E+03  0.28191718568E+03  0.12500400120E+03 0.  0.
    9000005    1    3    3    0    0 -0.26290934571E+02  0.49239999915E+02 -0.17214839731E+03  0.18097475384E+03  0.10000000000E+01 0.  0.
    9000005    1    3    3    0    0  0.47594915270E+02 -0.40087786220E+02 -0.79473693652E+02  0.10094243184E+03  0.10000000000E+01 0.  0.
         -4    1    1    2    0  502 -0.21303980699E+02 -0.91522136947E+01 -0.52539544193E+02  0.57442486133E+02  0.12700000000E+01 0.  1.
<mgrwt>
<rscale>  1 0.12713624E+03</rscale>
<asrwt>0</asrwt>
<pdfrwt beam="1">  1       21 0.27073482E-02 0.12713624E+03</pdfrwt>
<pdfrwt beam="2">  1       -4 0.49505169E-01 0.12713624E+03</pdfrwt>
<totfact> 0.11788048E+05</totfact>
</mgrwt>
</event>
<event>
 6    4  0.6325740E-003  0.1284420E+03  0.7818608E-02  0.1229786E+00
         21   -1    0    0  501  502  0.00000000000E+00  0.00000000000E+00  0.15001038730E+04  0.15001038730E+04  0.00000000000E+00 0.  1.
          4   -1    0    0  502    0 -0.00000000000E+00 -0.00000000000E+00 -0.72175912255E+01  0.73284734494E+01  0.12700000000E+01 0. -1.
         25    2    1    2    0    0  0.17937753913E+02  0.23485518030E+02  0.57933816348E+03  0.59340548147E+03  0.12499610073E+03 0.  0.
    9000005    1    3    3    0    0  0.21816414118E+01 -0.50029599817E+02  0.17026330088E+03  0.17747763816E+03  0.10000000000E+01 0.  0.
    9000005    1    3    3    0    0  0.15756112501E+02  0.73515117847E+02  0.40907486260E+03  0.41592784331E+03  0.10000000000E+01 0.  0.
          4    1    1    2  501    0 -0.17937753913E+02 -0.23485518030E+02  0.91354811824E+03  0.91402686493E+03  0.12700000000E+01 0.  1.
<mgrwt>
<rscale>  1 0.12844204E+03</rscale>
<asrwt>0</asrwt>
<pdfrwt beam="1">  1       21 0.23078496E+00 0.12844204E+03</pdfrwt>
<pdfrwt beam="2">  1        4 0.11189706E-02 0.12844204E+03</pdfrwt>
<totfact> 0.90586023E+03</totfact>
</mgrwt>
</event>
<event>
 6    4  0.6325740E-003  0.1285168E+03  0.7818608E-02  0.1229673E+00
         21   -1    0    0  501  502  0.00000000000E+00  0.00000000000E+00  0.14544568498E+02  0.14544568498E+02  0.00000000000E+00 0.  1.
         -4   -1    0    0    0  501 -0.00000000000E+00 -0.00000000000E+00 -0.45445629753E+03  0.45445807207E+03  0.12700000000E+01 0.  1.
         25    2    1    2    0    0  0.21968571333E+02  0.20217990807E+02 -0.39205951272E+03  0.41258604031E+03  0.12500077544E+03 0.  0.
    9000005    1    3    3    0    0  0.38619243584E+02 -0.42112401661E+02 -0.11906110680E+03  0.13206607248E+03  0.10000000000E+01 0.  0.
    9000005    1    3    3    0    0 -0.16650672251E+02  0.62330392468E+02 -0.27299840593E+03  0.28051996783E+03  0.10000000000E+01 0.  0.
         -4    1    1    2    0  502 -0.21968571333E+02 -0.20217990807E+02 -0.47852216312E+02  0.56416600258E+02  0.12700000000E+01 0. -1.
<mgrwt>
<rscale>  1 0.12851684E+03</rscale>
<asrwt>0</asrwt>
<pdfrwt beam="1">  1       21 0.22376260E-02 0.12851684E+03</pdfrwt>
<pdfrwt beam="2">  1       -4 0.69920754E-01 0.12851684E+03</pdfrwt>
<totfact> 0.78194214E+04</totfact>
</mgrwt>
</event>
<event>
 6    4  0.6325740E-003  0.1293277E+03  0.7818608E-02  0.1228457E+00
         -4   -1    0    0    0  501 -0.00000000000E+00  0.00000000000E+00  0.34326381557E+03  0.34326616492E+03  0.12700000000E+01 0. -1.
         21   -1    0    0  501  502  0.00000000000E+00 -0.00000000000E+00 -0.19881224315E+02  0.19881224315E+02  0.00000000000E+00 0. -1.
         25    2    1    2    0    0 -0.30831840262E+02 -0.12259320088E+02  0.22766116000E+03  0.26183056632E+03  0.12499899354E+03 0.  0.
    9000005    1    3    3    0    0  0.35632641250E+02 -0.73834470623E+01  0.15712947575E+02  0.39649680130E+02  0.10000000000E+01 0.  0.
    9000005    1    3    3    0    0 -0.66464481512E+02 -0.48758730258E+01  0.21194821242E+03  0.22218088619E+03  0.10000000000E+01 0.  0.
         -4    1    1    2    0  502  0.30831840262E+02  0.12259320088E+02  0.95721431255E+02  0.10131682291E+03  0.12700000000E+01 0.  1.
<mgrwt>
<rscale>  1 0.12932765E+03</rscale>
<asrwt>0</asrwt>
<pdfrwt beam="2">  1       21 0.30586502E-02 0.12932765E+03</pdfrwt>
<pdfrwt beam="1">  1       -4 0.52813114E-01 0.12932765E+03</pdfrwt>
<totfact> 0.84814404E+04</totfact>
</mgrwt>
</event>
<event>
 6    4  0.6325740E-003  0.1722645E+03  0.7818608E-02  0.1175507E+00
         -4   -1    0    0    0  501 -0.00000000000E+00  0.00000000000E+00  0.10427233256E+03  0.10428006635E+03  0.12700000000E+01 0. -1.
         21   -1    0    0  501  502  0.00000000000E+00 -0.00000000000E+00 -0.20834884845E+03  0.20834884845E+03  0.00000000000E+00 0. -1.
         25    2    1    2    0    0  0.11355731201E+03  0.34007450247E+02 -0.36206397852E+02  0.17602827203E+03  0.12499311791E+03 0.  0.
    9000005    1    3    3    0    0  0.83484424123E+02  0.39598192771E+01  0.36968638152E+02  0.91394799889E+02  0.10000000000E+01 0.  0.
    9000005    1    3    3    0    0  0.30072887884E+02  0.30047630970E+02 -0.73175036003E+02  0.84633472141E+02  0.10000000000E+01 0.  0.
         -4    1    1    2    0  502 -0.11355731201E+03 -0.34007450247E+02 -0.67870118040E+02  0.13660064277E+03  0.12700000000E+01 0.  1.
<mgrwt>
<rscale>  1 0.17226447E+03</rscale>
<asrwt>0</asrwt>
<pdfrwt beam="2">  1       21 0.32053668E-01 0.17226447E+03</pdfrwt>
<pdfrwt beam="1">  1       -4 0.16042790E-01 0.17226447E+03</pdfrwt>
<totfact> 0.13085864E+04</totfact>
</mgrwt>
</event>
<event>
 6    4  0.6325740E-003  0.1334090E+03  0.7818608E-02  0.1222483E+00
         21   -1    0    0  501  502  0.00000000000E+00  0.00000000000E+00  0.52933939502E+02  0.52933939502E+02  0.00000000000E+00 0. -1.
         -4   -1    0    0    0  501 -0.00000000000E+00 -0.00000000000E+00 -0.15747356323E+03  0.15747868432E+03  0.12700000000E+01 0. -1.
         25    2    1    2    0    0 -0.28029354344E+02 -0.37082929809E+02 -0.60940335276E+02  0.14666861045E+03  0.12504866428E+03 0.  0.
    9000005    1    3    3    0    0  0.34294446595E+02 -0.42774267795E+02 -0.63658182343E+02  0.84018517196E+02  0.10000000000E+01 0.  0.
    9000005    1    3    3    0    0 -0.62323800939E+02  0.56913379861E+01  0.27178470672E+01  0.62650093250E+02  0.10000000000E+01 0.  0.
         -4    1    1    2    0  502  0.28029354344E+02  0.37082929809E+02 -0.43599288452E+02  0.63744013379E+02  0.12700000000E+01 0.  1.
<mgrwt>
<rscale>  1 0.13340898E+03</rscale>
<asrwt>0</asrwt>
<pdfrwt beam="1">  1       21 0.81436830E-02 0.13340898E+03</pdfrwt>
<pdfrwt beam="2">  1       -4 0.24228268E-01 0.13340898E+03</pdfrwt>
<totfact> 0.74338261E+04</totfact>
</mgrwt>
</event>
<event>
 6    4  0.6325740E-003  0.1297651E+03  0.7818608E-02  0.1227805E+00
         21   -1    0    0  501  502  0.00000000000E+00  0.00000000000E+00  0.67286586084E+02  0.67286586084E+02  0.00000000000E+00 0.  1.
         -4   -1    0    0    0  501 -0.00000000000E+00 -0.00000000000E+00 -0.30484950808E+03  0.30485215347E+03  0.12700000000E+01 0. -1.
         25    2    1    2    0    0 -0.34016361176E+02  0.76173326724E+01 -0.28506154740E+03  0.31320768747E+03  0.12499533231E+03 0.  0.
    9000005    1    3    3    0    0 -0.25224358288E+00  0.11833631820E+02 -0.27823556119E+03  0.27848900513E+03  0.10000000000E+01 0.  0.
    9000005    1    3    3    0    0 -0.33764117593E+02 -0.42162991479E+01 -0.68259862054E+01  0.34718682334E+02  0.10000000000E+01 0.  0.
         -4    1    1    2    0  502  0.34016361176E+02 -0.76173326724E+01  0.47498625403E+02  0.58931052086E+02  0.12700000000E+01 0.  1.
<mgrwt>
<rscale>  1 0.12976506E+03</rscale>
<asrwt>0</asrwt>
<pdfrwt beam="1">  1       21 0.10351782E-01 0.12976506E+03</pdfrwt>
<pdfrwt beam="2">  1       -4 0.46901051E-01 0.12976506E+03</pdfrwt>
<totfact> 0.13719211E+04</totfact>
</mgrwt>
</event>
<event>
 6    4  0.6325740E-003  0.1267216E+03  0.7818608E-02  0.1232403E+00
         21   -1    0    0  501  502  0.00000000000E+00  0.00000000000E+00  0.67564403918E+02  0.67564403918E+02  0.00000000000E+00 0.  1.
          4   -1    0    0  502    0 -0.00000000000E+00 -0.00000000000E+00 -0.35093662346E+03  0.35093892145E+03  0.12700000000E+01 0. -1.
         25    2    1    2    0    0 -0.37510293497E+01  0.20669865276E+02 -0.33745822256E+03  0.36046693872E+03  0.12496818949E+03 0.  0.
    9000005    1    3    3    0    0  0.17792150121E+02 -0.78019395812E+01  0.16126320434E+01  0.19520026877E+02  0.10000000000E+01 0.  0.
    9000005    1    3    3    0    0 -0.21543179471E+02  0.28471804857E+02 -0.33907085461E+03  0.34094691185E+03  0.10000000000E+01 0.  0.
          4    1    1    2  501    0  0.37510293497E+01 -0.20669865276E+02  0.54086003020E+02  0.58036386642E+02  0.12700000000E+01 0.  1.
<mgrwt>
<rscale>  1 0.12672159E+03</rscale>
<asrwt>0</asrwt>
<pdfrwt beam="1">  1       21 0.10394524E-01 0.12672159E+03</pdfrwt>
<pdfrwt beam="2">  1        4 0.53991343E-01 0.12672159E+03</pdfrwt>
<totfact> 0.10201291E+04</totfact>
</mgrwt>
</event>
<event>
 6    4  0.6325740E-003  0.1393066E+03  0.7818608E-02  0.1214265E+00
         -4   -1    0    0    0  501 -0.00000000000E+00  0.00000000000E+00  0.21318544296E+02  0.21356339361E+02  0.12700000000E+01 0.  1.
         21   -1    0    0  501  502  0.00000000000E+00 -0.00000000000E+00 -0.73230405928E+03  0.73230405928E+03  0.00000000000E+00 0. -1.
         25    2    1    2    0    0  0.36335498147E+02  0.49618059595E+02 -0.23103589063E+03  0.26978492387E+03  0.12499640846E+03 0.  0.
    9000005    1    3    3    0    0  0.62230991651E+02  0.62097840828E+02 -0.22332197870E+03  0.24000530063E+03  0.10000000000E+01 0.  0.
    9000005    1    3    3    0    0 -0.25895493504E+02 -0.12479781233E+02 -0.77139119251E+01  0.29779623245E+02  0.10000000000E+01 0.  0.
         -4    1    1    2    0  502 -0.36335498147E+02 -0.49618059595E+02 -0.47994962436E+03  0.48387547477E+03  0.12700000000E+01 0. -1.
<mgrwt>
<rscale>  1 0.13930658E+03</rscale>
<asrwt>0</asrwt>
<pdfrwt beam="2">  1       21 0.11266215E+00 0.13930658E+03</pdfrwt>
<pdfrwt beam="1">  1       -4 0.32827684E-02 0.13930658E+03</pdfrwt>
<totfact> 0.11966181E+04</totfact>
</mgrwt>
</event>
<event>
 6    4  0.6325740E-003  0.1270179E+03  0.7818608E-02  0.1231949E+00
         -4   -1    0    0    0  501 -0.00000000000E+00  0.00000000000E+00  0.18654247693E+03  0.18654680002E+03  0.12700000000E+01 0.  1.
         21   -1    0    0  501  502  0.00000000000E+00 -0.00000000000E+00 -0.38133459076E+02  0.38133459076E+02  0.00000000000E+00 0.  1.
         25    2    1    2    0    0 -0.22295429503E+02  0.34053216977E+01  0.15570479374E+03  0.20094160626E+03  0.12499945577E+03 0.  0.
    9000005    1    3    3    0    0 -0.77973477020E+01  0.17794525265E+02 -0.17720506735E+02  0.26314636983E+02  0.10000000000E+01 0.  0.
    9000005    1    3    3    0    0 -0.14498081801E+02 -0.14389203568E+02  0.17342530048E+03  0.17462696928E+03  0.10000000000E+01 0.  0.
         -4    1    1    2    0  502  0.22295429503E+02 -0.34053216977E+01 -0.72957758872E+01  0.23738652834E+02  0.12700000000E+01 0. -1.
<mgrwt>
<rscale>  1 0.12701790E+03</rscale>
<asrwt>0</asrwt>
<pdfrwt beam="2">  1       21 0.58666861E-02 0.12701790E+03</pdfrwt>
<pdfrwt beam="1">  1       -4 0.28700801E-01 0.12701790E+03</pdfrwt>
<totfact> 0.94434486E+04</totfact>
</mgrwt>
</event>
<event>
 6    4  0.6325740E-003  0.1266287E+03  0.7818608E-02  0.1232546E+00
         21   -1    0    0  501  502  0.00000000000E+00  0.00000000000E+00  0.18575990324E+02  0.18575990324E+02  0.00000000000E+00 0.  1.
          4   -1    0    0  502    0 -0.00000000000E+00 -0.00000000000E+00 -0.29179018919E+03  0.29179295297E+03  0.12700000000E+01 0.  1.
         25    2    1    2    0    0 -0.38836147799E+01  0.19856645261E+02 -0.24243295818E+03  0.27351156273E+03  0.12500186762E+03 0.  0.
    9000005    1    3    3    0    0  0.24202589130E+02 -0.39576423792E+01 -0.23456266117E+03  0.23584331720E+03  0.10000000000E+01 0.  0.
    9000005    1    3    3    0    0 -0.28086203910E+02  0.23814287640E+02 -0.78702970123E+01  0.37668245525E+02  0.10000000000E+01 0.  0.
          4    1    1    2  501    0  0.38836147799E+01 -0.19856645261E+02 -0.30781240681E+02  0.36857380573E+02  0.12700000000E+01 0. -1.
<mgrwt>
<rscale>  1 0.12662873E+03</rscale>
<asrwt>0</asrwt>
<pdfrwt beam="1">  1       21 0.28578448E-02 0.12662873E+03</pdfrwt>
<pdfrwt beam="2">  1        4 0.44894348E-01 0.12662873E+03</pdfrwt>
<totfact> 0.13132449E+05</totfact>
</mgrwt>
</event>
<event>
 6    4  0.6325740E-003  0.1329284E+03  0.7818608E-02  0.1223174E+00
         21   -1    0    0  501  502  0.00000000000E+00  0.00000000000E+00  0.46775968468E+03  0.46775968468E+03  0.00000000000E+00 0.  1.
          4   -1    0    0  502    0 -0.00000000000E+00 -0.00000000000E+00 -0.22347925558E+02  0.22383982594E+02  0.12700000000E+01 0.  1.
         25    2    1    2    0    0 -0.41845262365E+02 -0.17152264771E+02  0.19704740717E+03  0.23769230485E+03  0.12499889977E+03 0.  0.
    9000005    1    3    3    0    0 -0.20045519957E+02 -0.41845838951E+02  0.96287186700E+01  0.47398410639E+02  0.10000000000E+01 0.  0.
    9000005    1    3    3    0    0 -0.21799742409E+02  0.24693574180E+02  0.18741868850E+03  0.19029389421E+03  0.10000000000E+01 0.  0.
          4    1    1    2  501    0  0.41845262365E+02  0.17152264771E+02  0.24836435195E+03  0.25245136243E+03  0.12700000000E+01 0. -1.
<mgrwt>
<rscale>  1 0.13292837E+03</rscale>
<asrwt>0</asrwt>
<pdfrwt beam="1">  1       21 0.71963021E-01 0.13292837E+03</pdfrwt>
<pdfrwt beam="2">  1        4 0.34410490E-02 0.13292837E+03</pdfrwt>
<totfact> 0.30974383E+04</totfact>
</mgrwt>
</event>
<event>
 6    4  0.6325740E-003  0.1331576E+03  0.7818608E-02  0.1222844E+00
         -4   -1    0    0    0  501 -0.00000000000E+00  0.00000000000E+00  0.24446893402E+04  0.24446896701E+04  0.12700000000E+01 0.  1.
         21   -1    0    0  501  502  0.00000000000E+00 -0.00000000000E+00 -0.57587083716E+01  0.57587083716E+01  0.00000000000E+00 0. -1.
         25    2    1    2    0    0 -0.10543623757E+02  0.44663596902E+02  0.23054740777E+04  0.23093162785E+04  0.12499978564E+03 0.  0.
    9000005    1    3    3    0    0  0.27866976214E+02  0.47359513049E+02  0.20686769403E+04  0.20694068655E+04  0.10000000000E+01 0.  0.
    9000005    1    3    3    0    0 -0.38410599970E+02 -0.26959161470E+01  0.23679713742E+03  0.23990941300E+03  0.10000000000E+01 0.  0.
         -4    1    1    2    0  502  0.10543623757E+02 -0.44663596902E+02  0.13345655413E+03  0.14113209993E+03  0.12700000000E+01 0. -1.
<mgrwt>
<rscale>  1 0.13315762E+03</rscale>
<asrwt>0</asrwt>
<pdfrwt beam="2">  1       21 0.88595709E-03 0.13315762E+03</pdfrwt>
<pdfrwt beam="1">  1       -4 0.37611602E+00 0.13315762E+03</pdfrwt>
<totfact> 0.24420661E+03</totfact>
</mgrwt>
</event>
<event>
 6    4  0.6325740E-003  0.1275179E+03  0.7818608E-02  0.1231186E+00
         21   -1    0    0  501  502  0.00000000000E+00  0.00000000000E+00  0.70218471960E+02  0.70218471960E+02  0.00000000000E+00 0. -1.
          4   -1    0    0  502    0 -0.00000000000E+00 -0.00000000000E+00 -0.24387921911E+03  0.24388252585E+03  0.12700000000E+01 0.  1.
         25    2    1    2    0    0 -0.10022004666E+02 -0.23118646311E+02 -0.22402258268E+03  0.25777303172E+03  0.12500362373E+03 0.  0.
    9000005    1    3    3    0    0 -0.24783227527E+02 -0.61040342141E+02 -0.61151713523E+02  0.89892512492E+02  0.10000000000E+01 0.  0.
    9000005    1    3    3    0    0  0.14761222861E+02  0.37921695830E+02 -0.16287086916E+03  0.16788051923E+03  0.10000000000E+01 0.  0.
          4    1    1    2  501    0  0.10022004666E+02  0.23118646311E+02  0.50361835536E+02  0.56327966086E+02  0.12700000000E+01 0. -1.
<mgrwt>
<rscale>  1 0.12751791E+03</rscale>
<asrwt>0</asrwt>
<pdfrwt beam="1">  1       21 0.10802842E-01 0.12751791E+03</pdfrwt>
<pdfrwt beam="2">  1        4 0.37521018E-01 0.12751791E+03</pdfrwt>
<totfact> 0.19764538E+04</totfact>
</mgrwt>
</event>
<event>
 6    4  0.6325740E-003  0.1280109E+03  0.7818608E-02  0.1230437E+00
         -4   -1    0    0    0  501 -0.00000000000E+00  0.00000000000E+00  0.11579885775E+03  0.11580582177E+03  0.12700000000E+01 0.  1.
         21   -1    0    0  501  502  0.00000000000E+00 -0.00000000000E+00 -0.10278675391E+03  0.10278675391E+03  0.00000000000E+00 0. -1.
         25    2    1    2    0    0 -0.10763729209E+02 -0.25407439937E+02  0.76659556428E+02  0.14920953026E+03  0.12500160182E+03 0.  0.
    9000005    1    3    3    0    0  0.53724254752E+02 -0.18236356085E+02  0.12810216197E+02  0.58171830562E+02  0.10000000000E+01 0.  0.
    9000005    1    3    3    0    0 -0.64487983960E+02 -0.71710838523E+01  0.63849340231E+02  0.91037699701E+02  0.10000000000E+01 0.  0.
         -4    1    1    2    0  502  0.10763729209E+02  0.25407439937E+02 -0.63647452588E+02  0.69383045419E+02  0.12700000000E+01 0. -1.
<mgrwt>
<rscale>  1 0.12801092E+03</rscale>
<asrwt>0</asrwt>
<pdfrwt beam="2">  1       21 0.15813347E-01 0.12801092E+03</pdfrwt>
<pdfrwt beam="1">  1       -4 0.17816348E-01 0.12801092E+03</pdfrwt>
<totfact> 0.39891088E+04</totfact>
</mgrwt>
</event>
<event>
 6    4  0.6325740E-003  0.1277346E+03  0.7818608E-02  0.1230856E+00
         -4   -1    0    0    0  501 -0.00000000000E+00  0.00000000000E+00  0.47724317460E+02  0.47741212564E+02  0.12700000000E+01 0. -1.
         21   -1    0    0  501  502  0.00000000000E+00 -0.00000000000E+00 -0.13479436528E+03  0.13479436528E+03  0.00000000000E+00 0.  1.
         25    2    1    2    0    0 -0.45645210799E+01  0.25906486130E+02 -0.50243152497E+02  0.13726070628E+03  0.12499658491E+03 0.  0.
    9000005    1    3    3    0    0 -0.42276347355E+02  0.50054904582E+02 -0.62779737152E+02  0.90747332827E+02  0.10000000000E+01 0.  0.
    9000005    1    3    3    0    0  0.37711826275E+02 -0.24148418453E+02  0.12536584654E+02  0.46513373449E+02  0.10000000000E+01 0.  0.
         -4    1    1    2    0  502  0.45645210799E+01 -0.25906486130E+02 -0.36826895319E+02  0.45274871564E+02  0.12700000000E+01 0.  1.
<mgrwt>
<rscale>  1 0.12773460E+03</rscale>
<asrwt>0</asrwt>
<pdfrwt beam="2">  1       21 0.20737594E-01 0.12773460E+03</pdfrwt>
<pdfrwt beam="1">  1       -4 0.73439626E-02 0.12773460E+03</pdfrwt>
<totfact> 0.10989763E+05</totfact>
</mgrwt>
</event>
<event>
 6    4  0.6325740E-003  0.1343926E+03  0.7818608E-02  0.1221080E+00
         21   -1    0    0  501  502  0.00000000000E+00  0.00000000000E+00  0.93680271761E+01  0.93680271761E+01  0.00000000000E+00 0.  1.
          4   -1    0    0  502    0 -0.00000000000E+00 -0.00000000000E+00 -0.10490905757E+04  0.10490913444E+04  0.12700000000E+01 0.  1.
         25    2    1    2    0    0 -0.45823670200E+02 -0.18287795468E+02 -0.90612126722E+03  0.91603336455E+03  0.12500848712E+03 0.  0.
    9000005    1    3    3    0    0 -0.21773056387E+02  0.43419369137E+02 -0.16625256051E+03  0.17320572011E+03  0.10000000000E+01 0.  0.
    9000005    1    3    3    0    0 -0.24050613813E+02 -0.61707164606E+02 -0.73986870670E+03  0.74282764444E+03  0.10000000000E+01 0.  0.
          4    1    1    2  501    0  0.45823670200E+02  0.18287795468E+02 -0.13360128127E+03  0.14242600700E+03  0.12700000000E+01 0. -1.
<mgrwt>
<rscale>  1 0.13439261E+03</rscale>
<asrwt>0</asrwt>
<pdfrwt beam="1">  1       21 0.14412346E-02 0.13439261E+03</pdfrwt>
<pdfrwt beam="2">  1        4 0.16140528E+00 0.13439261E+03</pdfrwt>
<totfact> 0.22325973E+04</totfact>
</mgrwt>
</event>
<event>
 6    4  0.6325740E-003  0.1421976E+03  0.7818608E-02  0.1210402E+00
         21   -1    0    0  501  502  0.00000000000E+00  0.00000000000E+00  0.46426186969E+02  0.46426186969E+02  0.00000000000E+00 0. -1.
         -4   -1    0    0    0  501 -0.00000000000E+00 -0.00000000000E+00 -0.50931538503E+03  0.50931696843E+03  0.12700000000E+01 0.  1.
         25    2    1    2    0    0 -0.60308827757E+02 -0.30939083857E+02 -0.46666066240E+03  0.48784456588E+03  0.12500306001E+03 0.  0.
    9000005    1    3    3    0    0 -0.43923052524E+02  0.32673679365E+02 -0.88856478791E+02  0.10437086609E+03  0.10000000000E+01 0.  0.
    9000005    1    3    3    0    0 -0.16385775233E+02 -0.63612763222E+02 -0.37780418361E+03  0.38347369979E+03  0.10000000000E+01 0.  0.
         -4    1    1    2    0  502  0.60308827757E+02  0.30939083857E+02  0.37714643372E+01  0.67898589518E+02  0.12700000000E+01 0. -1.
<mgrwt>
<rscale>  1 0.14219756E+03</rscale>
<asrwt>0</asrwt>
<pdfrwt beam="1">  1       21 0.71424902E-02 0.14219756E+03</pdfrwt>
<pdfrwt beam="2">  1       -4 0.78357672E-01 0.14219756E+03</pdfrwt>
<totfact> 0.89356553E+03</totfact>
</mgrwt>
</event>
<event>
 6    4  0.6325740E-003  0.1284229E+03  0.7818608E-02  0.1229815E+00
         21   -1    0    0  501  502  0.00000000000E+00  0.00000000000E+00  0.15607501723E+02  0.15607501723E+02  0.00000000000E+00 0.  1.
          4   -1    0    0  502    0 -0.00000000000E+00 -0.00000000000E+00 -0.85040404062E+03  0.85040498893E+03  0.12700000000E+01 0.  1.
         25    2    1    2    0    0  0.49508230740E+01  0.29032465024E+02 -0.82501898334E+03  0.83495434893E+03  0.12500018901E+03 0.  0.
    9000005    1    3    3    0    0 -0.50196987996E+02  0.36853092747E+02 -0.59651998706E+03  0.59976243881E+03  0.10000000000E+01 0.  0.
    9000005    1    3    3    0    0  0.55147811070E+02 -0.78206277222E+01 -0.22849899628E+03  0.23519191012E+03  0.10000000000E+01 0.  0.
          4    1    1    2  501    0 -0.49508230740E+01 -0.29032465024E+02 -0.97775555507E+01  0.31058141719E+02  0.12700000000E+01 0. -1.
<mgrwt>
<rscale>  1 0.12842290E+03</rscale>
<asrwt>0</asrwt>
<pdfrwt beam="1">  1       21 0.24011539E-02 0.12842290E+03</pdfrwt>
<pdfrwt beam="2">  1        4 0.13083545E+00 0.12842290E+03</pdfrwt>
<totfact> 0.16593643E+04</totfact>
</mgrwt>
</event>
<event>
 6    4  0.6325740E-003  0.1329976E+03  0.7818608E-02  0.1223074E+00
          4   -1    0    0  502    0 -0.00000000000E+00  0.00000000000E+00  0.10372551262E+03  0.10373328717E+03  0.12700000000E+01 0. -1.
         21   -1    0    0  501  502  0.00000000000E+00 -0.00000000000E+00 -0.16726186084E+03  0.16726186084E+03  0.00000000000E+00 0.  1.
         25    2    1    2    0    0  0.40010944122E+01 -0.45260904846E+02  0.55091829422E+02  0.14395650942E+03  0.12499523460E+03 0.  0.
    9000005    1    3    3    0    0  0.47280929975E+02 -0.42964304255E+02  0.73034017946E+02  0.97038062413E+02  0.10000000000E+01 0.  0.
    9000005    1    3    3    0    0 -0.43279835563E+02 -0.22966005910E+01 -0.17942188525E+02  0.46918447008E+02  0.10000000000E+01 0.  0.
          4    1    1    2  501    0 -0.40010944122E+01  0.45260904846E+02 -0.11862817764E+03  0.12703863859E+03  0.12700000000E+01 0.  1.
<mgrwt>
<rscale>  1 0.13299762E+03</rscale>
<asrwt>0</asrwt>
<pdfrwt beam="2">  1       21 0.25732594E-01 0.13299762E+03</pdfrwt>
<pdfrwt beam="1">  1        4 0.15958740E-01 0.13299762E+03</pdfrwt>
<totfact> 0.19748387E+04</totfact>
</mgrwt>
</event>
<event>
 6    4  0.6325740E-003  0.1438656E+03  0.7818608E-02  0.1208220E+00
          4   -1    0    0  502    0 -0.00000000000E+00  0.00000000000E+00  0.15241547517E+03  0.15242076620E+03  0.12700000000E+01 0. -1.
         21   -1    0    0  501  502  0.00000000000E+00 -0.00000000000E+00 -0.10974969506E+03  0.10974969506E+03  0.00000000000E+00 0.  1.
         25    2    1    2    0    0  0.66965065243E+02 -0.24234492869E+02  0.96202366665E+02  0.17306709652E+03  0.12500277573E+03 0.  0.
    9000005    1    3    3    0    0  0.90343211138E+02 -0.11732907365E+02  0.11026982961E+03  0.14303842923E+03  0.10000000000E+01 0.  0.
    9000005    1    3    3    0    0 -0.23378145895E+02 -0.12501585504E+02 -0.14067462947E+02  0.30028667293E+02  0.10000000000E+01 0.  0.
          4    1    1    2  501    0 -0.66965065243E+02  0.24234492869E+02 -0.53536586559E+02  0.89103364741E+02  0.12700000000E+01 0.  1.
<mgrwt>
<rscale>  1 0.14386565E+03</rscale>
<asrwt>0</asrwt>
<pdfrwt beam="2">  1       21 0.16884568E-01 0.14386565E+03</pdfrwt>
<pdfrwt beam="1">  1        4 0.23449507E-01 0.14386565E+03</pdfrwt>
<totfact> 0.21844581E+04</totfact>
</mgrwt>
</event>
<event>
 6    4  0.6325740E-003  0.1330859E+03  0.7818608E-02  0.1222947E+00
         21   -1    0    0  501  502  0.00000000000E+00  0.00000000000E+00  0.93826841613E+02  0.93826841613E+02  0.00000000000E+00 0.  1.
         -4   -1    0    0    0  501 -0.00000000000E+00 -0.00000000000E+00 -0.33015284679E+03  0.33015528944E+03  0.12700000000E+01 0. -1.
         25    2    1    2    0    0  0.15257401848E+02  0.43070312776E+02 -0.30995451532E+03  0.33731835223E+03  0.12499611604E+03 0.  0.
    9000005    1    3    3    0    0  0.41517694351E+02  0.32094468033E+02 -0.30364588360E+03  0.30814865966E+03  0.10000000000E+01 0.  0.
    9000005    1    3    3    0    0 -0.26260292504E+02  0.10975844743E+02 -0.63086317216E+01  0.29169692566E+02  0.10000000000E+01 0.  0.
         -4    1    1    2    0  502 -0.15257401848E+02 -0.43070312776E+02  0.73628510146E+02  0.86663778824E+02  0.12700000000E+01 0.  1.
<mgrwt>
<rscale>  1 0.13308595E+03</rscale>
<asrwt>0</asrwt>
<pdfrwt beam="1">  1       21 0.14434899E-01 0.13308595E+03</pdfrwt>
<pdfrwt beam="2">  1       -4 0.50793594E-01 0.13308595E+03</pdfrwt>
<totfact> 0.64824281E+03</totfact>
</mgrwt>
</event>
<event>
 6    4  0.6325740E-003  0.1447746E+03  0.7818608E-02  0.1207045E+00
         -4   -1    0    0    0  501 -0.00000000000E+00  0.00000000000E+00  0.11829484272E+03  0.11830165981E+03  0.12700000000E+01 0.  1.
         21   -1    0    0  501  502  0.00000000000E+00 -0.00000000000E+00 -0.17794712121E+03  0.17794712121E+03  0.00000000000E+00 0. -1.
         25    2    1    2    0    0  0.67699995307E+02  0.27426669543E+02  0.59466524895E+02  0.15651183605E+03  0.12499670266E+03 0.  0.
    9000005    1    3    3    0    0  0.84151173093E+02  0.59822055856E+02  0.61371860362E+02  0.12011495970E+03  0.10000000000E+01 0.  0.
    9000005    1    3    3    0    0 -0.16451177786E+02 -0.32395386314E+02 -0.19053354675E+01  0.36396876352E+02  0.10000000000E+01 0.  0.
         -4    1    1    2    0  502 -0.67699995307E+02 -0.27426669543E+02 -0.11911880339E+03  0.13973694496E+03  0.12700000000E+01 0. -1.
<mgrwt>
<rscale>  1 0.14477461E+03</rscale>
<asrwt>0</asrwt>
<pdfrwt beam="2">  1       21 0.27376480E-01 0.14477461E+03</pdfrwt>
<pdfrwt beam="1">  1       -4 0.18200080E-01 0.14477461E+03</pdfrwt>
<totfact> 0.14013564E+04</totfact>
</mgrwt>
</event>
<event>
 6    4  0.6325740E-003  0.1281832E+03  0.7818608E-02  0.1230177E+00
          4   -1    0    0  502    0 -0.00000000000E+00  0.00000000000E+00  0.44380852165E+02  0.44399019571E+02  0.12700000000E+01 0. -1.
         21   -1    0    0  501  502  0.00000000000E+00 -0.00000000000E+00 -0.19556516683E+03  0.19556516683E+03  0.00000000000E+00 0.  1.
         25    2    1    2    0    0  0.24918676057E+02 -0.13611354295E+02 -0.54674961505E+02  0.13935664429E+03  0.12499885404E+03 0.  0.
    9000005    1    3    3    0    0  0.69290712830E+02  0.19025747474E+02 -0.21334825743E+02  0.74962368832E+02  0.10000000000E+01 0.  0.
    9000005    1    3    3    0    0 -0.44372036773E+02 -0.32637101769E+02 -0.33340135762E+02  0.64394275459E+02  0.10000000000E+01 0.  0.
          4    1    1    2  501    0 -0.24918676057E+02  0.13611354295E+02 -0.96509353161E+02  0.10060754211E+03  0.12700000000E+01 0.  1.
<mgrwt>
<rscale>  1 0.12818316E+03</rscale>
<asrwt>0</asrwt>
<pdfrwt beam="2">  1       21 0.30086949E-01 0.12818316E+03</pdfrwt>
<pdfrwt beam="1">  1        4 0.68295382E-02 0.12818316E+03</pdfrwt>
<totfact> 0.61296663E+04</totfact>
</mgrwt>
</event>
<event>
 6    4  0.6325740E-003  0.1272721E+03  0.7818608E-02  0.1231561E+00
          4   -1    0    0  502    0 -0.00000000000E+00  0.00000000000E+00  0.24474727554E+02  0.24507655719E+02  0.12700000000E+01 0. -1.
         21   -1    0    0  501  502  0.00000000000E+00 -0.00000000000E+00 -0.24177051056E+03  0.24177051056E+03  0.00000000000E+00 0.  1.
         25    2    1    2    0    0  0.21678212000E+02  0.10153953287E+02 -0.16204025017E+03  0.20604665914E+03  0.12500054170E+03 0.  0.
    9000005    1    3    3    0    0  0.31117793890E+02 -0.41305863325E+02 -0.14003035406E+03  0.14927823518E+03  0.10000000000E+01 0.  0.
    9000005    1    3    3    0    0 -0.94395818901E+01  0.51459816612E+02 -0.22009896113E+02  0.56768423960E+02  0.10000000000E+01 0.  0.
          4    1    1    2  501    0 -0.21678212000E+02 -0.10153953287E+02 -0.55255532832E+02  0.60231507132E+02  0.12700000000E+01 0.  1.
<mgrwt>
<rscale>  1 0.12727208E+03</rscale>
<asrwt>0</asrwt>
<pdfrwt beam="2">  1       21 0.37195463E-01 0.12727208E+03</pdfrwt>
<pdfrwt beam="1">  1        4 0.37681323E-02 0.12727208E+03</pdfrwt>
<totfact> 0.10527381E+05</totfact>
</mgrwt>
</event>
<event>
 6    4  0.6325740E-003  0.1322919E+03  0.7818608E-02  0.1224094E+00
         -4   -1    0    0    0  501 -0.00000000000E+00  0.00000000000E+00  0.68097873445E+03  0.68097991870E+03  0.12700000000E+01 0. -1.
         21   -1    0    0  501  502  0.00000000000E+00 -0.00000000000E+00 -0.14051576260E+02  0.14051576260E+02  0.00000000000E+00 0. -1.
         25    2    1    2    0    0  0.21177035335E+02  0.37783260541E+02  0.60596840741E+03  0.62024096214E+03  0.12500039495E+03 0.  0.
    9000005    1    3    3    0    0  0.22061809757E+01  0.35565771685E+01  0.55935206211E+03  0.55936861358E+03  0.10000000000E+01 0.  0.
    9000005    1    3    3    0    0  0.18970854359E+02  0.34226683373E+02  0.46616345298E+02  0.60872348556E+02  0.10000000000E+01 0.  0.
         -4    1    1    2    0  502 -0.21177035335E+02 -0.37783260541E+02  0.60958750786E+02  0.74790532824E+02  0.12700000000E+01 0.  1.
<mgrwt>
<rscale>  1 0.13229188E+03</rscale>
<asrwt>0</asrwt>
<pdfrwt beam="2">  1       21 0.21617815E-02 0.13229188E+03</pdfrwt>
<pdfrwt beam="1">  1       -4 0.10477044E+00 0.13229188E+03</pdfrwt>
<totfact> 0.33561103E+04</totfact>
</mgrwt>
</event>
<event>
 6    4  0.6325740E-003  0.1306356E+03  0.7818608E-02  0.1226516E+00
         21   -1    0    0  501  502  0.00000000000E+00  0.00000000000E+00  0.40279695844E+03  0.40279695844E+03  0.00000000000E+00 0. -1.
         -4   -1    0    0    0  501 -0.00000000000E+00 -0.00000000000E+00 -0.19204564434E+02  0.19246511244E+02  0.12700000000E+01 0.  1.
         25    2    1    2    0    0 -0.11357324748E+02  0.36223979058E+02  0.23709853172E+03  0.27070533810E+03  0.12499800337E+03 0.  0.
    9000005    1    3    3    0    0 -0.45208900785E+02 -0.26943326665E+02  0.14327159645E+03  0.15263531017E+03  0.10000000000E+01 0.  0.
    9000005    1    3    3    0    0  0.33851576037E+02  0.63167305723E+02  0.93826935272E+02  0.11807002793E+03  0.10000000000E+01 0.  0.
         -4    1    1    2    0  502  0.11357324748E+02 -0.36223979058E+02  0.14649386228E+03  0.15133813158E+03  0.12700000000E+01 0. -1.
<mgrwt>
<rscale>  1 0.13063562E+03</rscale>
<asrwt>0</asrwt>
<pdfrwt beam="1">  1       21 0.61968756E-01 0.13063562E+03</pdfrwt>
<pdfrwt beam="2">  1       -4 0.29579294E-02 0.13063562E+03</pdfrwt>
<totfact> 0.54190645E+04</totfact>
</mgrwt>
</event>
<event>
 6    4  0.6325740E-003  0.1271867E+03  0.7818608E-02  0.1231691E+00
         21   -1    0    0  501  502  0.00000000000E+00  0.00000000000E+00  0.21777082092E+03  0.21777082092E+03  0.00000000000E+00 0. -1.
          4   -1    0    0  502    0 -0.00000000000E+00 -0.00000000000E+00 -0.28320336375E+03  0.28320621134E+03  0.12700000000E+01 0.  1.
         25    2    1    2    0    0 -0.19851723807E+02  0.12560092102E+02 -0.26821051697E+03  0.29683892571E+03  0.12499847819E+03 0.  0.
    9000005    1    3    3    0    0 -0.40680546406E+02  0.40734358043E+02 -0.25150172969E+03  0.25800836191E+03  0.10000000000E+01 0.  0.
    9000005    1    3    3    0    0  0.20828822599E+02 -0.28174265941E+02 -0.16708787284E+02  0.38830563796E+02  0.10000000000E+01 0.  0.
          4    1    1    2  501    0  0.19851723807E+02 -0.12560092102E+02  0.20277797413E+03  0.20413810655E+03  0.12700000000E+01 0. -1.
<mgrwt>
<rscale>  1 0.12718674E+03</rscale>
<asrwt>0</asrwt>
<pdfrwt beam="1">  1       21 0.33503203E-01 0.12718674E+03</pdfrwt>
<pdfrwt beam="2">  1        4 0.43570252E-01 0.12718674E+03</pdfrwt>
<totfact> 0.18247938E+03</totfact>
</mgrwt>
</event>
<event>
 6    4  0.6325740E-003  0.1271801E+03  0.7818608E-02  0.1231701E+00
         -4   -1    0    0    0  501 -0.00000000000E+00  0.00000000000E+00  0.34964397001E+03  0.34964627649E+03  0.12700000000E+01 0. -1.
         21   -1    0    0  501  502  0.00000000000E+00 -0.00000000000E+00 -0.18361276372E+02  0.18361276372E+02  0.00000000000E+00 0. -1.
         25    2    1    2    0    0  0.47968572623E+01  0.22943955931E+02  0.21859035927E+03  0.25289625855E+03  0.12500134987E+03 0.  0.
    9000005    1    3    3    0    0 -0.57510629358E+02  0.27813353845E+02  0.12449312828E+03  0.13993067616E+03  0.10000000000E+01 0.  0.
    9000005    1    3    3    0    0  0.62307486620E+02 -0.48693979139E+01  0.94097230987E+02  0.11296558239E+03  0.10000000000E+01 0.  0.
         -4    1    1    2    0  502 -0.47968572623E+01 -0.22943955931E+02  0.11269233437E+03  0.11511129432E+03  0.12700000000E+01 0.  1.
<mgrwt>
<rscale>  1 0.12718008E+03</rscale>
<asrwt>0</asrwt>
<pdfrwt beam="2">  1       21 0.28248120E-02 0.12718008E+03</pdfrwt>
<pdfrwt beam="1">  1       -4 0.53794931E-01 0.12718008E+03</pdfrwt>
<totfact> 0.92797887E+04</totfact>
</mgrwt>
</event>
<event>
 6    4  0.6325740E-003  0.1268106E+03  0.7818608E-02  0.1232267E+00
         -4   -1    0    0    0  501 -0.00000000000E+00  0.00000000000E+00  0.29939982819E+03  0.29940252174E+03  0.12700000000E+01 0. -1.
         21   -1    0    0  501  502  0.00000000000E+00 -0.00000000000E+00 -0.22021723472E+02  0.22021723472E+02  0.00000000000E+00 0.  1.
         25    2    1    2    0    0  0.16339351825E+02  0.13694504145E+02  0.27089137634E+03  0.29910375223E+03  0.12500561171E+03 0.  0.
    9000005    1    3    3    0    0  0.56047136387E+02  0.47867433984E+02  0.17355861884E+03  0.18856342940E+03  0.10000000000E+01 0.  0.
    9000005    1    3    3    0    0 -0.39707784562E+02 -0.34172929839E+02  0.97332757499E+02  0.11054032283E+03  0.10000000000E+01 0.  0.
         -4    1    1    2    0  502 -0.16339351825E+02 -0.13694504145E+02  0.64867283839E+01  0.22320492983E+02  0.12700000000E+01 0.  1.
<mgrwt>
<rscale>  1 0.12681055E+03</rscale>
<asrwt>0</asrwt>
<pdfrwt beam="2">  1       21 0.33879577E-02 0.12681055E+03</pdfrwt>
<pdfrwt beam="1">  1       -4 0.46064533E-01 0.12681055E+03</pdfrwt>
<totfact> 0.94342502E+04</totfact>
</mgrwt>
</event>
<event>
 6    4  0.6325740E-003  0.1288679E+03  0.7818608E-02  0.1229145E+00
          4   -1    0    0  502    0 -0.00000000000E+00  0.00000000000E+00  0.18696013877E+03  0.18696445221E+03  0.12700000000E+01 0.  1.
         21   -1    0    0  501  502  0.00000000000E+00 -0.00000000000E+00 -0.61126465264E+02  0.61126465264E+02  0.00000000000E+00 0. -1.
         25    2    1    2    0    0  0.83684779941E+01  0.30192937362E+02  0.15751609587E+03  0.20351476154E+03  0.12500117126E+03 0.  0.
    9000005    1    3    3    0    0 -0.53007475557E+02 -0.11795372777E+02  0.61149948071E+02  0.81787770681E+02  0.10000000000E+01 0.  0.
    9000005    1    3    3    0    0  0.61375953551E+02  0.41988310138E+02  0.96366147799E+02  0.12172699086E+03  0.10000000000E+01 0.  0.
          4    1    1    2  501    0 -0.83684779941E+01 -0.30192937362E+02 -0.31682422364E+02  0.44576155928E+02  0.12700000000E+01 0. -1.
<mgrwt>
<rscale>  1 0.12886791E+03</rscale>
<asrwt>0</asrwt>
<pdfrwt beam="2">  1       21 0.94040716E-02 0.12886791E+03</pdfrwt>
<pdfrwt beam="1">  1        4 0.28764445E-01 0.12886791E+03</pdfrwt>
<totfact> 0.41918312E+04</totfact>
</mgrwt>
</event>
<event>
 6    4  0.6325740E-003  0.1299699E+03  0.7818608E-02  0.1227500E+00
         -4   -1    0    0    0  501 -0.00000000000E+00  0.00000000000E+00  0.23554988799E+03  0.23555331165E+03  0.12700000000E+01 0. -1.
         21   -1    0    0  501  502  0.00000000000E+00 -0.00000000000E+00 -0.30851626429E+02  0.30851626429E+02  0.00000000000E+00 0. -1.
         25    2    1    2    0    0  0.30201065594E+02  0.18843242919E+02  0.18378943887E+03  0.22510162183E+03  0.12500004059E+03 0.  0.
    9000005    1    3    3    0    0  0.48634433049E+02  0.54076422648E+02  0.16656901966E+03  0.18175754695E+03  0.10000000000E+01 0.  0.
    9000005    1    3    3    0    0 -0.18433367455E+02 -0.35233179729E+02  0.17220419206E+02  0.43344074880E+02  0.10000000000E+01 0.  0.
         -4    1    1    2    0  502 -0.30201065594E+02 -0.18843242919E+02  0.20908822692E+02  0.41303316248E+02  0.12700000000E+01 0.  1.
<mgrwt>
<rscale>  1 0.12996993E+03</rscale>
<asrwt>0</asrwt>
<pdfrwt beam="2">  1       21 0.47464042E-02 0.12996993E+03</pdfrwt>
<pdfrwt beam="1">  1       -4 0.36240717E-01 0.12996993E+03</pdfrwt>
<totfact> 0.86782465E+04</totfact>
</mgrwt>
</event>
<event>
 6    4  0.6325740E-003  0.3073748E+03  0.7818608E-02  0.1081611E+00
          4   -1    0    0  502    0 -0.00000000000E+00  0.00000000000E+00  0.11095966513E+03  0.11096693285E+03  0.12700000000E+01 0. -1.
         21   -1    0    0  501  502  0.00000000000E+00 -0.00000000000E+00 -0.78262167362E+03  0.78262167362E+03  0.00000000000E+00 0.  1.
         25    2    1    2    0    0  0.26876747536E+03  0.81354429779E+02 -0.32254329944E+03  0.44554844648E+03  0.12499895635E+03 0.  0.
    9000005    1    3    3    0    0  0.64779185517E+02  0.41046620053E+01 -0.16255428377E+03  0.17503738543E+03  0.10000000000E+01 0.  0.
    9000005    1    3    3    0    0  0.20398828984E+03  0.77249767774E+02 -0.15998901567E+03  0.27051106105E+03  0.10000000000E+01 0.  0.
          4    1    1    2  501    0 -0.26876747536E+03 -0.81354429779E+02 -0.34911870905E+03  0.44804015999E+03  0.12700000000E+01 0.  1.
<mgrwt>
<rscale>  1 0.30737475E+03</rscale>
<asrwt>0</asrwt>
<pdfrwt beam="2">  1       21 0.12040333E+00 0.30737475E+03</pdfrwt>
<pdfrwt beam="1">  1        4 0.17071356E-01 0.30737475E+03</pdfrwt>
<totfact> 0.65111420E+02</totfact>
</mgrwt>
</event>
<event>
 6    4  0.6325740E-003  0.1440967E+03  0.7818608E-02  0.1207920E+00
          4   -1    0    0  502    0 -0.00000000000E+00  0.00000000000E+00  0.21821627395E+02  0.21858552609E+02  0.12700000000E+01 0. -1.
         21   -1    0    0  501  502  0.00000000000E+00 -0.00000000000E+00 -0.65267415807E+03  0.65267415807E+03  0.00000000000E+00 0.  1.
         25    2    1    2    0    0 -0.43963266279E+02 -0.56606674099E+02 -0.26422609355E+03  0.30096391965E+03  0.12500707213E+03 0.  0.
    9000005    1    3    3    0    0 -0.75805049669E+02 -0.71834348482E+02 -0.16139322374E+03  0.19223774824E+03  0.10000000000E+01 0.  0.
    9000005    1    3    3    0    0  0.31841783390E+02  0.15227674384E+02 -0.10283286981E+03  0.10872617141E+03  0.10000000000E+01 0.  0.
          4    1    1    2  501    0  0.43963266279E+02  0.56606674099E+02 -0.36662643713E+03  0.37356879104E+03  0.12700000000E+01 0.  1.
<mgrwt>
<rscale>  1 0.14409668E+03</rscale>
<asrwt>0</asrwt>
<pdfrwt beam="2">  1       21 0.10041141E+00 0.14409668E+03</pdfrwt>
<pdfrwt beam="1">  1        4 0.33601090E-02 0.14409668E+03</pdfrwt>
<totfact> 0.15206924E+04</totfact>
</mgrwt>
</event>
<event>
 6    4  0.6325740E-003  0.1290269E+03  0.7818608E-02  0.1228907E+00
         21   -1    0    0  501  502  0.00000000000E+00  0.00000000000E+00  0.44828341565E+03  0.44828341565E+03  0.00000000000E+00 0. -1.
         -4   -1    0    0    0  501 -0.00000000000E+00 -0.00000000000E+00 -0.14503297085E+02  0.14558795497E+02  0.12700000000E+01 0. -1.
         25    2    1    2    0    0  0.65738099366E+01  0.31332500057E+02  0.35921547227E+03  0.38168532657E+03  0.12499196960E+03 0.  0.
    9000005    1    3    3    0    0  0.47567484244E+02 -0.17466463078E+02  0.75748596395E+02  0.91140511002E+02  0.10000000000E+01 0.  0.
    9000005    1    3    3    0    0 -0.40993674307E+02  0.48798963136E+02  0.28346687588E+03  0.29054481557E+03  0.10000000000E+01 0.  0.
         -4    1    1    2    0  502 -0.65738099366E+01 -0.31332500057E+02  0.74564646297E+02  0.81156884578E+02  0.12700000000E+01 0.  1.
<mgrwt>
<rscale>  1 0.12902687E+03</rscale>
<asrwt>0</asrwt>
<pdfrwt beam="1">  1       21 0.68966669E-01 0.12902687E+03</pdfrwt>
<pdfrwt beam="2">  1       -4 0.22356843E-02 0.12902687E+03</pdfrwt>
<totfact> 0.66403977E+04</totfact>
</mgrwt>
</event>
<event>
 6    4  0.6325740E-003  0.1349635E+03  0.7818608E-02  0.1220271E+00
         21   -1    0    0  501  502  0.00000000000E+00  0.00000000000E+00  0.24844024260E+03  0.24844024260E+03  0.00000000000E+00 0. -1.
         -4   -1    0    0    0  501 -0.00000000000E+00 -0.00000000000E+00 -0.12437271665E+03  0.12437920062E+03  0.12700000000E+01 0.  1.
         25    2    1    2    0    0 -0.41706043710E+02 -0.29162053542E+02 -0.83763887980E+02  0.15884437700E+03  0.12500131090E+03 0.  0.
    9000005    1    3    3    0    0 -0.27519280998E+02 -0.57301538360E+02 -0.10363100804E+03  0.12157780617E+03  0.10000000000E+01 0.  0.
    9000005    1    3    3    0    0 -0.14186762712E+02  0.28139484818E+02  0.19867120063E+02  0.37266570833E+02  0.10000000000E+01 0.  0.
         -4    1    1    2    0  502  0.41706043710E+02  0.29162053542E+02  0.20783141392E+03  0.21397506622E+03  0.12700000000E+01 0. -1.
<mgrwt>
<rscale>  1 0.13496350E+03</rscale>
<asrwt>0</asrwt>
<pdfrwt beam="1">  1       21 0.38221576E-01 0.13496350E+03</pdfrwt>
<pdfrwt beam="2">  1       -4 0.19135013E-01 0.13496350E+03</pdfrwt>
<totfact> 0.66483932E+03</totfact>
</mgrwt>
</event>
<event>
 6    4  0.6325740E-003  0.1684878E+03  0.7818608E-02  0.1179434E+00
         21   -1    0    0  501  502  0.00000000000E+00  0.00000000000E+00  0.11164157835E+03  0.11164157835E+03  0.00000000000E+00 0. -1.
          4   -1    0    0  502    0 -0.00000000000E+00 -0.00000000000E+00 -0.18477642035E+03  0.18478078476E+03  0.12700000000E+01 0.  1.
         25    2    1    2    0    0  0.42017669490E+02  0.10486945937E+03 -0.72539744480E+02  0.18343981978E+03  0.12500025958E+03 0.  0.
    9000005    1    3    3    0    0  0.66456603663E+02  0.22518414054E+02  0.12596889639E+01  0.70186508377E+02  0.10000000000E+01 0.  0.
    9000005    1    3    3    0    0 -0.24438934173E+02  0.82351045312E+02 -0.73799433444E+02  0.11325331140E+03  0.10000000000E+01 0.  0.
          4    1    1    2  501    0 -0.42017669490E+02 -0.10486945937E+03 -0.59509751931E+00  0.11298254333E+03  0.12700000000E+01 0. -1.
<mgrwt>
<rscale>  1 0.16848784E+03</rscale>
<asrwt>0</asrwt>
<pdfrwt beam="1">  1       21 0.17175628E-01 0.16848784E+03</pdfrwt>
<pdfrwt beam="2">  1        4 0.28428033E-01 0.16848784E+03</pdfrwt>
<totfact> 0.15008704E+04</totfact>
</mgrwt>
</event>
<event>
 6    4  0.6325740E-003  0.1582548E+03  0.7818608E-02  0.1190681E+00
         21   -1    0    0  501  502  0.00000000000E+00  0.00000000000E+00  0.13250044699E+02  0.13250044699E+02  0.00000000000E+00 0.  1.
          4   -1    0    0  502    0 -0.00000000000E+00 -0.00000000000E+00 -0.14217127533E+04  0.14217133206E+04  0.12700000000E+01 0. -1.
         25    2    1    2    0    0  0.94593198096E+02 -0.21712811821E+02 -0.11071524582E+04  0.11184056308E+04  0.12500108011E+03 0.  0.
    9000005    1    3    3    0    0  0.42994706271E+02  0.40316814739E+02 -0.22583303891E+03  0.23339998239E+03  0.10000000000E+01 0.  0.
    9000005    1    3    3    0    0  0.51598491826E+02 -0.62029626560E+02 -0.88131941927E+03  0.88500564841E+03  0.10000000000E+01 0.  0.
          4    1    1    2  501    0 -0.94593198096E+02  0.21712811821E+02 -0.30131025044E+03  0.31655773446E+03  0.12700000000E+01 0.  1.
<mgrwt>
<rscale>  1 0.15825482E+03</rscale>
<asrwt>0</asrwt>
<pdfrwt beam="1">  1       21 0.20384702E-02 0.15825482E+03</pdfrwt>
<pdfrwt beam="2">  1        4 0.21872957E+00 0.15825482E+03</pdfrwt>
<totfact> 0.55387555E+03</totfact>
</mgrwt>
</event>
<event>
 6    4  0.6325740E-003  0.1269935E+03  0.7818608E-02  0.1231986E+00
         -4   -1    0    0    0  501 -0.00000000000E+00  0.00000000000E+00  0.34315242576E+02  0.34338735752E+02  0.12700000000E+01 0.  1.
         21   -1    0    0  501  502  0.00000000000E+00 -0.00000000000E+00 -0.24518882476E+03  0.24518882476E+03  0.00000000000E+00 0.  1.
         25    2    1    2    0    0 -0.15786166865E+02 -0.15909022334E+02 -0.87718526823E+02  0.15434337374E+03  0.12500014806E+03 0.  0.
    9000005    1    3    3    0    0  0.71949680548E+00  0.81045416433E+01 -0.11447652315E+03  0.11476966334E+03  0.10000000000E+01 0.  0.
    9000005    1    3    3    0    0 -0.16505663671E+02 -0.24013563977E+02  0.26757996322E+02  0.39573710406E+02  0.10000000000E+01 0.  0.
         -4    1    1    2    0  502  0.15786166865E+02  0.15909022334E+02 -0.12315505536E+03  0.12518418677E+03  0.12700000000E+01 0. -1.
<mgrwt>
<rscale>  1 0.12699345E+03</rscale>
<asrwt>0</asrwt>
<pdfrwt beam="2">  1       21 0.37721356E-01 0.12699345E+03</pdfrwt>
<pdfrwt beam="1">  1       -4 0.52813286E-02 0.12699345E+03</pdfrwt>
<totfact> 0.59730271E+04</totfact>
</mgrwt>
</event>
<event>
 6    4  0.6325740E-003  0.1305338E+03  0.7818608E-02  0.1226666E+00
         21   -1    0    0  501  502  0.00000000000E+00  0.00000000000E+00  0.18561516178E+03  0.18561516178E+03  0.00000000000E+00 0.  1.
          4   -1    0    0  502    0 -0.00000000000E+00 -0.00000000000E+00 -0.72578481390E+02  0.72589591960E+02  0.12700000000E+01 0. -1.
         25    2    1    2    0    0  0.29518910181E+02 -0.22985017234E+02 -0.87187821064E+01  0.13082468221E+03  0.12505759968E+03 0.  0.
    9000005    1    3    3    0    0  0.53143169459E+02 -0.58997970909E+02  0.16213877737E+02  0.81048422951E+02  0.10000000000E+01 0.  0.
    9000005    1    3    3    0    0 -0.23624259278E+02  0.36012953675E+02 -0.24932659843E+02  0.49776259258E+02  0.10000000000E+01 0.  0.
          4    1    1    2  501    0 -0.29518910181E+02  0.22985017234E+02  0.12175546250E+03  0.12738007153E+03  0.12700000000E+01 0.  1.
<mgrwt>
<rscale>  1 0.13053383E+03</rscale>
<asrwt>0</asrwt>
<pdfrwt beam="1">  1       21 0.28556178E-01 0.13053383E+03</pdfrwt>
<pdfrwt beam="2">  1        4 0.11167109E-01 0.13053383E+03</pdfrwt>
<totfact> 0.29931115E+04</totfact>
</mgrwt>
</event>
<event>
 6    4  0.6325740E-003  0.2413909E+03  0.7818608E-02  0.1118870E+00
          4   -1    0    0  502    0 -0.00000000000E+00  0.00000000000E+00  0.19279241849E+03  0.19279660144E+03  0.12700000000E+01 0. -1.
         21   -1    0    0  501  502  0.00000000000E+00 -0.00000000000E+00 -0.26054109508E+03  0.26054109508E+03  0.00000000000E+00 0.  1.
         25    2    1    2    0    0  0.13650438312E+03 -0.15495644270E+03 -0.27637558594E+02  0.24296787827E+03  0.12499843791E+03 0.  0.
    9000005    1    3    3    0    0  0.21743249334E+02 -0.73611023925E+02  0.40359551148E+02  0.86725112302E+02  0.10000000000E+01 0.  0.
    9000005    1    3    3    0    0  0.11476113379E+03 -0.81345418771E+02 -0.67997109742E+02  0.15624276596E+03  0.10000000000E+01 0.  0.
          4    1    1    2  501    0 -0.13650438312E+03  0.15495644270E+03 -0.40111118000E+02  0.21036981825E+03  0.12700000000E+01 0.  1.
<mgrwt>
<rscale>  1 0.24139088E+03</rscale>
<asrwt>0</asrwt>
<pdfrwt beam="2">  1       21 0.40083245E-01 0.24139088E+03</pdfrwt>
<pdfrwt beam="1">  1        4 0.29660932E-01 0.24139088E+03</pdfrwt>
<totfact> 0.27522495E+03</totfact>
</mgrwt>
</event>
<event>
 6    4  0.6325740E-003  0.1267933E+03  0.7818608E-02  0.1232293E+00
         21   -1    0    0  501  502  0.00000000000E+00  0.00000000000E+00  0.86958857198E+03  0.86958857198E+03  0.00000000000E+00 0. -1.
         -4   -1    0    0    0  501 -0.00000000000E+00 -0.00000000000E+00 -0.66374453887E+01  0.67578533047E+01  0.12700000000E+01 0. -1.
         25    2    1    2    0    0  0.15583531999E+02  0.14385493823E+02  0.64373400912E+03  0.65610213729E+03  0.12500700443E+03 0.  0.
    9000005    1    3    3    0    0  0.80923543069E+01 -0.48555483956E+02  0.43967223239E+03  0.44242038058E+03  0.10000000000E+01 0.  0.
    9000005    1    3    3    0    0  0.74911776916E+01  0.62940977779E+02  0.20406177673E+03  0.21368175671E+03  0.10000000000E+01 0.  0.
         -4    1    1    2    0  502 -0.15583531999E+02 -0.14385493823E+02  0.21921711747E+03  0.22024428800E+03  0.12700000000E+01 0.  1.
<mgrwt>
<rscale>  1 0.12679330E+03</rscale>
<asrwt>0</asrwt>
<pdfrwt beam="1">  1       21 0.13378277E+00 0.12679330E+03</pdfrwt>
<pdfrwt beam="2">  1       -4 0.10304796E-02 0.12679330E+03</pdfrwt>
<totfact> 0.46233897E+04</totfact>
</mgrwt>
</event>
<event>
 6    4  0.6325740E-003  0.1273256E+03  0.7818608E-02  0.1231479E+00
         -4   -1    0    0    0  501 -0.00000000000E+00  0.00000000000E+00  0.41326921522E+03  0.41327116661E+03  0.12700000000E+01 0.  1.
         21   -1    0    0  501  502  0.00000000000E+00 -0.00000000000E+00 -0.15553945800E+02  0.15553945800E+02  0.00000000000E+00 0. -1.
         25    2    1    2    0    0  0.65045371420E+01 -0.23365006700E+02  0.37317554198E+03  0.39429912706E+03  0.12499433557E+03 0.  0.
    9000005    1    3    3    0    0  0.64634677055E+02 -0.44353231470E+01  0.16285738039E+03  0.17527361444E+03  0.10000000000E+01 0.  0.
    9000005    1    3    3    0    0 -0.58130139913E+02 -0.18929683553E+02  0.21031816158E+03  0.21902551262E+03  0.10000000000E+01 0.  0.
         -4    1    1    2    0  502 -0.65045371420E+01  0.23365006700E+02  0.24539727442E+02  0.34525985351E+02  0.12700000000E+01 0. -1.
<mgrwt>
<rscale>  1 0.12732563E+03</rscale>
<asrwt>0</asrwt>
<pdfrwt beam="2">  1       21 0.23929151E-02 0.12732563E+03</pdfrwt>
<pdfrwt beam="1">  1       -4 0.63584009E-01 0.12732563E+03</pdfrwt>
<totfact> 0.85791094E+04</totfact>
</mgrwt>
</event>
<event>
 6    4  0.6325740E-003  0.1380952E+03  0.7818608E-02  0.1215915E+00
         21   -1    0    0  501  502  0.00000000000E+00  0.00000000000E+00  0.48161716607E+03  0.48161716607E+03  0.00000000000E+00 0. -1.
         -4   -1    0    0    0  501 -0.00000000000E+00 -0.00000000000E+00 -0.27947779995E+02  0.27976620716E+02  0.12700000000E+01 0. -1.
         25    2    1    2    0    0  0.43174582040E+02  0.39755690512E+02  0.16569496970E+03  0.21569680339E+03  0.12500291415E+03 0.  0.
    9000005    1    3    3    0    0 -0.13456041945E+02 -0.66159945746E+01  0.13579642383E+03  0.13662541921E+03  0.10000000000E+01 0.  0.
    9000005    1    3    3    0    0  0.56630623986E+02  0.46371685087E+02  0.29898545865E+02  0.79071384177E+02  0.10000000000E+01 0.  0.
         -4    1    1    2    0  502 -0.43174582040E+02 -0.39755690512E+02  0.28797441638E+03  0.29389698340E+03  0.12700000000E+01 0.  1.
<mgrwt>
<rscale>  1 0.13809521E+03</rscale>
<asrwt>0</asrwt>
<pdfrwt beam="1">  1       21 0.74094942E-01 0.13809521E+03</pdfrwt>
<pdfrwt beam="2">  1       -4 0.43020061E-02 0.13809521E+03</pdfrwt>
<totfact> 0.20454753E+04</totfact>
</mgrwt>
</event>
<event>
 6    4  0.6325740E-003  0.1721799E+03  0.7818608E-02  0.1175593E+00
         21   -1    0    0  501  502  0.00000000000E+00  0.00000000000E+00  0.13959447210E+02  0.13959447210E+02  0.00000000000E+00 0. -1.
         -4   -1    0    0    0  501 -0.00000000000E+00 -0.00000000000E+00 -0.16017502340E+04  0.16017507375E+04  0.12700000000E+01 0.  1.
         25    2    1    2    0    0 -0.83613776641E+02 -0.83854011932E+02 -0.11202456328E+04  0.11334002814E+04  0.12499264357E+03 0.  0.
    9000005    1    3    3    0    0 -0.55662060330E+01 -0.80840422718E+02 -0.35269513851E+03  0.36188536489E+03  0.10000000000E+01 0.  0.
    9000005    1    3    3    0    0 -0.78047570608E+02 -0.30135892143E+01 -0.76755049434E+03  0.77151491649E+03  0.10000000000E+01 0.  0.
         -4    1    1    2    0  502  0.83613776641E+02  0.83854011932E+02 -0.46754515394E+03  0.48230990331E+03  0.12700000000E+01 0. -1.
<mgrwt>
<rscale>  1 0.17217991E+03</rscale>
<asrwt>0</asrwt>
<pdfrwt beam="1">  1       21 0.21476070E-02 0.17217991E+03</pdfrwt>
<pdfrwt beam="2">  1       -4 0.24642763E+00 0.17217991E+03</pdfrwt>
<totfact> 0.35004129E+03</totfact>
</mgrwt>
</event>
<event>
 6    4  0.6325740E-003  0.1266013E+03  0.7818608E-02  0.1232588E+00
          4   -1    0    0  502    0 -0.00000000000E+00  0.00000000000E+00  0.70625487651E+02  0.70636905410E+02  0.12700000000E+01 0. -1.
         21   -1    0    0  501  502  0.00000000000E+00 -0.00000000000E+00 -0.76257083747E+02  0.76257083747E+02  0.00000000000E+00 0. -1.
         25    2    1    2    0    0  0.19882212893E+02  0.26814830066E+01 -0.31648819298E+01  0.12664083337E+03  0.12500156582E+03 0.  0.
    9000005    1    3    3    0    0 -0.49207442028E+02  0.17908981296E+02 -0.15929962196E+02  0.54743654039E+02  0.10000000000E+01 0.  0.
    9000005    1    3    3    0    0  0.69089654921E+02 -0.15227498290E+02  0.12765080267E+02  0.71897179329E+02  0.10000000000E+01 0.  0.
          4    1    1    2  501    0 -0.19882212893E+02 -0.26814830066E+01 -0.24667141667E+01  0.20253155789E+02  0.12700000000E+01 0.  1.
<mgrwt>
<rscale>  1 0.12660128E+03</rscale>
<asrwt>0</asrwt>
<pdfrwt beam="2">  1       21 0.11731859E-01 0.12660128E+03</pdfrwt>
<pdfrwt beam="1">  1        4 0.10867151E-01 0.12660128E+03</pdfrwt>
<totfact> 0.15995781E+05</totfact>
</mgrwt>
</event>
<event>
 6    4  0.6325740E-003  0.1267844E+03  0.7818608E-02  0.1232307E+00
          4   -1    0    0  502    0 -0.00000000000E+00  0.00000000000E+00  0.25795424937E+02  0.25826669311E+02  0.12700000000E+01 0.  1.
         21   -1    0    0  501  502  0.00000000000E+00 -0.00000000000E+00 -0.21218262590E+03  0.21218262590E+03  0.00000000000E+00 0.  1.
         25    2    1    2    0    0  0.21140398648E+02 -0.14440371415E+01 -0.15919135128E+03  0.20350960191E+03  0.12500108018E+03 0.  0.
    9000005    1    3    3    0    0  0.48640427964E+02 -0.50728355356E+02 -0.85412944424E+02  0.11061477453E+03  0.10000000000E+01 0.  0.
    9000005    1    3    3    0    0 -0.27500029316E+02  0.49284318214E+02 -0.73778406861E+02  0.92894827376E+02  0.10000000000E+01 0.  0.
          4    1    1    2  501    0 -0.21140398648E+02  0.14440371415E+01 -0.27195849676E+02  0.34499693301E+02  0.12700000000E+01 0. -1.
<mgrwt>
<rscale>  1 0.12678435E+03</rscale>
<asrwt>0</asrwt>
<pdfrwt beam="2">  1       21 0.32643480E-01 0.12678435E+03</pdfrwt>
<pdfrwt beam="1">  1        4 0.39712228E-02 0.12678435E+03</pdfrwt>
<totfact> 0.12510232E+05</totfact>
</mgrwt>
</event>
<event>
 6    4  0.6325740E-003  0.1370184E+03  0.7818608E-02  0.1217398E+00
          4   -1    0    0  502    0 -0.00000000000E+00  0.00000000000E+00  0.62809521480E+02  0.62822359781E+02  0.12700000000E+01 0. -1.
         21   -1    0    0  501  502  0.00000000000E+00 -0.00000000000E+00 -0.18290010620E+03  0.18290010620E+03  0.00000000000E+00 0. -1.
         25    2    1    2    0    0 -0.52698595261E+01  0.55864970789E+02 -0.31089178113E+02  0.14050112946E+03  0.12500145601E+03 0.  0.
    9000005    1    3    3    0    0  0.34065774368E+01 -0.18138180311E+02  0.35849615002E+02  0.40333525145E+02  0.10000000000E+01 0.  0.
    9000005    1    3    3    0    0 -0.86764369629E+01  0.74003151100E+02 -0.66938793115E+02  0.10016760432E+03  0.10000000000E+01 0.  0.
          4    1    1    2  501    0  0.52698595261E+01 -0.55864970789E+02 -0.89001406604E+02  0.10522133652E+03  0.12700000000E+01 0.  1.
<mgrwt>
<rscale>  1 0.13701836E+03</rscale>
<asrwt>0</asrwt>
<pdfrwt beam="2">  1       21 0.28138478E-01 0.13701836E+03</pdfrwt>
<pdfrwt beam="1">  1        4 0.96643301E-02 0.13701836E+03</pdfrwt>
<totfact> 0.39506644E+04</totfact>
</mgrwt>
</event>
<event>
 6    4  0.6325740E-003  0.1276722E+03  0.7818608E-02  0.1230951E+00
         -4   -1    0    0    0  501 -0.00000000000E+00  0.00000000000E+00  0.38202012898E+02  0.38223117213E+02  0.12700000000E+01 0.  1.
         21   -1    0    0  501  502  0.00000000000E+00 -0.00000000000E+00 -0.27254501925E+03  0.27254501925E+03  0.00000000000E+00 0.  1.
         25    2    1    2    0    0 -0.15068916961E+02 -0.21157962668E+02 -0.72443667165E+02  0.14679331958E+03  0.12500184846E+03 0.  0.
    9000005    1    3    3    0    0 -0.11320784615E+02 -0.43466588880E+02  0.21750449138E+02  0.49915794603E+02  0.10000000000E+01 0.  0.
    9000005    1    3    3    0    0 -0.37481323464E+01  0.22308626212E+02 -0.94194116303E+02  0.96877524977E+02  0.10000000000E+01 0.  0.
         -4    1    1    2    0  502  0.15068916961E+02  0.21157962668E+02 -0.16189933919E+03  0.16397481688E+03  0.12700000000E+01 0. -1.
<mgrwt>
<rscale>  1 0.12767221E+03</rscale>
<asrwt>0</asrwt>
<pdfrwt beam="2">  1       21 0.41930002E-01 0.12767221E+03</pdfrwt>
<pdfrwt beam="1">  1       -4 0.58790839E-02 0.12767221E+03</pdfrwt>
<totfact> 0.40690994E+04</totfact>
</mgrwt>
</event>
<event>
 6    4  0.6325740E-003  0.1334499E+03  0.7818608E-02  0.1222425E+00
          4   -1    0    0  502    0 -0.00000000000E+00  0.00000000000E+00  0.16857715448E+02  0.16905486391E+02  0.12700000000E+01 0. -1.
         21   -1    0    0  501  502  0.00000000000E+00 -0.00000000000E+00 -0.50112438379E+03  0.50112438379E+03  0.00000000000E+00 0. -1.
         25    2    1    2    0    0  0.10725004845E+02 -0.45477626093E+02 -0.30793647979E+03  0.33560950811E+03  0.12500250455E+03 0.  0.
    9000005    1    3    3    0    0  0.33443360447E+02  0.34012490465E+02 -0.14903056801E+03  0.15648136651E+03  0.10000000000E+01 0.  0.
    9000005    1    3    3    0    0 -0.22718355602E+02 -0.79490116558E+02 -0.15890591178E+03  0.17912814160E+03  0.10000000000E+01 0.  0.
          4    1    1    2  501    0 -0.10725004845E+02  0.45477626093E+02 -0.17633018855E+03  0.18242036208E+03  0.12700000000E+01 0.  1.
<mgrwt>
<rscale>  1 0.13344986E+03</rscale>
<asrwt>0</asrwt>
<pdfrwt beam="2">  1       21 0.77096054E-01 0.13344986E+03</pdfrwt>
<pdfrwt beam="1">  1        4 0.25972933E-02 0.13344986E+03</pdfrwt>
<totfact> 0.41343602E+04</totfact>
</mgrwt>
</event>
<event>
 6    4  0.6325740E-003  0.1278280E+03  0.7818608E-02  0.1230715E+00
         -4   -1    0    0    0  501 -0.00000000000E+00  0.00000000000E+00  0.42109486499E+03  0.42109678011E+03  0.12700000000E+01 0. -1.
         21   -1    0    0  501  502  0.00000000000E+00 -0.00000000000E+00 -0.14981574380E+02  0.14981574380E+02  0.00000000000E+00 0.  1.
         25    2    1    2    0    0  0.23896321261E+02 -0.11896401189E+02  0.36768343909E+03  0.38926996936E+03  0.12500975615E+03 0.  0.
    9000005    1    3    3    0    0  0.12761166303E+01  0.78595424936E+01 -0.86149817324E+01  0.11773648207E+02  0.10000000000E+01 0.  0.
    9000005    1    3    3    0    0  0.22620204631E+02 -0.19755943682E+02  0.37629842083E+03  0.37749632115E+03  0.10000000000E+01 0.  0.
         -4    1    1    2    0  502 -0.23896321261E+02  0.11896401189E+02  0.38429851516E+02  0.46808385131E+02  0.12700000000E+01 0.  1.
<mgrwt>
<rscale>  1 0.12782800E+03</rscale>
<asrwt>0</asrwt>
<pdfrwt beam="2">  1       21 0.23048579E-02 0.12782800E+03</pdfrwt>
<pdfrwt beam="1">  1       -4 0.64788104E-01 0.12782800E+03</pdfrwt>
<totfact> 0.87667698E+04</totfact>
</mgrwt>
</event>
<event>
 6    4  0.6325740E-003  0.1273655E+03  0.7818608E-02  0.1231418E+00
          4   -1    0    0  502    0 -0.00000000000E+00  0.00000000000E+00  0.13392105215E+02  0.13452188747E+02  0.12700000000E+01 0.  1.
         21   -1    0    0  501  502  0.00000000000E+00 -0.00000000000E+00 -0.45634849582E+03  0.45634849582E+03  0.00000000000E+00 0.  1.
         25    2    1    2    0    0 -0.24189233722E+02 -0.37529512310E+01 -0.40554135982E+03  0.42507148717E+03  0.12499108372E+03 0.  0.
    9000005    1    3    3    0    0 -0.61146082986E+02  0.37674758674E+02 -0.23166178365E+03  0.24254156944E+03  0.10000000000E+01 0.  0.
    9000005    1    3    3    0    0  0.36956849264E+02 -0.41427709905E+02 -0.17387957618E+03  0.18252991773E+03  0.10000000000E+01 0.  0.
          4    1    1    2  501    0  0.24189233722E+02  0.37529512310E+01 -0.37415030778E+02  0.44729197389E+02  0.12700000000E+01 0. -1.
<mgrwt>
<rscale>  1 0.12736552E+03</rscale>
<asrwt>0</asrwt>
<pdfrwt beam="2">  1       21 0.70207465E-01 0.12736552E+03</pdfrwt>
<pdfrwt beam="1">  1        4 0.20650815E-02 0.12736552E+03</pdfrwt>
<totfact> 0.72092393E+04</totfact>
</mgrwt>
</event>
<event>
 6    4  0.6325740E-003  0.1289963E+03  0.7818608E-02  0.1228953E+00
         21   -1    0    0  501  502  0.00000000000E+00  0.00000000000E+00  0.65020350925E+02  0.65020350925E+02  0.00000000000E+00 0.  1.
          4   -1    0    0  502    0 -0.00000000000E+00 -0.00000000000E+00 -0.18342579001E+03  0.18343018656E+03  0.12700000000E+01 0.  1.
         25    2    1    2    0    0 -0.18343616984E+01 -0.31773294044E+02 -0.15386592339E+03  0.20078539357E+03  0.12500857889E+03 0.  0.
    9000005    1    3    3    0    0 -0.35026004453E+02  0.35478178682E+02 -0.87132424027E+02  0.10039213847E+03  0.10000000000E+01 0.  0.
    9000005    1    3    3    0    0  0.33191642755E+02 -0.67251472726E+02 -0.66733499361E+02  0.10039325510E+03  0.10000000000E+01 0.  0.
          4    1    1    2  501    0  0.18343616984E+01  0.31773294044E+02  0.35460484301E+02  0.47665143911E+02  0.12700000000E+01 0. -1.
<mgrwt>
<rscale>  1 0.12899633E+03</rscale>
<asrwt>0</asrwt>
<pdfrwt beam="1">  1       21 0.10003131E-01 0.12899633E+03</pdfrwt>
<pdfrwt beam="2">  1        4 0.28220645E-01 0.12899633E+03</pdfrwt>
<totfact> 0.39010126E+04</totfact>
</mgrwt>
</event>
<event>
 6    4  0.6325740E-003  0.1357794E+03  0.7818608E-02  0.1219124E+00
         21   -1    0    0  501  502  0.00000000000E+00  0.00000000000E+00  0.48095125009E+03  0.48095125009E+03  0.00000000000E+00 0.  1.
          4   -1    0    0  502    0 -0.00000000000E+00 -0.00000000000E+00 -0.30200120704E+02  0.30226812444E+02  0.12700000000E+01 0. -1.
         25    2    1    2    0    0  0.52140558814E+02 -0.95737985620E+01  0.13666954067E+03  0.19265152869E+03  0.12500301063E+03 0.  0.
    9000005    1    3    3    0    0  0.79730058703E+02  0.31891626496E+02  0.89787933015E+02  0.12424504423E+03  0.10000000000E+01 0.  0.
    9000005    1    3    3    0    0 -0.27589499889E+02 -0.41465425058E+02  0.46881607653E+02  0.68406484455E+02  0.10000000000E+01 0.  0.
          4    1    1    2  501    0 -0.52140558814E+02  0.95737985620E+01  0.31408158872E+03  0.31852653384E+03  0.12700000000E+01 0.  1.
<mgrwt>
<rscale>  1 0.13577941E+03</rscale>
<asrwt>0</asrwt>
<pdfrwt beam="1">  1       21 0.73992494E-01 0.13577941E+03</pdfrwt>
<pdfrwt beam="2">  1        4 0.46483550E-02 0.13577941E+03</pdfrwt>
<totfact> 0.18104857E+04</totfact>
</mgrwt>
</event>
<event>
 6    4  0.6325740E-003  0.1296678E+03  0.7818608E-02  0.1227950E+00
         -4   -1    0    0    0  501 -0.00000000000E+00  0.00000000000E+00  0.11690037732E+03  0.11690727573E+03  0.12700000000E+01 0. -1.
         21   -1    0    0  501  502  0.00000000000E+00 -0.00000000000E+00 -0.16241396678E+03  0.16241396678E+03  0.00000000000E+00 0.  1.
         25    2    1    2    0    0 -0.25134843967E+02 -0.23599712021E+02  0.77837358424E+02  0.15123620813E+03  0.12500011798E+03 0.  0.
    9000005    1    3    3    0    0 -0.28676530595E+02  0.32186151068E+02 -0.12591823414E+02  0.44920437936E+02  0.10000000000E+01 0.  0.
    9000005    1    3    3    0    0  0.35416866271E+01 -0.55785863088E+02  0.90429181838E+02  0.10631577020E+03  0.10000000000E+01 0.  0.
         -4    1    1    2    0  502  0.25134843967E+02  0.23599712021E+02 -0.12335094788E+03  0.12808503438E+03  0.12700000000E+01 0.  1.
<mgrwt>
<rscale>  1 0.12966779E+03</rscale>
<asrwt>0</asrwt>
<pdfrwt beam="2">  1       21 0.24986764E-01 0.12966779E+03</pdfrwt>
<pdfrwt beam="1">  1       -4 0.17985586E-01 0.12966779E+03</pdfrwt>
<totfact> 0.16863593E+04</totfact>
</mgrwt>
</event>
<event>
 6    4  0.6325740E-003  0.1272428E+03  0.7818608E-02  0.1231605E+00
         21   -1    0    0  501  502  0.00000000000E+00  0.00000000000E+00  0.47774326454E+03  0.47774326454E+03  0.00000000000E+00 0. -1.
          4   -1    0    0  502    0 -0.00000000000E+00 -0.00000000000E+00 -0.30099606550E+02  0.30126387345E+02  0.12700000000E+01 0.  1.
         25    2    1    2    0    0  0.22726397798E+02 -0.70823618568E+01  0.10660264364E+03  0.16599652428E+03  0.12499629369E+03 0.  0.
    9000005    1    3    3    0    0 -0.19065844904E+02  0.41308036466E+02  0.88535934595E+02  0.99546331088E+02  0.10000000000E+01 0.  0.
    9000005    1    3    3    0    0  0.41792242703E+02 -0.48390398322E+02  0.18066709043E+02  0.66450193194E+02  0.10000000000E+01 0.  0.
          4    1    1    2  501    0 -0.22726397798E+02  0.70823618568E+01  0.34104101435E+03  0.34187312760E+03  0.12700000000E+01 0. -1.
<mgrwt>
<rscale>  1 0.12724277E+03</rscale>
<asrwt>0</asrwt>
<pdfrwt beam="1">  1       21 0.73498958E-01 0.12724277E+03</pdfrwt>
<pdfrwt beam="2">  1        4 0.46328990E-02 0.12724277E+03</pdfrwt>
<totfact> 0.18374444E+04</totfact>
</mgrwt>
</event>
<event>
 6    4  0.6325740E-003  0.1266504E+03  0.7818608E-02  0.1232512E+00
         -4   -1    0    0    0  501 -0.00000000000E+00  0.00000000000E+00  0.18048784499E+04  0.18048788967E+04  0.12700000000E+01 0.  1.
         21   -1    0    0  501  502  0.00000000000E+00 -0.00000000000E+00 -0.45848179573E+01  0.45848179573E+01  0.00000000000E+00 0. -1.
         25    2    1    2    0    0 -0.94170512304E+01 -0.18061636888E+02  0.17574486807E+04  0.17620062987E+04  0.12500171159E+03 0.  0.
    9000005    1    3    3    0    0 -0.53240521185E+02  0.18958363190E+02  0.12586481499E+04  0.12599167186E+04  0.10000000000E+01 0.  0.
    9000005    1    3    3    0    0  0.43823469954E+02 -0.37020000078E+02  0.49880053084E+03  0.50208958015E+03  0.10000000000E+01 0.  0.
         -4    1    1    2    0  502  0.94170512304E+01  0.18061636888E+02  0.42844951263E+02  0.47457415961E+02  0.12700000000E+01 0. -1.
<mgrwt>
<rscale>  1 0.12665043E+03</rscale>
<asrwt>0</asrwt>
<pdfrwt beam="2">  1       21 0.70535805E-03 0.12665043E+03</pdfrwt>
<pdfrwt beam="1">  1       -4 0.27768660E+00 0.12665043E+03</pdfrwt>
<totfact> 0.13399468E+04</totfact>
</mgrwt>
</event>
<event>
 6    4  0.6325740E-003  0.1269555E+03  0.7818608E-02  0.1232044E+00
         21   -1    0    0  501  502  0.00000000000E+00  0.00000000000E+00  0.30076413518E+02  0.30076413518E+02  0.00000000000E+00 0. -1.
         -4   -1    0    0    0  501 -0.00000000000E+00 -0.00000000000E+00 -0.18677960857E+03  0.18678392618E+03  0.12700000000E+01 0. -1.
         25    2    1    2    0    0 -0.17917699997E+02  0.13157335577E+02 -0.14023908743E+03  0.18916847821E+03  0.12499420807E+03 0.  0.
    9000005    1    3    3    0    0  0.10214276623E+02  0.65947057324E+02 -0.66543559670E+02  0.94246438395E+02  0.10000000000E+01 0.  0.
    9000005    1    3    3    0    0 -0.28131976621E+02 -0.52789721747E+02 -0.73695527763E+02  0.94922039817E+02  0.10000000000E+01 0.  0.
         -4    1    1    2    0  502  0.17917699997E+02 -0.13157335577E+02 -0.16464107622E+02  0.27691861484E+02  0.12700000000E+01 0.  1.
<mgrwt>
<rscale>  1 0.12695555E+03</rscale>
<asrwt>0</asrwt>
<pdfrwt beam="1">  1       21 0.46271406E-02 0.12695555E+03</pdfrwt>
<pdfrwt beam="2">  1       -4 0.28737719E-01 0.12695555E+03</pdfrwt>
<totfact> 0.14043608E+05</totfact>
</mgrwt>
</event>
<event>
 6    4  0.6325740E-003  0.1348373E+03  0.7818608E-02  0.1220450E+00
         21   -1    0    0  501  502  0.00000000000E+00  0.00000000000E+00  0.30944343775E+03  0.30944343775E+03  0.00000000000E+00 0. -1.
          4   -1    0    0  502    0 -0.00000000000E+00 -0.00000000000E+00 -0.69204924134E+02  0.69216576225E+02  0.12700000000E+01 0.  1.
         25    2    1    2    0    0 -0.48182657206E+02  0.15388546739E+02  0.17346170788E+01  0.13484841173E+03  0.12499083736E+03 0.  0.
    9000005    1    3    3    0    0 -0.10709187497E+01 -0.51880942417E+02  0.78362586549E+01  0.52489865715E+02  0.10000000000E+01 0.  0.
    9000005    1    3    3    0    0 -0.47111738456E+02  0.67269489156E+02 -0.61016415761E+01  0.82358546015E+02  0.10000000000E+01 0.  0.
          4    1    1    2  501    0  0.48182657206E+02 -0.15388546739E+02  0.23850389654E+03  0.24381160225E+03  0.12700000000E+01 0. -1.
<mgrwt>
<rscale>  1 0.13483725E+03</rscale>
<asrwt>0</asrwt>
<pdfrwt beam="1">  1       21 0.47606682E-01 0.13483725E+03</pdfrwt>
<pdfrwt beam="2">  1        4 0.10648008E-01 0.13483725E+03</pdfrwt>
<totfact> 0.11823149E+04</totfact>
</mgrwt>
</event>
<event>
 6    4  0.6325740E-003  0.1340389E+03  0.7818608E-02  0.1221583E+00
         21   -1    0    0  501  502  0.00000000000E+00  0.00000000000E+00  0.94740111068E+01  0.94740111068E+01  0.00000000000E+00 0.  1.
         -4   -1    0    0    0  501 -0.00000000000E+00 -0.00000000000E+00 -0.11561587581E+04  0.11561594556E+04  0.12700000000E+01 0. -1.
         25    2    1    2    0    0  0.21249885293E+02  0.43476842620E+02 -0.10384685070E+04  0.10470832202E+04  0.12499854555E+03 0.  0.
    9000005    1    3    3    0    0 -0.44602419912E+02 -0.46047234580E+01 -0.21757854098E+03  0.22215310224E+03  0.10000000000E+01 0.  0.
    9000005    1    3    3    0    0  0.65852305205E+02  0.48081566078E+02 -0.82088996606E+03  0.82493011794E+03  0.10000000000E+01 0.  0.
         -4    1    1    2    0  502 -0.21249885293E+02 -0.43476842620E+02 -0.10821623995E+03  0.11855024656E+03  0.12700000000E+01 0.  1.
<mgrwt>
<rscale>  1 0.13403891E+03</rscale>
<asrwt>0</asrwt>
<pdfrwt beam="1">  1       21 0.14575416E-02 0.13403891E+03</pdfrwt>
<pdfrwt beam="2">  1       -4 0.17787701E+00 0.13403891E+03</pdfrwt>
<totfact> 0.16933929E+04</totfact>
</mgrwt>
</event>
<event>
 6    4  0.6325740E-003  0.1351864E+03  0.7818608E-02  0.1219957E+00
          4   -1    0    0  502    0 -0.00000000000E+00  0.00000000000E+00  0.22640749448E+03  0.22641105639E+03  0.12700000000E+01 0. -1.
         21   -1    0    0  501  502  0.00000000000E+00 -0.00000000000E+00 -0.83590560143E+02  0.83590560143E+02  0.00000000000E+00 0.  1.
         25    2    1    2    0    0 -0.51068352078E+02 -0.64412883881E+01  0.19461883868E+03  0.23696383881E+03  0.12500360697E+03 0.  0.
    9000005    1    3    3    0    0 -0.44482609608E+02  0.10280386221E+02  0.43802850742E+01  0.45875655807E+02  0.10000000000E+01 0.  0.
    9000005    1    3    3    0    0 -0.65857424699E+01 -0.16721674609E+02  0.19023855361E+03  0.19108818301E+03  0.10000000000E+01 0.  0.
          4    1    1    2  501    0  0.51068352078E+02  0.64412883881E+01 -0.51801904348E+02  0.73037777719E+02  0.12700000000E+01 0.  1.
<mgrwt>
<rscale>  1 0.13518642E+03</rscale>
<asrwt>0</asrwt>
<pdfrwt beam="2">  1       21 0.12860086E-01 0.13518642E+03</pdfrwt>
<pdfrwt beam="1">  1        4 0.34832938E-01 0.13518642E+03</pdfrwt>
<totfact> 0.16866832E+04</totfact>
</mgrwt>
</event>
<event>
 6    4  0.6325740E-003  0.1288422E+03  0.7818608E-02  0.1229184E+00
         21   -1    0    0  501  502  0.00000000000E+00  0.00000000000E+00  0.42649695597E+02  0.42649695597E+02  0.00000000000E+00 0.  1.
          4   -1    0    0  502    0 -0.00000000000E+00 -0.00000000000E+00 -0.24816499417E+03  0.24816824380E+03  0.12700000000E+01 0.  1.
         25    2    1    2    0    0  0.21906010861E+02 -0.22221017656E+02 -0.60249659984E+02  0.14223339918E+03  0.12500668533E+03 0.  0.
    9000005    1    3    3    0    0  0.61136501050E+02  0.25980550221E+02 -0.35552532138E+02  0.75350137969E+02  0.10000000000E+01 0.  0.
    9000005    1    3    3    0    0 -0.39230490189E+02 -0.48201567876E+02 -0.24697127846E+02  0.66883261210E+02  0.10000000000E+01 0.  0.
          4    1    1    2  501    0 -0.21906010861E+02  0.22221017656E+02 -0.14526563859E+03  0.14858454022E+03  0.12700000000E+01 0. -1.
<mgrwt>
<rscale>  1 0.12884222E+03</rscale>
<asrwt>0</asrwt>
<pdfrwt beam="1">  1       21 0.65614915E-02 0.12884222E+03</pdfrwt>
<pdfrwt beam="2">  1        4 0.38180935E-01 0.12884222E+03</pdfrwt>
<totfact> 0.45317652E+04</totfact>
</mgrwt>
</event>
<event>
 6    4  0.6325740E-003  0.1267243E+03  0.7818608E-02  0.1232399E+00
         21   -1    0    0  501  502  0.00000000000E+00  0.00000000000E+00  0.36795764189E+02  0.36795764189E+02  0.00000000000E+00 0.  1.
          4   -1    0    0  502    0 -0.00000000000E+00 -0.00000000000E+00 -0.15345964097E+03  0.15346489601E+03  0.12700000000E+01 0.  1.
         25    2    1    2    0    0  0.15201782268E+02  0.14255495451E+02 -0.85950798716E+02  0.15312281698E+03  0.12499897577E+03 0.  0.
    9000005    1    3    3    0    0 -0.82286776895E+01  0.67427929587E+02 -0.54152135643E+02  0.86877445978E+02  0.10000000000E+01 0.  0.
    9000005    1    3    3    0    0  0.23430459957E+02 -0.53172434136E+02 -0.31798663073E+02  0.66245371000E+02  0.10000000000E+01 0.  0.
          4    1    1    2  501    0 -0.15201782268E+02 -0.14255495451E+02 -0.30713078065E+02  0.37137843218E+02  0.12700000000E+01 0. -1.
<mgrwt>
<rscale>  1 0.12672434E+03</rscale>
<asrwt>0</asrwt>
<pdfrwt beam="1">  1       21 0.56608868E-02 0.12672434E+03</pdfrwt>
<pdfrwt beam="2">  1        4 0.23611266E-01 0.12672434E+03</pdfrwt>
<totfact> 0.14397798E+05</totfact>
</mgrwt>
</event>
<event>
 6    4  0.6325740E-003  0.1299680E+03  0.7818608E-02  0.1227503E+00
         21   -1    0    0  501  502  0.00000000000E+00  0.00000000000E+00  0.23145019744E+02  0.23145019744E+02  0.00000000000E+00 0. -1.
         -4   -1    0    0    0  501 -0.00000000000E+00 -0.00000000000E+00 -0.29698345738E+03  0.29698617284E+03  0.12700000000E+01 0. -1.
         25    2    1    2    0    0 -0.26812575331E+02 -0.23418272709E+02 -0.20777505732E+03  0.24507579430E+03  0.12499736323E+03 0.  0.
    9000005    1    3    3    0    0 -0.77125138338E+02 -0.99808284884E+01 -0.11951835837E+03  0.14259572886E+03  0.10000000000E+01 0.  0.
    9000005    1    3    3    0    0  0.50312563007E+02 -0.13437444221E+02 -0.88256698952E+02  0.10248006544E+03  0.10000000000E+01 0.  0.
         -4    1    1    2    0  502  0.26812575331E+02  0.23418272709E+02 -0.66063380313E+02  0.75055398280E+02  0.12700000000E+01 0.  1.
<mgrwt>
<rscale>  1 0.12996796E+03</rscale>
<asrwt>0</asrwt>
<pdfrwt beam="1">  1       21 0.35607726E-02 0.12996796E+03</pdfrwt>
<pdfrwt beam="2">  1       -4 0.45692647E-01 0.12996796E+03</pdfrwt>
<totfact> 0.88652856E+04</totfact>
</mgrwt>
</event>
<event>
 6    4  0.6325740E-003  0.1278936E+03  0.7818608E-02  0.1230615E+00
          4   -1    0    0  502    0 -0.00000000000E+00  0.00000000000E+00  0.11034290988E+03  0.11035021822E+03  0.12700000000E+01 0.  1.
         21   -1    0    0  501  502  0.00000000000E+00 -0.00000000000E+00 -0.63545326738E+02  0.63545326738E+02  0.00000000000E+00 0.  1.
         25    2    1    2    0    0  0.41145635349E+01  0.26747266245E+02  0.62747848437E+02  0.14245719660E+03  0.12499765796E+03 0.  0.
    9000005    1    3    3    0    0  0.16828517689E+02  0.43693869510E+02  0.93806594843E+02  0.10484765365E+03  0.10000000000E+01 0.  0.
    9000005    1    3    3    0    0 -0.12713954154E+02 -0.16946603265E+02 -0.31058746405E+02  0.37609542947E+02  0.10000000000E+01 0.  0.
          4    1    1    2  501    0 -0.41145635349E+01 -0.26747266245E+02 -0.15950265294E+02  0.31438348360E+02  0.12700000000E+01 0. -1.
<mgrwt>
<rscale>  1 0.12789355E+03</rscale>
<asrwt>0</asrwt>
<pdfrwt beam="2">  1       21 0.97762042E-02 0.12789355E+03</pdfrwt>
<pdfrwt beam="1">  1        4 0.16977371E-01 0.12789355E+03</pdfrwt>
<totfact> 0.10208974E+05</totfact>
</mgrwt>
</event>
<event>
 6    4  0.6325740E-003  0.1347013E+03  0.7818608E-02  0.1220642E+00
         21   -1    0    0  501  502  0.00000000000E+00  0.00000000000E+00  0.61716940807E+02  0.61716940807E+02  0.00000000000E+00 0.  1.
          4   -1    0    0  502    0 -0.00000000000E+00 -0.00000000000E+00 -0.13870003358E+03  0.13870584781E+03  0.12700000000E+01 0.  1.
         25    2    1    2    0    0 -0.37174165745E+02  0.33738586675E+02 -0.59384440793E+02  0.14721060691E+03  0.12499696056E+03 0.  0.
    9000005    1    3    3    0    0  0.21310541447E+02 -0.85634526083E+01 -0.70517878252E+02  0.74170365043E+02  0.10000000000E+01 0.  0.
    9000005    1    3    3    0    0 -0.58484707192E+02  0.42302039283E+02  0.11133437460E+02  0.73040241871E+02  0.10000000000E+01 0.  0.
          4    1    1    2  501    0  0.37174165745E+02 -0.33738586675E+02 -0.17598651984E+02  0.53212181700E+02  0.12700000000E+01 0. -1.
<mgrwt>
<rscale>  1 0.13470134E+03</rscale>
<asrwt>0</asrwt>
<pdfrwt beam="1">  1       21 0.94949142E-02 0.13470134E+03</pdfrwt>
<pdfrwt beam="2">  1        4 0.21339919E-01 0.13470134E+03</pdfrwt>
<totfact> 0.71880307E+04</totfact>
</mgrwt>
</event>
<event>
 6    4  0.6325740E-003  0.1304954E+03  0.7818608E-02  0.1226723E+00
          4   -1    0    0  502    0 -0.00000000000E+00  0.00000000000E+00  0.12516081079E+03  0.12516725393E+03  0.12700000000E+01 0.  1.
         21   -1    0    0  501  502  0.00000000000E+00 -0.00000000000E+00 -0.82568794644E+02  0.82568794644E+02  0.00000000000E+00 0. -1.
         25    2    1    2    0    0 -0.43966789771E+01  0.37185412002E+02  0.81393628618E+02  0.15379845795E+03  0.12500782870E+03 0.  0.
    9000005    1    3    3    0    0  0.49992447870E+02  0.23627643340E+02  0.80577098170E+02  0.97730134162E+02  0.10000000000E+01 0.  0.
    9000005    1    3    3    0    0 -0.54389126847E+02  0.13557768662E+02  0.81653044844E+00  0.56068323787E+02  0.10000000000E+01 0.  0.
          4    1    1    2  501    0  0.43966789771E+01 -0.37185412002E+02 -0.38801612477E+02  0.53937590626E+02  0.12700000000E+01 0. -1.
<mgrwt>
<rscale>  1 0.13049537E+03</rscale>
<asrwt>0</asrwt>
<pdfrwt beam="2">  1       21 0.12702892E-01 0.13049537E+03</pdfrwt>
<pdfrwt beam="1">  1        4 0.19256756E-01 0.13049537E+03</pdfrwt>
<totfact> 0.51578260E+04</totfact>
</mgrwt>
</event>
<event>
 6    4  0.6325740E-003  0.1310493E+03  0.7818608E-02  0.1225907E+00
         -4   -1    0    0    0  501 -0.00000000000E+00  0.00000000000E+00  0.37776006383E+03  0.37776219864E+03  0.12700000000E+01 0.  1.
         21   -1    0    0  501  502  0.00000000000E+00 -0.00000000000E+00 -0.48421276080E+02  0.48421276080E+02  0.00000000000E+00 0. -1.
         25    2    1    2    0    0  0.21863583442E+02 -0.32727526807E+02  0.35551399909E+03  0.37889857353E+03  0.12499927273E+03 0.  0.
    9000005    1    3    3    0    0  0.28846173344E+02  0.41579412810E+02  0.20136776457E+03  0.20763170735E+03  0.10000000000E+01 0.  0.
    9000005    1    3    3    0    0 -0.69825899014E+01 -0.74306939618E+02  0.15414623451E+03  0.17126686618E+03  0.10000000000E+01 0.  0.
         -4    1    1    2    0  502 -0.21863583442E+02  0.32727526807E+02 -0.26175211343E+02  0.47284901192E+02  0.12700000000E+01 0. -1.
<mgrwt>
<rscale>  1 0.13104932E+03</rscale>
<asrwt>0</asrwt>
<pdfrwt beam="2">  1       21 0.74494273E-02 0.13104932E+03</pdfrwt>
<pdfrwt beam="1">  1       -4 0.58118376E-01 0.13104932E+03</pdfrwt>
<totfact> 0.15659538E+04</totfact>
</mgrwt>
</event>
<event>
 6    4  0.6325740E-003  0.1311696E+03  0.7818608E-02  0.1225731E+00
         21   -1    0    0  501  502  0.00000000000E+00  0.00000000000E+00  0.30448793667E+02  0.30448793667E+02  0.00000000000E+00 0.  1.
          4   -1    0    0  502    0 -0.00000000000E+00 -0.00000000000E+00 -0.79517644557E+03  0.79517745975E+03  0.12700000000E+01 0. -1.
         25    2    1    2    0    0 -0.39574059264E+02 -0.37580392048E+01 -0.77379461728E+03  0.78483346256E+03  0.12500090077E+03 0.  0.
    9000005    1    3    3    0    0  0.45114640681E+02 -0.29610092728E+01 -0.32307699098E+03  0.32622667040E+03  0.10000000000E+01 0.  0.
    9000005    1    3    3    0    0 -0.84688699945E+02 -0.79702993206E+00 -0.45071762630E+03  0.45860679216E+03  0.10000000000E+01 0.  0.
          4    1    1    2  501    0  0.39574059264E+02  0.37580392048E+01  0.90669653710E+01  0.40792790863E+02  0.12700000000E+01 0.  1.
<mgrwt>
<rscale>  1 0.13116956E+03</rscale>
<asrwt>0</asrwt>
<pdfrwt beam="1">  1       21 0.46844304E-02 0.13116956E+03</pdfrwt>
<pdfrwt beam="2">  1        4 0.12233694E+00 0.13116956E+03</pdfrwt>
<totfact> 0.65049153E+03</totfact>
</mgrwt>
</event>
<event>
 6    4  0.6325740E-003  0.1269803E+03  0.7818608E-02  0.1232006E+00
          4   -1    0    0  502    0 -0.00000000000E+00  0.00000000000E+00  0.67744393497E+02  0.67756296758E+02  0.12700000000E+01 0. -1.
         21   -1    0    0  501  502  0.00000000000E+00 -0.00000000000E+00 -0.82290000449E+02  0.82290000449E+02  0.00000000000E+00 0. -1.
         25    2    1    2    0    0 -0.12975002671E+02 -0.18136964262E+02 -0.11430499944E+02  0.12749375946E+03  0.12500680864E+03 0.  0.
    9000005    1    3    3    0    0  0.86193661948E+01  0.22431877005E+02  0.47209604963E+02  0.52983293408E+02  0.10000000000E+01 0.  0.
    9000005    1    3    3    0    0 -0.21594368866E+02 -0.40568841267E+02 -0.58640104907E+02  0.74510466057E+02  0.10000000000E+01 0.  0.
          4    1    1    2  501    0  0.12975002671E+02  0.18136964262E+02 -0.31151070076E+01  0.22552537742E+02  0.12700000000E+01 0.  1.
<mgrwt>
<rscale>  1 0.12698032E+03</rscale>
<asrwt>0</asrwt>
<pdfrwt beam="2">  1       21 0.12660000E-01 0.12698032E+03</pdfrwt>
<pdfrwt beam="1">  1        4 0.10423884E-01 0.12698032E+03</pdfrwt>
<totfact> 0.15002619E+05</totfact>
</mgrwt>
</event>
<event>
 6    4  0.6325740E-003  0.1284951E+03  0.7818608E-02  0.1229706E+00
         21   -1    0    0  501  502  0.00000000000E+00  0.00000000000E+00  0.21621057583E+02  0.21621057583E+02  0.00000000000E+00 0. -1.
          4   -1    0    0  502    0 -0.00000000000E+00 -0.00000000000E+00 -0.44464480904E+03  0.44464662273E+03  0.12700000000E+01 0.  1.
         25    2    1    2    0    0  0.22163456173E+02  0.19896970386E+02 -0.41633782787E+03  0.43571571321E+03  0.12499555031E+03 0.  0.
    9000005    1    3    3    0    0  0.56481909200E+02  0.55249930980E+02 -0.24454033392E+03  0.25698975827E+03  0.10000000000E+01 0.  0.
    9000005    1    3    3    0    0 -0.34318453027E+02 -0.35352960594E+02 -0.17179749395E+03  0.17872595494E+03  0.10000000000E+01 0.  0.
          4    1    1    2  501    0 -0.22163456173E+02 -0.19896970386E+02 -0.66859235858E+01  0.30551967109E+02  0.12700000000E+01 0. -1.
<mgrwt>
<rscale>  1 0.12849512E+03</rscale>
<asrwt>0</asrwt>
<pdfrwt beam="1">  1       21 0.33263168E-02 0.12849512E+03</pdfrwt>
<pdfrwt beam="2">  1        4 0.68409898E-01 0.12849512E+03</pdfrwt>
<totfact> 0.42886814E+04</totfact>
</mgrwt>
</event>
<event>
 6    4  0.6325740E-003  0.1294825E+03  0.7818608E-02  0.1228226E+00
          4   -1    0    0  502    0 -0.00000000000E+00  0.00000000000E+00  0.10886997744E+04  0.10887005151E+04  0.12700000000E+01 0.  1.
         21   -1    0    0  501  502  0.00000000000E+00 -0.00000000000E+00 -0.96871307913E+01  0.96871307913E+01  0.00000000000E+00 0. -1.
         25    2    1    2    0    0  0.22595133605E+02  0.25118390817E+02  0.10340834423E+04  0.10421584751E+04  0.12499699199E+03 0.  0.
    9000005    1    3    3    0    0  0.45527967272E+01  0.28291294224E+01 -0.19026277540E+01  0.57751124404E+01  0.10000000000E+01 0.  0.
    9000005    1    3    3    0    0  0.18042336878E+02  0.22289261394E+02  0.10359860701E+04  0.10363833627E+04  0.10000000000E+01 0.  0.
          4    1    1    2  501    0 -0.22595133605E+02 -0.25118390817E+02  0.44929201279E+02  0.56229170787E+02  0.12700000000E+01 0. -1.
<mgrwt>
<rscale>  1 0.12948251E+03</rscale>
<asrwt>0</asrwt>
<pdfrwt beam="2">  1       21 0.14903287E-02 0.12948251E+03</pdfrwt>
<pdfrwt beam="1">  1        4 0.16749864E+00 0.12948251E+03</pdfrwt>
<totfact> 0.19126569E+04</totfact>
</mgrwt>
</event>
<event>
 6    4  0.6325740E-003  0.1271381E+03  0.7818608E-02  0.1231765E+00
         -4   -1    0    0    0  501 -0.00000000000E+00  0.00000000000E+00  0.40333966887E+01  0.42286154766E+01  0.12700000000E+01 0.  1.
         21   -1    0    0  501  502  0.00000000000E+00 -0.00000000000E+00 -0.21081901259E+04  0.21081901259E+04  0.00000000000E+00 0.  1.
         25    2    1    2    0    0  0.10570707553E+02  0.20619890285E+02 -0.10040706238E+04  0.10120878948E+04  0.12500867757E+03 0.  0.
    9000005    1    3    3    0    0  0.63404021377E+02 -0.11724063835E+02 -0.45911126454E+03  0.46361802902E+03  0.10000000000E+01 0.  0.
    9000005    1    3    3    0    0 -0.52833313824E+02  0.32343954119E+02 -0.54495935926E+03  0.54846986577E+03  0.10000000000E+01 0.  0.
         -4    1    1    2    0  502 -0.10570707553E+02 -0.20619890285E+02 -0.11000861054E+04  0.11003308466E+04  0.12700000000E+01 0. -1.
<mgrwt>
<rscale>  1 0.12713807E+03</rscale>
<asrwt>0</asrwt>
<pdfrwt beam="2">  1       21 0.32433785E+00 0.12713807E+03</pdfrwt>
<pdfrwt beam="1">  1       -4 0.63556705E-03 0.12713807E+03</pdfrwt>
<totfact> 0.62226619E+03</totfact>
</mgrwt>
</event>
<event>
 6    4  0.6325740E-003  0.1272150E+03  0.7818608E-02  0.1231648E+00
         -4   -1    0    0    0  501 -0.00000000000E+00  0.00000000000E+00  0.97886092447E+01  0.98706520020E+01  0.12700000000E+01 0. -1.
         21   -1    0    0  501  502  0.00000000000E+00 -0.00000000000E+00 -0.58025286152E+03  0.58025286152E+03  0.00000000000E+00 0. -1.
         25    2    1    2    0    0  0.21869129900E+02 -0.89902695757E+01 -0.47075818508E+03  0.48764426428E+03  0.12499830349E+03 0.  0.
    9000005    1    3    3    0    0  0.71628721319E+02 -0.49647409314E+01 -0.34381968744E+03  0.35123823801E+03  0.10000000000E+01 0.  0.
    9000005    1    3    3    0    0 -0.49759591419E+02 -0.40255286443E+01 -0.12693849763E+03  0.13640602626E+03  0.10000000000E+01 0.  0.
         -4    1    1    2    0  502 -0.21869129900E+02  0.89902695757E+01 -0.99706067199E+02  0.10247924925E+03  0.12700000000E+01 0.  1.
<mgrwt>
<rscale>  1 0.12721501E+03</rscale>
<asrwt>0</asrwt>
<pdfrwt beam="2">  1       21 0.89269700E-01 0.12721501E+03</pdfrwt>
<pdfrwt beam="1">  1       -4 0.15123573E-02 0.12721501E+03</pdfrwt>
<totfact> 0.67986416E+04</totfact>
</mgrwt>
</event>
<event>
 6    4  0.6325740E-003  0.1272255E+03  0.7818608E-02  0.1231632E+00
          4   -1    0    0  502    0 -0.00000000000E+00  0.00000000000E+00  0.16594494739E+03  0.16594980707E+03  0.12700000000E+01 0. -1.
         21   -1    0    0  501  502  0.00000000000E+00 -0.00000000000E+00 -0.35565507956E+02  0.35565507956E+02  0.00000000000E+00 0. -1.
         25    2    1    2    0    0 -0.20039249290E+02  0.12586906186E+02  0.12230531361E+03  0.17647921853E+03  0.12500529236E+03 0.  0.
    9000005    1    3    3    0    0 -0.26149067188E+02  0.65025402457E+02  0.91792481829E+02  0.11549431328E+03  0.10000000000E+01 0.  0.
    9000005    1    3    3    0    0  0.61098178978E+01 -0.52438496270E+02  0.30512831779E+02  0.60984905255E+02  0.10000000000E+01 0.  0.
          4    1    1    2  501    0  0.20039249290E+02 -0.12586906186E+02  0.80741258285E+01  0.25036096488E+02  0.12700000000E+01 0.  1.
<mgrwt>
<rscale>  1 0.12722549E+03</rscale>
<asrwt>0</asrwt>
<pdfrwt beam="2">  1       21 0.54716167E-02 0.12722549E+03</pdfrwt>
<pdfrwt beam="1">  1        4 0.25532109E-01 0.12722549E+03</pdfrwt>
<totfact> 0.13213172E+05</totfact>
</mgrwt>
</event>
<event>
 6    4  0.6325740E-003  0.1274882E+03  0.7818608E-02  0.1231231E+00
         -4   -1    0    0    0  501 -0.00000000000E+00  0.00000000000E+00  0.22567876604E+02  0.22603582778E+02  0.12700000000E+01 0.  1.
         21   -1    0    0  501  502  0.00000000000E+00 -0.00000000000E+00 -0.27931003325E+03  0.27931003325E+03  0.00000000000E+00 0.  1.
         25    2    1    2    0    0  0.33949581320E+01  0.24577173832E+02 -0.17523025839E+03  0.21669996881E+03  0.12505066899E+03 0.  0.
    9000005    1    3    3    0    0  0.42967105812E+01  0.47076706089E+01 -0.19111616647E+03  0.19122503228E+03  0.10000000000E+01 0.  0.
    9000005    1    3    3    0    0 -0.90175244926E+00  0.19869503223E+02  0.15885908080E+02  0.25474936533E+02  0.10000000000E+01 0.  0.
         -4    1    1    2    0  502 -0.33949581320E+01 -0.24577173832E+02 -0.81511898254E+02  0.85213647213E+02  0.12700000000E+01 0. -1.
<mgrwt>
<rscale>  1 0.12748817E+03</rscale>
<asrwt>0</asrwt>
<pdfrwt beam="2">  1       21 0.42970773E-01 0.12748817E+03</pdfrwt>
<pdfrwt beam="1">  1       -4 0.34749498E-02 0.12748817E+03</pdfrwt>
<totfact> 0.89676012E+04</totfact>
</mgrwt>
</event>
<event>
 6    4  0.6325740E-003  0.1270134E+03  0.7818608E-02  0.1231956E+00
          4   -1    0    0  502    0 -0.00000000000E+00  0.00000000000E+00  0.31374061766E+03  0.31374318809E+03  0.12700000000E+01 0. -1.
         21   -1    0    0  501  502  0.00000000000E+00 -0.00000000000E+00 -0.20392586673E+02  0.20392586673E+02  0.00000000000E+00 0. -1.
         25    2    1    2    0    0 -0.17877402501E+01  0.22420363256E+02  0.28117077300E+03  0.30852782256E+03  0.12500617985E+03 0.  0.
    9000005    1    3    3    0    0  0.37382430047E+02 -0.30981116308E+02  0.18827694452E+03  0.19443889396E+03  0.10000000000E+01 0.  0.
    9000005    1    3    3    0    0 -0.39170170297E+02  0.53401479564E+02  0.92893828478E+02  0.11408892860E+03  0.10000000000E+01 0.  0.
          4    1    1    2  501    0  0.17877402501E+01 -0.22420363256E+02  0.12177257986E+02  0.25607952198E+02  0.12700000000E+01 0.  1.
<mgrwt>
<rscale>  1 0.12701344E+03</rscale>
<asrwt>0</asrwt>
<pdfrwt beam="2">  1       21 0.31373213E-02 0.12701344E+03</pdfrwt>
<pdfrwt beam="1">  1        4 0.48271023E-01 0.12701344E+03</pdfrwt>
<totfact> 0.97450366E+04</totfact>
</mgrwt>
</event>
<event>
 6    4  0.6325740E-003  0.1278138E+03  0.7818608E-02  0.1230736E+00
          4   -1    0    0  502    0 -0.00000000000E+00  0.00000000000E+00  0.10219409613E+03  0.10220198718E+03  0.12700000000E+01 0.  1.
         21   -1    0    0  501  502  0.00000000000E+00 -0.00000000000E+00 -0.59625859760E+02  0.59625859760E+02  0.00000000000E+00 0.  1.
         25    2    1    2    0    0  0.11096318734E+02 -0.24257552774E+02  0.43756378923E+02  0.13509618521E+03  0.12499920562E+03 0.  0.
    9000005    1    3    3    0    0  0.52350455750E+01  0.34265470442E+02 -0.26369835948E+02  0.43564852975E+02  0.10000000000E+01 0.  0.
    9000005    1    3    3    0    0  0.58612731591E+01 -0.58523023216E+02  0.70126214871E+02  0.91531332239E+02  0.10000000000E+01 0.  0.
          4    1    1    2  501    0 -0.11096318734E+02  0.24257552774E+02 -0.11881425519E+01  0.26731661728E+02  0.12700000000E+01 0. -1.
<mgrwt>
<rscale>  1 0.12781377E+03</rscale>
<asrwt>0</asrwt>
<pdfrwt beam="2">  1       21 0.91732092E-02 0.12781377E+03</pdfrwt>
<pdfrwt beam="1">  1        4 0.15723816E-01 0.12781377E+03</pdfrwt>
<totfact> 0.13052894E+05</totfact>
</mgrwt>
</event>
<event>
 6    4  0.6325740E-003  0.1479613E+03  0.7818608E-02  0.1203001E+00
          4   -1    0    0  502    0 -0.00000000000E+00  0.00000000000E+00  0.25305230443E+02  0.25337079306E+02  0.12700000000E+01 0.  1.
         21   -1    0    0  501  502  0.00000000000E+00 -0.00000000000E+00 -0.51486468367E+03  0.51486468367E+03  0.00000000000E+00 0.  1.
         25    2    1    2    0    0 -0.17747098082E+02 -0.77151328473E+02 -0.29147376905E+03  0.32687844463E+03  0.12500109016E+03 0.  0.
    9000005    1    3    3    0    0 -0.20341823040E+02 -0.10843133884E+03 -0.18050595437E+03  0.21155269928E+03  0.10000000000E+01 0.  0.
    9000005    1    3    3    0    0  0.25947249576E+01  0.31280010368E+02 -0.11096781467E+03  0.11532574535E+03  0.10000000000E+01 0.  0.
          4    1    1    2  501    0  0.17747098082E+02  0.77151328473E+02 -0.19808568417E+03  0.21332331835E+03  0.12700000000E+01 0. -1.
<mgrwt>
<rscale>  1 0.14796134E+03</rscale>
<asrwt>0</asrwt>
<pdfrwt beam="2">  1       21 0.79209952E-01 0.14796134E+03</pdfrwt>
<pdfrwt beam="1">  1        4 0.38956827E-02 0.14796134E+03</pdfrwt>
<totfact> 0.20763358E+04</totfact>
</mgrwt>
</event>
<event>
 6    4  0.6325740E-003  0.1276740E+03  0.7818608E-02  0.1230948E+00
         -4   -1    0    0    0  501 -0.00000000000E+00  0.00000000000E+00  0.57704707496E+02  0.57718681267E+02  0.12700000000E+01 0. -1.
         21   -1    0    0  501  502  0.00000000000E+00 -0.00000000000E+00 -0.10309427860E+03  0.10309427860E+03  0.00000000000E+00 0. -1.
         25    2    1    2    0    0 -0.26105861264E+02 -0.17535739360E+01 -0.41968700090E+02  0.13439504412E+03  0.12496425522E+03 0.  0.
    9000005    1    3    3    0    0  0.34400423873E+02 -0.33664419341E+02  0.91363826709E+01  0.49001589571E+02  0.10000000000E+01 0.  0.
    9000005    1    3    3    0    0 -0.60506285137E+02  0.31910845405E+02 -0.51105082761E+02  0.85393454548E+02  0.10000000000E+01 0.  0.
         -4    1    1    2    0  502  0.26105861264E+02  0.17535739360E+01 -0.34208710112E+01  0.26417915746E+02  0.12700000000E+01 0.  1.
<mgrwt>
<rscale>  1 0.12767402E+03</rscale>
<asrwt>0</asrwt>
<pdfrwt beam="2">  1       21 0.15860658E-01 0.12767402E+03</pdfrwt>
<pdfrwt beam="1">  1       -4 0.88793240E-02 0.12767402E+03</pdfrwt>
<totfact> 0.13114252E+05</totfact>
</mgrwt>
</event>
<event>
 6    4  0.6325740E-003  0.1273752E+03  0.7818608E-02  0.1231403E+00
         -4   -1    0    0    0  501 -0.00000000000E+00  0.00000000000E+00  0.63687778660E+02  0.63700439956E+02  0.12700000000E+01 0.  1.
         21   -1    0    0  501  502  0.00000000000E+00 -0.00000000000E+00 -0.16719705291E+03  0.16719705291E+03  0.00000000000E+00 0. -1.
         25    2    1    2    0    0  0.42788556646E+01  0.24076455366E+02 -0.29600252676E+01  0.12740957724E+03  0.12500581713E+03 0.  0.
    9000005    1    3    3    0    0 -0.42881219850E+00  0.62801707118E+02  0.35892513559E+02  0.72343008137E+02  0.10000000000E+01 0.  0.
    9000005    1    3    3    0    0  0.47076678631E+01 -0.38725251752E+02 -0.38852538827E+02  0.55066569107E+02  0.10000000000E+01 0.  0.
         -4    1    1    2    0  502 -0.42788556646E+01 -0.24076455366E+02 -0.10054924898E+03  0.10348791562E+03  0.12700000000E+01 0. -1.
<mgrwt>
<rscale>  1 0.12737519E+03</rscale>
<asrwt>0</asrwt>
<pdfrwt beam="2">  1       21 0.25722623E-01 0.12737519E+03</pdfrwt>
<pdfrwt beam="1">  1       -4 0.97994648E-02 0.12737519E+03</pdfrwt>
<totfact> 0.45425501E+04</totfact>
</mgrwt>
</event>
<event>
 6    4  0.6325740E-003  0.1267107E+03  0.7818608E-02  0.1232420E+00
         21   -1    0    0  501  502  0.00000000000E+00  0.00000000000E+00  0.10400600154E+02  0.10400600154E+02  0.00000000000E+00 0.  1.
         -4   -1    0    0    0  501 -0.00000000000E+00 -0.00000000000E+00 -0.97624328913E+03  0.97624411521E+03  0.12700000000E+01 0. -1.
         25    2    1    2    0    0  0.10405700781E+02 -0.17956459018E+02 -0.95466675999E+03  0.96303905253E+03  0.12499952411E+03 0.  0.
    9000005    1    3    3    0    0 -0.61815746566E+00  0.22321420202E+02 -0.85071628335E+03  0.85100988401E+03  0.10000000000E+01 0.  0.
    9000005    1    3    3    0    0  0.11023858247E+02 -0.40277879220E+02 -0.10395047664E+03  0.11202916852E+03  0.10000000000E+01 0.  0.
         -4    1    1    2    0  502 -0.10405700781E+02  0.17956459018E+02 -0.11175928986E+02  0.23605662836E+02  0.12700000000E+01 0.  1.
<mgrwt>
<rscale>  1 0.12671067E+03</rscale>
<asrwt>0</asrwt>
<pdfrwt beam="1">  1       21 0.16000931E-02 0.12671067E+03</pdfrwt>
<pdfrwt beam="2">  1       -4 0.15019723E+00 0.12671067E+03</pdfrwt>
<totfact> 0.22593096E+04</totfact>
</mgrwt>
</event>
<event>
 6    4  0.6325740E-003  0.1297411E+03  0.7818608E-02  0.1227840E+00
         21   -1    0    0  501  502  0.00000000000E+00  0.00000000000E+00  0.18130850632E+03  0.18130850632E+03  0.00000000000E+00 0.  1.
         -4   -1    0    0    0  501 -0.00000000000E+00 -0.00000000000E+00 -0.75422369541E+02  0.75433061234E+02  0.12700000000E+01 0. -1.
         25    2    1    2    0    0  0.30401762384E+02  0.16836442013E+02 -0.15322621324E+02  0.13064276155E+03  0.12500006194E+03 0.  0.
    9000005    1    3    3    0    0  0.12786054677E+02  0.58436484625E+02 -0.46475160506E+02  0.75757814604E+02  0.10000000000E+01 0.  0.
    9000005    1    3    3    0    0  0.17615707707E+02 -0.41600042612E+02  0.31152539182E+02  0.54884946942E+02  0.10000000000E+01 0.  0.
         -4    1    1    2    0  502 -0.30401762384E+02 -0.16836442013E+02  0.12120875810E+03  0.12609880600E+03  0.12700000000E+01 0.  1.
<mgrwt>
<rscale>  1 0.12974108E+03</rscale>
<asrwt>0</asrwt>
<pdfrwt beam="1">  1       21 0.27893616E-01 0.12974108E+03</pdfrwt>
<pdfrwt beam="2">  1       -4 0.11604606E-01 0.12974108E+03</pdfrwt>
<totfact> 0.29307720E+04</totfact>
</mgrwt>
</event>
<event>
 6    4  0.6325740E-003  0.1267075E+03  0.7818608E-02  0.1232425E+00
         21   -1    0    0  501  502  0.00000000000E+00  0.00000000000E+00  0.64564611648E+02  0.64564611648E+02  0.00000000000E+00 0. -1.
          4   -1    0    0  502    0 -0.00000000000E+00 -0.00000000000E+00 -0.13009163223E+03  0.13009783117E+03  0.12700000000E+01 0.  1.
         25    2    1    2    0    0 -0.11024946891E+02 -0.17561818213E+02 -0.95167559562E+02  0.15846656786E+03  0.12499928730E+03 0.  0.
    9000005    1    3    3    0    0 -0.15608303241E+02  0.74601670425E+01 -0.12097844991E+03  0.12221316854E+03  0.10000000000E+01 0.  0.
    9000005    1    3    3    0    0  0.45833563501E+01 -0.25021985255E+02  0.25810890351E+02  0.36253399320E+02  0.10000000000E+01 0.  0.
          4    1    1    2  501    0  0.11024946891E+02  0.17561818213E+02  0.29640538980E+02  0.36195874958E+02  0.12700000000E+01 0. -1.
<mgrwt>
<rscale>  1 0.12670749E+03</rscale>
<asrwt>0</asrwt>
<pdfrwt beam="1">  1       21 0.99330172E-02 0.12670749E+03</pdfrwt>
<pdfrwt beam="2">  1        4 0.20015535E-01 0.12670749E+03</pdfrwt>
<totfact> 0.73966042E+04</totfact>
</mgrwt>
</event>
<event>
 6    4  0.6325740E-003  0.1276524E+03  0.7818608E-02  0.1230981E+00
          4   -1    0    0  502    0 -0.00000000000E+00  0.00000000000E+00  0.62199577386E+02  0.62212541557E+02  0.12700000000E+01 0.  1.
         21   -1    0    0  501  502  0.00000000000E+00 -0.00000000000E+00 -0.28505750560E+03  0.28505750560E+03  0.00000000000E+00 0. -1.
         25    2    1    2    0    0  0.81244406997E+01 -0.24582639608E+02 -0.48688659323E+01  0.12774520373E+03  0.12499927405E+03 0.  0.
    9000005    1    3    3    0    0 -0.11667436192E+02  0.44980329653E+02  0.20898559384E+02  0.50961837755E+02  0.10000000000E+01 0.  0.
    9000005    1    3    3    0    0  0.19791876892E+02 -0.69562969261E+02 -0.25767425316E+02  0.76783365977E+02  0.10000000000E+01 0.  0.
          4    1    1    2  501    0 -0.81244406997E+01  0.24582639608E+02 -0.21798906228E+03  0.21952484343E+03  0.12700000000E+01 0. -1.
<mgrwt>
<rscale>  1 0.12765238E+03</rscale>
<asrwt>0</asrwt>
<pdfrwt beam="2">  1       21 0.43855001E-01 0.12765238E+03</pdfrwt>
<pdfrwt beam="1">  1        4 0.95703807E-02 0.12765238E+03</pdfrwt>
<totfact> 0.16651873E+04</totfact>
</mgrwt>
</event>
<event>
 6    4  0.6325740E-003  0.1302511E+03  0.7818608E-02  0.1227084E+00
         21   -1    0    0  501  502  0.00000000000E+00  0.00000000000E+00  0.12701016704E+02  0.12701016704E+02  0.00000000000E+00 0. -1.
         -4   -1    0    0    0  501 -0.00000000000E+00 -0.00000000000E+00 -0.55909007961E+03  0.55909152204E+03  0.12700000000E+01 0. -1.
         25    2    1    2    0    0 -0.33751456652E+02 -0.14090209116E+02 -0.38988093794E+03  0.41106263829E+03  0.12501060760E+03 0.  0.
    9000005    1    3    3    0    0 -0.63069240115E+02 -0.51420616016E+02 -0.21619206689E+03  0.23100177182E+03  0.10000000000E+01 0.  0.
    9000005    1    3    3    0    0  0.29317783463E+02  0.37330406900E+02 -0.17368887105E+03  0.18006086647E+03  0.10000000000E+01 0.  0.
         -4    1    1    2    0  502  0.33751456652E+02  0.14090209116E+02 -0.15650812497E+03  0.16072990045E+03  0.12700000000E+01 0.  1.
<mgrwt>
<rscale>  1 0.13025109E+03</rscale>
<asrwt>0</asrwt>
<pdfrwt beam="1">  1       21 0.19540027E-02 0.13025109E+03</pdfrwt>
<pdfrwt beam="2">  1       -4 0.86018849E-01 0.13025109E+03</pdfrwt>
<totfact> 0.61879569E+04</totfact>
</mgrwt>
</event>
<event>
 6    4  0.6325740E-003  0.1603332E+03  0.7818608E-02  0.1188321E+00
          4   -1    0    0  502    0 -0.00000000000E+00  0.00000000000E+00  0.98944485252E+03  0.98944566757E+03  0.12700000000E+01 0. -1.
         21   -1    0    0  501  502  0.00000000000E+00 -0.00000000000E+00 -0.17196181723E+02  0.17196181723E+02  0.00000000000E+00 0.  1.
         25    2    1    2    0    0  0.79743851009E+02  0.61014357433E+02  0.58200665021E+03  0.60368740880E+03  0.12499965226E+03 0.  0.
    9000005    1    3    3    0    0  0.28535973453E+02  0.94681726151E+02  0.34660469274E+03  0.36043687947E+03  0.10000000000E+01 0.  0.
    9000005    1    3    3    0    0  0.51207877555E+02 -0.33667368718E+02  0.23540195747E+03  0.24325052933E+03  0.10000000000E+01 0.  0.
          4    1    1    2  501    0 -0.79743851009E+02 -0.61014357433E+02  0.39024202058E+03  0.40295444050E+03  0.12700000000E+01 0.  1.
<mgrwt>
<rscale>  1 0.16033324E+03</rscale>
<asrwt>0</asrwt>
<pdfrwt beam="2">  1       21 0.26455672E-02 0.16033324E+03</pdfrwt>
<pdfrwt beam="1">  1        4 0.15222591E+00 0.16033324E+03</pdfrwt>
<totfact> 0.98885379E+03</totfact>
</mgrwt>
</event>
<event>
 6    4  0.6325740E-003  0.1289111E+03  0.7818608E-02  0.1229080E+00
         21   -1    0    0  501  502  0.00000000000E+00  0.00000000000E+00  0.25728947946E+02  0.25728947946E+02  0.00000000000E+00 0.  1.
         -4   -1    0    0    0  501 -0.00000000000E+00 -0.00000000000E+00 -0.25799691153E+03  0.25800003732E+03  0.12700000000E+01 0. -1.
         25    2    1    2    0    0 -0.27287609858E+02  0.15752439127E+02 -0.20434688941E+03  0.24161067246E+03  0.12500125139E+03 0.  0.
    9000005    1    3    3    0    0  0.38010440810E+02  0.43213888422E+02 -0.10231924201E+03  0.11739872678E+03  0.10000000000E+01 0.  0.
    9000005    1    3    3    0    0 -0.65298050668E+02 -0.27461449295E+02 -0.10202764739E+03  0.12421194569E+03  0.10000000000E+01 0.  0.
         -4    1    1    2    0  502  0.27287609858E+02 -0.15752439127E+02 -0.27921074175E+02  0.42118312802E+02  0.12700000000E+01 0.  1.
<mgrwt>
<rscale>  1 0.12891108E+03</rscale>
<asrwt>0</asrwt>
<pdfrwt beam="1">  1       21 0.39582998E-02 0.12891108E+03</pdfrwt>
<pdfrwt beam="2">  1       -4 0.39694483E-01 0.12891108E+03</pdfrwt>
<totfact> 0.98248301E+04</totfact>
</mgrwt>
</event>
<event>
 6    4  0.6325740E-003  0.1806768E+03  0.7818608E-02  0.1167150E+00
          4   -1    0    0  502    0 -0.00000000000E+00  0.00000000000E+00  0.27904916808E+03  0.27905205806E+03  0.12700000000E+01 0. -1.
         21   -1    0    0  501  502  0.00000000000E+00 -0.00000000000E+00 -0.86815069450E+02  0.86815069450E+02  0.00000000000E+00 0.  1.
         25    2    1    2    0    0 -0.72427075734E+02  0.10850376889E+03  0.11733657829E+03  0.21543441625E+03  0.12500146374E+03 0.  0.
    9000005    1    3    3    0    0 -0.94279850289E+02  0.12010160655E+03  0.85153910696E+02  0.17482927264E+03  0.10000000000E+01 0.  0.
    9000005    1    3    3    0    0  0.21852774554E+02 -0.11597837653E+02  0.32182667595E+02  0.40605143609E+02  0.10000000000E+01 0.  0.
          4    1    1    2  501    0  0.72427075734E+02 -0.10850376889E+03  0.74897520339E+02  0.15043271126E+03  0.12700000000E+01 0.  1.
<mgrwt>
<rscale>  1 0.18067683E+03</rscale>
<asrwt>0</asrwt>
<pdfrwt beam="2">  1       21 0.13356165E-01 0.18067683E+03</pdfrwt>
<pdfrwt beam="1">  1        4 0.42931578E-01 0.18067683E+03</pdfrwt>
<totfact> 0.10707311E+04</totfact>
</mgrwt>
</event>
<event>
 6    4  0.6325740E-003  0.1266884E+03  0.7818608E-02  0.1232454E+00
         -4   -1    0    0    0  501 -0.00000000000E+00  0.00000000000E+00  0.60096963323E+02  0.60110380973E+02  0.12700000000E+01 0.  1.
         21   -1    0    0  501  502  0.00000000000E+00 -0.00000000000E+00 -0.11399623339E+03  0.11399623339E+03  0.00000000000E+00 0.  1.
         25    2    1    2    0    0  0.18091780982E+02 -0.98962345295E+01 -0.11832175967E+02  0.12723976784E+03  0.12499884053E+03 0.  0.
    9000005    1    3    3    0    0  0.21227171694E+02  0.54747561247E+02  0.86232519427E+01  0.59356960457E+02  0.10000000000E+01 0.  0.
    9000005    1    3    3    0    0 -0.31353907112E+01 -0.64643795777E+02 -0.20455427910E+02  0.67882807384E+02  0.10000000000E+01 0.  0.
         -4    1    1    2    0  502 -0.18091780982E+02  0.98962345295E+01 -0.42067094104E+02  0.46866846526E+02  0.12700000000E+01 0. -1.
<mgrwt>
<rscale>  1 0.12668843E+03</rscale>
<asrwt>0</asrwt>
<pdfrwt beam="2">  1       21 0.17537882E-01 0.12668843E+03</pdfrwt>
<pdfrwt beam="1">  1       -4 0.92472630E-02 0.12668843E+03</pdfrwt>
<totfact> 0.10196753E+05</totfact>
</mgrwt>
</event>
<event>
 6    4  0.6325740E-003  0.1282432E+03  0.7818608E-02  0.1230086E+00
         21   -1    0    0  501  502  0.00000000000E+00  0.00000000000E+00  0.70043145780E+03  0.70043145780E+03  0.00000000000E+00 0. -1.
          4   -1    0    0  502    0 -0.00000000000E+00 -0.00000000000E+00 -0.94810729952E+01  0.95657537675E+01  0.12700000000E+01 0. -1.
         25    2    1    2    0    0  0.10806572868E+02  0.26543806725E+02  0.46961984748E+03  0.48681527828E+03  0.12499983332E+03 0.  0.
    9000005    1    3    3    0    0  0.26446252929E+02 -0.42474244520E+02  0.11851033903E+03  0.12864356260E+03  0.10000000000E+01 0.  0.
    9000005    1    3    3    0    0 -0.15639680061E+02  0.69018051245E+02  0.35110950845E+03  0.35817171568E+03  0.10000000000E+01 0.  0.
          4    1    1    2  501    0 -0.10806572868E+02 -0.26543806725E+02  0.22133053732E+03  0.22318193329E+03  0.12700000000E+01 0.  1.
<mgrwt>
<rscale>  1 0.12824318E+03</rscale>
<asrwt>0</asrwt>
<pdfrwt beam="1">  1       21 0.10775865E+00 0.12824318E+03</pdfrwt>
<pdfrwt beam="2">  1        4 0.14652296E-02 0.12824318E+03</pdfrwt>
<totfact> 0.46041782E+04</totfact>
</mgrwt>
</event>
<event>
 6    4  0.6325740E-003  0.1271704E+03  0.7818608E-02  0.1231716E+00
         21   -1    0    0  501  502  0.00000000000E+00  0.00000000000E+00  0.10087293956E+03  0.10087293956E+03  0.00000000000E+00 0.  1.
         -4   -1    0    0    0  501 -0.00000000000E+00 -0.00000000000E+00 -0.56365443176E+02  0.56379748886E+02  0.12700000000E+01 0.  1.
         25    2    1    2    0    0  0.12576100865E+02  0.19722290974E+02  0.40669253752E+02  0.13351512158E+03  0.12500068966E+03 0.  0.
    9000005    1    3    3    0    0  0.44302170657E+02  0.10977034853E+02 -0.30633333492E+02  0.54977984139E+02  0.10000000000E+01 0.  0.
    9000005    1    3    3    0    0 -0.31726069793E+02  0.87452561205E+01  0.71302587245E+02  0.78537137438E+02  0.10000000000E+01 0.  0.
         -4    1    1    2    0  502 -0.12576100865E+02 -0.19722290974E+02  0.38382426270E+01  0.23737566865E+02  0.12700000000E+01 0. -1.
<mgrwt>
<rscale>  1 0.12717036E+03</rscale>
<asrwt>0</asrwt>
<pdfrwt beam="1">  1       21 0.15518914E-01 0.12717036E+03</pdfrwt>
<pdfrwt beam="2">  1       -4 0.86733221E-02 0.12717036E+03</pdfrwt>
<totfact> 0.14176910E+05</totfact>
</mgrwt>
</event>
<event>
 6    4  0.6325740E-003  0.1318595E+03  0.7818608E-02  0.1224722E+00
         -4   -1    0    0    0  501 -0.00000000000E+00  0.00000000000E+00  0.16140319890E+03  0.16140819532E+03  0.12700000000E+01 0. -1.
         21   -1    0    0  501  502  0.00000000000E+00 -0.00000000000E+00 -0.55641544794E+02  0.55641544794E+02  0.00000000000E+00 0. -1.
         25    2    1    2    0    0  0.24500821260E+02 -0.34083725671E+02  0.11393737759E+03  0.17426602882E+03  0.12499972875E+03 0.  0.
    9000005    1    3    3    0    0 -0.14048758018E+02 -0.74467090604E+02  0.60441756767E+02  0.96937717871E+02  0.10000000000E+01 0.  0.
    9000005    1    3    3    0    0  0.38549579278E+02  0.40383364933E+02  0.53495620828E+02  0.77328310945E+02  0.10000000000E+01 0.  0.
         -4    1    1    2    0  502 -0.24500821260E+02  0.34083725671E+02 -0.81757234843E+01  0.42783711300E+02  0.12700000000E+01 0.  1.
<mgrwt>
<rscale>  1 0.13185948E+03</rscale>
<asrwt>0</asrwt>
<pdfrwt beam="2">  1       21 0.85602377E-02 0.13185948E+03</pdfrwt>
<pdfrwt beam="1">  1       -4 0.24832760E-01 0.13185948E+03</pdfrwt>
<totfact> 0.65067906E+04</totfact>
</mgrwt>
</event>
<event>
 6    4  0.6325740E-003  0.1266088E+03  0.7818608E-02  0.1232576E+00
         -4   -1    0    0    0  501 -0.00000000000E+00  0.00000000000E+00  0.17700405374E+03  0.17700860979E+03  0.12700000000E+01 0. -1.
         21   -1    0    0  501  502  0.00000000000E+00 -0.00000000000E+00 -0.49743103523E+02  0.49743103523E+02  0.00000000000E+00 0. -1.
         25    2    1    2    0    0 -0.42065072741E+01 -0.19683731531E+02  0.15004445163E+03  0.19632401496E+03  0.12499854957E+03 0.  0.
    9000005    1    3    3    0    0  0.34758313204E+02 -0.58504906947E+02  0.59615761645E+02  0.90476535689E+02  0.10000000000E+01 0.  0.
    9000005    1    3    3    0    0 -0.38964820478E+02  0.38821175416E+02  0.90428689982E+02  0.10584747927E+03  0.10000000000E+01 0.  0.
         -4    1    1    2    0  502  0.42065072741E+01  0.19683731531E+02 -0.22783501413E+02  0.30427698354E+02  0.12700000000E+01 0.  1.
<mgrwt>
<rscale>  1 0.12660877E+03</rscale>
<asrwt>0</asrwt>
<pdfrwt beam="2">  1       21 0.76527853E-02 0.12660877E+03</pdfrwt>
<pdfrwt beam="1">  1       -4 0.27232990E-01 0.12660877E+03</pdfrwt>
<totfact> 0.66173011E+04</totfact>
</mgrwt>
</event>
<event>
 6    4  0.6325740E-003  0.1481682E+03  0.7818608E-02  0.1202742E+00
         21   -1    0    0  501  502  0.00000000000E+00  0.00000000000E+00  0.18085740609E+03  0.18085740609E+03  0.00000000000E+00 0.  1.
         -4   -1    0    0    0  501 -0.00000000000E+00 -0.00000000000E+00 -0.13275924049E+03  0.13276531488E+03  0.12700000000E+01 0. -1.
         25    2    1    2    0    0 -0.95235579954E+01  0.79011404664E+02 -0.75745980797E+02  0.16640694151E+03  0.12498126400E+03 0.  0.
    9000005    1    3    3    0    0 -0.18052888731E+02  0.77011419284E+02 -0.10749017919E+03  0.13346087109E+03  0.10000000000E+01 0.  0.
    9000005    1    3    3    0    0  0.85293307352E+01  0.19999853794E+01  0.31744198390E+02  0.32946070414E+02  0.10000000000E+01 0.  0.
         -4    1    1    2    0  502  0.95235579954E+01 -0.79011404664E+02  0.12384414641E+03  0.14721577946E+03  0.12700000000E+01 0.  1.
<mgrwt>
<rscale>  1 0.14816820E+03</rscale>
<asrwt>0</asrwt>
<pdfrwt beam="1">  1       21 0.27824216E-01 0.14816820E+03</pdfrwt>
<pdfrwt beam="2">  1       -4 0.20425309E-01 0.14816820E+03</pdfrwt>
<totfact> 0.11064911E+04</totfact>
</mgrwt>
</event>
<event>
 6    4  0.6325740E-003  0.1350822E+03  0.7818608E-02  0.1220104E+00
         21   -1    0    0  501  502  0.00000000000E+00  0.00000000000E+00  0.72437259362E+01  0.72437259362E+01  0.00000000000E+00 0.  1.
         -4   -1    0    0    0  501 -0.00000000000E+00 -0.00000000000E+00 -0.12439206667E+04  0.12439213150E+04  0.12700000000E+01 0. -1.
         25    2    1    2    0    0  0.28309281577E+02 -0.42670260712E+02 -0.99435361826E+03  0.10034870805E+04  0.12500014389E+03 0.  0.
    9000005    1    3    3    0    0 -0.17801342780E+02 -0.69156951979E+02 -0.75105718000E+03  0.75444513349E+03  0.10000000000E+01 0.  0.
    9000005    1    3    3    0    0  0.46110624356E+02  0.26486691267E+02 -0.24329643827E+03  0.24904194700E+03  0.10000000000E+01 0.  0.
         -4    1    1    2    0  502 -0.28309281577E+02  0.42670260712E+02 -0.24232332251E+03  0.24767796048E+03  0.12700000000E+01 0.  1.
<mgrwt>
<rscale>  1 0.13508221E+03</rscale>
<asrwt>0</asrwt>
<pdfrwt beam="1">  1       21 0.11144181E-02 0.13508221E+03</pdfrwt>
<pdfrwt beam="2">  1       -4 0.19138124E+00 0.13508221E+03</pdfrwt>
<totfact> 0.21230108E+04</totfact>
</mgrwt>
</event>
<event>
 6    4  0.6325740E-003  0.1298229E+03  0.7818608E-02  0.1227719E+00
         21   -1    0    0  501  502  0.00000000000E+00  0.00000000000E+00  0.19664440552E+02  0.19664440552E+02  0.00000000000E+00 0. -1.
          4   -1    0    0  502    0 -0.00000000000E+00 -0.00000000000E+00 -0.36642612047E+03  0.36642832132E+03  0.12700000000E+01 0.  1.
         25    2    1    2    0    0 -0.34863343764E+02 -0.35608281628E+01 -0.30551388577E+03  0.33195289063E+03  0.12500341981E+03 0.  0.
    9000005    1    3    3    0    0  0.44912648133E+02 -0.60693214182E+01 -0.71105711611E+02  0.84326774209E+02  0.10000000000E+01 0.  0.
    9000005    1    3    3    0    0 -0.79775991897E+02  0.25084932554E+01 -0.23440817416E+03  0.24762611642E+03  0.10000000000E+01 0.  0.
          4    1    1    2  501    0  0.34863343764E+02  0.35608281628E+01 -0.41247794152E+02  0.54139871241E+02  0.12700000000E+01 0. -1.
<mgrwt>
<rscale>  1 0.12982291E+03</rscale>
<asrwt>0</asrwt>
<pdfrwt beam="1">  1       21 0.30252987E-02 0.12982291E+03</pdfrwt>
<pdfrwt beam="2">  1        4 0.56376571E-01 0.12982291E+03</pdfrwt>
<totfact> 0.75506944E+04</totfact>
</mgrwt>
</event>
<event>
 6    4  0.6325740E-003  0.1343068E+03  0.7818608E-02  0.1221202E+00
         21   -1    0    0  501  502  0.00000000000E+00  0.00000000000E+00  0.98258759014E+02  0.98258759014E+02  0.00000000000E+00 0.  1.
         -4   -1    0    0    0  501 -0.00000000000E+00 -0.00000000000E+00 -0.98981435026E+02  0.98989582179E+02  0.12700000000E+01 0. -1.
         25    2    1    2    0    0 -0.48680930693E+02  0.56539933978E+01 -0.33316681739E+02  0.13837744207E+03  0.12504604966E+03 0.  0.
    9000005    1    3    3    0    0  0.41928929405E+02  0.17683429858E+01 -0.67404170060E+00  0.41983526414E+02  0.10000000000E+01 0.  0.
    9000005    1    3    3    0    0 -0.90609860098E+02  0.38856504120E+01 -0.32642640039E+02  0.96393915653E+02  0.10000000000E+01 0.  0.
         -4    1    1    2    0  502  0.48680930693E+02 -0.56539933978E+01  0.32594005727E+02  0.58870899125E+02  0.12700000000E+01 0.  1.
<mgrwt>
<rscale>  1 0.13430680E+03</rscale>
<asrwt>0</asrwt>
<pdfrwt beam="1">  1       21 0.15116732E-01 0.13430680E+03</pdfrwt>
<pdfrwt beam="2">  1       -4 0.15229171E-01 0.13430680E+03</pdfrwt>
<totfact> 0.57381592E+04</totfact>
</mgrwt>
</event>
<event>
 6    4  0.6325740E-003  0.1266915E+03  0.7818608E-02  0.1232449E+00
         21   -1    0    0  501  502  0.00000000000E+00  0.00000000000E+00  0.42047043761E+03  0.42047043761E+03  0.00000000000E+00 0.  1.
          4   -1    0    0  502    0 -0.00000000000E+00 -0.00000000000E+00 -0.22937223135E+02  0.22972355237E+02  0.12700000000E+01 0. -1.
         25    2    1    2    0    0  0.17533431834E+02  0.10880718715E+02  0.15571928892E+03  0.20074668912E+03  0.12499969992E+03 0.  0.
    9000005    1    3    3    0    0 -0.16752950493E+02 -0.51731228096E+02  0.79410010074E+02  0.96248277961E+02  0.10000000000E+01 0.  0.
    9000005    1    3    3    0    0  0.34286382327E+02  0.62611946812E+02  0.76309278843E+02  0.10449841116E+03  0.10000000000E+01 0.  0.
          4    1    1    2  501    0 -0.17533431834E+02 -0.10880718715E+02  0.24181392556E+03  0.24269610373E+03  0.12700000000E+01 0.  1.
<mgrwt>
<rscale>  1 0.12669150E+03</rscale>
<asrwt>0</asrwt>
<pdfrwt beam="1">  1       21 0.64687754E-01 0.12669150E+03</pdfrwt>
<pdfrwt beam="2">  1        4 0.35316539E-02 0.12669150E+03</pdfrwt>
<totfact> 0.37297010E+04</totfact>
</mgrwt>
</event>
<event>
 6    4  0.6325740E-003  0.1276590E+03  0.7818608E-02  0.1230971E+00
         21   -1    0    0  501  502  0.00000000000E+00  0.00000000000E+00  0.95121282279E+02  0.95121282279E+02  0.00000000000E+00 0. -1.
         -4   -1    0    0    0  501 -0.00000000000E+00 -0.00000000000E+00 -0.89274126184E+02  0.89283159139E+02  0.12700000000E+01 0.  1.
         25    2    1    2    0    0 -0.25250641308E+02 -0.57659428342E+01 -0.38233855621E+02  0.13326160734E+03  0.12500394911E+03 0.  0.
    9000005    1    3    3    0    0  0.38401522472E+02 -0.18786725300E+02 -0.51504051959E+02  0.66942403183E+02  0.10000000000E+01 0.  0.
    9000005    1    3    3    0    0 -0.63652163779E+02  0.13020782466E+02  0.13270196339E+02  0.66319204162E+02  0.10000000000E+01 0.  0.
         -4    1    1    2    0  502  0.25250641308E+02  0.57659428342E+01  0.44081011716E+02  0.51142834074E+02  0.12700000000E+01 0. -1.
<mgrwt>
<rscale>  1 0.12765903E+03</rscale>
<asrwt>0</asrwt>
<pdfrwt beam="1">  1       21 0.14634044E-01 0.12765903E+03</pdfrwt>
<pdfrwt beam="2">  1       -4 0.13735828E-01 0.12765903E+03</pdfrwt>
<totfact> 0.72323753E+04</totfact>
</mgrwt>
</event>
<event>
 6    4  0.6325740E-003  0.1285150E+03  0.7818608E-02  0.1229676E+00
         21   -1    0    0  501  502  0.00000000000E+00  0.00000000000E+00  0.13313773587E+02  0.13313773587E+02  0.00000000000E+00 0.  1.
          4   -1    0    0  502    0 -0.00000000000E+00 -0.00000000000E+00 -0.68374955853E+03  0.68375073798E+03  0.12700000000E+01 0.  1.
         25    2    1    2    0    0  0.29101450072E+02 -0.65889602688E+01 -0.64546786942E+03  0.65813741947E+03  0.12500313459E+03 0.  0.
    9000005    1    3    3    0    0 -0.41426109556E+01  0.42986682603E+02 -0.48507843089E+03  0.48699804951E+03  0.10000000000E+01 0.  0.
    9000005    1    3    3    0    0  0.33244061028E+02 -0.49575642872E+02 -0.16038943852E+03  0.17113936996E+03  0.10000000000E+01 0.  0.
          4    1    1    2  501    0 -0.29101450072E+02  0.65889602688E+01 -0.24967915526E+02  0.38927092101E+02  0.12700000000E+01 0. -1.
<mgrwt>
<rscale>  1 0.12851495E+03</rscale>
<asrwt>0</asrwt>
<pdfrwt beam="1">  1       21 0.20482728E-02 0.12851495E+03</pdfrwt>
<pdfrwt beam="2">  1        4 0.10519699E+00 0.12851495E+03</pdfrwt>
<totfact> 0.36141470E+04</totfact>
</mgrwt>
</event>
<event>
 6    4  0.6325740E-003  0.1268522E+03  0.7818608E-02  0.1232203E+00
         21   -1    0    0  501  502  0.00000000000E+00  0.00000000000E+00  0.19531125240E+03  0.19531125240E+03  0.00000000000E+00 0. -1.
         -4   -1    0    0    0  501 -0.00000000000E+00 -0.00000000000E+00 -0.98916916744E+02  0.98925069210E+02  0.12700000000E+01 0.  1.
         25    2    1    2    0    0 -0.14413395912E+02 -0.15906734802E+02 -0.57194273946E+02  0.13914975194E+03  0.12502279111E+03 0.  0.
    9000005    1    3    3    0    0  0.15528876800E+02 -0.60221800458E+02 -0.19187606090E+01  0.62229357279E+02  0.10000000000E+01 0.  0.
    9000005    1    3    3    0    0 -0.29942272713E+02  0.44315065657E+02 -0.55275513337E+02  0.76920394656E+02  0.10000000000E+01 0.  0.
         -4    1    1    2    0  502  0.14413395912E+02  0.15906734802E+02  0.15358860961E+03  0.15508656968E+03  0.12700000000E+01 0. -1.
<mgrwt>
<rscale>  1 0.12685215E+03</rscale>
<asrwt>0</asrwt>
<pdfrwt beam="1">  1       21 0.30047885E-01 0.12685215E+03</pdfrwt>
<pdfrwt beam="2">  1       -4 0.15218932E-01 0.12685215E+03</pdfrwt>
<totfact> 0.15881053E+04</totfact>
</mgrwt>
</event>
<event>
 6    4  0.6325740E-003  0.1847974E+03  0.7818608E-02  0.1163239E+00
         21   -1    0    0  501  502  0.00000000000E+00  0.00000000000E+00  0.18580585034E+02  0.18580585034E+02  0.00000000000E+00 0. -1.
         -4   -1    0    0    0  501 -0.00000000000E+00 -0.00000000000E+00 -0.16681723276E+04  0.16681728111E+04  0.12700000000E+01 0.  1.
         25    2    1    2    0    0 -0.13371731594E+03  0.25453800132E+02 -0.12724169095E+04  0.12857662589E+04  0.12498745774E+03 0.  0.
    9000005    1    3    3    0    0  0.21431164381E+02  0.17767932997E+02 -0.26219512979E+03  0.26367078021E+03  0.10000000000E+01 0.  0.
    9000005    1    3    3    0    0 -0.15514848032E+03  0.76858671349E+01 -0.10102217797E+04  0.10220954787E+04  0.10000000000E+01 0.  0.
         -4    1    1    2    0  502  0.13371731594E+03 -0.25453800132E+02 -0.37717483311E+03  0.40098713714E+03  0.12700000000E+01 0. -1.
<mgrwt>
<rscale>  1 0.18479741E+03</rscale>
<asrwt>0</asrwt>
<pdfrwt beam="1">  1       21 0.28585514E-02 0.18479741E+03</pdfrwt>
<pdfrwt beam="2">  1       -4 0.25664528E+00 0.18479741E+03</pdfrwt>
<totfact> 0.19118998E+03</totfact>
</mgrwt>
</event>
<event>
 6    4  0.6325740E-003  0.1430979E+03  0.7818608E-02  0.1209220E+00
          4   -1    0    0  502    0 -0.00000000000E+00  0.00000000000E+00  0.51956988733E+02  0.51972507907E+02  0.12700000000E+01 0. -1.
         21   -1    0    0  501  502  0.00000000000E+00 -0.00000000000E+00 -0.21888459713E+03  0.21888459713E+03  0.00000000000E+00 0.  1.
         25    2    1    2    0    0 -0.95667300151E+01  0.69008939274E+02 -0.10319661096E+03  0.17642718945E+03  0.12499302637E+03 0.  0.
    9000005    1    3    3    0    0 -0.31639586856E+02 -0.28604063957E+02 -0.36600687710E+02  0.56212687821E+02  0.10000000000E+01 0.  0.
    9000005    1    3    3    0    0  0.22072856841E+02  0.97613003231E+02 -0.66595923246E+02  0.12021450163E+03  0.10000000000E+01 0.  0.
          4    1    1    2  501    0  0.95667300151E+01 -0.69008939274E+02 -0.63730997440E+02  0.94429915586E+02  0.12700000000E+01 0.  1.
<mgrwt>
<rscale>  1 0.14309791E+03</rscale>
<asrwt>0</asrwt>
<pdfrwt beam="2">  1       21 0.33674553E-01 0.14309791E+03</pdfrwt>
<pdfrwt beam="1">  1        4 0.79948602E-02 0.14309791E+03</pdfrwt>
<totfact> 0.38448191E+04</totfact>
</mgrwt>
</event>
<event>
 6    4  0.6325740E-003  0.1283487E+03  0.7818608E-02  0.1229927E+00
         -4   -1    0    0    0  501 -0.00000000000E+00  0.00000000000E+00  0.32944942334E+03  0.32945187121E+03  0.12700000000E+01 0.  1.
         21   -1    0    0  501  502  0.00000000000E+00 -0.00000000000E+00 -0.10729666036E+04  0.10729666036E+04  0.00000000000E+00 0. -1.
         25    2    1    2    0    0  0.26599516569E+02  0.11865469453E+02  0.31674201421E+03  0.34175854062E+03  0.12500029150E+03 0.  0.
    9000005    1    3    3    0    0  0.29414934746E+02  0.64220959868E+02  0.22785772866E+03  0.23855757079E+03  0.10000000000E+01 0.  0.
    9000005    1    3    3    0    0 -0.28154181773E+01 -0.52355490415E+02  0.88884285547E+02  0.10320096983E+03  0.10000000000E+01 0.  0.
         -4    1    1    2    0  502 -0.26599516569E+02 -0.11865469453E+02 -0.10602591944E+04  0.10606599342E+04  0.12700000000E+01 0. -1.
<mgrwt>
<rscale>  1 0.12834873E+03</rscale>
<asrwt>0</asrwt>
<pdfrwt beam="2">  1       21 0.16507178E+00 0.12834873E+03</pdfrwt>
<pdfrwt beam="1">  1       -4 0.50684773E-01 0.12834873E+03</pdfrwt>
<totfact> 0.37956724E+01</totfact>
</mgrwt>
</event>
<event>
 6    4  0.6325740E-003  0.1492928E+03  0.7818608E-02  0.1201345E+00
         -4   -1    0    0    0  501 -0.00000000000E+00  0.00000000000E+00  0.54345074276E+02  0.54359911682E+02  0.12700000000E+01 0. -1.
         21   -1    0    0  501  502  0.00000000000E+00 -0.00000000000E+00 -0.36870800855E+03  0.36870800855E+03  0.00000000000E+00 0.  1.
         25    2    1    2    0    0  0.64957572359E+02  0.49418390801E+02 -0.68969827982E+02  0.16445420623E+03  0.12500674069E+03 0.  0.
    9000005    1    3    3    0    0  0.39107508232E+02  0.26955396414E+02 -0.10468643280E+03  0.11496190590E+03  0.10000000000E+01 0.  0.
    9000005    1    3    3    0    0  0.25850064127E+02  0.22462994387E+02  0.35716604815E+02  0.49492300328E+02  0.10000000000E+01 0.  0.
         -4    1    1    2    0  502 -0.64957572359E+02 -0.49418390801E+02 -0.24539310629E+03  0.25861371400E+03  0.12700000000E+01 0.  1.
<mgrwt>
<rscale>  1 0.14929283E+03</rscale>
<asrwt>0</asrwt>
<pdfrwt beam="2">  1       21 0.56724308E-01 0.14929283E+03</pdfrwt>
<pdfrwt beam="1">  1       -4 0.83620904E-02 0.14929283E+03</pdfrwt>
<totfact> 0.12412479E+04</totfact>
</mgrwt>
</event>
<event>
 6    4  0.6325740E-003  0.1294962E+03  0.7818608E-02  0.1228205E+00
         21   -1    0    0  501  502  0.00000000000E+00  0.00000000000E+00  0.47157907025E+03  0.47157907025E+03  0.00000000000E+00 0.  1.
         -4   -1    0    0    0  501 -0.00000000000E+00 -0.00000000000E+00 -0.50384939546E+02  0.50400942780E+02  0.12700000000E+01 0. -1.
         25    2    1    2    0    0 -0.33669547987E+02  0.31934034367E+01  0.34778510015E+02  0.13408507738E+03  0.12500170771E+03 0.  0.
    9000005    1    3    3    0    0  0.26970129103E+02 -0.44666194151E+02  0.12160137310E+02  0.53584752525E+02  0.10000000000E+01 0.  0.
    9000005    1    3    3    0    0 -0.60639677089E+02  0.47859597587E+02  0.22618372705E+02  0.80500324860E+02  0.10000000000E+01 0.  0.
         -4    1    1    2    0  502  0.33669547987E+02 -0.31934034367E+01  0.38641562069E+03  0.38789493564E+03  0.12700000000E+01 0.  1.
<mgrwt>
<rscale>  1 0.12949619E+03</rscale>
<asrwt>0</asrwt>
<pdfrwt beam="1">  1       21 0.72550623E-01 0.12949619E+03</pdfrwt>
<pdfrwt beam="2">  1       -4 0.77528920E-02 0.12949619E+03</pdfrwt>
<totfact> 0.82048535E+03</totfact>
</mgrwt>
</event>
<event>
 6    4  0.6325740E-003  0.1318735E+03  0.7818608E-02  0.1224702E+00
         21   -1    0    0  501  502  0.00000000000E+00  0.00000000000E+00  0.34078113896E+01  0.34078113896E+01  0.00000000000E+00 0.  1.
         -4   -1    0    0    0  501 -0.00000000000E+00 -0.00000000000E+00 -0.22369979152E+04  0.22369982757E+04  0.12700000000E+01 0.  1.
         25    2    1    2    0    0  0.30461328432E+02  0.28890286439E+02 -0.16000388621E+04  0.16054640976E+04  0.12501226920E+03 0.  0.
    9000005    1    3    3    0    0 -0.27811587012E+02  0.58110491025E+02 -0.64791892588E+03  0.65111461975E+03  0.10000000000E+01 0.  0.
    9000005    1    3    3    0    0  0.58272915443E+02 -0.29220204586E+02 -0.95211993618E+03  0.95434947787E+03  0.10000000000E+01 0.  0.
         -4    1    1    2    0  502 -0.30461328432E+02 -0.28890286439E+02 -0.63355124176E+03  0.63494198949E+03  0.12700000000E+01 0. -1.
<mgrwt>
<rscale>  1 0.13187346E+03</rscale>
<asrwt>0</asrwt>
<pdfrwt beam="1">  1       21 0.52427738E-03 0.13187346E+03</pdfrwt>
<pdfrwt beam="2">  1       -4 0.34417260E+00 0.13187346E+03</pdfrwt>
<totfact> 0.87095538E+03</totfact>
</mgrwt>
</event>
<event>
 6    4  0.6325740E-003  0.1737306E+03  0.7818608E-02  0.1174012E+00
         21   -1    0    0  501  502  0.00000000000E+00  0.00000000000E+00  0.43498299573E+03  0.43498299573E+03  0.00000000000E+00 0. -1.
          4   -1    0    0  502    0 -0.00000000000E+00 -0.00000000000E+00 -0.54807691178E+02  0.54822403379E+02  0.12700000000E+01 0.  1.
         25    2    1    2    0    0 -0.10410524261E+03 -0.60989228460E+02  0.14831999301E+03  0.22843193849E+03  0.12499897067E+03 0.  0.
    9000005    1    3    3    0    0 -0.25812397950E+02  0.35937368615E+02  0.17013452606E+02  0.47415524045E+02  0.10000000000E+01 0.  0.
    9000005    1    3    3    0    0 -0.78292844658E+02 -0.96926597075E+02  0.13130654041E+03  0.18101641445E+03  0.10000000000E+01 0.  0.
          4    1    1    2  501    0  0.10410524261E+03  0.60989228460E+02  0.23185531154E+03  0.26137346062E+03  0.12700000000E+01 0. -1.
<mgrwt>
<rscale>  1 0.17373063E+03</rscale>
<asrwt>0</asrwt>
<pdfrwt beam="1">  1       21 0.66920458E-01 0.17373063E+03</pdfrwt>
<pdfrwt beam="2">  1        4 0.84332271E-02 0.17373063E+03</pdfrwt>
<totfact> 0.86604184E+03</totfact>
</mgrwt>
</event>
<event>
 6    4  0.6325740E-003  0.1727217E+03  0.7818608E-02  0.1175039E+00
         -4   -1    0    0    0  501 -0.00000000000E+00  0.00000000000E+00  0.10646594184E+03  0.10647351629E+03  0.12700000000E+01 0.  1.
         21   -1    0    0  501  502  0.00000000000E+00 -0.00000000000E+00 -0.25821565394E+03  0.25821565394E+03  0.00000000000E+00 0. -1.
         25    2    1    2    0    0  0.19664955870E+02 -0.11756573792E+03 -0.12849143104E+01  0.17272646163E+03  0.12499746526E+03 0.  0.
    9000005    1    3    3    0    0 -0.22097981441E+02  0.19450946132E+02 -0.12577088344E+01  0.29482908960E+02  0.10000000000E+01 0.  0.
    9000005    1    3    3    0    0  0.41762937312E+02 -0.13701668405E+03 -0.27205475945E-01  0.14324355267E+03  0.10000000000E+01 0.  0.
         -4    1    1    2    0  502 -0.19664955870E+02  0.11756573792E+03 -0.15046479779E+03  0.19196270861E+03  0.12700000000E+01 0. -1.
<mgrwt>
<rscale>  1 0.17272168E+03</rscale>
<asrwt>0</asrwt>
<pdfrwt beam="2">  1       21 0.39725485E-01 0.17272168E+03</pdfrwt>
<pdfrwt beam="1">  1       -4 0.16380199E-01 0.17272168E+03</pdfrwt>
<totfact> 0.82405758E+03</totfact>
</mgrwt>
</event>
<event>
 6    4  0.6325740E-003  0.1278553E+03  0.7818608E-02  0.1230673E+00
         -4   -1    0    0    0  501 -0.00000000000E+00  0.00000000000E+00  0.53796304146E+03  0.53796454054E+03  0.12700000000E+01 0. -1.
         21   -1    0    0  501  502  0.00000000000E+00 -0.00000000000E+00 -0.22506388006E+02  0.22506388006E+02  0.00000000000E+00 0. -1.
         25    2    1    2    0    0 -0.23747562855E+02  0.12607720551E+02  0.51789516501E+03  0.53344389397E+03  0.12499633881E+03 0.  0.
    9000005    1    3    3    0    0 -0.70761802300E+02  0.30639354070E+02  0.33293546856E+03  0.34174995086E+03  0.10000000000E+01 0.  0.
    9000005    1    3    3    0    0  0.47014239444E+02 -0.18031633519E+02  0.18495969645E+03  0.19169394312E+03  0.10000000000E+01 0.  0.
         -4    1    1    2    0  502  0.23747562855E+02 -0.12607720551E+02 -0.24385115584E+01  0.27027034571E+02  0.12700000000E+01 0.  1.
<mgrwt>
<rscale>  1 0.12785533E+03</rscale>
<asrwt>0</asrwt>
<pdfrwt beam="2">  1       21 0.34625216E-02 0.12785533E+03</pdfrwt>
<pdfrwt beam="1">  1       -4 0.82766407E-01 0.12785533E+03</pdfrwt>
<totfact> 0.26464256E+04</totfact>
</mgrwt>
</event>
<event>
 6    4  0.6325740E-003  0.1710388E+03  0.7818608E-02  0.1176769E+00
         21   -1    0    0  501  502  0.00000000000E+00  0.00000000000E+00  0.32306328538E+03  0.32306328538E+03  0.00000000000E+00 0. -1.
         -4   -1    0    0    0  501 -0.00000000000E+00 -0.00000000000E+00 -0.74244415934E+02  0.74255277235E+02  0.12700000000E+01 0.  1.
         25    2    1    2    0    0  0.65277937815E+02 -0.96786993501E+02  0.72319636156E+02  0.18569974604E+03  0.12500133851E+03 0.  0.
    9000005    1    3    3    0    0 -0.90455896579E+01 -0.96016432626E+02  0.45880588453E+02  0.10680358806E+03  0.10000000000E+01 0.  0.
    9000005    1    3    3    0    0  0.74323527473E+02 -0.77056087519E+00  0.26439047703E+02  0.78896157976E+02  0.10000000000E+01 0.  0.
         -4    1    1    2    0  502 -0.65277937815E+02  0.96786993501E+02  0.17649923329E+03  0.21161881657E+03  0.12700000000E+01 0. -1.
<mgrwt>
<rscale>  1 0.17103878E+03</rscale>
<asrwt>0</asrwt>
<pdfrwt beam="1">  1       21 0.49702043E-01 0.17103878E+03</pdfrwt>
<pdfrwt beam="2">  1       -4 0.11423246E-01 0.17103878E+03</pdfrwt>
<totfact> 0.97528111E+03</totfact>
</mgrwt>
</event>
<event>
 6    4  0.6325740E-003  0.1271098E+03  0.7818608E-02  0.1231808E+00
         21   -1    0    0  501  502  0.00000000000E+00  0.00000000000E+00  0.20994190708E+02  0.20994190708E+02  0.00000000000E+00 0.  1.
         -4   -1    0    0    0  501 -0.00000000000E+00 -0.00000000000E+00 -0.32063524782E+03  0.32063776298E+03  0.12700000000E+01 0. -1.
         25    2    1    2    0    0  0.14342940897E+02 -0.18135771133E+02 -0.28983854361E+03  0.31648581443E+03  0.12498905244E+03 0.  0.
    9000005    1    3    3    0    0 -0.50214473965E+02 -0.30743375920E+02 -0.10640437401E+03  0.12161225007E+03  0.10000000000E+01 0.  0.
    9000005    1    3    3    0    0  0.64557414862E+02  0.12607604787E+02 -0.18343416960E+03  0.19487356436E+03  0.10000000000E+01 0.  0.
         -4    1    1    2    0  502 -0.14342940897E+02  0.18135771133E+02 -0.98025135099E+01  0.25146139252E+02  0.12700000000E+01 0.  1.
<mgrwt>
<rscale>  1 0.12710975E+03</rscale>
<asrwt>0</asrwt>
<pdfrwt beam="1">  1       21 0.32298756E-02 0.12710975E+03</pdfrwt>
<pdfrwt beam="2">  1       -4 0.49331646E-01 0.12710975E+03</pdfrwt>
<totfact> 0.88910194E+04</totfact>
</mgrwt>
</event>
<event>
 6    4  0.6325740E-003  0.1424114E+03  0.7818608E-02  0.1210121E+00
         -4   -1    0    0    0  501 -0.00000000000E+00  0.00000000000E+00  0.51219404452E+03  0.51219561902E+03  0.12700000000E+01 0.  1.
         21   -1    0    0  501  502  0.00000000000E+00 -0.00000000000E+00 -0.25203240801E+02  0.25203240801E+02  0.00000000000E+00 0.  1.
         25    2    1    2    0    0  0.88474720683E+01 -0.67659962459E+02  0.41240261076E+03  0.43629910853E+03  0.12499940184E+03 0.  0.
    9000005    1    3    3    0    0  0.58673173720E+02 -0.44682504857E+02  0.13811212625E+03  0.15657275297E+03  0.10000000000E+01 0.  0.
    9000005    1    3    3    0    0 -0.49825701652E+02 -0.22977457601E+02  0.27429048451E+03  0.27972635556E+03  0.10000000000E+01 0.  0.
         -4    1    1    2    0  502 -0.88474720683E+01  0.67659962459E+02  0.74588192958E+02  0.10109975129E+03  0.12700000000E+01 0. -1.
<mgrwt>
<rscale>  1 0.14241137E+03</rscale>
<asrwt>0</asrwt>
<pdfrwt beam="2">  1       21 0.38774220E-02 0.14241137E+03</pdfrwt>
<pdfrwt beam="1">  1       -4 0.78801659E-01 0.14241137E+03</pdfrwt>
<totfact> 0.24760454E+04</totfact>
</mgrwt>
</event>
<event>
 6    4  0.6325740E-003  0.1277163E+03  0.7818608E-02  0.1230884E+00
         -4   -1    0    0    0  501 -0.00000000000E+00  0.00000000000E+00  0.99827029570E+02  0.99835107717E+02  0.12700000000E+01 0.  1.
         21   -1    0    0  501  502  0.00000000000E+00 -0.00000000000E+00 -0.80640169655E+02  0.80640169655E+02  0.00000000000E+00 0.  1.
         25    2    1    2    0    0  0.21509788724E+02  0.15138472771E+02  0.52435632583E+02  0.13806138634E+03  0.12497842399E+03 0.  0.
    9000005    1    3    3    0    0  0.63925429955E+01 -0.30574175406E+02  0.77649396437E+02  0.83702291335E+02  0.10000000000E+01 0.  0.
    9000005    1    3    3    0    0  0.15117245729E+02  0.45712648177E+02 -0.25213763854E+02  0.54359095002E+02  0.10000000000E+01 0.  0.
         -4    1    1    2    0  502 -0.21509788724E+02 -0.15138472771E+02 -0.33248772667E+02  0.42413891034E+02  0.12700000000E+01 0. -1.
<mgrwt>
<rscale>  1 0.12771629E+03</rscale>
<asrwt>0</asrwt>
<pdfrwt beam="2">  1       21 0.12406180E-01 0.12771629E+03</pdfrwt>
<pdfrwt beam="1">  1       -4 0.15359395E-01 0.12771629E+03</pdfrwt>
<totfact> 0.80008579E+04</totfact>
</mgrwt>
</event>
<event>
 6    4  0.6325740E-003  0.1285346E+03  0.7818608E-02  0.1229647E+00
         21   -1    0    0  501  502  0.00000000000E+00  0.00000000000E+00  0.68672055124E+02  0.68672055124E+02  0.00000000000E+00 0. -1.
          4   -1    0    0  502    0 -0.00000000000E+00 -0.00000000000E+00 -0.94137273959E+02  0.94145840314E+02  0.12700000000E+01 0. -1.
         25    2    1    2    0    0 -0.25378857680E+02 -0.15881185049E+02 -0.31298270504E+02  0.13229027110E+03  0.12499934254E+03 0.  0.
    9000005    1    3    3    0    0  0.48800046585E+02 -0.48962975159E+01  0.43626011824E+01  0.49248863592E+02  0.10000000000E+01 0.  0.
    9000005    1    3    3    0    0 -0.74178904265E+02 -0.10984887534E+02 -0.35660871686E+02  0.83041407512E+02  0.10000000000E+01 0.  0.
          4    1    1    2  501    0  0.25378857680E+02  0.15881185049E+02  0.58330516681E+01  0.30527624334E+02  0.12700000000E+01 0.  1.
<mgrwt>
<rscale>  1 0.12853456E+03</rscale>
<asrwt>0</asrwt>
<pdfrwt beam="1">  1       21 0.10564932E-01 0.12853456E+03</pdfrwt>
<pdfrwt beam="2">  1        4 0.14484220E-01 0.12853456E+03</pdfrwt>
<totfact> 0.11779002E+05</totfact>
</mgrwt>
</event>
<event>
 6    4  0.6325740E-003  0.1274646E+03  0.7818608E-02  0.1231267E+00
         -4   -1    0    0    0  501 -0.00000000000E+00  0.00000000000E+00  0.59777053346E+01  0.61111260065E+01  0.12700000000E+01 0.  1.
         21   -1    0    0  501  502  0.00000000000E+00 -0.00000000000E+00 -0.96821119920E+03  0.96821119920E+03  0.00000000000E+00 0.  1.
         25    2    1    2    0    0 -0.21640329942E+02  0.12376620681E+02 -0.83364629146E+03  0.84333466876E+03  0.12500295854E+03 0.  0.
    9000005    1    3    3    0    0  0.35260252842E+02 -0.17478809492E+01 -0.64076585767E+03  0.64173843961E+03  0.10000000000E+01 0.  0.
    9000005    1    3    3    0    0 -0.56900582783E+02  0.14124501630E+02 -0.19288043379E+03  0.20159622915E+03  0.10000000000E+01 0.  0.
         -4    1    1    2    0  502  0.21640329942E+02 -0.12376620681E+02 -0.12858720240E+03  0.13098765645E+03  0.12700000000E+01 0. -1.
<mgrwt>
<rscale>  1 0.12746460E+03</rscale>
<asrwt>0</asrwt>
<pdfrwt beam="2">  1       21 0.14895560E+00 0.12746460E+03</pdfrwt>
<pdfrwt beam="1">  1       -4 0.92997395E-03 0.12746460E+03</pdfrwt>
<totfact> 0.41055770E+04</totfact>
</mgrwt>
</event>
<event>
 6    4  0.6325740E-003  0.1278830E+03  0.7818608E-02  0.1230631E+00
         21   -1    0    0  501  502  0.00000000000E+00  0.00000000000E+00  0.11286295849E+04  0.11286295849E+04  0.00000000000E+00 0.  1.
         -4   -1    0    0    0  501 -0.00000000000E+00 -0.00000000000E+00 -0.68827617018E+01  0.69989505387E+01  0.12700000000E+01 0.  1.
         25    2    1    2    0    0 -0.26732379536E+02 -0.37550364266E+01  0.61467600050E+03  0.62783807418E+03  0.12500136553E+03 0.  0.
    9000005    1    3    3    0    0 -0.38609171357E+02  0.55385464889E+02  0.31766854596E+03  0.32476533516E+03  0.10000000000E+01 0.  0.
    9000005    1    3    3    0    0  0.11876791822E+02 -0.59140501316E+02  0.29700745454E+03  0.30307273901E+03  0.10000000000E+01 0.  0.
         -4    1    1    2    0  502  0.26732379536E+02  0.37550364266E+01  0.50707082268E+03  0.50779046125E+03  0.12700000000E+01 0. -1.
<mgrwt>
<rscale>  1 0.12788300E+03</rscale>
<asrwt>0</asrwt>
<pdfrwt beam="1">  1       21 0.17363518E+00 0.12788300E+03</pdfrwt>
<pdfrwt beam="2">  1       -4 0.10678799E-02 0.12788300E+03</pdfrwt>
<totfact> 0.22213752E+04</totfact>
</mgrwt>
</event>
<event>
 6    4  0.6325740E-003  0.1272592E+03  0.7818608E-02  0.1231580E+00
         -4   -1    0    0    0  501 -0.00000000000E+00  0.00000000000E+00  0.27639351050E+02  0.27668513268E+02  0.12700000000E+01 0.  1.
         21   -1    0    0  501  502  0.00000000000E+00 -0.00000000000E+00 -0.22334538526E+03  0.22334538526E+03  0.00000000000E+00 0.  1.
         25    2    1    2    0    0  0.19562159476E+02 -0.13664228567E+02 -0.18567031225E+03  0.22509637857E+03  0.12500210226E+03 0.  0.
    9000005    1    3    3    0    0  0.11905521463E+02 -0.16061845746E+02 -0.20404336372E+03  0.20502297093E+03  0.10000000000E+01 0.  0.
    9000005    1    3    3    0    0  0.76566380131E+01  0.23976171795E+01  0.18373051474E+02  0.20073407639E+02  0.10000000000E+01 0.  0.
         -4    1    1    2    0  502 -0.19562159476E+02  0.13664228567E+02 -0.10035721965E+02  0.25917519963E+02  0.12700000000E+01 0. -1.
<mgrwt>
<rscale>  1 0.12725924E+03</rscale>
<asrwt>0</asrwt>
<pdfrwt beam="2">  1       21 0.34360829E-01 0.12725924E+03</pdfrwt>
<pdfrwt beam="1">  1       -4 0.42547288E-02 0.12725924E+03</pdfrwt>
<totfact> 0.10149145E+05</totfact>
</mgrwt>
</event>
<event>
 6    4  0.6325740E-003  0.1266539E+03  0.7818608E-02  0.1232507E+00
         -4   -1    0    0    0  501 -0.00000000000E+00  0.00000000000E+00  0.51858158254E+03  0.51858313765E+03  0.12700000000E+01 0. -1.
         21   -1    0    0  501  502  0.00000000000E+00 -0.00000000000E+00 -0.10721964332E+02  0.10721964332E+02  0.00000000000E+00 0.  1.
         25    2    1    2    0    0 -0.58940034178E+01 -0.19500568913E+02  0.46317347799E+03  0.48017796597E+03  0.12500478723E+03 0.  0.
    9000005    1    3    3    0    0 -0.38213932131E+02 -0.39847345295E+02  0.93893882476E+02  0.10892739188E+03  0.10000000000E+01 0.  0.
    9000005    1    3    3    0    0  0.32319928713E+02  0.20346776382E+02  0.36927959551E+03  0.37125057409E+03  0.10000000000E+01 0.  0.
         -4    1    1    2    0  502  0.58940034178E+01  0.19500568913E+02  0.44686140227E+02  0.49127136010E+02  0.12700000000E+01 0.  1.
<mgrwt>
<rscale>  1 0.12665389E+03</rscale>
<asrwt>0</asrwt>
<pdfrwt beam="2">  1       21 0.16495334E-02 0.12665389E+03</pdfrwt>
<pdfrwt beam="1">  1       -4 0.79787668E-01 0.12665389E+03</pdfrwt>
<totfact> 0.95620826E+04</totfact>
</mgrwt>
</event>
<event>
 6    4  0.6325740E-003  0.1655790E+03  0.7818608E-02  0.1182538E+00
         -4   -1    0    0    0  501 -0.00000000000E+00  0.00000000000E+00  0.27142345985E+03  0.27142643102E+03  0.12700000000E+01 0.  1.
         21   -1    0    0  501  502  0.00000000000E+00 -0.00000000000E+00 -0.81142957060E+02  0.81142957060E+02  0.00000000000E+00 0. -1.
         25    2    1    2    0    0 -0.45621080444E+02  0.98544802096E+02  0.17827587529E+03  0.24330784415E+03  0.12499623320E+03 0.  0.
    9000005    1    3    3    0    0 -0.65318471291E+02  0.90553950803E+02  0.67432541447E+02  0.13044028651E+03  0.10000000000E+01 0.  0.
    9000005    1    3    3    0    0  0.19697390848E+02  0.79908512937E+01  0.11084333385E+03  0.11286755765E+03  0.10000000000E+01 0.  0.
         -4    1    1    2    0  502  0.45621080444E+02 -0.98544802096E+02  0.12004627498E+02  0.10926154393E+03  0.12700000000E+01 0. -1.
<mgrwt>
<rscale>  1 0.16557904E+03</rscale>
<asrwt>0</asrwt>
<pdfrwt beam="2">  1       21 0.12483532E-01 0.16557904E+03</pdfrwt>
<pdfrwt beam="1">  1       -4 0.41758448E-01 0.16557904E+03</pdfrwt>
<totfact> 0.12695525E+04</totfact>
</mgrwt>
</event>
<event>
 6    4  0.6325740E-003  0.1319160E+03  0.7818608E-02  0.1224640E+00
         21   -1    0    0  501  502  0.00000000000E+00  0.00000000000E+00  0.73383487583E+01  0.73383487583E+01  0.00000000000E+00 0.  1.
         -4   -1    0    0    0  501 -0.00000000000E+00 -0.00000000000E+00 -0.10379399220E+04  0.10379406990E+04  0.12700000000E+01 0. -1.
         25    2    1    2    0    0 -0.50300837022E+01  0.41853673739E+02 -0.74690395464E+03  0.75846380503E+03  0.12499917731E+03 0.  0.
    9000005    1    3    3    0    0 -0.35795410530E+02 -0.25589101778E+02 -0.46130156674E+03  0.46339642751E+03  0.10000000000E+01 0.  0.
    9000005    1    3    3    0    0  0.30765326828E+02  0.67442775517E+02 -0.28560238790E+03  0.29506737752E+03  0.10000000000E+01 0.  0.
         -4    1    1    2    0  502  0.50300837022E+01 -0.41853673739E+02 -0.28369761864E+03  0.28681524274E+03  0.12700000000E+01 0.  1.
<mgrwt>
<rscale>  1 0.13191598E+03</rscale>
<asrwt>0</asrwt>
<pdfrwt beam="1">  1       21 0.11289765E-02 0.13191598E+03</pdfrwt>
<pdfrwt beam="2">  1       -4 0.15969162E+00 0.13191598E+03</pdfrwt>
<totfact> 0.33772782E+04</totfact>
</mgrwt>
</event>
<event>
 6    4  0.6325740E-003  0.1392082E+03  0.7818608E-02  0.1214398E+00
         21   -1    0    0  501  502  0.00000000000E+00  0.00000000000E+00  0.13456727571E+03  0.13456727571E+03  0.00000000000E+00 0.  1.
         -4   -1    0    0    0  501 -0.00000000000E+00 -0.00000000000E+00 -0.16225917673E+03  0.16226414679E+03  0.12700000000E+01 0. -1.
         25    2    1    2    0    0 -0.61226331965E+02  0.23465081478E+01 -0.12150382742E+03  0.18477581015E+03  0.12499900044E+03 0.  0.
    9000005    1    3    3    0    0  0.14605795878E+01 -0.24218310142E+01 -0.12186191816E+03  0.12189883370E+03  0.10000000000E+01 0.  0.
    9000005    1    3    3    0    0 -0.62686911553E+02  0.47683391620E+01  0.35809074400E+00  0.62876976449E+02  0.10000000000E+01 0.  0.
         -4    1    1    2    0  502  0.61226331965E+02 -0.23465081478E+01  0.93811926400E+02  0.11205561236E+03  0.12700000000E+01 0.  1.
<mgrwt>
<rscale>  1 0.13920819E+03</rscale>
<asrwt>0</asrwt>
<pdfrwt beam="1">  1       21 0.20702658E-01 0.13920819E+03</pdfrwt>
<pdfrwt beam="2">  1       -4 0.24963793E-01 0.13920819E+03</pdfrwt>
<totfact> 0.13334152E+04</totfact>
</mgrwt>
</event>
<event>
 6    4  0.6325740E-003  0.1274239E+03  0.7818608E-02  0.1231329E+00
         21   -1    0    0  501  502  0.00000000000E+00  0.00000000000E+00  0.94763380906E+02  0.94763380906E+02  0.00000000000E+00 0. -1.
          4   -1    0    0  502    0 -0.00000000000E+00 -0.00000000000E+00 -0.61126352975E+02  0.61139544716E+02  0.12700000000E+01 0. -1.
         25    2    1    2    0    0  0.64042535593E+01  0.23894740516E+02  0.26897475259E+02  0.13023178310E+03  0.12499948027E+03 0.  0.
    9000005    1    3    3    0    0  0.35953942625E+02 -0.41853740786E+02  0.14776186131E+02  0.57129303204E+02  0.10000000000E+01 0.  0.
    9000005    1    3    3    0    0 -0.29549689065E+02  0.65748481302E+02  0.12121289128E+02  0.73102479900E+02  0.10000000000E+01 0.  0.
          4    1    1    2  501    0 -0.64042535593E+01 -0.23894740516E+02  0.67395526715E+01  0.25671142518E+02  0.12700000000E+01 0.  1.
<mgrwt>
<rscale>  1 0.12742387E+03</rscale>
<asrwt>0</asrwt>
<pdfrwt beam="1">  1       21 0.14578982E-01 0.12742387E+03</pdfrwt>
<pdfrwt beam="2">  1        4 0.94057237E-02 0.12742387E+03</pdfrwt>
<totfact> 0.13862621E+05</totfact>
</mgrwt>
</event>
<event>
 6    4  0.6325740E-003  0.1441380E+03  0.7818608E-02  0.1207867E+00
         21   -1    0    0  501  502  0.00000000000E+00  0.00000000000E+00  0.21624318960E+03  0.21624318960E+03  0.00000000000E+00 0.  1.
         -4   -1    0    0    0  501 -0.00000000000E+00 -0.00000000000E+00 -0.14819820443E+03  0.14820364602E+03  0.12700000000E+01 0. -1.
         25    2    1    2    0    0  0.58307241797E+02 -0.41836959636E+02 -0.10419191403E+03  0.17785308443E+03  0.12500279618E+03 0.  0.
    9000005    1    3    3    0    0 -0.10303897401E+02 -0.53987298582E+02 -0.30847032521E+01  0.55057371024E+02  0.10000000000E+01 0.  0.
    9000005    1    3    3    0    0  0.68611139198E+02  0.12150338947E+02 -0.10110721078E+03  0.12279571340E+03  0.10000000000E+01 0.  0.
         -4    1    1    2    0  502 -0.58307241797E+02  0.41836959636E+02  0.17223689921E+03  0.18659375120E+03  0.12700000000E+01 0.  1.
<mgrwt>
<rscale>  1 0.14413801E+03</rscale>
<asrwt>0</asrwt>
<pdfrwt beam="1">  1       21 0.33268183E-01 0.14413801E+03</pdfrwt>
<pdfrwt beam="2">  1       -4 0.22800429E-01 0.14413801E+03</pdfrwt>
<totfact> 0.63947849E+03</totfact>
</mgrwt>
</event>
<event>
 6    4  0.6325740E-003  0.1267075E+03  0.7818608E-02  0.1232425E+00
         21   -1    0    0  501  502  0.00000000000E+00  0.00000000000E+00  0.32672394548E+02  0.32672394548E+02  0.00000000000E+00 0. -1.
          4   -1    0    0  502    0 -0.00000000000E+00 -0.00000000000E+00 -0.17234953525E+03  0.17235421434E+03  0.12700000000E+01 0. -1.
         25    2    1    2    0    0 -0.57760027897E+01 -0.19894368328E+02 -0.13179830012E+03  0.18282667356E+03  0.12500261018E+03 0.  0.
    9000005    1    3    3    0    0 -0.62145106596E+02  0.85852911541E+01 -0.75946083453E+02  0.98511568305E+02  0.10000000000E+01 0.  0.
    9000005    1    3    3    0    0  0.56369103807E+02 -0.28479659482E+02 -0.55852216666E+02  0.84315105258E+02  0.10000000000E+01 0.  0.
          4    1    1    2  501    0  0.57760027897E+01  0.19894368328E+02 -0.78788405777E+01  0.22199935321E+02  0.12700000000E+01 0.  1.
<mgrwt>
<rscale>  1 0.12670754E+03</rscale>
<asrwt>0</asrwt>
<pdfrwt beam="1">  1       21 0.50265222E-02 0.12670754E+03</pdfrwt>
<pdfrwt beam="2">  1        4 0.26517572E-01 0.12670754E+03</pdfrwt>
<totfact> 0.14199615E+05</totfact>
</mgrwt>
</event>
<event>
 6    4  0.6325740E-003  0.1268571E+03  0.7818608E-02  0.1232195E+00
          4   -1    0    0  502    0 -0.00000000000E+00  0.00000000000E+00  0.58624898419E+02  0.58638652906E+02  0.12700000000E+01 0.  1.
         21   -1    0    0  501  502  0.00000000000E+00 -0.00000000000E+00 -0.14581597919E+03  0.14581597919E+03  0.00000000000E+00 0.  1.
         25    2    1    2    0    0  0.20722543121E+02 -0.62095521691E+01 -0.13418013646E+02  0.12756470646E+03  0.12499891564E+03 0.  0.
    9000005    1    3    3    0    0 -0.13089849011E+02 -0.58874437589E+02 -0.22370338282E+02  0.64334870664E+02  0.10000000000E+01 0.  0.
    9000005    1    3    3    0    0  0.33812392132E+02  0.52664885420E+02  0.89523246363E+01  0.63229835793E+02  0.10000000000E+01 0.  0.
          4    1    1    2  501    0 -0.20722543121E+02  0.62095521691E+01 -0.73773067125E+02  0.76889925638E+02  0.12700000000E+01 0. -1.
<mgrwt>
<rscale>  1 0.12685705E+03</rscale>
<asrwt>0</asrwt>
<pdfrwt beam="2">  1       21 0.22433227E-01 0.12685705E+03</pdfrwt>
<pdfrwt beam="1">  1        4 0.90206987E-02 0.12685705E+03</pdfrwt>
<totfact> 0.67468685E+04</totfact>
</mgrwt>
</event>
<event>
 6    4  0.6325740E-003  0.1355516E+03  0.7818608E-02  0.1219443E+00
          4   -1    0    0  502    0 -0.00000000000E+00  0.00000000000E+00  0.96851558985E+03  0.96851642252E+03  0.12700000000E+01 0. -1.
         21   -1    0    0  501  502  0.00000000000E+00 -0.00000000000E+00 -0.13650604812E+02  0.13650604812E+02  0.00000000000E+00 0.  1.
         25    2    1    2    0    0  0.39072385370E+02  0.34975481494E+02  0.88216556556E+03  0.89251908203E+03  0.12499716445E+03 0.  0.
    9000005    1    3    3    0    0  0.12889782367E+02 -0.47057534736E+02  0.27876897984E+03  0.28300830763E+03  0.10000000000E+01 0.  0.
    9000005    1    3    3    0    0  0.26182603003E+02  0.82033016231E+02  0.60339658572E+03  0.60951077440E+03  0.10000000000E+01 0.  0.
          4    1    1    2  501    0 -0.39072385370E+02 -0.34975481494E+02  0.72699419483E+02  0.89647945305E+02  0.12700000000E+01 0.  1.
<mgrwt>
<rscale>  1 0.13555156E+03</rscale>
<asrwt>0</asrwt>
<pdfrwt beam="2">  1       21 0.21000938E-02 0.13555156E+03</pdfrwt>
<pdfrwt beam="1">  1        4 0.14900695E+00 0.13555156E+03</pdfrwt>
<totfact> 0.14990047E+04</totfact>
</mgrwt>
</event>
<event>
 6    4  0.6325740E-003  0.1291679E+03  0.7818608E-02  0.1228696E+00
         21   -1    0    0  501  502  0.00000000000E+00  0.00000000000E+00  0.26171651103E+03  0.26171651103E+03  0.00000000000E+00 0. -1.
         -4   -1    0    0    0  501 -0.00000000000E+00 -0.00000000000E+00 -0.26286400944E+02  0.26317062423E+02  0.12700000000E+01 0. -1.
         25    2    1    2    0    0 -0.29828092513E+02  0.13026291686E+02  0.15832839691E+03  0.20433359465E+03  0.12499974901E+03 0.  0.
    9000005    1    3    3    0    0 -0.61046224246E+02  0.42368167182E+02  0.54948166065E+02  0.92422962725E+02  0.10000000000E+01 0.  0.
    9000005    1    3    3    0    0  0.31218131733E+02 -0.29341875496E+02  0.10338023085E+03  0.11191063192E+03  0.10000000000E+01 0.  0.
         -4    1    1    2    0  502  0.29828092513E+02 -0.13026291686E+02  0.77101713173E+02  0.83699978807E+02  0.12700000000E+01 0.  1.
<mgrwt>
<rscale>  1 0.12916786E+03</rscale>
<asrwt>0</asrwt>
<pdfrwt beam="1">  1       21 0.40264077E-01 0.12916786E+03</pdfrwt>
<pdfrwt beam="2">  1       -4 0.40466575E-02 0.12916786E+03</pdfrwt>
<totfact> 0.80459502E+04</totfact>
</mgrwt>
</event>
<event>
 6    4  0.6325740E-003  0.1433025E+03  0.7818608E-02  0.1208953E+00
          4   -1    0    0  502    0 -0.00000000000E+00  0.00000000000E+00  0.11968469271E+04  0.11968476010E+04  0.12700000000E+01 0.  1.
         21   -1    0    0  501  502  0.00000000000E+00 -0.00000000000E+00 -0.11724104172E+02  0.11724104172E+02  0.00000000000E+00 0. -1.
         25    2    1    2    0    0  0.66626871312E+02  0.21729466938E+02  0.10071491037E+04  0.10172929364E+04  0.12499716656E+03 0.  0.
    9000005    1    3    3    0    0  0.13791105863E+02  0.95028816664E+01  0.11906595986E+02  0.20573438917E+02  0.10000000000E+01 0.  0.
    9000005    1    3    3    0    0  0.52835765449E+02  0.12226585272E+02  0.99524250775E+03  0.99671949752E+03  0.10000000000E+01 0.  0.
          4    1    1    2  501    0 -0.66626871312E+02 -0.21729466938E+02  0.17797371923E+03  0.19127876869E+03  0.12700000000E+01 0. -1.
<mgrwt>
<rscale>  1 0.14330248E+03</rscale>
<asrwt>0</asrwt>
<pdfrwt beam="2">  1       21 0.18037093E-02 0.14330248E+03</pdfrwt>
<pdfrwt beam="1">  1        4 0.18413554E+00 0.14330248E+03</pdfrwt>
<totfact> 0.11009760E+04</totfact>
</mgrwt>
</event>
<event>
 6    4  0.6325740E-003  0.1287654E+03  0.7818608E-02  0.1229299E+00
         -4   -1    0    0    0  501 -0.00000000000E+00  0.00000000000E+00  0.18034143508E+02  0.18078806157E+02  0.12700000000E+01 0.  1.
         21   -1    0    0  501  502  0.00000000000E+00 -0.00000000000E+00 -0.84618975528E+03  0.84618975528E+03  0.00000000000E+00 0. -1.
         25    2    1    2    0    0  0.98610562475E+01 -0.29290256721E+02 -0.21698227305E+03  0.25231298917E+03  0.12500151245E+03 0.  0.
    9000005    1    3    3    0    0 -0.15290256131E+02 -0.68469298503E+02 -0.17886450901E+03  0.19213367574E+03  0.10000000000E+01 0.  0.
    9000005    1    3    3    0    0  0.25151312378E+02  0.39179041782E+02 -0.38117764047E+02  0.60179313433E+02  0.10000000000E+01 0.  0.
         -4    1    1    2    0  502 -0.98610562475E+01  0.29290256721E+02 -0.61117333872E+03  0.61195557227E+03  0.12700000000E+01 0. -1.
<mgrwt>
<rscale>  1 0.12876544E+03</rscale>
<asrwt>0</asrwt>
<pdfrwt beam="2">  1       21 0.13018301E+00 0.12876544E+03</pdfrwt>
<pdfrwt beam="1">  1       -4 0.27779932E-02 0.12876544E+03</pdfrwt>
<totfact> 0.10862685E+04</totfact>
</mgrwt>
</event>
<event>
 6    4  0.6325740E-003  0.1266704E+03  0.7818608E-02  0.1232482E+00
          4   -1    0    0  502    0 -0.00000000000E+00  0.00000000000E+00  0.31061261794E+02  0.31087214160E+02  0.12700000000E+01 0. -1.
         21   -1    0    0  501  502  0.00000000000E+00 -0.00000000000E+00 -0.18935978261E+03  0.18935978261E+03  0.00000000000E+00 0. -1.
         25    2    1    2    0    0 -0.75050495425E+01  0.19088308454E+02 -0.15408714459E+03  0.19946991695E+03  0.12499884140E+03 0.  0.
    9000005    1    3    3    0    0  0.27626855279E+02  0.12018301669E+02 -0.16027890651E+03  0.16308896523E+03  0.10000000000E+01 0.  0.
    9000005    1    3    3    0    0 -0.35131904822E+02  0.70700067850E+01  0.61917619214E+01  0.36380951720E+02  0.10000000000E+01 0.  0.
          4    1    1    2  501    0  0.75050495425E+01 -0.19088308454E+02 -0.42113762318E+01  0.20977079826E+02  0.12700000000E+01 0.  1.
<mgrwt>
<rscale>  1 0.12667044E+03</rscale>
<asrwt>0</asrwt>
<pdfrwt beam="2">  1       21 0.29132274E-01 0.12667044E+03</pdfrwt>
<pdfrwt beam="1">  1        4 0.47809796E-02 0.12667044E+03</pdfrwt>
<totfact> 0.11598320E+05</totfact>
</mgrwt>
</event>
<event>
 6    4  0.6325740E-003  0.1309607E+03  0.7818608E-02  0.1226037E+00
         -4   -1    0    0    0  501 -0.00000000000E+00  0.00000000000E+00  0.93687445200E+03  0.93687531279E+03  0.12700000000E+01 0. -1.
         21   -1    0    0  501  502  0.00000000000E+00 -0.00000000000E+00 -0.77512795133E+01  0.77512795133E+01  0.00000000000E+00 0. -1.
         25    2    1    2    0    0 -0.21504630158E+02 -0.32586669134E+02  0.68668952332E+03  0.69906595362E+03  0.12500546365E+03 0.  0.
    9000005    1    3    3    0    0  0.14532672768E+02  0.14523163288E+02  0.16810018547E+02  0.26564968911E+02  0.10000000000E+01 0.  0.
    9000005    1    3    3    0    0 -0.36037302927E+02 -0.47109832422E+02  0.66987950478E+03  0.67250098471E+03  0.10000000000E+01 0.  0.
         -4    1    1    2    0  502  0.21504630158E+02  0.32586669134E+02  0.24243364916E+03  0.24556063868E+03  0.12700000000E+01 0.  1.
<mgrwt>
<rscale>  1 0.13096070E+03</rscale>
<asrwt>0</asrwt>
<pdfrwt beam="2">  1       21 0.11925053E-02 0.13096070E+03</pdfrwt>
<pdfrwt beam="1">  1       -4 0.14414251E+00 0.13096070E+03</pdfrwt>
<totfact> 0.40197239E+04</totfact>
</mgrwt>
</event>
<event>
 6    4  0.6325740E-003  0.1286331E+03  0.7818608E-02  0.1229498E+00
         21   -1    0    0  501  502  0.00000000000E+00  0.00000000000E+00  0.13689710461E+03  0.13689710461E+03  0.00000000000E+00 0.  1.
         -4   -1    0    0    0  501 -0.00000000000E+00 -0.00000000000E+00 -0.59841711809E+02  0.59855186678E+02  0.12700000000E+01 0. -1.
         25    2    1    2    0    0 -0.26502927578E+02  0.14729440156E+02  0.17377843224E+02  0.12980167963E+03  0.12500849980E+03 0.  0.
    9000005    1    3    3    0    0 -0.80545894845E+00  0.61556967267E+01  0.70172679723E+02  0.70453859694E+02  0.10000000000E+01 0.  0.
    9000005    1    3    3    0    0 -0.25697468630E+02  0.85737434291E+01 -0.52794836499E+02  0.59347819937E+02  0.10000000000E+01 0.  0.
         -4    1    1    2    0  502  0.26502927578E+02 -0.14729440156E+02  0.59677549573E+02  0.66950611652E+02  0.12700000000E+01 0.  1.
<mgrwt>
<rscale>  1 0.12863315E+03</rscale>
<asrwt>0</asrwt>
<pdfrwt beam="1">  1       21 0.21061093E-01 0.12863315E+03</pdfrwt>
<pdfrwt beam="2">  1       -4 0.92079069E-02 0.12863315E+03</pdfrwt>
<totfact> 0.73459054E+04</totfact>
</mgrwt>
</event>
<event>
 6    4  0.6325740E-003  0.1278904E+03  0.7818608E-02  0.1230620E+00
         21   -1    0    0  501  502  0.00000000000E+00  0.00000000000E+00  0.24534819571E+02  0.24534819571E+02  0.00000000000E+00 0.  1.
         -4   -1    0    0    0  501 -0.00000000000E+00 -0.00000000000E+00 -0.26572753788E+03  0.26573057274E+03  0.12700000000E+01 0.  1.
         25    2    1    2    0    0 -0.23101608201E+02  0.14234196112E+02 -0.16110303252E+03  0.20569431386E+03  0.12497866628E+03 0.  0.
    9000005    1    3    3    0    0  0.55044247449E+01  0.58952475646E+02 -0.34801237053E+02  0.68686382762E+02  0.10000000000E+01 0.  0.
    9000005    1    3    3    0    0 -0.28606032946E+02 -0.44718279534E+02 -0.12630179546E+03  0.13700793109E+03  0.10000000000E+01 0.  0.
         -4    1    1    2    0  502  0.23101608201E+02 -0.14234196112E+02 -0.80089685794E+02  0.84571078455E+02  0.12700000000E+01 0. -1.
<mgrwt>
<rscale>  1 0.12789044E+03</rscale>
<asrwt>0</asrwt>
<pdfrwt beam="1">  1       21 0.37745877E-02 0.12789044E+03</pdfrwt>
<pdfrwt beam="2">  1       -4 0.40883921E-01 0.12789044E+03</pdfrwt>
<totfact> 0.10018574E+05</totfact>
</mgrwt>
</event>
<event>
 6    4  0.6325740E-003  0.1271587E+03  0.7818608E-02  0.1231734E+00
         21   -1    0    0  501  502  0.00000000000E+00  0.00000000000E+00  0.47501288460E+02  0.47501288460E+02  0.00000000000E+00 0.  1.
          4   -1    0    0  502    0 -0.00000000000E+00 -0.00000000000E+00 -0.21906529789E+03  0.21906897918E+03  0.12700000000E+01 0.  1.
         25    2    1    2    0    0  0.12948300675E+02  0.19398465930E+02 -0.19544236734E+03  0.23316745567E+03  0.12500153784E+03 0.  0.
    9000005    1    3    3    0    0 -0.37050502676E+02 -0.35342061233E+02 -0.99579492217E+02  0.11197712405E+03  0.10000000000E+01 0.  0.
    9000005    1    3    3    0    0  0.49998803352E+02  0.54740527163E+02 -0.95862875123E+02  0.12119033162E+03  0.10000000000E+01 0.  0.
          4    1    1    2  501    0 -0.12948300675E+02 -0.19398465930E+02  0.23878357913E+02  0.33402811969E+02  0.12700000000E+01 0. -1.
<mgrwt>
<rscale>  1 0.12715873E+03</rscale>
<asrwt>0</asrwt>
<pdfrwt beam="1">  1       21 0.73078904E-02 0.12715873E+03</pdfrwt>
<pdfrwt beam="2">  1        4 0.33703943E-01 0.12715873E+03</pdfrwt>
<totfact> 0.47899352E+04</totfact>
</mgrwt>
</event>
<event>
 6    4  0.6325740E-003  0.1271094E+03  0.7818608E-02  0.1231809E+00
          4   -1    0    0  502    0 -0.00000000000E+00  0.00000000000E+00  0.11784932109E+03  0.11785616395E+03  0.12700000000E+01 0. -1.
         21   -1    0    0  501  502  0.00000000000E+00 -0.00000000000E+00 -0.50939175143E+02  0.50939175143E+02  0.00000000000E+00 0. -1.
         25    2    1    2    0    0 -0.19018897900E+02 -0.13040830581E+02  0.70610975416E+02  0.14540536735E+03  0.12500011706E+03 0.  0.
    9000005    1    3    3    0    0 -0.75460504466E+01  0.50474340998E+02  0.61958334056E+02  0.80277251669E+02  0.10000000000E+01 0.  0.
    9000005    1    3    3    0    0 -0.11472847454E+02 -0.63515171580E+02  0.86526413608E+01  0.65128115680E+02  0.10000000000E+01 0.  0.
          4    1    1    2  501    0  0.19018897900E+02  0.13040830581E+02 -0.37008294680E+01  0.23389971747E+02  0.12700000000E+01 0.  1.
<mgrwt>
<rscale>  1 0.12710944E+03</rscale>
<asrwt>0</asrwt>
<pdfrwt beam="2">  1       21 0.78367962E-02 0.12710944E+03</pdfrwt>
<pdfrwt beam="1">  1        4 0.18132409E-01 0.12710944E+03</pdfrwt>
<totfact> 0.13317823E+05</totfact>
</mgrwt>
</event>
<event>
 6    4  0.6325740E-003  0.1312490E+03  0.7818608E-02  0.1225614E+00
          4   -1    0    0  502    0 -0.00000000000E+00  0.00000000000E+00  0.43094110238E+02  0.43112819871E+02  0.12700000000E+01 0.  1.
         21   -1    0    0  501  502  0.00000000000E+00 -0.00000000000E+00 -0.19261068934E+03  0.19261068934E+03  0.00000000000E+00 0. -1.
         25    2    1    2    0    0 -0.33493074677E+02 -0.21923097815E+02 -0.75105256673E+02  0.15121868050E+03  0.12499552586E+03 0.  0.
    9000005    1    3    3    0    0 -0.51058269965E+02  0.40690514948E+02 -0.28719644488E+02  0.71333603008E+02  0.10000000000E+01 0.  0.
    9000005    1    3    3    0    0  0.17565195287E+02 -0.62613612763E+02 -0.46385612185E+02  0.79885077496E+02  0.10000000000E+01 0.  0.
          4    1    1    2  501    0  0.33493074677E+02  0.21923097815E+02 -0.74411322426E+02  0.84504828704E+02  0.12700000000E+01 0. -1.
<mgrwt>
<rscale>  1 0.13124896E+03</rscale>
<asrwt>0</asrwt>
<pdfrwt beam="2">  1       21 0.29632415E-01 0.13124896E+03</pdfrwt>
<pdfrwt beam="1">  1        4 0.66316242E-02 0.13124896E+03</pdfrwt>
<totfact> 0.66425691E+04</totfact>
</mgrwt>
</event>
<event>
 6    4  0.6325740E-003  0.1287834E+03  0.7818608E-02  0.1229272E+00
         21   -1    0    0  501  502  0.00000000000E+00  0.00000000000E+00  0.41483488261E+02  0.41483488261E+02  0.00000000000E+00 0. -1.
          4   -1    0    0  502    0 -0.00000000000E+00 -0.00000000000E+00 -0.18571721078E+03  0.18572155308E+03  0.12700000000E+01 0. -1.
         25    2    1    2    0    0 -0.28565539820E+02 -0.12132507600E+02 -0.14768915968E+03  0.19595218944E+03  0.12498793884E+03 0.  0.
    9000005    1    3    3    0    0 -0.38470132345E+02 -0.41391588263E+02 -0.13308367114E+02  0.58063131993E+02  0.10000000000E+01 0.  0.
    9000005    1    3    3    0    0  0.99045925253E+01  0.29259080663E+02 -0.13438079256E+03  0.13788905745E+03  0.10000000000E+01 0.  0.
          4    1    1    2  501    0  0.28565539820E+02  0.12132507600E+02  0.34554371625E+01  0.31252851899E+02  0.12700000000E+01 0.  1.
<mgrwt>
<rscale>  1 0.12878343E+03</rscale>
<asrwt>0</asrwt>
<pdfrwt beam="1">  1       21 0.63820752E-02 0.12878343E+03</pdfrwt>
<pdfrwt beam="2">  1        4 0.28573708E-01 0.12878343E+03</pdfrwt>
<totfact> 0.82707615E+04</totfact>
</mgrwt>
</event>
<event>
 6    4  0.6325740E-003  0.1293862E+03  0.7818608E-02  0.1228369E+00
         21   -1    0    0  501  502  0.00000000000E+00  0.00000000000E+00  0.28252557958E+03  0.28252557958E+03  0.00000000000E+00 0. -1.
          4   -1    0    0  502    0 -0.00000000000E+00 -0.00000000000E+00 -0.41115578267E+02  0.41135187810E+02  0.12700000000E+01 0.  1.
         25    2    1    2    0    0  0.84760886120E+01  0.32344252439E+02  0.66302511948E+02  0.14538502458E+03  0.12499114983E+03 0.  0.
    9000005    1    3    3    0    0  0.48397891670E+02 -0.11191284577E+02 -0.81420585388E+01  0.50347729699E+02  0.10000000000E+01 0.  0.
    9000005    1    3    3    0    0 -0.39921803058E+02  0.43535537016E+02  0.74444570487E+02  0.95037294877E+02  0.10000000000E+01 0.  0.
          4    1    1    2  501    0 -0.84760886120E+01 -0.32344252439E+02  0.17510748936E+03  0.17827574281E+03  0.12700000000E+01 0. -1.
<mgrwt>
<rscale>  1 0.12938617E+03</rscale>
<asrwt>0</asrwt>
<pdfrwt beam="1">  1       21 0.43465473E-01 0.12938617E+03</pdfrwt>
<pdfrwt beam="2">  1        4 0.63272017E-02 0.12938617E+03</pdfrwt>
<totfact> 0.33633532E+04</totfact>
</mgrwt>
</event>
<event>
 6    4  0.6325740E-003  0.1300912E+03  0.7818608E-02  0.1227321E+00
          4   -1    0    0  502    0 -0.00000000000E+00  0.00000000000E+00  0.16332469853E+03  0.16332963617E+03  0.12700000000E+01 0. -1.
         21   -1    0    0  501  502  0.00000000000E+00 -0.00000000000E+00 -0.42278607831E+02  0.42278607831E+02  0.00000000000E+00 0. -1.
         25    2    1    2    0    0  0.28094623663E+02  0.22573219732E+02  0.96775814578E+02  0.16213966534E+03  0.12499941864E+03 0.  0.
    9000005    1    3    3    0    0  0.11866079817E+02  0.91758011038E+01  0.12556688139E+03  0.12646359507E+03  0.10000000000E+01 0.  0.
    9000005    1    3    3    0    0  0.16228543846E+02  0.13397418628E+02 -0.28791066813E+02  0.35676070264E+02  0.10000000000E+01 0.  0.
          4    1    1    2  501    0 -0.28094623663E+02 -0.22573219732E+02  0.24270276124E+02  0.43468578663E+02  0.12700000000E+01 0.  1.
<mgrwt>
<rscale>  1 0.13009117E+03</rscale>
<asrwt>0</asrwt>
<pdfrwt beam="2">  1       21 0.65044013E-02 0.13009117E+03</pdfrwt>
<pdfrwt beam="1">  1        4 0.25128723E-01 0.13009117E+03</pdfrwt>
<totfact> 0.10184622E+05</totfact>
</mgrwt>
</event>
<event>
 6    4  0.6325740E-003  0.1290655E+03  0.7818608E-02  0.1228849E+00
         21   -1    0    0  501  502  0.00000000000E+00  0.00000000000E+00  0.51547140401E+02  0.51547140401E+02  0.00000000000E+00 0. -1.
         -4   -1    0    0    0  501 -0.00000000000E+00 -0.00000000000E+00 -0.15126574180E+03  0.15127107305E+03  0.12700000000E+01 0. -1.
         25    2    1    2    0    0  0.23342531641E+02  0.22075541484E+02 -0.40219102404E+02  0.13518681101E+03  0.12500277740E+03 0.  0.
    9000005    1    3    3    0    0 -0.28594550953E+02 -0.15673276705E+02 -0.59743311357E+02  0.68070281318E+02  0.10000000000E+01 0.  0.
    9000005    1    3    3    0    0  0.51937082593E+02  0.37748818189E+02  0.19524208953E+02  0.67116529695E+02  0.10000000000E+01 0.  0.
         -4    1    1    2    0  502 -0.23342531641E+02 -0.22075541484E+02 -0.59499498995E+02  0.67631402439E+02  0.12700000000E+01 0.  1.
<mgrwt>
<rscale>  1 0.12906548E+03</rscale>
<asrwt>0</asrwt>
<pdfrwt beam="1">  1       21 0.79303293E-02 0.12906548E+03</pdfrwt>
<pdfrwt beam="2">  1       -4 0.23273266E-01 0.12906548E+03</pdfrwt>
<totfact> 0.83396135E+04</totfact>
</mgrwt>
</event>
<event>
 6    4  0.6325740E-003  0.1290619E+03  0.7818608E-02  0.1228854E+00
          4   -1    0    0  502    0 -0.00000000000E+00  0.00000000000E+00  0.13888636408E+04  0.13888642214E+04  0.12700000000E+01 0. -1.
         21   -1    0    0  501  502  0.00000000000E+00 -0.00000000000E+00 -0.46779389369E+01  0.46779389369E+01  0.00000000000E+00 0. -1.
         25    2    1    2    0    0 -0.20068374398E+02 -0.25083729812E+02  0.11050714181E+04  0.11125825023E+04  0.12500020903E+03 0.  0.
    9000005    1    3    3    0    0 -0.52683841501E+02 -0.14964131392E+02  0.21541673956E+03  0.22227209467E+03  0.10000000000E+01 0.  0.
    9000005    1    3    3    0    0  0.32615467103E+02 -0.10119598420E+02  0.88965467852E+03  0.89031040765E+03  0.10000000000E+01 0.  0.
          4    1    1    2  501    0  0.20068374398E+02  0.25083729812E+02  0.27911428375E+03  0.28095965804E+03  0.12700000000E+01 0.  1.
<mgrwt>
<rscale>  1 0.12906194E+03</rscale>
<asrwt>0</asrwt>
<pdfrwt beam="2">  1       21 0.71968402E-03 0.12906194E+03</pdfrwt>
<pdfrwt beam="1">  1        4 0.21368431E+00 0.12906194E+03</pdfrwt>
<totfact> 0.30600948E+04</totfact>
</mgrwt>
</event>
<event>
 6    4  0.6325740E-003  0.1456513E+03  0.7818608E-02  0.1205921E+00
         -4   -1    0    0    0  501 -0.00000000000E+00  0.00000000000E+00  0.88333365509E+03  0.88333456805E+03  0.12700000000E+01 0. -1.
         21   -1    0    0  501  502  0.00000000000E+00 -0.00000000000E+00 -0.13771642918E+02  0.13771642918E+02  0.00000000000E+00 0.  1.
         25    2    1    2    0    0  0.22045199924E+02 -0.71437722480E+02  0.59102040569E+03  0.60870305829E+03  0.12499981680E+03 0.  0.
    9000005    1    3    3    0    0 -0.51340768532E+02 -0.28819788725E+02  0.29165234067E+03  0.29753746412E+03  0.10000000000E+01 0.  0.
    9000005    1    3    3    0    0  0.73385968456E+02 -0.42617933755E+02  0.29936806502E+03  0.31116559418E+03  0.10000000000E+01 0.  0.
         -4    1    1    2    0  502 -0.22045199924E+02  0.71437722480E+02  0.27854160648E+03  0.28840315268E+03  0.12700000000E+01 0.  1.
<mgrwt>
<rscale>  1 0.14565127E+03</rscale>
<asrwt>0</asrwt>
<pdfrwt beam="2">  1       21 0.21187150E-02 0.14565127E+03</pdfrwt>
<pdfrwt beam="1">  1       -4 0.13590202E+00 0.14565127E+03</pdfrwt>
<totfact> 0.18754712E+04</totfact>
</mgrwt>
</event>
<event>
 6    4  0.6325740E-003  0.1268368E+03  0.7818608E-02  0.1232226E+00
         21   -1    0    0  501  502  0.00000000000E+00  0.00000000000E+00  0.38936036832E+02  0.38936036832E+02  0.00000000000E+00 0. -1.
         -4   -1    0    0    0  501 -0.00000000000E+00 -0.00000000000E+00 -0.14270485953E+03  0.14271051059E+03  0.12700000000E+01 0. -1.
         25    2    1    2    0    0  0.16778521143E+02  0.13463126063E+02 -0.82118138360E+02  0.15109921419E+03  0.12499923739E+03 0.  0.
    9000005    1    3    3    0    0 -0.42434852716E+02 -0.16555808735E+01 -0.79242850451E+02  0.89910438886E+02  0.10000000000E+01 0.  0.
    9000005    1    3    3    0    0  0.59213373859E+02  0.15118706937E+02 -0.28752879087E+01  0.61188775309E+02  0.10000000000E+01 0.  0.
         -4    1    1    2    0  502 -0.16778521143E+02 -0.13463126063E+02 -0.21650684340E+02  0.30547333231E+02  0.12700000000E+01 0.  1.
<mgrwt>
<rscale>  1 0.12683684E+03</rscale>
<asrwt>0</asrwt>
<pdfrwt beam="1">  1       21 0.59901595E-02 0.12683684E+03</pdfrwt>
<pdfrwt beam="2">  1       -4 0.21956622E-01 0.12683684E+03</pdfrwt>
<totfact> 0.14939481E+05</totfact>
</mgrwt>
</event>
<event>
 6    4  0.6325740E-003  0.1315070E+03  0.7818608E-02  0.1225237E+00
         -4   -1    0    0    0  501 -0.00000000000E+00  0.00000000000E+00  0.60501355160E+03  0.60501488454E+03  0.12700000000E+01 0. -1.
         21   -1    0    0  501  502  0.00000000000E+00 -0.00000000000E+00 -0.13338430812E+02  0.13338430812E+02  0.00000000000E+00 0. -1.
         25    2    1    2    0    0 -0.16007289322E+02  0.37585659203E+02  0.51429390440E+03  0.53084114112E+03  0.12500072767E+03 0.  0.
    9000005    1    3    3    0    0  0.40214215175E+02  0.55047506912E+02  0.34299571835E+03  0.34970626807E+03  0.10000000000E+01 0.  0.
    9000005    1    3    3    0    0 -0.56221504496E+02 -0.17461847709E+02  0.17129818604E+03  0.18113487305E+03  0.10000000000E+01 0.  0.
         -4    1    1    2    0  502  0.16007289322E+02 -0.37585659203E+02  0.77381216391E+02  0.87512174235E+02  0.12700000000E+01 0.  1.
<mgrwt>
<rscale>  1 0.13150702E+03</rscale>
<asrwt>0</asrwt>
<pdfrwt beam="2">  1       21 0.20520668E-02 0.13150702E+03</pdfrwt>
<pdfrwt beam="1">  1       -4 0.93083740E-01 0.13150702E+03</pdfrwt>
<totfact> 0.47915550E+04</totfact>
</mgrwt>
</event>
<event>
 6    4  0.6325740E-003  0.1315174E+03  0.7818608E-02  0.1225221E+00
         21   -1    0    0  501  502  0.00000000000E+00  0.00000000000E+00  0.64937673479E+02  0.64937673479E+02  0.00000000000E+00 0. -1.
         -4   -1    0    0    0  501 -0.00000000000E+00 -0.00000000000E+00 -0.12900159843E+03  0.12900784975E+03  0.12700000000E+01 0. -1.
         25    2    1    2    0    0  0.17003056607E+02 -0.37182368058E+02 -0.18662891212E+02  0.13283497428E+03  0.12500077782E+03 0.  0.
    9000005    1    3    3    0    0 -0.32483445410E+02 -0.36776436951E+02 -0.53275101223E+02  0.72435605546E+02  0.10000000000E+01 0.  0.
    9000005    1    3    3    0    0  0.49486502017E+02 -0.40593110779E+00  0.34612210011E+02  0.60399368736E+02  0.10000000000E+01 0.  0.
         -4    1    1    2    0  502 -0.17003056607E+02  0.37182368058E+02 -0.45401033741E+02  0.61110548952E+02  0.12700000000E+01 0.  1.
<mgrwt>
<rscale>  1 0.13151740E+03</rscale>
<asrwt>0</asrwt>
<pdfrwt beam="1">  1       21 0.99904113E-02 0.13151740E+03</pdfrwt>
<pdfrwt beam="2">  1       -4 0.19847836E-01 0.13151740E+03</pdfrwt>
<totfact> 0.74719512E+04</totfact>
</mgrwt>
</event>
<event>
 6    4  0.6325740E-003  0.1267441E+03  0.7818608E-02  0.1232368E+00
         21   -1    0    0  501  502  0.00000000000E+00  0.00000000000E+00  0.22225345746E+03  0.22225345746E+03  0.00000000000E+00 0. -1.
         -4   -1    0    0    0  501 -0.00000000000E+00 -0.00000000000E+00 -0.28103967009E+02  0.28132647611E+02  0.12700000000E+01 0. -1.
         25    2    1    2    0    0  0.81738940865E+01  0.19282607186E+02  0.12457291703E+03  0.17771462543E+03  0.12500177978E+03 0.  0.
    9000005    1    3    3    0    0 -0.14169265621E+02 -0.41442982900E+02  0.98764137316E+02  0.10804463772E+03  0.10000000000E+01 0.  0.
    9000005    1    3    3    0    0  0.22343159707E+02  0.60725590087E+02  0.25808779712E+02  0.69669987709E+02  0.10000000000E+01 0.  0.
         -4    1    1    2    0  502 -0.81738940865E+01 -0.19282607186E+02  0.69576573426E+02  0.72671479648E+02  0.12700000000E+01 0.  1.
<mgrwt>
<rscale>  1 0.12674414E+03</rscale>
<asrwt>0</asrwt>
<pdfrwt beam="1">  1       21 0.34192838E-01 0.12674414E+03</pdfrwt>
<pdfrwt beam="2">  1       -4 0.43261727E-02 0.12674414E+03</pdfrwt>
<totfact> 0.99736174E+04</totfact>
</mgrwt>
</event>
<event>
 6    4  0.6325740E-003  0.1298278E+03  0.7818608E-02  0.1227712E+00
         21   -1    0    0  501  502  0.00000000000E+00  0.00000000000E+00  0.11122677532E+02  0.11122677532E+02  0.00000000000E+00 0. -1.
          4   -1    0    0  502    0 -0.00000000000E+00 -0.00000000000E+00 -0.87038196023E+03  0.87038288677E+03  0.12700000000E+01 0.  1.
         25    2    1    2    0    0 -0.13178085321E+02  0.32492061062E+02 -0.81375092579E+03  0.82404236379E+03  0.12500340851E+03 0.  0.
    9000005    1    3    3    0    0 -0.15665892465E+02  0.77725295870E+02 -0.62072235996E+03  0.62576664178E+03  0.10000000000E+01 0.  0.
    9000005    1    3    3    0    0  0.24878071441E+01 -0.45233234808E+02 -0.19302856583E+03  0.19827572202E+03  0.10000000000E+01 0.  0.
          4    1    1    2  501    0  0.13178085321E+02 -0.32492061062E+02 -0.45508356906E+02  0.57463200512E+02  0.12700000000E+01 0. -1.
<mgrwt>
<rscale>  1 0.12982776E+03</rscale>
<asrwt>0</asrwt>
<pdfrwt beam="1">  1       21 0.17111811E-02 0.12982776E+03</pdfrwt>
<pdfrwt beam="2">  1        4 0.13391057E+00 0.12982776E+03</pdfrwt>
<totfact> 0.27118564E+04</totfact>
</mgrwt>
</event>
<event>
 6    4  0.6325740E-003  0.1337861E+03  0.7818608E-02  0.1221944E+00
          4   -1    0    0  502    0 -0.00000000000E+00  0.00000000000E+00  0.10123808085E+03  0.10124604642E+03  0.12700000000E+01 0.  1.
         21   -1    0    0  501  502  0.00000000000E+00 -0.00000000000E+00 -0.83950221868E+02  0.83950221868E+02  0.00000000000E+00 0. -1.
         25    2    1    2    0    0  0.39639015122E+00  0.47679183623E+02  0.27091226519E+02  0.13650149864E+03  0.12500105160E+03 0.  0.
    9000005    1    3    3    0    0 -0.61809914188E+02  0.32001157174E+02  0.13015604608E+02  0.70816280019E+02  0.10000000000E+01 0.  0.
    9000005    1    3    3    0    0  0.62206304339E+02  0.15678026449E+02  0.14075621911E+02  0.65685218619E+02  0.10000000000E+01 0.  0.
          4    1    1    2  501    0 -0.39639015122E+00 -0.47679183623E+02 -0.98033675318E+01  0.48694769648E+02  0.12700000000E+01 0. -1.
<mgrwt>
<rscale>  1 0.13378612E+03</rscale>
<asrwt>0</asrwt>
<pdfrwt beam="2">  1       21 0.12915419E-01 0.13378612E+03</pdfrwt>
<pdfrwt beam="1">  1        4 0.15576441E-01 0.13378612E+03</pdfrwt>
<totfact> 0.73128651E+04</totfact>
</mgrwt>
</event>
<event>
 6    4  0.6325740E-003  0.1266904E+03  0.7818608E-02  0.1232451E+00
         21   -1    0    0  501  502  0.00000000000E+00  0.00000000000E+00  0.26431019714E+03  0.26431019714E+03  0.00000000000E+00 0.  1.
         -4   -1    0    0    0  501 -0.00000000000E+00 -0.00000000000E+00 -0.24607148523E+02  0.24639899724E+02  0.12700000000E+01 0.  1.
         25    2    1    2    0    0 -0.20607737642E+02  0.29624574287E+00  0.14739103095E+03  0.19435681953E+03  0.12500276269E+03 0.  0.
    9000005    1    3    3    0    0  0.19625527967E+02  0.68575284234E+01  0.15191089276E+03  0.15333005701E+03  0.10000000000E+01 0.  0.
    9000005    1    3    3    0    0 -0.40233265609E+02 -0.65612826806E+01 -0.45198618040E+01  0.41026762518E+02  0.10000000000E+01 0.  0.
         -4    1    1    2    0  502  0.20607737642E+02 -0.29624574287E+00  0.92312017665E+02  0.94593277339E+02  0.12700000000E+01 0. -1.
<mgrwt>
<rscale>  1 0.12669040E+03</rscale>
<asrwt>0</asrwt>
<pdfrwt beam="1">  1       21 0.40663105E-01 0.12669040E+03</pdfrwt>
<pdfrwt beam="2">  1       -4 0.37884694E-02 0.12669040E+03</pdfrwt>
<totfact> 0.87361280E+04</totfact>
</mgrwt>
</event>
<event>
 6    4  0.6325740E-003  0.1282994E+03  0.7818608E-02  0.1230001E+00
         21   -1    0    0  501  502  0.00000000000E+00  0.00000000000E+00  0.79094301574E+03  0.79094301574E+03  0.00000000000E+00 0. -1.
         -4   -1    0    0    0  501 -0.00000000000E+00 -0.00000000000E+00 -0.17940700999E+02  0.17985595690E+02  0.12700000000E+01 0.  1.
         25    2    1    2    0    0  0.18739369789E+02  0.22011213945E+02  0.21639819537E+03  0.25157287573E+03  0.12500030129E+03 0.  0.
    9000005    1    3    3    0    0  0.65281511553E+02  0.35500991251E+02  0.16479484402E+03  0.18077703600E+03  0.10000000000E+01 0.  0.
    9000005    1    3    3    0    0 -0.46542141765E+02 -0.13489777305E+02  0.51603351352E+02  0.70795839726E+02  0.10000000000E+01 0.  0.
         -4    1    1    2    0  502 -0.18739369789E+02 -0.22011213945E+02  0.55660411937E+03  0.55735573570E+03  0.12700000000E+01 0. -1.
<mgrwt>
<rscale>  1 0.12829939E+03</rscale>
<asrwt>0</asrwt>
<pdfrwt beam="1">  1       21 0.12168351E+00 0.12829939E+03</pdfrwt>
<pdfrwt beam="2">  1       -4 0.27636403E-02 0.12829939E+03</pdfrwt>
<totfact> 0.12935372E+04</totfact>
</mgrwt>
</event>
<event>
 6    4  0.6325740E-003  0.1354374E+03  0.7818608E-02  0.1219604E+00
         -4   -1    0    0    0  501 -0.00000000000E+00  0.00000000000E+00  0.26723789588E+02  0.26753949801E+02  0.12700000000E+01 0.  1.
         21   -1    0    0  501  502  0.00000000000E+00 -0.00000000000E+00 -0.73782373870E+03  0.73782373870E+03  0.00000000000E+00 0. -1.
         25    2    1    2    0    0 -0.34831131419E+02 -0.38789917509E+02 -0.15416877713E+03  0.20521035960E+03  0.12500165771E+03 0.  0.
    9000005    1    3    3    0    0 -0.76102778925E+02 -0.42614469416E+02 -0.71729608003E+02  0.11293255787E+03  0.10000000000E+01 0.  0.
    9000005    1    3    3    0    0  0.41271647506E+02  0.38245519065E+01 -0.82439169131E+02  0.92277801730E+02  0.10000000000E+01 0.  0.
         -4    1    1    2    0  502  0.34831131419E+02  0.38789917509E+02 -0.55693117198E+03  0.55936732890E+03  0.12700000000E+01 0. -1.
<mgrwt>
<rscale>  1 0.13543737E+03</rscale>
<asrwt>0</asrwt>
<pdfrwt beam="2">  1       21 0.11351133E+00 0.13543737E+03</pdfrwt>
<pdfrwt beam="1">  1       -4 0.41137569E-02 0.13543737E+03</pdfrwt>
<totfact> 0.82111264E+03</totfact>
</mgrwt>
</event>
<event>
 6    4  0.6325740E-003  0.1588068E+03  0.7818608E-02  0.1190050E+00
         21   -1    0    0  501  502  0.00000000000E+00  0.00000000000E+00  0.80373348973E+02  0.80373348973E+02  0.00000000000E+00 0. -1.
          4   -1    0    0  502    0 -0.00000000000E+00 -0.00000000000E+00 -0.34023374757E+03  0.34023611784E+03  0.12700000000E+01 0.  1.
         25    2    1    2    0    0  0.53457541002E+02 -0.82081446718E+02 -0.27877735195E+03  0.32083704272E+03  0.12499809373E+03 0.  0.
    9000005    1    3    3    0    0  0.69342430925E+02 -0.61155992331E+02 -0.86000034979E+02  0.12627523170E+03  0.10000000000E+01 0.  0.
    9000005    1    3    3    0    0 -0.15884889923E+02 -0.20925454387E+02 -0.19277731697E+03  0.19456181102E+03  0.10000000000E+01 0.  0.
          4    1    1    2  501    0 -0.53457541002E+02  0.82081446718E+02  0.18916953356E+02  0.99772424093E+02  0.12700000000E+01 0. -1.
<mgrwt>
<rscale>  1 0.15880679E+03</rscale>
<asrwt>0</asrwt>
<pdfrwt beam="1">  1       21 0.12365131E-01 0.15880679E+03</pdfrwt>
<pdfrwt beam="2">  1        4 0.52344608E-01 0.15880679E+03</pdfrwt>
<totfact> 0.81511729E+03</totfact>
</mgrwt>
</event>
<event>
 6    4  0.6325740E-003  0.1280789E+03  0.7818608E-02  0.1230335E+00
          4   -1    0    0  502    0 -0.00000000000E+00  0.00000000000E+00  0.91673355432E+02  0.91682152004E+02  0.12700000000E+01 0. -1.
         21   -1    0    0  501  502  0.00000000000E+00 -0.00000000000E+00 -0.72073891327E+02  0.72073891327E+02  0.00000000000E+00 0. -1.
         25    2    1    2    0    0  0.18617674411E+02 -0.20795844824E+02  0.33729046235E+02  0.13244561450E+03  0.12500042911E+03 0.  0.
    9000005    1    3    3    0    0 -0.49812316606E+02 -0.11693393515E+02  0.37278889692E+02  0.63314437170E+02  0.10000000000E+01 0.  0.
    9000005    1    3    3    0    0  0.68429991017E+02 -0.91024513093E+01 -0.35498434575E+01  0.69131177329E+02  0.10000000000E+01 0.  0.
          4    1    1    2  501    0 -0.18617674411E+02  0.20795844824E+02 -0.14129582130E+02  0.31310428831E+02  0.12700000000E+01 0.  1.
<mgrwt>
<rscale>  1 0.12807885E+03</rscale>
<asrwt>0</asrwt>
<pdfrwt beam="2">  1       21 0.11088291E-01 0.12807885E+03</pdfrwt>
<pdfrwt beam="1">  1        4 0.14105130E-01 0.12807885E+03</pdfrwt>
<totfact> 0.11322819E+05</totfact>
</mgrwt>
</event>
<event>
 6    4  0.6325740E-003  0.1982439E+03  0.7818608E-02  0.1151229E+00
         21   -1    0    0  501  502  0.00000000000E+00  0.00000000000E+00  0.61745459884E+03  0.61745459884E+03  0.00000000000E+00 0. -1.
         -4   -1    0    0    0  501 -0.00000000000E+00 -0.00000000000E+00 -0.13340570967E+03  0.13341175463E+03  0.12700000000E+01 0.  1.
         25    2    1    2    0    0 -0.12551341814E+03 -0.89003401304E+02 -0.42111976667E+02  0.20266739942E+03  0.12500173052E+03 0.  0.
    9000005    1    3    3    0    0 -0.24433540056E+02 -0.85106235791E+02  0.95781915842E+01  0.89066329240E+02  0.10000000000E+01 0.  0.
    9000005    1    3    3    0    0 -0.10107987809E+03 -0.38971655128E+01 -0.51690168251E+02  0.11360107018E+03  0.10000000000E+01 0.  0.
         -4    1    1    2    0  502  0.12551341814E+03  0.89003401304E+02  0.52616086584E+03  0.54819895405E+03  0.12700000000E+01 0. -1.
<mgrwt>
<rscale>  1 0.19824393E+03</rscale>
<asrwt>0</asrwt>
<pdfrwt beam="1">  1       21 0.94993014E-01 0.19824393E+03</pdfrwt>
<pdfrwt beam="2">  1       -4 0.20524521E-01 0.19824393E+03</pdfrwt>
<totfact> 0.83840206E+02</totfact>
</mgrwt>
</event>
<event>
 6    4  0.6325740E-003  0.1302411E+03  0.7818608E-02  0.1227098E+00
         21   -1    0    0  501  502  0.00000000000E+00  0.00000000000E+00  0.19097077562E+03  0.19097077562E+03  0.00000000000E+00 0.  1.
          4   -1    0    0  502    0 -0.00000000000E+00 -0.00000000000E+00 -0.12836950955E+03  0.12837579165E+03  0.12700000000E+01 0. -1.
         25    2    1    2    0    0 -0.12762307941E+01  0.36570822860E+02 -0.92651580243E+02  0.15983445790E+03  0.12499473893E+03 0.  0.
    9000005    1    3    3    0    0  0.12065669905E+02 -0.40408516495E+02 -0.63922657705E+02  0.76586779301E+02  0.10000000000E+01 0.  0.
    9000005    1    3    3    0    0 -0.13341900699E+02  0.76979339355E+02 -0.28728922538E+02  0.83247678599E+02  0.10000000000E+01 0.  0.
          4    1    1    2  501    0  0.12762307941E+01 -0.36570822860E+02  0.15525284631E+03  0.15951210938E+03  0.12700000000E+01 0.  1.
<mgrwt>
<rscale>  1 0.13024108E+03</rscale>
<asrwt>0</asrwt>
<pdfrwt beam="1">  1       21 0.29380120E-01 0.13024108E+03</pdfrwt>
<pdfrwt beam="2">  1        4 0.19749963E-01 0.13024108E+03</pdfrwt>
<totfact> 0.10481109E+04</totfact>
</mgrwt>
</event>
<event>
 6    4  0.6325740E-003  0.1287975E+03  0.7818608E-02  0.1229251E+00
         21   -1    0    0  501  502  0.00000000000E+00  0.00000000000E+00  0.41463144721E+01  0.41463144721E+01  0.00000000000E+00 0. -1.
          4   -1    0    0  502    0 -0.00000000000E+00 -0.00000000000E+00 -0.15510843381E+04  0.15510848580E+04  0.12700000000E+01 0. -1.
         25    2    1    2    0    0  0.30013825199E+02  0.79282912541E+01 -0.12932155418E+04  0.12996134928E+04  0.12500042212E+03 0.  0.
    9000005    1    3    3    0    0  0.29737836019E+02  0.64537458196E+02 -0.63382882113E+03  0.63780043657E+03  0.10000000000E+01 0.  0.
    9000005    1    3    3    0    0  0.27598917963E+00 -0.56609166942E+02 -0.65938672069E+03  0.66181305621E+03  0.10000000000E+01 0.  0.
          4    1    1    2  501    0 -0.30013825199E+02 -0.79282912541E+01 -0.25372248182E+03  0.25561767972E+03  0.12700000000E+01 0.  1.
<mgrwt>
<rscale>  1 0.12879749E+03</rscale>
<asrwt>0</asrwt>
<pdfrwt beam="1">  1       21 0.63789534E-03 0.12879749E+03</pdfrwt>
<pdfrwt beam="2">  1        4 0.23864306E+00 0.12879749E+03</pdfrwt>
<totfact> 0.26300512E+04</totfact>
</mgrwt>
</event>
<event>
 6    4  0.6325740E-003  0.1395600E+03  0.7818608E-02  0.1213922E+00
         21   -1    0    0  501  502  0.00000000000E+00  0.00000000000E+00  0.31404050297E+03  0.31404050297E+03  0.00000000000E+00 0.  1.
          4   -1    0    0  502    0 -0.00000000000E+00 -0.00000000000E+00 -0.64707886020E+02  0.64720347752E+02  0.12700000000E+01 0. -1.
         25    2    1    2    0    0  0.61617995583E+02  0.72183546226E+01  0.19762619411E+02  0.14095235909E+03  0.12501249691E+03 0.  0.
    9000005    1    3    3    0    0 -0.26180540705E+02  0.83692636611E-01 -0.29956033988E+02  0.39796880385E+02  0.10000000000E+01 0.  0.
    9000005    1    3    3    0    0  0.87798536288E+02  0.71346619860E+01  0.49718653400E+02  0.10115547870E+03  0.10000000000E+01 0.  0.
          4    1    1    2  501    0 -0.61617995583E+02 -0.72183546226E+01  0.22956999754E+03  0.23780849163E+03  0.12700000000E+01 0.  1.
<mgrwt>
<rscale>  1 0.13956005E+03</rscale>
<asrwt>0</asrwt>
<pdfrwt beam="1">  1       21 0.48313923E-01 0.13956005E+03</pdfrwt>
<pdfrwt beam="2">  1        4 0.99562157E-02 0.13956005E+03</pdfrwt>
<totfact> 0.12882200E+04</totfact>
</mgrwt>
</event>
<event>
 6    4  0.6325740E-003  0.1332922E+03  0.7818608E-02  0.1222651E+00
         21   -1    0    0  501  502  0.00000000000E+00  0.00000000000E+00  0.17712758514E+03  0.17712758514E+03  0.00000000000E+00 0.  1.
          4   -1    0    0  502    0 -0.00000000000E+00 -0.00000000000E+00 -0.62280991990E+03  0.62281121476E+03  0.12700000000E+01 0. -1.
         25    2    1    2    0    0 -0.29511838651E+00  0.46279927432E+02 -0.61248957782E+03  0.62682557679E+03  0.12499960804E+03 0.  0.
    9000005    1    3    3    0    0  0.17533980093E+02  0.17724340208E+02 -0.57828464490E+03  0.57882270448E+03  0.10000000000E+01 0.  0.
    9000005    1    3    3    0    0 -0.17829098480E+02  0.28555587224E+02 -0.34204932911E+02  0.48002872307E+02  0.10000000000E+01 0.  0.
          4    1    1    2  501    0  0.29511838651E+00 -0.46279927432E+02  0.16680724306E+03  0.17311322310E+03  0.12700000000E+01 0.  1.
<mgrwt>
<rscale>  1 0.13329224E+03</rscale>
<asrwt>0</asrwt>
<pdfrwt beam="1">  1       21 0.27250398E-01 0.13329224E+03</pdfrwt>
<pdfrwt beam="2">  1        4 0.95817361E-01 0.13329224E+03</pdfrwt>
<totfact> 0.50848093E+02</totfact>
</mgrwt>
</event>
<event>
 6    4  0.6325740E-003  0.1337688E+03  0.7818608E-02  0.1221968E+00
         21   -1    0    0  501  502  0.00000000000E+00  0.00000000000E+00  0.10505735078E+03  0.10505735078E+03  0.00000000000E+00 0. -1.
         -4   -1    0    0    0  501 -0.00000000000E+00 -0.00000000000E+00 -0.79145188261E+02  0.79155377106E+02  0.12700000000E+01 0. -1.
         25    2    1    2    0    0  0.38456171860E+01 -0.47475341136E+02  0.27380970020E+02  0.13654232739E+03  0.12500157144E+03 0.  0.
    9000005    1    3    3    0    0 -0.57785921426E+02 -0.34525176667E+01  0.89389073164E+01  0.58583586927E+02  0.10000000000E+01 0.  0.
    9000005    1    3    3    0    0  0.61631538612E+02 -0.44022823469E+02  0.18442062704E+02  0.77958740463E+02  0.10000000000E+01 0.  0.
         -4    1    1    2    0  502 -0.38456171860E+01  0.47475341136E+02 -0.14688075046E+01  0.47670400491E+02  0.12700000000E+01 0.  1.
<mgrwt>
<rscale>  1 0.13376879E+03</rscale>
<asrwt>0</asrwt>
<pdfrwt beam="1">  1       21 0.16162669E-01 0.13376879E+03</pdfrwt>
<pdfrwt beam="2">  1       -4 0.12177557E-01 0.13376879E+03</pdfrwt>
<totfact> 0.74808809E+04</totfact>
</mgrwt>
</event>
<event>
 6    4  0.6325740E-003  0.1315536E+03  0.7818608E-02  0.1225169E+00
         21   -1    0    0  501  502  0.00000000000E+00  0.00000000000E+00  0.22812124246E+03  0.22812124246E+03  0.00000000000E+00 0.  1.
          4   -1    0    0  502    0 -0.00000000000E+00 -0.00000000000E+00 -0.87152800495E+02  0.87162053292E+02  0.12700000000E+01 0. -1.
         25    2    1    2    0    0  0.15566284997E+02 -0.37937397687E+02 -0.33749011095E+02  0.13581364184E+03  0.12499917675E+03 0.  0.
    9000005    1    3    3    0    0  0.49589915861E+02  0.11485205009E+02  0.20531670257E+02  0.54896440438E+02  0.10000000000E+01 0.  0.
    9000005    1    3    3    0    0 -0.34023630863E+02 -0.49422602696E+02 -0.54280681353E+02  0.80917201400E+02  0.10000000000E+01 0.  0.
          4    1    1    2  501    0 -0.15566284997E+02  0.37937397687E+02  0.17471745306E+03  0.17946965391E+03  0.12700000000E+01 0.  1.
<mgrwt>
<rscale>  1 0.13155360E+03</rscale>
<asrwt>0</asrwt>
<pdfrwt beam="1">  1       21 0.35095575E-01 0.13155360E+03</pdfrwt>
<pdfrwt beam="2">  1        4 0.13409107E-01 0.13155360E+03</pdfrwt>
<totfact> 0.14672040E+04</totfact>
</mgrwt>
</event>
<event>
 6    4  0.6325740E-003  0.1278586E+03  0.7818608E-02  0.1230668E+00
         21   -1    0    0  501  502  0.00000000000E+00  0.00000000000E+00  0.97175655798E+02  0.97175655798E+02  0.00000000000E+00 0. -1.
         -4   -1    0    0    0  501 -0.00000000000E+00 -0.00000000000E+00 -0.10541560289E+03  0.10542325281E+03  0.12700000000E+01 0. -1.
         25    2    1    2    0    0  0.11127784088E+02  0.24471543745E+02 -0.62285917502E+02  0.14222288812E+03  0.12500052141E+03 0.  0.
    9000005    1    3    3    0    0  0.60712909894E+02  0.12821836958E+02 -0.66676418583E+02  0.91088976972E+02  0.10000000000E+01 0.  0.
    9000005    1    3    3    0    0 -0.49585125806E+02  0.11649706786E+02  0.43905010817E+01  0.51133911146E+02  0.10000000000E+01 0.  0.
         -4    1    1    2    0  502 -0.11127784088E+02 -0.24471543745E+02  0.54045970412E+02  0.60376020486E+02  0.12700000000E+01 0.  1.
<mgrwt>
<rscale>  1 0.12785857E+03</rscale>
<asrwt>0</asrwt>
<pdfrwt beam="1">  1       21 0.14950101E-01 0.12785857E+03</pdfrwt>
<pdfrwt beam="2">  1       -4 0.16219012E-01 0.12785857E+03</pdfrwt>
<totfact> 0.52103312E+04</totfact>
</mgrwt>
</event>
<event>
 6    4  0.6325740E-003  0.1397935E+03  0.7818608E-02  0.1213607E+00
         21   -1    0    0  501  502  0.00000000000E+00  0.00000000000E+00  0.54335762387E+03  0.54335762387E+03  0.00000000000E+00 0. -1.
          4   -1    0    0  502    0 -0.00000000000E+00 -0.00000000000E+00 -0.32025126538E+02  0.32050298435E+02  0.12700000000E+01 0.  1.
         25    2    1    2    0    0 -0.46962399963E+02  0.41334164610E+02  0.13648143963E+03  0.19536988667E+03  0.12501291564E+03 0.  0.
    9000005    1    3    3    0    0 -0.54215703782E+02 -0.17241706672E+02  0.12195700463E+03  0.13457759830E+03  0.10000000000E+01 0.  0.
    9000005    1    3    3    0    0  0.72533038190E+01  0.58575871282E+02  0.14524435003E+02  0.60792288367E+02  0.10000000000E+01 0.  0.
          4    1    1    2  501    0  0.46962399963E+02 -0.41334164610E+02  0.37485105770E+03  0.38003803564E+03  0.12700000000E+01 0. -1.
<mgrwt>
<rscale>  1 0.13979345E+03</rscale>
<asrwt>0</asrwt>
<pdfrwt beam="1">  1       21 0.83593474E-01 0.13979345E+03</pdfrwt>
<pdfrwt beam="2">  1        4 0.49289934E-02 0.13979345E+03</pdfrwt>
<totfact> 0.12578676E+04</totfact>
</mgrwt>
</event>
<event>
 6    4  0.6325740E-003  0.1338968E+03  0.7818608E-02  0.1221786E+00
         -4   -1    0    0    0  501 -0.00000000000E+00  0.00000000000E+00  0.38262537991E+03  0.38262748758E+03  0.12700000000E+01 0. -1.
         21   -1    0    0  501  502  0.00000000000E+00 -0.00000000000E+00 -0.28156378860E+02  0.28156378860E+02  0.00000000000E+00 0. -1.
         25    2    1    2    0    0  0.47159991085E+02 -0.89404621789E+01  0.33157279841E+03  0.35758757316E+03  0.12499742082E+03 0.  0.
    9000005    1    3    3    0    0  0.75519252153E+02 -0.28232638191E+02  0.12897544395E+03  0.15210491264E+03  0.10000000000E+01 0.  0.
    9000005    1    3    3    0    0 -0.28359261068E+02  0.19292176013E+02  0.20259735446E+03  0.20548266053E+03  0.10000000000E+01 0.  0.
         -4    1    1    2    0  502 -0.47159991085E+02  0.89404621789E+01  0.22896202639E+02  0.53196293276E+02  0.12700000000E+01 0.  1.
<mgrwt>
<rscale>  1 0.13389680E+03</rscale>
<asrwt>0</asrwt>
<pdfrwt beam="2">  1       21 0.43317509E-02 0.13389680E+03</pdfrwt>
<pdfrwt beam="1">  1       -4 0.58867805E-01 0.13389680E+03</pdfrwt>
<totfact> 0.38254862E+04</totfact>
</mgrwt>
</event>
<event>
 6    4  0.6325740E-003  0.1293492E+03  0.7818608E-02  0.1228425E+00
         21   -1    0    0  501  502  0.00000000000E+00  0.00000000000E+00  0.91199284065E+02  0.91199284065E+02  0.00000000000E+00 0.  1.
         -4   -1    0    0    0  501 -0.00000000000E+00 -0.00000000000E+00 -0.75267345405E+02  0.75278059116E+02  0.12700000000E+01 0.  1.
         25    2    1    2    0    0  0.33012090297E+02  0.39414579329E+01 -0.54426698053E+00  0.12935037928E+03  0.12500356473E+03 0.  0.
    9000005    1    3    3    0    0 -0.22967074530E+02  0.29768586199E+02  0.40507269085E+02  0.55276523818E+02  0.10000000000E+01 0.  0.
    9000005    1    3    3    0    0  0.55979164827E+02 -0.25827128266E+02 -0.41051536065E+02  0.74073855459E+02  0.10000000000E+01 0.  0.
         -4    1    1    2    0  502 -0.33012090297E+02 -0.39414579329E+01  0.16476205641E+02  0.37126963904E+02  0.12700000000E+01 0. -1.
<mgrwt>
<rscale>  1 0.12934923E+03</rscale>
<asrwt>0</asrwt>
<pdfrwt beam="1">  1       21 0.14030659E-01 0.12934923E+03</pdfrwt>
<pdfrwt beam="2">  1       -4 0.11581096E-01 0.12934923E+03</pdfrwt>
<totfact> 0.10473302E+05</totfact>
</mgrwt>
</event>
<event>
 6    4  0.6325740E-003  0.1514305E+03  0.7818608E-02  0.1198726E+00
          4   -1    0    0  502    0 -0.00000000000E+00  0.00000000000E+00  0.65800074493E+02  0.65812329417E+02  0.12700000000E+01 0. -1.
         21   -1    0    0  501  502  0.00000000000E+00 -0.00000000000E+00 -0.23363109176E+03  0.23363109176E+03  0.00000000000E+00 0.  1.
         25    2    1    2    0    0  0.77678003731E+02 -0.35670199229E+02 -0.62585379462E+02  0.16385399477E+03  0.12499986601E+03 0.  0.
    9000005    1    3    3    0    0  0.45990365762E+02  0.37208940266E+02  0.52034887072E+01  0.59394404395E+02  0.10000000000E+01 0.  0.
    9000005    1    3    3    0    0  0.31687637969E+02 -0.72879139495E+02 -0.67788868169E+02  0.10445959037E+03  0.10000000000E+01 0.  0.
          4    1    1    2  501    0 -0.77678003731E+02  0.35670199229E+02 -0.10524563781E+03  0.13558942641E+03  0.12700000000E+01 0.  1.
<mgrwt>
<rscale>  1 0.15143052E+03</rscale>
<asrwt>0</asrwt>
<pdfrwt beam="2">  1       21 0.35943245E-01 0.15143052E+03</pdfrwt>
<pdfrwt beam="1">  1        4 0.10124297E-01 0.15143052E+03</pdfrwt>
<totfact> 0.22896819E+04</totfact>
</mgrwt>
</event>
<event>
 6    4  0.6325740E-003  0.1445755E+03  0.7818608E-02  0.1207302E+00
         21   -1    0    0  501  502  0.00000000000E+00  0.00000000000E+00  0.18499263118E+03  0.18499263118E+03  0.00000000000E+00 0.  1.
         -4   -1    0    0    0  501 -0.00000000000E+00 -0.00000000000E+00 -0.80989036911E+02  0.80998993819E+02  0.12700000000E+01 0. -1.
         25    2    1    2    0    0 -0.67685147895E+02 -0.26376449716E+02  0.69316417987E+01  0.14474158087E+03  0.12500032492E+03 0.  0.
    9000005    1    3    3    0    0 -0.45732119482E+02 -0.25230534738E+02 -0.56887726970E+02  0.77234837446E+02  0.10000000000E+01 0.  0.
    9000005    1    3    3    0    0 -0.21953028412E+02 -0.11459149784E+01  0.63819368768E+02  0.67506743423E+02  0.10000000000E+01 0.  0.
         -4    1    1    2    0  502  0.67685147895E+02  0.26376449716E+02  0.97071952472E+02  0.12125004413E+03  0.12700000000E+01 0.  1.
<mgrwt>
<rscale>  1 0.14457551E+03</rscale>
<asrwt>0</asrwt>
<pdfrwt beam="1">  1       21 0.28460405E-01 0.14457551E+03</pdfrwt>
<pdfrwt beam="2">  1       -4 0.12460953E-01 0.14457551E+03</pdfrwt>
<totfact> 0.25233267E+04</totfact>
</mgrwt>
</event>
<event>
 6    4  0.6325740E-003  0.1279566E+03  0.7818608E-02  0.1230520E+00
         21   -1    0    0  501  502  0.00000000000E+00  0.00000000000E+00  0.78290443935E+03  0.78290443935E+03  0.00000000000E+00 0. -1.
          4   -1    0    0  502    0 -0.00000000000E+00 -0.00000000000E+00 -0.10518197963E+02  0.10594592413E+02  0.12700000000E+01 0. -1.
         25    2    1    2    0    0  0.50139457981E+01  0.26859891565E+02  0.39686450606E+03  0.41698239198E+03  0.12500514240E+03 0.  0.
    9000005    1    3    3    0    0 -0.69974121280E+00  0.77236288569E+02  0.23863899352E+03  0.25082962970E+03  0.10000000000E+01 0.  0.
    9000005    1    3    3    0    0  0.57136870109E+01 -0.50376397004E+02  0.15822551254E+03  0.16615276228E+03  0.10000000000E+01 0.  0.
          4    1    1    2  501    0 -0.50139457981E+01 -0.26859891565E+02  0.37552173532E+03  0.37651663978E+03  0.12700000000E+01 0.  1.
<mgrwt>
<rscale>  1 0.12795655E+03</rscale>
<asrwt>0</asrwt>
<pdfrwt beam="1">  1       21 0.12044679E+00 0.12795655E+03</pdfrwt>
<pdfrwt beam="2">  1        4 0.16241406E-02 0.12795655E+03</pdfrwt>
<totfact> 0.30103876E+04</totfact>
</mgrwt>
</event>
<event>
 6    4  0.6325740E-003  0.1270625E+03  0.7818608E-02  0.1231881E+00
         -4   -1    0    0    0  501 -0.00000000000E+00  0.00000000000E+00  0.22499503944E+03  0.22499862372E+03  0.12700000000E+01 0.  1.
         21   -1    0    0  501  502  0.00000000000E+00 -0.00000000000E+00 -0.26607956403E+03  0.26607956403E+03  0.00000000000E+00 0. -1.
         25    2    1    2    0    0  0.45433794763E+01  0.22347882645E+02  0.20649014053E+03  0.24245216766E+03  0.12499922124E+03 0.  0.
    9000005    1    3    3    0    0  0.19608807120E+02  0.66744140158E+02  0.16782422921E+03  0.18167349139E+03  0.10000000000E+01 0.  0.
    9000005    1    3    3    0    0 -0.15065427644E+02 -0.44396257513E+02  0.38665911322E+02  0.60778676274E+02  0.10000000000E+01 0.  0.
         -4    1    1    2    0  502 -0.45433794763E+01 -0.22347882645E+02 -0.24757466512E+03  0.24862602009E+03  0.12700000000E+01 0. -1.
<mgrwt>
<rscale>  1 0.12706249E+03</rscale>
<asrwt>0</asrwt>
<pdfrwt beam="2">  1       21 0.40935317E-01 0.12706249E+03</pdfrwt>
<pdfrwt beam="1">  1       -4 0.34615130E-01 0.12706249E+03</pdfrwt>
<totfact> 0.19258155E+03</totfact>
</mgrwt>
</event>
<event>
 6    4  0.6325740E-003  0.1269204E+03  0.7818608E-02  0.1232098E+00
         21   -1    0    0  501  502  0.00000000000E+00  0.00000000000E+00  0.95843175286E+03  0.95843175286E+03  0.00000000000E+00 0.  1.
         -4   -1    0    0    0  501 -0.00000000000E+00 -0.00000000000E+00 -0.33814329547E+02  0.33838170499E+02  0.12700000000E+01 0. -1.
         25    2    1    2    0    0 -0.21937219227E+02 -0.14576029060E+01  0.85884482222E+02  0.15324791795E+03  0.12500165549E+03 0.  0.
    9000005    1    3    3    0    0 -0.59098077909E+01 -0.30008742610E+01  0.11753345723E+03  0.11772444369E+03  0.10000000000E+01 0.  0.
    9000005    1    3    3    0    0 -0.16027411436E+02  0.15432713550E+01 -0.31648975010E+02  0.35523474253E+02  0.10000000000E+01 0.  0.
         -4    1    1    2    0  502  0.21937219227E+02  0.14576029060E+01  0.83873294109E+03  0.83902200541E+03  0.12700000000E+01 0.  1.
<mgrwt>
<rscale>  1 0.12692037E+03</rscale>
<asrwt>0</asrwt>
<pdfrwt beam="1">  1       21 0.14745102E+00 0.12692037E+03</pdfrwt>
<pdfrwt beam="2">  1       -4 0.52041039E-02 0.12692037E+03</pdfrwt>
<totfact> 0.29324134E+03</totfact>
</mgrwt>
</event>
<event>
 6    4  0.6325740E-003  0.1268551E+03  0.7818608E-02  0.1232198E+00
          4   -1    0    0  502    0 -0.00000000000E+00  0.00000000000E+00  0.85153311235E+02  0.85162781274E+02  0.12700000000E+01 0. -1.
         21   -1    0    0  501  502  0.00000000000E+00 -0.00000000000E+00 -0.10868499438E+03  0.10868499438E+03  0.00000000000E+00 0.  1.
         25    2    1    2    0    0 -0.10952895991E+02  0.18606733627E+02  0.34877845233E+02  0.13156244534E+03  0.12500414581E+03 0.  0.
    9000005    1    3    3    0    0 -0.55657540017E+02 -0.15722616749E+01 -0.18863550527E+02  0.58796830748E+02  0.10000000000E+01 0.  0.
    9000005    1    3    3    0    0  0.44704644026E+02  0.20178995302E+02  0.53741395760E+02  0.72765614594E+02  0.10000000000E+01 0.  0.
          4    1    1    2  501    0  0.10952895991E+02 -0.18606733627E+02 -0.58409528378E+02  0.62285330313E+02  0.12700000000E+01 0.  1.
<mgrwt>
<rscale>  1 0.12685509E+03</rscale>
<asrwt>0</asrwt>
<pdfrwt beam="2">  1       21 0.16720768E-01 0.12685509E+03</pdfrwt>
<pdfrwt beam="1">  1        4 0.13101809E-01 0.12685509E+03</pdfrwt>
<totfact> 0.61610187E+04</totfact>
</mgrwt>
</event>
<event>
 6    4  0.6325740E-003  0.1285867E+03  0.7818608E-02  0.1229568E+00
          4   -1    0    0  502    0 -0.00000000000E+00  0.00000000000E+00  0.15654125816E+03  0.15654640975E+03  0.12700000000E+01 0. -1.
         21   -1    0    0  501  502  0.00000000000E+00 -0.00000000000E+00 -0.16094105704E+03  0.16094105704E+03  0.00000000000E+00 0.  1.
         25    2    1    2    0    0 -0.15267104480E+02 -0.25998168752E+02  0.12815331790E+03  0.18154287909E+03  0.12500221919E+03 0.  0.
    9000005    1    3    3    0    0  0.53365013180E+01  0.40000948270E+02  0.54998695161E+01  0.40740675909E+02  0.10000000000E+01 0.  0.
    9000005    1    3    3    0    0 -0.20603605798E+02 -0.65999117023E+02  0.12265344838E+03  0.14080220318E+03  0.10000000000E+01 0.  0.
          4    1    1    2  501    0  0.15267104480E+02  0.25998168752E+02 -0.13255311678E+03  0.13594458771E+03  0.12700000000E+01 0.  1.
<mgrwt>
<rscale>  1 0.12858672E+03</rscale>
<asrwt>0</asrwt>
<pdfrwt beam="2">  1       21 0.24760163E-01 0.12858672E+03</pdfrwt>
<pdfrwt beam="1">  1        4 0.24084052E-01 0.12858672E+03</pdfrwt>
<totfact> 0.10119360E+04</totfact>
</mgrwt>
</event>
<event>
 6    4  0.6325740E-003  0.1290483E+03  0.7818608E-02  0.1228875E+00
         -4   -1    0    0    0  501 -0.00000000000E+00  0.00000000000E+00  0.99078245390E+03  0.99078326786E+03  0.12700000000E+01 0. -1.
         21   -1    0    0  501  502  0.00000000000E+00 -0.00000000000E+00 -0.69952507101E+01  0.69952507101E+01  0.00000000000E+00 0. -1.
         25    2    1    2    0    0  0.19026160397E+02 -0.25898665370E+02  0.87054170521E+03  0.88005472590E+03  0.12498289648E+03 0.  0.
    9000005    1    3    3    0    0  0.44941087750E+02  0.38764663666E+02  0.39279255331E+03  0.39725230076E+03  0.10000000000E+01 0.  0.
    9000005    1    3    3    0    0 -0.25914927353E+02 -0.64663329037E+02  0.47774915190E+03  0.48280242514E+03  0.10000000000E+01 0.  0.
         -4    1    1    2    0  502 -0.19026160397E+02  0.25898665370E+02  0.11324549798E+03  0.11772379267E+03  0.12700000000E+01 0.  1.
<mgrwt>
<rscale>  1 0.12904829E+03</rscale>
<asrwt>0</asrwt>
<pdfrwt beam="2">  1       21 0.10761932E-02 0.12904829E+03</pdfrwt>
<pdfrwt beam="1">  1       -4 0.15243689E+00 0.12904829E+03</pdfrwt>
<totfact> 0.40958074E+04</totfact>
</mgrwt>
</event>
<event>
 6    4  0.6325740E-003  0.1276694E+03  0.7818608E-02  0.1230955E+00
         21   -1    0    0  501  502  0.00000000000E+00  0.00000000000E+00  0.23265463745E+02  0.23265463745E+02  0.00000000000E+00 0. -1.
          4   -1    0    0  502    0 -0.00000000000E+00 -0.00000000000E+00 -0.35850829738E+03  0.35851054683E+03  0.12700000000E+01 0.  1.
         25    2    1    2    0    0 -0.10615465436E+02 -0.23693833803E+02 -0.33184990289E+03  0.35556130582E+03  0.12500159311E+03 0.  0.
    9000005    1    3    3    0    0  0.54887519717E+02 -0.43801951322E+01 -0.19481843356E+03  0.20245258207E+03  0.10000000000E+01 0.  0.
    9000005    1    3    3    0    0 -0.65502985153E+02 -0.19313638670E+02 -0.13703146932E+03  0.15310872375E+03  0.10000000000E+01 0.  0.
          4    1    1    2  501    0  0.10615465436E+02  0.23693833803E+02 -0.33929307468E+01  0.26214704762E+02  0.12700000000E+01 0. -1.
<mgrwt>
<rscale>  1 0.12766943E+03</rscale>
<asrwt>0</asrwt>
<pdfrwt beam="1">  1       21 0.35793029E-02 0.12766943E+03</pdfrwt>
<pdfrwt beam="2">  1        4 0.55157950E-01 0.12766943E+03</pdfrwt>
<totfact> 0.59754168E+04</totfact>
</mgrwt>
</event>
<event>
 6    4  0.6325740E-003  0.1332054E+03  0.7818608E-02  0.1222776E+00
         21   -1    0    0  501  502  0.00000000000E+00  0.00000000000E+00  0.60603663156E+02  0.60603663156E+02  0.00000000000E+00 0. -1.
          4   -1    0    0  502    0 -0.00000000000E+00 -0.00000000000E+00 -0.24693929389E+03  0.24694255965E+03  0.12700000000E+01 0.  1.
         25    2    1    2    0    0 -0.28527167857E+02 -0.36108222757E+02 -0.21528697533E+03  0.25316427441E+03  0.12500426007E+03 0.  0.
    9000005    1    3    3    0    0  0.36265918126E+02  0.14086979950E+02 -0.25759659249E+02  0.46671403089E+02  0.10000000000E+01 0.  0.
    9000005    1    3    3    0    0 -0.64793085982E+02 -0.50195202708E+02 -0.18952731608E+03  0.20649287132E+03  0.10000000000E+01 0.  0.
          4    1    1    2  501    0  0.28527167857E+02  0.36108222757E+02  0.28951344601E+02  0.54381948391E+02  0.12700000000E+01 0. -1.
<mgrwt>
<rscale>  1 0.13320536E+03</rscale>
<asrwt>0</asrwt>
<pdfrwt beam="1">  1       21 0.93236403E-02 0.13320536E+03</pdfrwt>
<pdfrwt beam="2">  1        4 0.37991936E-01 0.13320536E+03</pdfrwt>
<totfact> 0.25081239E+04</totfact>
</mgrwt>
</event>
<event>
 6    4  0.6325740E-003  0.1660119E+03  0.7818608E-02  0.1182072E+00
          4   -1    0    0  502    0 -0.00000000000E+00  0.00000000000E+00  0.83234638787E+03  0.83234735676E+03  0.12700000000E+01 0.  1.
         21   -1    0    0  501  502  0.00000000000E+00 -0.00000000000E+00 -0.21183293055E+03  0.21183293055E+03  0.00000000000E+00 0. -1.
         25    2    1    2    0    0 -0.80520896119E+02  0.73829027505E+02  0.80925055090E+03  0.82610313718E+03  0.12500239641E+03 0.  0.
    9000005    1    3    3    0    0 -0.14402960908E+01  0.56784164442E+02  0.58413878209E+03  0.58689490756E+03  0.10000000000E+01 0.  0.
    9000005    1    3    3    0    0 -0.79080600028E+02  0.17044863063E+02  0.22511176881E+03  0.23920822961E+03  0.10000000000E+01 0.  0.
          4    1    1    2  501    0  0.80520896119E+02 -0.73829027505E+02 -0.18873709359E+03  0.21807715013E+03  0.12700000000E+01 0. -1.
<mgrwt>
<rscale>  1 0.16601186E+03</rscale>
<asrwt>0</asrwt>
<pdfrwt beam="2">  1       21 0.32589682E-01 0.16601186E+03</pdfrwt>
<pdfrwt beam="1">  1        4 0.12805366E+00 0.16601186E+03</pdfrwt>
<totfact> 0.18087033E+02</totfact>
</mgrwt>
</event>
<event>
 6    4  0.6325740E-003  0.1277052E+03  0.7818608E-02  0.1230901E+00
         -4   -1    0    0    0  501 -0.00000000000E+00  0.00000000000E+00  0.59185630334E+02  0.59199254539E+02  0.12700000000E+01 0.  1.
         21   -1    0    0  501  502  0.00000000000E+00 -0.00000000000E+00 -0.27036120044E+03  0.27036120044E+03  0.00000000000E+00 0. -1.
         25    2    1    2    0    0 -0.63554055662E+01  0.25384560176E+02 -0.11553733306E+02  0.12822675759E+03  0.12499538205E+03 0.  0.
    9000005    1    3    3    0    0  0.37442380786E+02  0.56800152374E+02  0.12530527701E+02  0.69182391641E+02  0.10000000000E+01 0.  0.
    9000005    1    3    3    0    0 -0.43797786352E+02 -0.31415592198E+02 -0.24084261007E+02  0.59044365953E+02  0.10000000000E+01 0.  0.
         -4    1    1    2    0  502  0.63554055662E+01 -0.25384560176E+02 -0.19962183680E+03  0.20133369739E+03  0.12700000000E+01 0. -1.
<mgrwt>
<rscale>  1 0.12770518E+03</rscale>
<asrwt>0</asrwt>
<pdfrwt beam="2">  1       21 0.41594030E-01 0.12770518E+03</pdfrwt>
<pdfrwt beam="1">  1       -4 0.91067592E-02 0.12770518E+03</pdfrwt>
<totfact> 0.20134344E+04</totfact>
</mgrwt>
</event>
<event>
 6    4  0.6325740E-003  0.1285727E+03  0.7818608E-02  0.1229589E+00
         21   -1    0    0  501  502  0.00000000000E+00  0.00000000000E+00  0.18960078891E+02  0.18960078891E+02  0.00000000000E+00 0.  1.
          4   -1    0    0  502    0 -0.00000000000E+00 -0.00000000000E+00 -0.34743312216E+03  0.34743544332E+03  0.12700000000E+01 0.  1.
         25    2    1    2    0    0 -0.20638248573E+02 -0.21903577858E+02 -0.29226870804E+03  0.31929912302E+03  0.12500091294E+03 0.  0.
    9000005    1    3    3    0    0  0.30226205711E+02 -0.58353726819E+02 -0.13948885035E+03  0.15419766638E+03  0.10000000000E+01 0.  0.
    9000005    1    3    3    0    0 -0.50864454283E+02  0.36450148961E+02 -0.15277985768E+03  0.16510145663E+03  0.10000000000E+01 0.  0.
          4    1    1    2  501    0  0.20638248573E+02  0.21903577858E+02 -0.36204335230E+02  0.47096399189E+02  0.12700000000E+01 0. -1.
<mgrwt>
<rscale>  1 0.12857267E+03</rscale>
<asrwt>0</asrwt>
<pdfrwt beam="1">  1       21 0.29169352E-02 0.12857267E+03</pdfrwt>
<pdfrwt beam="2">  1        4 0.53454701E-01 0.12857267E+03</pdfrwt>
<totfact> 0.89352090E+04</totfact>
</mgrwt>
</event>
<event>
 6    4  0.6325740E-003  0.1360967E+03  0.7818608E-02  0.1218680E+00
         21   -1    0    0  501  502  0.00000000000E+00  0.00000000000E+00  0.12137993981E+03  0.12137993981E+03  0.00000000000E+00 0. -1.
          4   -1    0    0  502    0 -0.00000000000E+00 -0.00000000000E+00 -0.83983818831E+02  0.83993420727E+02  0.12700000000E+01 0.  1.
         25    2    1    2    0    0  0.43270505049E+02 -0.32015314518E+02 -0.59870613047E+01  0.13622836523E+03  0.12500002248E+03 0.  0.
    9000005    1    3    3    0    0 -0.11661891873E+02 -0.55847689827E+02 -0.37770284894E+02  0.68429223304E+02  0.10000000000E+01 0.  0.
    9000005    1    3    3    0    0  0.54932396922E+02  0.23832375309E+02  0.31783223589E+02  0.67799141928E+02  0.10000000000E+01 0.  0.
          4    1    1    2  501    0 -0.43270505049E+02  0.32015314518E+02  0.43383182288E+02  0.69144995309E+02  0.12700000000E+01 0. -1.
<mgrwt>
<rscale>  1 0.13609674E+03</rscale>
<asrwt>0</asrwt>
<pdfrwt beam="1">  1       21 0.18673837E-01 0.13609674E+03</pdfrwt>
<pdfrwt beam="2">  1        4 0.12921837E-01 0.13609674E+03</pdfrwt>
<totfact> 0.52002909E+04</totfact>
</mgrwt>
</event>
<event>
 6    4  0.6325740E-003  0.1540786E+03  0.7818608E-02  0.1195549E+00
         21   -1    0    0  501  502  0.00000000000E+00  0.00000000000E+00  0.13838932487E+03  0.13838932487E+03  0.00000000000E+00 0. -1.
          4   -1    0    0  502    0 -0.00000000000E+00 -0.00000000000E+00 -0.14853553695E+03  0.14854096619E+03  0.12700000000E+01 0.  1.
         25    2    1    2    0    0 -0.48934156848E+02 -0.75634996656E+02 -0.79364007384E+02  0.17331726138E+03  0.12500009199E+03 0.  0.
    9000005    1    3    3    0    0 -0.42660006403E+02 -0.10860583979E+03 -0.76690535299E+02  0.13963360193E+03  0.10000000000E+01 0.  0.
    9000005    1    3    3    0    0 -0.62741504451E+01  0.32970843137E+02 -0.26734720848E+01  0.33683659450E+02  0.10000000000E+01 0.  0.
          4    1    1    2  501    0  0.48934156848E+02  0.75634996656E+02  0.69217795302E+02  0.11361302968E+03  0.12700000000E+01 0. -1.
<mgrwt>
<rscale>  1 0.15407864E+03</rscale>
<asrwt>0</asrwt>
<pdfrwt beam="1">  1       21 0.21290665E-01 0.15407864E+03</pdfrwt>
<pdfrwt beam="2">  1        4 0.22852487E-01 0.15407864E+03</pdfrwt>
<totfact> 0.15019574E+04</totfact>
</mgrwt>
</event>
<event>
 6    4  0.6325740E-003  0.1281131E+03  0.7818608E-02  0.1230283E+00
         -4   -1    0    0    0  501 -0.00000000000E+00  0.00000000000E+00  0.73984449756E+02  0.73995349217E+02  0.12700000000E+01 0. -1.
         21   -1    0    0  501  502  0.00000000000E+00 -0.00000000000E+00 -0.88986699109E+02  0.88986699109E+02  0.00000000000E+00 0. -1.
         25    2    1    2    0    0 -0.27357667453E+02  0.62433142387E+01 -0.29361839699E+02  0.13143475564E+03  0.12500222565E+03 0.  0.
    9000005    1    3    3    0    0 -0.29791345427E+02  0.59958020113E+02 -0.37963382713E+02  0.76972117453E+02  0.10000000000E+01 0.  0.
    9000005    1    3    3    0    0  0.24336779739E+01 -0.53714705874E+02  0.86015430136E+01  0.54462638183E+02  0.10000000000E+01 0.  0.
         -4    1    1    2    0  502  0.27357667453E+02 -0.62433142387E+01  0.14359590346E+02  0.31547292690E+02  0.12700000000E+01 0.  1.
<mgrwt>
<rscale>  1 0.12811314E+03</rscale>
<asrwt>0</asrwt>
<pdfrwt beam="2">  1       21 0.13690261E-01 0.12811314E+03</pdfrwt>
<pdfrwt beam="1">  1       -4 0.11383759E-01 0.12811314E+03</pdfrwt>
<totfact> 0.11253913E+05</totfact>
</mgrwt>
</event>
<event>
 6    4  0.6325740E-003  0.1268257E+03  0.7818608E-02  0.1232243E+00
         21   -1    0    0  501  502  0.00000000000E+00  0.00000000000E+00  0.24999432895E+02  0.24999432895E+02  0.00000000000E+00 0. -1.
          4   -1    0    0  502    0 -0.00000000000E+00 -0.00000000000E+00 -0.53694105883E+03  0.53694256076E+03  0.12700000000E+01 0.  1.
         25    2    1    2    0    0  0.19756319608E+02 -0.83738863079E+01 -0.52272713731E+03  0.53789258011E+03  0.12499733403E+03 0.  0.
    9000005    1    3    3    0    0  0.85226169819E+01  0.25430588752E+02 -0.18946248659E+02  0.32852856538E+02  0.10000000000E+01 0.  0.
    9000005    1    3    3    0    0  0.11233702626E+02 -0.33804475060E+02 -0.50378088865E+03  0.50503972357E+03  0.10000000000E+01 0.  0.
          4    1    1    2  501    0 -0.19756319608E+02  0.83738863079E+01  0.10785511379E+02  0.24049413550E+02  0.12700000000E+01 0. -1.
<mgrwt>
<rscale>  1 0.12682574E+03</rscale>
<asrwt>0</asrwt>
<pdfrwt beam="1">  1       21 0.38460666E-02 0.12682574E+03</pdfrwt>
<pdfrwt beam="2">  1        4 0.82608914E-01 0.12682574E+03</pdfrwt>
<totfact> 0.22316985E+04</totfact>
</mgrwt>
</event>
<event>
 6    4  0.6325740E-003  0.1272668E+03  0.7818608E-02  0.1231569E+00
          4   -1    0    0  502    0 -0.00000000000E+00  0.00000000000E+00  0.34055357791E+03  0.34055594595E+03  0.12700000000E+01 0. -1.
         21   -1    0    0  501  502  0.00000000000E+00 -0.00000000000E+00 -0.16794921297E+02  0.16794921297E+02  0.00000000000E+00 0. -1.
         25    2    1    2    0    0 -0.16161107100E+02 -0.17619320413E+02  0.27584638231E+03  0.30378949345E+03  0.12500083145E+03 0.  0.
    9000005    1    3    3    0    0 -0.45345123827E+02 -0.43294489027E+02  0.24840885529E+03  0.25620021940E+03  0.10000000000E+01 0.  0.
    9000005    1    3    3    0    0  0.29184016727E+02  0.25675168614E+02  0.27437527016E+02  0.47589274048E+02  0.10000000000E+01 0.  0.
          4    1    1    2  501    0  0.16161107100E+02  0.17619320413E+02  0.47912274304E+02  0.53561373801E+02  0.12700000000E+01 0.  1.
<mgrwt>
<rscale>  1 0.12726677E+03</rscale>
<asrwt>0</asrwt>
<pdfrwt beam="2">  1       21 0.25838343E-02 0.12726677E+03</pdfrwt>
<pdfrwt beam="1">  1        4 0.52396729E-01 0.12726677E+03</pdfrwt>
<totfact> 0.11331275E+05</totfact>
</mgrwt>
</event>
<event>
 6    4  0.6325740E-003  0.1329767E+03  0.7818608E-02  0.1223104E+00
          4   -1    0    0  502    0 -0.00000000000E+00  0.00000000000E+00  0.20332396635E+03  0.20332793264E+03  0.12700000000E+01 0.  1.
         21   -1    0    0  501  502  0.00000000000E+00 -0.00000000000E+00 -0.47869537635E+02  0.47869537635E+02  0.00000000000E+00 0. -1.
         25    2    1    2    0    0 -0.18312398060E+02 -0.41515990338E+02  0.15703898706E+03  0.20577671399E+03  0.12499556467E+03 0.  0.
    9000005    1    3    3    0    0 -0.24971570109E+02 -0.84700810363E+02  0.11628828220E+03  0.14601976293E+03  0.10000000000E+01 0.  0.
    9000005    1    3    3    0    0  0.66591720489E+01  0.43184820025E+02  0.40750704856E+02  0.59756951054E+02  0.10000000000E+01 0.  0.
          4    1    1    2  501    0  0.18312398060E+02  0.41515990338E+02 -0.15845583448E+01  0.45420756286E+02  0.12700000000E+01 0. -1.
<mgrwt>
<rscale>  1 0.13297674E+03</rscale>
<asrwt>0</asrwt>
<pdfrwt beam="2">  1       21 0.73645444E-02 0.13297674E+03</pdfrwt>
<pdfrwt beam="1">  1        4 0.31282211E-01 0.13297674E+03</pdfrwt>
<totfact> 0.54816210E+04</totfact>
</mgrwt>
</event>
<event>
 6    4  0.6325740E-003  0.1290395E+03  0.7818608E-02  0.1228888E+00
         21   -1    0    0  501  502  0.00000000000E+00  0.00000000000E+00  0.42726758141E+01  0.42726758141E+01  0.00000000000E+00 0.  1.
         -4   -1    0    0    0  501 -0.00000000000E+00 -0.00000000000E+00 -0.17836296298E+04  0.17836300819E+04  0.12700000000E+01 0. -1.
         25    2    1    2    0    0  0.18334331077E+02 -0.26261307963E+02 -0.16323246309E+04  0.16374171407E+04  0.12500155279E+03 0.  0.
    9000005    1    3    3    0    0 -0.17396999273E+02 -0.65016550272E+02 -0.12005513868E+04  0.12024368755E+04  0.10000000000E+01 0.  0.
    9000005    1    3    3    0    0  0.35731330350E+02  0.38755242309E+02 -0.43177324409E+03  0.43498026517E+03  0.10000000000E+01 0.  0.
         -4    1    1    2    0  502 -0.18334331077E+02  0.26261307963E+02 -0.14703232310E+03  0.15048561701E+03  0.12700000000E+01 0.  1.
<mgrwt>
<rscale>  1 0.12903950E+03</rscale>
<asrwt>0</asrwt>
<pdfrwt beam="1">  1       21 0.65733356E-03 0.12903950E+03</pdfrwt>
<pdfrwt beam="2">  1       -4 0.27441960E+00 0.12903950E+03</pdfrwt>
<totfact> 0.15633356E+04</totfact>
</mgrwt>
</event>
<event>
 6    4  0.6325740E-003  0.1298222E+03  0.7818608E-02  0.1227720E+00
          4   -1    0    0  502    0 -0.00000000000E+00  0.00000000000E+00  0.32480919391E+02  0.32505738332E+02  0.12700000000E+01 0.  1.
         21   -1    0    0  501  502  0.00000000000E+00 -0.00000000000E+00 -0.21291704525E+03  0.21291704525E+03  0.00000000000E+00 0.  1.
         25    2    1    2    0    0  0.32195206086E+02  0.13868890331E+02 -0.15447315233E+03  0.20178144643E+03  0.12499967967E+03 0.  0.
    9000005    1    3    3    0    0  0.50957464850E+02  0.21758726608E+02 -0.10537634055E+02  0.56410523301E+02  0.10000000000E+01 0.  0.
    9000005    1    3    3    0    0 -0.18762258764E+02 -0.78898362770E+01 -0.14393551827E+03  0.14537092313E+03  0.10000000000E+01 0.  0.
          4    1    1    2  501    0 -0.32195206086E+02 -0.13868890331E+02 -0.25962973531E+02  0.43641337153E+02  0.12700000000E+01 0. -1.
<mgrwt>
<rscale>  1 0.12982218E+03</rscale>
<asrwt>0</asrwt>
<pdfrwt beam="2">  1       21 0.32756468E-01 0.12982218E+03</pdfrwt>
<pdfrwt beam="1">  1        4 0.49992651E-02 0.12982218E+03</pdfrwt>
<totfact> 0.86330947E+04</totfact>
</mgrwt>
</event>
<event>
 6    4  0.6325740E-003  0.1287586E+03  0.7818608E-02  0.1229309E+00
         21   -1    0    0  501  502  0.00000000000E+00  0.00000000000E+00  0.36311911331E+03  0.36311911331E+03  0.00000000000E+00 0.  1.
         -4   -1    0    0    0  501 -0.00000000000E+00 -0.00000000000E+00 -0.98741423374E+02  0.98749590328E+02  0.12700000000E+01 0. -1.
         25    2    1    2    0    0  0.15825587156E+02  0.26516957404E+02 -0.55708859505E+02  0.14029350206E+03  0.12500076581E+03 0.  0.
    9000005    1    3    3    0    0 -0.50279161501E+02  0.33858158474E+02 -0.37659672320E+02  0.71369600641E+02  0.10000000000E+01 0.  0.
    9000005    1    3    3    0    0  0.66104748657E+02 -0.73412010695E+01 -0.18049187185E+02  0.68923901415E+02  0.10000000000E+01 0.  0.
         -4    1    1    2    0  502 -0.15825587156E+02 -0.26516957404E+02  0.32008654944E+03  0.32157520158E+03  0.12700000000E+01 0.  1.
<mgrwt>
<rscale>  1 0.12875865E+03</rscale>
<asrwt>0</asrwt>
<pdfrwt beam="1">  1       21 0.55864479E-01 0.12875865E+03</pdfrwt>
<pdfrwt beam="2">  1       -4 0.15191787E-01 0.12875865E+03</pdfrwt>
<totfact> 0.45922931E+03</totfact>
</mgrwt>
</event>
<event>
 6    4  0.6325740E-003  0.1667017E+03  0.7818608E-02  0.1181332E+00
         21   -1    0    0  501  502  0.00000000000E+00  0.00000000000E+00  0.17725042302E+03  0.17725042302E+03  0.00000000000E+00 0.  1.
         -4   -1    0    0    0  501 -0.00000000000E+00 -0.00000000000E+00 -0.22341766386E+03  0.22342127343E+03  0.12700000000E+01 0. -1.
         25    2    1    2    0    0 -0.89931161369E+02 -0.63847411448E+02 -0.16776290677E+03  0.23650341508E+03  0.12500146689E+03 0.  0.
    9000005    1    3    3    0    0  0.16687221350E+02 -0.39447365043E+02 -0.97507277140E+02  0.10650458704E+03  0.10000000000E+01 0.  0.
    9000005    1    3    3    0    0 -0.10661838272E+03 -0.24400046405E+02 -0.70255629629E+02  0.12999882804E+03  0.10000000000E+01 0.  0.
         -4    1    1    2    0  502  0.89931161369E+02  0.63847411448E+02  0.12159566593E+03  0.16416828137E+03  0.12700000000E+01 0.  1.
<mgrwt>
<rscale>  1 0.16670175E+03</rscale>
<asrwt>0</asrwt>
<pdfrwt beam="1">  1       21 0.27269296E-01 0.16670175E+03</pdfrwt>
<pdfrwt beam="2">  1       -4 0.34372576E-01 0.16670175E+03</pdfrwt>
<totfact> 0.43854325E+03</totfact>
</mgrwt>
</event>
<event>
 6    4  0.6325740E-003  0.1281675E+03  0.7818608E-02  0.1230200E+00
         21   -1    0    0  501  502  0.00000000000E+00  0.00000000000E+00  0.45190361408E+02  0.45190361408E+02  0.00000000000E+00 0.  1.
          4   -1    0    0  502    0 -0.00000000000E+00 -0.00000000000E+00 -0.20205282849E+03  0.20205681974E+03  0.12700000000E+01 0.  1.
         25    2    1    2    0    0  0.12107137938E+02  0.25639011142E+02 -0.51497339947E+02  0.13812630964E+03  0.12499183858E+03 0.  0.
    9000005    1    3    3    0    0 -0.19083972212E+02  0.62019397126E+02  0.37249441998E+01  0.65003683161E+02  0.10000000000E+01 0.  0.
    9000005    1    3    3    0    0  0.31191110150E+02 -0.36380385984E+02 -0.55222284147E+02  0.73122626479E+02  0.10000000000E+01 0.  0.
          4    1    1    2  501    0 -0.12107137938E+02 -0.25639011142E+02 -0.10536512714E+03  0.10912087151E+03  0.12700000000E+01 0. -1.
<mgrwt>
<rscale>  1 0.12816747E+03</rscale>
<asrwt>0</asrwt>
<pdfrwt beam="1">  1       21 0.69523634E-02 0.12816747E+03</pdfrwt>
<pdfrwt beam="2">  1        4 0.31086730E-01 0.12816747E+03</pdfrwt>
<totfact> 0.60926480E+04</totfact>
</mgrwt>
</event>
<event>
 6    4  0.6325740E-003  0.1298938E+03  0.7818608E-02  0.1227613E+00
         -4   -1    0    0    0  501 -0.00000000000E+00  0.00000000000E+00  0.11240057683E+03  0.11240775139E+03  0.12700000000E+01 0.  1.
         21   -1    0    0  501  502  0.00000000000E+00 -0.00000000000E+00 -0.11354961446E+03  0.11354961446E+03  0.00000000000E+00 0. -1.
         25    2    1    2    0    0  0.19592288289E+01 -0.35260119072E+02  0.69240277297E+02  0.14719580714E+03  0.12500110026E+03 0.  0.
    9000005    1    3    3    0    0  0.48197348031E+02  0.15803055748E+02  0.58559454998E+02  0.77478582188E+02  0.10000000000E+01 0.  0.
    9000005    1    3    3    0    0 -0.46238119202E+02 -0.51063174820E+02  0.10680822299E+02  0.69717224952E+02  0.10000000000E+01 0.  0.
         -4    1    1    2    0  502 -0.19592288289E+01  0.35260119072E+02 -0.70389314919E+02  0.78761558704E+02  0.12700000000E+01 0. -1.
<mgrwt>
<rscale>  1 0.12989376E+03</rscale>
<asrwt>0</asrwt>
<pdfrwt beam="2">  1       21 0.17469171E-01 0.12989376E+03</pdfrwt>
<pdfrwt beam="1">  1       -4 0.17293495E-01 0.12989376E+03</pdfrwt>
<totfact> 0.35149313E+04</totfact>
</mgrwt>
</event>
<event>
 6    4  0.6325740E-003  0.1284965E+03  0.7818608E-02  0.1229704E+00
         21   -1    0    0  501  502  0.00000000000E+00  0.00000000000E+00  0.48420252560E+03  0.48420252560E+03  0.00000000000E+00 0. -1.
         -4   -1    0    0    0  501 -0.00000000000E+00 -0.00000000000E+00 -0.52779181469E+02  0.52794458957E+02  0.12700000000E+01 0.  1.
         25    2    1    2    0    0  0.26770132549E+02  0.13073354307E+02  0.26781314826E+02  0.13125773655E+03  0.12499520788E+03 0.  0.
    9000005    1    3    3    0    0  0.12202114122E+02 -0.54913284543E+02  0.25342405859E+02  0.61705736712E+02  0.10000000000E+01 0.  0.
    9000005    1    3    3    0    0  0.14568018426E+02  0.67986638851E+02  0.14389089667E+01  0.69551999843E+02  0.10000000000E+01 0.  0.
         -4    1    1    2    0  502 -0.26770132549E+02 -0.13073354307E+02  0.40464202931E+03  0.40573924801E+03  0.12700000000E+01 0. -1.
<mgrwt>
<rscale>  1 0.12849652E+03</rscale>
<asrwt>0</asrwt>
<pdfrwt beam="1">  1       21 0.74492693E-01 0.12849652E+03</pdfrwt>
<pdfrwt beam="2">  1       -4 0.81211777E-02 0.12849652E+03</pdfrwt>
<totfact> 0.71661240E+03</totfact>
</mgrwt>
</event>
<event>
 6    4  0.6325740E-003  0.1275373E+03  0.7818608E-02  0.1231156E+00
          4   -1    0    0  502    0 -0.00000000000E+00  0.00000000000E+00  0.47480605078E+03  0.47480774926E+03  0.12700000000E+01 0.  1.
         21   -1    0    0  501  502  0.00000000000E+00 -0.00000000000E+00 -0.18272044735E+02  0.18272044735E+02  0.00000000000E+00 0. -1.
         25    2    1    2    0    0 -0.11742770434E+02 -0.22404606617E+02  0.44884229348E+03  0.46661029462E+03  0.12500361424E+03 0.  0.
    9000005    1    3    3    0    0 -0.47306712246E+02 -0.59048462944E+02  0.29295177713E+03  0.30256633938E+03  0.10000000000E+01 0.  0.
    9000005    1    3    3    0    0  0.35563941813E+02  0.36643856327E+02  0.15589051635E+03  0.16404395525E+03  0.10000000000E+01 0.  0.
          4    1    1    2  501    0  0.11742770434E+02  0.22404606617E+02  0.76917125671E+01  0.26469499378E+02  0.12700000000E+01 0. -1.
<mgrwt>
<rscale>  1 0.12753730E+03</rscale>
<asrwt>0</asrwt>
<pdfrwt beam="2">  1       21 0.28110842E-02 0.12753730E+03</pdfrwt>
<pdfrwt beam="1">  1        4 0.73050601E-01 0.12753730E+03</pdfrwt>
<totfact> 0.49012637E+04</totfact>
</mgrwt>
</event>
<event>
 6    4  0.6325740E-003  0.1271136E+03  0.7818608E-02  0.1231803E+00
          4   -1    0    0  502    0 -0.00000000000E+00  0.00000000000E+00  0.70886715096E+03  0.70886828862E+03  0.12700000000E+01 0. -1.
         21   -1    0    0  501  502  0.00000000000E+00 -0.00000000000E+00 -0.18706912742E+02  0.18706912742E+02  0.00000000000E+00 0.  1.
         25    2    1    2    0    0 -0.22931248491E+02 -0.24767423576E+01  0.69276401888E+03  0.70432936337E+03  0.12500355932E+03 0.  0.
    9000005    1    3    3    0    0  0.28040940442E+02 -0.12344078346E+01  0.57873492923E+03  0.57941603051E+03  0.10000000000E+01 0.  0.
    9000005    1    3    3    0    0 -0.50972188933E+02 -0.12423345230E+01  0.11402908965E+03  0.12491333286E+03  0.10000000000E+01 0.  0.
          4    1    1    2  501    0  0.22931248491E+02  0.24767423576E+01 -0.26037806636E+01  0.23245837989E+02  0.12700000000E+01 0.  1.
<mgrwt>
<rscale>  1 0.12711360E+03</rscale>
<asrwt>0</asrwt>
<pdfrwt beam="2">  1       21 0.28779871E-02 0.12711360E+03</pdfrwt>
<pdfrwt beam="1">  1        4 0.10905987E+00 0.12711360E+03</pdfrwt>
<totfact> 0.19083409E+04</totfact>
</mgrwt>
</event>
<event>
 6    4  0.6325740E-003  0.1272578E+03  0.7818608E-02  0.1231582E+00
         -4   -1    0    0    0  501 -0.00000000000E+00  0.00000000000E+00  0.14644942033E+03  0.14645492691E+03  0.12700000000E+01 0. -1.
         21   -1    0    0  501  502  0.00000000000E+00 -0.00000000000E+00 -0.44646818778E+02  0.44646818778E+02  0.00000000000E+00 0. -1.
         25    2    1    2    0    0 -0.13041382590E+02 -0.19983136882E+02  0.10744323669E+03  0.16654908628E+03  0.12500058244E+03 0.  0.
    9000005    1    3    3    0    0  0.25892009143E+02 -0.63404317808E+02  0.51142558332E+02  0.85481371812E+02  0.10000000000E+01 0.  0.
    9000005    1    3    3    0    0 -0.38933391733E+02  0.43421180926E+02  0.56300678357E+02  0.81067714463E+02  0.10000000000E+01 0.  0.
         -4    1    1    2    0  502  0.13041382590E+02  0.19983136882E+02 -0.56406351333E+01  0.24552659413E+02  0.12700000000E+01 0.  1.
<mgrwt>
<rscale>  1 0.12725781E+03</rscale>
<asrwt>0</asrwt>
<pdfrwt beam="2">  1       21 0.68687414E-02 0.12725781E+03</pdfrwt>
<pdfrwt beam="1">  1       -4 0.22532493E-01 0.12725781E+03</pdfrwt>
<totfact> 0.11297241E+05</totfact>
</mgrwt>
</event>
<event>
 6    4  0.6325740E-003  0.1315103E+03  0.7818608E-02  0.1225232E+00
         -4   -1    0    0    0  501 -0.00000000000E+00  0.00000000000E+00  0.13931247081E+03  0.13931825947E+03  0.12700000000E+01 0. -1.
         21   -1    0    0  501  502  0.00000000000E+00 -0.00000000000E+00 -0.12146556853E+03  0.12146556853E+03  0.00000000000E+00 0.  1.
         25    2    1    2    0    0 -0.30528026551E+02  0.27166347737E+02  0.10252486625E+03  0.16675223046E+03  0.12499994924E+03 0.  0.
    9000005    1    3    3    0    0 -0.24307392815E+02  0.34642644769E+02  0.13045975648E+03  0.13715578822E+03  0.10000000000E+01 0.  0.
    9000005    1    3    3    0    0 -0.62206337356E+01 -0.74762970318E+01 -0.27934890229E+02  0.29596442244E+02  0.10000000000E+01 0.  0.
         -4    1    1    2    0  502  0.30528026551E+02 -0.27166347737E+02 -0.84677963969E+02  0.94031597542E+02  0.12700000000E+01 0.  1.
<mgrwt>
<rscale>  1 0.13151030E+03</rscale>
<asrwt>0</asrwt>
<pdfrwt beam="2">  1       21 0.18687010E-01 0.13151030E+03</pdfrwt>
<pdfrwt beam="1">  1       -4 0.21433644E-01 0.13151030E+03</pdfrwt>
<totfact> 0.21185342E+04</totfact>
</mgrwt>
</event>
<event>
 6    4  0.6325740E-003  0.1309010E+03  0.7818608E-02  0.1226125E+00
          4   -1    0    0  502    0 -0.00000000000E+00  0.00000000000E+00  0.89182586726E+01  0.90082316662E+01  0.12700000000E+01 0.  1.
         21   -1    0    0  501  502  0.00000000000E+00 -0.00000000000E+00 -0.92911771705E+03  0.92911771705E+03  0.00000000000E+00 0.  1.
         25    2    1    2    0    0  0.24889967137E+02 -0.29849313816E+02 -0.82452224397E+03  0.83484848623E+03  0.12499828867E+03 0.  0.
    9000005    1    3    3    0    0  0.33759180370E+02  0.44569853985E+02 -0.34386765685E+03  0.34838501628E+03  0.10000000000E+01 0.  0.
    9000005    1    3    3    0    0 -0.88692132329E+01 -0.74419167801E+02 -0.48065458712E+03  0.48646346995E+03  0.10000000000E+01 0.  0.
          4    1    1    2  501    0 -0.24889967137E+02  0.29849313816E+02 -0.95677214409E+02  0.10327746248E+03  0.12700000000E+01 0. -1.
<mgrwt>
<rscale>  1 0.13090097E+03</rscale>
<asrwt>0</asrwt>
<pdfrwt beam="2">  1       21 0.14294117E+00 0.13090097E+03</pdfrwt>
<pdfrwt beam="1">  1        4 0.13790277E-02 0.13090097E+03</pdfrwt>
<totfact> 0.25228916E+04</totfact>
</mgrwt>
</event>
<event>
 6    4  0.6325740E-003  0.1302153E+03  0.7818608E-02  0.1227137E+00
         -4   -1    0    0    0  501 -0.00000000000E+00  0.00000000000E+00  0.97433846630E+01  0.98258050404E+01  0.12700000000E+01 0.  1.
         21   -1    0    0  501  502  0.00000000000E+00 -0.00000000000E+00 -0.76726291510E+03  0.76726291510E+03  0.00000000000E+00 0.  1.
         25    2    1    2    0    0  0.33780933098E+02  0.13794663934E+02 -0.48666907198E+03  0.50378846778E+03  0.12499836180E+03 0.  0.
    9000005    1    3    3    0    0  0.62578168868E+02  0.52632630713E+02 -0.29720069045E+03  0.30824579711E+03  0.10000000000E+01 0.  0.
    9000005    1    3    3    0    0 -0.28797235769E+02 -0.38837966778E+02 -0.18946838154E+03  0.19554267067E+03  0.10000000000E+01 0.  0.
         -4    1    1    2    0  502 -0.33780933098E+02 -0.13794663934E+02 -0.27085045845E+03  0.27330025236E+03  0.12700000000E+01 0. -1.
<mgrwt>
<rscale>  1 0.13021534E+03</rscale>
<asrwt>0</asrwt>
<pdfrwt beam="2">  1       21 0.11804044E+00 0.13021534E+03</pdfrwt>
<pdfrwt beam="1">  1       -4 0.15054033E-02 0.13021534E+03</pdfrwt>
<totfact> 0.35556661E+04</totfact>
</mgrwt>
</event>
<event>
 6    4  0.6325740E-003  0.1604771E+03  0.7818608E-02  0.1188159E+00
         -4   -1    0    0    0  501 -0.00000000000E+00  0.00000000000E+00  0.13990032940E+03  0.13990609374E+03  0.12700000000E+01 0. -1.
         21   -1    0    0  501  502  0.00000000000E+00 -0.00000000000E+00 -0.58318311006E+03  0.58318311006E+03  0.00000000000E+00 0.  1.
         25    2    1    2    0    0 -0.17099550648E+02  0.99167143332E+02  0.87546694846E+02  0.18280403659E+03  0.12500550014E+03 0.  0.
    9000005    1    3    3    0    0 -0.51571439455E+02  0.10572354313E+03  0.41152877950E+02  0.12462600171E+03  0.10000000000E+01 0.  0.
    9000005    1    3    3    0    0  0.34471888807E+02 -0.65563997960E+01  0.46393816896E+02  0.58178034879E+02  0.10000000000E+01 0.  0.
         -4    1    1    2    0  502  0.17099550648E+02 -0.99167143332E+02 -0.53082947550E+03  0.54028516721E+03  0.12700000000E+01 0.  1.
<mgrwt>
<rscale>  1 0.16047708E+03</rscale>
<asrwt>0</asrwt>
<pdfrwt beam="2">  1       21 0.89720476E-01 0.16047708E+03</pdfrwt>
<pdfrwt beam="1">  1       -4 0.21523678E-01 0.16047708E+03</pdfrwt>
<totfact> 0.87894670E+02</totfact>
</mgrwt>
</event>
<event>
 6    4  0.6325740E-003  0.1266689E+03  0.7818608E-02  0.1232484E+00
         -4   -1    0    0    0  501 -0.00000000000E+00  0.00000000000E+00  0.11340252296E+04  0.11340259407E+04  0.12700000000E+01 0. -1.
         21   -1    0    0  501  502  0.00000000000E+00 -0.00000000000E+00 -0.49970616893E+01  0.49970616893E+01  0.00000000000E+00 0. -1.
         25    2    1    2    0    0  0.16536803638E+02  0.12095705609E+02  0.10385040288E+04  0.10462005664E+04  0.12500094132E+03 0.  0.
    9000005    1    3    3    0    0  0.29575801662E+02  0.31395100758E+02  0.10017364626E+04  0.10026651090E+04  0.10000000000E+01 0.  0.
    9000005    1    3    3    0    0 -0.13038998024E+02 -0.19299395150E+02  0.36767566195E+02  0.43535457348E+02  0.10000000000E+01 0.  0.
         -4    1    1    2    0  502 -0.16536803638E+02 -0.12095705609E+02  0.90524139111E+02  0.92822436030E+02  0.12700000000E+01 0.  1.
<mgrwt>
<rscale>  1 0.12666889E+03</rscale>
<asrwt>0</asrwt>
<pdfrwt beam="2">  1       21 0.76877963E-03 0.12666889E+03</pdfrwt>
<pdfrwt beam="1">  1       -4 0.17447768E+00 0.12666889E+03</pdfrwt>
<totfact> 0.48682427E+04</totfact>
</mgrwt>
</event>
<event>
 6    4  0.6325740E-003  0.1286881E+03  0.7818608E-02  0.1229415E+00
         -4   -1    0    0    0  501 -0.00000000000E+00  0.00000000000E+00  0.57016437828E+02  0.57030580241E+02  0.12700000000E+01 0. -1.
         21   -1    0    0  501  502  0.00000000000E+00 -0.00000000000E+00 -0.17630221974E+03  0.17630221974E+03  0.00000000000E+00 0.  1.
         25    2    1    2    0    0  0.10631358330E+02 -0.28719554173E+02 -0.21014574114E+02  0.13039261466E+03  0.12499113193E+03 0.  0.
    9000005    1    3    3    0    0  0.51102121817E+02  0.63240294099E+01 -0.48027565405E+02  0.70420644991E+02  0.10000000000E+01 0.  0.
    9000005    1    3    3    0    0 -0.40470763487E+02 -0.35043583583E+02  0.27012991291E+02  0.59971969669E+02  0.10000000000E+01 0.  0.
         -4    1    1    2    0  502 -0.10631358330E+02  0.28719554173E+02 -0.98271207794E+02  0.10294018532E+03  0.12700000000E+01 0.  1.
<mgrwt>
<rscale>  1 0.12868808E+03</rscale>
<asrwt>0</asrwt>
<pdfrwt beam="2">  1       21 0.27123418E-01 0.12868808E+03</pdfrwt>
<pdfrwt beam="1">  1       -4 0.87731995E-02 0.12868808E+03</pdfrwt>
<totfact> 0.49481584E+04</totfact>
</mgrwt>
</event>
<event>
 6    4  0.6325740E-003  0.1285493E+03  0.7818608E-02  0.1229624E+00
         -4   -1    0    0    0  501 -0.00000000000E+00  0.00000000000E+00  0.37537111593E+03  0.37537326433E+03  0.12700000000E+01 0. -1.
         21   -1    0    0  501  502  0.00000000000E+00 -0.00000000000E+00 -0.16882400715E+02  0.16882400715E+02  0.00000000000E+00 0. -1.
         25    2    1    2    0    0  0.29650844544E+02  0.44901436695E+01  0.27578020871E+03  0.30426905288E+03  0.12500239618E+03 0.  0.
    9000005    1    3    3    0    0  0.25328500211E+01 -0.51057653172E+02  0.55430422309E+02  0.75411080047E+02  0.10000000000E+01 0.  0.
    9000005    1    3    3    0    0  0.27117994523E+02  0.55547796841E+02  0.22034978640E+03  0.22885797283E+03  0.10000000000E+01 0.  0.
         -4    1    1    2    0  502 -0.29650844544E+02 -0.44901436695E+01  0.82708506501E+02  0.87986612164E+02  0.12700000000E+01 0.  1.
<mgrwt>
<rscale>  1 0.12854934E+03</rscale>
<asrwt>0</asrwt>
<pdfrwt beam="2">  1       21 0.25972927E-02 0.12854934E+03</pdfrwt>
<pdfrwt beam="1">  1       -4 0.57753236E-01 0.12854934E+03</pdfrwt>
<totfact> 0.92023828E+04</totfact>
</mgrwt>
</event>
<event>
 6    4  0.6325740E-003  0.1271543E+03  0.7818608E-02  0.1231740E+00
          4   -1    0    0  502    0 -0.00000000000E+00  0.00000000000E+00  0.19887853871E+03  0.19888259366E+03  0.12700000000E+01 0. -1.
         21   -1    0    0  501  502  0.00000000000E+00 -0.00000000000E+00 -0.39036621523E+02  0.39036621523E+02  0.00000000000E+00 0. -1.
         25    2    1    2    0    0 -0.18948511890E+02  0.13560605894E+02  0.17014619858E+03  0.21240985905E+03  0.12500113278E+03 0.  0.
    9000005    1    3    3    0    0 -0.30650479051E+00  0.67284272822E+02  0.69071452974E+02  0.96432011958E+02  0.10000000000E+01 0.  0.
    9000005    1    3    3    0    0 -0.18642007099E+02 -0.53723666927E+02  0.10107474561E+03  0.11597784709E+03  0.10000000000E+01 0.  0.
          4    1    1    2  501    0  0.18948511890E+02 -0.13560605894E+02 -0.10304281393E+02  0.25509356128E+02  0.12700000000E+01 0.  1.
<mgrwt>
<rscale>  1 0.12715431E+03</rscale>
<asrwt>0</asrwt>
<pdfrwt beam="2">  1       21 0.60056342E-02 0.12715431E+03</pdfrwt>
<pdfrwt beam="1">  1        4 0.30598599E-01 0.12715431E+03</pdfrwt>
<totfact> 0.80460347E+04</totfact>
</mgrwt>
</event>
<event>
 6    4  0.6325740E-003  0.1271964E+03  0.7818608E-02  0.1231676E+00
         -4   -1    0    0    0  501 -0.00000000000E+00  0.00000000000E+00  0.10008781104E+04  0.10008789161E+04  0.12700000000E+01 0.  1.
         21   -1    0    0  501  502  0.00000000000E+00 -0.00000000000E+00 -0.15042573032E+02  0.15042573032E+02  0.00000000000E+00 0.  1.
         25    2    1    2    0    0 -0.22472988931E+01  0.23434418984E+02  0.98409501689E+03  0.99228117067E+03  0.12499878823E+03 0.  0.
    9000005    1    3    3    0    0  0.37085137986E+02 -0.49341004490E+01  0.98681523641E+02  0.10554002044E+03  0.10000000000E+01 0.  0.
    9000005    1    3    3    0    0 -0.39332436879E+02  0.28368519433E+02  0.88541349325E+03  0.88674115023E+03  0.10000000000E+01 0.  0.
         -4    1    1    2    0  502  0.22472988931E+01 -0.23434418984E+02  0.17405204341E+01  0.23640318458E+02  0.12700000000E+01 0. -1.
<mgrwt>
<rscale>  1 0.12719638E+03</rscale>
<asrwt>0</asrwt>
<pdfrwt beam="2">  1       21 0.23142428E-02 0.12719638E+03</pdfrwt>
<pdfrwt beam="1">  1       -4 0.15398538E+00 0.12719638E+03</pdfrwt>
<totfact> 0.11706476E+04</totfact>
</mgrwt>
</event>
<event>
 6    4  0.6325740E-003  0.1298973E+03  0.7818608E-02  0.1227608E+00
         -4   -1    0    0    0  501 -0.00000000000E+00  0.00000000000E+00  0.17577274699E+03  0.17577733496E+03  0.12700000000E+01 0. -1.
         21   -1    0    0  501  502  0.00000000000E+00 -0.00000000000E+00 -0.42650538522E+02  0.42650538522E+02  0.00000000000E+00 0. -1.
         25    2    1    2    0    0  0.21591916570E+02 -0.27967809628E+02  0.12859422802E+03  0.18278345255E+03  0.12499962323E+03 0.  0.
    9000005    1    3    3    0    0  0.35427389483E+02 -0.55819635387E+02  0.18910318535E+02  0.68771591281E+02  0.10000000000E+01 0.  0.
    9000005    1    3    3    0    0 -0.13835472913E+02  0.27851825759E+02  0.10968390949E+03  0.11401186127E+03  0.10000000000E+01 0.  0.
         -4    1    1    2    0  502 -0.21591916570E+02  0.27967809628E+02  0.45279804450E+01  0.35644420930E+02  0.12700000000E+01 0.  1.
<mgrwt>
<rscale>  1 0.12989733E+03</rscale>
<asrwt>0</asrwt>
<pdfrwt beam="2">  1       21 0.65616214E-02 0.12989733E+03</pdfrwt>
<pdfrwt beam="1">  1       -4 0.27043768E-01 0.12989733E+03</pdfrwt>
<totfact> 0.87545153E+04</totfact>
</mgrwt>
</event>
<event>
 6    4  0.6325740E-003  0.1286423E+03  0.7818608E-02  0.1229484E+00
          4   -1    0    0  502    0 -0.00000000000E+00  0.00000000000E+00  0.23554071345E+03  0.23554413725E+03  0.12700000000E+01 0. -1.
         21   -1    0    0  501  502  0.00000000000E+00 -0.00000000000E+00 -0.30599449264E+02  0.30599449264E+02  0.00000000000E+00 0. -1.
         25    2    1    2    0    0 -0.30146651385E+02  0.38631351426E+01  0.12001258654E+03  0.17593140558E+03  0.12500037655E+03 0.  0.
    9000005    1    3    3    0    0 -0.73997047600E+02  0.26694497840E+02  0.81297872521E+02  0.11313047045E+03  0.10000000000E+01 0.  0.
    9000005    1    3    3    0    0  0.43850396215E+02 -0.22831362698E+02  0.38714714021E+02  0.62800935125E+02  0.10000000000E+01 0.  0.
          4    1    1    2  501    0  0.30146651385E+02 -0.38631351426E+01  0.84928677648E+02  0.90212180940E+02  0.12700000000E+01 0.  1.
<mgrwt>
<rscale>  1 0.12864229E+03</rscale>
<asrwt>0</asrwt>
<pdfrwt beam="2">  1       21 0.47076078E-02 0.12864229E+03</pdfrwt>
<pdfrwt beam="1">  1        4 0.36239322E-01 0.12864229E+03</pdfrwt>
<totfact> 0.87859288E+04</totfact>
</mgrwt>
</event>
<event>
 6    4  0.6325740E-003  0.1278634E+03  0.7818608E-02  0.1230661E+00
         21   -1    0    0  501  502  0.00000000000E+00  0.00000000000E+00  0.27860524377E+03  0.27860524377E+03  0.00000000000E+00 0. -1.
          4   -1    0    0  502    0 -0.00000000000E+00 -0.00000000000E+00 -0.22075363747E+02  0.22111865244E+02  0.12700000000E+01 0.  1.
         25    2    1    2    0    0 -0.15546462427E+02  0.21954705757E+02  0.22852333505E+03  0.26186249461E+03  0.12500139929E+03 0.  0.
    9000005    1    3    3    0    0 -0.38026038671E+02 -0.33439914402E+01  0.22454834987E+03  0.22777208636E+03  0.10000000000E+01 0.  0.
    9000005    1    3    3    0    0  0.22479576244E+02  0.25298697197E+02  0.39749851825E+01  0.34090408258E+02  0.10000000000E+01 0.  0.
          4    1    1    2  501    0  0.15546462427E+02 -0.21954705757E+02  0.28006544980E+02  0.38854614405E+02  0.12700000000E+01 0. -1.
<mgrwt>
<rscale>  1 0.12786341E+03</rscale>
<asrwt>0</asrwt>
<pdfrwt beam="1">  1       21 0.42862343E-01 0.12786341E+03</pdfrwt>
<pdfrwt beam="2">  1        4 0.33992405E-02 0.12786341E+03</pdfrwt>
<totfact> 0.93349854E+04</totfact>
</mgrwt>
</event>
<event>
 6    4  0.6325740E-003  0.1431135E+03  0.7818608E-02  0.1209200E+00
         21   -1    0    0  501  502  0.00000000000E+00  0.00000000000E+00  0.11523012315E+03  0.11523012315E+03  0.00000000000E+00 0. -1.
          4   -1    0    0  502    0 -0.00000000000E+00 -0.00000000000E+00 -0.21809595670E+03  0.21809965435E+03  0.12700000000E+01 0.  1.
         25    2    1    2    0    0  0.27842097894E+02  0.63886329912E+02 -0.17961195038E+03  0.22965613132E+03  0.12499936147E+03 0.  0.
    9000005    1    3    3    0    0  0.75608738336E+02  0.24430086888E+02 -0.11810244380E+03  0.14234710285E+03  0.10000000000E+01 0.  0.
    9000005    1    3    3    0    0 -0.47766640442E+02  0.39456243024E+02 -0.61509506574E+02  0.87309028465E+02  0.10000000000E+01 0.  0.
          4    1    1    2  501    0 -0.27842097894E+02 -0.63886329912E+02  0.76746116833E+02  0.10367364619E+03  0.12700000000E+01 0. -1.
<mgrwt>
<rscale>  1 0.14311354E+03</rscale>
<asrwt>0</asrwt>
<pdfrwt beam="1">  1       21 0.17727711E-01 0.14311354E+03</pdfrwt>
<pdfrwt beam="2">  1        4 0.33554047E-01 0.14311354E+03</pdfrwt>
<totfact> 0.10197310E+04</totfact>
</mgrwt>
</event>
<event>
 6    4  0.6325740E-003  0.1331922E+03  0.7818608E-02  0.1222795E+00
          4   -1    0    0  502    0 -0.00000000000E+00  0.00000000000E+00  0.81417263322E+03  0.81417362373E+03  0.12700000000E+01 0.  1.
         21   -1    0    0  501  502  0.00000000000E+00 -0.00000000000E+00 -0.19882196653E+02  0.19882196653E+02  0.00000000000E+00 0. -1.
         25    2    1    2    0    0 -0.72337986592E+00  0.45982900353E+02  0.77113126349E+03  0.78254940719E+03  0.12500079498E+03 0.  0.
    9000005    1    3    3    0    0  0.40215813399E+02  0.30456671369E+01  0.87552702023E+02  0.96400536136E+02  0.10000000000E+01 0.  0.
    9000005    1    3    3    0    0 -0.40939193265E+02  0.42937233216E+02  0.68357856147E+03  0.68614887105E+03  0.10000000000E+01 0.  0.
          4    1    1    2  501    0  0.72337986592E+00 -0.45982900353E+02  0.23159173069E+02  0.51506413198E+02  0.12700000000E+01 0. -1.
<mgrwt>
<rscale>  1 0.13319215E+03</rscale>
<asrwt>0</asrwt>
<pdfrwt beam="2">  1       21 0.30588001E-02 0.13319215E+03</pdfrwt>
<pdfrwt beam="1">  1        4 0.12526050E+00 0.13319215E+03</pdfrwt>
<totfact> 0.12471983E+04</totfact>
</mgrwt>
</event>
<event>
 6    4  0.6325740E-003  0.1564231E+03  0.7818608E-02  0.1192795E+00
         21   -1    0    0  501  502  0.00000000000E+00  0.00000000000E+00  0.16705527361E+03  0.16705527361E+03  0.00000000000E+00 0.  1.
          4   -1    0    0  502    0 -0.00000000000E+00 -0.00000000000E+00 -0.11608006352E+03  0.11608701067E+03  0.12700000000E+01 0. -1.
         25    2    1    2    0    0 -0.85231358617E+02 -0.39743748507E+02 -0.29715638461E+02  0.15922063170E+03  0.12499696137E+03 0.  0.
    9000005    1    3    3    0    0 -0.46619815435E+01 -0.89058312672E+01  0.44367464369E+02  0.45502964705E+02  0.10000000000E+01 0.  0.
    9000005    1    3    3    0    0 -0.80569377073E+02 -0.30837917239E+02 -0.74083102830E+02  0.11371766699E+03  0.10000000000E+01 0.  0.
          4    1    1    2  501    0  0.85231358617E+02  0.39743748507E+02  0.80690848550E+02  0.12392165257E+03  0.12700000000E+01 0.  1.
<mgrwt>
<rscale>  1 0.15642311E+03</rscale>
<asrwt>0</asrwt>
<pdfrwt beam="1">  1       21 0.25700811E-01 0.15642311E+03</pdfrwt>
<pdfrwt beam="2">  1        4 0.17859377E-01 0.15642311E+03</pdfrwt>
<totfact> 0.16458823E+04</totfact>
</mgrwt>
</event>
<event>
 6    4  0.6325740E-003  0.1356052E+03  0.7818608E-02  0.1219368E+00
         -4   -1    0    0    0  501 -0.00000000000E+00  0.00000000000E+00  0.48304926348E+02  0.48321618449E+02  0.12700000000E+01 0. -1.
         21   -1    0    0  501  502  0.00000000000E+00 -0.00000000000E+00 -0.30027587203E+03  0.30027587203E+03  0.00000000000E+00 0.  1.
         25    2    1    2    0    0 -0.12589542757E+02 -0.51045207943E+02 -0.57763376770E+02  0.14739534694E+03  0.12499868305E+03 0.  0.
    9000005    1    3    3    0    0 -0.16969583816E+02  0.37635871339E+02 -0.38660195524E+02  0.56568863382E+02  0.10000000000E+01 0.  0.
    9000005    1    3    3    0    0  0.43800410594E+01 -0.88681079282E+02 -0.19103181246E+02  0.90826483561E+02  0.10000000000E+01 0.  0.
         -4    1    1    2    0  502  0.12589542757E+02  0.51045207943E+02 -0.19420756891E+03  0.20120214353E+03  0.12700000000E+01 0.  1.
<mgrwt>
<rscale>  1 0.13560524E+03</rscale>
<asrwt>0</asrwt>
<pdfrwt beam="2">  1       21 0.46196288E-01 0.13560524E+03</pdfrwt>
<pdfrwt beam="1">  1       -4 0.74330178E-02 0.13560524E+03</pdfrwt>
<totfact> 0.22926933E+04</totfact>
</mgrwt>
</event>
<event>
 6    4  0.6325740E-003  0.1316410E+03  0.7818608E-02  0.1225041E+00
         21   -1    0    0  501  502  0.00000000000E+00  0.00000000000E+00  0.50144986537E+02  0.50144986537E+02  0.00000000000E+00 0.  1.
         -4   -1    0    0    0  501 -0.00000000000E+00 -0.00000000000E+00 -0.17081174890E+03  0.17081647012E+03  0.12700000000E+01 0.  1.
         25    2    1    2    0    0 -0.33525788247E+02  0.24126860872E+02 -0.53493337560E+02  0.14209469691E+03  0.12499312714E+03 0.  0.
    9000005    1    3    3    0    0 -0.21346388353E+02  0.17964482085E+02  0.39350335335E+02  0.48247692207E+02  0.10000000000E+01 0.  0.
    9000005    1    3    3    0    0 -0.12179399894E+02  0.61623787873E+01 -0.92843672895E+02  0.93847004698E+02  0.10000000000E+01 0.  0.
         -4    1    1    2    0  502  0.33525788247E+02 -0.24126860872E+02 -0.67173424807E+02  0.78866759750E+02  0.12700000000E+01 0. -1.
<mgrwt>
<rscale>  1 0.13164105E+03</rscale>
<asrwt>0</asrwt>
<pdfrwt beam="1">  1       21 0.77146133E-02 0.13164105E+03</pdfrwt>
<pdfrwt beam="2">  1       -4 0.26280331E-01 0.13164105E+03</pdfrwt>
<totfact> 0.70104551E+04</totfact>
</mgrwt>
</event>
<event>
 6    4  0.6325740E-003  0.1373942E+03  0.7818608E-02  0.1216879E+00
         21   -1    0    0  501  502  0.00000000000E+00  0.00000000000E+00  0.54048386601E+03  0.54048386601E+03  0.00000000000E+00 0. -1.
         -4   -1    0    0    0  501 -0.00000000000E+00 -0.00000000000E+00 -0.10613856577E+03  0.10614616358E+03  0.12700000000E+01 0.  1.
         25    2    1    2    0    0  0.35388032454E+02 -0.44716772218E+02 -0.59339693350E+02  0.14966082696E+03  0.12500104545E+03 0.  0.
    9000005    1    3    3    0    0 -0.14118841417E+02 -0.41830362150E+02 -0.83522863651E+02  0.94478514134E+02  0.10000000000E+01 0.  0.
    9000005    1    3    3    0    0  0.49506873871E+02 -0.28864100678E+01  0.24183170301E+02  0.55182312831E+02  0.10000000000E+01 0.  0.
         -4    1    1    2    0  502 -0.35388032454E+02  0.44716772218E+02  0.49368499359E+03  0.49696920262E+03  0.12700000000E+01 0. -1.
<mgrwt>
<rscale>  1 0.13739419E+03</rscale>
<asrwt>0</asrwt>
<pdfrwt beam="1">  1       21 0.83151362E-01 0.13739419E+03</pdfrwt>
<pdfrwt beam="2">  1       -4 0.16329710E-01 0.13739419E+03</pdfrwt>
<totfact> 0.17089861E+03</totfact>
</mgrwt>
</event>
<event>
 6    4  0.6325740E-003  0.1281148E+03  0.7818608E-02  0.1230280E+00
         21   -1    0    0  501  502  0.00000000000E+00  0.00000000000E+00  0.17522836219E+03  0.17522836219E+03  0.00000000000E+00 0.  1.
          4   -1    0    0  502    0 -0.00000000000E+00 -0.00000000000E+00 -0.62516901794E+03  0.62517030791E+03  0.12700000000E+01 0. -1.
         25    2    1    2    0    0 -0.27457802683E+02  0.58276781363E+01 -0.61742345956E+03  0.63057524640E+03  0.12500208076E+03 0.  0.
    9000005    1    3    3    0    0  0.44366320938E+02  0.15145249270E+02 -0.36386281700E+03  0.36687177406E+03  0.10000000000E+01 0.  0.
    9000005    1    3    3    0    0 -0.71824123622E+02 -0.93175711338E+01 -0.25356064257E+03  0.26370347234E+03  0.10000000000E+01 0.  0.
          4    1    1    2  501    0  0.27457802683E+02 -0.58276781363E+01  0.16748280382E+03  0.16982342370E+03  0.12700000000E+01 0.  1.
<mgrwt>
<rscale>  1 0.12811484E+03</rscale>
<asrwt>0</asrwt>
<pdfrwt beam="1">  1       21 0.26958210E-01 0.12811484E+03</pdfrwt>
<pdfrwt beam="2">  1        4 0.96180301E-01 0.12811484E+03</pdfrwt>
<totfact> 0.51419356E+02</totfact>
</mgrwt>
</event>
<event>
 6    4  0.6325740E-003  0.1335939E+03  0.7818608E-02  0.1222218E+00
         21   -1    0    0  501  502  0.00000000000E+00  0.00000000000E+00  0.72964109348E+03  0.72964109348E+03  0.00000000000E+00 0.  1.
          4   -1    0    0  502    0 -0.00000000000E+00 -0.00000000000E+00 -0.25262931221E+02  0.25294833343E+02  0.12700000000E+01 0. -1.
         25    2    1    2    0    0 -0.17304248129E+02 -0.43859262334E+02  0.15965915138E+03  0.20817868123E+03  0.12499698718E+03 0.  0.
    9000005    1    3    3    0    0  0.30528341703E+02  0.19343463907E+02  0.10717673343E+03  0.11311057171E+03  0.10000000000E+01 0.  0.
    9000005    1    3    3    0    0 -0.47832589831E+02 -0.63202726241E+02  0.52482417948E+02  0.95068109521E+02  0.10000000000E+01 0.  0.
          4    1    1    2  501    0  0.17304248129E+02  0.43859262334E+02  0.54471901088E+03  0.54675724559E+03  0.12700000000E+01 0.  1.
<mgrwt>
<rscale>  1 0.13359386E+03</rscale>
<asrwt>0</asrwt>
<pdfrwt beam="1">  1       21 0.11225246E+00 0.13359386E+03</pdfrwt>
<pdfrwt beam="2">  1        4 0.38891444E-02 0.13359386E+03</pdfrwt>
<totfact> 0.92137449E+03</totfact>
</mgrwt>
</event>
<event>
 6    4  0.6325740E-003  0.1266330E+03  0.7818608E-02  0.1232539E+00
         21   -1    0    0  501  502  0.00000000000E+00  0.00000000000E+00  0.38485774713E+03  0.38485774713E+03  0.00000000000E+00 0. -1.
          4   -1    0    0  502    0 -0.00000000000E+00 -0.00000000000E+00 -0.24076483305E+02  0.24109955378E+02  0.12700000000E+01 0. -1.
         25    2    1    2    0    0  0.18341806476E+02 -0.86520299331E+01  0.14616289206E+03  0.19338955453E+03  0.12499859719E+03 0.  0.
    9000005    1    3    3    0    0 -0.13271931546E+01  0.57505401820E+02  0.63092433227E+02  0.85383182247E+02  0.10000000000E+01 0.  0.
    9000005    1    3    3    0    0  0.19668999630E+02 -0.66157431753E+02  0.83070458832E+02  0.10800637228E+03  0.10000000000E+01 0.  0.
          4    1    1    2  501    0 -0.18341806476E+02  0.86520299331E+01  0.21461837177E+03  0.21557814798E+03  0.12700000000E+01 0.  1.
<mgrwt>
<rscale>  1 0.12663305E+03</rscale>
<asrwt>0</asrwt>
<pdfrwt beam="1">  1       21 0.59208880E-01 0.12663305E+03</pdfrwt>
<pdfrwt beam="2">  1        4 0.37068106E-02 0.12663305E+03</pdfrwt>
<totfact> 0.41734070E+04</totfact>
</mgrwt>
</event>
<event>
 6    4  0.6325740E-003  0.1379803E+03  0.7818608E-02  0.1216073E+00
         -4   -1    0    0    0  501 -0.00000000000E+00  0.00000000000E+00  0.29882272673E+03  0.29882542548E+03  0.12700000000E+01 0.  1.
         21   -1    0    0  501  502  0.00000000000E+00 -0.00000000000E+00 -0.14815924961E+03  0.14815924961E+03  0.00000000000E+00 0. -1.
         25    2    1    2    0    0  0.17600679020E+02 -0.55713493822E+02  0.27606900057E+03  0.30863029132E+03  0.12499914537E+03 0.  0.
    9000005    1    3    3    0    0 -0.27740635157E+02  0.11403506623E+02  0.18214707996E+03  0.18460265854E+03  0.10000000000E+01 0.  0.
    9000005    1    3    3    0    0  0.45341314177E+02 -0.67117000444E+02  0.93921920610E+02  0.12402763277E+03  0.10000000000E+01 0.  0.
         -4    1    1    2    0  502 -0.17600679020E+02  0.55713493822E+02 -0.12540552346E+03  0.13835438377E+03  0.12700000000E+01 0. -1.
<mgrwt>
<rscale>  1 0.13798030E+03</rscale>
<asrwt>0</asrwt>
<pdfrwt beam="2">  1       21 0.22793731E-01 0.13798030E+03</pdfrwt>
<pdfrwt beam="1">  1       -4 0.45973353E-01 0.13798030E+03</pdfrwt>
<totfact> 0.34383094E+03</totfact>
</mgrwt>
</event>
<event>
 6    4  0.6325740E-003  0.1288056E+03  0.7818608E-02  0.1229239E+00
          4   -1    0    0  502    0 -0.00000000000E+00  0.00000000000E+00  0.49552443844E+02  0.49568715849E+02  0.12700000000E+01 0.  1.
         21   -1    0    0  501  502  0.00000000000E+00 -0.00000000000E+00 -0.18490905424E+03  0.18490905424E+03  0.00000000000E+00 0.  1.
         25    2    1    2    0    0  0.29953301547E+02  0.83179049567E+01 -0.41076682802E+02  0.13519682799E+03  0.12499800244E+03 0.  0.
    9000005    1    3    3    0    0  0.19444489788E+02  0.77409448581E+01  0.44385929186E+02  0.49082798617E+02  0.10000000000E+01 0.  0.
    9000005    1    3    3    0    0  0.10508811760E+02  0.57696009854E+00 -0.85462611988E+02  0.86114029376E+02  0.10000000000E+01 0.  0.
          4    1    1    2  501    0 -0.29953301547E+02 -0.83179049567E+01 -0.94279927591E+02  0.99280942093E+02  0.12700000000E+01 0. -1.
<mgrwt>
<rscale>  1 0.12880562E+03</rscale>
<asrwt>0</asrwt>
<pdfrwt beam="2">  1       21 0.28447547E-01 0.12880562E+03</pdfrwt>
<pdfrwt beam="1">  1        4 0.76250400E-02 0.12880562E+03</pdfrwt>
<totfact> 0.56999539E+04</totfact>
</mgrwt>
</event>
<event>
 6    4  0.6325740E-003  0.1329382E+03  0.7818608E-02  0.1223160E+00
         21   -1    0    0  501  502  0.00000000000E+00  0.00000000000E+00  0.18211787655E+03  0.18211787655E+03  0.00000000000E+00 0. -1.
          4   -1    0    0  502    0 -0.00000000000E+00 -0.00000000000E+00 -0.59151033281E+02  0.59164665453E+02  0.12700000000E+01 0. -1.
         25    2    1    2    0    0  0.44314667735E+02  0.91225302908E+01  0.13987069159E+03  0.19296729262E+03  0.12500222125E+03 0.  0.
    9000005    1    3    3    0    0  0.74436149139E+02  0.44290683433E+02  0.91449136310E+02  0.12596169842E+03  0.10000000000E+01 0.  0.
    9000005    1    3    3    0    0 -0.30121481404E+02 -0.35168153143E+02  0.48421555281E+02  0.67005594194E+02  0.10000000000E+01 0.  0.
          4    1    1    2  501    0 -0.44314667735E+02 -0.91225302908E+01 -0.16903848320E+02  0.48315249388E+02  0.12700000000E+01 0.  1.
<mgrwt>
<rscale>  1 0.13293820E+03</rscale>
<asrwt>0</asrwt>
<pdfrwt beam="1">  1       21 0.28018135E-01 0.13293820E+03</pdfrwt>
<pdfrwt beam="2">  1        4 0.91015483E-02 0.13293820E+03</pdfrwt>
<totfact> 0.43904920E+04</totfact>
</mgrwt>
</event>
<event>
 6    4  0.6325740E-003  0.1380139E+03  0.7818608E-02  0.1216027E+00
          4   -1    0    0  502    0 -0.00000000000E+00  0.00000000000E+00  0.13184915781E+03  0.13185527413E+03  0.12700000000E+01 0.  1.
         21   -1    0    0  501  502  0.00000000000E+00 -0.00000000000E+00 -0.16110886317E+03  0.16110886317E+03  0.00000000000E+00 0. -1.
         25    2    1    2    0    0 -0.43785369538E+02 -0.38801650994E+02  0.86762344451E+02  0.16302008916E+03  0.12500047340E+03 0.  0.
    9000005    1    3    3    0    0 -0.19493736628E+02 -0.42469157815E+01  0.11202554057E+03  0.11379263510E+03  0.10000000000E+01 0.  0.
    9000005    1    3    3    0    0 -0.24291632910E+02 -0.34554735212E+02 -0.25263196124E+02  0.49227454062E+02  0.10000000000E+01 0.  0.
          4    1    1    2  501    0  0.43785369538E+02  0.38801650994E+02 -0.11602204981E+03  0.12994404814E+03  0.12700000000E+01 0. -1.
<mgrwt>
<rscale>  1 0.13801393E+03</rscale>
<asrwt>0</asrwt>
<pdfrwt beam="2">  1       21 0.24785979E-01 0.13801393E+03</pdfrwt>
<pdfrwt beam="1">  1        4 0.20285342E-01 0.13801393E+03</pdfrwt>
<totfact> 0.13883285E+04</totfact>
</mgrwt>
</event>
<event>
 6    4  0.6325740E-003  0.1316494E+03  0.7818608E-02  0.1225029E+00
         -4   -1    0    0    0  501 -0.00000000000E+00  0.00000000000E+00  0.20431733813E+01  0.24057135046E+01  0.12700000000E+01 0.  1.
         21   -1    0    0  501  502  0.00000000000E+00 -0.00000000000E+00 -0.35844995504E+04  0.35844995504E+04  0.00000000000E+00 0. -1.
         25    2    1    2    0    0  0.11208521867E+02  0.39739453376E+02 -0.22831655820E+04  0.22869579427E+04  0.12500680583E+03 0.  0.
    9000005    1    3    3    0    0  0.34143063754E+02 -0.29131919371E+02 -0.42286115122E+03  0.42523754625E+03  0.10000000000E+01 0.  0.
    9000005    1    3    3    0    0 -0.22934541887E+02  0.68871372747E+02 -0.18603044308E+04  0.18617203964E+04  0.10000000000E+01 0.  0.
         -4    1    1    2    0  502 -0.11208521867E+02 -0.39739453376E+02 -0.12992907950E+04  0.12999473212E+04  0.12700000000E+01 0. -1.
<mgrwt>
<rscale>  1 0.13164937E+03</rscale>
<asrwt>0</asrwt>
<pdfrwt beam="2">  1       21 0.55146339E+00 0.13164937E+03</pdfrwt>
<pdfrwt beam="1">  1       -4 0.34223818E-03 0.13164937E+03</pdfrwt>
<totfact> 0.52408815E+02</totfact>
</mgrwt>
</event>
<event>
 6    4  0.6325740E-003  0.1275832E+03  0.7818608E-02  0.1231086E+00
         21   -1    0    0  501  502  0.00000000000E+00  0.00000000000E+00  0.31894736126E+03  0.31894736126E+03  0.00000000000E+00 0.  1.
          4   -1    0    0  502    0 -0.00000000000E+00 -0.00000000000E+00 -0.18640822941E+02  0.18684035429E+02  0.12700000000E+01 0.  1.
         25    2    1    2    0    0 -0.25510225324E+02  0.12583487868E+01  0.26412425034E+03  0.29332422006E+03  0.12500049367E+03 0.  0.
    9000005    1    3    3    0    0 -0.25784444320E+01 -0.56139570184E+02  0.71047083894E+02  0.90592427089E+02  0.10000000000E+01 0.  0.
    9000005    1    3    3    0    0 -0.22931780892E+02  0.57397918970E+02  0.19307716645E+03  0.20273179297E+03  0.10000000000E+01 0.  0.
          4    1    1    2  501    0  0.25510225324E+02 -0.12583487868E+01  0.36182287979E+02  0.44307176633E+02  0.12700000000E+01 0. -1.
<mgrwt>
<rscale>  1 0.12758322E+03</rscale>
<asrwt>0</asrwt>
<pdfrwt beam="1">  1       21 0.49068821E-01 0.12758322E+03</pdfrwt>
<pdfrwt beam="2">  1        4 0.28713377E-02 0.12758322E+03</pdfrwt>
<totfact> 0.92311571E+04</totfact>
</mgrwt>
</event>
<event>
 6    4  0.6325740E-003  0.1346938E+03  0.7818608E-02  0.1220653E+00
         21   -1    0    0  501  502  0.00000000000E+00  0.00000000000E+00  0.13740644494E+03  0.13740644494E+03  0.00000000000E+00 0.  1.
         -4   -1    0    0    0  501 -0.00000000000E+00 -0.00000000000E+00 -0.12538818527E+03  0.12539461673E+03  0.12700000000E+01 0. -1.
         25    2    1    2    0    0  0.49849982769E+02 -0.57015735461E+01 -0.80951499290E+02  0.15714824483E+03  0.12499958758E+03 0.  0.
    9000005    1    3    3    0    0  0.45916754527E+02 -0.16585345654E+02  0.21989941110E+02  0.53553520396E+02  0.10000000000E+01 0.  0.
    9000005    1    3    3    0    0  0.39332282415E+01  0.10883772107E+02 -0.10294144040E+03  0.10359472444E+03  0.10000000000E+01 0.  0.
         -4    1    1    2    0  502 -0.49849982769E+02  0.57015735461E+01  0.92969758962E+02  0.10565281683E+03  0.12700000000E+01 0.  1.
<mgrwt>
<rscale>  1 0.13469382E+03</rscale>
<asrwt>0</asrwt>
<pdfrwt beam="1">  1       21 0.21139453E-01 0.13469382E+03</pdfrwt>
<pdfrwt beam="2">  1       -4 0.19291436E-01 0.13469382E+03</pdfrwt>
<totfact> 0.20436123E+04</totfact>
</mgrwt>
</event>
<event>
 6    4  0.6325740E-003  0.1267005E+03  0.7818608E-02  0.1232435E+00
         -4   -1    0    0    0  501 -0.00000000000E+00  0.00000000000E+00  0.10366649058E+03  0.10367426957E+03  0.12700000000E+01 0. -1.
         21   -1    0    0  501  502  0.00000000000E+00 -0.00000000000E+00 -0.22844713958E+03  0.22844713958E+03  0.00000000000E+00 0.  1.
         25    2    1    2    0    0  0.13496487651E+02  0.15682004052E+02  0.64179109839E+02  0.14202805369E+03  0.12499971786E+03 0.  0.
    9000005    1    3    3    0    0 -0.30069445600E+02 -0.10707498457E+02 -0.24165130473E+02  0.40047167349E+02  0.10000000000E+01 0.  0.
    9000005    1    3    3    0    0  0.43565933251E+02  0.26389502509E+02  0.88344240312E+02  0.10198088634E+03  0.10000000000E+01 0.  0.
         -4    1    1    2    0  502 -0.13496487651E+02 -0.15682004052E+02 -0.18895975884E+03  0.19009335546E+03  0.12700000000E+01 0.  1.
<mgrwt>
<rscale>  1 0.12670047E+03</rscale>
<asrwt>0</asrwt>
<pdfrwt beam="2">  1       21 0.35145713E-01 0.12670047E+03</pdfrwt>
<pdfrwt beam="1">  1       -4 0.15949561E-01 0.12670047E+03</pdfrwt>
<totfact> 0.10783199E+04</totfact>
</mgrwt>
</event>
<event>
 6    4  0.6325740E-003  0.1315315E+03  0.7818608E-02  0.1225201E+00
          4   -1    0    0  502    0 -0.00000000000E+00  0.00000000000E+00  0.37905186577E+03  0.37905399331E+03  0.12700000000E+01 0.  1.
         21   -1    0    0  501  502  0.00000000000E+00 -0.00000000000E+00 -0.35438205862E+02  0.35438205862E+02  0.00000000000E+00 0.  1.
         25    2    1    2    0    0 -0.19567295977E+02  0.35957762091E+02  0.34920553515E+03  0.37315551213E+03  0.12499876291E+03 0.  0.
    9000005    1    3    3    0    0 -0.20983455827E+02 -0.33363545885E+02  0.39602263842E+02  0.55881758328E+02  0.10000000000E+01 0.  0.
    9000005    1    3    3    0    0  0.14161598498E+01  0.69321307976E+02  0.30960327131E+03  0.31727375380E+03  0.10000000000E+01 0.  0.
          4    1    1    2  501    0  0.19567295977E+02 -0.35957762091E+02 -0.55918752430E+01  0.41336687037E+02  0.12700000000E+01 0. -1.
<mgrwt>
<rscale>  1 0.13153148E+03</rscale>
<asrwt>0</asrwt>
<pdfrwt beam="2">  1       21 0.54520319E-02 0.13153148E+03</pdfrwt>
<pdfrwt beam="1">  1        4 0.58317583E-01 0.13153148E+03</pdfrwt>
<totfact> 0.26462692E+04</totfact>
</mgrwt>
</event>
<event>
 6    4  0.6325740E-003  0.1271969E+03  0.7818608E-02  0.1231675E+00
         21   -1    0    0  501  502  0.00000000000E+00  0.00000000000E+00  0.21689042710E+02  0.21689042710E+02  0.00000000000E+00 0. -1.
         -4   -1    0    0    0  501 -0.00000000000E+00 -0.00000000000E+00 -0.42600430707E+03  0.42600620013E+03  0.12700000000E+01 0.  1.
         25    2    1    2    0    0  0.40373620193E+01  0.23181549417E+02 -0.40460611949E+03  0.42412869828E+03  0.12500142502E+03 0.  0.
    9000005    1    3    3    0    0  0.55682851341E+02 -0.63361671369E+01 -0.28596210311E+03  0.29140358845E+03  0.10000000000E+01 0.  0.
    9000005    1    3    3    0    0 -0.51645489322E+02  0.29517716554E+02 -0.11864401638E+03  0.13272510983E+03  0.10000000000E+01 0.  0.
         -4    1    1    2    0  502 -0.40373620193E+01 -0.23181549417E+02  0.29085512353E+00  0.23566544552E+02  0.12700000000E+01 0. -1.
<mgrwt>
<rscale>  1 0.12719686E+03</rscale>
<asrwt>0</asrwt>
<pdfrwt beam="1">  1       21 0.33367763E-02 0.12719686E+03</pdfrwt>
<pdfrwt beam="2">  1       -4 0.65542121E-01 0.12719686E+03</pdfrwt>
<totfact> 0.46693111E+04</totfact>
</mgrwt>
</event>
<event>
 6    4  0.6325740E-003  0.1266668E+03  0.7818608E-02  0.1232487E+00
         21   -1    0    0  501  502  0.00000000000E+00  0.00000000000E+00  0.12817630485E+04  0.12817630485E+04  0.00000000000E+00 0. -1.
          4   -1    0    0  502    0 -0.00000000000E+00 -0.00000000000E+00 -0.49263828218E+01  0.50874500201E+01  0.12700000000E+01 0. -1.
         25    2    1    2    0    0  0.14842799861E+02 -0.14101931400E+02  0.83646014061E+03  0.84599647516E+03  0.12500118394E+03 0.  0.
    9000005    1    3    3    0    0  0.12425421170E+02  0.54360773791E+02  0.45819258504E+03  0.46157440333E+03  0.10000000000E+01 0.  0.
    9000005    1    3    3    0    0  0.24173786911E+01 -0.68462705191E+02  0.37826755556E+03  0.38442207183E+03  0.10000000000E+01 0.  0.
          4    1    1    2  501    0 -0.14842799861E+02  0.14101931400E+02  0.44037652504E+03  0.44085402332E+03  0.12700000000E+01 0.  1.
<mgrwt>
<rscale>  1 0.12666676E+03</rscale>
<asrwt>0</asrwt>
<pdfrwt beam="1">  1       21 0.19719405E+00 0.12666676E+03</pdfrwt>
<pdfrwt beam="2">  1        4 0.77034425E-03 0.12666676E+03</pdfrwt>
<totfact> 0.25383781E+04</totfact>
</mgrwt>
</event>
<event>
 6    4  0.6325740E-003  0.1381445E+03  0.7818608E-02  0.1215848E+00
          4   -1    0    0  502    0 -0.00000000000E+00  0.00000000000E+00  0.62500505684E+03  0.62500634715E+03  0.12700000000E+01 0. -1.
         21   -1    0    0  501  502  0.00000000000E+00 -0.00000000000E+00 -0.24309305029E+02  0.24309305029E+02  0.00000000000E+00 0.  1.
         25    2    1    2    0    0 -0.39756146238E+02 -0.43336306363E+02  0.56241582886E+03  0.57913337511E+03  0.12500125999E+03 0.  0.
    9000005    1    3    3    0    0  0.31020616809E+02 -0.26053024091E+02  0.66354088398E+02  0.77748979277E+02  0.10000000000E+01 0.  0.
    9000005    1    3    3    0    0 -0.70776763047E+02 -0.17283282271E+02  0.49606174047E+03  0.50138439584E+03  0.10000000000E+01 0.  0.
          4    1    1    2  501    0  0.39756146238E+02  0.43336306363E+02  0.38279922945E+02  0.70182277061E+02  0.12700000000E+01 0.  1.
<mgrwt>
<rscale>  1 0.13814450E+03</rscale>
<asrwt>0</asrwt>
<pdfrwt beam="2">  1       21 0.37398936E-02 0.13814450E+03</pdfrwt>
<pdfrwt beam="1">  1        4 0.96157263E-01 0.13814450E+03</pdfrwt>
<totfact> 0.16753866E+04</totfact>
</mgrwt>
</event>
<event>
 6    4  0.6325740E-003  0.1299127E+03  0.7818608E-02  0.1227585E+00
         21   -1    0    0  501  502  0.00000000000E+00  0.00000000000E+00  0.79329402885E+02  0.79329402885E+02  0.00000000000E+00 0. -1.
          4   -1    0    0  502    0 -0.00000000000E+00 -0.00000000000E+00 -0.26313246278E+03  0.26313552756E+03  0.12700000000E+01 0.  1.
         25    2    1    2    0    0 -0.30242641608E+02 -0.18381433613E+02 -0.24181225642E+03  0.27450042313E+03  0.12499928187E+03 0.  0.
    9000005    1    3    3    0    0 -0.76428533565E+02  0.73214050875E+01 -0.13455569668E+03  0.15492307518E+03  0.10000000000E+01 0.  0.
    9000005    1    3    3    0    0  0.46185891958E+02 -0.25702838700E+02 -0.10725655974E+03  0.11957734794E+03  0.10000000000E+01 0.  0.
          4    1    1    2  501    0  0.30242641608E+02  0.18381433613E+02  0.58009196533E+02  0.67964507321E+02  0.12700000000E+01 0. -1.
<mgrwt>
<rscale>  1 0.12991272E+03</rscale>
<asrwt>0</asrwt>
<pdfrwt beam="1">  1       21 0.12204523E-01 0.12991272E+03</pdfrwt>
<pdfrwt beam="2">  1        4 0.40482936E-01 0.12991272E+03</pdfrwt>
<totfact> 0.13757984E+04</totfact>
</mgrwt>
</event>
<event>
 6    4  0.6325740E-003  0.1266215E+03  0.7818608E-02  0.1232557E+00
         21   -1    0    0  501  502  0.00000000000E+00  0.00000000000E+00  0.21987297388E+02  0.21987297388E+02  0.00000000000E+00 0. -1.
          4   -1    0    0  502    0 -0.00000000000E+00 -0.00000000000E+00 -0.18434102257E+04  0.18434106632E+04  0.12700000000E+01 0.  1.
         25    2    1    2    0    0 -0.20477447227E+01 -0.20090488641E+02 -0.18360621826E+04  0.18404231401E+04  0.12500070142E+03 0.  0.
    9000005    1    3    3    0    0 -0.26543469021E+02  0.25362317159E+02 -0.14970151391E+04  0.14974655687E+04  0.10000000000E+01 0.  0.
    9000005    1    3    3    0    0  0.24495724299E+02 -0.45452805800E+02 -0.33904704350E+03  0.34295757138E+03  0.10000000000E+01 0.  0.
          4    1    1    2  501    0  0.20477447227E+01  0.20090488641E+02  0.14639254255E+02  0.24974820469E+02  0.12700000000E+01 0. -1.
<mgrwt>
<rscale>  1 0.12662147E+03</rscale>
<asrwt>0</asrwt>
<pdfrwt beam="1">  1       21 0.33826603E-02 0.12662147E+03</pdfrwt>
<pdfrwt beam="2">  1        4 0.28360450E+00 0.12662147E+03</pdfrwt>
<totfact> 0.10094699E+03</totfact>
</mgrwt>
</event>
<event>
 6    4  0.6325740E-003  0.1266828E+03  0.7818608E-02  0.1232463E+00
         21   -1    0    0  501  502  0.00000000000E+00  0.00000000000E+00  0.38416981464E+02  0.38416981464E+02  0.00000000000E+00 0.  1.
         -4   -1    0    0    0  501 -0.00000000000E+00 -0.00000000000E+00 -0.24976217256E+03  0.24976540141E+03  0.12700000000E+01 0.  1.
         25    2    1    2    0    0 -0.63450604344E+01 -0.19682581838E+02 -0.22851030514E+03  0.26127666117E+03  0.12498348010E+03 0.  0.
    9000005    1    3    3    0    0  0.33945094146E+02  0.52586397132E+01 -0.74112177370E+01  0.35154642035E+02  0.10000000000E+01 0.  0.
    9000005    1    3    3    0    0 -0.40290154581E+02 -0.24941221551E+02 -0.22109908740E+03  0.22612201914E+03  0.10000000000E+01 0.  0.
         -4    1    1    2    0  502  0.63450604344E+01  0.19682581838E+02  0.17165114049E+02  0.26905721697E+02  0.12700000000E+01 0. -1.
<mgrwt>
<rscale>  1 0.12668281E+03</rscale>
<asrwt>0</asrwt>
<pdfrwt beam="1">  1       21 0.59103051E-02 0.12668281E+03</pdfrwt>
<pdfrwt beam="2">  1       -4 0.38426811E-01 0.12668281E+03</pdfrwt>
<totfact> 0.53330613E+04</totfact>
</mgrwt>
</event>
<event>
 6    4  0.6325740E-003  0.1277669E+03  0.7818608E-02  0.1230807E+00
         21   -1    0    0  501  502  0.00000000000E+00  0.00000000000E+00  0.10917476277E+02  0.10917476277E+02  0.00000000000E+00 0. -1.
          4   -1    0    0  502    0 -0.00000000000E+00 -0.00000000000E+00 -0.54491632562E+03  0.54491780557E+03  0.12700000000E+01 0. -1.
         25    2    1    2    0    0  0.67301955638E+01  0.25592802649E+02 -0.44041923481E+03  0.45857766396E+03  0.12499633762E+03 0.  0.
    9000005    1    3    3    0    0  0.54183952313E+02  0.50242545404E+02 -0.23776921791E+03  0.24898878497E+03  0.10000000000E+01 0.  0.
    9000005    1    3    3    0    0 -0.47453756749E+02 -0.24649742755E+02 -0.20265001690E+03  0.20958887899E+03  0.10000000000E+01 0.  0.
          4    1    1    2  501    0 -0.67301955638E+01 -0.25592802649E+02 -0.93579614533E+02  0.97257617881E+02  0.12700000000E+01 0.  1.
<mgrwt>
<rscale>  1 0.12776686E+03</rscale>
<asrwt>0</asrwt>
<pdfrwt beam="1">  1       21 0.16796120E-02 0.12776686E+03</pdfrwt>
<pdfrwt beam="2">  1        4 0.83839062E-01 0.12776686E+03</pdfrwt>
<totfact> 0.83342374E+04</totfact>
</mgrwt>
</event>
<event>
 6    4  0.6325740E-003  0.1517759E+03  0.7818608E-02  0.1198308E+00
          4   -1    0    0  502    0 -0.00000000000E+00  0.00000000000E+00  0.13241651904E+03  0.13242260915E+03  0.12700000000E+01 0. -1.
         21   -1    0    0  501  502  0.00000000000E+00 -0.00000000000E+00 -0.45157957018E+03  0.45157957018E+03  0.00000000000E+00 0.  1.
         25    2    1    2    0    0 -0.52640641929E+02 -0.68080034919E+02  0.82824604506E+02  0.17290411740E+03  0.12501995986E+03 0.  0.
    9000005    1    3    3    0    0 -0.63853291836E+02 -0.98912532975E+02  0.73447513397E+02  0.13876768097E+03  0.10000000000E+01 0.  0.
    9000005    1    3    3    0    0  0.11212649907E+02  0.30832498056E+02  0.93770911090E+01  0.34136436427E+02  0.10000000000E+01 0.  0.
          4    1    1    2  501    0  0.52640641929E+02  0.68080034919E+02 -0.40198765565E+03  0.41109806194E+03  0.12700000000E+01 0.  1.
<mgrwt>
<rscale>  1 0.15177588E+03</rscale>
<asrwt>0</asrwt>
<pdfrwt beam="2">  1       21 0.69473780E-01 0.15177588E+03</pdfrwt>
<pdfrwt beam="1">  1        4 0.20372378E-01 0.15177588E+03</pdfrwt>
<totfact> 0.17213702E+03</totfact>
</mgrwt>
</event>
<event>
 6    4  0.6325740E-003  0.1326704E+03  0.7818608E-02  0.1223546E+00
         21   -1    0    0  501  502  0.00000000000E+00  0.00000000000E+00  0.57790692865E+02  0.57790692865E+02  0.00000000000E+00 0. -1.
         -4   -1    0    0    0  501 -0.00000000000E+00 -0.00000000000E+00 -0.38594293778E+03  0.38594502733E+03  0.12700000000E+01 0. -1.
         25    2    1    2    0    0 -0.35347605175E+02  0.26976841035E+02 -0.36347654780E+03  0.38693235394E+03  0.12499697027E+03 0.  0.
    9000005    1    3    3    0    0 -0.37237449901E+02  0.75451577887E+02 -0.22940225983E+03  0.24434804091E+03  0.10000000000E+01 0.  0.
    9000005    1    3    3    0    0  0.18898447262E+01 -0.48474736852E+02 -0.13407428798E+03  0.14258431303E+03  0.10000000000E+01 0.  0.
         -4    1    1    2    0  502  0.35347605175E+02 -0.26976841035E+02  0.35324302889E+02  0.56803366260E+02  0.12700000000E+01 0.  1.
<mgrwt>
<rscale>  1 0.13267044E+03</rscale>
<asrwt>0</asrwt>
<pdfrwt beam="1">  1       21 0.88908759E-02 0.13267044E+03</pdfrwt>
<pdfrwt beam="2">  1       -4 0.59377071E-01 0.13267044E+03</pdfrwt>
<totfact> 0.11045821E+04</totfact>
</mgrwt>
</event>
<event>
 6    4  0.6325740E-003  0.1439915E+03  0.7818608E-02  0.1208057E+00
         21   -1    0    0  501  502  0.00000000000E+00  0.00000000000E+00  0.15291927491E+03  0.15291927491E+03  0.00000000000E+00 0. -1.
          4   -1    0    0  502    0 -0.00000000000E+00 -0.00000000000E+00 -0.11604404860E+03  0.11605099791E+03  0.12700000000E+01 0. -1.
         25    2    1    2    0    0 -0.44340189217E+02 -0.56058036578E+02 -0.53616014435E+02  0.15364970485E+03  0.12499999581E+03 0.  0.
    9000005    1    3    3    0    0  0.63776178625E+00 -0.83609383245E+02 -0.81645336931E+01  0.84015446896E+02  0.10000000000E+01 0.  0.
    9000005    1    3    3    0    0 -0.44977951003E+02  0.27551346667E+02 -0.45451480742E+02  0.69634257957E+02  0.10000000000E+01 0.  0.
          4    1    1    2  501    0  0.44340189217E+02  0.56058036578E+02  0.90491240749E+02  0.11532056797E+03  0.12700000000E+01 0.  1.
<mgrwt>
<rscale>  1 0.14399151E+03</rscale>
<asrwt>0</asrwt>
<pdfrwt beam="1">  1       21 0.23526042E-01 0.14399151E+03</pdfrwt>
<pdfrwt beam="2">  1        4 0.17853871E-01 0.14399151E+03</pdfrwt>
<totfact> 0.19327127E+04</totfact>
</mgrwt>
</event>
<event>
 6    4  0.6325740E-003  0.1278943E+03  0.7818608E-02  0.1230614E+00
         -4   -1    0    0    0  501 -0.00000000000E+00  0.00000000000E+00  0.30957988354E+03  0.30958248851E+03  0.12700000000E+01 0.  1.
         21   -1    0    0  501  502  0.00000000000E+00 -0.00000000000E+00 -0.25187390675E+02  0.25187390675E+02  0.00000000000E+00 0.  1.
         25    2    1    2    0    0  0.25592281156E+02 -0.87560926672E+01  0.27933734331E+03  0.30722352823E+03  0.12500124368E+03 0.  0.
    9000005    1    3    3    0    0 -0.18800550725E+02 -0.41051011041E+02  0.35961479772E+02  0.57731050939E+02  0.10000000000E+01 0.  0.
    9000005    1    3    3    0    0  0.44392831882E+02  0.32294918374E+02  0.24337586354E+03  0.24949247730E+03  0.10000000000E+01 0.  0.
         -4    1    1    2    0  502 -0.25592281156E+02  0.87560926672E+01  0.50551495546E+01  0.27546350949E+02  0.12700000000E+01 0. -1.
<mgrwt>
<rscale>  1 0.12789427E+03</rscale>
<asrwt>0</asrwt>
<pdfrwt beam="2">  1       21 0.38749834E-02 0.12789427E+03</pdfrwt>
<pdfrwt beam="1">  1       -4 0.47630335E-01 0.12789427E+03</pdfrwt>
<totfact> 0.70727591E+04</totfact>
</mgrwt>
</event>
<event>
 6    4  0.6325740E-003  0.1556933E+03  0.7818608E-02  0.1193647E+00
          4   -1    0    0  502    0 -0.00000000000E+00  0.00000000000E+00  0.55263323725E+02  0.55277914660E+02  0.12700000000E+01 0. -1.
         21   -1    0    0  501  502  0.00000000000E+00 -0.00000000000E+00 -0.29039329809E+03  0.29039329809E+03  0.00000000000E+00 0.  1.
         25    2    1    2    0    0 -0.92413173596E+02 -0.87022843328E+01 -0.11354374167E+03  0.19269817824E+03  0.12499792885E+03 0.  0.
    9000005    1    3    3    0    0 -0.10969007823E+03  0.22261751052E+02 -0.11019009289E+03  0.15706799608E+03  0.10000000000E+01 0.  0.
    9000005    1    3    3    0    0  0.17276904631E+02 -0.30964035384E+02 -0.33536487862E+01  0.35630182165E+02  0.10000000000E+01 0.  0.
          4    1    1    2  501    0  0.92413173596E+02  0.87022843328E+01 -0.12158623269E+03  0.15297303451E+03  0.12700000000E+01 0.  1.
<mgrwt>
<rscale>  1 0.15569331E+03</rscale>
<asrwt>0</asrwt>
<pdfrwt beam="2">  1       21 0.44675893E-01 0.15569331E+03</pdfrwt>
<pdfrwt beam="1">  1        4 0.85033857E-02 0.15569331E+03</pdfrwt>
<totfact> 0.19875202E+04</totfact>
</mgrwt>
</event>
<event>
 6    4  0.6325740E-003  0.1471976E+03  0.7818608E-02  0.1203959E+00
         21   -1    0    0  501  502  0.00000000000E+00  0.00000000000E+00  0.65154408183E+02  0.65154408183E+02  0.00000000000E+00 0. -1.
          4   -1    0    0  502    0 -0.00000000000E+00 -0.00000000000E+00 -0.27164486060E+03  0.27164782935E+03  0.12700000000E+01 0.  1.
         25    2    1    2    0    0  0.52955343735E+02  0.56920013498E+02 -0.21284785324E+03  0.25878822717E+03  0.12499192585E+03 0.  0.
    9000005    1    3    3    0    0  0.40924675892E+02  0.13500000393E+02 -0.20917671611E+03  0.21357194963E+03  0.10000000000E+01 0.  0.
    9000005    1    3    3    0    0  0.12030667843E+02  0.43420013105E+02 -0.36711371338E+01  0.45216277541E+02  0.10000000000E+01 0.  0.
          4    1    1    2  501    0 -0.52955343735E+02 -0.56920013498E+02  0.63574008285E+01  0.78014010357E+02  0.12700000000E+01 0. -1.
<mgrwt>
<rscale>  1 0.14719762E+03</rscale>
<asrwt>0</asrwt>
<pdfrwt beam="1">  1       21 0.10023755E-01 0.14719762E+03</pdfrwt>
<pdfrwt beam="2">  1        4 0.41792698E-01 0.14719762E+03</pdfrwt>
<totfact> 0.18503426E+04</totfact>
</mgrwt>
</event>
<event>
 6    4  0.6325740E-003  0.1266699E+03  0.7818608E-02  0.1232482E+00
         -4   -1    0    0    0  501 -0.00000000000E+00  0.00000000000E+00  0.38189944147E+03  0.38190155315E+03  0.12700000000E+01 0. -1.
         21   -1    0    0  501  502  0.00000000000E+00 -0.00000000000E+00 -0.14285846040E+02  0.14285846040E+02  0.00000000000E+00 0. -1.
         25    2    1    2    0    0  0.70776660083E+01 -0.19318087061E+02  0.32610425524E+03  0.34984174063E+03  0.12498790485E+03 0.  0.
    9000005    1    3    3    0    0  0.20074423349E+01  0.37026361254E+02  0.26084540649E+03  0.26346974654E+03  0.10000000000E+01 0.  0.
    9000005    1    3    3    0    0  0.50702236733E+01 -0.56344448315E+02  0.65258848746E+02  0.86371994093E+02  0.10000000000E+01 0.  0.
         -4    1    1    2    0  502 -0.70776660083E+01  0.19318087061E+02  0.41509340195E+02  0.46345658559E+02  0.12700000000E+01 0.  1.
<mgrwt>
<rscale>  1 0.12666988E+03</rscale>
<asrwt>0</asrwt>
<pdfrwt beam="2">  1       21 0.21978228E-02 0.12666988E+03</pdfrwt>
<pdfrwt beam="1">  1       -4 0.58758257E-01 0.12666988E+03</pdfrwt>
<totfact> 0.11617275E+05</totfact>
</mgrwt>
</event>
<event>
 6    4  0.6325740E-003  0.1511338E+03  0.7818608E-02  0.1199087E+00
          4   -1    0    0  502    0 -0.00000000000E+00  0.00000000000E+00  0.33529273215E+03  0.33529513735E+03  0.12700000000E+01 0.  1.
         21   -1    0    0  501  502  0.00000000000E+00 -0.00000000000E+00 -0.98754977518E+02  0.98754977518E+02  0.00000000000E+00 0. -1.
         25    2    1    2    0    0  0.55826057097E+02 -0.64020453976E+02  0.29463231185E+03  0.33113384960E+03  0.12500503985E+03 0.  0.
    9000005    1    3    3    0    0  0.52257790840E+02 -0.62568665074E+02  0.72903315153E+02  0.10936913602E+03  0.10000000000E+01 0.  0.
    9000005    1    3    3    0    0  0.35682662570E+01 -0.14517889021E+01  0.22172899669E+03  0.22176471358E+03  0.10000000000E+01 0.  0.
          4    1    1    2  501    0 -0.55826057097E+02  0.64020453976E+02 -0.58094557219E+02  0.10291626527E+03  0.12700000000E+01 0. -1.
<mgrwt>
<rscale>  1 0.15113381E+03</rscale>
<asrwt>0</asrwt>
<pdfrwt beam="2">  1       21 0.15193074E-01 0.15113381E+03</pdfrwt>
<pdfrwt beam="1">  1        4 0.51584310E-01 0.15113381E+03</pdfrwt>
<totfact> 0.57787218E+03</totfact>
</mgrwt>
</event>
<event>
 6    4  0.6325740E-003  0.1267068E+03  0.7818608E-02  0.1232426E+00
         21   -1    0    0  501  502  0.00000000000E+00  0.00000000000E+00  0.32266938559E+03  0.32266938559E+03  0.00000000000E+00 0. -1.
         -4   -1    0    0    0  501 -0.00000000000E+00 -0.00000000000E+00 -0.12687889680E+03  0.12688525270E+03  0.12700000000E+01 0.  1.
         25    2    1    2    0    0 -0.13252816838E+02 -0.16046101237E+02 -0.94782185563E+02  0.15823487155E+03  0.12498598863E+03 0.  0.
    9000005    1    3    3    0    0 -0.23998197820E+02 -0.85166501174E+01 -0.12378787393E+03  0.12638387777E+03  0.10000000000E+01 0.  0.
    9000005    1    3    3    0    0  0.10745380982E+02 -0.75294511199E+01  0.29005688370E+02  0.31850993775E+02  0.10000000000E+01 0.  0.
         -4    1    1    2    0  502  0.13252816838E+02  0.16046101237E+02  0.29057267435E+03  0.29131976675E+03  0.12700000000E+01 0. -1.
<mgrwt>
<rscale>  1 0.12670679E+03</rscale>
<asrwt>0</asrwt>
<pdfrwt beam="1">  1       21 0.49641444E-01 0.12670679E+03</pdfrwt>
<pdfrwt beam="2">  1       -4 0.19520512E-01 0.12670679E+03</pdfrwt>
<totfact> 0.37646228E+03</totfact>
</mgrwt>
</event>
<event>
 6    4  0.6325740E-003  0.1316936E+03  0.7818608E-02  0.1224964E+00
          4   -1    0    0  502    0 -0.00000000000E+00  0.00000000000E+00  0.44326079906E+03  0.44326261841E+03  0.12700000000E+01 0. -1.
         21   -1    0    0  501  502  0.00000000000E+00 -0.00000000000E+00 -0.16952181847E+02  0.16952181847E+02  0.00000000000E+00 0. -1.
         25    2    1    2    0    0 -0.35140198270E+02 -0.21974531126E+02  0.31414569880E+03  0.34063283373E+03  0.12500197514E+03 0.  0.
    9000005    1    3    3    0    0 -0.39628119052E+02 -0.10380129038E+02  0.18903597133E+02  0.45127385067E+02  0.10000000000E+01 0.  0.
    9000005    1    3    3    0    0  0.44879207820E+01 -0.11594402088E+02  0.29524210167E+03  0.29550544866E+03  0.10000000000E+01 0.  0.
          4    1    1    2  501    0  0.35140198270E+02  0.21974531126E+02  0.11216291841E+03  0.11958196653E+03  0.12700000000E+01 0.  1.
<mgrwt>
<rscale>  1 0.13169361E+03</rscale>
<asrwt>0</asrwt>
<pdfrwt beam="2">  1       21 0.26080283E-02 0.13169361E+03</pdfrwt>
<pdfrwt beam="1">  1        4 0.68197760E-01 0.13169361E+03</pdfrwt>
<totfact> 0.64542057E+04</totfact>
</mgrwt>
</event>
<event>
 6    4  0.6325740E-003  0.1338307E+03  0.7818608E-02  0.1221880E+00
          4   -1    0    0  502    0 -0.00000000000E+00  0.00000000000E+00  0.12750533774E+04  0.12750540099E+04  0.12700000000E+01 0. -1.
         21   -1    0    0  501  502  0.00000000000E+00 -0.00000000000E+00 -0.18307376804E+02  0.18307376804E+02  0.00000000000E+00 0.  1.
         25    2    1    2    0    0  0.34687844256E+02 -0.32893646687E+02  0.12325005102E+04  0.12397452022E+04  0.12500168090E+03 0.  0.
    9000005    1    3    3    0    0  0.56442790457E+02 -0.63354619078E+02  0.58038404743E+03  0.58655454892E+03  0.10000000000E+01 0.  0.
    9000005    1    3    3    0    0 -0.21754946201E+02  0.30460972392E+02  0.65211646280E+03  0.65319065331E+03  0.10000000000E+01 0.  0.
          4    1    1    2  501    0 -0.34687844256E+02  0.32893646687E+02  0.24245490365E+02  0.53616184446E+02  0.12700000000E+01 0.  1.
<mgrwt>
<rscale>  1 0.13383071E+03</rscale>
<asrwt>0</asrwt>
<pdfrwt beam="2">  1       21 0.28165205E-02 0.13383071E+03</pdfrwt>
<pdfrwt beam="1">  1        4 0.19616543E+00 0.13383071E+03</pdfrwt>
<totfact> 0.44540589E+03</totfact>
</mgrwt>
</event>
<event>
 6    4  0.6325740E-003  0.1271675E+03  0.7818608E-02  0.1231720E+00
         21   -1    0    0  501  502  0.00000000000E+00  0.00000000000E+00  0.79025778290E+02  0.79025778290E+02  0.00000000000E+00 0.  1.
         -4   -1    0    0    0  501 -0.00000000000E+00 -0.00000000000E+00 -0.20748296592E+03  0.20748685271E+03  0.12700000000E+01 0. -1.
         25    2    1    2    0    0 -0.23091407300E+02  0.31037786747E+01 -0.18548737850E+03  0.22489362335E+03  0.12501490995E+03 0.  0.
    9000005    1    3    3    0    0  0.13236934038E+02  0.32784452250E+02 -0.17266570675E+03  0.17625119296E+03  0.10000000000E+01 0.  0.
    9000005    1    3    3    0    0 -0.36328341338E+02 -0.29680673575E+02 -0.12821671748E+02  0.48642430395E+02  0.10000000000E+01 0.  0.
         -4    1    1    2    0  502  0.23091407300E+02 -0.31037786747E+01  0.57030190866E+02  0.61619007647E+02  0.12700000000E+01 0.  1.
<mgrwt>
<rscale>  1 0.12716750E+03</rscale>
<asrwt>0</asrwt>
<pdfrwt beam="1">  1       21 0.12157812E-01 0.12716750E+03</pdfrwt>
<pdfrwt beam="2">  1       -4 0.31921540E-01 0.12716750E+03</pdfrwt>
<totfact> 0.21890595E+04</totfact>
</mgrwt>
</event>
<event>
 6    4  0.6325740E-003  0.1267677E+03  0.7818608E-02  0.1232332E+00
         21   -1    0    0  501  502  0.00000000000E+00  0.00000000000E+00  0.97014878755E+02  0.97014878755E+02  0.00000000000E+00 0.  1.
          4   -1    0    0  502    0 -0.00000000000E+00 -0.00000000000E+00 -0.14997278655E+03  0.14997816376E+03  0.12700000000E+01 0. -1.
         25    2    1    2    0    0 -0.51708365695E+01 -0.20434807022E+02 -0.12130600349E+03  0.17545707972E+03  0.12500288577E+03 0.  0.
    9000005    1    3    3    0    0  0.24356688286E+02 -0.44236402632E+02 -0.23121200087E+01  0.50561383299E+02  0.10000000000E+01 0.  0.
    9000005    1    3    3    0    0 -0.29527524856E+02  0.23801595610E+02 -0.11899388348E+03  0.12489569642E+03  0.10000000000E+01 0.  0.
          4    1    1    2  501    0  0.51708365695E+01  0.20434807022E+02  0.68348095694E+02  0.71535962801E+02  0.12700000000E+01 0.  1.
<mgrwt>
<rscale>  1 0.12676766E+03</rscale>
<asrwt>0</asrwt>
<pdfrwt beam="1">  1       21 0.14925366E-01 0.12676766E+03</pdfrwt>
<pdfrwt beam="2">  1        4 0.23073789E-01 0.12676766E+03</pdfrwt>
<totfact> 0.27772419E+04</totfact>
</mgrwt>
</event>
<event>
 6    4  0.6325740E-003  0.1489682E+03  0.7818608E-02  0.1201747E+00
          4   -1    0    0  502    0 -0.00000000000E+00  0.00000000000E+00  0.47342393503E+03  0.47342563847E+03  0.12700000000E+01 0. -1.
         21   -1    0    0  501  502  0.00000000000E+00 -0.00000000000E+00 -0.46277590459E+02  0.46277590459E+02  0.00000000000E+00 0.  1.
         25    2    1    2    0    0  0.45986097273E+02  0.66714152754E+02  0.41087693111E+03  0.43704848899E+03  0.12500411950E+03 0.  0.
    9000005    1    3    3    0    0  0.74053459521E+02  0.15875212612E+02  0.13199608593E+03  0.15218378344E+03  0.10000000000E+01 0.  0.
    9000005    1    3    3    0    0 -0.28067362249E+02  0.50838940142E+02  0.27888084518E+03  0.28486470555E+03  0.10000000000E+01 0.  0.
          4    1    1    2  501    0 -0.45986097273E+02 -0.66714152754E+02  0.16269413466E+02  0.82654739940E+02  0.12700000000E+01 0.  1.
<mgrwt>
<rscale>  1 0.14896822E+03</rscale>
<asrwt>0</asrwt>
<pdfrwt beam="2">  1       21 0.71196296E-02 0.14896822E+03</pdfrwt>
<pdfrwt beam="1">  1        4 0.72835920E-01 0.14896822E+03</pdfrwt>
<totfact> 0.10587423E+04</totfact>
</mgrwt>
</event>
<event>
 6    4  0.6325740E-003  0.1284557E+03  0.7818608E-02  0.1229765E+00
         -4   -1    0    0    0  501 -0.00000000000E+00  0.00000000000E+00  0.82775539566E+02  0.82785281606E+02  0.12700000000E+01 0. -1.
         21   -1    0    0  501  502  0.00000000000E+00 -0.00000000000E+00 -0.78107668506E+02  0.78107668506E+02  0.00000000000E+00 0. -1.
         25    2    1    2    0    0  0.28641883351E+02 -0.74218478645E+01 -0.79509182658E+01  0.12870152188E+03  0.12500169329E+03 0.  0.
    9000005    1    3    3    0    0 -0.80045043933E+01  0.49605089736E+02 -0.28609949409E+02  0.57829631016E+02  0.10000000000E+01 0.  0.
    9000005    1    3    3    0    0  0.36646387744E+02 -0.57026937601E+02  0.20659031143E+02  0.70871890863E+02  0.10000000000E+01 0.  0.
         -4    1    1    2    0  502 -0.28641883351E+02  0.74218478645E+01  0.12618789326E+02  0.32191428232E+02  0.12700000000E+01 0.  1.
<mgrwt>
<rscale>  1 0.12845569E+03</rscale>
<asrwt>0</asrwt>
<pdfrwt beam="2">  1       21 0.12016564E-01 0.12845569E+03</pdfrwt>
<pdfrwt beam="1">  1       -4 0.12736242E-01 0.12845569E+03</pdfrwt>
<totfact> 0.11721271E+05</totfact>
</mgrwt>
</event>
<event>
 6    4  0.6325740E-003  0.1277268E+03  0.7818608E-02  0.1230868E+00
          4   -1    0    0  502    0 -0.00000000000E+00  0.00000000000E+00  0.38572650717E+02  0.38593552354E+02  0.12700000000E+01 0. -1.
         21   -1    0    0  501  502  0.00000000000E+00 -0.00000000000E+00 -0.21524210606E+03  0.21524210606E+03  0.00000000000E+00 0.  1.
         25    2    1    2    0    0 -0.20397151576E+02  0.16538472415E+02 -0.73490654189E+02  0.14736010831E+03  0.12499824161E+03 0.  0.
    9000005    1    3    3    0    0 -0.17197226908E+02  0.71046490466E+02 -0.43008536220E+02  0.84817938012E+02  0.10000000000E+01 0.  0.
    9000005    1    3    3    0    0 -0.31999246678E+01 -0.54508018051E+02 -0.30482117969E+02  0.62542170299E+02  0.10000000000E+01 0.  0.
          4    1    1    2  501    0  0.20397151576E+02 -0.16538472415E+02 -0.10317880116E+03  0.10647555011E+03  0.12700000000E+01 0.  1.
<mgrwt>
<rscale>  1 0.12772676E+03</rscale>
<asrwt>0</asrwt>
<pdfrwt beam="2">  1       21 0.33114170E-01 0.12772676E+03</pdfrwt>
<pdfrwt beam="1">  1        4 0.59361501E-02 0.12772676E+03</pdfrwt>
<totfact> 0.63927801E+04</totfact>
</mgrwt>
</event>
<event>
 6    4  0.6325740E-003  0.1340859E+03  0.7818608E-02  0.1221516E+00
          4   -1    0    0  502    0 -0.00000000000E+00  0.00000000000E+00  0.17531935692E+03  0.17532395675E+03  0.12700000000E+01 0. -1.
         21   -1    0    0  501  502  0.00000000000E+00 -0.00000000000E+00 -0.61416533009E+02  0.61416533009E+02  0.00000000000E+00 0.  1.
         25    2    1    2    0    0  0.12086783588E+02 -0.46966474726E+02  0.12886617219E+03  0.18597185005E+03  0.12500839408E+03 0.  0.
    9000005    1    3    3    0    0 -0.22124006115E+02 -0.74436824445E+02  0.41150678272E+02  0.87890220174E+02  0.10000000000E+01 0.  0.
    9000005    1    3    3    0    0  0.34210789703E+02  0.27470349719E+02  0.87715493921E+02  0.98081629878E+02  0.10000000000E+01 0.  0.
          4    1    1    2  501    0 -0.12086783588E+02  0.46966474726E+02 -0.14963348284E+02  0.50768639706E+02  0.12700000000E+01 0.  1.
<mgrwt>
<rscale>  1 0.13408594E+03</rscale>
<asrwt>0</asrwt>
<pdfrwt beam="2">  1       21 0.94486975E-02 0.13408594E+03</pdfrwt>
<pdfrwt beam="1">  1        4 0.26973572E-01 0.13408594E+03</pdfrwt>
<totfact> 0.47115867E+04</totfact>
</mgrwt>
</event>
<event>
 6    4  0.6325740E-003  0.1735035E+03  0.7818608E-02  0.1174243E+00
         21   -1    0    0  501  502  0.00000000000E+00  0.00000000000E+00  0.71202202528E+03  0.71202202528E+03  0.00000000000E+00 0. -1.
          4   -1    0    0  502    0 -0.00000000000E+00 -0.00000000000E+00 -0.75985228359E+02  0.75995840865E+02  0.12700000000E+01 0.  1.
         25    2    1    2    0    0 -0.34307142284E+02 -0.11533646963E+03  0.37507654857E+02  0.17751133216E+03  0.12499587046E+03 0.  0.
    9000005    1    3    3    0    0 -0.57038153876E+02 -0.12945891502E+03  0.14511376443E+02  0.14221301531E+03  0.10000000000E+01 0.  0.
    9000005    1    3    3    0    0  0.22731011592E+02  0.14122445388E+02  0.22996278414E+02  0.35298316853E+02  0.10000000000E+01 0.  0.
          4    1    1    2  501    0  0.34307142284E+02  0.11533646963E+03  0.59852914207E+03  0.61050653399E+03  0.12700000000E+01 0. -1.
<mgrwt>
<rscale>  1 0.17350345E+03</rscale>
<asrwt>0</asrwt>
<pdfrwt beam="1">  1       21 0.10954185E+00 0.17350345E+03</pdfrwt>
<pdfrwt beam="2">  1        4 0.11690939E-01 0.17350345E+03</pdfrwt>
<totfact> 0.16124697E+03</totfact>
</mgrwt>
</event>
<event>
 6    4  0.6325740E-003  0.1290303E+03  0.7818608E-02  0.1228902E+00
          4   -1    0    0  502    0 -0.00000000000E+00  0.00000000000E+00  0.19268460535E+03  0.19268879064E+03  0.12700000000E+01 0. -1.
         21   -1    0    0  501  502  0.00000000000E+00 -0.00000000000E+00 -0.21842485360E+03  0.21842485360E+03  0.00000000000E+00 0.  1.
         25    2    1    2    0    0 -0.15579254506E+02 -0.27942251598E+02  0.16963574756E+03  0.21313163689E+03  0.12500130079E+03 0.  0.
    9000005    1    3    3    0    0 -0.11350955639E+02  0.35814842602E+02  0.13563223982E+03  0.14074321164E+03  0.10000000000E+01 0.  0.
    9000005    1    3    3    0    0 -0.42282988667E+01 -0.63757094200E+02  0.34003507743E+02  0.72388425255E+02  0.10000000000E+01 0.  0.
          4    1    1    2  501    0  0.15579254506E+02  0.27942251598E+02 -0.19537599581E+03  0.19798200735E+03  0.12700000000E+01 0.  1.
<mgrwt>
<rscale>  1 0.12903026E+03</rscale>
<asrwt>0</asrwt>
<pdfrwt beam="2">  1       21 0.33603824E-01 0.12903026E+03</pdfrwt>
<pdfrwt beam="1">  1        4 0.29644391E-01 0.12903026E+03</pdfrwt>
<totfact> 0.38262563E+03</totfact>
</mgrwt>
</event>
<event>
 6    4  0.6325740E-003  0.1405401E+03  0.7818608E-02  0.1212604E+00
         21   -1    0    0  501  502  0.00000000000E+00  0.00000000000E+00  0.42147866530E+03  0.42147866530E+03  0.00000000000E+00 0.  1.
         -4   -1    0    0    0  501 -0.00000000000E+00 -0.00000000000E+00 -0.24985092699E+02  0.25017349123E+02  0.12700000000E+01 0. -1.
         25    2    1    2    0    0  0.64057800618E+02 -0.45722474336E+01  0.28668911408E+03  0.31928383231E+03  0.12500884039E+03 0.  0.
    9000005    1    3    3    0    0  0.94982925691E+02  0.73838083038E+00  0.26394283320E+03  0.28051581163E+03  0.10000000000E+01 0.  0.
    9000005    1    3    3    0    0 -0.30925125073E+02 -0.53106282640E+01  0.22746280880E+02  0.38768020677E+02  0.10000000000E+01 0.  0.
         -4    1    1    2    0  502 -0.64057800618E+02  0.45722474336E+01  0.10980445853E+03  0.12721218212E+03  0.12700000000E+01 0.  1.
<mgrwt>
<rscale>  1 0.14054009E+03</rscale>
<asrwt>0</asrwt>
<pdfrwt beam="1">  1       21 0.64842867E-01 0.14054009E+03</pdfrwt>
<pdfrwt beam="2">  1       -4 0.38464892E-02 0.14054009E+03</pdfrwt>
<totfact> 0.32743490E+04</totfact>
</mgrwt>
</event>
<event>
 6    4  0.6325740E-003  0.1299088E+03  0.7818608E-02  0.1227591E+00
         21   -1    0    0  501  502  0.00000000000E+00  0.00000000000E+00  0.11883819709E+03  0.11883819709E+03  0.00000000000E+00 0.  1.
         -4   -1    0    0    0  501 -0.00000000000E+00 -0.00000000000E+00 -0.69686984868E+02  0.69698556369E+02  0.12700000000E+01 0.  1.
         25    2    1    2    0    0  0.20705837806E+02 -0.28641809696E+02  0.24190549855E+01  0.12993135779E+03  0.12500888339E+03 0.  0.
    9000005    1    3    3    0    0  0.62981005872E+02  0.47009225281E+01 -0.26857124219E+02  0.68636804228E+02  0.10000000000E+01 0.  0.
    9000005    1    3    3    0    0 -0.42275168066E+02 -0.33342732224E+02  0.29276179205E+02  0.61294553559E+02  0.10000000000E+01 0.  0.
         -4    1    1    2    0  502 -0.20705837806E+02  0.28641809696E+02  0.46732157238E+02  0.58605395673E+02  0.12700000000E+01 0. -1.
<mgrwt>
<rscale>  1 0.12990884E+03</rscale>
<asrwt>0</asrwt>
<pdfrwt beam="1">  1       21 0.18282799E-01 0.12990884E+03</pdfrwt>
<pdfrwt beam="2">  1       -4 0.10722487E-01 0.12990884E+03</pdfrwt>
<totfact> 0.73915744E+04</totfact>
</mgrwt>
</event>
<event>
 6    4  0.6325740E-003  0.1318048E+03  0.7818608E-02  0.1224802E+00
         21   -1    0    0  501  502  0.00000000000E+00  0.00000000000E+00  0.42656118862E+03  0.42656118862E+03  0.00000000000E+00 0. -1.
         -4   -1    0    0    0  501 -0.00000000000E+00 -0.00000000000E+00 -0.36046344617E+02  0.36068710266E+02  0.12700000000E+01 0.  1.
         25    2    1    2    0    0  0.19985887606E+02 -0.36722929616E+02  0.90902245265E+02  0.16011158293E+03  0.12499796611E+03 0.  0.
    9000005    1    3    3    0    0 -0.37548332938E+02 -0.51350013873E+01  0.86356332328E+02  0.94311514031E+02  0.10000000000E+01 0.  0.
    9000005    1    3    3    0    0  0.57534220544E+02 -0.31587928229E+02  0.45459129374E+01  0.65800068904E+02  0.10000000000E+01 0.  0.
         -4    1    1    2    0  502 -0.19985887606E+02  0.36722929616E+02  0.29961259874E+03  0.30251831595E+03  0.12700000000E+01 0. -1.
<mgrwt>
<rscale>  1 0.13180478E+03</rscale>
<asrwt>0</asrwt>
<pdfrwt beam="1">  1       21 0.65624795E-01 0.13180478E+03</pdfrwt>
<pdfrwt beam="2">  1       -4 0.55474576E-02 0.13180478E+03</pdfrwt>
<totfact> 0.17656353E+04</totfact>
</mgrwt>
</event>
<event>
 6    4  0.6325740E-003  0.1267760E+03  0.7818608E-02  0.1232320E+00
         21   -1    0    0  501  502  0.00000000000E+00  0.00000000000E+00  0.61758551274E+02  0.61758551274E+02  0.00000000000E+00 0. -1.
         -4   -1    0    0    0  501 -0.00000000000E+00 -0.00000000000E+00 -0.88600013667E+02  0.88609115342E+02  0.12700000000E+01 0. -1.
         25    2    1    2    0    0  0.20355779986E+02  0.56972476553E+01 -0.22868541866E+02  0.12882205437E+03  0.12500134029E+03 0.  0.
    9000005    1    3    3    0    0 -0.21325258991E+02 -0.51630975722E+02 -0.89636183530E+01  0.56585075585E+02  0.10000000000E+01 0.  0.
    9000005    1    3    3    0    0  0.41681038976E+02  0.57328223377E+02 -0.13904923513E+02  0.72236978782E+02  0.10000000000E+01 0.  0.
         -4    1    1    2    0  502 -0.20355779986E+02 -0.56972476553E+01 -0.39729205269E+01  0.21545612249E+02  0.12700000000E+01 0.  1.
<mgrwt>
<rscale>  1 0.12677599E+03</rscale>
<asrwt>0</asrwt>
<pdfrwt beam="1">  1       21 0.95013156E-02 0.12677599E+03</pdfrwt>
<pdfrwt beam="2">  1       -4 0.13632476E-01 0.12677599E+03</pdfrwt>
<totfact> 0.15719286E+05</totfact>
</mgrwt>
</event>
<event>
 6    4  0.6325740E-003  0.1270164E+03  0.7818608E-02  0.1231951E+00
          4   -1    0    0  502    0 -0.00000000000E+00  0.00000000000E+00  0.82020463491E+02  0.82030295204E+02  0.12700000000E+01 0. -1.
         21   -1    0    0  501  502  0.00000000000E+00 -0.00000000000E+00 -0.80672159174E+02  0.80672159174E+02  0.00000000000E+00 0. -1.
         25    2    1    2    0    0 -0.22466545490E+02 -0.18025827217E+01  0.25599494764E+02  0.12957047423E+03  0.12500071475E+03 0.  0.
    9000005    1    3    3    0    0  0.43316915047E+02  0.15997844505E+02  0.38589958240E+02  0.60186967318E+02  0.10000000000E+01 0.  0.
    9000005    1    3    3    0    0 -0.65783460536E+02 -0.17800427226E+02 -0.12990463477E+02  0.69383506908E+02  0.10000000000E+01 0.  0.
          4    1    1    2  501    0  0.22466545490E+02  0.18025827217E+01 -0.24251190447E+02  0.33131980152E+02  0.12700000000E+01 0.  1.
<mgrwt>
<rscale>  1 0.12701643E+03</rscale>
<asrwt>0</asrwt>
<pdfrwt beam="2">  1       21 0.12411101E-01 0.12701643E+03</pdfrwt>
<pdfrwt beam="1">  1        4 0.12620058E-01 0.12701643E+03</pdfrwt>
<totfact> 0.11225853E+05</totfact>
</mgrwt>
</event>
<event>
 6    4  0.6325740E-003  0.1275295E+03  0.7818608E-02  0.1231168E+00
         21   -1    0    0  501  502  0.00000000000E+00  0.00000000000E+00  0.22723400309E+03  0.22723400309E+03  0.00000000000E+00 0. -1.
         -4   -1    0    0    0  501 -0.00000000000E+00 -0.00000000000E+00 -0.40394554252E+02  0.40414513645E+02  0.12700000000E+01 0.  1.
         25    2    1    2    0    0 -0.19540251336E+02  0.16036149072E+02  0.64868678068E+02  0.14307941414E+03  0.12499917542E+03 0.  0.
    9000005    1    3    3    0    0 -0.51791832056E+02 -0.26397102203E+02  0.68259577418E+02  0.89663653627E+02  0.10000000000E+01 0.  0.
    9000005    1    3    3    0    0  0.32251580721E+02  0.42433251275E+02 -0.33908993497E+01  0.53415760512E+02  0.10000000000E+01 0.  0.
         -4    1    1    2    0  502  0.19540251336E+02 -0.16036149072E+02  0.12197077077E+03  0.12456910260E+03  0.12700000000E+01 0. -1.
<mgrwt>
<rscale>  1 0.12752950E+03</rscale>
<asrwt>0</asrwt>
<pdfrwt beam="1">  1       21 0.34959077E-01 0.12752950E+03</pdfrwt>
<pdfrwt beam="2">  1       -4 0.62163553E-02 0.12752950E+03</pdfrwt>
<totfact> 0.53332542E+04</totfact>
</mgrwt>
</event>
<event>
 6    4  0.6325740E-003  0.1273462E+03  0.7818608E-02  0.1231447E+00
          4   -1    0    0  502    0 -0.00000000000E+00  0.00000000000E+00  0.99707173881E+03  0.99707254763E+03  0.12700000000E+01 0.  1.
         21   -1    0    0  501  502  0.00000000000E+00 -0.00000000000E+00 -0.67059685864E+01  0.67059685864E+01  0.00000000000E+00 0.  1.
         25    2    1    2    0    0 -0.22704897390E+02  0.87800337294E+01  0.92997456844E+03  0.93865316393E+03  0.12499785137E+03 0.  0.
    9000005    1    3    3    0    0 -0.34699972287E+01  0.57200779722E+02  0.72117967566E+03  0.72345358846E+03  0.10000000000E+01 0.  0.
    9000005    1    3    3    0    0 -0.19234900161E+02 -0.48420745993E+02  0.20879489278E+03  0.21519957546E+03  0.10000000000E+01 0.  0.
          4    1    1    2  501    0  0.22704897390E+02 -0.87800337294E+01  0.60391201784E+02  0.65125352288E+02  0.12700000000E+01 0. -1.
<mgrwt>
<rscale>  1 0.12734624E+03</rscale>
<asrwt>0</asrwt>
<pdfrwt beam="2">  1       21 0.10316883E-02 0.12734624E+03</pdfrwt>
<pdfrwt beam="1">  1        4 0.15340485E+00 0.12734624E+03</pdfrwt>
<totfact> 0.43007411E+04</totfact>
</mgrwt>
</event>
<event>
 6    4  0.6325740E-003  0.1274186E+03  0.7818608E-02  0.1231337E+00
         21   -1    0    0  501  502  0.00000000000E+00  0.00000000000E+00  0.10039944070E+03  0.10039944070E+03  0.00000000000E+00 0.  1.
         -4   -1    0    0    0  501 -0.00000000000E+00 -0.00000000000E+00 -0.79041698288E+02  0.79051900472E+02  0.12700000000E+01 0. -1.
         25    2    1    2    0    0  0.95537854035E+01  0.22788769968E+02 -0.22217696127E+02  0.12934111671E+03  0.12499958239E+03 0.  0.
    9000005    1    3    3    0    0  0.43039340517E+02  0.36502065409E+02  0.31444846646E+02  0.64610865896E+02  0.10000000000E+01 0.  0.
    9000005    1    3    3    0    0 -0.33485555114E+02 -0.13713295441E+02 -0.53662542773E+02  0.64730250810E+02  0.10000000000E+01 0.  0.
         -4    1    1    2    0  502 -0.95537854035E+01 -0.22788769968E+02  0.43575438535E+02  0.50110224463E+02  0.12700000000E+01 0.  1.
<mgrwt>
<rscale>  1 0.12741860E+03</rscale>
<asrwt>0</asrwt>
<pdfrwt beam="1">  1       21 0.15446068E-01 0.12741860E+03</pdfrwt>
<pdfrwt beam="2">  1       -4 0.12161664E-01 0.12741860E+03</pdfrwt>
<totfact> 0.80871903E+04</totfact>
</mgrwt>
</event>
<event>
 6    4  0.6325740E-003  0.1282127E+03  0.7818608E-02  0.1230132E+00
         21   -1    0    0  501  502  0.00000000000E+00  0.00000000000E+00  0.24136231666E+02  0.24136231666E+02  0.00000000000E+00 0.  1.
         -4   -1    0    0    0  501 -0.00000000000E+00 -0.00000000000E+00 -0.47811769875E+03  0.47811938546E+03  0.12700000000E+01 0.  1.
         25    2    1    2    0    0 -0.18050365199E+02 -0.22093271144E+02 -0.45594656435E+03  0.47363040410E+03  0.12499824732E+03 0.  0.
    9000005    1    3    3    0    0 -0.32489099098E+01 -0.73782122827E+02 -0.24136729605E+03  0.25241538912E+03  0.10000000000E+01 0.  0.
    9000005    1    3    3    0    0 -0.14801455289E+02  0.51688851682E+02 -0.21457926830E+03  0.22121501497E+03  0.10000000000E+01 0.  0.
         -4    1    1    2    0  502  0.18050365199E+02  0.22093271144E+02  0.19650972673E+01  0.28625213029E+02  0.12700000000E+01 0. -1.
<mgrwt>
<rscale>  1 0.12821268E+03</rscale>
<asrwt>0</asrwt>
<pdfrwt beam="1">  1       21 0.37132664E-02 0.12821268E+03</pdfrwt>
<pdfrwt beam="2">  1       -4 0.73559268E-01 0.12821268E+03</pdfrwt>
<totfact> 0.30563435E+04</totfact>
</mgrwt>
</event>
<event>
 6    4  0.6325740E-003  0.1267501E+03  0.7818608E-02  0.1232359E+00
         21   -1    0    0  501  502  0.00000000000E+00  0.00000000000E+00  0.67403945048E+02  0.67403945048E+02  0.00000000000E+00 0.  1.
          4   -1    0    0  502    0 -0.00000000000E+00 -0.00000000000E+00 -0.88457937431E+02  0.88467053724E+02  0.12700000000E+01 0.  1.
         25    2    1    2    0    0  0.20951978437E+02 -0.12867002296E+01 -0.91499608108E+00  0.12675342556E+03  0.12499981070E+03 0.  0.
    9000005    1    3    3    0    0  0.35422819493E+02  0.29701992990E+02  0.48266750402E+02  0.66840584399E+02  0.10000000000E+01 0.  0.
    9000005    1    3    3    0    0 -0.14470841056E+02 -0.30988693219E+02 -0.49181746484E+02  0.59912841157E+02  0.10000000000E+01 0.  0.
          4    1    1    2  501    0 -0.20951978437E+02  0.12867002296E+01 -0.20138996302E+02  0.29117573215E+02  0.12700000000E+01 0. -1.
<mgrwt>
<rscale>  1 0.12675012E+03</rscale>
<asrwt>0</asrwt>
<pdfrwt beam="1">  1       21 0.10369838E-01 0.12675012E+03</pdfrwt>
<pdfrwt beam="2">  1        4 0.13610535E-01 0.12675012E+03</pdfrwt>
<totfact> 0.13528020E+05</totfact>
</mgrwt>
</event>
<event>
 6    4  0.6325740E-003  0.1278985E+03  0.7818608E-02  0.1230608E+00
         -4   -1    0    0    0  501 -0.00000000000E+00  0.00000000000E+00  0.27533587418E+02  0.27562861537E+02  0.12700000000E+01 0.  1.
         21   -1    0    0  501  502  0.00000000000E+00 -0.00000000000E+00 -0.22306755104E+03  0.22306755104E+03  0.00000000000E+00 0.  1.
         25    2    1    2    0    0  0.24998643044E+02 -0.10332720101E+02 -0.14537429968E+03  0.19362776312E+03  0.12500530542E+03 0.  0.
    9000005    1    3    3    0    0 -0.45296742446E+02  0.97785019508E+01 -0.92265781028E+02  0.10325399908E+03  0.10000000000E+01 0.  0.
    9000005    1    3    3    0    0  0.70295385490E+02 -0.20111222052E+02 -0.53108518657E+02  0.90373764044E+02  0.10000000000E+01 0.  0.
         -4    1    1    2    0  502 -0.24998643044E+02  0.10332720101E+02 -0.50159663936E+02  0.57002649456E+02  0.12700000000E+01 0. -1.
<mgrwt>
<rscale>  1 0.12789849E+03</rscale>
<asrwt>0</asrwt>
<pdfrwt beam="2">  1       21 0.34318085E-01 0.12789849E+03</pdfrwt>
<pdfrwt beam="1">  1       -4 0.42384664E-02 0.12789849E+03</pdfrwt>
<totfact> 0.10242864E+05</totfact>
</mgrwt>
</event>
<event>
 6    4  0.6325740E-003  0.1337586E+03  0.7818608E-02  0.1221983E+00
         21   -1    0    0  501  502  0.00000000000E+00  0.00000000000E+00  0.12064266197E+02  0.12064266197E+02  0.00000000000E+00 0. -1.
         -4   -1    0    0    0  501 -0.00000000000E+00 -0.00000000000E+00 -0.87469450440E+03  0.87469542638E+03  0.12700000000E+01 0.  1.
         25    2    1    2    0    0 -0.31063197627E+02 -0.36076166896E+02 -0.78001810058E+03  0.79140356929E+03  0.12499984078E+03 0.  0.
    9000005    1    3    3    0    0 -0.13208435443E+02  0.45042824485E+02 -0.37713455731E+03  0.38004577767E+03  0.10000000000E+01 0.  0.
    9000005    1    3    3    0    0 -0.17854762183E+02 -0.81118991381E+02 -0.40288354327E+03  0.41135779162E+03  0.10000000000E+01 0.  0.
         -4    1    1    2    0  502  0.31063197627E+02  0.36076166896E+02 -0.82612137621E+02  0.95356123280E+02  0.12700000000E+01 0. -1.
<mgrwt>
<rscale>  1 0.13375863E+03</rscale>
<asrwt>0</asrwt>
<pdfrwt beam="1">  1       21 0.18560403E-02 0.13375863E+03</pdfrwt>
<pdfrwt beam="2">  1       -4 0.13457364E+00 0.13375863E+03</pdfrwt>
<totfact> 0.23590386E+04</totfact>
</mgrwt>
</event>
<event>
 6    4  0.6325740E-003  0.1337139E+03  0.7818608E-02  0.1222047E+00
         -4   -1    0    0    0  501 -0.00000000000E+00  0.00000000000E+00  0.56823598956E+02  0.56837789351E+02  0.12700000000E+01 0. -1.
         21   -1    0    0  501  502  0.00000000000E+00 -0.00000000000E+00 -0.15750022616E+03  0.15750022616E+03  0.00000000000E+00 0.  1.
         25    2    1    2    0    0 -0.47330828332E+02  0.35872090857E+01 -0.99791077645E+02  0.16684620066E+03  0.12500528036E+03 0.  0.
    9000005    1    3    3    0    0 -0.81292742713E+02 -0.77127686358E+01 -0.10236331360E+03  0.13094748867E+03  0.10000000000E+01 0.  0.
    9000005    1    3    3    0    0  0.33961914381E+02  0.11299977721E+02  0.25722359566E+01  0.35898711993E+02  0.10000000000E+01 0.  0.
         -4    1    1    2    0  502  0.47330828332E+02 -0.35872090857E+01 -0.88554956145E+00  0.47491814849E+02  0.12700000000E+01 0.  1.
<mgrwt>
<rscale>  1 0.13371386E+03</rscale>
<asrwt>0</asrwt>
<pdfrwt beam="2">  1       21 0.24230804E-01 0.13371386E+03</pdfrwt>
<pdfrwt beam="1">  1       -4 0.87435776E-02 0.13371386E+03</pdfrwt>
<totfact> 0.61904576E+04</totfact>
</mgrwt>
</event>
<event>
 6    4  0.6325740E-003  0.1292848E+03  0.7818608E-02  0.1228521E+00
         21   -1    0    0  501  502  0.00000000000E+00  0.00000000000E+00  0.30960423604E+03  0.30960423604E+03  0.00000000000E+00 0. -1.
         -4   -1    0    0    0  501 -0.00000000000E+00 -0.00000000000E+00 -0.30532282939E+02  0.30558684551E+02  0.12700000000E+01 0. -1.
         25    2    1    2    0    0 -0.32842676300E+02 -0.33141050915E+01  0.11573778313E+03  0.17352172323E+03  0.12499971723E+03 0.  0.
    9000005    1    3    3    0    0 -0.19235009963E+02 -0.36761816207E+02 -0.10006685099E+02  0.42691339705E+02  0.10000000000E+01 0.  0.
    9000005    1    3    3    0    0 -0.13607666337E+02  0.33447711116E+02  0.12574446823E+03  0.13083038352E+03  0.10000000000E+01 0.  0.
         -4    1    1    2    0  502  0.32842676300E+02  0.33141050915E+01  0.16333416996E+03  0.16664119736E+03  0.12700000000E+01 0.  1.
<mgrwt>
<rscale>  1 0.12928478E+03</rscale>
<asrwt>0</asrwt>
<pdfrwt beam="1">  1       21 0.47631419E-01 0.12928478E+03</pdfrwt>
<pdfrwt beam="2">  1       -4 0.46995058E-02 0.12928478E+03</pdfrwt>
<totfact> 0.45116779E+04</totfact>
</mgrwt>
</event>
<event>
 6    4  0.6325740E-003  0.1287252E+03  0.7818608E-02  0.1229360E+00
          4   -1    0    0  502    0 -0.00000000000E+00  0.00000000000E+00  0.24318896080E+03  0.24319227692E+03  0.12700000000E+01 0. -1.
         21   -1    0    0  501  502  0.00000000000E+00 -0.00000000000E+00 -0.48520076886E+02  0.48520076886E+02  0.00000000000E+00 0.  1.
         25    2    1    2    0    0  0.20179404103E+02 -0.23181720241E+02  0.21795657936E+03  0.25313087946E+03  0.12500228456E+03 0.  0.
    9000005    1    3    3    0    0  0.23938442140E+02 -0.38809721166E+01 -0.85776070236E+01  0.25742694088E+02  0.10000000000E+01 0.  0.
    9000005    1    3    3    0    0 -0.37590380374E+01 -0.19300748124E+02  0.22653418638E+03  0.22738818537E+03  0.10000000000E+01 0.  0.
          4    1    1    2  501    0 -0.20179404103E+02  0.23181720241E+02 -0.23287695451E+02  0.38581474346E+02  0.12700000000E+01 0.  1.
<mgrwt>
<rscale>  1 0.12872518E+03</rscale>
<asrwt>0</asrwt>
<pdfrwt beam="2">  1       21 0.74646274E-02 0.12872518E+03</pdfrwt>
<pdfrwt beam="1">  1        4 0.37415219E-01 0.12872518E+03</pdfrwt>
<totfact> 0.37806178E+04</totfact>
</mgrwt>
</event>
<event>
 6    4  0.6325740E-003  0.1364600E+03  0.7818608E-02  0.1218173E+00
         -4   -1    0    0    0  501 -0.00000000000E+00  0.00000000000E+00  0.67094098084E+03  0.67094218281E+03  0.12700000000E+01 0. -1.
         21   -1    0    0  501  502  0.00000000000E+00 -0.00000000000E+00 -0.14669238066E+02  0.14669238066E+02  0.00000000000E+00 0.  1.
         25    2    1    2    0    0 -0.12982152037E+02 -0.53165326498E+02  0.54184857277E+03  0.55876756826E+03  0.12500492514E+03 0.  0.
    9000005    1    3    3    0    0 -0.35627925929E+02 -0.39996598979E+02  0.52473051299E+03  0.52745823370E+03  0.10000000000E+01 0.  0.
    9000005    1    3    3    0    0  0.22645773892E+02 -0.13168727519E+02  0.17118059779E+02  0.31309334554E+02  0.10000000000E+01 0.  0.
         -4    1    1    2    0  502  0.12982152037E+02  0.53165326498E+02  0.11442317001E+03  0.12684385262E+03  0.12700000000E+01 0.  1.
<mgrwt>
<rscale>  1 0.13645996E+03</rscale>
<asrwt>0</asrwt>
<pdfrwt beam="2">  1       21 0.22568064E-02 0.13645996E+03</pdfrwt>
<pdfrwt beam="1">  1       -4 0.10322599E+00 0.13645996E+03</pdfrwt>
<totfact> 0.32521539E+04</totfact>
</mgrwt>
</event>
<event>
 6    4  0.6325740E-003  0.1727073E+03  0.7818608E-02  0.1175054E+00
         -4   -1    0    0    0  501 -0.00000000000E+00  0.00000000000E+00  0.54842153769E+02  0.54856856727E+02  0.12700000000E+01 0.  1.
         21   -1    0    0  501  502  0.00000000000E+00 -0.00000000000E+00 -0.56093453266E+03  0.56093453266E+03  0.00000000000E+00 0. -1.
         25    2    1    2    0    0  0.88235640499E+02 -0.80107248881E+02 -0.11637377613E+03  0.20825623530E+03  0.12500041677E+03 0.  0.
    9000005    1    3    3    0    0  0.67692985409E+02 -0.92961743443E+02 -0.30434362580E+02  0.11895997833E+03  0.10000000000E+01 0.  0.
    9000005    1    3    3    0    0  0.20542655090E+02  0.12854494562E+02 -0.85939413550E+02  0.89296256976E+02  0.10000000000E+01 0.  0.
         -4    1    1    2    0  502 -0.88235640499E+02  0.80107248881E+02 -0.38971860276E+03  0.40753515408E+03  0.12700000000E+01 0. -1.
<mgrwt>
<rscale>  1 0.17270728E+03</rscale>
<asrwt>0</asrwt>
<pdfrwt beam="2">  1       21 0.86297621E-01 0.17270728E+03</pdfrwt>
<pdfrwt beam="1">  1       -4 0.84384959E-02 0.17270728E+03</pdfrwt>
<totfact> 0.49026066E+03</totfact>
</mgrwt>
</event>
<event>
 6    4  0.6325740E-003  0.1302361E+03  0.7818608E-02  0.1227106E+00
         21   -1    0    0  501  502  0.00000000000E+00  0.00000000000E+00  0.29414727098E+02  0.29414727098E+02  0.00000000000E+00 0.  1.
         -4   -1    0    0    0  501 -0.00000000000E+00 -0.00000000000E+00 -0.28904465036E+03  0.28904744040E+03  0.12700000000E+01 0. -1.
         25    2    1    2    0    0 -0.32497979406E+02 -0.16735207573E+02 -0.24793971655E+03  0.28006347389E+03  0.12500104209E+03 0.  0.
    9000005    1    3    3    0    0 -0.10042291973E+02  0.28317458316E+02 -0.32382818171E+01  0.30235947854E+02  0.10000000000E+01 0.  0.
    9000005    1    3    3    0    0 -0.22455687433E+02 -0.45052665888E+02 -0.24470143474E+03  0.24982752603E+03  0.10000000000E+01 0.  0.
         -4    1    1    2    0  502  0.32497979406E+02  0.16735207573E+02 -0.11690206705E+02  0.38398693607E+02  0.12700000000E+01 0.  1.
<mgrwt>
<rscale>  1 0.13023612E+03</rscale>
<asrwt>0</asrwt>
<pdfrwt beam="1">  1       21 0.45253426E-02 0.13023612E+03</pdfrwt>
<pdfrwt beam="2">  1       -4 0.44470732E-01 0.13023612E+03</pdfrwt>
<totfact> 0.62860087E+04</totfact>
</mgrwt>
</event>
<event>
 6    4  0.6325740E-003  0.1335958E+03  0.7818608E-02  0.1222216E+00
         21   -1    0    0  501  502  0.00000000000E+00  0.00000000000E+00  0.13629433658E+03  0.13629433658E+03  0.00000000000E+00 0.  1.
         -4   -1    0    0    0  501 -0.00000000000E+00 -0.00000000000E+00 -0.74506714390E+02  0.74517537460E+02  0.12700000000E+01 0. -1.
         25    2    1    2    0    0 -0.99872666740E+01 -0.46079946241E+02  0.65372525676E+00  0.13359741169E+03  0.12499893645E+03 0.  0.
    9000005    1    3    3    0    0  0.23263197381E+02 -0.80902396835E+02  0.91971225069E+01  0.84687432529E+02  0.10000000000E+01 0.  0.
    9000005    1    3    3    0    0 -0.33250464055E+02  0.34822450594E+02 -0.85433972502E+01  0.48909979164E+02  0.10000000000E+01 0.  0.
         -4    1    1    2    0  502  0.99872666740E+01  0.46079946241E+02  0.61133896929E+02  0.77214462343E+02  0.12700000000E+01 0.  1.
<mgrwt>
<rscale>  1 0.13359581E+03</rscale>
<asrwt>0</asrwt>
<pdfrwt beam="1">  1       21 0.20968360E-01 0.13359581E+03</pdfrwt>
<pdfrwt beam="2">  1       -4 0.11463859E-01 0.13359581E+03</pdfrwt>
<totfact> 0.51410617E+04</totfact>
</mgrwt>
</event>
