<event>
 6    4  0.6358868E-003  0.1357887E+03  0.7818608E-02  0.1219111E+00
         21   -1    0    0  501  502  0.00000000000E+00  0.00000000000E+00  0.85592205711E+02  0.85592205711E+02  0.00000000000E+00 0. -1.
         -4   -1    0    0    0  501 -0.00000000000E+00 -0.00000000000E+00 -0.10575803619E+03  0.10576566134E+03  0.12700000000E+01 0.  1.
         25    2    1    2    0    0  0.52536131628E+02 -0.72825520930E+01 -0.38172623700E+01  0.13584238028E+03  0.12500200037E+03 0.  0.
    9000005    1    3    3    0    0  0.53081515681E+02 -0.35989747145E+02  0.45588432572E+02  0.78690624543E+02  0.10000000000E+01 0.  0.
    9000005    1    3    3    0    0 -0.54538405254E+00  0.28707195052E+02 -0.49405694943E+02  0.57151755741E+02  0.10000000000E+01 0.  0.
         -4    1    1    2    0  502 -0.52536131628E+02  0.72825520930E+01 -0.16348568105E+02  0.55515486763E+02  0.12700000000E+01 0. -1.
<mgrwt>
<rscale>  1 0.13578874E+03</rscale>
<asrwt>0</asrwt>
<pdfrwt beam="1">  1       21 0.13168032E-01 0.13578874E+03</pdfrwt>
<pdfrwt beam="2">  1       -4 0.16271778E-01 0.13578874E+03</pdfrwt>
<totfact> 0.65548996E+04</totfact>
</mgrwt>
</event>
<event>
 6    4  0.6358868E-003  0.1272440E+03  0.7818608E-02  0.1231603E+00
          4   -1    0    0  502    0 -0.00000000000E+00  0.00000000000E+00  0.70950237517E+01  0.72077917587E+01  0.12700000000E+01 0.  1.
         21   -1    0    0  501  502  0.00000000000E+00 -0.00000000000E+00 -0.81867646652E+03  0.81867646652E+03  0.00000000000E+00 0.  1.
         25    2    1    2    0    0 -0.23637413755E+02 -0.26442452970E+01 -0.62775931355E+03  0.64052539701E+03  0.12500123639E+03 0.  0.
    9000005    1    3    3    0    0 -0.69393367507E+02 -0.28078489698E+02 -0.37484583928E+03  0.38224892971E+03  0.10000000000E+01 0.  0.
    9000005    1    3    3    0    0  0.45755953753E+02  0.25434244401E+02 -0.25291347428E+03  0.25827646730E+03  0.10000000000E+01 0.  0.
          4    1    1    2  501    0  0.23637413755E+02  0.26442452970E+01 -0.18382212921E+03  0.18535886127E+03  0.12700000000E+01 0.  1.
<mgrwt>
<rscale>  1 0.12724397E+03</rscale>
<asrwt>0</asrwt>
<pdfrwt beam="2">  1       21 0.12595017E+00 0.12724397E+03</pdfrwt>
<pdfrwt beam="1">  1        4 0.11002929E-02 0.12724397E+03</pdfrwt>
<totfact> 0.48674362E+04</totfact>
</mgrwt>
</event>
<event>
 6    4  0.6358868E-003  0.1270191E+03  0.7818608E-02  0.1231947E+00
         21   -1    0    0  501  502  0.00000000000E+00  0.00000000000E+00  0.46747164494E+02  0.46747164494E+02  0.00000000000E+00 0.  1.
          4   -1    0    0  502    0 -0.00000000000E+00 -0.00000000000E+00 -0.26364439447E+03  0.26364745331E+03  0.12700000000E+01 0. -1.
         25    2    1    2    0    0 -0.20923291109E+02  0.84371691848E+01 -0.24401600362E+03  0.27509574078E+03  0.12499954655E+03 0.  0.
    9000005    1    3    3    0    0 -0.55795145055E+02  0.18934158221E+02 -0.48806569155E+02  0.76515892153E+02  0.10000000000E+01 0.  0.
    9000005    1    3    3    0    0  0.34871853947E+02 -0.10496989036E+02 -0.19520943447E+03  0.19857984863E+03  0.10000000000E+01 0.  0.
          4    1    1    2  501    0  0.20923291109E+02 -0.84371691848E+01  0.27118773647E+02  0.35298877019E+02  0.12700000000E+01 0.  1.
<mgrwt>
<rscale>  1 0.12701912E+03</rscale>
<asrwt>0</asrwt>
<pdfrwt beam="1">  1       21 0.71918713E-02 0.12701912E+03</pdfrwt>
<pdfrwt beam="2">  1        4 0.40562239E-01 0.12701912E+03</pdfrwt>
<totfact> 0.34348527E+04</totfact>
</mgrwt>
</event>
<event>
 6    4  0.6358868E-003  0.1302568E+03  0.7818608E-02  0.1227075E+00
         -4   -1    0    0    0  501 -0.00000000000E+00  0.00000000000E+00  0.33307689558E+02  0.33331892891E+02  0.12700000000E+01 0.  1.
         21   -1    0    0  501  502  0.00000000000E+00 -0.00000000000E+00 -0.28558214612E+03  0.28558214612E+03  0.00000000000E+00 0.  1.
         25    2    1    2    0    0 -0.34070480266E+02 -0.13416701923E+02 -0.10545959154E+03  0.16759641609E+03  0.12500411082E+03 0.  0.
    9000005    1    3    3    0    0 -0.44651853814E+02 -0.40708481172E+02 -0.12040186909E+03  0.13471666032E+03  0.10000000000E+01 0.  0.
    9000005    1    3    3    0    0  0.10581373547E+02  0.27291779249E+02  0.14942277549E+02  0.32879755764E+02  0.10000000000E+01 0.  0.
         -4    1    1    2    0  502  0.34070480266E+02  0.13416701923E+02 -0.14681486502E+03  0.15131762292E+03  0.12700000000E+01 0. -1.
<mgrwt>
<rscale>  1 0.13025680E+03</rscale>
<asrwt>0</asrwt>
<pdfrwt beam="2">  1       21 0.43935714E-01 0.13025680E+03</pdfrwt>
<pdfrwt beam="1">  1       -4 0.51263390E-02 0.13025680E+03</pdfrwt>
<totfact> 0.46298787E+04</totfact>
</mgrwt>
</event>
<event>
 6    4  0.6358868E-003  0.1268176E+03  0.7818608E-02  0.1232256E+00
         -4   -1    0    0    0  501 -0.00000000000E+00  0.00000000000E+00  0.42994587421E+02  0.43013340344E+02  0.12700000000E+01 0. -1.
         21   -1    0    0  501  502  0.00000000000E+00 -0.00000000000E+00 -0.30414707093E+03  0.30414707093E+03  0.00000000000E+00 0. -1.
         25    2    1    2    0    0 -0.16449328493E+02 -0.13664626929E+02 -0.52245568161E+02  0.13715799553E+03  0.12500165563E+03 0.  0.
    9000005    1    3    3    0    0 -0.63567106874E+02 -0.37307439541E+02 -0.35652299023E+02  0.81882284696E+02  0.10000000000E+01 0.  0.
    9000005    1    3    3    0    0  0.47117778381E+02  0.23642812612E+02 -0.16593269138E+02  0.55275710837E+02  0.10000000000E+01 0.  0.
         -4    1    1    2    0  502  0.16449328493E+02  0.13664626929E+02 -0.20890691535E+03  0.21000241574E+03  0.12700000000E+01 0.  1.
<mgrwt>
<rscale>  1 0.12681765E+03</rscale>
<asrwt>0</asrwt>
<pdfrwt beam="2">  1       21 0.46791855E-01 0.12681765E+03</pdfrwt>
<pdfrwt beam="1">  1       -4 0.66161987E-02 0.12681765E+03</pdfrwt>
<totfact> 0.26863393E+04</totfact>
</mgrwt>
</event>
<event>
 6    4  0.6358868E-003  0.1268196E+03  0.7818608E-02  0.1232253E+00
         -4   -1    0    0    0  501 -0.00000000000E+00  0.00000000000E+00  0.77000048999E+02  0.77010521657E+02  0.12700000000E+01 0. -1.
         21   -1    0    0  501  502  0.00000000000E+00 -0.00000000000E+00 -0.75658279020E+02  0.75658279020E+02  0.00000000000E+00 0. -1.
         25    2    1    2    0    0 -0.13920189028E+02  0.16253987244E+02 -0.12052000600E+02  0.12739094962E+03  0.12500095824E+03 0.  0.
    9000005    1    3    3    0    0 -0.36984045577E+02  0.54441540436E+02  0.23960626190E+02  0.70048644239E+02  0.10000000000E+01 0.  0.
    9000005    1    3    3    0    0  0.23063856549E+02 -0.38187553192E+02 -0.36012626790E+02  0.57342305377E+02  0.10000000000E+01 0.  0.
         -4    1    1    2    0  502  0.13920189028E+02 -0.16253987244E+02  0.13393770579E+02  0.25277851061E+02  0.12700000000E+01 0.  1.
<mgrwt>
<rscale>  1 0.12681957E+03</rscale>
<asrwt>0</asrwt>
<pdfrwt beam="2">  1       21 0.11639735E-01 0.12681957E+03</pdfrwt>
<pdfrwt beam="1">  1       -4 0.11847787E-01 0.12681957E+03</pdfrwt>
<totfact> 0.14008384E+05</totfact>
</mgrwt>
</event>
<event>
 6    4  0.6358868E-003  0.1278342E+03  0.7818608E-02  0.1230705E+00
          4   -1    0    0  502    0 -0.00000000000E+00  0.00000000000E+00  0.42223042899E+02  0.42242138342E+02  0.12700000000E+01 0.  1.
         21   -1    0    0  501  502  0.00000000000E+00 -0.00000000000E+00 -0.47508416844E+03  0.47508416844E+03  0.00000000000E+00 0. -1.
         25    2    1    2    0    0 -0.26570255716E+02 -0.35337538223E+01 -0.56085729906E+02  0.13959653888E+03  0.12499247442E+03 0.  0.
    9000005    1    3    3    0    0 -0.70093183856E+02  0.25750954689E+02 -0.40002375494E+02  0.84719278418E+02  0.10000000000E+01 0.  0.
    9000005    1    3    3    0    0  0.43522928140E+02 -0.29284708511E+02 -0.16083354411E+02  0.54877260460E+02  0.10000000000E+01 0.  0.
          4    1    1    2  501    0  0.26570255716E+02  0.35337538223E+01 -0.37677539563E+03  0.37772976790E+03  0.12700000000E+01 0. -1.
<mgrwt>
<rscale>  1 0.12783421E+03</rscale>
<asrwt>0</asrwt>
<pdfrwt beam="2">  1       21 0.73089874E-01 0.12783421E+03</pdfrwt>
<pdfrwt beam="1">  1        4 0.64974521E-02 0.12783421E+03</pdfrwt>
<totfact> 0.10778086E+04</totfact>
</mgrwt>
</event>
<event>
 6    4  0.6358868E-003  0.1531208E+03  0.7818608E-02  0.1196690E+00
          4   -1    0    0  502    0 -0.00000000000E+00  0.00000000000E+00  0.47978054454E+02  0.47994860237E+02  0.12700000000E+01 0. -1.
         21   -1    0    0  501  502  0.00000000000E+00 -0.00000000000E+00 -0.30428589711E+03  0.30428589711E+03  0.00000000000E+00 0. -1.
         25    2    1    2    0    0  0.42151776777E+02 -0.77744427684E+02 -0.16758415825E+03  0.22700317198E+03  0.12500008668E+03 0.  0.
    9000005    1    3    3    0    0 -0.10436044493E+02  0.26246830852E+02 -0.79542516470E+01  0.29361152459E+02  0.10000000000E+01 0.  0.
    9000005    1    3    3    0    0  0.52587821270E+02 -0.10399125854E+03 -0.15962990660E+03  0.19764201952E+03  0.10000000000E+01 0.  0.
          4    1    1    2  501    0 -0.42151776777E+02  0.77744427684E+02 -0.88723684410E+02  0.12527758537E+03  0.12700000000E+01 0.  1.
<mgrwt>
<rscale>  1 0.15312083E+03</rscale>
<asrwt>0</asrwt>
<pdfrwt beam="2">  1       21 0.46813215E-01 0.15312083E+03</pdfrwt>
<pdfrwt beam="1">  1        4 0.73827357E-02 0.15312083E+03</pdfrwt>
<totfact> 0.22805728E+04</totfact>
</mgrwt>
</event>
<event>
 6    4  0.6358868E-003  0.1269684E+03  0.7818608E-02  0.1232025E+00
         21   -1    0    0  501  502  0.00000000000E+00  0.00000000000E+00  0.14594563409E+03  0.14594563409E+03  0.00000000000E+00 0.  1.
         -4   -1    0    0    0  501 -0.00000000000E+00 -0.00000000000E+00 -0.39078234698E+02  0.39098866059E+02  0.12700000000E+01 0.  1.
         25    2    1    2    0    0 -0.81582884772E+01  0.20700391407E+02  0.10031509604E+03  0.16181500480E+03  0.12500365358E+03 0.  0.
    9000005    1    3    3    0    0  0.52410606643E+02 -0.78741390487E+01  0.18643089713E+02  0.56191089583E+02  0.10000000000E+01 0.  0.
    9000005    1    3    3    0    0 -0.60568895120E+02  0.28574530456E+02  0.81672006331E+02  0.10562391521E+03  0.10000000000E+01 0.  0.
         -4    1    1    2    0  502  0.81582884772E+01 -0.20700391407E+02  0.65523033522E+01  0.23229495356E+02  0.12700000000E+01 0. -1.
<mgrwt>
<rscale>  1 0.12696841E+03</rscale>
<asrwt>0</asrwt>
<pdfrwt beam="1">  1       21 0.22453174E-01 0.12696841E+03</pdfrwt>
<pdfrwt beam="2">  1       -4 0.60140483E-02 0.12696841E+03</pdfrwt>
<totfact> 0.13125501E+05</totfact>
</mgrwt>
</event>
<event>
 6    4  0.6358868E-003  0.1608097E+03  0.7818608E-02  0.1187786E+00
          4   -1    0    0  502    0 -0.00000000000E+00  0.00000000000E+00  0.25128968553E+03  0.25129289476E+03  0.12700000000E+01 0.  1.
         21   -1    0    0  501  502  0.00000000000E+00 -0.00000000000E+00 -0.24421896771E+03  0.24421896771E+03  0.00000000000E+00 0. -1.
         25    2    1    2    0    0 -0.13524646467E+02 -0.10026012738E+03  0.21251801198E+03  0.26650266445E+03  0.12499902215E+03 0.  0.
    9000005    1    3    3    0    0 -0.62979174411E+02 -0.20370371355E+02  0.99750013988E+02  0.11971797580E+03  0.10000000000E+01 0.  0.
    9000005    1    3    3    0    0  0.49454527944E+02 -0.79889756021E+02  0.11276799799E+03  0.14678468865E+03  0.10000000000E+01 0.  0.
          4    1    1    2  501    0  0.13524646467E+02  0.10026012738E+03 -0.20544729415E+03  0.22900919802E+03  0.12700000000E+01 0. -1.
<mgrwt>
<rscale>  1 0.16080972E+03</rscale>
<asrwt>0</asrwt>
<pdfrwt beam="2">  1       21 0.37572149E-01 0.16080972E+03</pdfrwt>
<pdfrwt beam="1">  1        4 0.38660453E-01 0.16080972E+03</pdfrwt>
<totfact> 0.18606970E+03</totfact>
</mgrwt>
</event>
<event>
 6    4  0.6358868E-003  0.1267287E+03  0.7818608E-02  0.1232392E+00
          4   -1    0    0  502    0 -0.00000000000E+00  0.00000000000E+00  0.20359652200E+03  0.20360048298E+03  0.12700000000E+01 0.  1.
         21   -1    0    0  501  502  0.00000000000E+00 -0.00000000000E+00 -0.26835751919E+02  0.26835751919E+02  0.00000000000E+00 0.  1.
         25    2    1    2    0    0  0.99981691001E+01 -0.18299186675E+02  0.15594144133E+03  0.20094249035E+03  0.12500131073E+03 0.  0.
    9000005    1    3    3    0    0  0.34859876372E+02 -0.33486127747E+02  0.66162765593E+01  0.48798635715E+02  0.10000000000E+01 0.  0.
    9000005    1    3    3    0    0 -0.24861707272E+02  0.15186941071E+02  0.14932516477E+03  0.15214385463E+03  0.10000000000E+01 0.  0.
          4    1    1    2  501    0 -0.99981691001E+01  0.18299186675E+02  0.20819328747E+02  0.29493744554E+02  0.12700000000E+01 0. -1.
<mgrwt>
<rscale>  1 0.12672865E+03</rscale>
<asrwt>0</asrwt>
<pdfrwt beam="2">  1       21 0.41285774E-02 0.12672865E+03</pdfrwt>
<pdfrwt beam="1">  1        4 0.31325157E-01 0.12672865E+03</pdfrwt>
<totfact> 0.14430128E+05</totfact>
</mgrwt>
</event>
<event>
 6    4  0.6358868E-003  0.1395448E+03  0.7818608E-02  0.1213943E+00
          4   -1    0    0  502    0 -0.00000000000E+00  0.00000000000E+00  0.28760855114E+02  0.28788881306E+02  0.12700000000E+01 0. -1.
         21   -1    0    0  501  502  0.00000000000E+00 -0.00000000000E+00 -0.50113885573E+03  0.50113885573E+03  0.00000000000E+00 0.  1.
         25    2    1    2    0    0  0.21228981896E+02  0.58288200388E+02 -0.16383720216E+03  0.21521005214E+03  0.12499821500E+03 0.  0.
    9000005    1    3    3    0    0  0.11393310274E+01  0.31150581800E+01  0.20991913923E+02  0.21275857510E+02  0.10000000000E+01 0.  0.
    9000005    1    3    3    0    0  0.20089650869E+02  0.55173142208E+02 -0.18482911608E+03  0.19393419463E+03  0.10000000000E+01 0.  0.
          4    1    1    2  501    0 -0.21228981896E+02 -0.58288200388E+02 -0.30854079845E+03  0.31471768490E+03  0.12700000000E+01 0.  1.
<mgrwt>
<rscale>  1 0.13954475E+03</rscale>
<asrwt>0</asrwt>
<pdfrwt beam="2">  1       21 0.77098278E-01 0.13954475E+03</pdfrwt>
<pdfrwt beam="1">  1        4 0.44270270E-02 0.13954475E+03</pdfrwt>
<totfact> 0.17908437E+04</totfact>
</mgrwt>
</event>
<event>
 6    4  0.6358868E-003  0.1270471E+03  0.7818608E-02  0.1231904E+00
         21   -1    0    0  501  502  0.00000000000E+00  0.00000000000E+00  0.12035984972E+03  0.12035984972E+03  0.00000000000E+00 0.  1.
          4   -1    0    0  502    0 -0.00000000000E+00 -0.00000000000E+00 -0.70430872797E+02  0.70442322101E+02  0.12700000000E+01 0. -1.
         25    2    1    2    0    0  0.10423002636E+01 -0.22648232087E+02 -0.92825498911E+01  0.12738571801E+03  0.12500770622E+03 0.  0.
    9000005    1    3    3    0    0 -0.26819266077E+02 -0.47863689783E+02 -0.48374285881E+02  0.73152425572E+02  0.10000000000E+01 0.  0.
    9000005    1    3    3    0    0  0.27861566341E+02  0.25215457696E+02  0.39091735990E+02  0.54233292436E+02  0.10000000000E+01 0.  0.
          4    1    1    2  501    0 -0.10423002636E+01  0.22648232087E+02  0.59211526812E+02  0.63416453811E+02  0.12700000000E+01 0.  1.
<mgrwt>
<rscale>  1 0.12704706E+03</rscale>
<asrwt>0</asrwt>
<pdfrwt beam="1">  1       21 0.18516900E-01 0.12704706E+03</pdfrwt>
<pdfrwt beam="2">  1        4 0.10836915E-01 0.12704706E+03</pdfrwt>
<totfact> 0.70718405E+04</totfact>
</mgrwt>
</event>
<event>
 6    4  0.6358868E-003  0.1266673E+03  0.7818608E-02  0.1232486E+00
         21   -1    0    0  501  502  0.00000000000E+00  0.00000000000E+00  0.39345462190E+01  0.39345462190E+01  0.00000000000E+00 0.  1.
         -4   -1    0    0    0  501 -0.00000000000E+00 -0.00000000000E+00 -0.15308392333E+04  0.15308397601E+04  0.12700000000E+01 0.  1.
         25    2    1    2    0    0  0.19291084516E+02  0.68897222938E+01 -0.14362800490E+04  0.14418547059E+04  0.12499999822E+03 0.  0.
    9000005    1    3    3    0    0  0.14788017068E+02 -0.55692935405E+02 -0.91460659370E+03  0.91642054197E+03  0.10000000000E+01 0.  0.
    9000005    1    3    3    0    0  0.45030674482E+01  0.62582657699E+02 -0.52167345532E+03  0.52543416395E+03  0.10000000000E+01 0.  0.
         -4    1    1    2    0  502 -0.19291084516E+02 -0.68897222938E+01 -0.90624638042E+02  0.92919600383E+02  0.12700000000E+01 0. -1.
<mgrwt>
<rscale>  1 0.12666734E+03</rscale>
<asrwt>0</asrwt>
<pdfrwt beam="1">  1       21 0.60531541E-03 0.12666734E+03</pdfrwt>
<pdfrwt beam="2">  1       -4 0.23552930E+00 0.12666734E+03</pdfrwt>
<totfact> 0.29699341E+04</totfact>
</mgrwt>
</event>
<event>
 6    4  0.6358868E-003  0.1284387E+03  0.7818608E-02  0.1229791E+00
         -4   -1    0    0    0  501 -0.00000000000E+00  0.00000000000E+00  0.11611384021E+03  0.11612078534E+03  0.12700000000E+01 0.  1.
         21   -1    0    0  501  502  0.00000000000E+00 -0.00000000000E+00 -0.67622242930E+02  0.67622242930E+02  0.00000000000E+00 0.  1.
         25    2    1    2    0    0  0.29482155932E+02 -0.15022419060E+01  0.70854942386E+02  0.14668649911E+03  0.12500020764E+03 0.  0.
    9000005    1    3    3    0    0 -0.22157074793E+02  0.37364419084E+02  0.69582078819E+02  0.82034757692E+02  0.10000000000E+01 0.  0.
    9000005    1    3    3    0    0  0.51639230725E+02 -0.38866660990E+02  0.12728635670E+01  0.64651741415E+02  0.10000000000E+01 0.  0.
         -4    1    1    2    0  502 -0.29482155932E+02  0.15022419060E+01 -0.22363345108E+02  0.37056529162E+02  0.12700000000E+01 0. -1.
<mgrwt>
<rscale>  1 0.12843873E+03</rscale>
<asrwt>0</asrwt>
<pdfrwt beam="2">  1       21 0.10403422E-01 0.12843873E+03</pdfrwt>
<pdfrwt beam="1">  1       -4 0.17865119E-01 0.12843873E+03</pdfrwt>
<totfact> 0.83714685E+04</totfact>
</mgrwt>
</event>
<event>
 6    4  0.6358868E-003  0.1289001E+03  0.7818608E-02  0.1229097E+00
         21   -1    0    0  501  502  0.00000000000E+00  0.00000000000E+00  0.42458253212E+02  0.42458253212E+02  0.00000000000E+00 0.  1.
         -4   -1    0    0    0  501 -0.00000000000E+00 -0.00000000000E+00 -0.16338747315E+03  0.16339240888E+03  0.12700000000E+01 0.  1.
         25    2    1    2    0    0 -0.18864068709E+02 -0.25182204310E+02 -0.11706465737E+03  0.17412458062E+03  0.12500095627E+03 0.  0.
    9000005    1    3    3    0    0  0.46103390954E+02  0.14574688784E+02 -0.24397814656E+02  0.54168233963E+02  0.10000000000E+01 0.  0.
    9000005    1    3    3    0    0 -0.64967459664E+02 -0.39756893094E+02 -0.92666842716E+02  0.11995634665E+03  0.10000000000E+01 0.  0.
         -4    1    1    2    0  502  0.18864068709E+02  0.25182204310E+02 -0.38645625611E+01  0.31726081478E+02  0.12700000000E+01 0. -1.
<mgrwt>
<rscale>  1 0.12890010E+03</rscale>
<asrwt>0</asrwt>
<pdfrwt beam="1">  1       21 0.65320388E-02 0.12890010E+03</pdfrwt>
<pdfrwt beam="2">  1       -4 0.25138376E-01 0.12890010E+03</pdfrwt>
<totfact> 0.10090546E+05</totfact>
</mgrwt>
</event>
<event>
 6    4  0.6358868E-003  0.1335432E+03  0.7818608E-02  0.1222291E+00
         21   -1    0    0  501  502  0.00000000000E+00  0.00000000000E+00  0.49740717217E+02  0.49740717217E+02  0.00000000000E+00 0.  1.
         -4   -1    0    0    0  501 -0.00000000000E+00 -0.00000000000E+00 -0.28092034677E+03  0.28092321749E+03  0.12700000000E+01 0. -1.
         25    2    1    2    0    0 -0.46849359581E+02  0.35325181356E+01 -0.24723621103E+03  0.28099736762E+03  0.12500574143E+03 0.  0.
    9000005    1    3    3    0    0 -0.67255446091E+02 -0.44827617931E+02 -0.15754638850E+03  0.17707251308E+03  0.10000000000E+01 0.  0.
    9000005    1    3    3    0    0  0.20406086511E+02  0.48360136067E+02 -0.89689822526E+02  0.10392485454E+03  0.10000000000E+01 0.  0.
         -4    1    1    2    0  502  0.46849359581E+02 -0.35325181356E+01  0.16056581479E+02  0.49666567088E+02  0.12700000000E+01 0.  1.
<mgrwt>
<rscale>  1 0.13354316E+03</rscale>
<asrwt>0</asrwt>
<pdfrwt beam="1">  1       21 0.76524180E-02 0.13354316E+03</pdfrwt>
<pdfrwt beam="2">  1       -4 0.43219983E-01 0.13354316E+03</pdfrwt>
<totfact> 0.27393437E+04</totfact>
</mgrwt>
</event>
<event>
 6    4  0.6358868E-003  0.1298063E+03  0.7818608E-02  0.1227743E+00
         21   -1    0    0  501  502  0.00000000000E+00  0.00000000000E+00  0.56291509172E+03  0.56291509172E+03  0.00000000000E+00 0.  1.
          4   -1    0    0  502    0 -0.00000000000E+00 -0.00000000000E+00 -0.13672857620E+02  0.13731712766E+02  0.12700000000E+01 0. -1.
         25    2    1    2    0    0 -0.18067039200E+02 -0.29957582523E+02  0.32973113492E+03  0.35436182924E+03  0.12500324009E+03 0.  0.
    9000005    1    3    3    0    0 -0.26817761062E+02  0.14691700361E+02  0.11175697882E+02  0.32571990898E+02  0.10000000000E+01 0.  0.
    9000005    1    3    3    0    0  0.87507218624E+01 -0.44649282884E+02  0.31855543704E+03  0.32178983834E+03  0.10000000000E+01 0.  0.
          4    1    1    2  501    0  0.18067039200E+02  0.29957582523E+02  0.21951109918E+03  0.22228497524E+03  0.12700000000E+01 0.  1.
<mgrwt>
<rscale>  1 0.12980634E+03</rscale>
<asrwt>0</asrwt>
<pdfrwt beam="1">  1       21 0.86602304E-01 0.12980634E+03</pdfrwt>
<pdfrwt beam="2">  1        4 0.21081545E-02 0.12980634E+03</pdfrwt>
<totfact> 0.43878471E+04</totfact>
</mgrwt>
</event>
<event>
 6    4  0.6358868E-003  0.1274929E+03  0.7818608E-02  0.1231224E+00
          4   -1    0    0  502    0 -0.00000000000E+00  0.00000000000E+00  0.73207436482E+02  0.73218451610E+02  0.12700000000E+01 0.  1.
         21   -1    0    0  501  502  0.00000000000E+00 -0.00000000000E+00 -0.11950088666E+03  0.11950088666E+03  0.00000000000E+00 0.  1.
         25    2    1    2    0    0 -0.14571922591E+02  0.20417409789E+02  0.13167918720E+02  0.12817107074E+03  0.12500087095E+03 0.  0.
    9000005    1    3    3    0    0  0.16264048782E+02  0.43187479257E+02  0.54747383553E+02  0.71609731554E+02  0.10000000000E+01 0.  0.
    9000005    1    3    3    0    0 -0.30835971373E+02 -0.22770069469E+02 -0.41579464833E+02  0.56561339181E+02  0.10000000000E+01 0.  0.
          4    1    1    2  501    0  0.14571922591E+02 -0.20417409789E+02 -0.59461368898E+02  0.64548267535E+02  0.12700000000E+01 0. -1.
<mgrwt>
<rscale>  1 0.12749286E+03</rscale>
<asrwt>0</asrwt>
<pdfrwt beam="2">  1       21 0.18384751E-01 0.12749286E+03</pdfrwt>
<pdfrwt beam="1">  1        4 0.11264049E-01 0.12749286E+03</pdfrwt>
<totfact> 0.67136120E+04</totfact>
</mgrwt>
</event>
<event>
 6    4  0.6358868E-003  0.1479154E+03  0.7818608E-02  0.1203058E+00
         21   -1    0    0  501  502  0.00000000000E+00  0.00000000000E+00  0.59052739398E+03  0.59052739398E+03  0.00000000000E+00 0.  1.
         -4   -1    0    0    0  501 -0.00000000000E+00 -0.00000000000E+00 -0.24795257231E+02  0.24827760293E+02  0.12700000000E+01 0. -1.
         25    2    1    2    0    0 -0.23089801790E+02  0.75661146692E+02  0.25582573541E+03  0.29550934992E+03  0.12498488281E+03 0.  0.
    9000005    1    3    3    0    0  0.40824826534E+02  0.62772678044E+02  0.88536722649E+02  0.11596045372E+03  0.10000000000E+01 0.  0.
    9000005    1    3    3    0    0 -0.63914628324E+02  0.12888468648E+02  0.16728901276E+03  0.17954889620E+03  0.10000000000E+01 0.  0.
         -4    1    1    2    0  502  0.23089801790E+02 -0.75661146692E+02  0.30990640134E+03  0.31984580434E+03  0.12700000000E+01 0.  1.
<mgrwt>
<rscale>  1 0.14791541E+03</rscale>
<asrwt>0</asrwt>
<pdfrwt beam="1">  1       21 0.90850358E-01 0.14791541E+03</pdfrwt>
<pdfrwt beam="2">  1       -4 0.38172607E-02 0.14791541E+03</pdfrwt>
<totfact> 0.15710332E+04</totfact>
</mgrwt>
</event>
<event>
 6    4  0.6358868E-003  0.1289785E+03  0.7818608E-02  0.1228979E+00
         21   -1    0    0  501  502  0.00000000000E+00  0.00000000000E+00  0.39471448105E+02  0.39471448105E+02  0.00000000000E+00 0.  1.
         -4   -1    0    0    0  501 -0.00000000000E+00 -0.00000000000E+00 -0.47170281653E+03  0.47170452619E+03  0.12700000000E+01 0. -1.
         25    2    1    2    0    0 -0.29599786713E+02  0.11568622942E+02 -0.45443689212E+03  0.47238578748E+03  0.12500185153E+03 0.  0.
    9000005    1    3    3    0    0 -0.39868320190E+02 -0.45448689102E+02 -0.32492201091E+03  0.33050019587E+03  0.10000000000E+01 0.  0.
    9000005    1    3    3    0    0  0.10268533477E+02  0.57017312044E+02 -0.12951488121E+03  0.14188559161E+03  0.10000000000E+01 0.  0.
         -4    1    1    2    0  502  0.29599786713E+02 -0.11568622942E+02  0.22205523692E+02  0.38790186809E+02  0.12700000000E+01 0.  1.
<mgrwt>
<rscale>  1 0.12897846E+03</rscale>
<asrwt>0</asrwt>
<pdfrwt beam="1">  1       21 0.60725305E-02 0.12897846E+03</pdfrwt>
<pdfrwt beam="2">  1       -4 0.72571367E-01 0.12897846E+03</pdfrwt>
<totfact> 0.13816004E+04</totfact>
</mgrwt>
</event>
<event>
 6    4  0.6358868E-003  0.1268328E+03  0.7818608E-02  0.1232232E+00
         21   -1    0    0  501  502  0.00000000000E+00  0.00000000000E+00  0.26253208319E+03  0.26253208319E+03  0.00000000000E+00 0.  1.
         -4   -1    0    0    0  501 -0.00000000000E+00 -0.00000000000E+00 -0.27587515924E+02  0.27616732878E+02  0.12700000000E+01 0.  1.
         25    2    1    2    0    0 -0.21301426241E+02  0.27966084162E+01  0.12485624201E+03  0.17797651987E+03  0.12499995470E+03 0.  0.
    9000005    1    3    3    0    0 -0.13937342545E+01 -0.42995396935E+02 -0.50581103341E+00  0.43032574842E+02  0.10000000000E+01 0.  0.
    9000005    1    3    3    0    0 -0.19907691986E+02  0.45792005351E+02  0.12536205305E+03  0.13494394502E+03  0.10000000000E+01 0.  0.
         -4    1    1    2    0  502  0.21301426241E+02 -0.27966084162E+01  0.11008832525E+03  0.11217229620E+03  0.12700000000E+01 0. -1.
<mgrwt>
<rscale>  1 0.12683281E+03</rscale>
<asrwt>0</asrwt>
<pdfrwt beam="1">  1       21 0.40389550E-01 0.12683281E+03</pdfrwt>
<pdfrwt beam="2">  1       -4 0.42467171E-02 0.12683281E+03</pdfrwt>
<totfact> 0.73890920E+04</totfact>
</mgrwt>
</event>
<event>
 6    4  0.6358868E-003  0.1266988E+03  0.7818608E-02  0.1232438E+00
         21   -1    0    0  501  502  0.00000000000E+00  0.00000000000E+00  0.11216144626E+03  0.11216144626E+03  0.00000000000E+00 0.  1.
         -4   -1    0    0    0  501 -0.00000000000E+00 -0.00000000000E+00 -0.10965953891E+03  0.10966689279E+03  0.12700000000E+01 0. -1.
         25    2    1    2    0    0 -0.18940280377E+02  0.82982552236E+01 -0.71155815394E+02  0.14531253493E+03  0.12499994993E+03 0.  0.
    9000005    1    3    3    0    0 -0.17797737200E+02 -0.57119923036E+02 -0.44883566727E+02  0.74799596384E+02  0.10000000000E+01 0.  0.
    9000005    1    3    3    0    0 -0.11425431763E+01  0.65418178259E+02 -0.26272248668E+02  0.70512938541E+02  0.10000000000E+01 0.  0.
         -4    1    1    2    0  502  0.18940280377E+02 -0.82982552236E+01  0.73657722741E+02  0.76515804119E+02  0.12700000000E+01 0.  1.
<mgrwt>
<rscale>  1 0.12669879E+03</rscale>
<asrwt>0</asrwt>
<pdfrwt beam="1">  1       21 0.17255607E-01 0.12669879E+03</pdfrwt>
<pdfrwt beam="2">  1       -4 0.16871817E-01 0.12669879E+03</pdfrwt>
<totfact> 0.37440215E+04</totfact>
</mgrwt>
</event>
<event>
 6    4  0.6358868E-003  0.1581768E+03  0.7818608E-02  0.1190771E+00
         21   -1    0    0  501  502  0.00000000000E+00  0.00000000000E+00  0.68182569722E+02  0.68182569722E+02  0.00000000000E+00 0.  1.
          4   -1    0    0  502    0 -0.00000000000E+00 -0.00000000000E+00 -0.40022230213E+03  0.40022431713E+03  0.12700000000E+01 0. -1.
         25    2    1    2    0    0 -0.80046899700E+02  0.54659667366E+02 -0.33601970994E+03  0.37138813346E+03  0.12499885926E+03 0.  0.
    9000005    1    3    3    0    0 -0.10933483536E+02 -0.39506078489E+02 -0.76649137866E+02  0.86927335375E+02  0.10000000000E+01 0.  0.
    9000005    1    3    3    0    0 -0.69113416164E+02  0.94165745855E+02 -0.25937057208E+03  0.28446079808E+03  0.10000000000E+01 0.  0.
          4    1    1    2  501    0  0.80046899700E+02 -0.54659667366E+02  0.39799775395E+01  0.97018753390E+02  0.12700000000E+01 0.  1.
<mgrwt>
<rscale>  1 0.15817680E+03</rscale>
<asrwt>0</asrwt>
<pdfrwt beam="1">  1       21 0.10489626E-01 0.15817680E+03</pdfrwt>
<pdfrwt beam="2">  1        4 0.61573728E-01 0.15817680E+03</pdfrwt>
<totfact> 0.77737650E+03</totfact>
</mgrwt>
</event>
<event>
 6    4  0.6358868E-003  0.1377399E+03  0.7818608E-02  0.1216403E+00
          4   -1    0    0  502    0 -0.00000000000E+00  0.00000000000E+00  0.19838883605E+03  0.19839290101E+03  0.12700000000E+01 0.  1.
         21   -1    0    0  501  502  0.00000000000E+00 -0.00000000000E+00 -0.67368333196E+02  0.67368333196E+02  0.00000000000E+00 0. -1.
         25    2    1    2    0    0  0.40372738235E+02  0.41581642155E+02  0.15105541125E+03  0.20442607780E+03  0.12495316346E+03 0.  0.
    9000005    1    3    3    0    0 -0.43183838893E+00 -0.37683757163E+02  0.86479116701E+02  0.94339226537E+02  0.10000000000E+01 0.  0.
    9000005    1    3    3    0    0  0.40804576624E+02  0.79265399318E+02  0.64576294552E+02  0.11008685126E+03  0.10000000000E+01 0.  0.
          4    1    1    2  501    0 -0.40372738235E+02 -0.41581642155E+02 -0.20034908395E+02  0.61335156406E+02  0.12700000000E+01 0. -1.
<mgrwt>
<rscale>  1 0.13773991E+03</rscale>
<asrwt>0</asrwt>
<pdfrwt beam="2">  1       21 0.10364359E-01 0.13773991E+03</pdfrwt>
<pdfrwt beam="1">  1        4 0.30522593E-01 0.13773991E+03</pdfrwt>
<totfact> 0.31864340E+04</totfact>
</mgrwt>
</event>
<event>
 6    4  0.6358868E-003  0.1272907E+03  0.7818608E-02  0.1231532E+00
         -4   -1    0    0    0  501 -0.00000000000E+00  0.00000000000E+00  0.15428931066E+03  0.15429453744E+03  0.12700000000E+01 0. -1.
         21   -1    0    0  501  502  0.00000000000E+00 -0.00000000000E+00 -0.38602297842E+02  0.38602297842E+02  0.00000000000E+00 0. -1.
         25    2    1    2    0    0 -0.90732558940E+01  0.22275372131E+02  0.10979510807E+03  0.16810079492E+03  0.12499758126E+03 0.  0.
    9000005    1    3    3    0    0 -0.58240630382E+02 -0.10052962405E+02  0.23417917032E+02  0.63580122039E+02  0.10000000000E+01 0.  0.
    9000005    1    3    3    0    0  0.49167374488E+02  0.32328334536E+02  0.86377191042E+02  0.10452067288E+03  0.10000000000E+01 0.  0.
         -4    1    1    2    0  502  0.90732558940E+01 -0.22275372131E+02  0.58919047477E+01  0.24796040363E+02  0.12700000000E+01 0.  1.
<mgrwt>
<rscale>  1 0.12729066E+03</rscale>
<asrwt>0</asrwt>
<pdfrwt beam="2">  1       21 0.59388152E-02 0.12729066E+03</pdfrwt>
<pdfrwt beam="1">  1       -4 0.23738826E-01 0.12729066E+03</pdfrwt>
<totfact> 0.13155136E+05</totfact>
</mgrwt>
</event>
<event>
 6    4  0.6358868E-003  0.1299797E+03  0.7818608E-02  0.1227486E+00
         21   -1    0    0  501  502  0.00000000000E+00  0.00000000000E+00  0.81034408378E+02  0.81034408378E+02  0.00000000000E+00 0. -1.
         -4   -1    0    0    0  501 -0.00000000000E+00 -0.00000000000E+00 -0.10064152026E+03  0.10064953303E+03  0.12700000000E+01 0.  1.
         25    2    1    2    0    0 -0.35379922718E+02  0.43267687316E+01 -0.45387205830E+02  0.13767614661E+03  0.12499705210E+03 0.  0.
    9000005    1    3    3    0    0  0.34722645191E+02 -0.29182545406E+02  0.40949073230E+01  0.45552731108E+02  0.10000000000E+01 0.  0.
    9000005    1    3    3    0    0 -0.70102567909E+02  0.33509314137E+02 -0.49482113153E+02  0.92123415501E+02  0.10000000000E+01 0.  0.
         -4    1    1    2    0  502  0.35379922718E+02 -0.43267687316E+01  0.25780093951E+02  0.44007794801E+02  0.12700000000E+01 0. -1.
<mgrwt>
<rscale>  1 0.12997970E+03</rscale>
<asrwt>0</asrwt>
<pdfrwt beam="1">  1       21 0.12466832E-01 0.12997970E+03</pdfrwt>
<pdfrwt beam="2">  1       -4 0.15484693E-01 0.12997970E+03</pdfrwt>
<totfact> 0.78387138E+04</totfact>
</mgrwt>
</event>
<event>
 6    4  0.6358868E-003  0.1282488E+03  0.7818608E-02  0.1230077E+00
         -4   -1    0    0    0  501 -0.00000000000E+00  0.00000000000E+00  0.97725108722E+03  0.97725191244E+03  0.12700000000E+01 0. -1.
         21   -1    0    0  501  502  0.00000000000E+00 -0.00000000000E+00 -0.34960831749E+02  0.34960831749E+02  0.00000000000E+00 0.  1.
         25    2    1    2    0    0 -0.28077385212E+02  0.58158318319E+01  0.96631185893E+03  0.97478529714E+03  0.12500241333E+03 0.  0.
    9000005    1    3    3    0    0  0.26041873444E+02  0.51302950966E+02  0.43669532370E+03  0.44047017798E+03  0.10000000000E+01 0.  0.
    9000005    1    3    3    0    0 -0.54119258656E+02 -0.45487119134E+02  0.52961653523E+03  0.53431511915E+03  0.10000000000E+01 0.  0.
         -4    1    1    2    0  502  0.28077385212E+02 -0.58158318319E+01 -0.24021603461E+02  0.37427447056E+02  0.12700000000E+01 0.  1.
<mgrwt>
<rscale>  1 0.12824885E+03</rscale>
<asrwt>0</asrwt>
<pdfrwt beam="2">  1       21 0.53785902E-02 0.12824885E+03</pdfrwt>
<pdfrwt beam="1">  1       -4 0.15034814E+00 0.12824885E+03</pdfrwt>
<totfact> 0.30908712E+03</totfact>
</mgrwt>
</event>
<event>
 6    4  0.6358868E-003  0.1277746E+03  0.7818608E-02  0.1230796E+00
         21   -1    0    0  501  502  0.00000000000E+00  0.00000000000E+00  0.10177026758E+04  0.10177026758E+04  0.00000000000E+00 0. -1.
          4   -1    0    0  502    0 -0.00000000000E+00 -0.00000000000E+00 -0.57900621841E+01  0.59277078281E+01  0.12700000000E+01 0. -1.
         25    2    1    2    0    0  0.15822400578E+02 -0.21238208374E+02  0.85449232226E+03  0.86399275997E+03  0.12499980253E+03 0.  0.
    9000005    1    3    3    0    0 -0.25950542588E+02  0.28592199838E+02  0.60275580333E+03  0.60399213819E+03  0.10000000000E+01 0.  0.
    9000005    1    3    3    0    0  0.41772943166E+02 -0.49830408212E+02  0.25173651893E+03  0.26000062178E+03  0.10000000000E+01 0.  0.
          4    1    1    2  501    0 -0.15822400578E+02  0.21238208374E+02  0.15742029133E+03  0.15963762362E+03  0.12700000000E+01 0.  1.
<mgrwt>
<rscale>  1 0.12777465E+03</rscale>
<asrwt>0</asrwt>
<pdfrwt beam="1">  1       21 0.15656950E+00 0.12777465E+03</pdfrwt>
<pdfrwt beam="2">  1        4 0.90142869E-03 0.12777465E+03</pdfrwt>
<totfact> 0.37792301E+04</totfact>
</mgrwt>
</event>
<event>
 6    4  0.6358868E-003  0.1343256E+03  0.7818608E-02  0.1221175E+00
         21   -1    0    0  501  502  0.00000000000E+00  0.00000000000E+00  0.82396271205E+01  0.82396271205E+01  0.00000000000E+00 0. -1.
          4   -1    0    0  502    0 -0.00000000000E+00 -0.00000000000E+00 -0.14417549838E+04  0.14417555431E+04  0.12700000000E+01 0.  1.
         25    2    1    2    0    0  0.75592900425E+01 -0.48544439998E+02 -0.13128700181E+04  0.13197238529E+04  0.12501862998E+03 0.  0.
    9000005    1    3    3    0    0 -0.37275658983E+02 -0.62181970422E+02 -0.47081786675E+03  0.47636806762E+03  0.10000000000E+01 0.  0.
    9000005    1    3    3    0    0  0.44834949025E+02  0.13637530423E+02 -0.84205215135E+03  0.84335578523E+03  0.10000000000E+01 0.  0.
          4    1    1    2  501    0 -0.75592900425E+01  0.48544439998E+02 -0.12064533853E+03  0.13027131737E+03  0.12700000000E+01 0. -1.
<mgrwt>
<rscale>  1 0.13432559E+03</rscale>
<asrwt>0</asrwt>
<pdfrwt beam="1">  1       21 0.12676353E-02 0.13432559E+03</pdfrwt>
<pdfrwt beam="2">  1        4 0.22181598E+00 0.13432559E+03</pdfrwt>
<totfact> 0.11261430E+04</totfact>
</mgrwt>
</event>
<event>
 6    4  0.6358868E-003  0.1569254E+03  0.7818608E-02  0.1192212E+00
         -4   -1    0    0    0  501 -0.00000000000E+00  0.00000000000E+00  0.87193046265E+02  0.87202294792E+02  0.12700000000E+01 0.  1.
         21   -1    0    0  501  502  0.00000000000E+00 -0.00000000000E+00 -0.19031826061E+03  0.19031826061E+03  0.00000000000E+00 0.  1.
         25    2    1    2    0    0 -0.79845314741E+02  0.51242039958E+02 -0.92212165490E+02  0.18201281498E+03  0.12499824161E+03 0.  0.
    9000005    1    3    3    0    0  0.57672550449E+00 -0.40933098549E+01 -0.83929029235E+02  0.84036716655E+02  0.10000000000E+01 0.  0.
    9000005    1    3    3    0    0 -0.80422040245E+02  0.55335349813E+02 -0.82831362552E+01  0.97976098322E+02  0.10000000000E+01 0.  0.
         -4    1    1    2    0  502  0.79845314741E+02 -0.51242039958E+02 -0.10913048851E+02  0.95507740421E+02  0.12700000000E+01 0. -1.
<mgrwt>
<rscale>  1 0.15692540E+03</rscale>
<asrwt>0</asrwt>
<pdfrwt beam="2">  1       21 0.29279732E-01 0.15692540E+03</pdfrwt>
<pdfrwt beam="1">  1       -4 0.13415352E-01 0.15692540E+03</pdfrwt>
<totfact> 0.21192828E+04</totfact>
</mgrwt>
</event>
<event>
 6    4  0.6358868E-003  0.1283818E+03  0.7818608E-02  0.1229877E+00
         21   -1    0    0  501  502  0.00000000000E+00  0.00000000000E+00  0.26682317346E+02  0.26682317346E+02  0.00000000000E+00 0. -1.
         -4   -1    0    0    0  501 -0.00000000000E+00 -0.00000000000E+00 -0.26999136000E+03  0.26999434693E+03  0.12700000000E+01 0. -1.
         25    2    1    2    0    0  0.25674599410E+02 -0.14187561093E+02 -0.23211629219E+03  0.26525433929E+03  0.12498567705E+03 0.  0.
    9000005    1    3    3    0    0  0.31095447648E+02 -0.44425533717E+02 -0.32379232859E+02  0.63166206401E+02  0.10000000000E+01 0.  0.
    9000005    1    3    3    0    0 -0.54208482377E+01  0.30237972625E+02 -0.19973705933E+03  0.20208813289E+03  0.10000000000E+01 0.  0.
         -4    1    1    2    0  502 -0.25674599410E+02  0.14187561093E+02 -0.11192750461E+02  0.31422324986E+02  0.12700000000E+01 0.  1.
<mgrwt>
<rscale>  1 0.12838182E+03</rscale>
<asrwt>0</asrwt>
<pdfrwt beam="1">  1       21 0.41049718E-02 0.12838182E+03</pdfrwt>
<pdfrwt beam="2">  1       -4 0.41539688E-01 0.12838182E+03</pdfrwt>
<totfact> 0.84515012E+04</totfact>
</mgrwt>
</event>
<event>
 6    4  0.6358868E-003  0.1283925E+03  0.7818608E-02  0.1229861E+00
         21   -1    0    0  501  502  0.00000000000E+00  0.00000000000E+00  0.48195591653E+02  0.48195591653E+02  0.00000000000E+00 0.  1.
          4   -1    0    0  502    0 -0.00000000000E+00 -0.00000000000E+00 -0.12917418430E+03  0.12918042727E+03  0.12700000000E+01 0.  1.
         25    2    1    2    0    0 -0.23866564429E+02 -0.17103861850E+02 -0.67228472153E+02  0.14492861993E+03  0.12498992927E+03 0.  0.
    9000005    1    3    3    0    0 -0.35761060268E+02 -0.21934155668E+02  0.26950949990E+02  0.49872981881E+02  0.10000000000E+01 0.  0.
    9000005    1    3    3    0    0  0.11894495839E+02  0.48302938179E+01 -0.94179422143E+02  0.95055638049E+02  0.10000000000E+01 0.  0.
          4    1    1    2  501    0  0.23866564429E+02  0.17103861850E+02 -0.13750120494E+02  0.32447398993E+02  0.12700000000E+01 0. -1.
<mgrwt>
<rscale>  1 0.12839251E+03</rscale>
<asrwt>0</asrwt>
<pdfrwt beam="1">  1       21 0.74147066E-02 0.12839251E+03</pdfrwt>
<pdfrwt beam="2">  1        4 0.19874718E-01 0.12839251E+03</pdfrwt>
<totfact> 0.12451926E+05</totfact>
</mgrwt>
</event>
<event>
 6    4  0.6358868E-003  0.1643941E+03  0.7818608E-02  0.1183823E+00
          4   -1    0    0  502    0 -0.00000000000E+00  0.00000000000E+00  0.10295909050E+03  0.10296692293E+03  0.12700000000E+01 0. -1.
         21   -1    0    0  501  502  0.00000000000E+00 -0.00000000000E+00 -0.20793496768E+03  0.20793496768E+03  0.00000000000E+00 0.  1.
         25    2    1    2    0    0 -0.82630956770E+02  0.67621762236E+02 -0.47655430325E+01  0.16446316037E+03  0.12499937189E+03 0.  0.
    9000005    1    3    3    0    0 -0.25084611841E+02 -0.23814850716E+02  0.35110724923E+02  0.49296530004E+02  0.10000000000E+01 0.  0.
    9000005    1    3    3    0    0 -0.57546344929E+02  0.91436612952E+02 -0.39876267956E+02  0.11516663036E+03  0.10000000000E+01 0.  0.
          4    1    1    2  501    0  0.82630956770E+02 -0.67621762236E+02 -0.10021033414E+03  0.14643873024E+03  0.12700000000E+01 0.  1.
<mgrwt>
<rscale>  1 0.16439410E+03</rscale>
<asrwt>0</asrwt>
<pdfrwt beam="2">  1       21 0.31989995E-01 0.16439410E+03</pdfrwt>
<pdfrwt beam="1">  1        4 0.15840761E-01 0.16439410E+03</pdfrwt>
<totfact> 0.13392455E+04</totfact>
</mgrwt>
</event>
<event>
 6    4  0.6358868E-003  0.1288157E+03  0.7818608E-02  0.1229224E+00
         -4   -1    0    0    0  501 -0.00000000000E+00  0.00000000000E+00  0.10309606440E+02  0.10387535075E+02  0.12700000000E+01 0.  1.
         21   -1    0    0  501  502  0.00000000000E+00 -0.00000000000E+00 -0.63803537466E+03  0.63803537466E+03  0.00000000000E+00 0.  1.
         25    2    1    2    0    0  0.26762853312E+02 -0.15872601959E+02 -0.45368821603E+03  0.47162112162E+03  0.12500118071E+03 0.  0.
    9000005    1    3    3    0    0  0.24531547462E+02  0.32973055025E+02 -0.48879632900E+02  0.63868910207E+02  0.10000000000E+01 0.  0.
    9000005    1    3    3    0    0  0.22313058500E+01 -0.48845656984E+02 -0.40480858313E+03  0.40775221141E+03  0.10000000000E+01 0.  0.
         -4    1    1    2    0  502 -0.26762853312E+02  0.15872601959E+02 -0.17403755219E+03  0.17680178812E+03  0.12700000000E+01 0. -1.
<mgrwt>
<rscale>  1 0.12881570E+03</rscale>
<asrwt>0</asrwt>
<pdfrwt beam="2">  1       21 0.98159290E-01 0.12881570E+03</pdfrwt>
<pdfrwt beam="1">  1       -4 0.15921850E-02 0.12881570E+03</pdfrwt>
<totfact> 0.50570425E+04</totfact>
</mgrwt>
</event>
<event>
 6    4  0.6358868E-003  0.1278227E+03  0.7818608E-02  0.1230723E+00
          4   -1    0    0  502    0 -0.00000000000E+00  0.00000000000E+00  0.15728660786E+03  0.15729173505E+03  0.12700000000E+01 0. -1.
         21   -1    0    0  501  502  0.00000000000E+00 -0.00000000000E+00 -0.56758271236E+02  0.56758271236E+02  0.00000000000E+00 0.  1.
         25    2    1    2    0    0  0.63114979247E+01 -0.25953171395E+02  0.12428261668E+03  0.17828297073E+03  0.12500098693E+03 0.  0.
    9000005    1    3    3    0    0  0.14676935965E+02 -0.13599698621E+02 -0.22852038175E+02  0.30390457394E+02  0.10000000000E+01 0.  0.
    9000005    1    3    3    0    0 -0.83654380402E+01 -0.12353472774E+02  0.14713465485E+03  0.14789251334E+03  0.10000000000E+01 0.  0.
          4    1    1    2  501    0 -0.63114979247E+01  0.25953171395E+02 -0.23754280047E+02  0.35767035550E+02  0.12700000000E+01 0.  1.
<mgrwt>
<rscale>  1 0.12782272E+03</rscale>
<asrwt>0</asrwt>
<pdfrwt beam="2">  1       21 0.87320418E-02 0.12782272E+03</pdfrwt>
<pdfrwt beam="1">  1        4 0.24199427E-01 0.12782272E+03</pdfrwt>
<totfact> 0.65650236E+04</totfact>
</mgrwt>
</event>
<event>
 6    4  0.6358868E-003  0.1270237E+03  0.7818608E-02  0.1231940E+00
         21   -1    0    0  501  502  0.00000000000E+00  0.00000000000E+00  0.16156585276E+03  0.16156585276E+03  0.00000000000E+00 0.  1.
          4   -1    0    0  502    0 -0.00000000000E+00 -0.00000000000E+00 -0.38364193343E+02  0.38385208491E+02  0.12700000000E+01 0. -1.
         25    2    1    2    0    0  0.22527263434E+02  0.15157727739E+01  0.77072880370E+02  0.14857740729E+03  0.12500096761E+03 0.  0.
    9000005    1    3    3    0    0 -0.21167890293E+02 -0.36140853003E+02 -0.10977906809E+02  0.43309990455E+02  0.10000000000E+01 0.  0.
    9000005    1    3    3    0    0  0.43695153728E+02  0.37656625777E+02  0.88050787180E+02  0.10526741684E+03  0.10000000000E+01 0.  0.
          4    1    1    2  501    0 -0.22527263434E+02 -0.15157727739E+01  0.46128779044E+02  0.51373653958E+02  0.12700000000E+01 0.  1.
<mgrwt>
<rscale>  1 0.12702369E+03</rscale>
<asrwt>0</asrwt>
<pdfrwt beam="1">  1       21 0.24856285E-01 0.12702369E+03</pdfrwt>
<pdfrwt beam="2">  1        4 0.59041842E-02 0.12702369E+03</pdfrwt>
<totfact> 0.11173638E+05</totfact>
</mgrwt>
</event>
<event>
 6    4  0.6358868E-003  0.1387384E+03  0.7818608E-02  0.1215037E+00
         21   -1    0    0  501  502  0.00000000000E+00  0.00000000000E+00  0.83542103880E+02  0.83542103880E+02  0.00000000000E+00 0. -1.
         -4   -1    0    0    0  501 -0.00000000000E+00 -0.00000000000E+00 -0.31846889904E+03  0.31847143130E+03  0.12700000000E+01 0.  1.
         25    2    1    2    0    0 -0.18713284308E+02  0.57210401317E+02 -0.28932634019E+03  0.32087081876E+03  0.12500053671E+03 0.  0.
    9000005    1    3    3    0    0 -0.13545217425E+02  0.64486058987E+02 -0.29986724036E+03  0.30702326713E+03  0.10000000000E+01 0.  0.
    9000005    1    3    3    0    0 -0.51680668830E+01 -0.72756576698E+01  0.10540900170E+02  0.13847551633E+02  0.10000000000E+01 0.  0.
         -4    1    1    2    0  502  0.18713284308E+02 -0.57210401317E+02  0.54399545029E+02  0.81142716419E+02  0.12700000000E+01 0. -1.
<mgrwt>
<rscale>  1 0.13873843E+03</rscale>
<asrwt>0</asrwt>
<pdfrwt beam="1">  1       21 0.12852631E-01 0.13873843E+03</pdfrwt>
<pdfrwt beam="2">  1       -4 0.48996153E-01 0.13873843E+03</pdfrwt>
<totfact> 0.86163203E+03</totfact>
</mgrwt>
</event>
<event>
 6    4  0.6358868E-003  0.1313336E+03  0.7818608E-02  0.1225490E+00
          4   -1    0    0  502    0 -0.00000000000E+00  0.00000000000E+00  0.54696405897E+02  0.54711148023E+02  0.12700000000E+01 0.  1.
         21   -1    0    0  501  502  0.00000000000E+00 -0.00000000000E+00 -0.25052140593E+03  0.25052140593E+03  0.00000000000E+00 0.  1.
         25    2    1    2    0    0  0.40182545288E+02  0.29210601780E+01 -0.30183935127E+02  0.13475749765E+03  0.12500137477E+03 0.  0.
    9000005    1    3    3    0    0 -0.27992859562E+02  0.85668122055E+01  0.31232360146E+02  0.42818813367E+02  0.10000000000E+01 0.  0.
    9000005    1    3    3    0    0  0.68175404851E+02 -0.56457520275E+01 -0.61416295273E+02  0.91938684283E+02  0.10000000000E+01 0.  0.
          4    1    1    2  501    0 -0.40182545288E+02 -0.29210601780E+01 -0.16564106491E+03  0.17047505631E+03  0.12700000000E+01 0. -1.
<mgrwt>
<rscale>  1 0.13133360E+03</rscale>
<asrwt>0</asrwt>
<pdfrwt beam="2">  1       21 0.38541754E-01 0.13133360E+03</pdfrwt>
<pdfrwt beam="1">  1        4 0.84162134E-02 0.13133360E+03</pdfrwt>
<totfact> 0.26814290E+04</totfact>
</mgrwt>
</event>
<event>
 6    4  0.6358868E-003  0.1273391E+03  0.7818608E-02  0.1231458E+00
         21   -1    0    0  501  502  0.00000000000E+00  0.00000000000E+00  0.56362478513E+01  0.56362478513E+01  0.00000000000E+00 0.  1.
         -4   -1    0    0    0  501 -0.00000000000E+00 -0.00000000000E+00 -0.11210650299E+04  0.11210657492E+04  0.12700000000E+01 0.  1.
         25    2    1    2    0    0 -0.23946806997E+02  0.40892605524E+01 -0.77375319298E+03  0.78416149924E+03  0.12500032650E+03 0.  0.
    9000005    1    3    3    0    0 -0.30245136735E+01 -0.22821553414E+02 -0.72085882780E+03  0.72122702431E+03  0.10000000000E+01 0.  0.
    9000005    1    3    3    0    0 -0.20922293324E+02  0.26910813967E+02 -0.52894365176E+02  0.62934474921E+02  0.10000000000E+01 0.  0.
         -4    1    1    2    0  502  0.23946806997E+02 -0.40892605524E+01 -0.34167558905E+03  0.34254049786E+03  0.12700000000E+01 0. -1.
<mgrwt>
<rscale>  1 0.12733913E+03</rscale>
<asrwt>0</asrwt>
<pdfrwt beam="1">  1       21 0.86711525E-03 0.12733913E+03</pdfrwt>
<pdfrwt beam="2">  1       -4 0.17248257E+00 0.12733913E+03</pdfrwt>
<totfact> 0.41608172E+04</totfact>
</mgrwt>
</event>
<event>
 6    4  0.6358868E-003  0.1300801E+03  0.7818608E-02  0.1227337E+00
          4   -1    0    0  502    0 -0.00000000000E+00  0.00000000000E+00  0.55514401539E+03  0.55514546807E+03  0.12700000000E+01 0. -1.
         21   -1    0    0  501  502  0.00000000000E+00 -0.00000000000E+00 -0.28251565830E+02  0.28251565830E+02  0.00000000000E+00 0.  1.
         25    2    1    2    0    0 -0.32305241437E+02 -0.15986348352E+02  0.53136381851E+03  0.54705424923E+03  0.12498660737E+03 0.  0.
    9000005    1    3    3    0    0 -0.71480668247E+02  0.86056628553E+01  0.42511107935E+03  0.43116583022E+03  0.10000000000E+01 0.  0.
    9000005    1    3    3    0    0  0.39175426810E+02 -0.24592011207E+02  0.10625273915E+03  0.11588841900E+03  0.10000000000E+01 0.  0.
          4    1    1    2  501    0  0.32305241437E+02  0.15986348352E+02 -0.44713689444E+01  0.36342784678E+02  0.12700000000E+01 0.  1.
<mgrwt>
<rscale>  1 0.13008014E+03</rscale>
<asrwt>0</asrwt>
<pdfrwt beam="2">  1       21 0.43463952E-02 0.13008014E+03</pdfrwt>
<pdfrwt beam="1">  1        4 0.85409071E-01 0.13008014E+03</pdfrwt>
<totfact> 0.16956144E+04</totfact>
</mgrwt>
</event>
<event>
 6    4  0.6358868E-003  0.1355738E+03  0.7818608E-02  0.1219412E+00
          4   -1    0    0  502    0 -0.00000000000E+00  0.00000000000E+00  0.19643316296E+02  0.19684328160E+02  0.12700000000E+01 0. -1.
         21   -1    0    0  501  502  0.00000000000E+00 -0.00000000000E+00 -0.11329618211E+04  0.11329618211E+04  0.00000000000E+00 0.  1.
         25    2    1    2    0    0  0.51112386127E+02 -0.11926410394E+02 -0.22437319745E+03  0.26215185526E+03  0.12500219279E+03 0.  0.
    9000005    1    3    3    0    0 -0.16345528535E+01  0.44907348841E+02 -0.14233886543E+03  0.14926719115E+03  0.10000000000E+01 0.  0.
    9000005    1    3    3    0    0  0.52746938980E+02 -0.56833759235E+02 -0.82034332021E+02  0.11288466411E+03  0.10000000000E+01 0.  0.
          4    1    1    2  501    0 -0.51112386127E+02  0.11926410394E+02 -0.88894530735E+03  0.89049429400E+03  0.12700000000E+01 0.  1.
<mgrwt>
<rscale>  1 0.13557383E+03</rscale>
<asrwt>0</asrwt>
<pdfrwt beam="2">  1       21 0.17430180E+00 0.13557383E+03</pdfrwt>
<pdfrwt beam="1">  1        4 0.30252585E-02 0.13557383E+03</pdfrwt>
<totfact> 0.44564566E+03</totfact>
</mgrwt>
</event>
<event>
 6    4  0.6358868E-003  0.1287830E+03  0.7818608E-02  0.1229273E+00
         21   -1    0    0  501  502  0.00000000000E+00  0.00000000000E+00  0.94372445460E+01  0.94372445460E+01  0.00000000000E+00 0. -1.
          4   -1    0    0  502    0 -0.00000000000E+00 -0.00000000000E+00 -0.94154732047E+03  0.94154817698E+03  0.12700000000E+01 0.  1.
         25    2    1    2    0    0  0.19662808860E+02 -0.23948705263E+02 -0.88665426329E+03  0.89595806163E+03  0.12499959617E+03 0.  0.
    9000005    1    3    3    0    0 -0.43012339934E+02 -0.17413731308E+02 -0.16056803711E+03  0.16714183786E+03  0.10000000000E+01 0.  0.
    9000005    1    3    3    0    0  0.62675148795E+02 -0.65349739545E+01 -0.72608622619E+03  0.72881622376E+03  0.10000000000E+01 0.  0.
          4    1    1    2  501    0 -0.19662808860E+02  0.23948705263E+02 -0.45455812629E+02  0.55027359902E+02  0.12700000000E+01 0. -1.
<mgrwt>
<rscale>  1 0.12878302E+03</rscale>
<asrwt>0</asrwt>
<pdfrwt beam="1">  1       21 0.14518829E-02 0.12878302E+03</pdfrwt>
<pdfrwt beam="2">  1        4 0.14486016E+00 0.12878302E+03</pdfrwt>
<totfact> 0.28971860E+04</totfact>
</mgrwt>
</event>
<event>
 6    4  0.6358868E-003  0.1558911E+03  0.7818608E-02  0.1193415E+00
          4   -1    0    0  502    0 -0.00000000000E+00  0.00000000000E+00  0.22618808190E+03  0.22619164727E+03  0.12700000000E+01 0. -1.
         21   -1    0    0  501  502  0.00000000000E+00 -0.00000000000E+00 -0.88754071352E+02  0.88754071352E+02  0.00000000000E+00 0.  1.
         25    2    1    2    0    0  0.81687168817E+02 -0.44780309042E+02  0.15534205497E+03  0.22007538299E+03  0.12499580205E+03 0.  0.
    9000005    1    3    3    0    0  0.92224361812E+02  0.10253306163E+02  0.63359362766E+02  0.11236490577E+03  0.10000000000E+01 0.  0.
    9000005    1    3    3    0    0 -0.10537192995E+02 -0.55033615205E+02  0.91982692204E+02  0.10771047722E+03  0.10000000000E+01 0.  0.
          4    1    1    2  501    0 -0.81687168817E+02  0.44780309042E+02 -0.17908044418E+02  0.94870335628E+02  0.12700000000E+01 0.  1.
<mgrwt>
<rscale>  1 0.15589105E+03</rscale>
<asrwt>0</asrwt>
<pdfrwt beam="2">  1       21 0.13654473E-01 0.15589105E+03</pdfrwt>
<pdfrwt beam="1">  1        4 0.34799139E-01 0.15589105E+03</pdfrwt>
<totfact> 0.15380306E+04</totfact>
</mgrwt>
</event>
<event>
 6    4  0.6358868E-003  0.1343035E+03  0.7818608E-02  0.1221206E+00
         21   -1    0    0  501  502  0.00000000000E+00  0.00000000000E+00  0.52587846601E+02  0.52587846601E+02  0.00000000000E+00 0. -1.
          4   -1    0    0  502    0 -0.00000000000E+00 -0.00000000000E+00 -0.38279584377E+03  0.38279795050E+03  0.12700000000E+01 0.  1.
         25    2    1    2    0    0  0.39279995701E+02 -0.29478535544E+02 -0.35557659542E+03  0.38009492266E+03  0.12500213159E+03 0.  0.
    9000005    1    3    3    0    0  0.83514964836E+02 -0.24712853144E+02 -0.26900937649E+03  0.28275876486E+03  0.10000000000E+01 0.  0.
    9000005    1    3    3    0    0 -0.44234969136E+02 -0.47656824001E+01 -0.86567218925E+02  0.97336157802E+02  0.10000000000E+01 0.  0.
          4    1    1    2  501    0 -0.39279995701E+02  0.29478535544E+02  0.25368598246E+02  0.55290874447E+02  0.12700000000E+01 0. -1.
<mgrwt>
<rscale>  1 0.13430352E+03</rscale>
<asrwt>0</asrwt>
<pdfrwt beam="1">  1       21 0.80904377E-02 0.13430352E+03</pdfrwt>
<pdfrwt beam="2">  1        4 0.58893012E-01 0.13430352E+03</pdfrwt>
<totfact> 0.13245669E+04</totfact>
</mgrwt>
</event>
<event>
 6    4  0.6358868E-003  0.1295979E+03  0.7818608E-02  0.1228054E+00
         21   -1    0    0  501  502  0.00000000000E+00  0.00000000000E+00  0.19820304108E+03  0.19820304108E+03  0.00000000000E+00 0.  1.
          4   -1    0    0  502    0 -0.00000000000E+00 -0.00000000000E+00 -0.38869805818E+02  0.38890547751E+02  0.12700000000E+01 0. -1.
         25    2    1    2    0    0 -0.32419497588E+02 -0.10928003389E+02  0.84255995060E+02  0.15457904479E+03  0.12500065321E+03 0.  0.
    9000005    1    3    3    0    0  0.14313573827E+02 -0.39116053245E+02 -0.12490006378E+02  0.43496485795E+02  0.10000000000E+01 0.  0.
    9000005    1    3    3    0    0 -0.46733071414E+02  0.28188049857E+02  0.96746001438E+02  0.11108255899E+03  0.10000000000E+01 0.  0.
          4    1    1    2  501    0  0.32419497588E+02  0.10928003389E+02  0.75077240199E+02  0.82514544038E+02  0.12700000000E+01 0.  1.
<mgrwt>
<rscale>  1 0.12959787E+03</rscale>
<asrwt>0</asrwt>
<pdfrwt beam="1">  1       21 0.30492775E-01 0.12959787E+03</pdfrwt>
<pdfrwt beam="2">  1        4 0.59818788E-02 0.12959787E+03</pdfrwt>
<totfact> 0.74235142E+04</totfact>
</mgrwt>
</event>
<event>
 6    4  0.6358868E-003  0.1349365E+03  0.7818608E-02  0.1220309E+00
         -4   -1    0    0    0  501 -0.00000000000E+00  0.00000000000E+00  0.13150416501E+02  0.13211599228E+02  0.12700000000E+01 0.  1.
         21   -1    0    0  501  502  0.00000000000E+00 -0.00000000000E+00 -0.11619432228E+04  0.11619432228E+04  0.00000000000E+00 0.  1.
         25    2    1    2    0    0  0.24871825503E+02 -0.44322834981E+02 -0.35570406363E+03  0.38043821338E+03  0.12499892766E+03 0.  0.
    9000005    1    3    3    0    0  0.50658244542E+02 -0.56192193673E+02 -0.11247413219E+03  0.13555534214E+03  0.10000000000E+01 0.  0.
    9000005    1    3    3    0    0 -0.25786419039E+02  0.11869358693E+02 -0.24322993144E+03  0.24488287125E+03  0.10000000000E+01 0.  0.
         -4    1    1    2    0  502 -0.24871825503E+02  0.44322834981E+02 -0.79308874267E+03  0.79471660865E+03  0.12700000000E+01 0. -1.
<mgrwt>
<rscale>  1 0.13493648E+03</rscale>
<asrwt>0</asrwt>
<pdfrwt beam="2">  1       21 0.17876049E+00 0.13493648E+03</pdfrwt>
<pdfrwt beam="1">  1       -4 0.20279008E-02 0.13493648E+03</pdfrwt>
<totfact> 0.77378775E+03</totfact>
</mgrwt>
</event>
<event>
 6    4  0.6358868E-003  0.1316568E+03  0.7818608E-02  0.1225018E+00
         21   -1    0    0  501  502  0.00000000000E+00  0.00000000000E+00  0.31442091780E+02  0.31442091780E+02  0.00000000000E+00 0. -1.
         -4   -1    0    0    0  501 -0.00000000000E+00 -0.00000000000E+00 -0.24979594673E+03  0.24979917514E+03  0.12700000000E+01 0. -1.
         25    2    1    2    0    0 -0.11527278714E+02  0.39677865099E+02 -0.18983090581E+03  0.23101793907E+03  0.12500521684E+03 0.  0.
    9000005    1    3    3    0    0 -0.40206848666E+02 -0.29860408421E+02 -0.11242258297E+03  0.12307750335E+03  0.10000000000E+01 0.  0.
    9000005    1    3    3    0    0  0.28679569951E+02  0.69538273520E+02 -0.77408322844E+02  0.10794043571E+03  0.10000000000E+01 0.  0.
         -4    1    1    2    0  502  0.11527278714E+02 -0.39677865099E+02 -0.28522949138E+02  0.50223327855E+02  0.12700000000E+01 0.  1.
<mgrwt>
<rscale>  1 0.13165681E+03</rscale>
<asrwt>0</asrwt>
<pdfrwt beam="1">  1       21 0.48372450E-02 0.13165681E+03</pdfrwt>
<pdfrwt beam="2">  1       -4 0.38432366E-01 0.13165681E+03</pdfrwt>
<totfact> 0.75127813E+04</totfact>
</mgrwt>
</event>
<event>
 6    4  0.6358868E-003  0.1281184E+03  0.7818608E-02  0.1230275E+00
          4   -1    0    0  502    0 -0.00000000000E+00  0.00000000000E+00  0.11175842666E+04  0.11175849882E+04  0.12700000000E+01 0.  1.
         21   -1    0    0  501  502  0.00000000000E+00 -0.00000000000E+00 -0.40929240544E+02  0.40929240544E+02  0.00000000000E+00 0. -1.
         25    2    1    2    0    0  0.25121581229E+02  0.12543879590E+02  0.11085915120E+04  0.11159701951E+04  0.12500357196E+03 0.  0.
    9000005    1    3    3    0    0  0.40172222966E+01 -0.15720764632E+02  0.10263341277E+04  0.10264628693E+04  0.10000000000E+01 0.  0.
    9000005    1    3    3    0    0  0.21104358932E+02  0.28264644222E+02  0.82257384345E+02  0.89507325723E+02  0.10000000000E+01 0.  0.
          4    1    1    2  501    0 -0.25121581229E+02 -0.12543879590E+02 -0.31936486012E+02  0.42544033628E+02  0.12700000000E+01 0. -1.
<mgrwt>
<rscale>  1 0.12811844E+03</rscale>
<asrwt>0</asrwt>
<pdfrwt beam="2">  1       21 0.62968071E-02 0.12811844E+03</pdfrwt>
<pdfrwt beam="1">  1        4 0.17193759E+00 0.12811844E+03</pdfrwt>
<totfact> 0.16691588E+03</totfact>
</mgrwt>
</event>
<event>
 6    4  0.6358868E-003  0.1281741E+03  0.7818608E-02  0.1230190E+00
         21   -1    0    0  501  502  0.00000000000E+00  0.00000000000E+00  0.17085712442E+03  0.17085712442E+03  0.00000000000E+00 0.  1.
          4   -1    0    0  502    0 -0.00000000000E+00 -0.00000000000E+00 -0.55858578054E+02  0.55873013541E+02  0.12700000000E+01 0. -1.
         25    2    1    2    0    0  0.28350453838E+02  0.72426971288E+00  0.22705249145E+02  0.13016959524E+03  0.12499728951E+03 0.  0.
    9000005    1    3    3    0    0  0.68006187874E+02  0.33381919917E+02  0.21571676489E+02  0.78775195290E+02  0.10000000000E+01 0.  0.
    9000005    1    3    3    0    0 -0.39655734036E+02 -0.32657650204E+02  0.11335726558E+01  0.51394399945E+02  0.10000000000E+01 0.  0.
          4    1    1    2  501    0 -0.28350453838E+02 -0.72426971288E+00  0.92293297217E+02  0.96560542721E+02  0.12700000000E+01 0.  1.
<mgrwt>
<rscale>  1 0.12817408E+03</rscale>
<asrwt>0</asrwt>
<pdfrwt beam="1">  1       21 0.26285711E-01 0.12817408E+03</pdfrwt>
<pdfrwt beam="2">  1        4 0.85951010E-02 0.12817408E+03</pdfrwt>
<totfact> 0.54322925E+04</totfact>
</mgrwt>
</event>
<event>
 6    4  0.6358868E-003  0.1280041E+03  0.7818608E-02  0.1230448E+00
          4   -1    0    0  502    0 -0.00000000000E+00  0.00000000000E+00  0.17331262886E+02  0.17377732108E+02  0.12700000000E+01 0.  1.
         21   -1    0    0  501  502  0.00000000000E+00 -0.00000000000E+00 -0.38135964457E+03  0.38135964457E+03  0.00000000000E+00 0.  1.
         25    2    1    2    0    0  0.22950115962E+02  0.15269559617E+02 -0.24355222591E+03  0.27514132382E+03  0.12500077620E+03 0.  0.
    9000005    1    3    3    0    0  0.59172442563E+02 -0.35353281375E+01 -0.50680029086E+02  0.77995780989E+02  0.10000000000E+01 0.  0.
    9000005    1    3    3    0    0 -0.36222326601E+02  0.18804887754E+02 -0.19287219683E+03  0.19714554283E+03  0.10000000000E+01 0.  0.
          4    1    1    2  501    0 -0.22950115962E+02 -0.15269559617E+02 -0.12047615578E+03  0.12359605287E+03  0.12700000000E+01 0. -1.
<mgrwt>
<rscale>  1 0.12800415E+03</rscale>
<asrwt>0</asrwt>
<pdfrwt beam="2">  1       21 0.58670715E-01 0.12800415E+03</pdfrwt>
<pdfrwt beam="1">  1        4 0.26700853E-02 0.12800415E+03</pdfrwt>
<totfact> 0.71251638E+04</totfact>
</mgrwt>
</event>
<event>
 6    4  0.6358868E-003  0.1308146E+03  0.7818608E-02  0.1226252E+00
         21   -1    0    0  501  502  0.00000000000E+00  0.00000000000E+00  0.13991874139E+02  0.13991874139E+02  0.00000000000E+00 0.  1.
          4   -1    0    0  502    0 -0.00000000000E+00 -0.00000000000E+00 -0.52079931394E+03  0.52080086242E+03  0.12700000000E+01 0.  1.
         25    2    1    2    0    0  0.11389141378E+02 -0.36852379798E+02 -0.36124153075E+03  0.38419772597E+03  0.12499855464E+03 0.  0.
    9000005    1    3    3    0    0  0.26819142506E+02  0.42126672890E+02 -0.12423602482E+03  0.13390113083E+03  0.10000000000E+01 0.  0.
    9000005    1    3    3    0    0 -0.15430001128E+02 -0.78979052687E+02 -0.23700550593E+03  0.25029659514E+03  0.10000000000E+01 0.  0.
          4    1    1    2  501    0 -0.11389141378E+02  0.36852379798E+02 -0.14556590905E+03  0.15059501060E+03  0.12700000000E+01 0. -1.
<mgrwt>
<rscale>  1 0.13081456E+03</rscale>
<asrwt>0</asrwt>
<pdfrwt beam="1">  1       21 0.21525957E-02 0.13081456E+03</pdfrwt>
<pdfrwt beam="2">  1        4 0.80127536E-01 0.13081456E+03</pdfrwt>
<totfact> 0.62002558E+04</totfact>
</mgrwt>
</event>
<event>
 6    4  0.6358868E-003  0.1272858E+03  0.7818608E-02  0.1231540E+00
         21   -1    0    0  501  502  0.00000000000E+00  0.00000000000E+00  0.97758955769E+01  0.97758955769E+01  0.00000000000E+00 0.  1.
          4   -1    0    0  502    0 -0.00000000000E+00 -0.00000000000E+00 -0.68133984171E+03  0.68134102533E+03  0.12700000000E+01 0.  1.
         25    2    1    2    0    0 -0.23897705713E+02 -0.23717397209E+01 -0.63298673564E+03  0.64565771329E+03  0.12499979901E+03 0.  0.
    9000005    1    3    3    0    0  0.38480514427E+02 -0.68181898232E+01 -0.46094717415E+03  0.46260191856E+03  0.10000000000E+01 0.  0.
    9000005    1    3    3    0    0 -0.62378220139E+02  0.44464501023E+01 -0.17203956149E+03  0.18305579473E+03  0.10000000000E+01 0.  0.
          4    1    1    2  501    0  0.23897705713E+02  0.23717397209E+01 -0.38577210493E+02  0.45459207615E+02  0.12700000000E+01 0. -1.
<mgrwt>
<rscale>  1 0.12728580E+03</rscale>
<asrwt>0</asrwt>
<pdfrwt beam="1">  1       21 0.15039834E-02 0.12728580E+03</pdfrwt>
<pdfrwt beam="2">  1        4 0.10482799E+00 0.12728580E+03</pdfrwt>
<totfact> 0.59756816E+04</totfact>
</mgrwt>
</event>
<event>
 6    4  0.6358868E-003  0.1381181E+03  0.7818608E-02  0.1215884E+00
          4   -1    0    0  502    0 -0.00000000000E+00  0.00000000000E+00  0.68113023729E+02  0.68124862580E+02  0.12700000000E+01 0.  1.
         21   -1    0    0  501  502  0.00000000000E+00 -0.00000000000E+00 -0.19995740187E+03  0.19995740187E+03  0.00000000000E+00 0. -1.
         25    2    1    2    0    0  0.53434843887E+02 -0.24417344839E+02 -0.17108435707E+02  0.13917361984E+03  0.12500043446E+03 0.  0.
    9000005    1    3    3    0    0  0.34640567720E+02  0.40736242944E+02  0.25324037497E+02  0.59175309854E+02  0.10000000000E+01 0.  0.
    9000005    1    3    3    0    0  0.18794276167E+02 -0.65153587784E+02 -0.42432473204E+02  0.79998309982E+02  0.10000000000E+01 0.  0.
          4    1    1    2  501    0 -0.53434843887E+02  0.24417344839E+02 -0.11473594244E+03  0.12890864462E+03  0.12700000000E+01 0. -1.
<mgrwt>
<rscale>  1 0.13811806E+03</rscale>
<asrwt>0</asrwt>
<pdfrwt beam="2">  1       21 0.30762677E-01 0.13811806E+03</pdfrwt>
<pdfrwt beam="1">  1        4 0.10480148E-01 0.13811806E+03</pdfrwt>
<totfact> 0.29041160E+04</totfact>
</mgrwt>
</event>
<event>
 6    4  0.6358868E-003  0.1274396E+03  0.7818608E-02  0.1231305E+00
         -4   -1    0    0    0  501 -0.00000000000E+00  0.00000000000E+00  0.47662178633E+03  0.47662347834E+03  0.12700000000E+01 0. -1.
         21   -1    0    0  501  502  0.00000000000E+00 -0.00000000000E+00 -0.12878650281E+02  0.12878650281E+02  0.00000000000E+00 0. -1.
         25    2    1    2    0    0 -0.73213911035E+00 -0.24811273572E+02  0.42296160527E+03  0.44174355372E+03  0.12499884958E+03 0.  0.
    9000005    1    3    3    0    0 -0.23178482860E+02  0.41859668862E+02  0.95639979950E+02  0.10694615332E+03  0.10000000000E+01 0.  0.
    9000005    1    3    3    0    0  0.22446343750E+02 -0.66670942434E+02  0.32732162532E+03  0.33479740040E+03  0.10000000000E+01 0.  0.
         -4    1    1    2    0  502  0.73213911035E+00  0.24811273572E+02  0.40781530776E+02  0.47758574899E+02  0.12700000000E+01 0.  1.
<mgrwt>
<rscale>  1 0.12743958E+03</rscale>
<asrwt>0</asrwt>
<pdfrwt beam="2">  1       21 0.19813312E-02 0.12743958E+03</pdfrwt>
<pdfrwt beam="1">  1       -4 0.73331362E-01 0.12743958E+03</pdfrwt>
<totfact> 0.85760713E+04</totfact>
</mgrwt>
</event>
<event>
 6    4  0.6358868E-003  0.1268893E+03  0.7818608E-02  0.1232146E+00
         21   -1    0    0  501  502  0.00000000000E+00  0.00000000000E+00  0.11651765303E+03  0.11651765303E+03  0.00000000000E+00 0. -1.
          4   -1    0    0  502    0 -0.00000000000E+00 -0.00000000000E+00 -0.71510054511E+02  0.71521331057E+02  0.12700000000E+01 0.  1.
         25    2    1    2    0    0 -0.21552266624E+02  0.35185063033E+01 -0.11535029351E+02  0.12741257277E+03  0.12499610679E+03 0.  0.
    9000005    1    3    3    0    0  0.45751751223E+01  0.54937605132E+02  0.23484297029E+02  0.59929833072E+02  0.10000000000E+01 0.  0.
    9000005    1    3    3    0    0 -0.26127441747E+02 -0.51419098829E+02 -0.35019326380E+02  0.67482739695E+02  0.10000000000E+01 0.  0.
          4    1    1    2  501    0  0.21552266624E+02 -0.35185063033E+01  0.56542627867E+02  0.60626411318E+02  0.12700000000E+01 0. -1.
<mgrwt>
<rscale>  1 0.12688935E+03</rscale>
<asrwt>0</asrwt>
<pdfrwt beam="1">  1       21 0.17925793E-01 0.12688935E+03</pdfrwt>
<pdfrwt beam="2">  1        4 0.11002947E-01 0.12688935E+03</pdfrwt>
<totfact> 0.73127157E+04</totfact>
</mgrwt>
</event>
<event>
 6    4  0.6358868E-003  0.1302512E+03  0.7818608E-02  0.1227083E+00
         -4   -1    0    0    0  501 -0.00000000000E+00  0.00000000000E+00  0.85072263948E+03  0.85072358744E+03  0.12700000000E+01 0.  1.
         21   -1    0    0  501  502  0.00000000000E+00 -0.00000000000E+00 -0.84622825986E+01  0.84622825986E+01  0.00000000000E+00 0.  1.
         25    2    1    2    0    0  0.31879354074E+02 -0.18007276304E+02  0.58463478311E+03  0.59896845253E+03  0.12499928912E+03 0.  0.
    9000005    1    3    3    0    0  0.52776969346E+02  0.35944039964E+02  0.19845193229E+03  0.20847434358E+03  0.10000000000E+01 0.  0.
    9000005    1    3    3    0    0 -0.20897615273E+02 -0.53951316267E+02  0.38618285082E+03  0.39049410894E+03  0.10000000000E+01 0.  0.
         -4    1    1    2    0  502 -0.31879354074E+02  0.18007276304E+02  0.25762557377E+03  0.26021741751E+03  0.12700000000E+01 0. -1.
<mgrwt>
<rscale>  1 0.13025121E+03</rscale>
<asrwt>0</asrwt>
<pdfrwt beam="2">  1       21 0.13018903E-02 0.13025121E+03</pdfrwt>
<pdfrwt beam="1">  1       -4 0.13088774E+00 0.13025121E+03</pdfrwt>
<totfact> 0.44398009E+04</totfact>
</mgrwt>
</event>
<event>
 6    4  0.6358868E-003  0.1314123E+03  0.7818608E-02  0.1225375E+00
         21   -1    0    0  501  502  0.00000000000E+00  0.00000000000E+00  0.98774038055E+02  0.98774038055E+02  0.00000000000E+00 0.  1.
          4   -1    0    0  502    0 -0.00000000000E+00 -0.00000000000E+00 -0.76163836505E+02  0.76174424128E+02  0.12700000000E+01 0. -1.
         25    2    1    2    0    0 -0.39490715776E+02 -0.92009195021E+01  0.73931488453E+01  0.13162012105E+03  0.12500009625E+03 0.  0.
    9000005    1    3    3    0    0 -0.16164283212E+02 -0.31204443705E+02 -0.52786693391E+02  0.63422680153E+02  0.10000000000E+01 0.  0.
    9000005    1    3    3    0    0 -0.23326432564E+02  0.22003524202E+02  0.60179842236E+02  0.68197440898E+02  0.10000000000E+01 0.  0.
          4    1    1    2  501    0  0.39490715776E+02  0.92009195021E+01  0.15217052704E+02  0.43328341131E+02  0.12700000000E+01 0.  1.
<mgrwt>
<rscale>  1 0.13141232E+03</rscale>
<asrwt>0</asrwt>
<pdfrwt beam="1">  1       21 0.15196006E-01 0.13141232E+03</pdfrwt>
<pdfrwt beam="2">  1        4 0.11718956E-01 0.13141232E+03</pdfrwt>
<totfact> 0.89109844E+04</totfact>
</mgrwt>
</event>
<event>
 6    4  0.6358868E-003  0.1289997E+03  0.7818608E-02  0.1228948E+00
          4   -1    0    0  502    0 -0.00000000000E+00  0.00000000000E+00  0.21297721264E+02  0.21335553217E+02  0.12700000000E+01 0.  1.
         21   -1    0    0  501  502  0.00000000000E+00 -0.00000000000E+00 -0.32094984602E+03  0.32094984602E+03  0.00000000000E+00 0.  1.
         25    2    1    2    0    0  0.13411088919E+02  0.28913479902E+02 -0.20313605581E+03  0.24063496348E+03  0.12500032740E+03 0.  0.
    9000005    1    3    3    0    0 -0.40462513880E+02  0.21471671293E+02 -0.17191839531E+03  0.17791903312E+03  0.10000000000E+01 0.  0.
    9000005    1    3    3    0    0  0.53873602799E+02  0.74418086091E+01 -0.31217660499E+02  0.62715930360E+02  0.10000000000E+01 0.  0.
          4    1    1    2  501    0 -0.13411088919E+02 -0.28913479902E+02 -0.96516068939E+02  0.10165043576E+03  0.12700000000E+01 0. -1.
<mgrwt>
<rscale>  1 0.12899972E+03</rscale>
<asrwt>0</asrwt>
<pdfrwt beam="2">  1       21 0.49376898E-01 0.12899972E+03</pdfrwt>
<pdfrwt beam="1">  1        4 0.32796760E-02 0.12899972E+03</pdfrwt>
<totfact> 0.74096219E+04</totfact>
</mgrwt>
</event>
<event>
 6    4  0.6358868E-003  0.1341569E+03  0.7818608E-02  0.1221415E+00
         21   -1    0    0  501  502  0.00000000000E+00  0.00000000000E+00  0.13562116038E+03  0.13562116038E+03  0.00000000000E+00 0. -1.
          4   -1    0    0  502    0 -0.00000000000E+00 -0.00000000000E+00 -0.71270101770E+02  0.71281416276E+02  0.12700000000E+01 0.  1.
         25    2    1    2    0    0 -0.42026925113E+02 -0.24643024159E+02  0.10945770900E+02  0.13460265460E+03  0.12499809459E+03 0.  0.
    9000005    1    3    3    0    0 -0.67716581858E+02 -0.36696431933E+01 -0.36256542864E+02  0.76906037735E+02  0.10000000000E+01 0.  0.
    9000005    1    3    3    0    0  0.25689656745E+02 -0.20973380966E+02  0.47202313764E+02  0.57696616863E+02  0.10000000000E+01 0.  0.
          4    1    1    2  501    0  0.42026925113E+02  0.24643024159E+02  0.53405287715E+02  0.72299922061E+02  0.12700000000E+01 0. -1.
<mgrwt>
<rscale>  1 0.13415687E+03</rscale>
<asrwt>0</asrwt>
<pdfrwt beam="1">  1       21 0.20864794E-01 0.13415687E+03</pdfrwt>
<pdfrwt beam="2">  1        4 0.10965959E-01 0.13415687E+03</pdfrwt>
<totfact> 0.55981547E+04</totfact>
</mgrwt>
</event>
<event>
 6    4  0.6358868E-003  0.1283916E+03  0.7818608E-02  0.1229862E+00
          4   -1    0    0  502    0 -0.00000000000E+00  0.00000000000E+00  0.14121304209E+02  0.14178297943E+02  0.12700000000E+01 0.  1.
         21   -1    0    0  501  502  0.00000000000E+00 -0.00000000000E+00 -0.44078400847E+03  0.44078400847E+03  0.00000000000E+00 0.  1.
         25    2    1    2    0    0 -0.29183180705E+02  0.26205817659E+01 -0.33726884073E+03  0.36088042068E+03  0.12500352644E+03 0.  0.
    9000005    1    3    3    0    0  0.69925683370E+01 -0.44021644314E+02 -0.25918287340E+03  0.26298966338E+03  0.10000000000E+01 0.  0.
    9000005    1    3    3    0    0 -0.36175749043E+02  0.46642226080E+02 -0.78085967328E+02  0.97890757306E+02  0.10000000000E+01 0.  0.
          4    1    1    2  501    0  0.29183180705E+02 -0.26205817659E+01 -0.89393863532E+02  0.94081885727E+02  0.12700000000E+01 0. -1.
<mgrwt>
<rscale>  1 0.12839162E+03</rscale>
<asrwt>0</asrwt>
<pdfrwt beam="2">  1       21 0.67812924E-01 0.12839162E+03</pdfrwt>
<pdfrwt beam="1">  1        4 0.21770332E-02 0.12839162E+03</pdfrwt>
<totfact> 0.71729087E+04</totfact>
</mgrwt>
</event>
<event>
 6    4  0.6358868E-003  0.1282480E+03  0.7818608E-02  0.1230079E+00
         21   -1    0    0  501  502  0.00000000000E+00  0.00000000000E+00  0.21767099621E+02  0.21767099621E+02  0.00000000000E+00 0.  1.
          4   -1    0    0  502    0 -0.00000000000E+00 -0.00000000000E+00 -0.32439582111E+03  0.32439830710E+03  0.12700000000E+01 0.  1.
         25    2    1    2    0    0 -0.25754700196E+02 -0.12609700516E+02 -0.28488146629E+03  0.31241800540E+03  0.12500100452E+03 0.  0.
    9000005    1    3    3    0    0  0.17056659050E+02 -0.23007566673E+02 -0.50027860990E+01  0.29091332230E+02  0.10000000000E+01 0.  0.
    9000005    1    3    3    0    0 -0.42811359246E+02  0.10397866157E+02 -0.27987868020E+03  0.28332667317E+03  0.10000000000E+01 0.  0.
          4    1    1    2  501    0  0.25754700196E+02  0.12609700516E+02 -0.17747255190E+02  0.33747401324E+02  0.12700000000E+01 0. -1.
<mgrwt>
<rscale>  1 0.12824804E+03</rscale>
<asrwt>0</asrwt>
<pdfrwt beam="1">  1       21 0.33487848E-02 0.12824804E+03</pdfrwt>
<pdfrwt beam="2">  1        4 0.49910087E-01 0.12824804E+03</pdfrwt>
<totfact> 0.81918894E+04</totfact>
</mgrwt>
</event>
<event>
 6    4  0.6358868E-003  0.2097192E+03  0.7818608E-02  0.1141789E+00
         21   -1    0    0  501  502  0.00000000000E+00  0.00000000000E+00  0.88442386026E+02  0.88442386026E+02  0.00000000000E+00 0.  1.
          4   -1    0    0  502    0 -0.00000000000E+00 -0.00000000000E+00 -0.41239284400E+03  0.41239479954E+03  0.12700000000E+01 0. -1.
         25    2    1    2    0    0  0.16731539324E+03  0.19054344403E+02 -0.21453144480E+03  0.30000979151E+03  0.12499850134E+03 0.  0.
    9000005    1    3    3    0    0  0.74878616133E+02  0.25103083769E+02 -0.18757947562E+03  0.20352894547E+03  0.10000000000E+01 0.  0.
    9000005    1    3    3    0    0  0.92436777110E+02 -0.60487393655E+01 -0.26951969175E+02  0.96480846041E+02  0.10000000000E+01 0.  0.
          4    1    1    2  501    0 -0.16731539324E+03 -0.19054344403E+02 -0.10941901318E+03  0.20082739405E+03  0.12700000000E+01 0.  1.
<mgrwt>
<rscale>  1 0.20971918E+03</rscale>
<asrwt>0</asrwt>
<pdfrwt beam="1">  1       21 0.13606521E-01 0.20971918E+03</pdfrwt>
<pdfrwt beam="2">  1        4 0.63445906E-01 0.20971918E+03</pdfrwt>
<totfact> 0.46540218E+03</totfact>
</mgrwt>
</event>
<event>
 6    4  0.6358868E-003  0.1278091E+03  0.7818608E-02  0.1230743E+00
         21   -1    0    0  501  502  0.00000000000E+00  0.00000000000E+00  0.53731478498E+03  0.53731478498E+03  0.00000000000E+00 0.  1.
          4   -1    0    0  502    0 -0.00000000000E+00 -0.00000000000E+00 -0.32287369075E+02  0.32312336681E+02  0.12700000000E+01 0. -1.
         25    2    1    2    0    0  0.26670645668E+02 -0.21881306700E+00  0.96298155167E+02  0.16002659346E+03  0.12499521873E+03 0.  0.
    9000005    1    3    3    0    0 -0.47223277867E+02 -0.10195798397E+02  0.17130730957E+02  0.51268452489E+02  0.10000000000E+01 0.  0.
    9000005    1    3    3    0    0  0.73893923535E+02  0.99769853297E+01  0.79167424210E+02  0.10875814097E+03  0.10000000000E+01 0.  0.
          4    1    1    2  501    0 -0.26670645668E+02  0.21881306700E+00  0.40872926074E+03  0.40960052820E+03  0.12700000000E+01 0.  1.
<mgrwt>
<rscale>  1 0.12780914E+03</rscale>
<asrwt>0</asrwt>
<pdfrwt beam="1">  1       21 0.82663806E-01 0.12780914E+03</pdfrwt>
<pdfrwt beam="2">  1        4 0.49693240E-02 0.12780914E+03</pdfrwt>
<totfact> 0.12652163E+04</totfact>
</mgrwt>
</event>
<event>
 6    4  0.6358868E-003  0.1407461E+03  0.7818608E-02  0.1212328E+00
         -4   -1    0    0    0  501 -0.00000000000E+00  0.00000000000E+00  0.42829187379E+03  0.42829375673E+03  0.12700000000E+01 0.  1.
         21   -1    0    0  501  502  0.00000000000E+00 -0.00000000000E+00 -0.37154910162E+02  0.37154910162E+02  0.00000000000E+00 0. -1.
         25    2    1    2    0    0 -0.15666343123E+02  0.62746939009E+02  0.37239156295E+03  0.39810168769E+03  0.12500745945E+03 0.  0.
    9000005    1    3    3    0    0  0.32267537102E+02 -0.96758775838E+01  0.30850372289E+02  0.45689846006E+02  0.10000000000E+01 0.  0.
    9000005    1    3    3    0    0 -0.47933880225E+02  0.72422816593E+02  0.34154119067E+03  0.35241184168E+03  0.10000000000E+01 0.  0.
         -4    1    1    2    0  502  0.15666343123E+02 -0.62746939009E+02  0.18745400676E+02  0.67346979207E+02  0.12700000000E+01 0. -1.
<mgrwt>
<rscale>  1 0.14074615E+03</rscale>
<asrwt>0</asrwt>
<pdfrwt beam="2">  1       21 0.57161403E-02 0.14074615E+03</pdfrwt>
<pdfrwt beam="1">  1       -4 0.65892869E-01 0.14074615E+03</pdfrwt>
<totfact> 0.19011134E+04</totfact>
</mgrwt>
</event>
<event>
 6    4  0.6358868E-003  0.1271258E+03  0.7818608E-02  0.1231784E+00
         -4   -1    0    0    0  501 -0.00000000000E+00  0.00000000000E+00  0.25218899271E+03  0.25219219049E+03  0.12700000000E+01 0.  1.
         21   -1    0    0  501  502  0.00000000000E+00 -0.00000000000E+00 -0.61020148015E+02  0.61020148015E+02  0.00000000000E+00 0. -1.
         25    2    1    2    0    0 -0.19901170039E+02  0.11833816253E+02  0.23297707034E+03  0.26540400862E+03  0.12499950684E+03 0.  0.
    9000005    1    3    3    0    0 -0.57052674478E+01  0.13966155639E+02 -0.12431378296E+02  0.19574032449E+02  0.10000000000E+01 0.  0.
    9000005    1    3    3    0    0 -0.14195902592E+02 -0.21323393855E+01  0.24540844863E+03  0.24582997617E+03  0.10000000000E+01 0.  0.
         -4    1    1    2    0  502  0.19901170039E+02 -0.11833816253E+02 -0.41808225639E+02  0.47808329893E+02  0.12700000000E+01 0. -1.
<mgrwt>
<rscale>  1 0.12712581E+03</rscale>
<asrwt>0</asrwt>
<pdfrwt beam="2">  1       21 0.93877153E-02 0.12712581E+03</pdfrwt>
<pdfrwt beam="1">  1       -4 0.38799568E-01 0.12712581E+03</pdfrwt>
<totfact> 0.23660973E+04</totfact>
</mgrwt>
</event>
<event>
 6    4  0.6358868E-003  0.1331098E+03  0.7818608E-02  0.1222913E+00
         -4   -1    0    0    0  501 -0.00000000000E+00  0.00000000000E+00  0.77776711318E+02  0.77787079412E+02  0.12700000000E+01 0.  1.
         21   -1    0    0  501  502  0.00000000000E+00 -0.00000000000E+00 -0.20736637476E+03  0.20736637476E+03  0.00000000000E+00 0. -1.
         25    2    1    2    0    0 -0.25229026213E+02  0.38147345890E+02  0.14572471904E+02  0.13390512218E+03  0.12500600404E+03 0.  0.
    9000005    1    3    3    0    0 -0.39520114884E+02  0.12584474274E+02 -0.48820171405E+02  0.64067289697E+02  0.10000000000E+01 0.  0.
    9000005    1    3    3    0    0  0.14291088670E+02  0.25562871616E+02  0.63392643309E+02  0.69837832486E+02  0.10000000000E+01 0.  0.
         -4    1    1    2    0  502  0.25229026213E+02 -0.38147345890E+02 -0.14416213535E+03  0.15124833199E+03  0.12700000000E+01 0. -1.
<mgrwt>
<rscale>  1 0.13310982E+03</rscale>
<asrwt>0</asrwt>
<pdfrwt beam="2">  1       21 0.31902519E-01 0.13310982E+03</pdfrwt>
<pdfrwt beam="1">  1       -4 0.11966745E-01 0.13310982E+03</pdfrwt>
<totfact> 0.21520590E+04</totfact>
</mgrwt>
</event>
<event>
 6    4  0.6358868E-003  0.1350487E+03  0.7818608E-02  0.1220151E+00
         21   -1    0    0  501  502  0.00000000000E+00  0.00000000000E+00  0.68026147775E+03  0.68026147775E+03  0.00000000000E+00 0. -1.
          4   -1    0    0  502    0 -0.00000000000E+00 -0.00000000000E+00 -0.19879296288E+02  0.19919822311E+02  0.12700000000E+01 0. -1.
         25    2    1    2    0    0  0.51035445000E+02 -0.26669617195E+01  0.22956986674E+03  0.26634654725E+03  0.12500572061E+03 0.  0.
    9000005    1    3    3    0    0 -0.21136354689E+02 -0.34648070210E+02  0.26529069768E+02  0.48497688621E+02  0.10000000000E+01 0.  0.
    9000005    1    3    3    0    0  0.72171799688E+02  0.31981108491E+02  0.20304079697E+03  0.21784885863E+03  0.10000000000E+01 0.  0.
          4    1    1    2  501    0 -0.51035445000E+02  0.26669617195E+01  0.43081231472E+03  0.43383475281E+03  0.12700000000E+01 0.  1.
<mgrwt>
<rscale>  1 0.13504873E+03</rscale>
<asrwt>0</asrwt>
<pdfrwt beam="1">  1       21 0.10465559E+00 0.13504873E+03</pdfrwt>
<pdfrwt beam="2">  1        4 0.30615624E-02 0.13504873E+03</pdfrwt>
<totfact> 0.15891019E+04</totfact>
</mgrwt>
</event>
<event>
 6    4  0.6358868E-003  0.1319274E+03  0.7818608E-02  0.1224624E+00
         21   -1    0    0  501  502  0.00000000000E+00  0.00000000000E+00  0.19917345606E+02  0.19917345606E+02  0.00000000000E+00 0.  1.
          4   -1    0    0  502    0 -0.00000000000E+00 -0.00000000000E+00 -0.47196268064E+03  0.47196438935E+03  0.12700000000E+01 0. -1.
         25    2    1    2    0    0 -0.32647738797E+02 -0.26709294248E+02 -0.41588303221E+03  0.43630668396E+03  0.12500225895E+03 0.  0.
    9000005    1    3    3    0    0  0.31074995100E+02  0.29568680031E+02 -0.93057827178E+02  0.10247302747E+03  0.10000000000E+01 0.  0.
    9000005    1    3    3    0    0 -0.63722733897E+02 -0.56277974279E+02 -0.32282520503E+03  0.33383365649E+03  0.10000000000E+01 0.  0.
          4    1    1    2  501    0  0.32647738797E+02  0.26709294248E+02 -0.36162302822E+02  0.55575050996E+02  0.12700000000E+01 0.  1.
<mgrwt>
<rscale>  1 0.13192735E+03</rscale>
<asrwt>0</asrwt>
<pdfrwt beam="1">  1       21 0.30642072E-02 0.13192735E+03</pdfrwt>
<pdfrwt beam="2">  1        4 0.72612885E-01 0.13192735E+03</pdfrwt>
<totfact> 0.43308535E+04</totfact>
</mgrwt>
</event>
<event>
 6    4  0.6358868E-003  0.1290819E+03  0.7818608E-02  0.1228824E+00
         -4   -1    0    0    0  501 -0.00000000000E+00  0.00000000000E+00  0.17813962920E+04  0.17813967447E+04  0.12700000000E+01 0.  1.
         21   -1    0    0  501  502  0.00000000000E+00 -0.00000000000E+00 -0.10588784979E+02  0.10588784979E+02  0.00000000000E+00 0. -1.
         25    2    1    2    0    0  0.26964165771E+02 -0.17338314473E+02  0.17476688386E+04  0.17524293132E+04  0.12503777460E+03 0.  0.
    9000005    1    3    3    0    0 -0.26584987402E+02 -0.53296054100E+02  0.10831311994E+04  0.10847679134E+04  0.10000000000E+01 0.  0.
    9000005    1    3    3    0    0  0.53549153173E+02  0.35957739627E+02  0.66453763923E+03  0.66766139981E+03  0.10000000000E+01 0.  0.
         -4    1    1    2    0  502 -0.26964165771E+02  0.17338314473E+02  0.23138668440E+02  0.39556216473E+02  0.12700000000E+01 0. -1.
<mgrwt>
<rscale>  1 0.12908187E+03</rscale>
<asrwt>0</asrwt>
<pdfrwt beam="2">  1       21 0.16290453E-02 0.12908187E+03</pdfrwt>
<pdfrwt beam="1">  1       -4 0.27406662E+00 0.12908187E+03</pdfrwt>
<totfact> 0.37508019E+03</totfact>
</mgrwt>
</event>
<event>
 6    4  0.6358868E-003  0.1269522E+03  0.7818608E-02  0.1232049E+00
         -4   -1    0    0    0  501 -0.00000000000E+00  0.00000000000E+00  0.70506001376E+02  0.70517438481E+02  0.12700000000E+01 0. -1.
         21   -1    0    0  501  502  0.00000000000E+00 -0.00000000000E+00 -0.23017604905E+03  0.23017604905E+03  0.00000000000E+00 0.  1.
         25    2    1    2    0    0 -0.52096759811E+01  0.21510958523E+02  0.12073464438E+02  0.12752504666E+03  0.12500802743E+03 0.  0.
    9000005    1    3    3    0    0  0.53297194717E+02 -0.17667999007E+02  0.10217063223E+02  0.57080097534E+02  0.10000000000E+01 0.  0.
    9000005    1    3    3    0    0 -0.58506870698E+02  0.39178957530E+02  0.18564012153E+01  0.70444949127E+02  0.10000000000E+01 0.  0.
         -4    1    1    2    0  502  0.52096759811E+01 -0.21510958523E+02 -0.17174351211E+03  0.17316844087E+03  0.12700000000E+01 0.  1.
<mgrwt>
<rscale>  1 0.12695223E+03</rscale>
<asrwt>0</asrwt>
<pdfrwt beam="2">  1       21 0.35411700E-01 0.12695223E+03</pdfrwt>
<pdfrwt beam="1">  1       -4 0.10848226E-01 0.12695223E+03</pdfrwt>
<totfact> 0.20641803E+04</totfact>
</mgrwt>
</event>
<event>
 6    4  0.6358868E-003  0.1282474E+03  0.7818608E-02  0.1230080E+00
         21   -1    0    0  501  502  0.00000000000E+00  0.00000000000E+00  0.97694740323E+01  0.97694740323E+01  0.00000000000E+00 0. -1.
          4   -1    0    0  502    0 -0.00000000000E+00 -0.00000000000E+00 -0.83037173856E+03  0.83037270975E+03  0.12700000000E+01 0.  1.
         25    2    1    2    0    0  0.28686551484E+02 -0.12487448217E+00 -0.77963995073E+03  0.79011761101E+03  0.12499781046E+03 0.  0.
    9000005    1    3    3    0    0 -0.20801287876E+01  0.59977981827E+02 -0.32605159934E+03  0.33153028621E+03  0.10000000000E+01 0.  0.
    9000005    1    3    3    0    0  0.30766680272E+02 -0.60102856309E+02 -0.45358835139E+03  0.45858732480E+03  0.10000000000E+01 0.  0.
          4    1    1    2  501    0 -0.28686551484E+02  0.12487448217E+00 -0.40962313794E+02  0.50024572772E+02  0.12700000000E+01 0. -1.
<mgrwt>
<rscale>  1 0.12824736E+03</rscale>
<asrwt>0</asrwt>
<pdfrwt beam="1">  1       21 0.15029960E-02 0.12824736E+03</pdfrwt>
<pdfrwt beam="2">  1        4 0.12775592E+00 0.12824736E+03</pdfrwt>
<totfact> 0.37392957E+04</totfact>
</mgrwt>
</event>
<event>
 6    4  0.6358868E-003  0.1297363E+03  0.7818608E-02  0.1227848E+00
         21   -1    0    0  501  502  0.00000000000E+00  0.00000000000E+00  0.58868098072E+02  0.58868098072E+02  0.00000000000E+00 0. -1.
         -4   -1    0    0    0  501 -0.00000000000E+00 -0.00000000000E+00 -0.25346591684E+03  0.25346909851E+03  0.12700000000E+01 0.  1.
         25    2    1    2    0    0 -0.31691607552E+02 -0.14209482584E+02 -0.22915156794E+03  0.26332860687E+03  0.12500098687E+03 0.  0.
    9000005    1    3    3    0    0 -0.55878929293E+02 -0.43288626564E+02 -0.20863779098E+03  0.22028864645E+03  0.10000000000E+01 0.  0.
    9000005    1    3    3    0    0  0.24187321741E+02  0.29079143980E+02 -0.20513776961E+02  0.43039960418E+02  0.10000000000E+01 0.  0.
         -4    1    1    2    0  502  0.31691607552E+02  0.14209482584E+02  0.34553749171E+02  0.49008589719E+02  0.12700000000E+01 0. -1.
<mgrwt>
<rscale>  1 0.12973633E+03</rscale>
<asrwt>0</asrwt>
<pdfrwt beam="1">  1       21 0.90566306E-02 0.12973633E+03</pdfrwt>
<pdfrwt beam="2">  1       -4 0.38996054E-01 0.12973633E+03</pdfrwt>
<totfact> 0.24996167E+04</totfact>
</mgrwt>
</event>
<event>
 6    4  0.6358868E-003  0.1441434E+03  0.7818608E-02  0.1207860E+00
         21   -1    0    0  501  502  0.00000000000E+00  0.00000000000E+00  0.15177076205E+03  0.15177076205E+03  0.00000000000E+00 0.  1.
          4   -1    0    0  502    0 -0.00000000000E+00 -0.00000000000E+00 -0.16453358094E+03  0.16453848229E+03  0.12700000000E+01 0. -1.
         25    2    1    2    0    0 -0.50779932860E+02 -0.50737597561E+02 -0.11979689186E+03  0.18742630884E+03  0.12499768220E+03 0.  0.
    9000005    1    3    3    0    0 -0.66066240819E+02  0.17651228575E+02 -0.33201469191E+02  0.76024019906E+02  0.10000000000E+01 0.  0.
    9000005    1    3    3    0    0  0.15286307960E+02 -0.68388826136E+02 -0.86595422670E+02  0.11140228893E+03  0.10000000000E+01 0.  0.
          4    1    1    2  501    0  0.50779932860E+02  0.50737597561E+02  0.10703407297E+03  0.12888293551E+03  0.12700000000E+01 0.  1.
<mgrwt>
<rscale>  1 0.14414342E+03</rscale>
<asrwt>0</asrwt>
<pdfrwt beam="1">  1       21 0.23349348E-01 0.14414342E+03</pdfrwt>
<pdfrwt beam="2">  1        4 0.25313644E-01 0.14414342E+03</pdfrwt>
<totfact> 0.10406622E+04</totfact>
</mgrwt>
</event>
<event>
 6    4  0.6358868E-003  0.1269840E+03  0.7818608E-02  0.1232001E+00
         -4   -1    0    0    0  501 -0.00000000000E+00  0.00000000000E+00  0.50968430679E+02  0.50984250763E+02  0.12700000000E+01 0. -1.
         21   -1    0    0  501  502  0.00000000000E+00 -0.00000000000E+00 -0.11107257138E+03  0.11107257138E+03  0.00000000000E+00 0. -1.
         25    2    1    2    0    0  0.35302482843E+01 -0.22217383618E+02 -0.57429432753E+02  0.13936669763E+03  0.12497544509E+03 0.  0.
    9000005    1    3    3    0    0  0.48422269579E+02  0.30333860958E+02 -0.18677057838E+02  0.60122307018E+02  0.10000000000E+01 0.  0.
    9000005    1    3    3    0    0 -0.44892021294E+02 -0.52551244576E+02 -0.38752374915E+02  0.79244390615E+02  0.10000000000E+01 0.  0.
         -4    1    1    2    0  502 -0.35302482843E+01  0.22217383618E+02 -0.26747079516E+01  0.22690124513E+02  0.12700000000E+01 0.  1.
<mgrwt>
<rscale>  1 0.12698400E+03</rscale>
<asrwt>0</asrwt>
<pdfrwt beam="2">  1       21 0.17088088E-01 0.12698400E+03</pdfrwt>
<pdfrwt beam="1">  1       -4 0.78430724E-02 0.12698400E+03</pdfrwt>
<totfact> 0.14062046E+05</totfact>
</mgrwt>
</event>
<event>
 6    4  0.6358868E-003  0.1301695E+03  0.7818608E-02  0.1227204E+00
         21   -1    0    0  501  502  0.00000000000E+00  0.00000000000E+00  0.30862491595E+03  0.30862491595E+03  0.00000000000E+00 0. -1.
         -4   -1    0    0    0  501 -0.00000000000E+00 -0.00000000000E+00 -0.40186647847E+02  0.40206710450E+02  0.12700000000E+01 0.  1.
         25    2    1    2    0    0  0.35646447182E+02  0.70117389357E+01  0.71395077004E+02  0.14846330121E+03  0.12499704439E+03 0.  0.
    9000005    1    3    3    0    0 -0.35807031304E+02  0.37624072895E+02  0.22414132252E+02  0.56578332219E+02  0.10000000000E+01 0.  0.
    9000005    1    3    3    0    0  0.71453478487E+02 -0.30612333959E+02  0.48980944751E+02  0.91884968994E+02  0.10000000000E+01 0.  0.
         -4    1    1    2    0  502 -0.35646447182E+02 -0.70117389357E+01  0.19704319110E+03  0.20036832519E+03  0.12700000000E+01 0. -1.
<mgrwt>
<rscale>  1 0.13016948E+03</rscale>
<asrwt>0</asrwt>
<pdfrwt beam="1">  1       21 0.47480755E-01 0.13016948E+03</pdfrwt>
<pdfrwt beam="2">  1       -4 0.61843057E-02 0.13016948E+03</pdfrwt>
<totfact> 0.29180994E+04</totfact>
</mgrwt>
</event>
<event>
 6    4  0.6358868E-003  0.1294242E+03  0.7818608E-02  0.1228313E+00
         -4   -1    0    0    0  501 -0.00000000000E+00  0.00000000000E+00  0.74805340538E+01  0.75875746936E+01  0.12700000000E+01 0.  1.
         21   -1    0    0  501  502  0.00000000000E+00 -0.00000000000E+00 -0.90218705799E+03  0.90218705799E+03  0.00000000000E+00 0.  1.
         25    2    1    2    0    0 -0.30476378832E+02 -0.13686165036E+02 -0.64659354932E+03  0.65941932147E+03  0.12503800512E+03 0.  0.
    9000005    1    3    3    0    0 -0.42018685874E+02 -0.27402033323E+02 -0.94156680070E+02  0.10669077652E+03  0.10000000000E+01 0.  0.
    9000005    1    3    3    0    0  0.11542307042E+02  0.13715868287E+02 -0.55243686925E+03  0.55272854495E+03  0.10000000000E+01 0.  0.
         -4    1    1    2    0  502  0.30476378832E+02  0.13686165036E+02 -0.24811297461E+03  0.25035531121E+03  0.12700000000E+01 0. -1.
<mgrwt>
<rscale>  1 0.12942420E+03</rscale>
<asrwt>0</asrwt>
<pdfrwt beam="2">  1       21 0.13879791E+00 0.12942420E+03</pdfrwt>
<pdfrwt beam="1">  1       -4 0.11591549E-02 0.12942420E+03</pdfrwt>
<totfact> 0.35349820E+04</totfact>
</mgrwt>
</event>
<event>
 6    4  0.6358868E-003  0.1276368E+03  0.7818608E-02  0.1231005E+00
          4   -1    0    0  502    0 -0.00000000000E+00  0.00000000000E+00  0.25879079668E+02  0.25910223165E+02  0.12700000000E+01 0. -1.
         21   -1    0    0  501  502  0.00000000000E+00 -0.00000000000E+00 -0.36960079130E+03  0.36960079130E+03  0.00000000000E+00 0.  1.
         25    2    1    2    0    0  0.33858943098E+00  0.25810177579E+02 -0.13724383488E+03  0.18742207579E+03  0.12499953749E+03 0.  0.
    9000005    1    3    3    0    0 -0.60327482192E+02  0.25799781068E+02 -0.57709093312E+02  0.87386344824E+02  0.10000000000E+01 0.  0.
    9000005    1    3    3    0    0  0.60666071623E+02  0.10396511666E-01 -0.79534741566E+02  0.10003573097E+03  0.10000000000E+01 0.  0.
          4    1    1    2  501    0 -0.33858943098E+00 -0.25810177579E+02 -0.20647787675E+03  0.20808893867E+03  0.12700000000E+01 0.  1.
<mgrwt>
<rscale>  1 0.12763685E+03</rscale>
<asrwt>0</asrwt>
<pdfrwt beam="2">  1       21 0.56861661E-01 0.12763685E+03</pdfrwt>
<pdfrwt beam="1">  1        4 0.39839603E-02 0.12763685E+03</pdfrwt>
<totfact> 0.40585819E+04</totfact>
</mgrwt>
</event>
<event>
 6    4  0.6358868E-003  0.1295663E+03  0.7818608E-02  0.1228101E+00
         -4   -1    0    0    0  501 -0.00000000000E+00  0.00000000000E+00  0.22004440952E+03  0.22004807443E+03  0.12700000000E+01 0.  1.
         21   -1    0    0  501  502  0.00000000000E+00 -0.00000000000E+00 -0.83850856381E+02  0.83850856381E+02  0.00000000000E+00 0. -1.
         25    2    1    2    0    0 -0.25768205024E+02  0.22333090658E+02  0.19605197437E+03  0.23499747349E+03  0.12499867424E+03 0.  0.
    9000005    1    3    3    0    0 -0.16294750713E+02  0.27103803239E+02  0.21280466373E+03  0.21514404467E+03  0.10000000000E+01 0.  0.
    9000005    1    3    3    0    0 -0.94734543107E+01 -0.47707125810E+01 -0.16752689360E+02  0.19853428820E+02  0.10000000000E+01 0.  0.
         -4    1    1    2    0  502  0.25768205024E+02 -0.22333090658E+02 -0.59858421234E+02  0.68901457322E+02  0.12700000000E+01 0. -1.
<mgrwt>
<rscale>  1 0.12956634E+03</rscale>
<asrwt>0</asrwt>
<pdfrwt beam="2">  1       21 0.12900132E-01 0.12956634E+03</pdfrwt>
<pdfrwt beam="1">  1       -4 0.33854007E-01 0.12956634E+03</pdfrwt>
<totfact> 0.17644496E+04</totfact>
</mgrwt>
</event>
<event>
 6    4  0.6358868E-003  0.1288241E+03  0.7818608E-02  0.1229211E+00
          4   -1    0    0  502    0 -0.00000000000E+00  0.00000000000E+00  0.25900745623E+02  0.25931863100E+02  0.12700000000E+01 0.  1.
         21   -1    0    0  501  502  0.00000000000E+00 -0.00000000000E+00 -0.45142978086E+03  0.45142978086E+03  0.00000000000E+00 0. -1.
         25    2    1    2    0    0 -0.99631867320E+01  0.29519044001E+02 -0.14045198556E+03  0.19058441997E+03  0.12500008735E+03 0.  0.
    9000005    1    3    3    0    0  0.16454887674E+02  0.66044434828E+02 -0.36419508584E+02  0.77201109484E+02  0.10000000000E+01 0.  0.
    9000005    1    3    3    0    0 -0.26418074406E+02 -0.36525390827E+02 -0.10403247698E+03  0.11338331049E+03  0.10000000000E+01 0.  0.
          4    1    1    2  501    0  0.99631867320E+01 -0.29519044001E+02 -0.28507704968E+03  0.28677722400E+03  0.12700000000E+01 0. -1.
<mgrwt>
<rscale>  1 0.12882415E+03</rscale>
<asrwt>0</asrwt>
<pdfrwt beam="2">  1       21 0.69450734E-01 0.12882415E+03</pdfrwt>
<pdfrwt beam="1">  1        4 0.39872612E-02 0.12882415E+03</pdfrwt>
<totfact> 0.26442747E+04</totfact>
</mgrwt>
</event>
<event>
 6    4  0.6358868E-003  0.1350402E+03  0.7818608E-02  0.1220163E+00
         21   -1    0    0  501  502  0.00000000000E+00  0.00000000000E+00  0.11361706203E+04  0.11361706203E+04  0.00000000000E+00 0.  1.
          4   -1    0    0  502    0 -0.00000000000E+00 -0.00000000000E+00 -0.94254895124E+01  0.95106652001E+01  0.12700000000E+01 0. -1.
         25    2    1    2    0    0  0.20479146506E+02 -0.46824503131E+02  0.53679716676E+03  0.55352240252E+03  0.12499568917E+03 0.  0.
    9000005    1    3    3    0    0 -0.35238543890E+02  0.64953717910E+00  0.36603972732E+03  0.36773395118E+03  0.10000000000E+01 0.  0.
    9000005    1    3    3    0    0  0.55717690396E+02 -0.47474040310E+02  0.17075743945E+03  0.18578845134E+03  0.10000000000E+01 0.  0.
          4    1    1    2  501    0 -0.20479146506E+02  0.46824503131E+02  0.58994796402E+03  0.59215888298E+03  0.12700000000E+01 0.  1.
<mgrwt>
<rscale>  1 0.13504019E+03</rscale>
<asrwt>0</asrwt>
<pdfrwt beam="1">  1       21 0.17479537E+00 0.13504019E+03</pdfrwt>
<pdfrwt beam="2">  1        4 0.14566828E-02 0.13504019E+03</pdfrwt>
<totfact> 0.13663738E+04</totfact>
</mgrwt>
</event>
<event>
 6    4  0.6358868E-003  0.1286174E+03  0.7818608E-02  0.1229522E+00
         -4   -1    0    0    0  501 -0.00000000000E+00  0.00000000000E+00  0.20805343839E+03  0.20805731452E+03  0.12700000000E+01 0. -1.
         21   -1    0    0  501  502  0.00000000000E+00 -0.00000000000E+00 -0.41474375257E+02  0.41474375257E+02  0.00000000000E+00 0. -1.
         25    2    1    2    0    0 -0.27410821198E+02 -0.12861859245E+02  0.17582647112E+03  0.21784718258E+03  0.12500266585E+03 0.  0.
    9000005    1    3    3    0    0 -0.63590156798E+02 -0.44493954225E+02  0.13015776983E+03  0.15154360775E+03  0.10000000000E+01 0.  0.
    9000005    1    3    3    0    0  0.36179335601E+02  0.31632094979E+02  0.45668701290E+02  0.66303574827E+02  0.10000000000E+01 0.  0.
         -4    1    1    2    0  502  0.27410821198E+02  0.12861859245E+02 -0.92474079847E+01  0.31684507198E+02  0.12700000000E+01 0.  1.
<mgrwt>
<rscale>  1 0.12861744E+03</rscale>
<asrwt>0</asrwt>
<pdfrwt beam="2">  1       21 0.63806732E-02 0.12861744E+03</pdfrwt>
<pdfrwt beam="1">  1       -4 0.32010015E-01 0.12861744E+03</pdfrwt>
<totfact> 0.66745550E+04</totfact>
</mgrwt>
</event>
<event>
 6    4  0.6358868E-003  0.1344833E+03  0.7818608E-02  0.1220951E+00
          4   -1    0    0  502    0 -0.00000000000E+00  0.00000000000E+00  0.91020737066E+02  0.91029596704E+02  0.12700000000E+01 0.  1.
         21   -1    0    0  501  502  0.00000000000E+00 -0.00000000000E+00 -0.14419323220E+03  0.14419323220E+03  0.00000000000E+00 0. -1.
         25    2    1    2    0    0 -0.13591220992E+02 -0.47754382993E+02  0.30519588627E+02  0.13790284038E+03  0.12498218157E+03 0.  0.
    9000005    1    3    3    0    0  0.70340072905E+01  0.92796431014E+01 -0.41863666124E+02  0.43464417355E+02  0.10000000000E+01 0.  0.
    9000005    1    3    3    0    0 -0.20625228282E+02 -0.57034026095E+02  0.72383254751E+02  0.94438423021E+02  0.10000000000E+01 0.  0.
          4    1    1    2  501    0  0.13591220992E+02  0.47754382993E+02 -0.83692083764E+02  0.97319988532E+02  0.12700000000E+01 0. -1.
<mgrwt>
<rscale>  1 0.13448326E+03</rscale>
<asrwt>0</asrwt>
<pdfrwt beam="2">  1       21 0.22183574E-01 0.13448326E+03</pdfrwt>
<pdfrwt beam="1">  1        4 0.14004302E-01 0.13448326E+03</pdfrwt>
<totfact> 0.32837550E+04</totfact>
</mgrwt>
</event>
<event>
 6    4  0.6358868E-003  0.1479151E+03  0.7818608E-02  0.1203058E+00
         21   -1    0    0  501  502  0.00000000000E+00  0.00000000000E+00  0.22381147284E+03  0.22381147284E+03  0.00000000000E+00 0. -1.
         -4   -1    0    0    0  501 -0.00000000000E+00 -0.00000000000E+00 -0.79182072403E+02  0.79192256503E+02  0.12700000000E+01 0.  1.
         25    2    1    2    0    0 -0.73984756336E+02 -0.27933208841E+02  0.11768246868E+02  0.14838255565E+03  0.12499953144E+03 0.  0.
    9000005    1    3    3    0    0 -0.10104359986E+03  0.91740928862E+01  0.13817615106E+02  0.10240068135E+03  0.10000000000E+01 0.  0.
    9000005    1    3    3    0    0  0.27058843524E+02 -0.37107301727E+02 -0.20493682384E+01  0.45981874304E+02  0.10000000000E+01 0.  0.
         -4    1    1    2    0  502  0.73984756336E+02  0.27933208841E+02  0.13286115357E+03  0.15462117369E+03  0.12700000000E+01 0. -1.
<mgrwt>
<rscale>  1 0.14791515E+03</rscale>
<asrwt>0</asrwt>
<pdfrwt beam="1">  1       21 0.34432534E-01 0.14791515E+03</pdfrwt>
<pdfrwt beam="2">  1       -4 0.12182918E-01 0.14791515E+03</pdfrwt>
<totfact> 0.18146373E+04</totfact>
</mgrwt>
</event>
<event>
 6    4  0.6358868E-003  0.1271282E+03  0.7818608E-02  0.1231780E+00
         21   -1    0    0  501  502  0.00000000000E+00  0.00000000000E+00  0.80568620187E+03  0.80568620187E+03  0.00000000000E+00 0.  1.
          4   -1    0    0  502    0 -0.00000000000E+00 -0.00000000000E+00 -0.78875345995E+01  0.79891239856E+01  0.12700000000E+01 0.  1.
         25    2    1    2    0    0 -0.23554092567E+01  0.23008194479E+02  0.53668909835E+03  0.55154035137E+03  0.12500658358E+03 0.  0.
    9000005    1    3    3    0    0 -0.38011683580E+02 -0.36112998656E+01  0.50499085468E+02  0.63317353138E+02  0.10000000000E+01 0.  0.
    9000005    1    3    3    0    0  0.35656274323E+02  0.26619494345E+02  0.48619001288E+03  0.48822299823E+03  0.10000000000E+01 0.  0.
          4    1    1    2  501    0  0.23554092567E+01 -0.23008194479E+02  0.26110956892E+03  0.26213497449E+03  0.12700000000E+01 0. -1.
<mgrwt>
<rscale>  1 0.12712817E+03</rscale>
<asrwt>0</asrwt>
<pdfrwt beam="1">  1       21 0.12395166E+00 0.12712817E+03</pdfrwt>
<pdfrwt beam="2">  1        4 0.12213591E-02 0.12712817E+03</pdfrwt>
<totfact> 0.43243800E+04</totfact>
</mgrwt>
</event>
<event>
 6    4  0.6358868E-003  0.1281628E+03  0.7818608E-02  0.1230208E+00
         21   -1    0    0  501  502  0.00000000000E+00  0.00000000000E+00  0.16888498639E+02  0.16888498639E+02  0.00000000000E+00 0.  1.
          4   -1    0    0  502    0 -0.00000000000E+00 -0.00000000000E+00 -0.41182973608E+03  0.41183169429E+03  0.12700000000E+01 0.  1.
         25    2    1    2    0    0  0.28209438551E+02  0.20004529670E+01 -0.24888078900E+03  0.27994169403E+03  0.12500372269E+03 0.  0.
    9000005    1    3    3    0    0 -0.14424053810E+02  0.56864347515E+02 -0.11355082802E+03  0.12781391900E+03  0.10000000000E+01 0.  0.
    9000005    1    3    3    0    0  0.42633492361E+02 -0.54863894548E+02 -0.13532996099E+03  0.15212777503E+03  0.10000000000E+01 0.  0.
          4    1    1    2  501    0 -0.28209438551E+02 -0.20004529670E+01 -0.14606044844E+03  0.14877849890E+03  0.12700000000E+01 0. -1.
<mgrwt>
<rscale>  1 0.12816281E+03</rscale>
<asrwt>0</asrwt>
<pdfrwt beam="1">  1       21 0.25982307E-02 0.12816281E+03</pdfrwt>
<pdfrwt beam="2">  1        4 0.63362241E-01 0.12816281E+03</pdfrwt>
<totfact> 0.75666626E+04</totfact>
</mgrwt>
</event>
<event>
 6    4  0.6358868E-003  0.1312885E+03  0.7818608E-02  0.1225556E+00
         21   -1    0    0  501  502  0.00000000000E+00  0.00000000000E+00  0.40505300957E+03  0.40505300957E+03  0.00000000000E+00 0. -1.
         -4   -1    0    0    0  501 -0.00000000000E+00 -0.00000000000E+00 -0.36212330636E+02  0.36234593831E+02  0.12700000000E+01 0.  1.
         25    2    1    2    0    0 -0.30482185913E+02 -0.26122492557E+02  0.89075597420E+02  0.15865416233E+03  0.12500053158E+03 0.  0.
    9000005    1    3    3    0    0  0.53974927238E+01  0.30883137866E+02 -0.14929305935E+02  0.34738815579E+02  0.10000000000E+01 0.  0.
    9000005    1    3    3    0    0 -0.35879678637E+02 -0.57005630423E+02  0.10400490335E+03  0.12391534675E+03  0.10000000000E+01 0.  0.
         -4    1    1    2    0  502  0.30482185913E+02  0.26122492557E+02  0.27976508151E+03  0.28263344106E+03  0.12700000000E+01 0. -1.
<mgrwt>
<rscale>  1 0.13128854E+03</rscale>
<asrwt>0</asrwt>
<pdfrwt beam="1">  1       21 0.62315845E-01 0.13128854E+03</pdfrwt>
<pdfrwt beam="2">  1       -4 0.55729938E-02 0.13128854E+03</pdfrwt>
<totfact> 0.19579026E+04</totfact>
</mgrwt>
</event>
<event>
 6    4  0.6358868E-003  0.1388022E+03  0.7818608E-02  0.1214950E+00
          4   -1    0    0  502    0 -0.00000000000E+00  0.00000000000E+00  0.87030817974E+02  0.87040083738E+02  0.12700000000E+01 0. -1.
         21   -1    0    0  501  502  0.00000000000E+00 -0.00000000000E+00 -0.14995088187E+03  0.14995088187E+03  0.00000000000E+00 0.  1.
         25    2    1    2    0    0 -0.56510568278E+02 -0.21220817243E+02  0.13659540362E+02  0.13947267963E+03  0.12498911116E+03 0.  0.
    9000005    1    3    3    0    0 -0.75535838191E+02 -0.30974868390E+02 -0.33058609412E+02  0.88085055368E+02  0.10000000000E+01 0.  0.
    9000005    1    3    3    0    0  0.19025269913E+02  0.97540511467E+01  0.46718149774E+02  0.51387624262E+02  0.10000000000E+01 0.  0.
          4    1    1    2  501    0  0.56510568278E+02  0.21220817243E+02 -0.76579604253E+02  0.97518285973E+02  0.12700000000E+01 0.  1.
<mgrwt>
<rscale>  1 0.13880218E+03</rscale>
<asrwt>0</asrwt>
<pdfrwt beam="2">  1       21 0.23069366E-01 0.13880218E+03</pdfrwt>
<pdfrwt beam="1">  1        4 0.13390483E-01 0.13880218E+03</pdfrwt>
<totfact> 0.33085533E+04</totfact>
</mgrwt>
</event>
<event>
 6    4  0.6358868E-003  0.1266617E+03  0.7818608E-02  0.1232495E+00
          4   -1    0    0  502    0 -0.00000000000E+00  0.00000000000E+00  0.55674876216E+01  0.57105007151E+01  0.12700000000E+01 0.  1.
         21   -1    0    0  501  502  0.00000000000E+00 -0.00000000000E+00 -0.97793606776E+03  0.97793606776E+03  0.00000000000E+00 0.  1.
         25    2    1    2    0    0 -0.10881429441E+02 -0.17271698135E+02 -0.87782207276E+03  0.88691305814E+03  0.12500585675E+03 0.  0.
    9000005    1    3    3    0    0  0.37705956802E+02 -0.16760699259E+02 -0.73285065626E+03  0.73401208750E+03  0.10000000000E+01 0.  0.
    9000005    1    3    3    0    0 -0.48587386244E+02 -0.51099887583E+00 -0.14497141649E+03  0.15290097064E+03  0.10000000000E+01 0.  0.
          4    1    1    2  501    0  0.10881429441E+02  0.17271698135E+02 -0.94546507380E+02  0.96733510331E+02  0.12700000000E+01 0. -1.
<mgrwt>
<rscale>  1 0.12666168E+03</rscale>
<asrwt>0</asrwt>
<pdfrwt beam="2">  1       21 0.15045169E+00 0.12666168E+03</pdfrwt>
<pdfrwt beam="1">  1        4 0.86760109E-03 0.12666168E+03</pdfrwt>
<totfact> 0.44374713E+04</totfact>
</mgrwt>
</event>
<event>
 6    4  0.6358868E-003  0.1334333E+03  0.7818608E-02  0.1222448E+00
          4   -1    0    0  502    0 -0.00000000000E+00  0.00000000000E+00  0.97924770377E+02  0.97933005434E+02  0.12700000000E+01 0. -1.
         21   -1    0    0  501  502  0.00000000000E+00 -0.00000000000E+00 -0.22631730277E+03  0.22631730277E+03  0.00000000000E+00 0.  1.
         25    2    1    2    0    0  0.28854186488E+02  0.36651210378E+02  0.47988944152E+02  0.14180055219E+03  0.12501432934E+03 0.  0.
    9000005    1    3    3    0    0 -0.98070079388E+01  0.75873673466E+02  0.16215197294E+02  0.78210768780E+02  0.10000000000E+01 0.  0.
    9000005    1    3    3    0    0  0.38661194426E+02 -0.39222463088E+02  0.31773746858E+02  0.63589783413E+02  0.10000000000E+01 0.  0.
          4    1    1    2  501    0 -0.28854186488E+02 -0.36651210378E+02 -0.17638147654E+03  0.18244975601E+03  0.12700000000E+01 0.  1.
<mgrwt>
<rscale>  1 0.13343335E+03</rscale>
<asrwt>0</asrwt>
<pdfrwt beam="2">  1       21 0.34818047E-01 0.13343335E+03</pdfrwt>
<pdfrwt beam="1">  1        4 0.15066257E-01 0.13343335E+03</pdfrwt>
<totfact> 0.12187663E+04</totfact>
</mgrwt>
</event>
<event>
 6    4  0.6358868E-003  0.1268230E+03  0.7818608E-02  0.1232247E+00
         21   -1    0    0  501  502  0.00000000000E+00  0.00000000000E+00  0.10149871323E+03  0.10149871323E+03  0.00000000000E+00 0. -1.
          4   -1    0    0  502    0 -0.00000000000E+00 -0.00000000000E+00 -0.58415484965E+02  0.58429288748E+02  0.12700000000E+01 0. -1.
         25    2    1    2    0    0  0.21312184503E+02  0.21291870626E+01  0.19960653227E+02  0.12838423837E+03  0.12500136935E+03 0.  0.
    9000005    1    3    3    0    0  0.38463176507E+02 -0.52385931055E+02 -0.66465501671E+01  0.65336653944E+02  0.10000000000E+01 0.  0.
    9000005    1    3    3    0    0 -0.17150992003E+02  0.54515118117E+02  0.26607203394E+02  0.63047584430E+02  0.10000000000E+01 0.  0.
          4    1    1    2  501    0 -0.21312184503E+02 -0.21291870626E+01  0.23122575036E+02  0.31543763601E+02  0.12700000000E+01 0.  1.
<mgrwt>
<rscale>  1 0.12682305E+03</rscale>
<asrwt>0</asrwt>
<pdfrwt beam="1">  1       21 0.15615187E-01 0.12682305E+03</pdfrwt>
<pdfrwt beam="2">  1        4 0.89886707E-02 0.12682305E+03</pdfrwt>
<totfact> 0.13204124E+05</totfact>
</mgrwt>
</event>
<event>
 6    4  0.6358868E-003  0.1434921E+03  0.7818608E-02  0.1208706E+00
         21   -1    0    0  501  502  0.00000000000E+00  0.00000000000E+00  0.30474259599E+03  0.30474259599E+03  0.00000000000E+00 0. -1.
         -4   -1    0    0    0  501 -0.00000000000E+00 -0.00000000000E+00 -0.39268931587E+02  0.39289462811E+02  0.12700000000E+01 0. -1.
         25    2    1    2    0    0 -0.70429905679E+02  0.22970982896E+01  0.20999109175E+03  0.25433491814E+03  0.12499737476E+03 0.  0.
    9000005    1    3    3    0    0  0.18807201998E+02  0.63188258182E-01 -0.66884881909E+01  0.19986263133E+02  0.10000000000E+01 0.  0.
    9000005    1    3    3    0    0 -0.89237107677E+02  0.22339100314E+01  0.21667957994E+03  0.23434865500E+03  0.10000000000E+01 0.  0.
         -4    1    1    2    0  502  0.70429905679E+02 -0.22970982896E+01  0.55482572654E+02  0.89697140662E+02  0.12700000000E+01 0.  1.
<mgrwt>
<rscale>  1 0.14349213E+03</rscale>
<asrwt>0</asrwt>
<pdfrwt beam="1">  1       21 0.46883475E-01 0.14349213E+03</pdfrwt>
<pdfrwt beam="2">  1       -4 0.60431572E-02 0.14349213E+03</pdfrwt>
<totfact> 0.31385686E+04</totfact>
</mgrwt>
</event>
<event>
 6    4  0.6358868E-003  0.1274175E+03  0.7818608E-02  0.1231339E+00
         21   -1    0    0  501  502  0.00000000000E+00  0.00000000000E+00  0.21997544745E+02  0.21997544745E+02  0.00000000000E+00 0. -1.
          4   -1    0    0  502    0 -0.00000000000E+00 -0.00000000000E+00 -0.77192486127E+03  0.77192590599E+03  0.12700000000E+01 0.  1.
         25    2    1    2    0    0  0.10816319328E+02 -0.22242318459E+02 -0.75740958927E+03  0.76805240901E+03  0.12499401418E+03 0.  0.
    9000005    1    3    3    0    0  0.61170167983E+01 -0.46598492090E+02 -0.10354075707E+03  0.11371246956E+03  0.10000000000E+01 0.  0.
    9000005    1    3    3    0    0  0.46993025294E+01  0.24356173631E+02 -0.65386883220E+03  0.65433993945E+03  0.10000000000E+01 0.  0.
          4    1    1    2  501    0 -0.10816319328E+02  0.22242318459E+02  0.74822727494E+01  0.25871041721E+02  0.12700000000E+01 0. -1.
<mgrwt>
<rscale>  1 0.12741749E+03</rscale>
<asrwt>0</asrwt>
<pdfrwt beam="1">  1       21 0.33842384E-02 0.12741749E+03</pdfrwt>
<pdfrwt beam="2">  1        4 0.11876055E+00 0.12741749E+03</pdfrwt>
<totfact> 0.11957616E+04</totfact>
</mgrwt>
</event>
<event>
 6    4  0.6358868E-003  0.1277787E+03  0.7818608E-02  0.1230790E+00
         21   -1    0    0  501  502  0.00000000000E+00  0.00000000000E+00  0.29946253308E+02  0.29946253308E+02  0.00000000000E+00 0. -1.
         -4   -1    0    0    0  501 -0.00000000000E+00 -0.00000000000E+00 -0.10402442181E+04  0.10402449934E+04  0.12700000000E+01 0.  1.
         25    2    1    2    0    0 -0.11259103811E+02 -0.23996121545E+02 -0.10295230857E+04  0.10374223675E+04  0.12499921383E+03 0.  0.
    9000005    1    3    3    0    0  0.40729045452E+02 -0.26258147810E+02 -0.18329935527E+03  0.18959957572E+03  0.10000000000E+01 0.  0.
    9000005    1    3    3    0    0 -0.51988149263E+02  0.22620262654E+01 -0.84622373041E+03  0.84782279182E+03  0.10000000000E+01 0.  0.
         -4    1    1    2    0  502  0.11259103811E+02  0.23996121545E+02  0.19225120865E+02  0.32768879140E+02  0.12700000000E+01 0. -1.
<mgrwt>
<rscale>  1 0.12777866E+03</rscale>
<asrwt>0</asrwt>
<pdfrwt beam="1">  1       21 0.46071152E-02 0.12777866E+03</pdfrwt>
<pdfrwt beam="2">  1       -4 0.16003973E+00 0.12777866E+03</pdfrwt>
<totfact> 0.34128695E+03</totfact>
</mgrwt>
</event>
<event>
 6    4  0.6358868E-003  0.1266325E+03  0.7818608E-02  0.1232540E+00
         -4   -1    0    0    0  501 -0.00000000000E+00  0.00000000000E+00  0.15012805693E+03  0.15013342859E+03  0.12700000000E+01 0. -1.
         21   -1    0    0  501  502  0.00000000000E+00 -0.00000000000E+00 -0.43209035578E+02  0.43209035578E+02  0.00000000000E+00 0. -1.
         25    2    1    2    0    0 -0.16630283848E+02 -0.11594215602E+02  0.55887329879E+02  0.13841670872E+03  0.12499919774E+03 0.  0.
    9000005    1    3    3    0    0  0.18058820748E+02 -0.51067987109E+02 -0.89939175043E+01  0.54917673532E+02  0.10000000000E+01 0.  0.
    9000005    1    3    3    0    0 -0.34689104597E+02  0.39473771506E+02  0.64881247383E+02  0.83499035184E+02  0.10000000000E+01 0.  0.
         -4    1    1    2    0  502  0.16630283848E+02  0.11594215602E+02  0.51031691478E+02  0.54925755447E+02  0.12700000000E+01 0.  1.
<mgrwt>
<rscale>  1 0.12663251E+03</rscale>
<asrwt>0</asrwt>
<pdfrwt beam="2">  1       21 0.66475441E-02 0.12663251E+03</pdfrwt>
<pdfrwt beam="1">  1       -4 0.23098473E-01 0.12663251E+03</pdfrwt>
<totfact> 0.11409531E+05</totfact>
</mgrwt>
</event>
<event>
 6    4  0.6358868E-003  0.1269840E+03  0.7818608E-02  0.1232001E+00
          4   -1    0    0  502    0 -0.00000000000E+00  0.00000000000E+00  0.29387920622E+03  0.29388195037E+03  0.12700000000E+01 0.  1.
         21   -1    0    0  501  502  0.00000000000E+00 -0.00000000000E+00 -0.21719581008E+02  0.21719581008E+02  0.00000000000E+00 0. -1.
         25    2    1    2    0    0 -0.16320039282E+02 -0.15358188629E+02  0.26160932160E+03  0.29079952648E+03  0.12499083893E+03 0.  0.
    9000005    1    3    3    0    0 -0.18033705772E+02 -0.69288028316E+02  0.12733991630E+03  0.14609072419E+03  0.10000000000E+01 0.  0.
    9000005    1    3    3    0    0  0.17136664904E+01  0.53929839687E+02  0.13426940530E+03  0.14470880230E+03  0.10000000000E+01 0.  0.
          4    1    1    2  501    0  0.16320039282E+02  0.15358188629E+02  0.10550303618E+02  0.24802004890E+02  0.12700000000E+01 0. -1.
<mgrwt>
<rscale>  1 0.12698397E+03</rscale>
<asrwt>0</asrwt>
<pdfrwt beam="2">  1       21 0.33414742E-02 0.12698397E+03</pdfrwt>
<pdfrwt beam="1">  1        4 0.45215250E-01 0.12698397E+03</pdfrwt>
<totfact> 0.10020380E+05</totfact>
</mgrwt>
</event>
<event>
 6    4  0.6358868E-003  0.1297111E+03  0.7818608E-02  0.1227885E+00
          4   -1    0    0  502    0 -0.00000000000E+00  0.00000000000E+00  0.15218539053E+03  0.15219068957E+03  0.12700000000E+01 0.  1.
         21   -1    0    0  501  502  0.00000000000E+00 -0.00000000000E+00 -0.52761920236E+02  0.52761920236E+02  0.00000000000E+00 0. -1.
         25    2    1    2    0    0  0.53366482161E+01 -0.34245417241E+02  0.10849492659E+03  0.16910386316E+03  0.12499495599E+03 0.  0.
    9000005    1    3    3    0    0 -0.40651992283E+02  0.16243489149E+02  0.87171025969E+02  0.97551131130E+02  0.10000000000E+01 0.  0.
    9000005    1    3    3    0    0  0.45988640500E+02 -0.50488906389E+02  0.21323900625E+02  0.71552732032E+02  0.10000000000E+01 0.  0.
          4    1    1    2  501    0 -0.53366482161E+01  0.34245417241E+02 -0.90714563014E+01  0.35848746639E+02  0.12700000000E+01 0. -1.
<mgrwt>
<rscale>  1 0.12971109E+03</rscale>
<asrwt>0</asrwt>
<pdfrwt beam="2">  1       21 0.81172186E-02 0.12971109E+03</pdfrwt>
<pdfrwt beam="1">  1        4 0.23414720E-01 0.12971109E+03</pdfrwt>
<totfact> 0.79285038E+04</totfact>
</mgrwt>
</event>
<event>
 6    4  0.6358868E-003  0.1267586E+03  0.7818608E-02  0.1232346E+00
         -4   -1    0    0    0  501 -0.00000000000E+00  0.00000000000E+00  0.99577851318E+01  0.10038445334E+02  0.12700000000E+01 0.  1.
         21   -1    0    0  501  502  0.00000000000E+00 -0.00000000000E+00 -0.54737197778E+03  0.54737197778E+03  0.00000000000E+00 0.  1.
         25    2    1    2    0    0  0.20067166742E+02 -0.64384993166E+01 -0.46722233737E+03  0.48411202680E+03  0.12499438588E+03 0.  0.
    9000005    1    3    3    0    0  0.11700070808E+02  0.46175924452E+02 -0.79042368477E+02  0.92291948026E+02  0.10000000000E+01 0.  0.
    9000005    1    3    3    0    0  0.83670959339E+01 -0.52614423768E+02 -0.38817996889E+03  0.39182007878E+03  0.10000000000E+01 0.  0.
         -4    1    1    2    0  502 -0.20067166742E+02  0.64384993166E+01 -0.70191855280E+02  0.73298396313E+02  0.12700000000E+01 0. -1.
<mgrwt>
<rscale>  1 0.12675860E+03</rscale>
<asrwt>0</asrwt>
<pdfrwt beam="2">  1       21 0.84211131E-01 0.12675860E+03</pdfrwt>
<pdfrwt beam="1">  1       -4 0.15382839E-02 0.12675860E+03</pdfrwt>
<totfact> 0.75591566E+04</totfact>
</mgrwt>
</event>
<event>
 6    4  0.6358868E-003  0.1277062E+03  0.7818608E-02  0.1230900E+00
         21   -1    0    0  501  502  0.00000000000E+00  0.00000000000E+00  0.43225296220E+03  0.43225296220E+03  0.00000000000E+00 0. -1.
         -4   -1    0    0    0  501 -0.00000000000E+00 -0.00000000000E+00 -0.14395925591E+02  0.14451836341E+02  0.12700000000E+01 0.  1.
         25    2    1    2    0    0  0.25393205966E+02  0.62317175116E+01  0.37826789475E+03  0.39924363268E+03  0.12500091527E+03 0.  0.
    9000005    1    3    3    0    0  0.20067514044E+02 -0.21028438734E+02  0.36870594523E+03  0.36985128687E+03  0.10000000000E+01 0.  0.
    9000005    1    3    3    0    0  0.53256919221E+01  0.27260156246E+02  0.95619495245E+01  0.29392345802E+02  0.10000000000E+01 0.  0.
         -4    1    1    2    0  502 -0.25393205966E+02 -0.62317175116E+01  0.39589141853E+02  0.47461165863E+02  0.12700000000E+01 0. -1.
<mgrwt>
<rscale>  1 0.12770622E+03</rscale>
<asrwt>0</asrwt>
<pdfrwt beam="1">  1       21 0.66500446E-01 0.12770622E+03</pdfrwt>
<pdfrwt beam="2">  1       -4 0.22192025E-02 0.12770622E+03</pdfrwt>
<totfact> 0.72599268E+04</totfact>
</mgrwt>
</event>
<event>
 6    4  0.6358868E-003  0.1284621E+03  0.7818608E-02  0.1229756E+00
         21   -1    0    0  501  502  0.00000000000E+00  0.00000000000E+00  0.21429961681E+02  0.21429961681E+02  0.00000000000E+00 0.  1.
         -4   -1    0    0    0  501 -0.00000000000E+00 -0.00000000000E+00 -0.42928268636E+03  0.42928456496E+03  0.12700000000E+01 0. -1.
         25    2    1    2    0    0 -0.27161566403E+02  0.11799955259E+02 -0.39989734165E+03  0.42002428955E+03  0.12500212125E+03 0.  0.
    9000005    1    3    3    0    0 -0.88882056380E+00 -0.29243531140E+02 -0.34646578523E+03  0.34770032276E+03  0.10000000000E+01 0.  0.
    9000005    1    3    3    0    0 -0.26272745839E+02  0.41043486399E+02 -0.53431556421E+02  0.72323966783E+02  0.10000000000E+01 0.  0.
         -4    1    1    2    0  502  0.27161566403E+02 -0.11799955259E+02 -0.79553830315E+01  0.30690237091E+02  0.12700000000E+01 0.  1.
<mgrwt>
<rscale>  1 0.12846213E+03</rscale>
<asrwt>0</asrwt>
<pdfrwt beam="1">  1       21 0.32969172E-02 0.12846213E+03</pdfrwt>
<pdfrwt beam="2">  1       -4 0.66046530E-01 0.12846213E+03</pdfrwt>
<totfact> 0.46916542E+04</totfact>
</mgrwt>
</event>
<event>
 6    4  0.6358868E-003  0.1297548E+03  0.7818608E-02  0.1227820E+00
         21   -1    0    0  501  502  0.00000000000E+00  0.00000000000E+00  0.14791342214E+04  0.14791342214E+04  0.00000000000E+00 0. -1.
         -4   -1    0    0    0  501 -0.00000000000E+00 -0.00000000000E+00 -0.10829654853E+02  0.10903867398E+02  0.12700000000E+01 0.  1.
         25    2    1    2    0    0 -0.33646681917E+02 -0.89193978765E+01  0.38700955462E+03  0.40818219702E+03  0.12499862292E+03 0.  0.
    9000005    1    3    3    0    0 -0.78360056888E+02 -0.17625329609E+02  0.29144328843E+03  0.30230967753E+03  0.10000000000E+01 0.  0.
    9000005    1    3    3    0    0  0.44713374971E+02  0.87059317328E+01  0.95566266189E+02  0.10587251948E+03  0.10000000000E+01 0.  0.
         -4    1    1    2    0  502  0.33646681917E+02  0.89193978765E+01  0.10812950119E+04  0.10818558918E+04  0.12700000000E+01 0. -1.
<mgrwt>
<rscale>  1 0.12975481E+03</rscale>
<asrwt>0</asrwt>
<pdfrwt beam="1">  1       21 0.22755895E+00 0.12975481E+03</pdfrwt>
<pdfrwt beam="2">  1       -4 0.16718525E-02 0.12975481E+03</pdfrwt>
<totfact> 0.51436446E+03</totfact>
</mgrwt>
</event>
<event>
 6    4  0.6358868E-003  0.1327916E+03  0.7818608E-02  0.1223371E+00
         21   -1    0    0  501  502  0.00000000000E+00  0.00000000000E+00  0.27959052382E+02  0.27959052382E+02  0.00000000000E+00 0.  1.
          4   -1    0    0  502    0 -0.00000000000E+00 -0.00000000000E+00 -0.55383447699E+03  0.55383593311E+03  0.12700000000E+01 0. -1.
         25    2    1    2    0    0 -0.35609031464E+01  0.44678061127E+02 -0.51986426758E+03  0.53655610746E+03  0.12499916223E+03 0.  0.
    9000005    1    3    3    0    0 -0.28774765383E+02 -0.32045853706E+02 -0.28394534081E+03  0.28719484750E+03  0.10000000000E+01 0.  0.
    9000005    1    3    3    0    0  0.25213862237E+02  0.76723914833E+02 -0.23591892677E+03  0.24936125995E+03  0.10000000000E+01 0.  0.
          4    1    1    2  501    0  0.35609031464E+01 -0.44678061127E+02 -0.60111570245E+01  0.45238878037E+02  0.12700000000E+01 0.  1.
<mgrwt>
<rscale>  1 0.13279157E+03</rscale>
<asrwt>0</asrwt>
<pdfrwt beam="1">  1       21 0.43013924E-02 0.13279157E+03</pdfrwt>
<pdfrwt beam="2">  1        4 0.85207639E-01 0.13279157E+03</pdfrwt>
<totfact> 0.17383510E+04</totfact>
</mgrwt>
</event>
<event>
 6    4  0.6358868E-003  0.1308791E+03  0.7818608E-02  0.1226157E+00
         21   -1    0    0  501  502  0.00000000000E+00  0.00000000000E+00  0.24817583911E+03  0.24817583911E+03  0.00000000000E+00 0. -1.
         -4   -1    0    0    0  501 -0.00000000000E+00 -0.00000000000E+00 -0.29957848023E+02  0.29984755429E+02  0.12700000000E+01 0.  1.
         25    2    1    2    0    0  0.37923575336E+02 -0.81681288148E+01  0.14528881727E+03  0.19554586711E+03  0.12499771928E+03 0.  0.
    9000005    1    3    3    0    0 -0.17296031685E+02  0.43835899568E+02  0.25053510427E+02  0.53379932444E+02  0.10000000000E+01 0.  0.
    9000005    1    3    3    0    0  0.55219607021E+02 -0.52004028383E+02  0.12023530685E+03  0.14216593467E+03  0.10000000000E+01 0.  0.
         -4    1    1    2    0  502 -0.37923575336E+02  0.81681288148E+01  0.72929173818E+02  0.82614727431E+02  0.12700000000E+01 0. -1.
<mgrwt>
<rscale>  1 0.13087913E+03</rscale>
<asrwt>0</asrwt>
<pdfrwt beam="1">  1       21 0.38180897E-01 0.13087913E+03</pdfrwt>
<pdfrwt beam="2">  1       -4 0.46112196E-02 0.13087913E+03</pdfrwt>
<totfact> 0.72762279E+04</totfact>
</mgrwt>
</event>
<event>
 6    4  0.6358868E-003  0.1306781E+03  0.7818608E-02  0.1226453E+00
          4   -1    0    0  502    0 -0.00000000000E+00  0.00000000000E+00  0.49341582359E+03  0.49341745801E+03  0.12700000000E+01 0. -1.
         21   -1    0    0  501  502  0.00000000000E+00 -0.00000000000E+00 -0.19426872781E+02  0.19426872781E+02  0.00000000000E+00 0.  1.
         25    2    1    2    0    0  0.27433956534E+02  0.26433648573E+02  0.44810037176E+03  0.46676623216E+03  0.12500165026E+03 0.  0.
    9000005    1    3    3    0    0  0.31400141106E+01  0.33475709339E+02  0.43835132491E+03  0.43964004237E+03  0.10000000000E+01 0.  0.
    9000005    1    3    3    0    0  0.24293942423E+02 -0.70420607664E+01  0.97490468549E+01  0.27126189796E+02  0.10000000000E+01 0.  0.
          4    1    1    2  501    0 -0.27433956534E+02 -0.26433648573E+02  0.25888579045E+02  0.46078098626E+02  0.12700000000E+01 0.  1.
<mgrwt>
<rscale>  1 0.13067812E+03</rscale>
<asrwt>0</asrwt>
<pdfrwt beam="2">  1       21 0.29887500E-02 0.13067812E+03</pdfrwt>
<pdfrwt beam="1">  1        4 0.75913436E-01 0.13067812E+03</pdfrwt>
<totfact> 0.40901419E+04</totfact>
</mgrwt>
</event>
<event>
 6    4  0.6358868E-003  0.1266908E+03  0.7818608E-02  0.1232450E+00
         -4   -1    0    0    0  501 -0.00000000000E+00  0.00000000000E+00  0.12383467502E+03  0.12384118716E+03  0.12700000000E+01 0.  1.
         21   -1    0    0  501  502  0.00000000000E+00 -0.00000000000E+00 -0.68056779338E+02  0.68056779338E+02  0.00000000000E+00 0. -1.
         25    2    1    2    0    0 -0.13305730168E+02  0.15765602392E+02  0.87547057902E+02  0.15399692109E+03  0.12499987074E+03 0.  0.
    9000005    1    3    3    0    0 -0.46203222741E+02 -0.26454517005E+02  0.22563716085E+01  0.53297940621E+02  0.10000000000E+01 0.  0.
    9000005    1    3    3    0    0  0.32897492573E+02  0.42220119397E+02  0.85290686294E+02  0.10069898047E+03  0.10000000000E+01 0.  0.
         -4    1    1    2    0  502  0.13305730168E+02 -0.15765602392E+02 -0.31769162224E+02  0.37901045401E+02  0.12700000000E+01 0. -1.
<mgrwt>
<rscale>  1 0.12669082E+03</rscale>
<asrwt>0</asrwt>
<pdfrwt beam="2">  1       21 0.10470274E-01 0.12669082E+03</pdfrwt>
<pdfrwt beam="1">  1       -4 0.19052901E-01 0.12669082E+03</pdfrwt>
<totfact> 0.73675729E+04</totfact>
</mgrwt>
</event>
<event>
 6    4  0.6358868E-003  0.1310850E+03  0.7818608E-02  0.1225855E+00
         -4   -1    0    0    0  501 -0.00000000000E+00  0.00000000000E+00  0.15965975691E+02  0.16016406580E+02  0.12700000000E+01 0.  1.
         21   -1    0    0  501  502  0.00000000000E+00 -0.00000000000E+00 -0.58621024366E+03  0.58621024366E+03  0.00000000000E+00 0. -1.
         25    2    1    2    0    0  0.22308473798E+02 -0.32559612766E+02 -0.27833381589E+03  0.30765726738E+03  0.12500193885E+03 0.  0.
    9000005    1    3    3    0    0 -0.40811364541E+02 -0.36304775494E+02 -0.63786341279E+02  0.83983936161E+02  0.10000000000E+01 0.  0.
    9000005    1    3    3    0    0  0.63119838339E+02  0.37451627281E+01 -0.21454747461E+03  0.22367333122E+03  0.10000000000E+01 0.  0.
         -4    1    1    2    0  502 -0.22308473798E+02  0.32559612766E+02 -0.29191045208E+03  0.29456938286E+03  0.12700000000E+01 0. -1.
<mgrwt>
<rscale>  1 0.13108501E+03</rscale>
<asrwt>0</asrwt>
<pdfrwt beam="2">  1       21 0.90186195E-01 0.13108501E+03</pdfrwt>
<pdfrwt beam="1">  1       -4 0.24602890E-02 0.13108501E+03</pdfrwt>
<totfact> 0.31530725E+04</totfact>
</mgrwt>
</event>
<event>
 6    4  0.6358868E-003  0.1288473E+03  0.7818608E-02  0.1229176E+00
         21   -1    0    0  501  502  0.00000000000E+00  0.00000000000E+00  0.21538539017E+03  0.21538539017E+03  0.00000000000E+00 0. -1.
          4   -1    0    0  502    0 -0.00000000000E+00 -0.00000000000E+00 -0.40372287267E+02  0.40392257664E+02  0.12700000000E+01 0.  1.
         25    2    1    2    0    0  0.31241171833E+02  0.37232954674E-01  0.70890005266E+02  0.14706129872E+03  0.12500248209E+03 0.  0.
    9000005    1    3    3    0    0  0.69440882372E+02  0.17409415420E+02  0.76423430755E+02  0.10472184423E+03  0.10000000000E+01 0.  0.
    9000005    1    3    3    0    0 -0.38199710539E+02 -0.17372182465E+02 -0.55334254889E+01  0.42339454490E+02  0.10000000000E+01 0.  0.
          4    1    1    2  501    0 -0.31241171833E+02 -0.37232954674E-01  0.10412309764E+03  0.10871634912E+03  0.12700000000E+01 0. -1.
<mgrwt>
<rscale>  1 0.12884732E+03</rscale>
<asrwt>0</asrwt>
<pdfrwt beam="1">  1       21 0.33136213E-01 0.12884732E+03</pdfrwt>
<pdfrwt beam="2">  1        4 0.62129455E-02 0.12884732E+03</pdfrwt>
<totfact> 0.59351713E+04</totfact>
</mgrwt>
</event>
<event>
 6    4  0.6358868E-003  0.1309447E+03  0.7818608E-02  0.1226061E+00
         21   -1    0    0  501  502  0.00000000000E+00  0.00000000000E+00  0.10070329519E+03  0.10070329519E+03  0.00000000000E+00 0. -1.
         -4   -1    0    0    0  501 -0.00000000000E+00 -0.00000000000E+00 -0.85618152269E+02  0.85627570898E+02  0.12700000000E+01 0.  1.
         25    2    1    2    0    0  0.29967917593E+02 -0.24969321975E+02 -0.21663597202E+02  0.13272465446E+03  0.12499991733E+03 0.  0.
    9000005    1    3    3    0    0  0.66221380316E+02 -0.53147310781E+02 -0.16535101877E+02  0.86511949743E+02  0.10000000000E+01 0.  0.
    9000005    1    3    3    0    0 -0.36253462723E+02  0.28177988807E+02 -0.51284953251E+01  0.46212704713E+02  0.10000000000E+01 0.  0.
         -4    1    1    2    0  502 -0.29967917593E+02  0.24969321975E+02  0.36748740119E+02  0.53606211627E+02  0.12700000000E+01 0. -1.
<mgrwt>
<rscale>  1 0.13094473E+03</rscale>
<asrwt>0</asrwt>
<pdfrwt beam="1">  1       21 0.15492815E-01 0.13094473E+03</pdfrwt>
<pdfrwt beam="2">  1       -4 0.13173364E-01 0.13094473E+03</pdfrwt>
<totfact> 0.70376881E+04</totfact>
</mgrwt>
</event>
<event>
 6    4  0.6358868E-003  0.1328559E+03  0.7818608E-02  0.1223279E+00
          4   -1    0    0  502    0 -0.00000000000E+00  0.00000000000E+00  0.13868674381E+03  0.13869255859E+03  0.12700000000E+01 0. -1.
         21   -1    0    0  501  502  0.00000000000E+00 -0.00000000000E+00 -0.81866854922E+02  0.81866854922E+02  0.00000000000E+00 0.  1.
         25    2    1    2    0    0 -0.44632207233E+02 -0.57163541953E+01  0.93527818732E+02  0.16247502971E+03  0.12500388704E+03 0.  0.
    9000005    1    3    3    0    0 -0.86410040686E+02  0.10869852529E+02  0.53074001170E+02  0.10199361953E+03  0.10000000000E+01 0.  0.
    9000005    1    3    3    0    0  0.41777833453E+02 -0.16586206725E+02  0.40453817562E+02  0.60481410176E+02  0.10000000000E+01 0.  0.
          4    1    1    2  501    0  0.44632207233E+02  0.57163541953E+01 -0.36707929847E+02  0.58084383800E+02  0.12700000000E+01 0.  1.
<mgrwt>
<rscale>  1 0.13285587E+03</rscale>
<asrwt>0</asrwt>
<pdfrwt beam="2">  1       21 0.12594901E-01 0.13285587E+03</pdfrwt>
<pdfrwt beam="1">  1        4 0.21337627E-01 0.13285587E+03</pdfrwt>
<totfact> 0.43630319E+04</totfact>
</mgrwt>
</event>
<event>
 6    4  0.6358868E-003  0.1311838E+03  0.7818608E-02  0.1225710E+00
         21   -1    0    0  501  502  0.00000000000E+00  0.00000000000E+00  0.11322970912E+03  0.11322970912E+03  0.00000000000E+00 0. -1.
         -4   -1    0    0    0  501 -0.00000000000E+00 -0.00000000000E+00 -0.64851268066E+02  0.64863702251E+02  0.12700000000E+01 0. -1.
         25    2    1    2    0    0 -0.20313988627E+02 -0.34226565798E+02  0.42143371131E+02  0.13778702308E+03  0.12500033623E+03 0.  0.
    9000005    1    3    3    0    0  0.45719009154E+02 -0.31016422934E+02 -0.65921680058E+01  0.55648027536E+02  0.10000000000E+01 0.  0.
    9000005    1    3    3    0    0 -0.66032997781E+02 -0.32101428633E+01  0.48735539137E+02  0.82138995539E+02  0.10000000000E+01 0.  0.
         -4    1    1    2    0  502  0.20313988627E+02  0.34226565798E+02  0.62350699185E+01  0.40306388292E+02  0.12700000000E+01 0.  1.
<mgrwt>
<rscale>  1 0.13118384E+03</rscale>
<asrwt>0</asrwt>
<pdfrwt beam="1">  1       21 0.17419955E-01 0.13118384E+03</pdfrwt>
<pdfrwt beam="2">  1       -4 0.99786225E-02 0.13118384E+03</pdfrwt>
<totfact> 0.91291032E+04</totfact>
</mgrwt>
</event>
<event>
 6    4  0.6358868E-003  0.1278350E+03  0.7818608E-02  0.1230704E+00
         -4   -1    0    0    0  501 -0.00000000000E+00  0.00000000000E+00  0.74195225908E+01  0.75274308682E+01  0.12700000000E+01 0. -1.
         21   -1    0    0  501  502  0.00000000000E+00 -0.00000000000E+00 -0.82326081163E+03  0.82326081163E+03  0.00000000000E+00 0. -1.
         25    2    1    2    0    0 -0.23561277315E+02  0.12718678329E+02 -0.72039936496E+03  0.73165362523E+03  0.12499953489E+03 0.  0.
    9000005    1    3    3    0    0 -0.74975143139E+02  0.34453263725E+01 -0.39173787531E+03  0.39886426929E+03  0.10000000000E+01 0.  0.
    9000005    1    3    3    0    0  0.51413865823E+02  0.92733519564E+01 -0.32866148964E+03  0.33278935594E+03  0.10000000000E+01 0.  0.
         -4    1    1    2    0  502  0.23561277315E+02 -0.12718678329E+02 -0.95441924087E+02  0.99134617267E+02  0.12700000000E+01 0.  1.
<mgrwt>
<rscale>  1 0.12783498E+03</rscale>
<asrwt>0</asrwt>
<pdfrwt beam="2">  1       21 0.12665540E+00 0.12783498E+03</pdfrwt>
<pdfrwt beam="1">  1       -4 0.11498420E-02 0.12783498E+03</pdfrwt>
<totfact> 0.44938321E+04</totfact>
</mgrwt>
</event>
<event>
 6    4  0.6358868E-003  0.1392595E+03  0.7818608E-02  0.1214329E+00
         21   -1    0    0  501  502  0.00000000000E+00  0.00000000000E+00  0.13892535280E+03  0.13892535280E+03  0.00000000000E+00 0.  1.
         -4   -1    0    0    0  501 -0.00000000000E+00 -0.00000000000E+00 -0.14878187360E+03  0.14878729386E+03  0.12700000000E+01 0. -1.
         25    2    1    2    0    0 -0.42551699649E+02  0.44220643542E+02 -0.10505476203E+03  0.17444115646E+03  0.12500840605E+03 0.  0.
    9000005    1    3    3    0    0 -0.31200909630E+02  0.54097817354E+02 -0.13060581450E+03  0.14477206010E+03  0.10000000000E+01 0.  0.
    9000005    1    3    3    0    0 -0.11350790019E+02 -0.98771738124E+01  0.25551052466E+02  0.29669096358E+02  0.10000000000E+01 0.  0.
         -4    1    1    2    0  502  0.42551699649E+02 -0.44220643542E+02  0.95198241227E+02  0.11327149020E+03  0.12700000000E+01 0.  1.
<mgrwt>
<rscale>  1 0.13925952E+03</rscale>
<asrwt>0</asrwt>
<pdfrwt beam="1">  1       21 0.21373131E-01 0.13925952E+03</pdfrwt>
<pdfrwt beam="2">  1       -4 0.22890382E-01 0.13925952E+03</pdfrwt>
<totfact> 0.14736596E+04</totfact>
</mgrwt>
</event>
<event>
 6    4  0.6358868E-003  0.1311055E+03  0.7818608E-02  0.1225825E+00
         -4   -1    0    0    0  501 -0.00000000000E+00  0.00000000000E+00  0.91457907006E+03  0.91457995183E+03  0.12700000000E+01 0.  1.
         21   -1    0    0  501  502  0.00000000000E+00 -0.00000000000E+00 -0.12941425182E+02  0.12941425182E+02  0.00000000000E+00 0. -1.
         25    2    1    2    0    0  0.31895970267E+01 -0.39388261158E+02  0.86062623889E+03  0.87055509780E+03  0.12500818611E+03 0.  0.
    9000005    1    3    3    0    0 -0.46577007908E+02  0.21505276792E+02  0.28524578959E+03  0.28982417959E+03  0.10000000000E+01 0.  0.
    9000005    1    3    3    0    0  0.49766604934E+02 -0.60893537949E+02  0.57538044930E+03  0.58073091821E+03  0.10000000000E+01 0.  0.
         -4    1    1    2    0  502 -0.31895970267E+01  0.39388261158E+02  0.41011405988E+02  0.56966279212E+02  0.12700000000E+01 0. -1.
<mgrwt>
<rscale>  1 0.13110551E+03</rscale>
<asrwt>0</asrwt>
<pdfrwt beam="2">  1       21 0.19909892E-02 0.13110551E+03</pdfrwt>
<pdfrwt beam="1">  1       -4 0.14070928E+00 0.13110551E+03</pdfrwt>
<totfact> 0.18817139E+04</totfact>
</mgrwt>
</event>
<event>
 6    4  0.6358868E-003  0.1279815E+03  0.7818608E-02  0.1230482E+00
         21   -1    0    0  501  502  0.00000000000E+00  0.00000000000E+00  0.90002535115E+03  0.90002535115E+03  0.00000000000E+00 0. -1.
          4   -1    0    0  502    0 -0.00000000000E+00 -0.00000000000E+00 -0.10422459736E+02  0.10499550798E+02  0.12700000000E+01 0.  1.
         25    2    1    2    0    0 -0.25144979570E+02 -0.11180156589E+02  0.39628737219E+03  0.41644081973E+03  0.12498803574E+03 0.  0.
    9000005    1    3    3    0    0  0.32522425745E+02  0.24208544125E+02  0.54024940173E+02  0.67553356288E+02  0.10000000000E+01 0.  0.
    9000005    1    3    3    0    0 -0.57667405315E+02 -0.35388700714E+02  0.34226243202E+03  0.34888746344E+03  0.10000000000E+01 0.  0.
          4    1    1    2  501    0  0.25144979570E+02  0.11180156589E+02  0.49331551922E+03  0.49408408222E+03  0.12700000000E+01 0. -1.
<mgrwt>
<rscale>  1 0.12798154E+03</rscale>
<asrwt>0</asrwt>
<pdfrwt beam="1">  1       21 0.13846538E+00 0.12798154E+03</pdfrwt>
<pdfrwt beam="2">  1        4 0.16094551E-02 0.12798154E+03</pdfrwt>
<totfact> 0.21589345E+04</totfact>
</mgrwt>
</event>
<event>
 6    4  0.6358868E-003  0.1278433E+03  0.7818608E-02  0.1230691E+00
          4   -1    0    0  502    0 -0.00000000000E+00  0.00000000000E+00  0.56541310843E+03  0.56541453473E+03  0.12700000000E+01 0.  1.
         21   -1    0    0  501  502  0.00000000000E+00 -0.00000000000E+00 -0.11091476494E+02  0.11091476494E+02  0.00000000000E+00 0.  1.
         25    2    1    2    0    0 -0.23222852887E+02  0.13422200987E+02  0.40209986772E+03  0.42193390903E+03  0.12499785435E+03 0.  0.
    9000005    1    3    3    0    0  0.21054205364E+02  0.37949037220E+02  0.50007819865E+02  0.66220774966E+02  0.10000000000E+01 0.  0.
    9000005    1    3    3    0    0 -0.44277058252E+02 -0.24526836233E+02  0.35209204785E+03  0.35571313406E+03  0.10000000000E+01 0.  0.
          4    1    1    2  501    0  0.23222852887E+02 -0.13422200987E+02  0.15222176422E+03  0.15457210220E+03  0.12700000000E+01 0. -1.
<mgrwt>
<rscale>  1 0.12784334E+03</rscale>
<asrwt>0</asrwt>
<pdfrwt beam="2">  1       21 0.17063814E-02 0.12784334E+03</pdfrwt>
<pdfrwt beam="1">  1        4 0.86992313E-01 0.12784334E+03</pdfrwt>
<totfact> 0.74830103E+04</totfact>
</mgrwt>
</event>
<event>
 6    4  0.6358868E-003  0.1434425E+03  0.7818608E-02  0.1208770E+00
         -4   -1    0    0    0  501 -0.00000000000E+00  0.00000000000E+00  0.15229240432E+02  0.15282102739E+02  0.12700000000E+01 0.  1.
         21   -1    0    0  501  502  0.00000000000E+00 -0.00000000000E+00 -0.78474769135E+03  0.78474769135E+03  0.00000000000E+00 0.  1.
         25    2    1    2    0    0 -0.66613634440E+02  0.22681313502E+02 -0.59051560429E+03  0.60768778028E+03  0.12499576439E+03 0.  0.
    9000005    1    3    3    0    0  0.15510409810E+02  0.53270754999E+02 -0.20979988675E+03  0.21701460465E+03  0.10000000000E+01 0.  0.
    9000005    1    3    3    0    0 -0.82124044250E+02 -0.30589441497E+02 -0.38071571754E+03  0.39067317563E+03  0.10000000000E+01 0.  0.
         -4    1    1    2    0  502  0.66613634440E+02 -0.22681313502E+02 -0.17900284663E+03  0.19234201381E+03  0.12700000000E+01 0. -1.
<mgrwt>
<rscale>  1 0.14344253E+03</rscale>
<asrwt>0</asrwt>
<pdfrwt beam="2">  1       21 0.12073044E+00 0.14344253E+03</pdfrwt>
<pdfrwt beam="1">  1       -4 0.23471049E-02 0.14344253E+03</pdfrwt>
<totfact> 0.17121509E+04</totfact>
</mgrwt>
</event>
<event>
 6    4  0.6358868E-003  0.1378225E+03  0.7818608E-02  0.1216289E+00
         21   -1    0    0  501  502  0.00000000000E+00  0.00000000000E+00  0.43442863114E+03  0.43442863114E+03  0.00000000000E+00 0. -1.
          4   -1    0    0  502    0 -0.00000000000E+00 -0.00000000000E+00 -0.23325898540E+02  0.23360446115E+02  0.12700000000E+01 0. -1.
         25    2    1    2    0    0  0.35044864640E+02 -0.46279187473E+02  0.23584228451E+03  0.27316041400E+03  0.12500049153E+03 0.  0.
    9000005    1    3    3    0    0 -0.27129799449E+02  0.20263420103E+02  0.21118055851E+02  0.39919976144E+02  0.10000000000E+01 0.  0.
    9000005    1    3    3    0    0  0.62174664089E+02 -0.66542607576E+02  0.21472422866E+03  0.23324043786E+03  0.10000000000E+01 0.  0.
          4    1    1    2  501    0 -0.35044864640E+02  0.46279187473E+02  0.17526044808E+03  0.18462866325E+03  0.12700000000E+01 0.  1.
<mgrwt>
<rscale>  1 0.13782245E+03</rscale>
<asrwt>0</asrwt>
<pdfrwt beam="1">  1       21 0.66835168E-01 0.13782245E+03</pdfrwt>
<pdfrwt beam="2">  1        4 0.35914004E-02 0.13782245E+03</pdfrwt>
<totfact> 0.34128190E+04</totfact>
</mgrwt>
</event>
<event>
 6    4  0.6358868E-003  0.1275608E+03  0.7818608E-02  0.1231121E+00
         21   -1    0    0  501  502  0.00000000000E+00  0.00000000000E+00  0.15796577893E+03  0.15796577893E+03  0.00000000000E+00 0. -1.
          4   -1    0    0  502    0 -0.00000000000E+00 -0.00000000000E+00 -0.44679561367E+02  0.44697607363E+02  0.12700000000E+01 0. -1.
         25    2    1    2    0    0  0.23865870172E+02 -0.87563171624E+01  0.54714178232E+02  0.13879986352E+03  0.12500203184E+03 0.  0.
    9000005    1    3    3    0    0 -0.88732907010E+01 -0.44594774849E+02  0.73753451835E+02  0.86648721221E+02  0.10000000000E+01 0.  0.
    9000005    1    3    3    0    0  0.32739160873E+02  0.35838457687E+02 -0.19039273603E+02  0.52151142301E+02  0.10000000000E+01 0.  0.
          4    1    1    2  501    0 -0.23865870172E+02  0.87563171624E+01  0.58572039328E+02  0.63863522768E+02  0.12700000000E+01 0.  1.
<mgrwt>
<rscale>  1 0.12756081E+03</rscale>
<asrwt>0</asrwt>
<pdfrwt beam="1">  1       21 0.24302427E-01 0.12756081E+03</pdfrwt>
<pdfrwt beam="2">  1        4 0.68755596E-02 0.12756081E+03</pdfrwt>
<totfact> 0.91016652E+04</totfact>
</mgrwt>
</event>
<event>
 6    4  0.6358868E-003  0.1321044E+03  0.7818608E-02  0.1224366E+00
         21   -1    0    0  501  502  0.00000000000E+00  0.00000000000E+00  0.23489441516E+02  0.23489441516E+02  0.00000000000E+00 0.  1.
          4   -1    0    0  502    0 -0.00000000000E+00 -0.00000000000E+00 -0.36346669523E+03  0.36346891399E+03  0.12700000000E+01 0.  1.
         25    2    1    2    0    0  0.22378166570E+02 -0.36405847564E+02 -0.30256683774E+03  0.33014884751E+03  0.12500160854E+03 0.  0.
    9000005    1    3    3    0    0 -0.15759466274E+00 -0.78381477023E+02 -0.13678486749E+03  0.15765399059E+03  0.10000000000E+01 0.  0.
    9000005    1    3    3    0    0  0.22535761233E+02  0.41975629459E+02 -0.16578197025E+03  0.17249485691E+03  0.10000000000E+01 0.  0.
          4    1    1    2  501    0 -0.22378166570E+02  0.36405847564E+02 -0.37410415974E+02  0.56809508001E+02  0.12700000000E+01 0. -1.
<mgrwt>
<rscale>  1 0.13210439E+03</rscale>
<asrwt>0</asrwt>
<pdfrwt beam="1">  1       21 0.36137606E-02 0.13210439E+03</pdfrwt>
<pdfrwt beam="2">  1        4 0.55920759E-01 0.13210439E+03</pdfrwt>
<totfact> 0.57435775E+04</totfact>
</mgrwt>
</event>
<event>
 6    4  0.6358868E-003  0.1289759E+03  0.7818608E-02  0.1228983E+00
         21   -1    0    0  501  502  0.00000000000E+00  0.00000000000E+00  0.36875189234E+02  0.36875189234E+02  0.00000000000E+00 0. -1.
         -4   -1    0    0    0  501 -0.00000000000E+00 -0.00000000000E+00 -0.19023028749E+03  0.19023452678E+03  0.12700000000E+01 0.  1.
         25    2    1    2    0    0  0.12038860443E+02  0.29444950144E+02 -0.14526929251E+03  0.19426260953E+03  0.12499141917E+03 0.  0.
    9000005    1    3    3    0    0  0.44585377182E+02 -0.23188525258E+02 -0.11470620902E+03  0.12523608885E+03  0.10000000000E+01 0.  0.
    9000005    1    3    3    0    0 -0.32546516740E+02  0.52633475402E+02 -0.30563083487E+02  0.69026520679E+02  0.10000000000E+01 0.  0.
         -4    1    1    2    0  502 -0.12038860443E+02 -0.29444950144E+02 -0.80858057454E+01  0.32847106482E+02  0.12700000000E+01 0. -1.
<mgrwt>
<rscale>  1 0.12897594E+03</rscale>
<asrwt>0</asrwt>
<pdfrwt beam="1">  1       21 0.56731062E-02 0.12897594E+03</pdfrwt>
<pdfrwt beam="2">  1       -4 0.29268206E-01 0.12897594E+03</pdfrwt>
<totfact> 0.96554924E+04</totfact>
</mgrwt>
</event>
<event>
 6    4  0.6358868E-003  0.1270344E+03  0.7818608E-02  0.1231924E+00
         21   -1    0    0  501  502  0.00000000000E+00  0.00000000000E+00  0.83174749840E+02  0.83174749840E+02  0.00000000000E+00 0. -1.
         -4   -1    0    0    0  501 -0.00000000000E+00 -0.00000000000E+00 -0.69024991319E+02  0.69036673780E+02  0.12700000000E+01 0. -1.
         25    2    1    2    0    0  0.15229123798E+02 -0.16850098724E+02  0.34711826744E+01  0.12708182114E+03  0.12498755185E+03 0.  0.
    9000005    1    3    3    0    0 -0.24525283992E+02 -0.13159723584E+02 -0.51846647806E+02  0.58853570566E+02  0.10000000000E+01 0.  0.
    9000005    1    3    3    0    0  0.39754407790E+02 -0.36903751399E+01  0.55317830480E+02  0.68228250574E+02  0.10000000000E+01 0.  0.
         -4    1    1    2    0  502 -0.15229123798E+02  0.16850098724E+02  0.10678575847E+02  0.25129602479E+02  0.12700000000E+01 0.  1.
<mgrwt>
<rscale>  1 0.12703441E+03</rscale>
<asrwt>0</asrwt>
<pdfrwt beam="1">  1       21 0.12796115E-01 0.12703441E+03</pdfrwt>
<pdfrwt beam="2">  1       -4 0.10620874E-01 0.12703441E+03</pdfrwt>
<totfact> 0.14262611E+05</totfact>
</mgrwt>
</event>
<event>
 6    4  0.6358868E-003  0.1475235E+03  0.7818608E-02  0.1203550E+00
         21   -1    0    0  501  502  0.00000000000E+00  0.00000000000E+00  0.51445795740E+02  0.51445795740E+02  0.00000000000E+00 0.  1.
         -4   -1    0    0    0  501 -0.00000000000E+00 -0.00000000000E+00 -0.37846112910E+03  0.37846325996E+03  0.12700000000E+01 0. -1.
         25    2    1    2    0    0  0.57484363017E+01  0.78167625452E+02 -0.31856574692E+03  0.35106597991E+03  0.12497985819E+03 0.  0.
    9000005    1    3    3    0    0 -0.53414395803E+02  0.56121190516E+02 -0.22682656700E+03  0.23969559279E+03  0.10000000000E+01 0.  0.
    9000005    1    3    3    0    0  0.59162832105E+02  0.22046434936E+02 -0.91739179913E+02  0.11137038712E+03  0.10000000000E+01 0.  0.
         -4    1    1    2    0  502 -0.57484363017E+01 -0.78167625452E+02 -0.84495864408E+01  0.78843075788E+02  0.12700000000E+01 0.  1.
<mgrwt>
<rscale>  1 0.14752351E+03</rscale>
<asrwt>0</asrwt>
<pdfrwt beam="1">  1       21 0.79147377E-02 0.14752351E+03</pdfrwt>
<pdfrwt beam="2">  1       -4 0.58226160E-01 0.14752351E+03</pdfrwt>
<totfact> 0.14213153E+04</totfact>
</mgrwt>
</event>
<event>
 6    4  0.6358868E-003  0.1276444E+03  0.7818608E-02  0.1230993E+00
         21   -1    0    0  501  502  0.00000000000E+00  0.00000000000E+00  0.54870191972E+02  0.54870191972E+02  0.00000000000E+00 0.  1.
          4   -1    0    0  502    0 -0.00000000000E+00 -0.00000000000E+00 -0.15668153696E+03  0.15668668394E+03  0.12700000000E+01 0.  1.
         25    2    1    2    0    0 -0.24789296327E+02 -0.72317997416E+01 -0.12364958936E+03  0.17771415206E+03  0.12500516291E+03 0.  0.
    9000005    1    3    3    0    0 -0.15536542733E+02  0.56462352561E+02 -0.35241914687E+02  0.68354765508E+02  0.10000000000E+01 0.  0.
    9000005    1    3    3    0    0 -0.92527535944E+01 -0.63694152302E+02 -0.88407674673E+02  0.10935938655E+03  0.10000000000E+01 0.  0.
          4    1    1    2  501    0  0.24789296327E+02  0.72317997416E+01  0.21838244376E+02  0.33842723846E+02  0.12700000000E+01 0. -1.
<mgrwt>
<rscale>  1 0.12764442E+03</rscale>
<asrwt>0</asrwt>
<pdfrwt beam="1">  1       21 0.84415679E-02 0.12764442E+03</pdfrwt>
<pdfrwt beam="2">  1        4 0.24106379E-01 0.12764442E+03</pdfrwt>
<totfact> 0.70090594E+04</totfact>
</mgrwt>
</event>
<event>
 6    4  0.6358868E-003  0.1303956E+03  0.7818608E-02  0.1226870E+00
         -4   -1    0    0    0  501 -0.00000000000E+00  0.00000000000E+00  0.57810317631E+01  0.59188874162E+01  0.12700000000E+01 0.  1.
         21   -1    0    0  501  502  0.00000000000E+00 -0.00000000000E+00 -0.13362471929E+04  0.13362471929E+04  0.00000000000E+00 0.  1.
         25    2    1    2    0    0 -0.23518228264E+02 -0.28687945398E+02 -0.11802836047E+04  0.11874646956E+04  0.12500764186E+03 0.  0.
    9000005    1    3    3    0    0 -0.61780411240E+02 -0.33417466347E+02 -0.39242119445E+03  0.39865892706E+03  0.10000000000E+01 0.  0.
    9000005    1    3    3    0    0  0.38262182976E+02  0.47295209489E+01 -0.78786241028E+03  0.78880576858E+03  0.10000000000E+01 0.  0.
         -4    1    1    2    0  502  0.23518228264E+02  0.28687945398E+02 -0.15018255639E+03  0.15470138466E+03  0.12700000000E+01 0. -1.
<mgrwt>
<rscale>  1 0.13039561E+03</rscale>
<asrwt>0</asrwt>
<pdfrwt beam="2">  1       21 0.20557628E+00 0.13039561E+03</pdfrwt>
<pdfrwt beam="1">  1       -4 0.90004114E-03 0.13039561E+03</pdfrwt>
<totfact> 0.17841310E+04</totfact>
</mgrwt>
</event>
<event>
 6    4  0.6358868E-003  0.1342056E+03  0.7818608E-02  0.1221345E+00
         -4   -1    0    0    0  501 -0.00000000000E+00  0.00000000000E+00  0.44324117994E+03  0.44324299937E+03  0.12700000000E+01 0. -1.
         21   -1    0    0  501  502  0.00000000000E+00 -0.00000000000E+00 -0.17839575141E+03  0.17839575141E+03  0.00000000000E+00 0.  1.
         25    2    1    2    0    0  0.47642260595E+02 -0.10819732756E+02  0.42945032608E+03  0.44993191688E+03  0.12499718257E+03 0.  0.
    9000005    1    3    3    0    0  0.18611588768E+02  0.55580385332E+02  0.24094630576E+03  0.24797518571E+03  0.10000000000E+01 0.  0.
    9000005    1    3    3    0    0  0.29030671827E+02 -0.66400118088E+02  0.18850402032E+03  0.20195673117E+03  0.10000000000E+01 0.  0.
         -4    1    1    2    0  502 -0.47642260595E+02  0.10819732756E+02 -0.16460489755E+03  0.17170683391E+03  0.12700000000E+01 0.  1.
<mgrwt>
<rscale>  1 0.13420562E+03</rscale>
<asrwt>0</asrwt>
<pdfrwt beam="2">  1       21 0.27445500E-01 0.13420562E+03</pdfrwt>
<pdfrwt beam="1">  1       -4 0.68191438E-01 0.13420562E+03</pdfrwt>
<totfact> 0.10656289E+03</totfact>
</mgrwt>
</event>
<event>
 6    4  0.6358868E-003  0.1269358E+03  0.7818608E-02  0.1232075E+00
         -4   -1    0    0    0  501 -0.00000000000E+00  0.00000000000E+00  0.17630468324E+04  0.17630472898E+04  0.12700000000E+01 0. -1.
         21   -1    0    0  501  502  0.00000000000E+00 -0.00000000000E+00 -0.10528378034E+02  0.10528378034E+02  0.00000000000E+00 0.  1.
         25    2    1    2    0    0  0.11189420798E+02 -0.19038587243E+02  0.17458698929E+04  0.17504783257E+04  0.12500005986E+03 0.  0.
    9000005    1    3    3    0    0 -0.38095925941E+02 -0.28278577862E+02  0.29925509026E+03  0.30299436725E+03  0.10000000000E+01 0.  0.
    9000005    1    3    3    0    0  0.49285346739E+02  0.92399906189E+01  0.14466148027E+04  0.14474839585E+04  0.10000000000E+01 0.  0.
         -4    1    1    2    0  502 -0.11189420798E+02  0.19038587243E+02  0.66485614154E+01  0.23097342075E+02  0.12700000000E+01 0.  1.
<mgrwt>
<rscale>  1 0.12693576E+03</rscale>
<asrwt>0</asrwt>
<pdfrwt beam="2">  1       21 0.16197519E-02 0.12693576E+03</pdfrwt>
<pdfrwt beam="1">  1       -4 0.27124367E+00 0.12693576E+03</pdfrwt>
<totfact> 0.39260119E+03</totfact>
</mgrwt>
</event>
<event>
 6    4  0.6358868E-003  0.1275965E+03  0.7818608E-02  0.1231066E+00
         -4   -1    0    0    0  501 -0.00000000000E+00  0.00000000000E+00  0.34908440306E+02  0.34931534529E+02  0.12700000000E+01 0. -1.
         21   -1    0    0  501  502  0.00000000000E+00 -0.00000000000E+00 -0.41395099114E+03  0.41395099114E+03  0.00000000000E+00 0.  1.
         25    2    1    2    0    0  0.25779298295E+01 -0.25474537891E+02 -0.84080178569E+02  0.15280819082E+03  0.12500107580E+03 0.  0.
    9000005    1    3    3    0    0 -0.48376007146E+02 -0.24049912099E+02  0.51643657672E+00  0.54036127231E+02  0.10000000000E+01 0.  0.
    9000005    1    3    3    0    0  0.50953936976E+02 -0.14246257925E+01 -0.84596615146E+02  0.98772063592E+02  0.10000000000E+01 0.  0.
         -4    1    1    2    0  502 -0.25779298295E+01  0.25474537891E+02 -0.29496237226E+03  0.29607433484E+03  0.12700000000E+01 0.  1.
<mgrwt>
<rscale>  1 0.12759650E+03</rscale>
<asrwt>0</asrwt>
<pdfrwt beam="2">  1       21 0.63684762E-01 0.12759650E+03</pdfrwt>
<pdfrwt beam="1">  1       -4 0.53724561E-02 0.12759650E+03</pdfrwt>
<totfact> 0.19778492E+04</totfact>
</mgrwt>
</event>
<event>
 6    4  0.6358868E-003  0.1286445E+03  0.7818608E-02  0.1229481E+00
         -4   -1    0    0    0  501 -0.00000000000E+00  0.00000000000E+00  0.28269722292E+02  0.28298234901E+02  0.12700000000E+01 0.  1.
         21   -1    0    0  501  502  0.00000000000E+00 -0.00000000000E+00 -0.23571523229E+03  0.23571523229E+03  0.00000000000E+00 0.  1.
         25    2    1    2    0    0  0.30023432089E+02  0.46633331076E+01 -0.14057908183E+03  0.19055677746E+03  0.12500501605E+03 0.  0.
    9000005    1    3    3    0    0  0.47121952492E+02  0.54908591893E+02 -0.10143213563E+03  0.12459899682E+03  0.10000000000E+01 0.  0.
    9000005    1    3    3    0    0 -0.17098520402E+02 -0.50245258786E+02 -0.39146946205E+02  0.65957780645E+02  0.10000000000E+01 0.  0.
         -4    1    1    2    0  502 -0.30023432089E+02 -0.46633331076E+01 -0.66866428161E+02  0.73456689723E+02  0.12700000000E+01 0. -1.
<mgrwt>
<rscale>  1 0.12864450E+03</rscale>
<asrwt>0</asrwt>
<pdfrwt beam="2">  1       21 0.36263881E-01 0.12864450E+03</pdfrwt>
<pdfrwt beam="1">  1       -4 0.43516446E-02 0.12864450E+03</pdfrwt>
<totfact> 0.88193156E+04</totfact>
</mgrwt>
</event>
<event>
 6    4  0.6358868E-003  0.1477126E+03  0.7818608E-02  0.1203312E+00
          4   -1    0    0  502    0 -0.00000000000E+00  0.00000000000E+00  0.27528646290E+03  0.27528939237E+03  0.12700000000E+01 0.  1.
         21   -1    0    0  501  502  0.00000000000E+00 -0.00000000000E+00 -0.15751279756E+03  0.15751279756E+03  0.00000000000E+00 0. -1.
         25    2    1    2    0    0 -0.65698765532E+02 -0.43315511295E+02  0.24330819210E+03  0.28463643268E+03  0.12500584449E+03 0.  0.
    9000005    1    3    3    0    0 -0.42655709243E+01  0.34353769851E+02  0.19144502534E+02  0.39571310005E+02  0.10000000000E+01 0.  0.
    9000005    1    3    3    0    0 -0.61433194608E+02 -0.77669281145E+02  0.22416368957E+03  0.24506512268E+03  0.10000000000E+01 0.  0.
          4    1    1    2  501    0  0.65698765532E+02  0.43315511295E+02 -0.12553452676E+03  0.14816575725E+03  0.12700000000E+01 0. -1.
<mgrwt>
<rscale>  1 0.14771263E+03</rscale>
<asrwt>0</asrwt>
<pdfrwt beam="2">  1       21 0.24232738E-01 0.14771263E+03</pdfrwt>
<pdfrwt beam="1">  1        4 0.42352383E-01 0.14771263E+03</pdfrwt>
<totfact> 0.36239548E+03</totfact>
</mgrwt>
</event>
<event>
 6    4  0.6358868E-003  0.1319345E+03  0.7818608E-02  0.1224613E+00
         21   -1    0    0  501  502  0.00000000000E+00  0.00000000000E+00  0.43765265192E+03  0.43765265192E+03  0.00000000000E+00 0. -1.
         -4   -1    0    0    0  501 -0.00000000000E+00 -0.00000000000E+00 -0.17502359377E+02  0.17548375531E+02  0.12700000000E+01 0. -1.
         25    2    1    2    0    0  0.19096638863E+02  0.37642326236E+02  0.33789645950E+03  0.36274059109E+03  0.12500037099E+03 0.  0.
    9000005    1    3    3    0    0 -0.33181093745E+02  0.64164552646E+02  0.16339643757E+03  0.17865461262E+03  0.10000000000E+01 0.  0.
    9000005    1    3    3    0    0  0.52277732608E+02 -0.26522226410E+02  0.17450002192E+03  0.18408597847E+03  0.10000000000E+01 0.  0.
         -4    1    1    2    0  502 -0.19096638863E+02 -0.37642326236E+02  0.82253833051E+02  0.92460436360E+02  0.12700000000E+01 0.  1.
<mgrwt>
<rscale>  1 0.13193453E+03</rscale>
<asrwt>0</asrwt>
<pdfrwt beam="1">  1       21 0.67331169E-01 0.13193453E+03</pdfrwt>
<pdfrwt beam="2">  1       -4 0.26963525E-02 0.13193453E+03</pdfrwt>
<totfact> 0.52434308E+04</totfact>
</mgrwt>
</event>
<event>
 6    4  0.6358868E-003  0.1301578E+03  0.7818608E-02  0.1227222E+00
         21   -1    0    0  501  502  0.00000000000E+00  0.00000000000E+00  0.28044987512E+03  0.28044987512E+03  0.00000000000E+00 0. -1.
         -4   -1    0    0    0  501 -0.00000000000E+00 -0.00000000000E+00 -0.25247803806E+02  0.25279725019E+02  0.12700000000E+01 0. -1.
         25    2    1    2    0    0  0.28193145373E+02 -0.22800900905E+02  0.21701986326E+03  0.25305865521E+03  0.12500530948E+03 0.  0.
    9000005    1    3    3    0    0  0.57650402638E+02 -0.10749143998E+01  0.35144798888E+02  0.67534296873E+02  0.10000000000E+01 0.  0.
    9000005    1    3    3    0    0 -0.29457257265E+02 -0.21725986505E+02  0.18187506437E+03  0.18552435834E+03  0.10000000000E+01 0.  0.
         -4    1    1    2    0  502 -0.28193145373E+02  0.22800900905E+02  0.38182208054E+02  0.52670944932E+02  0.12700000000E+01 0.  1.
<mgrwt>
<rscale>  1 0.13015783E+03</rscale>
<asrwt>0</asrwt>
<pdfrwt beam="1">  1       21 0.43146132E-01 0.13015783E+03</pdfrwt>
<pdfrwt beam="2">  1       -4 0.38869544E-02 0.13015783E+03</pdfrwt>
<totfact> 0.74703635E+04</totfact>
</mgrwt>
</event>
<event>
 6    4  0.6358868E-003  0.1296995E+03  0.7818608E-02  0.1227902E+00
         -4   -1    0    0    0  501 -0.00000000000E+00  0.00000000000E+00  0.76674867514E+02  0.76685384580E+02  0.12700000000E+01 0. -1.
         21   -1    0    0  501  502  0.00000000000E+00 -0.00000000000E+00 -0.12150428872E+03  0.12150428872E+03  0.00000000000E+00 0. -1.
         25    2    1    2    0    0  0.14831906227E+02  0.31241971242E+02 -0.77088053540E+02  0.15087922552E+03  0.12500370588E+03 0.  0.
    9000005    1    3    3    0    0  0.21808487435E+02 -0.42472914673E+02 -0.58274581236E+01  0.48109436425E+02  0.10000000000E+01 0.  0.
    9000005    1    3    3    0    0 -0.69765812071E+01  0.73714885915E+02 -0.71260595417E+02  0.10276978909E+03  0.10000000000E+01 0.  0.
         -4    1    1    2    0  502 -0.14831906227E+02 -0.31241971242E+02  0.32258632334E+02  0.47310447784E+02  0.12700000000E+01 0.  1.
<mgrwt>
<rscale>  1 0.12969955E+03</rscale>
<asrwt>0</asrwt>
<pdfrwt beam="2">  1       21 0.18692967E-01 0.12969955E+03</pdfrwt>
<pdfrwt beam="1">  1       -4 0.11797453E-01 0.12969955E+03</pdfrwt>
<totfact> 0.60318331E+04</totfact>
</mgrwt>
</event>
<event>
 6    4  0.6358868E-003  0.1417868E+03  0.7818608E-02  0.1210945E+00
         -4   -1    0    0    0  501 -0.00000000000E+00  0.00000000000E+00  0.42031160969E+02  0.42050343546E+02  0.12700000000E+01 0.  1.
         21   -1    0    0  501  502  0.00000000000E+00 -0.00000000000E+00 -0.40202975277E+03  0.40202975277E+03  0.00000000000E+00 0. -1.
         25    2    1    2    0    0 -0.61671449015E+02 -0.26083592480E+02 -0.94809372355E+02  0.17056472850E+03  0.12497915067E+03 0.  0.
    9000005    1    3    3    0    0 -0.12338484684E+02 -0.72037905892E+02 -0.37924324313E+02  0.82346538872E+02  0.10000000000E+01 0.  0.
    9000005    1    3    3    0    0 -0.49332964331E+02  0.45954313412E+02 -0.56885048041E+02  0.88218189630E+02  0.10000000000E+01 0.  0.
         -4    1    1    2    0  502  0.61671449015E+02  0.26083592480E+02 -0.26518921945E+03  0.27351536782E+03  0.12700000000E+01 0. -1.
<mgrwt>
<rscale>  1 0.14178685E+03</rscale>
<asrwt>0</asrwt>
<pdfrwt beam="2">  1       21 0.61850734E-01 0.14178685E+03</pdfrwt>
<pdfrwt beam="1">  1       -4 0.64679621E-02 0.14178685E+03</pdfrwt>
<totfact> 0.15714562E+04</totfact>
</mgrwt>
</event>
<event>
 6    4  0.6358868E-003  0.1358951E+03  0.7818608E-02  0.1218962E+00
         -4   -1    0    0    0  501 -0.00000000000E+00  0.00000000000E+00  0.11634100364E+02  0.11703212862E+02  0.12700000000E+01 0.  1.
         21   -1    0    0  501  502  0.00000000000E+00 -0.00000000000E+00 -0.97673981120E+03  0.97673981120E+03  0.00000000000E+00 0. -1.
         25    2    1    2    0    0  0.52713513881E+02 -0.79828319250E+01 -0.43677163132E+03  0.45742423660E+03  0.12500013664E+03 0.  0.
    9000005    1    3    3    0    0  0.20883818492E+02  0.55730262248E+02 -0.13819022437E+03  0.15046439484E+03  0.10000000000E+01 0.  0.
    9000005    1    3    3    0    0  0.31829695389E+02 -0.63713094173E+02 -0.29858140695E+03  0.30695984176E+03  0.10000000000E+01 0.  0.
         -4    1    1    2    0  502 -0.52713513881E+02  0.79828319250E+01 -0.52833407952E+03  0.53101878746E+03  0.12700000000E+01 0. -1.
<mgrwt>
<rscale>  1 0.13589509E+03</rscale>
<asrwt>0</asrwt>
<pdfrwt beam="2">  1       21 0.15026764E+00 0.13589509E+03</pdfrwt>
<pdfrwt beam="1">  1       -4 0.17952417E-02 0.13589509E+03</pdfrwt>
<totfact> 0.14860541E+04</totfact>
</mgrwt>
</event>
<event>
 6    4  0.6358868E-003  0.1296956E+03  0.7818608E-02  0.1227908E+00
         -4   -1    0    0    0  501 -0.00000000000E+00  0.00000000000E+00  0.86537482148E+03  0.86537575338E+03  0.12700000000E+01 0. -1.
         21   -1    0    0  501  502  0.00000000000E+00 -0.00000000000E+00 -0.38362871986E+02  0.38362871986E+02  0.00000000000E+00 0. -1.
         25    2    1    2    0    0 -0.34035795836E+02  0.61168589089E+01  0.85151624987E+03  0.86133667968E+03  0.12500040242E+03 0.  0.
    9000005    1    3    3    0    0  0.20958799522E+02 -0.45273201642E+02  0.45590221140E+03  0.45862485805E+03  0.10000000000E+01 0.  0.
    9000005    1    3    3    0    0 -0.54994595358E+02  0.51390060551E+02  0.39561403848E+03  0.40271182163E+03  0.10000000000E+01 0.  0.
         -4    1    1    2    0  502  0.34035795836E+02 -0.61168589089E+01 -0.24504300381E+02  0.42401945690E+02  0.12700000000E+01 0. -1.
<mgrwt>
<rscale>  1 0.12969561E+03</rscale>
<asrwt>0</asrwt>
<pdfrwt beam="2">  1       21 0.59019810E-02 0.12969561E+03</pdfrwt>
<pdfrwt beam="1">  1       -4 0.13313626E+00 0.12969561E+03</pdfrwt>
<totfact> 0.35839176E+03</totfact>
</mgrwt>
</event>
<event>
 6    4  0.6358868E-003  0.1271134E+03  0.7818608E-02  0.1231803E+00
         21   -1    0    0  501  502  0.00000000000E+00  0.00000000000E+00  0.49487178012E+02  0.49487178012E+02  0.00000000000E+00 0.  1.
          4   -1    0    0  502    0 -0.00000000000E+00 -0.00000000000E+00 -0.48577209123E+03  0.48577375137E+03  0.12700000000E+01 0. -1.
         25    2    1    2    0    0 -0.22065394262E+02  0.68589099215E+01 -0.47414505055E+03  0.49088831206E+03  0.12499551869E+03 0.  0.
    9000005    1    3    3    0    0 -0.59019611354E+02  0.18075155319E+02 -0.12298191655E+03  0.13760660435E+03  0.10000000000E+01 0.  0.
    9000005    1    3    3    0    0  0.36954217091E+02 -0.11216245398E+02 -0.35116313400E+03  0.35328170771E+03  0.10000000000E+01 0.  0.
          4    1    1    2  501    0  0.22065394262E+02 -0.68589099215E+01  0.37860137327E+02  0.44372617319E+02  0.12700000000E+01 0.  1.
<mgrwt>
<rscale>  1 0.12711336E+03</rscale>
<asrwt>0</asrwt>
<pdfrwt beam="1">  1       21 0.76134119E-02 0.12711336E+03</pdfrwt>
<pdfrwt beam="2">  1        4 0.74735550E-01 0.12711336E+03</pdfrwt>
<totfact> 0.87964061E+03</totfact>
</mgrwt>
</event>
<event>
 6    4  0.6358868E-003  0.1833521E+03  0.7818608E-02  0.1164598E+00
         21   -1    0    0  501  502  0.00000000000E+00  0.00000000000E+00  0.57001289699E+03  0.57001289699E+03  0.00000000000E+00 0. -1.
         -4   -1    0    0    0  501 -0.00000000000E+00 -0.00000000000E+00 -0.49545949664E+02  0.49562223801E+02  0.12700000000E+01 0.  1.
         25    2    1    2    0    0 -0.13060044027E+03 -0.30606768407E+02  0.19558754752E+03  0.26809043181E+03  0.12499896645E+03 0.  0.
    9000005    1    3    3    0    0 -0.64164174164E+02 -0.13824724135E+02  0.53222495955E+01  0.65859627879E+02  0.10000000000E+01 0.  0.
    9000005    1    3    3    0    0 -0.66436266104E+02 -0.16782044271E+02  0.19026529793E+03  0.20223080393E+03  0.10000000000E+01 0.  0.
         -4    1    1    2    0  502  0.13060044027E+03  0.30606768407E+02  0.32487939980E+03  0.35148468898E+03  0.12700000000E+01 0. -1.
<mgrwt>
<rscale>  1 0.18335210E+03</rscale>
<asrwt>0</asrwt>
<pdfrwt beam="1">  1       21 0.87694287E-01 0.18335210E+03</pdfrwt>
<pdfrwt beam="2">  1       -4 0.76238149E-02 0.18335210E+03</pdfrwt>
<totfact> 0.56074564E+03</totfact>
</mgrwt>
</event>
<event>
 6    4  0.6358868E-003  0.1288249E+03  0.7818608E-02  0.1229210E+00
         21   -1    0    0  501  502  0.00000000000E+00  0.00000000000E+00  0.73259926121E+02  0.73259926121E+02  0.00000000000E+00 0.  1.
         -4   -1    0    0    0  501 -0.00000000000E+00 -0.00000000000E+00 -0.14376276438E+04  0.14376282047E+04  0.12700000000E+01 0. -1.
         25    2    1    2    0    0  0.14973712112E+02  0.27312561691E+02 -0.14312823930E+04  0.14370682503E+04  0.12500271724E+03 0.  0.
    9000005    1    3    3    0    0  0.53971770515E+02  0.64121586058E+01 -0.12195008328E+04  0.12207118206E+04  0.10000000000E+01 0.  0.
    9000005    1    3    3    0    0 -0.38998058403E+02  0.20900403086E+02 -0.21178156020E+03  0.21635642964E+03  0.10000000000E+01 0.  0.
         -4    1    1    2    0  502 -0.14973712112E+02 -0.27312561691E+02  0.66914675394E+02  0.73819880545E+02  0.12700000000E+01 0.  1.
<mgrwt>
<rscale>  1 0.12882495E+03</rscale>
<asrwt>0</asrwt>
<pdfrwt beam="1">  1       21 0.11270758E-01 0.12882495E+03</pdfrwt>
<pdfrwt beam="2">  1       -4 0.22117438E+00 0.12882495E+03</pdfrwt>
<totfact> 0.29914229E+02</totfact>
</mgrwt>
</event>
<event>
 6    4  0.6358868E-003  0.1426279E+03  0.7818608E-02  0.1209836E+00
          4   -1    0    0  502    0 -0.00000000000E+00  0.00000000000E+00  0.32530455152E+02  0.32555236329E+02  0.12700000000E+01 0. -1.
         21   -1    0    0  501  502  0.00000000000E+00 -0.00000000000E+00 -0.41863729484E+03  0.41863729484E+03  0.00000000000E+00 0.  1.
         25    2    1    2    0    0  0.27358235227E+02  0.63000078106E+02 -0.15747950476E+03  0.21246768107E+03  0.12500095282E+03 0.  0.
    9000005    1    3    3    0    0 -0.48768386057E+02  0.22817112544E+02 -0.41276809638E+02  0.67850947800E+02  0.10000000000E+01 0.  0.
    9000005    1    3    3    0    0  0.76126621284E+02  0.40182965562E+02 -0.11620269512E+03  0.14461673327E+03  0.10000000000E+01 0.  0.
          4    1    1    2  501    0 -0.27358235227E+02 -0.63000078106E+02 -0.22862733493E+03  0.23872485010E+03  0.12700000000E+01 0.  1.
<mgrwt>
<rscale>  1 0.14262791E+03</rscale>
<asrwt>0</asrwt>
<pdfrwt beam="2">  1       21 0.64405735E-01 0.14262791E+03</pdfrwt>
<pdfrwt beam="1">  1        4 0.50067401E-02 0.14262791E+03</pdfrwt>
<totfact> 0.21832290E+04</totfact>
</mgrwt>
</event>
<event>
 6    4  0.6358868E-003  0.1300562E+03  0.7818608E-02  0.1227372E+00
         -4   -1    0    0    0  501 -0.00000000000E+00  0.00000000000E+00  0.11520558666E+04  0.11520565666E+04  0.12700000000E+01 0.  1.
         21   -1    0    0  501  502  0.00000000000E+00 -0.00000000000E+00 -0.68102098835E+01  0.68102098835E+01  0.00000000000E+00 0.  1.
         25    2    1    2    0    0  0.32641849533E+02 -0.14972104873E+02  0.10292005102E+04  0.10373853244E+04  0.12499986753E+03 0.  0.
    9000005    1    3    3    0    0  0.57568902652E+02  0.33487858418E+02  0.37099006108E+03  0.37692206175E+03  0.10000000000E+01 0.  0.
    9000005    1    3    3    0    0 -0.24927053119E+02 -0.48459963290E+02  0.65821044912E+03  0.66046326268E+03  0.10000000000E+01 0.  0.
         -4    1    1    2    0  502 -0.32641849533E+02  0.14972104873E+02  0.11604514653E+03  0.12148145208E+03  0.12700000000E+01 0. -1.
<mgrwt>
<rscale>  1 0.13005622E+03</rscale>
<asrwt>0</asrwt>
<pdfrwt beam="2">  1       21 0.10477255E-02 0.13005622E+03</pdfrwt>
<pdfrwt beam="1">  1       -4 0.17724837E+00 0.13005622E+03</pdfrwt>
<totfact> 0.28784493E+04</totfact>
</mgrwt>
</event>
<event>
 6    4  0.6358868E-003  0.1330169E+03  0.7818608E-02  0.1223047E+00
         -4   -1    0    0    0  501 -0.00000000000E+00  0.00000000000E+00  0.17304170191E+03  0.17304636229E+03  0.12700000000E+01 0. -1.
         21   -1    0    0  501  502  0.00000000000E+00 -0.00000000000E+00 -0.57331010797E+03  0.57331010797E+03  0.00000000000E+00 0.  1.
         25    2    1    2    0    0 -0.42784535962E+02  0.15405680785E+02  0.14639679338E+03  0.19780172851E+03  0.12500260465E+03 0.  0.
    9000005    1    3    3    0    0 -0.71436037596E+02 -0.58434316125E+01  0.14539234537E+03  0.16210239743E+03  0.10000000000E+01 0.  0.
    9000005    1    3    3    0    0  0.28651501634E+02  0.21249112397E+02  0.10044480106E+01  0.35699331077E+02  0.10000000000E+01 0.  0.
         -4    1    1    2    0  502  0.42784535962E+02 -0.15405680785E+02 -0.54666519944E+03  0.54855474175E+03  0.12700000000E+01 0.  1.
<mgrwt>
<rscale>  1 0.13301693E+03</rscale>
<asrwt>0</asrwt>
<pdfrwt beam="2">  1       21 0.88201555E-01 0.13301693E+03</pdfrwt>
<pdfrwt beam="1">  1       -4 0.26622267E-01 0.13301693E+03</pdfrwt>
<totfact> 0.61751909E+02</totfact>
</mgrwt>
</event>
<event>
 6    4  0.6358868E-003  0.1276638E+03  0.7818608E-02  0.1230964E+00
         21   -1    0    0  501  502  0.00000000000E+00  0.00000000000E+00  0.67055994342E+02  0.67055994342E+02  0.00000000000E+00 0. -1.
          4   -1    0    0  502    0 -0.00000000000E+00 -0.00000000000E+00 -0.88769133606E+02  0.88778217943E+02  0.12700000000E+01 0. -1.
         25    2    1    2    0    0  0.21178376746E+02 -0.14989536092E+02 -0.23446786011E+02  0.12979907709E+03  0.12499935521E+03 0.  0.
    9000005    1    3    3    0    0  0.56530864301E+02  0.23336527636E+02  0.17358214077E+02  0.63581756319E+02  0.10000000000E+01 0.  0.
    9000005    1    3    3    0    0 -0.35352487555E+02 -0.38326063728E+02 -0.40805000088E+02  0.66217320766E+02  0.10000000000E+01 0.  0.
          4    1    1    2  501    0 -0.21178376746E+02  0.14989536092E+02  0.17336467473E+01  0.26035135200E+02  0.12700000000E+01 0.  1.
<mgrwt>
<rscale>  1 0.12766381E+03</rscale>
<asrwt>0</asrwt>
<pdfrwt beam="1">  1       21 0.10316307E-01 0.12766381E+03</pdfrwt>
<pdfrwt beam="2">  1        4 0.13658414E-01 0.12766381E+03</pdfrwt>
<totfact> 0.13583289E+05</totfact>
</mgrwt>
</event>
<event>
 6    4  0.6358868E-003  0.1273928E+03  0.7818608E-02  0.1231376E+00
          4   -1    0    0  502    0 -0.00000000000E+00  0.00000000000E+00  0.18740377220E+03  0.18740807542E+03  0.12700000000E+01 0. -1.
         21   -1    0    0  501  502  0.00000000000E+00 -0.00000000000E+00 -0.31498709931E+02  0.31498709931E+02  0.00000000000E+00 0. -1.
         25    2    1    2    0    0 -0.24454199975E+02 -0.21825150784E+01  0.11749714113E+03  0.17330467384E+03  0.12500464205E+03 0.  0.
    9000005    1    3    3    0    0  0.96409479651E+01 -0.54602693212E+02  0.88332793617E+02  0.10429805565E+03  0.10000000000E+01 0.  0.
    9000005    1    3    3    0    0 -0.34095147940E+02  0.52420178134E+02  0.29164347511E+02  0.69006618192E+02  0.10000000000E+01 0.  0.
          4    1    1    2  501    0  0.24454199975E+02  0.21825150784E+01  0.38407921136E+02  0.45602111513E+02  0.12700000000E+01 0.  1.
<mgrwt>
<rscale>  1 0.12739282E+03</rscale>
<asrwt>0</asrwt>
<pdfrwt beam="2">  1       21 0.48459555E-02 0.12739282E+03</pdfrwt>
<pdfrwt beam="1">  1        4 0.28833649E-01 0.12739282E+03</pdfrwt>
<totfact> 0.12923847E+05</totfact>
</mgrwt>
</event>
<event>
 6    4  0.6358868E-003  0.1374949E+03  0.7818608E-02  0.1216740E+00
          4   -1    0    0  502    0 -0.00000000000E+00  0.00000000000E+00  0.13557449812E+03  0.13558044638E+03  0.12700000000E+01 0. -1.
         21   -1    0    0  501  502  0.00000000000E+00 -0.00000000000E+00 -0.70705566257E+02  0.70705566257E+02  0.00000000000E+00 0.  1.
         25    2    1    2    0    0 -0.33720218454E+02 -0.46277530127E+02  0.35907665892E+02  0.14210633709E+03  0.12500475048E+03 0.  0.
    9000005    1    3    3    0    0 -0.74506747368E+00  0.29130590138E+02  0.50692941102E+02  0.58480087935E+02  0.10000000000E+01 0.  0.
    9000005    1    3    3    0    0 -0.32975150981E+02 -0.75408120265E+02 -0.14785275210E+02  0.83626249152E+02  0.10000000000E+01 0.  0.
          4    1    1    2  501    0  0.33720218454E+02  0.46277530127E+02  0.28961265975E+02  0.64179675554E+02  0.12700000000E+01 0.  1.
<mgrwt>
<rscale>  1 0.13749491E+03</rscale>
<asrwt>0</asrwt>
<pdfrwt beam="2">  1       21 0.10877779E-01 0.13749491E+03</pdfrwt>
<pdfrwt beam="1">  1        4 0.20858950E-01 0.13749491E+03</pdfrwt>
<totfact> 0.59167707E+04</totfact>
</mgrwt>
</event>
<event>
 6    4  0.6358868E-003  0.1343758E+03  0.7818608E-02  0.1221104E+00
         21   -1    0    0  501  502  0.00000000000E+00  0.00000000000E+00  0.15249173265E+02  0.15249173265E+02  0.00000000000E+00 0. -1.
         -4   -1    0    0    0  501 -0.00000000000E+00 -0.00000000000E+00 -0.56114089569E+03  0.56114233284E+03  0.12700000000E+01 0. -1.
         25    2    1    2    0    0  0.26973338053E+02 -0.41274567761E+02 -0.36709422309E+03  0.39091560586E+03  0.12500276542E+03 0.  0.
    9000005    1    3    3    0    0 -0.16869295943E+02 -0.47571193976E+02 -0.32789905825E+03  0.33176254166E+03  0.10000000000E+01 0.  0.
    9000005    1    3    3    0    0  0.43842633997E+02  0.62966262143E+01 -0.39195164840E+02  0.59153064200E+02  0.10000000000E+01 0.  0.
         -4    1    1    2    0  502 -0.26973338053E+02  0.41274567761E+02 -0.17879749933E+03  0.18547590025E+03  0.12700000000E+01 0.  1.
<mgrwt>
<rscale>  1 0.13437575E+03</rscale>
<asrwt>0</asrwt>
<pdfrwt beam="1">  1       21 0.23460263E-02 0.13437575E+03</pdfrwt>
<pdfrwt beam="2">  1       -4 0.86333560E-01 0.13437575E+03</pdfrwt>
<totfact> 0.45839973E+04</totfact>
</mgrwt>
</event>
<event>
 6    4  0.6358868E-003  0.1266064E+03  0.7818608E-02  0.1232580E+00
         21   -1    0    0  501  502  0.00000000000E+00  0.00000000000E+00  0.73385473528E+02  0.73385473528E+02  0.00000000000E+00 0. -1.
         -4   -1    0    0    0  501 -0.00000000000E+00 -0.00000000000E+00 -0.87664545350E+02  0.87673744140E+02  0.12700000000E+01 0. -1.
         25    2    1    2    0    0  0.16790795244E+02  0.11067482300E+02 -0.35806733262E+02  0.13157238880E+03  0.12499900551E+03 0.  0.
    9000005    1    3    3    0    0 -0.30268974017E+02  0.16736566263E+02  0.33130566532E+02  0.47905718625E+02  0.10000000000E+01 0.  0.
    9000005    1    3    3    0    0  0.47059769261E+02 -0.56690839631E+01 -0.68937299794E+02  0.83666670178E+02  0.10000000000E+01 0.  0.
         -4    1    1    2    0  502 -0.16790795244E+02 -0.11067482300E+02  0.21527661440E+02  0.29486828864E+02  0.12700000000E+01 0.  1.
<mgrwt>
<rscale>  1 0.12660636E+03</rscale>
<asrwt>0</asrwt>
<pdfrwt beam="1">  1       21 0.11290073E-01 0.12660636E+03</pdfrwt>
<pdfrwt beam="2">  1       -4 0.13488406E-01 0.12660636E+03</pdfrwt>
<totfact> 0.11830750E+05</totfact>
</mgrwt>
</event>
<event>
 6    4  0.6358868E-003  0.1266928E+03  0.7818608E-02  0.1232447E+00
         21   -1    0    0  501  502  0.00000000000E+00  0.00000000000E+00  0.41359885680E+03  0.41359885680E+03  0.00000000000E+00 0.  1.
          4   -1    0    0  502    0 -0.00000000000E+00 -0.00000000000E+00 -0.21624661816E+02  0.21661922783E+02  0.12700000000E+01 0. -1.
         25    2    1    2    0    0  0.11692364434E+02 -0.17008888321E+02  0.16841834151E+03  0.21075054331E+03  0.12500016032E+03 0.  0.
    9000005    1    3    3    0    0 -0.39208824606E+02 -0.51150771571E+02  0.73509452245E+02  0.97766931673E+02  0.10000000000E+01 0.  0.
    9000005    1    3    3    0    0  0.50901189040E+02  0.34141883250E+02  0.94908889266E+02  0.11298361164E+03  0.10000000000E+01 0.  0.
          4    1    1    2  501    0 -0.11692364434E+02  0.17008888321E+02  0.22355585348E+03  0.22451023627E+03  0.12700000000E+01 0.  1.
<mgrwt>
<rscale>  1 0.12669275E+03</rscale>
<asrwt>0</asrwt>
<pdfrwt beam="1">  1       21 0.63630587E-01 0.12669275E+03</pdfrwt>
<pdfrwt beam="2">  1        4 0.33298876E-02 0.12669275E+03</pdfrwt>
<totfact> 0.42388631E+04</totfact>
</mgrwt>
</event>
<event>
 6    4  0.6358868E-003  0.1288690E+03  0.7818608E-02  0.1229144E+00
          4   -1    0    0  502    0 -0.00000000000E+00  0.00000000000E+00  0.50211348072E+02  0.50227406614E+02  0.12700000000E+01 0.  1.
         21   -1    0    0  501  502  0.00000000000E+00 -0.00000000000E+00 -0.13548103618E+03  0.13548103618E+03  0.00000000000E+00 0.  1.
         25    2    1    2    0    0 -0.31343013306E+02  0.23100087551E+00 -0.49289371196E+02  0.13797340378E+03  0.12499912077E+03 0.  0.
    9000005    1    3    3    0    0  0.97439420570E+01 -0.27211817073E+02  0.31817041226E+02  0.42997110456E+02  0.10000000000E+01 0.  0.
    9000005    1    3    3    0    0 -0.41086955363E+02  0.27442817948E+02 -0.81106412422E+02  0.94976293326E+02  0.10000000000E+01 0.  0.
          4    1    1    2  501    0  0.31343013306E+02 -0.23100087551E+00 -0.35980316914E+02  0.47735039014E+02  0.12700000000E+01 0. -1.
<mgrwt>
<rscale>  1 0.12886900E+03</rscale>
<asrwt>0</asrwt>
<pdfrwt beam="2">  1       21 0.20843236E-01 0.12886900E+03</pdfrwt>
<pdfrwt beam="1">  1        4 0.77265160E-02 0.12886900E+03</pdfrwt>
<totfact> 0.10024995E+05</totfact>
</mgrwt>
</event>
<event>
 6    4  0.6358868E-003  0.1348526E+03  0.7818608E-02  0.1220428E+00
          4   -1    0    0  502    0 -0.00000000000E+00  0.00000000000E+00  0.17851755366E+02  0.17896873181E+02  0.12700000000E+01 0. -1.
         21   -1    0    0  501  502  0.00000000000E+00 -0.00000000000E+00 -0.13776099193E+04  0.13776099193E+04  0.00000000000E+00 0.  1.
         25    2    1    2    0    0 -0.49526277120E+02 -0.10389447965E+02 -0.24549703987E+03  0.28009643828E+03  0.12499770157E+03 0.  0.
    9000005    1    3    3    0    0 -0.17388748580E+02  0.52114059753E+02 -0.58179894674E+02  0.80025895467E+02  0.10000000000E+01 0.  0.
    9000005    1    3    3    0    0 -0.32137528540E+02 -0.62503507718E+02 -0.18731714519E+03  0.20007054281E+03  0.10000000000E+01 0.  0.
          4    1    1    2  501    0  0.49526277120E+02  0.10389447965E+02 -0.11142611241E+04  0.11154103542E+04  0.12700000000E+01 0.  1.
<mgrwt>
<rscale>  1 0.13485258E+03</rscale>
<asrwt>0</asrwt>
<pdfrwt beam="2">  1       21 0.21194001E+00 0.13485258E+03</pdfrwt>
<pdfrwt beam="1">  1        4 0.27499393E-02 0.13485258E+03</pdfrwt>
<totfact> 0.29609061E+03</totfact>
</mgrwt>
</event>
<event>
 6    4  0.6358868E-003  0.1266211E+03  0.7818608E-02  0.1232557E+00
         21   -1    0    0  501  502  0.00000000000E+00  0.00000000000E+00  0.90583968509E+02  0.90583968509E+02  0.00000000000E+00 0. -1.
         -4   -1    0    0    0  501 -0.00000000000E+00 -0.00000000000E+00 -0.63393420494E+02  0.63406140569E+02  0.12700000000E+01 0. -1.
         25    2    1    2    0    0 -0.19584140596E+01  0.20096854530E+02  0.92652345548E+01  0.12695959465E+03  0.12500070062E+03 0.  0.
    9000005    1    3    3    0    0 -0.13024144626E+02  0.14264370573E+01 -0.56339143260E+02  0.57851206808E+02  0.10000000000E+01 0.  0.
    9000005    1    3    3    0    0  0.11065730566E+02  0.18670417473E+02  0.65604377814E+02  0.69108387841E+02  0.10000000000E+01 0.  0.
         -4    1    1    2    0  502  0.19584140596E+01 -0.20096854530E+02  0.17925313460E+02  0.27030514429E+02  0.12700000000E+01 0.  1.
<mgrwt>
<rscale>  1 0.12662107E+03</rscale>
<asrwt>0</asrwt>
<pdfrwt beam="1">  1       21 0.13935995E-01 0.12662107E+03</pdfrwt>
<pdfrwt beam="2">  1       -4 0.97544972E-02 0.12662107E+03</pdfrwt>
<totfact> 0.14128020E+05</totfact>
</mgrwt>
</event>
<event>
 6    4  0.6358868E-003  0.1270878E+03  0.7818608E-02  0.1231842E+00
         21   -1    0    0  501  502  0.00000000000E+00  0.00000000000E+00  0.14470637311E+03  0.14470637311E+03  0.00000000000E+00 0. -1.
          4   -1    0    0  502    0 -0.00000000000E+00 -0.00000000000E+00 -0.39185263579E+02  0.39205838618E+02  0.12700000000E+01 0. -1.
         25    2    1    2    0    0 -0.22313334983E+02 -0.53141830529E+01  0.83324193909E+02  0.15196786289E+03  0.12500073840E+03 0.  0.
    9000005    1    3    3    0    0 -0.58943975063E+02 -0.37798558786E+02  0.74432364435E+02  0.10219735866E+03  0.10000000000E+01 0.  0.
    9000005    1    3    3    0    0  0.36630640080E+02  0.32484375733E+02  0.88918294739E+01  0.49770504225E+02  0.10000000000E+01 0.  0.
          4    1    1    2  501    0  0.22313334983E+02  0.53141830529E+01  0.22196915623E+02  0.31944348840E+02  0.12700000000E+01 0.  1.
<mgrwt>
<rscale>  1 0.12708780E+03</rscale>
<asrwt>0</asrwt>
<pdfrwt beam="1">  1       21 0.22262519E-01 0.12708780E+03</pdfrwt>
<pdfrwt beam="2">  1        4 0.60305136E-02 0.12708780E+03</pdfrwt>
<totfact> 0.13278967E+05</totfact>
</mgrwt>
</event>
<event>
 6    4  0.6358868E-003  0.1273260E+03  0.7818608E-02  0.1231478E+00
         21   -1    0    0  501  502  0.00000000000E+00  0.00000000000E+00  0.15357527185E+03  0.15357527185E+03  0.00000000000E+00 0. -1.
          4   -1    0    0  502    0 -0.00000000000E+00 -0.00000000000E+00 -0.11291203037E+03  0.11291917243E+03  0.12700000000E+01 0.  1.
         25    2    1    2    0    0  0.14761707574E+02 -0.19170160965E+02 -0.75368231132E+02  0.14796040437E+03  0.12500603151E+03 0.  0.
    9000005    1    3    3    0    0 -0.39588310836E+02 -0.50321309168E+02 -0.45491777931E+02  0.78549158942E+02  0.10000000000E+01 0.  0.
    9000005    1    3    3    0    0  0.54350018410E+02  0.31151148203E+02 -0.29876453200E+02  0.69411245424E+02  0.10000000000E+01 0.  0.
          4    1    1    2  501    0 -0.14761707574E+02  0.19170160965E+02  0.11603147261E+03  0.11853403991E+03  0.12700000000E+01 0. -1.
<mgrwt>
<rscale>  1 0.12732600E+03</rscale>
<asrwt>0</asrwt>
<pdfrwt beam="1">  1       21 0.23626965E-01 0.12732600E+03</pdfrwt>
<pdfrwt beam="2">  1        4 0.17372035E-01 0.12732600E+03</pdfrwt>
<totfact> 0.19891938E+04</totfact>
</mgrwt>
</event>
<event>
 6    4  0.6358868E-003  0.1338048E+03  0.7818608E-02  0.1221917E+00
         -4   -1    0    0    0  501 -0.00000000000E+00  0.00000000000E+00  0.22168214466E+03  0.22168578249E+03  0.12700000000E+01 0. -1.
         21   -1    0    0  501  502  0.00000000000E+00 -0.00000000000E+00 -0.54029300906E+02  0.54029300906E+02  0.00000000000E+00 0. -1.
         25    2    1    2    0    0  0.47591157579E+02  0.37061573000E+01  0.18196434825E+03  0.22586444707E+03  0.12500028214E+03 0.  0.
    9000005    1    3    3    0    0  0.11325741032E+02  0.44142824571E+02  0.16150358808E+03  0.16781320071E+03  0.10000000000E+01 0.  0.
    9000005    1    3    3    0    0  0.36265416548E+02 -0.40436667271E+02  0.20460760170E+02  0.58051246361E+02  0.10000000000E+01 0.  0.
         -4    1    1    2    0  502 -0.47591157579E+02 -0.37061573000E+01 -0.14311504493E+02  0.49850636330E+02  0.12700000000E+01 0.  1.
<mgrwt>
<rscale>  1 0.13380480E+03</rscale>
<asrwt>0</asrwt>
<pdfrwt beam="2">  1       21 0.83122003E-02 0.13380480E+03</pdfrwt>
<pdfrwt beam="1">  1       -4 0.34106373E-01 0.13380480E+03</pdfrwt>
<totfact> 0.37748843E+04</totfact>
</mgrwt>
</event>
<event>
 6    4  0.6358868E-003  0.1348577E+03  0.7818608E-02  0.1220421E+00
          4   -1    0    0  502    0 -0.00000000000E+00  0.00000000000E+00  0.21901829699E+04  0.21901833381E+04  0.12700000000E+01 0. -1.
         21   -1    0    0  501  502  0.00000000000E+00 -0.00000000000E+00 -0.47421417891E+01  0.47421417891E+01  0.00000000000E+00 0.  1.
         25    2    1    2    0    0  0.47543204862E+02 -0.17419935609E+02  0.19176977292E+04  0.19224336628E+04  0.12499118651E+03 0.  0.
    9000005    1    3    3    0    0 -0.35844009400E+02  0.22495104619E+02  0.63229407275E+03  0.63370941067E+03  0.10000000000E+01 0.  0.
    9000005    1    3    3    0    0  0.83387214262E+02 -0.39915040229E+02  0.12854036565E+04  0.12887242522E+04  0.10000000000E+01 0.  0.
          4    1    1    2  501    0 -0.47543204862E+02  0.17419935609E+02  0.26774309883E+03  0.27249181705E+03  0.12700000000E+01 0.  1.
<mgrwt>
<rscale>  1 0.13485773E+03</rscale>
<asrwt>0</asrwt>
<pdfrwt beam="2">  1       21 0.72956203E-03 0.13485773E+03</pdfrwt>
<pdfrwt beam="1">  1        4 0.33696353E+00 0.13485773E+03</pdfrwt>
<totfact> 0.57614325E+03</totfact>
</mgrwt>
</event>
<event>
 6    4  0.6358868E-003  0.1346742E+03  0.7818608E-02  0.1220680E+00
         21   -1    0    0  501  502  0.00000000000E+00  0.00000000000E+00  0.17011159199E+02  0.17011159199E+02  0.00000000000E+00 0. -1.
          4   -1    0    0  502    0 -0.00000000000E+00 -0.00000000000E+00 -0.95616844434E+03  0.95616928776E+03  0.12700000000E+01 0.  1.
         25    2    1    2    0    0  0.49398947834E+02 -0.80752135591E+01 -0.89890143504E+03  0.90893395687E+03  0.12502672882E+03 0.  0.
    9000005    1    3    3    0    0  0.84311942055E+02 -0.33860661011E+02 -0.63997138298E+03  0.64638952572E+03  0.10000000000E+01 0.  0.
    9000005    1    3    3    0    0 -0.34912994221E+02  0.25785447452E+02 -0.25893005206E+03  0.26254443115E+03  0.10000000000E+01 0.  0.
          4    1    1    2  501    0 -0.49398947834E+02  0.80752135591E+01 -0.40255850107E+02  0.64246490090E+02  0.12700000000E+01 0. -1.
<mgrwt>
<rscale>  1 0.13467423E+03</rscale>
<asrwt>0</asrwt>
<pdfrwt beam="1">  1       21 0.26171008E-02 0.13467423E+03</pdfrwt>
<pdfrwt beam="2">  1        4 0.14710658E+00 0.13467423E+03</pdfrwt>
<totfact> 0.10822806E+04</totfact>
</mgrwt>
</event>
<event>
 6    4  0.6358868E-003  0.1279012E+03  0.7818608E-02  0.1230604E+00
         -4   -1    0    0    0  501 -0.00000000000E+00  0.00000000000E+00  0.46608820037E+02  0.46626119346E+02  0.12700000000E+01 0. -1.
         21   -1    0    0  501  502  0.00000000000E+00 -0.00000000000E+00 -0.13697637594E+03  0.13697637594E+03  0.00000000000E+00 0. -1.
         25    2    1    2    0    0  0.22408088622E+02  0.15231377862E+02 -0.55491616324E+02  0.13942035671E+03  0.12499839630E+03 0.  0.
    9000005    1    3    3    0    0  0.25730875079E+01 -0.44071035371E+02  0.13622675447E+02  0.46210975150E+02  0.10000000000E+01 0.  0.
    9000005    1    3    3    0    0  0.19835001114E+02  0.59302413233E+02 -0.69114291771E+02  0.93209381564E+02  0.10000000000E+01 0.  0.
         -4    1    1    2    0  502 -0.22408088622E+02 -0.15231377862E+02 -0.34875939574E+02  0.44182138568E+02  0.12700000000E+01 0.  1.
<mgrwt>
<rscale>  1 0.12790120E+03</rscale>
<asrwt>0</asrwt>
<pdfrwt beam="2">  1       21 0.21073289E-01 0.12790120E+03</pdfrwt>
<pdfrwt beam="1">  1       -4 0.71723713E-02 0.12790120E+03</pdfrwt>
<totfact> 0.11091648E+05</totfact>
</mgrwt>
</event>
<event>
 6    4  0.6358868E-003  0.1270016E+03  0.7818608E-02  0.1231974E+00
         -4   -1    0    0    0  501 -0.00000000000E+00  0.00000000000E+00  0.62976416389E+02  0.62989220674E+02  0.12700000000E+01 0.  1.
         21   -1    0    0  501  502  0.00000000000E+00 -0.00000000000E+00 -0.19576171118E+03  0.19576171118E+03  0.00000000000E+00 0.  1.
         25    2    1    2    0    0 -0.21113248913E+02 -0.77104903346E+01 -0.30099342122E+01  0.12703731048E+03  0.12499679040E+03 0.  0.
    9000005    1    3    3    0    0  0.25610141643E+02  0.46552112086E+02 -0.13058825313E+02  0.54722129099E+02  0.10000000000E+01 0.  0.
    9000005    1    3    3    0    0 -0.46723390556E+02 -0.54262602420E+02  0.10048891100E+02  0.72315181386E+02  0.10000000000E+01 0.  0.
         -4    1    1    2    0  502  0.21113248913E+02  0.77104903346E+01 -0.12977536058E+03  0.13171362137E+03  0.12700000000E+01 0. -1.
<mgrwt>
<rscale>  1 0.12700165E+03</rscale>
<asrwt>0</asrwt>
<pdfrwt beam="2">  1       21 0.30117186E-01 0.12700165E+03</pdfrwt>
<pdfrwt beam="1">  1       -4 0.96899813E-02 0.12700165E+03</pdfrwt>
<totfact> 0.34229244E+04</totfact>
</mgrwt>
</event>
<event>
 6    4  0.6358868E-003  0.1353918E+03  0.7818608E-02  0.1219668E+00
          4   -1    0    0  502    0 -0.00000000000E+00  0.00000000000E+00  0.31971558990E+02  0.31996773028E+02  0.12700000000E+01 0.  1.
         21   -1    0    0  501  502  0.00000000000E+00 -0.00000000000E+00 -0.31432099351E+03  0.31432099351E+03  0.00000000000E+00 0.  1.
         25    2    1    2    0    0  0.51492156685E+02  0.73546999935E+01 -0.14000518245E+03  0.19476238785E+03  0.12500161117E+03 0.  0.
    9000005    1    3    3    0    0 -0.28362565335E+02  0.38807868958E+02 -0.64496102361E+02  0.80443974449E+02  0.10000000000E+01 0.  0.
    9000005    1    3    3    0    0  0.79854722020E+02 -0.31453168965E+02 -0.75509080094E+02  0.11431841340E+03  0.10000000000E+01 0.  0.
          4    1    1    2  501    0 -0.51492156685E+02 -0.73546999935E+01 -0.14234425206E+03  0.15155537868E+03  0.12700000000E+01 0. -1.
<mgrwt>
<rscale>  1 0.13539179E+03</rscale>
<asrwt>0</asrwt>
<pdfrwt beam="2">  1       21 0.48357075E-01 0.13539179E+03</pdfrwt>
<pdfrwt beam="1">  1        4 0.49208384E-02 0.13539179E+03</pdfrwt>
<totfact> 0.40825408E+04</totfact>
</mgrwt>
</event>
<event>
 6    4  0.6358868E-003  0.1270449E+03  0.7818608E-02  0.1231908E+00
          4   -1    0    0  502    0 -0.00000000000E+00  0.00000000000E+00  0.21068894256E+02  0.21107136357E+02  0.12700000000E+01 0.  1.
         21   -1    0    0  501  502  0.00000000000E+00 -0.00000000000E+00 -0.38447458207E+03  0.38447458207E+03  0.00000000000E+00 0. -1.
         25    2    1    2    0    0 -0.11195080742E+02 -0.19756267248E+02 -0.17745037439E+03  0.21824076877E+03  0.12499903141E+03 0.  0.
    9000005    1    3    3    0    0  0.29168948729E+02  0.89535389650E+01 -0.16412070814E+03  0.16693591666E+03  0.10000000000E+01 0.  0.
    9000005    1    3    3    0    0 -0.40364029470E+02 -0.28709806213E+02 -0.13329666251E+02  0.51304852112E+02  0.10000000000E+01 0.  0.
          4    1    1    2  501    0  0.11195080742E+02  0.19756267248E+02 -0.18595531343E+03  0.18734094966E+03  0.12700000000E+01 0. -1.
<mgrwt>
<rscale>  1 0.12704487E+03</rscale>
<asrwt>0</asrwt>
<pdfrwt beam="2">  1       21 0.59149928E-01 0.12704487E+03</pdfrwt>
<pdfrwt beam="1">  1        4 0.32444718E-02 0.12704487E+03</pdfrwt>
<totfact> 0.51603156E+04</totfact>
</mgrwt>
</event>
<event>
 6    4  0.6358868E-003  0.1272285E+03  0.7818608E-02  0.1231627E+00
         21   -1    0    0  501  502  0.00000000000E+00  0.00000000000E+00  0.89103841151E+02  0.89103841151E+02  0.00000000000E+00 0. -1.
          4   -1    0    0  502    0 -0.00000000000E+00 -0.00000000000E+00 -0.22617567817E+03  0.22617924373E+03  0.12700000000E+01 0.  1.
         25    2    1    2    0    0 -0.63736923729E+01 -0.22804396068E+02 -0.20614925505E+03  0.24224907214E+03  0.12500573251E+03 0.  0.
    9000005    1    3    3    0    0  0.28407287056E+02  0.23284911085E+02 -0.17043023097E+03  0.17434627805E+03  0.10000000000E+01 0.  0.
    9000005    1    3    3    0    0 -0.34780979429E+02 -0.46089307153E+02 -0.35719024082E+02  0.67902794090E+02  0.10000000000E+01 0.  0.
          4    1    1    2  501    0  0.63736923729E+01  0.22804396068E+02  0.69077418035E+02  0.73034012740E+02  0.12700000000E+01 0. -1.
<mgrwt>
<rscale>  1 0.12722853E+03</rscale>
<asrwt>0</asrwt>
<pdfrwt beam="1">  1       21 0.13708283E-01 0.12722853E+03</pdfrwt>
<pdfrwt beam="2">  1        4 0.34797228E-01 0.12722853E+03</pdfrwt>
<totfact> 0.14987742E+04</totfact>
</mgrwt>
</event>
<event>
 6    4  0.6358868E-003  0.1277676E+03  0.7818608E-02  0.1230806E+00
          4   -1    0    0  502    0 -0.00000000000E+00  0.00000000000E+00  0.38198718865E+03  0.38198929984E+03  0.12700000000E+01 0.  1.
         21   -1    0    0  501  502  0.00000000000E+00 -0.00000000000E+00 -0.16726642436E+02  0.16726642436E+02  0.00000000000E+00 0.  1.
         25    2    1    2    0    0 -0.11925576717E+01 -0.26418103154E+02  0.33483542593E+03  0.35838432673E+03  0.12500089929E+03 0.  0.
    9000005    1    3    3    0    0 -0.10627269740E+01  0.42049712015E+02  0.49587106522E+02  0.65032213574E+02  0.10000000000E+01 0.  0.
    9000005    1    3    3    0    0 -0.12983069775E+00 -0.68467815168E+02  0.28524831941E+03  0.29335211316E+03  0.10000000000E+01 0.  0.
          4    1    1    2  501    0  0.11925576717E+01  0.26418103154E+02  0.30425120285E+02  0.40331615544E+02  0.12700000000E+01 0. -1.
<mgrwt>
<rscale>  1 0.12776761E+03</rscale>
<asrwt>0</asrwt>
<pdfrwt beam="2">  1       21 0.25733299E-02 0.12776761E+03</pdfrwt>
<pdfrwt beam="1">  1        4 0.58771124E-01 0.12776761E+03</pdfrwt>
<totfact> 0.89997814E+04</totfact>
</mgrwt>
</event>
<event>
 6    4  0.6358868E-003  0.1291892E+03  0.7818608E-02  0.1228664E+00
         -4   -1    0    0    0  501 -0.00000000000E+00  0.00000000000E+00  0.13511618551E+03  0.13512215394E+03  0.12700000000E+01 0. -1.
         21   -1    0    0  501  502  0.00000000000E+00 -0.00000000000E+00 -0.61563307251E+02  0.61563307251E+02  0.00000000000E+00 0. -1.
         25    2    1    2    0    0 -0.22785889134E+01 -0.32545989573E+02  0.92542026193E+02  0.15891465177E+03  0.12500162612E+03 0.  0.
    9000005    1    3    3    0    0 -0.10375727762E+02 -0.79364266075E+02  0.69910998502E+02  0.10627742078E+03  0.10000000000E+01 0.  0.
    9000005    1    3    3    0    0  0.80971388485E+01  0.46818276502E+02  0.22631027691E+02  0.52637230992E+02  0.10000000000E+01 0.  0.
         -4    1    1    2    0  502  0.22785889134E+01  0.32545989573E+02 -0.18989147938E+02  0.37770809418E+02  0.12700000000E+01 0.  1.
<mgrwt>
<rscale>  1 0.12918916E+03</rscale>
<asrwt>0</asrwt>
<pdfrwt beam="2">  1       21 0.94712781E-02 0.12918916E+03</pdfrwt>
<pdfrwt beam="1">  1       -4 0.20788572E-01 0.12918916E+03</pdfrwt>
<totfact> 0.75272574E+04</totfact>
</mgrwt>
</event>
<event>
 6    4  0.6358868E-003  0.1279226E+03  0.7818608E-02  0.1230571E+00
         21   -1    0    0  501  502  0.00000000000E+00  0.00000000000E+00  0.96929928778E+02  0.96929928778E+02  0.00000000000E+00 0. -1.
          4   -1    0    0  502    0 -0.00000000000E+00 -0.00000000000E+00 -0.11028716192E+03  0.11029447396E+03  0.12700000000E+01 0.  1.
         25    2    1    2    0    0  0.21848105403E+02  0.16122834648E+02 -0.68964926755E+02  0.14532840937E+03  0.12500759953E+03 0.  0.
    9000005    1    3    3    0    0  0.74927016804E+01  0.70812660034E+02 -0.41997039246E+02  0.82676022552E+02  0.10000000000E+01 0.  0.
    9000005    1    3    3    0    0  0.14355403723E+02 -0.54689825386E+02 -0.26967887508E+02  0.62652386814E+02  0.10000000000E+01 0.  0.
          4    1    1    2  501    0 -0.21848105403E+02 -0.16122834648E+02  0.55607693608E+02  0.61895993370E+02  0.12700000000E+01 0. -1.
<mgrwt>
<rscale>  1 0.12792258E+03</rscale>
<asrwt>0</asrwt>
<pdfrwt beam="1">  1       21 0.14912297E-01 0.12792258E+03</pdfrwt>
<pdfrwt beam="2">  1        4 0.16968458E-01 0.12792258E+03</pdfrwt>
<totfact> 0.48341832E+04</totfact>
</mgrwt>
</event>
<event>
 6    4  0.6358868E-003  0.1272679E+03  0.7818608E-02  0.1231567E+00
          4   -1    0    0  502    0 -0.00000000000E+00  0.00000000000E+00  0.69576399809E+02  0.69587989699E+02  0.12700000000E+01 0.  1.
         21   -1    0    0  501  502  0.00000000000E+00 -0.00000000000E+00 -0.87542254936E+02  0.87542254936E+02  0.00000000000E+00 0.  1.
         25    2    1    2    0    0 -0.20883476067E+02  0.11625650977E+02 -0.10901748917E+00  0.12726797942E+03  0.12500340542E+03 0.  0.
    9000005    1    3    3    0    0  0.37511497188E+02  0.43453850618E+02  0.14396797176E+02  0.59191361901E+02  0.10000000000E+01 0.  0.
    9000005    1    3    3    0    0 -0.58394973255E+02 -0.31828199640E+02 -0.14505814665E+02  0.68076617520E+02  0.10000000000E+01 0.  0.
          4    1    1    2  501    0  0.20883476067E+02 -0.11625650977E+02 -0.17856837638E+02  0.29862265214E+02  0.12700000000E+01 0. -1.
<mgrwt>
<rscale>  1 0.12726793E+03</rscale>
<asrwt>0</asrwt>
<pdfrwt beam="2">  1       21 0.13468039E-01 0.12726793E+03</pdfrwt>
<pdfrwt beam="1">  1        4 0.10705662E-01 0.12726793E+03</pdfrwt>
<totfact> 0.12848134E+05</totfact>
</mgrwt>
</event>
<event>
 6    4  0.6358868E-003  0.1705619E+03  0.7818608E-02  0.1177263E+00
         -4   -1    0    0    0  501 -0.00000000000E+00  0.00000000000E+00  0.10953504218E+03  0.10954240441E+03  0.12700000000E+01 0. -1.
         21   -1    0    0  501  502  0.00000000000E+00 -0.00000000000E+00 -0.26248242727E+03  0.26248242727E+03  0.00000000000E+00 0.  1.
         25    2    1    2    0    0 -0.74820115739E+02 -0.88694429864E+02  0.11280944328E+02  0.17093453184E+03  0.12500641128E+03 0.  0.
    9000005    1    3    3    0    0  0.17569057847E+02 -0.46617370834E+02 -0.33427157521E+02  0.60001882613E+02  0.10000000000E+01 0.  0.
    9000005    1    3    3    0    0 -0.92389173586E+02 -0.42077059030E+02  0.44708101849E+02  0.11093264922E+03  0.10000000000E+01 0.  0.
         -4    1    1    2    0  502  0.74820115739E+02  0.88694429864E+02 -0.16422832942E+03  0.20109029984E+03  0.12700000000E+01 0.  1.
<mgrwt>
<rscale>  1 0.17056188E+03</rscale>
<asrwt>0</asrwt>
<pdfrwt beam="2">  1       21 0.40381912E-01 0.17056188E+03</pdfrwt>
<pdfrwt beam="1">  1       -4 0.16852348E-01 0.17056188E+03</pdfrwt>
<totfact> 0.75762319E+03</totfact>
</mgrwt>
</event>
<event>
 6    4  0.6358868E-003  0.1286140E+03  0.7818608E-02  0.1229527E+00
         21   -1    0    0  501  502  0.00000000000E+00  0.00000000000E+00  0.38089384673E+02  0.38089384673E+02  0.00000000000E+00 0. -1.
          4   -1    0    0  502    0 -0.00000000000E+00 -0.00000000000E+00 -0.40216243192E+03  0.40216443720E+03  0.12700000000E+01 0.  1.
         25    2    1    2    0    0  0.17284639491E+02 -0.24847348439E+02 -0.38334749470E+03  0.40434746155E+03  0.12500167392E+03 0.  0.
    9000005    1    3    3    0    0 -0.39778230333E+02  0.21756879675E+02 -0.77907075200E+02  0.90145337028E+02  0.10000000000E+01 0.  0.
    9000005    1    3    3    0    0  0.57062869824E+02 -0.46604228113E+02 -0.30544041950E+03  0.31420212453E+03  0.10000000000E+01 0.  0.
          4    1    1    2  501    0 -0.17284639491E+02  0.24847348439E+02  0.19274447455E+02  0.35906360320E+02  0.12700000000E+01 0. -1.
<mgrwt>
<rscale>  1 0.12861403E+03</rscale>
<asrwt>0</asrwt>
<pdfrwt beam="1">  1       21 0.58599053E-02 0.12861403E+03</pdfrwt>
<pdfrwt beam="2">  1        4 0.61872926E-01 0.12861403E+03</pdfrwt>
<totfact> 0.20635255E+04</totfact>
</mgrwt>
</event>
<event>
 6    4  0.6358868E-003  0.1318665E+03  0.7818608E-02  0.1224712E+00
         21   -1    0    0  501  502  0.00000000000E+00  0.00000000000E+00  0.19421927418E+03  0.19421927418E+03  0.00000000000E+00 0. -1.
         -4   -1    0    0    0  501 -0.00000000000E+00 -0.00000000000E+00 -0.72820430638E+02  0.72831504298E+02  0.12700000000E+01 0. -1.
         25    2    1    2    0    0  0.41845605055E+02 -0.35397869921E+01 -0.69009505116E+01  0.13204694591E+03  0.12500075220E+03 0.  0.
    9000005    1    3    3    0    0  0.85960198967E+02 -0.10829355590E+02  0.88687448588E+00  0.86649969967E+02  0.10000000000E+01 0.  0.
    9000005    1    3    3    0    0 -0.44114593912E+02  0.72895685978E+01 -0.77878249975E+01  0.45396975940E+02  0.10000000000E+01 0.  0.
         -4    1    1    2    0  502 -0.41845605055E+02  0.35397869921E+01  0.12829979406E+03  0.13500383257E+03  0.12700000000E+01 0.  1.
<mgrwt>
<rscale>  1 0.13186650E+03</rscale>
<asrwt>0</asrwt>
<pdfrwt beam="1">  1       21 0.29879888E-01 0.13186650E+03</pdfrwt>
<pdfrwt beam="2">  1       -4 0.11204314E-01 0.13186650E+03</pdfrwt>
<totfact> 0.27306938E+04</totfact>
</mgrwt>
</event>
<event>
 6    4  0.6358868E-003  0.1503203E+03  0.7818608E-02  0.1200080E+00
          4   -1    0    0  502    0 -0.00000000000E+00  0.00000000000E+00  0.21449604305E+03  0.21449980276E+03  0.12700000000E+01 0. -1.
         21   -1    0    0  501  502  0.00000000000E+00 -0.00000000000E+00 -0.72018405613E+02  0.72018405613E+02  0.00000000000E+00 0.  1.
         25    2    1    2    0    0 -0.34748587233E+02 -0.75920811341E+02  0.13608500798E+03  0.20276910378E+03  0.12499898456E+03 0.  0.
    9000005    1    3    3    0    0  0.43322999578E+02 -0.31278303728E+01  0.35654402285E+02  0.56204110326E+02  0.10000000000E+01 0.  0.
    9000005    1    3    3    0    0 -0.78071586811E+02 -0.72792980968E+02  0.10043060569E+03  0.14656499345E+03  0.10000000000E+01 0.  0.
          4    1    1    2  501    0  0.34748587233E+02  0.75920811341E+02  0.63926294617E+01  0.83749104597E+02  0.12700000000E+01 0.  1.
<mgrwt>
<rscale>  1 0.15032026E+03</rscale>
<asrwt>0</asrwt>
<pdfrwt beam="2">  1       21 0.11079755E-01 0.15032026E+03</pdfrwt>
<pdfrwt beam="1">  1        4 0.33000541E-01 0.15032026E+03</pdfrwt>
<totfact> 0.24637856E+04</totfact>
</mgrwt>
</event>
<event>
 6    4  0.6358868E-003  0.1269845E+03  0.7818608E-02  0.1232000E+00
          4   -1    0    0  502    0 -0.00000000000E+00  0.00000000000E+00  0.68269883022E+02  0.68281694676E+02  0.12700000000E+01 0. -1.
         21   -1    0    0  501  502  0.00000000000E+00 -0.00000000000E+00 -0.14408058703E+04  0.14408058703E+04  0.00000000000E+00 0.  1.
         25    2    1    2    0    0  0.13027711200E+01  0.22244122991E+02  0.90637933621E+01  0.12730753003E+03  0.12501422572E+03 0.  0.
    9000005    1    3    3    0    0 -0.35579700797E+02 -0.11143725760E+02 -0.41889325405E+02  0.56087550450E+02  0.10000000000E+01 0.  0.
    9000005    1    3    3    0    0  0.36882471917E+02  0.33387848751E+02  0.50953118767E+02  0.71219979577E+02  0.10000000000E+01 0.  0.
          4    1    1    2  501    0 -0.13027711200E+01 -0.22244122991E+02 -0.13815997806E+04  0.13817800350E+04  0.12700000000E+01 0.  1.
<mgrwt>
<rscale>  1 0.12698447E+03</rscale>
<asrwt>0</asrwt>
<pdfrwt beam="2">  1       21 0.22166245E+00 0.12698447E+03</pdfrwt>
<pdfrwt beam="1">  1        4 0.10504010E-01 0.12698447E+03</pdfrwt>
<totfact> 0.29673151E+02</totfact>
</mgrwt>
</event>
<event>
 6    4  0.6358868E-003  0.1321727E+03  0.7818608E-02  0.1224267E+00
         21   -1    0    0  501  502  0.00000000000E+00  0.00000000000E+00  0.71305879115E+02  0.71305879115E+02  0.00000000000E+00 0. -1.
         -4   -1    0    0    0  501 -0.00000000000E+00 -0.00000000000E+00 -0.10950726596E+03  0.10951463007E+03  0.12700000000E+01 0.  1.
         25    2    1    2    0    0  0.33663468482E+02 -0.26717638083E+02 -0.39034315534E+02  0.13781623073E+03  0.12499029710E+03 0.  0.
    9000005    1    3    3    0    0  0.15161227927E+02  0.50461798681E+02 -0.18213497948E+02  0.55758295041E+02  0.10000000000E+01 0.  0.
    9000005    1    3    3    0    0  0.18502240555E+02 -0.77179436764E+02 -0.20820817586E+02  0.82057935690E+02  0.10000000000E+01 0.  0.
         -4    1    1    2    0  502 -0.33663468482E+02  0.26717638083E+02  0.83292868426E+00  0.43004278451E+02  0.12700000000E+01 0. -1.
<mgrwt>
<rscale>  1 0.13217275E+03</rscale>
<asrwt>0</asrwt>
<pdfrwt beam="1">  1       21 0.10970135E-01 0.13217275E+03</pdfrwt>
<pdfrwt beam="2">  1       -4 0.16848708E-01 0.13217275E+03</pdfrwt>
<totfact> 0.84930943E+04</totfact>
</mgrwt>
</event>
<event>
 6    4  0.6358868E-003  0.1280705E+03  0.7818608E-02  0.1230347E+00
         21   -1    0    0  501  502  0.00000000000E+00  0.00000000000E+00  0.49630722608E+03  0.49630722608E+03  0.00000000000E+00 0. -1.
         -4   -1    0    0    0  501 -0.00000000000E+00 -0.00000000000E+00 -0.25843984781E+02  0.25875170518E+02  0.12700000000E+01 0.  1.
         25    2    1    2    0    0 -0.38997518518E+00  0.27816794338E+02  0.13692913589E+03  0.18748770214E+03  0.12501249566E+03 0.  0.
    9000005    1    3    3    0    0 -0.31747945539E+02  0.55819086099E+02  0.12982063373E+03  0.14483818337E+03  0.10000000000E+01 0.  0.
    9000005    1    3    3    0    0  0.31357970354E+02 -0.28002291761E+02  0.71085021597E+01  0.42649518773E+02  0.10000000000E+01 0.  0.
         -4    1    1    2    0  502  0.38997518518E+00 -0.27816794338E+02  0.33353410540E+03  0.33469469445E+03  0.12700000000E+01 0. -1.
<mgrwt>
<rscale>  1 0.12807049E+03</rscale>
<asrwt>0</asrwt>
<pdfrwt beam="1">  1       21 0.76354951E-01 0.12807049E+03</pdfrwt>
<pdfrwt beam="2">  1       -4 0.39785219E-02 0.12807049E+03</pdfrwt>
<totfact> 0.21538818E+04</totfact>
</mgrwt>
</event>
<event>
 6    4  0.6358868E-003  0.1320514E+03  0.7818608E-02  0.1224443E+00
          4   -1    0    0  502    0 -0.00000000000E+00  0.00000000000E+00  0.33269594049E+03  0.33269836446E+03  0.12700000000E+01 0. -1.
         21   -1    0    0  501  502  0.00000000000E+00 -0.00000000000E+00 -0.40665304668E+02  0.40665304668E+02  0.00000000000E+00 0.  1.
         25    2    1    2    0    0 -0.13277121975E+02  0.40462608210E+02  0.30200035381E+03  0.32960852305E+03  0.12499624048E+03 0.  0.
    9000005    1    3    3    0    0 -0.62991189913E+02  0.47583408906E+02  0.14976996693E+03  0.16930479557E+03  0.10000000000E+01 0.  0.
    9000005    1    3    3    0    0  0.49714067939E+02 -0.71208006961E+01  0.15223038689E+03  0.16030372748E+03  0.10000000000E+01 0.  0.
          4    1    1    2  501    0  0.13277121975E+02 -0.40462608210E+02 -0.99697179962E+01  0.43755146075E+02  0.12700000000E+01 0.  1.
<mgrwt>
<rscale>  1 0.13205137E+03</rscale>
<asrwt>0</asrwt>
<pdfrwt beam="2">  1       21 0.62562009E-02 0.13205137E+03</pdfrwt>
<pdfrwt beam="1">  1        4 0.51185701E-01 0.13205137E+03</pdfrwt>
<totfact> 0.27455995E+04</totfact>
</mgrwt>
</event>
<event>
 6    4  0.6358868E-003  0.1570687E+03  0.7818608E-02  0.1192046E+00
          4   -1    0    0  502    0 -0.00000000000E+00  0.00000000000E+00  0.83579334703E+02  0.83588983062E+02  0.12700000000E+01 0.  1.
         21   -1    0    0  501  502  0.00000000000E+00 -0.00000000000E+00 -0.47582409900E+03  0.47582409900E+03  0.00000000000E+00 0. -1.
         25    2    1    2    0    0 -0.93424705399E+02  0.17847430446E+02 -0.13121856995E+01  0.15707416987E+03  0.12499546655E+03 0.  0.
    9000005    1    3    3    0    0 -0.85752042098E+02 -0.40341720531E+02  0.15456206729E+02  0.96024796099E+02  0.10000000000E+01 0.  0.
    9000005    1    3    3    0    0 -0.76726633010E+01  0.58189150977E+02 -0.16768392428E+02  0.61049373774E+02  0.10000000000E+01 0.  0.
          4    1    1    2  501    0  0.93424705399E+02 -0.17847430446E+02 -0.39093257859E+03  0.40233891219E+03  0.12700000000E+01 0. -1.
<mgrwt>
<rscale>  1 0.15706869E+03</rscale>
<asrwt>0</asrwt>
<pdfrwt beam="2">  1       21 0.73203707E-01 0.15706869E+03</pdfrwt>
<pdfrwt beam="1">  1        4 0.12859232E-01 0.15706869E+03</pdfrwt>
<totfact> 0.34601072E+03</totfact>
</mgrwt>
</event>
<event>
 6    4  0.6358868E-003  0.1267527E+03  0.7818608E-02  0.1232355E+00
         -4   -1    0    0    0  501 -0.00000000000E+00  0.00000000000E+00  0.28024408790E+02  0.28053170730E+02  0.12700000000E+01 0.  1.
         21   -1    0    0  501  502  0.00000000000E+00 -0.00000000000E+00 -0.57014649634E+03  0.57014649634E+03  0.00000000000E+00 0. -1.
         25    2    1    2    0    0 -0.15440506368E+02  0.14246954684E+02 -0.11681356391E+03  0.17237066602E+03  0.12499941134E+03 0.  0.
    9000005    1    3    3    0    0 -0.16890331406E+02 -0.10804683544E+02  0.22879358676E+02  0.30438290604E+02  0.10000000000E+01 0.  0.
    9000005    1    3    3    0    0  0.14498250380E+01  0.25051638228E+02 -0.13969292259E+03  0.14193237542E+03  0.10000000000E+01 0.  0.
         -4    1    1    2    0  502  0.15440506368E+02 -0.14246954684E+02 -0.42530852363E+03  0.42582900104E+03  0.12700000000E+01 0. -1.
<mgrwt>
<rscale>  1 0.12675266E+03</rscale>
<asrwt>0</asrwt>
<pdfrwt beam="2">  1       21 0.87714847E-01 0.12675266E+03</pdfrwt>
<pdfrwt beam="1">  1       -4 0.43137687E-02 0.12675266E+03</pdfrwt>
<totfact> 0.13864427E+04</totfact>
</mgrwt>
</event>
<event>
 6    4  0.6358868E-003  0.1326910E+03  0.7818608E-02  0.1223517E+00
         21   -1    0    0  501  502  0.00000000000E+00  0.00000000000E+00  0.29247189269E+03  0.29247189269E+03  0.00000000000E+00 0.  1.
          4   -1    0    0  502    0 -0.00000000000E+00 -0.00000000000E+00 -0.26931807080E+02  0.26961734599E+02  0.12700000000E+01 0. -1.
         25    2    1    2    0    0  0.33450387287E+01  0.44401567934E+02  0.20688286978E+03  0.24577922900E+03  0.12499687627E+03 0.  0.
    9000005    1    3    3    0    0 -0.29493499235E+01  0.55508343783E+02  0.22031484600E+03  0.22722127158E+03  0.10000000000E+01 0.  0.
    9000005    1    3    3    0    0  0.62943886523E+01 -0.11106775849E+02 -0.13431976215E+02  0.18557957412E+02  0.10000000000E+01 0.  0.
          4    1    1    2  501    0 -0.33450387287E+01 -0.44401567934E+02  0.58657215829E+02  0.73654398293E+02  0.12700000000E+01 0.  1.
<mgrwt>
<rscale>  1 0.13269102E+03</rscale>
<asrwt>0</asrwt>
<pdfrwt beam="1">  1       21 0.44995674E-01 0.13269102E+03</pdfrwt>
<pdfrwt beam="2">  1        4 0.41458694E-02 0.13269102E+03</pdfrwt>
<totfact> 0.62076206E+04</totfact>
</mgrwt>
</event>
<event>
 6    4  0.6358868E-003  0.1273540E+03  0.7818608E-02  0.1231436E+00
          4   -1    0    0  502    0 -0.00000000000E+00  0.00000000000E+00  0.19042534159E+03  0.19042957653E+03  0.12700000000E+01 0.  1.
         21   -1    0    0  501  502  0.00000000000E+00 -0.00000000000E+00 -0.40065574957E+02  0.40065574957E+02  0.00000000000E+00 0. -1.
         25    2    1    2    0    0 -0.22622972367E+02  0.90393827598E+01  0.15979698343E+03  0.20433825411E+03  0.12500214743E+03 0.  0.
    9000005    1    3    3    0    0  0.50741354573E+02 -0.42875998001E+01  0.48231724791E+02  0.70145333788E+02  0.10000000000E+01 0.  0.
    9000005    1    3    3    0    0 -0.73364326940E+02  0.13326982560E+02  0.11156525863E+03  0.13419292033E+03  0.10000000000E+01 0.  0.
          4    1    1    2  501    0  0.22622972367E+02 -0.90393827598E+01 -0.94372167968E+01  0.26156897375E+02  0.12700000000E+01 0. -1.
<mgrwt>
<rscale>  1 0.12735402E+03</rscale>
<asrwt>0</asrwt>
<pdfrwt beam="2">  1       21 0.61639347E-02 0.12735402E+03</pdfrwt>
<pdfrwt beam="1">  1        4 0.29298080E-01 0.12735402E+03</pdfrwt>
<totfact> 0.83580211E+04</totfact>
</mgrwt>
</event>
<event>
 6    4  0.6358868E-003  0.1270675E+03  0.7818608E-02  0.1231873E+00
         21   -1    0    0  501  502  0.00000000000E+00  0.00000000000E+00  0.10985125280E+03  0.10985125280E+03  0.00000000000E+00 0. -1.
          4   -1    0    0  502    0 -0.00000000000E+00 -0.00000000000E+00 -0.63868479131E+02  0.63881104613E+02  0.12700000000E+01 0. -1.
         25    2    1    2    0    0 -0.91746408909E+01 -0.20936049558E+02  0.54537344806E+01  0.12718444528E+03  0.12499459066E+03 0.  0.
    9000005    1    3    3    0    0  0.62629115160E+01  0.49723747887E+02  0.18975537128E+02  0.53598005317E+02  0.10000000000E+01 0.  0.
    9000005    1    3    3    0    0 -0.15437552407E+02 -0.70659797446E+02 -0.13521802648E+02  0.73586439962E+02  0.10000000000E+01 0.  0.
          4    1    1    2  501    0  0.91746408909E+01  0.20936049558E+02  0.40529039190E+02  0.46547912136E+02  0.12700000000E+01 0.  1.
<mgrwt>
<rscale>  1 0.12706746E+03</rscale>
<asrwt>0</asrwt>
<pdfrwt beam="1">  1       21 0.16900193E-01 0.12706746E+03</pdfrwt>
<pdfrwt beam="2">  1        4 0.98274557E-02 0.12706746E+03</pdfrwt>
<totfact> 0.98550277E+04</totfact>
</mgrwt>
</event>
<event>
 6    4  0.6358868E-003  0.1355784E+03  0.7818608E-02  0.1219405E+00
         21   -1    0    0  501  502  0.00000000000E+00  0.00000000000E+00  0.80205100747E+02  0.80205100747E+02  0.00000000000E+00 0. -1.
         -4   -1    0    0    0  501 -0.00000000000E+00 -0.00000000000E+00 -0.10291111651E+04  0.10291119488E+04  0.12700000000E+01 0.  1.
         25    2    1    2    0    0  0.52299213382E+02 -0.46114428429E+01 -0.10154977205E+04  0.10245082369E+04  0.12500013589E+03 0.  0.
    9000005    1    3    3    0    0  0.58953152623E+02 -0.11924098009E+02 -0.19768134590E+03  0.20663149042E+03  0.10000000000E+01 0.  0.
    9000005    1    3    3    0    0 -0.66539392404E+01  0.73126551661E+01 -0.81781637463E+03  0.81787674648E+03  0.10000000000E+01 0.  0.
         -4    1    1    2    0  502 -0.52299213382E+02  0.46114428429E+01  0.66591656152E+02  0.84808812599E+02  0.12700000000E+01 0. -1.
<mgrwt>
<rscale>  1 0.13557842E+03</rscale>
<asrwt>0</asrwt>
<pdfrwt beam="1">  1       21 0.12339246E-01 0.13557842E+03</pdfrwt>
<pdfrwt beam="2">  1       -4 0.15832563E+00 0.13557842E+03</pdfrwt>
<totfact> 0.64573595E+02</totfact>
</mgrwt>
</event>
<event>
 6    4  0.6358868E-003  0.1267168E+03  0.7818608E-02  0.1232410E+00
         21   -1    0    0  501  502  0.00000000000E+00  0.00000000000E+00  0.99495823327E+02  0.99495823327E+02  0.00000000000E+00 0. -1.
          4   -1    0    0  502    0 -0.00000000000E+00 -0.00000000000E+00 -0.89105916582E+02  0.89114966587E+02  0.12700000000E+01 0. -1.
         25    2    1    2    0    0 -0.14616159221E+01 -0.20740112359E+02  0.55946580051E+02  0.13851775682E+03  0.12499944221E+03 0.  0.
    9000005    1    3    3    0    0 -0.33428321541E+02  0.34529555026E+02 -0.73236588660E+01  0.48624878720E+02  0.10000000000E+01 0.  0.
    9000005    1    3    3    0    0  0.31966705619E+02 -0.55269667385E+02  0.63270238917E+02  0.89892878102E+02  0.10000000000E+01 0.  0.
          4    1    1    2  501    0  0.14616159221E+01  0.20740112359E+02 -0.45556673305E+02  0.50093033092E+02  0.12700000000E+01 0.  1.
<mgrwt>
<rscale>  1 0.12671681E+03</rscale>
<asrwt>0</asrwt>
<pdfrwt beam="1">  1       21 0.15307050E-01 0.12671681E+03</pdfrwt>
<pdfrwt beam="2">  1        4 0.13709922E-01 0.12671681E+03</pdfrwt>
<totfact> 0.66848235E+04</totfact>
</mgrwt>
</event>
<event>
 6    4  0.6358868E-003  0.1289453E+03  0.7818608E-02  0.1229029E+00
         21   -1    0    0  501  502  0.00000000000E+00  0.00000000000E+00  0.66404559152E+02  0.66404559152E+02  0.00000000000E+00 0.  1.
         -4   -1    0    0    0  501 -0.00000000000E+00 -0.00000000000E+00 -0.14511497527E+03  0.14512053248E+03  0.12700000000E+01 0.  1.
         25    2    1    2    0    0  0.23768654743E+02 -0.20900983300E+02 -0.10813872382E+03  0.16828809074E+03  0.12500039137E+03 0.  0.
    9000005    1    3    3    0    0 -0.46455582654E+02 -0.68217729088E+01 -0.12133793731E+02  0.48506563429E+02  0.10000000000E+01 0.  0.
    9000005    1    3    3    0    0  0.70224237397E+02 -0.14079210391E+02 -0.96004930092E+02  0.11978152731E+03  0.10000000000E+01 0.  0.
         -4    1    1    2    0  502 -0.23768654743E+02  0.20900983300E+02  0.29428307710E+02  0.43237000888E+02  0.12700000000E+01 0. -1.
<mgrwt>
<rscale>  1 0.12894533E+03</rscale>
<asrwt>0</asrwt>
<pdfrwt beam="1">  1       21 0.10216086E-01 0.12894533E+03</pdfrwt>
<pdfrwt beam="2">  1       -4 0.22326742E-01 0.12894533E+03</pdfrwt>
<totfact> 0.57929033E+04</totfact>
</mgrwt>
</event>
<event>
 6    4  0.6358868E-003  0.1279321E+03  0.7818608E-02  0.1230557E+00
         21   -1    0    0  501  502  0.00000000000E+00  0.00000000000E+00  0.75462090403E+03  0.75462090403E+03  0.00000000000E+00 0.  1.
          4   -1    0    0  502    0 -0.00000000000E+00 -0.00000000000E+00 -0.16893529986E+02  0.16941199940E+02  0.12700000000E+01 0. -1.
         25    2    1    2    0    0  0.14848710859E+02  0.22810012524E+02  0.23065425325E+03  0.26375747263E+03  0.12500335570E+03 0.  0.
    9000005    1    3    3    0    0 -0.48611416354E+02  0.21422735702E+01  0.15694075342E+03  0.16431390452E+03  0.10000000000E+01 0.  0.
    9000005    1    3    3    0    0  0.63460127213E+02  0.20667738954E+02  0.73713499838E+02  0.99443568107E+02  0.10000000000E+01 0.  0.
          4    1    1    2  501    0 -0.14848710859E+02 -0.22810012524E+02  0.50707312079E+03  0.50780463134E+03  0.12700000000E+01 0.  1.
<mgrwt>
<rscale>  1 0.12793209E+03</rscale>
<asrwt>0</asrwt>
<pdfrwt beam="1">  1       21 0.11609550E+00 0.12793209E+03</pdfrwt>
<pdfrwt beam="2">  1        4 0.26027543E-02 0.12793209E+03</pdfrwt>
<totfact> 0.15918635E+04</totfact>
</mgrwt>
</event>
<event>
 6    4  0.6358868E-003  0.1272694E+03  0.7818608E-02  0.1231565E+00
         21   -1    0    0  501  502  0.00000000000E+00  0.00000000000E+00  0.10699087667E+03  0.10699087667E+03  0.00000000000E+00 0.  1.
          4   -1    0    0  502    0 -0.00000000000E+00 -0.00000000000E+00 -0.16137575865E+03  0.16138075592E+03  0.12700000000E+01 0. -1.
         25    2    1    2    0    0 -0.15072150810E+02 -0.18584320597E+02 -0.13425084277E+03  0.18498859298E+03  0.12499977619E+03 0.  0.
    9000005    1    3    3    0    0 -0.87611208013E+00 -0.63257165553E+02 -0.12054602146E+03  0.13614176382E+03  0.10000000000E+01 0.  0.
    9000005    1    3    3    0    0 -0.14196038730E+02  0.44672844956E+02 -0.13704821306E+02  0.48846829161E+02  0.10000000000E+01 0.  0.
          4    1    1    2  501    0  0.15072150810E+02  0.18584320597E+02  0.79865960779E+02  0.83383039602E+02  0.12700000000E+01 0.  1.
<mgrwt>
<rscale>  1 0.12726936E+03</rscale>
<asrwt>0</asrwt>
<pdfrwt beam="1">  1       21 0.16460135E-01 0.12726936E+03</pdfrwt>
<pdfrwt beam="2">  1        4 0.24828004E-01 0.12726936E+03</pdfrwt>
<totfact> 0.20350072E+04</totfact>
</mgrwt>
</event>
<event>
 6    4  0.6358868E-003  0.1382223E+03  0.7818608E-02  0.1215741E+00
          4   -1    0    0  502    0 -0.00000000000E+00  0.00000000000E+00  0.40314120623E+03  0.40314320664E+03  0.12700000000E+01 0. -1.
         21   -1    0    0  501  502  0.00000000000E+00 -0.00000000000E+00 -0.27723939773E+02  0.27723939773E+02  0.00000000000E+00 0.  1.
         25    2    1    2    0    0  0.43357079975E+02  0.39999750532E+02  0.32531312909E+03  0.35346008015E+03  0.12500231946E+03 0.  0.
    9000005    1    3    3    0    0  0.66048455464E+02 -0.15608935672E+02  0.23793020736E+03  0.24742235331E+03  0.10000000000E+01 0.  0.
    9000005    1    3    3    0    0 -0.22691375488E+02  0.55608686204E+02  0.87382921731E+02  0.10603772684E+03  0.10000000000E+01 0.  0.
          4    1    1    2  501    0 -0.43357079975E+02 -0.39999750532E+02  0.50104137359E+02  0.77407066261E+02  0.12700000000E+01 0.  1.
<mgrwt>
<rscale>  1 0.13822227E+03</rscale>
<asrwt>0</asrwt>
<pdfrwt beam="2">  1       21 0.42652218E-02 0.13822227E+03</pdfrwt>
<pdfrwt beam="1">  1        4 0.62024111E-01 0.13822227E+03</pdfrwt>
<totfact> 0.35304927E+04</totfact>
</mgrwt>
</event>
<event>
 6    4  0.6358868E-003  0.1267435E+03  0.7818608E-02  0.1232369E+00
         -4   -1    0    0    0  501 -0.00000000000E+00  0.00000000000E+00  0.15994288493E+03  0.15994792696E+03  0.12700000000E+01 0. -1.
         21   -1    0    0  501  502  0.00000000000E+00 -0.00000000000E+00 -0.34626286297E+02  0.34626286297E+02  0.00000000000E+00 0. -1.
         25    2    1    2    0    0  0.18501377874E+02 -0.97593704297E+01  0.11532275471E+03  0.17135706204E+03  0.12500543453E+03 0.  0.
    9000005    1    3    3    0    0  0.43255568682E+01  0.55147741349E+02  0.76473822348E+02  0.94388713958E+02  0.10000000000E+01 0.  0.
    9000005    1    3    3    0    0  0.14175821006E+02 -0.64907111779E+02  0.38848932365E+02  0.76968348083E+02  0.10000000000E+01 0.  0.
         -4    1    1    2    0  502 -0.18501377874E+02  0.97593704297E+01  0.99938439214E+01  0.23217151220E+02  0.12700000000E+01 0.  1.
<mgrwt>
<rscale>  1 0.12674346E+03</rscale>
<asrwt>0</asrwt>
<pdfrwt beam="2">  1       21 0.53271211E-02 0.12674346E+03</pdfrwt>
<pdfrwt beam="1">  1       -4 0.24608777E-01 0.12674346E+03</pdfrwt>
<totfact> 0.14785693E+05</totfact>
</mgrwt>
</event>
<event>
 6    4  0.6358868E-003  0.1267420E+03  0.7818608E-02  0.1232372E+00
          4   -1    0    0  502    0 -0.00000000000E+00  0.00000000000E+00  0.50545016781E+03  0.50545176332E+03  0.12700000000E+01 0.  1.
         21   -1    0    0  501  502  0.00000000000E+00 -0.00000000000E+00 -0.15969896109E+02  0.15969896109E+02  0.00000000000E+00 0.  1.
         25    2    1    2    0    0  0.20876472329E+02 -0.15068858813E+01  0.48318020974E+03  0.49952642061E+03  0.12500172799E+03 0.  0.
    9000005    1    3    3    0    0 -0.11325545346E+02 -0.40586239525E+02  0.39946642986E+03  0.40168387994E+03  0.10000000000E+01 0.  0.
    9000005    1    3    3    0    0  0.32202017675E+02  0.39079353644E+02  0.83713779882E+02  0.97842540675E+02  0.10000000000E+01 0.  0.
          4    1    1    2  501    0 -0.20876472329E+02  0.15068858813E+01  0.63000619579E+01  0.21895238812E+02  0.12700000000E+01 0. -1.
<mgrwt>
<rscale>  1 0.12674198E+03</rscale>
<asrwt>0</asrwt>
<pdfrwt beam="2">  1       21 0.24569075E-02 0.12674198E+03</pdfrwt>
<pdfrwt beam="1">  1        4 0.77765559E-01 0.12674198E+03</pdfrwt>
<totfact> 0.53207096E+04</totfact>
</mgrwt>
</event>
<event>
 6    4  0.6358868E-003  0.1274682E+03  0.7818608E-02  0.1231262E+00
         -4   -1    0    0    0  501 -0.00000000000E+00  0.00000000000E+00  0.37052234848E+03  0.37052452500E+03  0.12700000000E+01 0. -1.
         21   -1    0    0  501  502  0.00000000000E+00 -0.00000000000E+00 -0.43614885191E+02  0.43614885191E+02  0.00000000000E+00 0.  1.
         25    2    1    2    0    0 -0.11289957744E+02  0.22243219429E+02  0.35461927290E+03  0.37683282567E+03  0.12500370329E+03 0.  0.
    9000005    1    3    3    0    0 -0.14494426841E+02  0.50907722633E+02  0.34070462811E+03  0.34479316734E+03  0.10000000000E+01 0.  0.
    9000005    1    3    3    0    0  0.32044690977E+01 -0.28664503204E+02  0.13914644795E+02  0.32039658330E+02  0.10000000000E+01 0.  0.
         -4    1    1    2    0  502  0.11289957744E+02 -0.22243219429E+02 -0.27711809609E+02  0.37306584516E+02  0.12700000000E+01 0.  1.
<mgrwt>
<rscale>  1 0.12746823E+03</rscale>
<asrwt>0</asrwt>
<pdfrwt beam="2">  1       21 0.67099826E-02 0.12746823E+03</pdfrwt>
<pdfrwt beam="1">  1       -4 0.57005026E-01 0.12746823E+03</pdfrwt>
<totfact> 0.19439650E+04</totfact>
</mgrwt>
</event>
<event>
 6    4  0.6358868E-003  0.1387005E+03  0.7818608E-02  0.1215088E+00
         21   -1    0    0  501  502  0.00000000000E+00  0.00000000000E+00  0.41739862822E+03  0.41739862822E+03  0.00000000000E+00 0.  1.
         -4   -1    0    0    0  501 -0.00000000000E+00 -0.00000000000E+00 -0.35111893882E+02  0.35134854375E+02  0.12700000000E+01 0.  1.
         25    2    1    2    0    0 -0.38796699170E+02 -0.45907769017E+02  0.11987912201E+03  0.18332710260E+03  0.12500046212E+03 0.  0.
    9000005    1    3    3    0    0  0.20736187291E+02  0.50186746019E+00  0.10416793067E+03  0.10621769681E+03  0.10000000000E+01 0.  0.
    9000005    1    3    3    0    0 -0.59532886461E+02 -0.46409636478E+02  0.15711191337E+02  0.77109405792E+02  0.10000000000E+01 0.  0.
         -4    1    1    2    0  502  0.38796699170E+02  0.45907769017E+02  0.26240761233E+03  0.26920638000E+03  0.12700000000E+01 0. -1.
<mgrwt>
<rscale>  1 0.13870048E+03</rscale>
<asrwt>0</asrwt>
<pdfrwt beam="1">  1       21 0.64215170E-01 0.13870048E+03</pdfrwt>
<pdfrwt beam="2">  1       -4 0.54037450E-02 0.13870048E+03</pdfrwt>
<totfact> 0.19383795E+04</totfact>
</mgrwt>
</event>
<event>
 6    4  0.6358868E-003  0.1274655E+03  0.7818608E-02  0.1231266E+00
          4   -1    0    0  502    0 -0.00000000000E+00  0.00000000000E+00  0.54424246574E+03  0.54424394752E+03  0.12700000000E+01 0. -1.
         21   -1    0    0  501  502  0.00000000000E+00 -0.00000000000E+00 -0.47288973644E+02  0.47288973644E+02  0.00000000000E+00 0.  1.
         25    2    1    2    0    0  0.24653305405E+02 -0.36619147355E+01  0.53281097269E+03  0.54784577315E+03  0.12500505372E+03 0.  0.
    9000005    1    3    3    0    0  0.84507355019E+01  0.27270119679E+02  0.22561410263E+02  0.36401807522E+02  0.10000000000E+01 0.  0.
    9000005    1    3    3    0    0  0.16202569903E+02 -0.30932034414E+02  0.51024956242E+03  0.51144396563E+03  0.10000000000E+01 0.  0.
          4    1    1    2  501    0 -0.24653305405E+02  0.36619147355E+01 -0.35857480594E+02  0.43687148012E+02  0.12700000000E+01 0.  1.
<mgrwt>
<rscale>  1 0.12746552E+03</rscale>
<asrwt>0</asrwt>
<pdfrwt beam="2">  1       21 0.72752271E-02 0.12746552E+03</pdfrwt>
<pdfrwt beam="1">  1        4 0.83731031E-01 0.12746552E+03</pdfrwt>
<totfact> 0.74051559E+03</totfact>
</mgrwt>
</event>
<event>
 6    4  0.6358868E-003  0.1275812E+03  0.7818608E-02  0.1231090E+00
         21   -1    0    0  501  502  0.00000000000E+00  0.00000000000E+00  0.16380144657E+03  0.16380144657E+03  0.00000000000E+00 0.  1.
         -4   -1    0    0    0  501 -0.00000000000E+00 -0.00000000000E+00 -0.36012496608E+02  0.36034883265E+02  0.12700000000E+01 0.  1.
         25    2    1    2    0    0  0.20658334965E+02 -0.14996903744E+02  0.10018129220E+03  0.16221360276E+03  0.12500115075E+03 0.  0.
    9000005    1    3    3    0    0 -0.44411167195E+02 -0.12230659812E+02  0.42664953653E+01  0.46272495002E+02  0.10000000000E+01 0.  0.
    9000005    1    3    3    0    0  0.65069502159E+02 -0.27662439322E+01  0.95914796835E+02  0.11594110776E+03  0.10000000000E+01 0.  0.
         -4    1    1    2    0  502 -0.20658334965E+02  0.14996903744E+02  0.27607657764E+02  0.37622727076E+02  0.12700000000E+01 0. -1.
<mgrwt>
<rscale>  1 0.12758120E+03</rscale>
<asrwt>0</asrwt>
<pdfrwt beam="1">  1       21 0.25200222E-01 0.12758120E+03</pdfrwt>
<pdfrwt beam="2">  1       -4 0.55424850E-02 0.12758120E+03</pdfrwt>
<totfact> 0.12067262E+05</totfact>
</mgrwt>
</event>
<event>
 6    4  0.6358868E-003  0.1276269E+03  0.7818608E-02  0.1231020E+00
         21   -1    0    0  501  502  0.00000000000E+00  0.00000000000E+00  0.27137753714E+02  0.27137753714E+02  0.00000000000E+00 0.  1.
         -4   -1    0    0    0  501 -0.00000000000E+00 -0.00000000000E+00 -0.51235925627E+03  0.51236083026E+03  0.12700000000E+01 0. -1.
         25    2    1    2    0    0 -0.97120571766E+01  0.23928636763E+02 -0.49550161438E+03  0.51167418261E+03  0.12498686165E+03 0.  0.
    9000005    1    3    3    0    0 -0.44596151465E+02  0.13820556790E+02 -0.67193583441E+02  0.81827881379E+02  0.10000000000E+01 0.  0.
    9000005    1    3    3    0    0  0.34884094288E+02  0.10108079974E+02 -0.42830803094E+03  0.42984630123E+03  0.10000000000E+01 0.  0.
         -4    1    1    2    0  502  0.97120571766E+01 -0.23928636763E+02  0.10280111827E+02  0.27824401362E+02  0.12700000000E+01 0.  1.
<mgrwt>
<rscale>  1 0.12762688E+03</rscale>
<asrwt>0</asrwt>
<pdfrwt beam="1">  1       21 0.41750389E-02 0.12762688E+03</pdfrwt>
<pdfrwt beam="2">  1       -4 0.78826911E-01 0.12762688E+03</pdfrwt>
<totfact> 0.21615608E+04</totfact>
</mgrwt>
</event>
<event>
 6    4  0.6358868E-003  0.1275108E+03  0.7818608E-02  0.1231197E+00
         21   -1    0    0  501  502  0.00000000000E+00  0.00000000000E+00  0.17124981972E+02  0.17124981972E+02  0.00000000000E+00 0. -1.
          4   -1    0    0  502    0 -0.00000000000E+00 -0.00000000000E+00 -0.41403834455E+03  0.41404029231E+03  0.12700000000E+01 0.  1.
         25    2    1    2    0    0 -0.25115351102E+02  0.90542505278E+00 -0.38005834502E+03  0.40087822800E+03  0.12500962928E+03 0.  0.
    9000005    1    3    3    0    0 -0.78450521808E+01  0.11768036699E+01  0.86532999782E+01  0.11781736337E+02  0.10000000000E+01 0.  0.
    9000005    1    3    3    0    0 -0.17270298921E+02 -0.27137861709E+00 -0.38871164500E+03  0.38909649167E+03  0.10000000000E+01 0.  0.
          4    1    1    2  501    0  0.25115351102E+02 -0.90542505278E+00 -0.16855017563E+02  0.30287046283E+02  0.12700000000E+01 0. -1.
<mgrwt>
<rscale>  1 0.12751082E+03</rscale>
<asrwt>0</asrwt>
<pdfrwt beam="1">  1       21 0.26346127E-02 0.12751082E+03</pdfrwt>
<pdfrwt beam="2">  1        4 0.63701976E-01 0.12751082E+03</pdfrwt>
<totfact> 0.73083814E+04</totfact>
</mgrwt>
</event>
<event>
 6    4  0.6358868E-003  0.1287637E+03  0.7818608E-02  0.1229302E+00
         21   -1    0    0  501  502  0.00000000000E+00  0.00000000000E+00  0.10552766499E+02  0.10552766499E+02  0.00000000000E+00 0.  1.
         -4   -1    0    0    0  501 -0.00000000000E+00 -0.00000000000E+00 -0.68313946389E+03  0.68314064440E+03  0.12700000000E+01 0.  1.
         25    2    1    2    0    0  0.29216926786E+02 -0.10105211484E+02 -0.42210637598E+03  0.44130928218E+03  0.12499738313E+03 0.  0.
    9000005    1    3    3    0    0  0.76426737961E+02 -0.19196523748E+02 -0.29705124027E+03  0.30732717444E+03  0.10000000000E+01 0.  0.
    9000005    1    3    3    0    0 -0.47209811175E+02  0.90913122644E+01 -0.12505513570E+03  0.13398210775E+03  0.10000000000E+01 0.  0.
         -4    1    1    2    0  502 -0.29216926786E+02  0.10105211484E+02 -0.25048032142E+03  0.25238412872E+03  0.12700000000E+01 0. -1.
<mgrwt>
<rscale>  1 0.12876370E+03</rscale>
<asrwt>0</asrwt>
<pdfrwt beam="1">  1       21 0.16235026E-02 0.12876370E+03</pdfrwt>
<pdfrwt beam="2">  1       -4 0.10510435E+00 0.12876370E+03</pdfrwt>
<totfact> 0.52638548E+04</totfact>
</mgrwt>
</event>
<event>
 6    4  0.6358868E-003  0.1280786E+03  0.7818608E-02  0.1230335E+00
         -4   -1    0    0    0  501 -0.00000000000E+00  0.00000000000E+00  0.34691140974E+02  0.34714379759E+02  0.12700000000E+01 0. -1.
         21   -1    0    0  501  502  0.00000000000E+00 -0.00000000000E+00 -0.31342456126E+03  0.31342456126E+03  0.00000000000E+00 0.  1.
         25    2    1    2    0    0 -0.11044043091E+01 -0.27932530633E+02 -0.88078065189E+02  0.15544093038E+03  0.12499076484E+03 0.  0.
    9000005    1    3    3    0    0  0.44379877498E+02 -0.46789182928E+02 -0.84167569196E+02  0.10603763893E+03  0.10000000000E+01 0.  0.
    9000005    1    3    3    0    0 -0.45484281807E+02  0.18856652295E+02 -0.39104959936E+01  0.49403291451E+02  0.10000000000E+01 0.  0.
         -4    1    1    2    0  502  0.11044043091E+01  0.27932530633E+02 -0.19065535510E+03  0.19269801064E+03  0.12700000000E+01 0.  1.
<mgrwt>
<rscale>  1 0.12807864E+03</rscale>
<asrwt>0</asrwt>
<pdfrwt beam="2">  1       21 0.48219164E-01 0.12807864E+03</pdfrwt>
<pdfrwt beam="1">  1       -4 0.53390841E-02 0.12807864E+03</pdfrwt>
<totfact> 0.35808144E+04</totfact>
</mgrwt>
</event>
<event>
 6    4  0.6358868E-003  0.1269796E+03  0.7818608E-02  0.1232007E+00
         21   -1    0    0  501  502  0.00000000000E+00  0.00000000000E+00  0.38210103849E+03  0.38210103849E+03  0.00000000000E+00 0.  1.
          4   -1    0    0  502    0 -0.00000000000E+00 -0.00000000000E+00 -0.23185543528E+03  0.23185891350E+03  0.12700000000E+01 0. -1.
         25    2    1    2    0    0 -0.18064957364E+02  0.13138267976E+02 -0.21410273963E+03  0.24892531719E+03  0.12499949459E+03 0.  0.
    9000005    1    3    3    0    0 -0.48797196376E+02 -0.11055604875E+02 -0.25232829468E+02  0.56045414230E+02  0.10000000000E+01 0.  0.
    9000005    1    3    3    0    0  0.30732239012E+02  0.24193872851E+02 -0.18886991016E+03  0.19287990295E+03  0.10000000000E+01 0.  0.
          4    1    1    2  501    0  0.18064957364E+02 -0.13138267976E+02  0.36434834285E+03  0.36503463480E+03  0.12700000000E+01 0.  1.
<mgrwt>
<rscale>  1 0.12697965E+03</rscale>
<asrwt>0</asrwt>
<pdfrwt beam="1">  1       21 0.58784775E-01 0.12697965E+03</pdfrwt>
<pdfrwt beam="2">  1        4 0.35670497E-01 0.12697965E+03</pdfrwt>
<totfact> 0.86313343E+02</totfact>
</mgrwt>
</event>
<event>
 6    4  0.6358868E-003  0.1382815E+03  0.7818608E-02  0.1215660E+00
         21   -1    0    0  501  502  0.00000000000E+00  0.00000000000E+00  0.12438630654E+03  0.12438630654E+03  0.00000000000E+00 0.  1.
          4   -1    0    0  502    0 -0.00000000000E+00 -0.00000000000E+00 -0.86773402725E+02  0.86782695973E+02  0.12700000000E+01 0. -1.
         25    2    1    2    0    0  0.16574182172E+02  0.56759533590E+02  0.56063621427E+02  0.14921426058E+03  0.12500167097E+03 0.  0.
    9000005    1    3    3    0    0  0.10197206508E+02 -0.28014753729E+02  0.56839079820E+02  0.64191046430E+02  0.10000000000E+01 0.  0.
    9000005    1    3    3    0    0  0.63769756643E+01  0.84774287319E+02 -0.77545839316E+00  0.85023214152E+02  0.10000000000E+01 0.  0.
          4    1    1    2  501    0 -0.16574182172E+02 -0.56759533590E+02 -0.18450717607E+02  0.61954741935E+02  0.12700000000E+01 0.  1.
<mgrwt>
<rscale>  1 0.13828147E+03</rscale>
<asrwt>0</asrwt>
<pdfrwt beam="1">  1       21 0.19136355E-01 0.13828147E+03</pdfrwt>
<pdfrwt beam="2">  1        4 0.13350968E-01 0.13828147E+03</pdfrwt>
<totfact> 0.47072247E+04</totfact>
</mgrwt>
</event>
<event>
 6    4  0.6358868E-003  0.1276004E+03  0.7818608E-02  0.1231060E+00
         21   -1    0    0  501  502  0.00000000000E+00  0.00000000000E+00  0.98876349298E+02  0.98876349298E+02  0.00000000000E+00 0. -1.
         -4   -1    0    0    0  501 -0.00000000000E+00 -0.00000000000E+00 -0.91790381407E+02  0.91799166765E+02  0.12700000000E+01 0. -1.
         25    2    1    2    0    0 -0.25489584104E+02  0.29083929976E+01 -0.42781529400E+02  0.13458132890E+03  0.12499478862E+03 0.  0.
    9000005    1    3    3    0    0 -0.55257499201E+02  0.30632613818E+02 -0.62926450190E+02  0.89176714342E+02  0.10000000000E+01 0.  0.
    9000005    1    3    3    0    0  0.29767915097E+02 -0.27724220820E+02  0.20144920790E+02  0.45404614556E+02  0.10000000000E+01 0.  0.
         -4    1    1    2    0  502  0.25489584104E+02 -0.29083929976E+01  0.49867497292E+02  0.56094187165E+02  0.12700000000E+01 0.  1.
<mgrwt>
<rscale>  1 0.12760045E+03</rscale>
<asrwt>0</asrwt>
<pdfrwt beam="1">  1       21 0.15211746E-01 0.12760045E+03</pdfrwt>
<pdfrwt beam="2">  1       -4 0.14122900E-01 0.12760045E+03</pdfrwt>
<totfact> 0.64278288E+04</totfact>
</mgrwt>
</event>
<event>
 6    4  0.6358868E-003  0.1385923E+03  0.7818608E-02  0.1215236E+00
         21   -1    0    0  501  502  0.00000000000E+00  0.00000000000E+00  0.17591823447E+02  0.17591823447E+02  0.00000000000E+00 0.  1.
          4   -1    0    0  502    0 -0.00000000000E+00 -0.00000000000E+00 -0.10249222406E+04  0.10249230274E+04  0.12700000000E+01 0. -1.
         25    2    1    2    0    0 -0.22385752702E+02  0.55511608350E+02 -0.94852326362E+03  0.95859492004E+03  0.12500071404E+03 0.  0.
    9000005    1    3    3    0    0  0.40470348361E+02  0.12854574452E+02 -0.61779391553E+03  0.61925230015E+03  0.10000000000E+01 0.  0.
    9000005    1    3    3    0    0 -0.62856101063E+02  0.42657033899E+02 -0.33072934809E+03  0.33934261989E+03  0.10000000000E+01 0.  0.
          4    1    1    2  501    0  0.22385752702E+02 -0.55511608350E+02 -0.58807153507E+02  0.83919930823E+02  0.12700000000E+01 0.  1.
<mgrwt>
<rscale>  1 0.13859235E+03</rscale>
<asrwt>0</asrwt>
<pdfrwt beam="1">  1       21 0.27064345E-02 0.13859235E+03</pdfrwt>
<pdfrwt beam="2">  1        4 0.15768392E+00 0.13859235E+03</pdfrwt>
<totfact> 0.85973905E+03</totfact>
</mgrwt>
</event>
<event>
 6    4  0.6358868E-003  0.1282271E+03  0.7818608E-02  0.1230110E+00
         -4   -1    0    0    0  501 -0.00000000000E+00  0.00000000000E+00  0.39888444358E+02  0.39908656872E+02  0.12700000000E+01 0. -1.
         21   -1    0    0  501  502  0.00000000000E+00 -0.00000000000E+00 -0.37111544623E+03  0.37111544623E+03  0.00000000000E+00 0.  1.
         25    2    1    2    0    0 -0.12843883694E+01  0.28565011038E+02 -0.65922845993E+02  0.14418048310E+03  0.12499832229E+03 0.  0.
    9000005    1    3    3    0    0  0.52186503752E+02  0.36182084851E+02 -0.63943820096E+02  0.90124284000E+02  0.10000000000E+01 0.  0.
    9000005    1    3    3    0    0 -0.53470892121E+02 -0.76170738134E+01 -0.19790258976E+01  0.54056199101E+02  0.10000000000E+01 0.  0.
         -4    1    1    2    0  502  0.12843883694E+01 -0.28565011038E+02 -0.26530415588E+03  0.26684362000E+03  0.12700000000E+01 0.  1.
<mgrwt>
<rscale>  1 0.12822710E+03</rscale>
<asrwt>0</asrwt>
<pdfrwt beam="2">  1       21 0.57094683E-01 0.12822710E+03</pdfrwt>
<pdfrwt beam="1">  1       -4 0.61384058E-02 0.12822710E+03</pdfrwt>
<totfact> 0.20114383E+04</totfact>
</mgrwt>
</event>
<event>
 6    4  0.6358868E-003  0.1270805E+03  0.7818608E-02  0.1231853E+00
         21   -1    0    0  501  502  0.00000000000E+00  0.00000000000E+00  0.13597494445E+03  0.13597494445E+03  0.00000000000E+00 0.  1.
          4   -1    0    0  502    0 -0.00000000000E+00 -0.00000000000E+00 -0.77532779036E+02  0.77543179746E+02  0.12700000000E+01 0.  1.
         25    2    1    2    0    0  0.21803777931E+02  0.68613127637E+01 -0.22802166110E+02  0.12910996908E+03  0.12500785172E+03 0.  0.
    9000005    1    3    3    0    0 -0.16263396406E+02 -0.49647949380E+02 -0.30549524283E+02  0.60528426167E+02  0.10000000000E+01 0.  0.
    9000005    1    3    3    0    0  0.38067174337E+02  0.56509262144E+02  0.77473581734E+01  0.68581542916E+02  0.10000000000E+01 0.  0.
          4    1    1    2  501    0 -0.21803777931E+02 -0.68613127637E+01  0.81244331521E+02  0.84408155111E+02  0.12700000000E+01 0. -1.
<mgrwt>
<rscale>  1 0.12708047E+03</rscale>
<asrwt>0</asrwt>
<pdfrwt beam="1">  1       21 0.20919222E-01 0.12708047E+03</pdfrwt>
<pdfrwt beam="2">  1        4 0.11929376E-01 0.12708047E+03</pdfrwt>
<totfact> 0.47957704E+04</totfact>
</mgrwt>
</event>
<event>
 6    4  0.6358868E-003  0.1284129E+03  0.7818608E-02  0.1229830E+00
         21   -1    0    0  501  502  0.00000000000E+00  0.00000000000E+00  0.16995470899E+02  0.16995470899E+02  0.00000000000E+00 0. -1.
         -4   -1    0    0    0  501 -0.00000000000E+00 -0.00000000000E+00 -0.38903089941E+03  0.38903297237E+03  0.12700000000E+01 0.  1.
         25    2    1    2    0    0 -0.29342089179E+02  0.18133488754E+01 -0.33471832203E+03  0.35850554597E+03  0.12500249982E+03 0.  0.
    9000005    1    3    3    0    0  0.14495778375E+02  0.54530764247E+02 -0.19280740553E+03  0.20089655912E+03  0.10000000000E+01 0.  0.
    9000005    1    3    3    0    0 -0.43837867554E+02 -0.52717415372E+02 -0.14191091650E+03  0.15760898686E+03  0.10000000000E+01 0.  0.
         -4    1    1    2    0  502  0.29342089179E+02 -0.18133488754E+01 -0.37317106481E+02  0.47522897299E+02  0.12700000000E+01 0. -1.
<mgrwt>
<rscale>  1 0.12841289E+03</rscale>
<asrwt>0</asrwt>
<pdfrwt beam="1">  1       21 0.26146881E-02 0.12841289E+03</pdfrwt>
<pdfrwt beam="2">  1       -4 0.59854710E-01 0.12841289E+03</pdfrwt>
<totfact> 0.84462398E+04</totfact>
</mgrwt>
</event>
<event>
 6    4  0.6358868E-003  0.1303164E+03  0.7818608E-02  0.1226987E+00
          4   -1    0    0  502    0 -0.00000000000E+00  0.00000000000E+00  0.19226655665E+03  0.19227075104E+03  0.12700000000E+01 0. -1.
         21   -1    0    0  501  502  0.00000000000E+00 -0.00000000000E+00 -0.11459955438E+03  0.11459955438E+03  0.00000000000E+00 0. -1.
         25    2    1    2    0    0 -0.28780108602E+02  0.23007824708E+02  0.16606487231E+03  0.21109217130E+03  0.12499883327E+03 0.  0.
    9000005    1    3    3    0    0 -0.78227050115E+02  0.17157501505E+02  0.11052246545E+03  0.13649200195E+03  0.10000000000E+01 0.  0.
    9000005    1    3    3    0    0  0.49446941513E+02  0.58503232023E+01  0.55542406861E+02  0.74600169346E+02  0.10000000000E+01 0.  0.
          4    1    1    2  501    0  0.28780108602E+02 -0.23007824708E+02 -0.88397870044E+02  0.95778134129E+02  0.12700000000E+01 0.  1.
<mgrwt>
<rscale>  1 0.13031640E+03</rscale>
<asrwt>0</asrwt>
<pdfrwt beam="2">  1       21 0.17630701E-01 0.13031640E+03</pdfrwt>
<pdfrwt beam="1">  1        4 0.29580334E-01 0.13031640E+03</pdfrwt>
<totfact> 0.12987756E+04</totfact>
</mgrwt>
</event>
<event>
 6    4  0.6358868E-003  0.1275545E+03  0.7818608E-02  0.1231130E+00
         -4   -1    0    0    0  501 -0.00000000000E+00  0.00000000000E+00  0.61906902502E+02  0.61919927950E+02  0.12700000000E+01 0.  1.
         21   -1    0    0  501  502  0.00000000000E+00 -0.00000000000E+00 -0.23348292879E+03  0.23348292879E+03  0.00000000000E+00 0. -1.
         25    2    1    2    0    0  0.24280268678E+02 -0.73766284291E+01 -0.57949092366E+01  0.12768601869E+03  0.12500476912E+03 0.  0.
    9000005    1    3    3    0    0  0.16894075502E+02 -0.28453168055E+01  0.59441407735E+02  0.61869108352E+02  0.10000000000E+01 0.  0.
    9000005    1    3    3    0    0  0.73861931758E+01 -0.45313116236E+01 -0.65236316972E+02  0.65816910340E+02  0.10000000000E+01 0.  0.
         -4    1    1    2    0  502 -0.24280268678E+02  0.73766284291E+01 -0.16578111706E+03  0.16771683805E+03  0.12700000000E+01 0. -1.
<mgrwt>
<rscale>  1 0.12755445E+03</rscale>
<asrwt>0</asrwt>
<pdfrwt beam="2">  1       21 0.35920450E-01 0.12755445E+03</pdfrwt>
<pdfrwt beam="1">  1       -4 0.95254066E-02 0.12755445E+03</pdfrwt>
<totfact> 0.24998411E+04</totfact>
</mgrwt>
</event>
<event>
 6    4  0.6358868E-003  0.1340502E+03  0.7818608E-02  0.1221567E+00
          4   -1    0    0  502    0 -0.00000000000E+00  0.00000000000E+00  0.33751667786E+03  0.33751906722E+03  0.12700000000E+01 0. -1.
         21   -1    0    0  501  502  0.00000000000E+00 -0.00000000000E+00 -0.35741910427E+02  0.35741910427E+02  0.00000000000E+00 0. -1.
         25    2    1    2    0    0  0.43912196758E+02 -0.20413517345E+02  0.29541137309E+03  0.32440303661E+03  0.12499783236E+03 0.  0.
    9000005    1    3    3    0    0 -0.43403764872E+02  0.33122938105E+01  0.93283059348E+02  0.10294458343E+03  0.10000000000E+01 0.  0.
    9000005    1    3    3    0    0  0.87315961629E+02 -0.23725811156E+02  0.20212831375E+03  0.22145845319E+03  0.10000000000E+01 0.  0.
          4    1    1    2  501    0 -0.43912196758E+02  0.20413517345E+02  0.63633943438E+01  0.48857941034E+02  0.12700000000E+01 0.  1.
<mgrwt>
<rscale>  1 0.13405018E+03</rscale>
<asrwt>0</asrwt>
<pdfrwt beam="2">  1       21 0.54987557E-02 0.13405018E+03</pdfrwt>
<pdfrwt beam="1">  1        4 0.51927560E-01 0.13405018E+03</pdfrwt>
<totfact> 0.33233941E+04</totfact>
</mgrwt>
</event>
<event>
 6    4  0.6358868E-003  0.2650351E+03  0.7818608E-02  0.1104155E+00
          4   -1    0    0  502    0 -0.00000000000E+00  0.00000000000E+00  0.36373037339E+03  0.36373259054E+03  0.12700000000E+01 0.  1.
         21   -1    0    0  501  502  0.00000000000E+00 -0.00000000000E+00 -0.22696323522E+03  0.22696323522E+03  0.00000000000E+00 0. -1.
         25    2    1    2    0    0 -0.22846677568E+03  0.49210654770E+02  0.21810164783E+03  0.34323740199E+03  0.12499931683E+03 0.  0.
    9000005    1    3    3    0    0 -0.14659538510E+03  0.63518775673E+02  0.72207795276E+02  0.17532771457E+03  0.10000000000E+01 0.  0.
    9000005    1    3    3    0    0 -0.81871390574E+02 -0.14308120903E+02  0.14589385256E+03  0.16790968743E+03  0.10000000000E+01 0.  0.
          4    1    1    2  501    0  0.22846677568E+03 -0.49210654770E+02 -0.81334509662E+02  0.24745842377E+03  0.12700000000E+01 0. -1.
<mgrwt>
<rscale>  1 0.26503506E+03</rscale>
<asrwt>0</asrwt>
<pdfrwt beam="2">  1       21 0.34917421E-01 0.26503506E+03</pdfrwt>
<pdfrwt beam="1">  1        4 0.55958963E-01 0.26503506E+03</pdfrwt>
<totfact> 0.10213856E+03</totfact>
</mgrwt>
</event>
<event>
 6    4  0.6358868E-003  0.1269171E+03  0.7818608E-02  0.1232103E+00
          4   -1    0    0  502    0 -0.00000000000E+00  0.00000000000E+00  0.15471050848E+03  0.15471572103E+03  0.12700000000E+01 0. -1.
         21   -1    0    0  501  502  0.00000000000E+00 -0.00000000000E+00 -0.39386226125E+02  0.39386226125E+02  0.00000000000E+00 0. -1.
         25    2    1    2    0    0  0.15967756659E+02  0.15107370198E+02  0.73053612759E+02  0.14644038722E+03  0.12499901914E+03 0.  0.
    9000005    1    3    3    0    0  0.43119143045E+02 -0.37899656195E+02  0.64353189630E+02  0.86243709639E+02  0.10000000000E+01 0.  0.
    9000005    1    3    3    0    0 -0.27151386386E+02  0.53007026393E+02  0.87004231291E+01  0.60196677586E+02  0.10000000000E+01 0.  0.
          4    1    1    2  501    0 -0.15967756659E+02 -0.15107370198E+02  0.42270669595E+02  0.47661559931E+02  0.12700000000E+01 0.  1.
<mgrwt>
<rscale>  1 0.12691713E+03</rscale>
<asrwt>0</asrwt>
<pdfrwt beam="2">  1       21 0.60594195E-02 0.12691713E+03</pdfrwt>
<pdfrwt beam="1">  1        4 0.23803592E-01 0.12691713E+03</pdfrwt>
<totfact> 0.12645476E+05</totfact>
</mgrwt>
</event>
<event>
 6    4  0.6358868E-003  0.1283102E+03  0.7818608E-02  0.1229985E+00
          4   -1    0    0  502    0 -0.00000000000E+00  0.00000000000E+00  0.40583168583E+03  0.40583367298E+03  0.12700000000E+01 0. -1.
         21   -1    0    0  501  502  0.00000000000E+00 -0.00000000000E+00 -0.12925445867E+03  0.12925445867E+03  0.00000000000E+00 0.  1.
         25    2    1    2    0    0  0.18864693014E+02 -0.21958665589E+02  0.39388362694E+03  0.41425575201E+03  0.12500182745E+03 0.  0.
    9000005    1    3    3    0    0  0.26803790206E+02  0.48299699382E+02  0.13446708326E+03  0.14537434647E+03  0.10000000000E+01 0.  0.
    9000005    1    3    3    0    0 -0.79390971917E+01 -0.70258364971E+02  0.25941654368E+03  0.26888140554E+03  0.10000000000E+01 0.  0.
          4    1    1    2  501    0 -0.18864693014E+02  0.21958665589E+02 -0.11730639978E+03  0.12083237963E+03  0.12700000000E+01 0.  1.
<mgrwt>
<rscale>  1 0.12831024E+03</rscale>
<asrwt>0</asrwt>
<pdfrwt beam="2">  1       21 0.19885301E-01 0.12831024E+03</pdfrwt>
<pdfrwt beam="1">  1        4 0.62436277E-01 0.12831024E+03</pdfrwt>
<totfact> 0.23501720E+03</totfact>
</mgrwt>
</event>
<event>
 6    4  0.6358868E-003  0.1303760E+03  0.7818608E-02  0.1226899E+00
         -4   -1    0    0    0  501 -0.00000000000E+00  0.00000000000E+00  0.11386702352E+03  0.11387410569E+03  0.12700000000E+01 0. -1.
         21   -1    0    0  501  502  0.00000000000E+00 -0.00000000000E+00 -0.65288554862E+02  0.65288554862E+02  0.00000000000E+00 0.  1.
         25    2    1    2    0    0  0.24558599696E+02  0.27741860531E+02  0.55064365657E+02  0.14152736588E+03  0.12500070113E+03 0.  0.
    9000005    1    3    3    0    0 -0.35266549714E+02  0.31405783718E+02 -0.14773424532E+02  0.49490472336E+02  0.10000000000E+01 0.  0.
    9000005    1    3    3    0    0  0.59825149411E+02 -0.36639231870E+01  0.69837790190E+02  0.92036893547E+02  0.10000000000E+01 0.  0.
         -4    1    1    2    0  502 -0.24558599696E+02 -0.27741860531E+02 -0.64858969966E+01  0.37635294666E+02  0.12700000000E+01 0.  1.
<mgrwt>
<rscale>  1 0.13037604E+03</rscale>
<asrwt>0</asrwt>
<pdfrwt beam="2">  1       21 0.10044393E-01 0.13037604E+03</pdfrwt>
<pdfrwt beam="1">  1       -4 0.17519499E-01 0.13037604E+03</pdfrwt>
<totfact> 0.92359345E+04</totfact>
</mgrwt>
</event>
<event>
 6    4  0.6358868E-003  0.1306921E+03  0.7818608E-02  0.1226432E+00
         21   -1    0    0  501  502  0.00000000000E+00  0.00000000000E+00  0.77759351290E+02  0.77759351290E+02  0.00000000000E+00 0.  1.
          4   -1    0    0  502    0 -0.00000000000E+00 -0.00000000000E+00 -0.11463137245E+03  0.11463840740E+03  0.12700000000E+01 0. -1.
         25    2    1    2    0    0 -0.15266802864E+02 -0.34978814791E+02 -0.64034293007E+02  0.14553631755E+03  0.12499534507E+03 0.  0.
    9000005    1    3    3    0    0 -0.67102306506E+02 -0.40289883065E+02 -0.33578626161E+02  0.85173460366E+02  0.10000000000E+01 0.  0.
    9000005    1    3    3    0    0  0.51835503642E+02  0.53110682735E+01 -0.30455666846E+02  0.60362857181E+02  0.10000000000E+01 0.  0.
          4    1    1    2  501    0  0.15266802864E+02  0.34978814791E+02  0.27162271845E+02  0.46861441139E+02  0.12700000000E+01 0.  1.
<mgrwt>
<rscale>  1 0.13069212E+03</rscale>
<asrwt>0</asrwt>
<pdfrwt beam="1">  1       21 0.11962977E-01 0.13069212E+03</pdfrwt>
<pdfrwt beam="2">  1        4 0.17636935E-01 0.13069212E+03</pdfrwt>
<totfact> 0.67112709E+04</totfact>
</mgrwt>
</event>
<event>
 6    4  0.6358868E-003  0.1360076E+03  0.7818608E-02  0.1218804E+00
         21   -1    0    0  501  502  0.00000000000E+00  0.00000000000E+00  0.15135443610E+03  0.15135443610E+03  0.00000000000E+00 0. -1.
          4   -1    0    0  502    0 -0.00000000000E+00 -0.00000000000E+00 -0.12159589696E+03  0.12160252899E+03  0.12700000000E+01 0.  1.
         25    2    1    2    0    0  0.53267717570E+02  0.59410082717E+01 -0.74971136571E+02  0.15530211739E+03  0.12500132412E+03 0.  0.
    9000005    1    3    3    0    0  0.49548013640E+02 -0.16319838920E+02 -0.10528000489E+03  0.11749988182E+03  0.10000000000E+01 0.  0.
    9000005    1    3    3    0    0  0.37197039296E+01  0.22260847191E+02  0.30308868319E+02  0.37802235565E+02  0.10000000000E+01 0.  0.
          4    1    1    2  501    0 -0.53267717570E+02 -0.59410082717E+01  0.10472967571E+03  0.11765484771E+03  0.12700000000E+01 0. -1.
<mgrwt>
<rscale>  1 0.13600763E+03</rscale>
<asrwt>0</asrwt>
<pdfrwt beam="1">  1       21 0.23285298E-01 0.13600763E+03</pdfrwt>
<pdfrwt beam="2">  1        4 0.18707981E-01 0.13600763E+03</pdfrwt>
<totfact> 0.18036101E+04</totfact>
</mgrwt>
</event>
<event>
 6    4  0.6358868E-003  0.1266348E+03  0.7818608E-02  0.1232536E+00
         21   -1    0    0  501  502  0.00000000000E+00  0.00000000000E+00  0.24357584911E+02  0.24357584911E+02  0.00000000000E+00 0. -1.
         -4   -1    0    0    0  501 -0.00000000000E+00 -0.00000000000E+00 -0.41044746767E+03  0.41044943247E+03  0.12700000000E+01 0.  1.
         25    2    1    2    0    0  0.20087637092E+02 -0.28026455626E+01 -0.39334633321E+03  0.41322839464E+03  0.12500000122E+03 0.  0.
    9000005    1    3    3    0    0  0.62874514802E+00 -0.52203736182E+02 -0.31024187735E+03  0.31460554327E+03  0.10000000000E+01 0.  0.
    9000005    1    3    3    0    0  0.19458891944E+02  0.49401090620E+02 -0.83104455857E+02  0.98622851376E+02  0.10000000000E+01 0.  0.
         -4    1    1    2    0  502 -0.20087637092E+02  0.28026455626E+01  0.72564504516E+01  0.21578622738E+02  0.12700000000E+01 0. -1.
<mgrwt>
<rscale>  1 0.12663478E+03</rscale>
<asrwt>0</asrwt>
<pdfrwt beam="1">  1       21 0.37473211E-02 0.12663478E+03</pdfrwt>
<pdfrwt beam="2">  1       -4 0.63148457E-01 0.12663478E+03</pdfrwt>
<totfact> 0.41694757E+04</totfact>
</mgrwt>
</event>
<event>
 6    4  0.6358868E-003  0.1333474E+03  0.7818608E-02  0.1222572E+00
         21   -1    0    0  501  502  0.00000000000E+00  0.00000000000E+00  0.45844353170E+03  0.45844353170E+03  0.00000000000E+00 0.  1.
         -4   -1    0    0    0  501 -0.00000000000E+00 -0.00000000000E+00 -0.18352107962E+02  0.18395998659E+02  0.12700000000E+01 0.  1.
         25    2    1    2    0    0  0.27161326435E+02 -0.37667259496E+02  0.27978474022E+03  0.30993714640E+03  0.12499989506E+03 0.  0.
    9000005    1    3    3    0    0 -0.44295200787E+01 -0.69721095238E+02  0.85058906334E+02  0.11007574354E+03  0.10000000000E+01 0.  0.
    9000005    1    3    3    0    0  0.31590846514E+02  0.32053835742E+02  0.19472583389E+03  0.19986140286E+03  0.10000000000E+01 0.  0.
         -4    1    1    2    0  502 -0.27161326435E+02  0.37667259496E+02  0.16030668352E+03  0.16690238396E+03  0.12700000000E+01 0. -1.
<mgrwt>
<rscale>  1 0.13334742E+03</rscale>
<asrwt>0</asrwt>
<pdfrwt beam="1">  1       21 0.70529765E-01 0.13334742E+03</pdfrwt>
<pdfrwt beam="2">  1       -4 0.28269131E-02 0.13334742E+03</pdfrwt>
<totfact> 0.44075050E+04</totfact>
</mgrwt>
</event>
<event>
 6    4  0.6358868E-003  0.1277607E+03  0.7818608E-02  0.1230817E+00
         21   -1    0    0  501  502  0.00000000000E+00  0.00000000000E+00  0.93606196910E+01  0.93606196910E+01  0.00000000000E+00 0. -1.
          4   -1    0    0  502    0 -0.00000000000E+00 -0.00000000000E+00 -0.83065050702E+03  0.83065147788E+03  0.12700000000E+01 0. -1.
         25    2    1    2    0    0 -0.25012810494E+02 -0.86284920315E+01 -0.78358493381E+03  0.79393208040E+03  0.12499083255E+03 0.  0.
    9000005    1    3    3    0    0  0.31570299008E+02 -0.43634245394E+02 -0.48720351309E+03  0.49017231084E+03  0.10000000000E+01 0.  0.
    9000005    1    3    3    0    0 -0.56583109502E+02  0.35005753363E+02 -0.29638142072E+03  0.30375976955E+03  0.10000000000E+01 0.  0.
          4    1    1    2  501    0  0.25012810494E+02  0.86284920315E+01 -0.37704953515E+02  0.46080017177E+02  0.12700000000E+01 0.  1.
<mgrwt>
<rscale>  1 0.12776071E+03</rscale>
<asrwt>0</asrwt>
<pdfrwt beam="1">  1       21 0.14400955E-02 0.12776071E+03</pdfrwt>
<pdfrwt beam="2">  1        4 0.12779908E+00 0.12776071E+03</pdfrwt>
<totfact> 0.39980610E+04</totfact>
</mgrwt>
</event>
<event>
 6    4  0.6358868E-003  0.1267517E+03  0.7818608E-02  0.1232357E+00
          4   -1    0    0  502    0 -0.00000000000E+00  0.00000000000E+00  0.16719142046E+03  0.16719624391E+03  0.12700000000E+01 0.  1.
         21   -1    0    0  501  502  0.00000000000E+00 -0.00000000000E+00 -0.42655438546E+02  0.42655438546E+02  0.00000000000E+00 0.  1.
         25    2    1    2    0    0 -0.18176136647E+02 -0.10581153297E+02  0.13596382906E+03  0.18588209049E+03  0.12499462390E+03 0.  0.
    9000005    1    3    3    0    0  0.21850936656E+02 -0.35807819644E+02  0.13186610530E+03  0.13838111543E+03  0.10000000000E+01 0.  0.
    9000005    1    3    3    0    0 -0.40027073304E+02  0.25226666347E+02  0.40977237627E+01  0.47500975067E+02  0.10000000000E+01 0.  0.
          4    1    1    2  501    0  0.18176136647E+02  0.10581153297E+02 -0.11427847141E+02  0.23969591962E+02  0.12700000000E+01 0. -1.
<mgrwt>
<rscale>  1 0.12675168E+03</rscale>
<asrwt>0</asrwt>
<pdfrwt beam="2">  1       21 0.65623753E-02 0.12675168E+03</pdfrwt>
<pdfrwt beam="1">  1        4 0.25723582E-01 0.12675168E+03</pdfrwt>
<totfact> 0.95709629E+04</totfact>
</mgrwt>
</event>
<event>
 6    4  0.6358868E-003  0.1276553E+03  0.7818608E-02  0.1230977E+00
          4   -1    0    0  502    0 -0.00000000000E+00  0.00000000000E+00  0.71764224193E+03  0.71764336567E+03  0.12700000000E+01 0. -1.
         21   -1    0    0  501  502  0.00000000000E+00 -0.00000000000E+00 -0.96063933448E+01  0.96063933448E+01  0.00000000000E+00 0. -1.
         25    2    1    2    0    0  0.54749267808E+00  0.25898887664E+02  0.66386768941E+03  0.67602973057E+03  0.12499934173E+03 0.  0.
    9000005    1    3    3    0    0  0.67812483409E+01  0.27202638019E+02  0.66785873713E+03  0.66844765061E+03  0.10000000000E+01 0.  0.
    9000005    1    3    3    0    0 -0.62337556628E+01 -0.13037503549E+01 -0.39910477144E+01  0.75820799593E+01  0.10000000000E+01 0.  0.
          4    1    1    2  501    0 -0.54749267808E+00 -0.25898887664E+02  0.44168159169E+02  0.51220028454E+02  0.12700000000E+01 0.  1.
<mgrwt>
<rscale>  1 0.12765535E+03</rscale>
<asrwt>0</asrwt>
<pdfrwt beam="2">  1       21 0.14779072E-02 0.12765535E+03</pdfrwt>
<pdfrwt beam="1">  1        4 0.11041300E+00 0.12765535E+03</pdfrwt>
<totfact> 0.54429471E+04</totfact>
</mgrwt>
</event>
<event>
 6    4  0.6358868E-003  0.1435265E+03  0.7818608E-02  0.1208661E+00
         -4   -1    0    0    0  501 -0.00000000000E+00  0.00000000000E+00  0.70440104826E+03  0.70440219313E+03  0.12700000000E+01 0. -1.
         21   -1    0    0  501  502  0.00000000000E+00 -0.00000000000E+00 -0.16273094856E+02  0.16273094856E+02  0.00000000000E+00 0.  1.
         25    2    1    2    0    0 -0.69664342441E+02 -0.11021951764E+02  0.45302415294E+03  0.47521650546E+03  0.12500095953E+03 0.  0.
    9000005    1    3    3    0    0 -0.83396874770E+02 -0.14069870379E+02  0.45328811791E+03  0.46111182788E+03  0.10000000000E+01 0.  0.
    9000005    1    3    3    0    0  0.13732532329E+02  0.30479186150E+01 -0.26396496892E+00  0.14104677577E+02  0.10000000000E+01 0.  0.
         -4    1    1    2    0  502  0.69664342441E+02  0.11021951764E+02  0.23510380046E+03  0.24545878253E+03  0.12700000000E+01 0.  1.
<mgrwt>
<rscale>  1 0.14352646E+03</rscale>
<asrwt>0</asrwt>
<pdfrwt beam="2">  1       21 0.25035536E-02 0.14352646E+03</pdfrwt>
<pdfrwt beam="1">  1       -4 0.10837327E+00 0.14352646E+03</pdfrwt>
<totfact> 0.24646373E+04</totfact>
</mgrwt>
</event>
<event>
 6    4  0.6358868E-003  0.1276013E+03  0.7818608E-02  0.1231059E+00
          4   -1    0    0  502    0 -0.00000000000E+00  0.00000000000E+00  0.82050296345E+02  0.82060124484E+02  0.12700000000E+01 0.  1.
         21   -1    0    0  501  502  0.00000000000E+00 -0.00000000000E+00 -0.17796311266E+03  0.17796311266E+03  0.00000000000E+00 0. -1.
         25    2    1    2    0    0  0.25431960716E+02 -0.32517956110E+01  0.30363433184E+02  0.13116415563E+03  0.12499895539E+03 0.  0.
    9000005    1    3    3    0    0 -0.36816056244E+02 -0.26543882434E+02  0.44097310877E+02  0.63289592499E+02  0.10000000000E+01 0.  0.
    9000005    1    3    3    0    0  0.62248016961E+02  0.23292086823E+02 -0.13733877693E+02  0.67874563134E+02  0.10000000000E+01 0.  0.
          4    1    1    2  501    0 -0.25431960716E+02  0.32517956110E+01 -0.12627624950E+03  0.12885908151E+03  0.12700000000E+01 0. -1.
<mgrwt>
<rscale>  1 0.12760132E+03</rscale>
<asrwt>0</asrwt>
<pdfrwt beam="2">  1       21 0.27378941E-01 0.12760132E+03</pdfrwt>
<pdfrwt beam="1">  1        4 0.12624227E-01 0.12760132E+03</pdfrwt>
<totfact> 0.26250601E+04</totfact>
</mgrwt>
</event>
<event>
 6    4  0.6358868E-003  0.1289671E+03  0.7818608E-02  0.1228996E+00
         21   -1    0    0  501  502  0.00000000000E+00  0.00000000000E+00  0.45199405035E+02  0.45199405035E+02  0.00000000000E+00 0.  1.
          4   -1    0    0  502    0 -0.00000000000E+00 -0.00000000000E+00 -0.14310540295E+03  0.14311103819E+03  0.12700000000E+01 0.  1.
         25    2    1    2    0    0 -0.55778195357E+01 -0.31257118079E+02 -0.75680217113E+02  0.14953264374E+03  0.12499758709E+03 0.  0.
    9000005    1    3    3    0    0  0.13176710346E+02  0.28256836850E+02 -0.81098326822E+02  0.86890811584E+02  0.10000000000E+01 0.  0.
    9000005    1    3    3    0    0 -0.18754529882E+02 -0.59513954929E+02  0.54181097092E+01  0.62641832151E+02  0.10000000000E+01 0.  0.
          4    1    1    2  501    0  0.55778195357E+01  0.31257118079E+02 -0.22225780800E+02  0.38777799494E+02  0.12700000000E+01 0. -1.
<mgrwt>
<rscale>  1 0.12896711E+03</rscale>
<asrwt>0</asrwt>
<pdfrwt beam="1">  1       21 0.69537547E-02 0.12896711E+03</pdfrwt>
<pdfrwt beam="2">  1        4 0.22018022E-01 0.12896711E+03</pdfrwt>
<totfact> 0.11559737E+05</totfact>
</mgrwt>
</event>
<event>
 6    4  0.6358868E-003  0.1330190E+03  0.7818608E-02  0.1223044E+00
         21   -1    0    0  501  502  0.00000000000E+00  0.00000000000E+00  0.28005012550E+02  0.28005012550E+02  0.00000000000E+00 0.  1.
         -4   -1    0    0    0  501 -0.00000000000E+00 -0.00000000000E+00 -0.28445524324E+03  0.28445807829E+03  0.12700000000E+01 0.  1.
         25    2    1    2    0    0  0.18003711804E+02 -0.41753142669E+02 -0.19000273285E+03  0.23193768224E+03  0.12500636540E+03 0.  0.
    9000005    1    3    3    0    0 -0.21865696511E+02  0.22578925371E+02 -0.47312528235E+01  0.31800963949E+02  0.10000000000E+01 0.  0.
    9000005    1    3    3    0    0  0.39869408315E+02 -0.64332068040E+02 -0.18527148002E+03  0.20013671829E+03  0.10000000000E+01 0.  0.
         -4    1    1    2    0  502 -0.18003711804E+02  0.41753142669E+02 -0.66447497845E+02  0.80525408607E+02  0.12700000000E+01 0. -1.
<mgrwt>
<rscale>  1 0.13301898E+03</rscale>
<asrwt>0</asrwt>
<pdfrwt beam="1">  1       21 0.43084633E-02 0.13301898E+03</pdfrwt>
<pdfrwt beam="2">  1       -4 0.43764780E-01 0.13301898E+03</pdfrwt>
<totfact> 0.70653942E+04</totfact>
</mgrwt>
</event>
<event>
 6    4  0.6358868E-003  0.1284588E+03  0.7818608E-02  0.1229761E+00
         21   -1    0    0  501  502  0.00000000000E+00  0.00000000000E+00  0.55290432919E+03  0.55290432919E+03  0.00000000000E+00 0. -1.
         -4   -1    0    0    0  501 -0.00000000000E+00 -0.00000000000E+00 -0.11536378818E+02  0.11606073248E+02  0.12700000000E+01 0. -1.
         25    2    1    2    0    0 -0.12550264168E+02 -0.27095876444E+02  0.40411092907E+03  0.42403692292E+03  0.12493987897E+03 0.  0.
    9000005    1    3    3    0    0 -0.65653542211E-01  0.53919537374E+01  0.38357367089E+03  0.38361287580E+03  0.10000000000E+01 0.  0.
    9000005    1    3    3    0    0 -0.12484610626E+02 -0.32487830181E+02  0.20537258176E+02  0.40424047122E+02  0.10000000000E+01 0.  0.
         -4    1    1    2    0  502  0.12550264168E+02  0.27095876444E+02  0.13725702131E+03  0.14047347952E+03  0.12700000000E+01 0.  1.
<mgrwt>
<rscale>  1 0.12845882E+03</rscale>
<asrwt>0</asrwt>
<pdfrwt beam="1">  1       21 0.85062184E-01 0.12845882E+03</pdfrwt>
<pdfrwt beam="2">  1       -4 0.17803012E-02 0.12845882E+03</pdfrwt>
<totfact> 0.59193575E+04</totfact>
</mgrwt>
</event>
<event>
 6    4  0.6358868E-003  0.1312965E+03  0.7818608E-02  0.1225545E+00
         -4   -1    0    0    0  501 -0.00000000000E+00  0.00000000000E+00  0.38917816727E+03  0.38918023945E+03  0.12700000000E+01 0.  1.
         21   -1    0    0  501  502  0.00000000000E+00 -0.00000000000E+00 -0.18941531865E+02  0.18941531865E+02  0.00000000000E+00 0.  1.
         25    2    1    2    0    0 -0.25348089521E+02  0.31163952006E+02  0.29221882186E+03  0.32036010726E+03  0.12500016372E+03 0.  0.
    9000005    1    3    3    0    0 -0.42218060753E+02 -0.32411069065E+02  0.20077939503E+03  0.20771665200E+03  0.10000000000E+01 0.  0.
    9000005    1    3    3    0    0  0.16869971232E+02  0.63575021071E+02  0.91439426832E+02  0.11264345526E+03  0.10000000000E+01 0.  0.
         -4    1    1    2    0  502  0.25348089521E+02 -0.31163952006E+02  0.78017813551E+02  0.87761664058E+02  0.12700000000E+01 0. -1.
<mgrwt>
<rscale>  1 0.13129645E+03</rscale>
<asrwt>0</asrwt>
<pdfrwt beam="2">  1       21 0.29140821E-02 0.13129645E+03</pdfrwt>
<pdfrwt beam="1">  1       -4 0.59876993E-01 0.13129645E+03</pdfrwt>
<totfact> 0.70921200E+04</totfact>
</mgrwt>
</event>
<event>
 6    4  0.6358868E-003  0.1326110E+03  0.7818608E-02  0.1223632E+00
         21   -1    0    0  501  502  0.00000000000E+00  0.00000000000E+00  0.14013745461E+04  0.14013745461E+04  0.00000000000E+00 0.  1.
          4   -1    0    0  502    0 -0.00000000000E+00 -0.00000000000E+00 -0.70886211971E+01  0.72014894623E+01  0.12700000000E+01 0. -1.
         25    2    1    2    0    0  0.43638190992E+02  0.74792786119E+01  0.67354827334E+03  0.68647866914E+03  0.12500182133E+03 0.  0.
    9000005    1    3    3    0    0  0.37046407103E+02  0.55890599409E+02  0.54224981585E+03  0.54638087281E+03  0.10000000000E+01 0.  0.
    9000005    1    3    3    0    0  0.65917838891E+01 -0.48411320797E+02  0.13129845749E+03  0.14009779632E+03  0.10000000000E+01 0.  0.
          4    1    1    2  501    0 -0.43638190992E+02 -0.74792786119E+01  0.72073765158E+03  0.72209736645E+03  0.12700000000E+01 0.  1.
<mgrwt>
<rscale>  1 0.13261104E+03</rscale>
<asrwt>0</asrwt>
<pdfrwt beam="1">  1       21 0.21559586E+00 0.13261104E+03</pdfrwt>
<pdfrwt beam="2">  1        4 0.10992847E-02 0.13261104E+03</pdfrwt>
<totfact> 0.11468563E+04</totfact>
</mgrwt>
</event>
<event>
 6    4  0.6358868E-003  0.1277570E+03  0.7818608E-02  0.1230822E+00
         21   -1    0    0  501  502  0.00000000000E+00  0.00000000000E+00  0.10340979641E+03  0.10340979641E+03  0.00000000000E+00 0.  1.
         -4   -1    0    0    0  501 -0.00000000000E+00 -0.00000000000E+00 -0.89934576502E+02  0.89943543128E+02  0.12700000000E+01 0.  1.
         25    2    1    2    0    0 -0.16168524323E+02  0.20863803610E+02 -0.39859732675E+02  0.13383065859E+03  0.12500050964E+03 0.  0.
    9000005    1    3    3    0    0 -0.65450085010E+02  0.10781553407E+01 -0.46503588265E+02  0.80302302385E+02  0.10000000000E+01 0.  0.
    9000005    1    3    3    0    0  0.49281560687E+02  0.19785648270E+02  0.66438555901E+01  0.53528356207E+02  0.10000000000E+01 0.  0.
         -4    1    1    2    0  502  0.16168524323E+02 -0.20863803610E+02  0.53334952581E+02  0.59522680943E+02  0.12700000000E+01 0. -1.
<mgrwt>
<rscale>  1 0.12775698E+03</rscale>
<asrwt>0</asrwt>
<pdfrwt beam="1">  1       21 0.15909199E-01 0.12775698E+03</pdfrwt>
<pdfrwt beam="2">  1       -4 0.13837378E-01 0.12775698E+03</pdfrwt>
<totfact> 0.61419527E+04</totfact>
</mgrwt>
</event>
<event>
 6    4  0.6358868E-003  0.1338635E+03  0.7818608E-02  0.1221833E+00
         21   -1    0    0  501  502  0.00000000000E+00  0.00000000000E+00  0.14636725397E+02  0.14636725397E+02  0.00000000000E+00 0. -1.
         -4   -1    0    0    0  501 -0.00000000000E+00 -0.00000000000E+00 -0.62337586125E+03  0.62337715494E+03  0.12700000000E+01 0. -1.
         25    2    1    2    0    0  0.47895789895E+02  0.23378935164E+00 -0.52232326095E+03  0.53920407473E+03  0.12500153570E+03 0.  0.
    9000005    1    3    3    0    0  0.11729394045E+02  0.29089979268E+02 -0.46253184560E+03  0.46359520465E+03  0.10000000000E+01 0.  0.
    9000005    1    3    3    0    0  0.36166395850E+02 -0.28856189917E+02 -0.59791415349E+02  0.75608870080E+02  0.10000000000E+01 0.  0.
         -4    1    1    2    0  502 -0.47895789895E+02 -0.23378935164E+00 -0.86415874906E+02  0.98809805601E+02  0.12700000000E+01 0.  1.
<mgrwt>
<rscale>  1 0.13386353E+03</rscale>
<asrwt>0</asrwt>
<pdfrwt beam="1">  1       21 0.22518033E-02 0.13386353E+03</pdfrwt>
<pdfrwt beam="2">  1       -4 0.95908343E-01 0.13386353E+03</pdfrwt>
<totfact> 0.38594401E+04</totfact>
</mgrwt>
</event>
<event>
 6    4  0.6358868E-003  0.1366010E+03  0.7818608E-02  0.1217977E+00
         -4   -1    0    0    0  501 -0.00000000000E+00  0.00000000000E+00  0.14877973832E+03  0.14878515865E+03  0.12700000000E+01 0.  1.
         21   -1    0    0  501  502  0.00000000000E+00 -0.00000000000E+00 -0.63000678605E+02  0.63000678605E+02  0.00000000000E+00 0.  1.
         25    2    1    2    0    0  0.33016226996E+01  0.54992561189E+02  0.74287224395E+02  0.15549411781E+03  0.12499898586E+03 0.  0.
    9000005    1    3    3    0    0 -0.41732702166E+02  0.75832887755E+02  0.41398288491E+02  0.95953444885E+02  0.10000000000E+01 0.  0.
    9000005    1    3    3    0    0  0.45034324866E+02 -0.20840326566E+02  0.32888935904E+02  0.59540672925E+02  0.10000000000E+01 0.  0.
         -4    1    1    2    0  502 -0.33016226996E+01 -0.54992561189E+02  0.11491835316E+02  0.56291719440E+02  0.12700000000E+01 0. -1.
<mgrwt>
<rscale>  1 0.13660098E+03</rscale>
<asrwt>0</asrwt>
<pdfrwt beam="2">  1       21 0.96924121E-02 0.13660098E+03</pdfrwt>
<pdfrwt beam="1">  1       -4 0.22890592E-01 0.13660098E+03</pdfrwt>
<totfact> 0.61140153E+04</totfact>
</mgrwt>
</event>
<event>
 6    4  0.6358868E-003  0.1495143E+03  0.7818608E-02  0.1201071E+00
         21   -1    0    0  501  502  0.00000000000E+00  0.00000000000E+00  0.99758012472E+02  0.99758012472E+02  0.00000000000E+00 0. -1.
         -4   -1    0    0    0  501 -0.00000000000E+00 -0.00000000000E+00 -0.15829561781E+03  0.15830071231E+03  0.12700000000E+01 0.  1.
         25    2    1    2    0    0  0.65407189875E+02  0.49477405578E+02 -0.84857470101E+02  0.17191661933E+03  0.12501367773E+03 0.  0.
    9000005    1    3    3    0    0  0.77036545058E+02  0.39825943441E+02 -0.10322203805E+01  0.86734079371E+02  0.10000000000E+01 0.  0.
    9000005    1    3    3    0    0 -0.11629355183E+02  0.96514621377E+01 -0.83825249720E+02  0.85182539960E+02  0.10000000000E+01 0.  0.
         -4    1    1    2    0  502 -0.65407189875E+02 -0.49477405578E+02  0.26319864764E+02  0.86142105450E+02  0.12700000000E+01 0. -1.
<mgrwt>
<rscale>  1 0.14951433E+03</rscale>
<asrwt>0</asrwt>
<pdfrwt beam="1">  1       21 0.15347386E-01 0.14951433E+03</pdfrwt>
<pdfrwt beam="2">  1       -4 0.24354186E-01 0.14951433E+03</pdfrwt>
<totfact> 0.24331363E+04</totfact>
</mgrwt>
</event>
<event>
 6    4  0.6358868E-003  0.1338863E+03  0.7818608E-02  0.1221800E+00
         21   -1    0    0  501  502  0.00000000000E+00  0.00000000000E+00  0.84438335277E+03  0.84438335277E+03  0.00000000000E+00 0. -1.
         -4   -1    0    0    0  501 -0.00000000000E+00 -0.00000000000E+00 -0.10508243104E+02  0.10584709402E+02  0.12700000000E+01 0. -1.
         25    2    1    2    0    0  0.47664260338E+02  0.53948592068E+01  0.70154141988E+03  0.71420299345E+03  0.12499826330E+03 0.  0.
    9000005    1    3    3    0    0 -0.86217740166E+01  0.51085426687E+02  0.43140920166E+03  0.43451001724E+03  0.10000000000E+01 0.  0.
    9000005    1    3    3    0    0  0.56286034355E+02 -0.45690567480E+02  0.27013221822E+03  0.27969297621E+03  0.10000000000E+01 0.  0.
         -4    1    1    2    0  502 -0.47664260338E+02 -0.53948592068E+01  0.13233368978E+03  0.14076506872E+03  0.12700000000E+01 0.  1.
<mgrwt>
<rscale>  1 0.13388634E+03</rscale>
<asrwt>0</asrwt>
<pdfrwt beam="1">  1       21 0.12990508E+00 0.13388634E+03</pdfrwt>
<pdfrwt beam="2">  1       -4 0.16226089E-02 0.13388634E+03</pdfrwt>
<totfact> 0.25100912E+04</totfact>
</mgrwt>
</event>
<event>
 6    4  0.6358868E-003  0.1349139E+03  0.7818608E-02  0.1220341E+00
         21   -1    0    0  501  502  0.00000000000E+00  0.00000000000E+00  0.61457951233E+02  0.61457951233E+02  0.00000000000E+00 0.  1.
         -4   -1    0    0    0  501 -0.00000000000E+00 -0.00000000000E+00 -0.20493840285E+03  0.20494233790E+03  0.12700000000E+01 0.  1.
         25    2    1    2    0    0 -0.43773686790E+02 -0.25697405864E+02 -0.16336335273E+03  0.21187107696E+03  0.12500110365E+03 0.  0.
    9000005    1    3    3    0    0 -0.35316525183E+02 -0.14524075102E+02 -0.18343560527E+03  0.18737082747E+03  0.10000000000E+01 0.  0.
    9000005    1    3    3    0    0 -0.84571616068E+01 -0.11173330761E+02  0.20072252542E+02  0.24500249485E+02  0.10000000000E+01 0.  0.
         -4    1    1    2    0  502  0.43773686790E+02  0.25697405864E+02  0.19882901109E+02  0.54529212170E+02  0.12700000000E+01 0. -1.
<mgrwt>
<rscale>  1 0.13491393E+03</rscale>
<asrwt>0</asrwt>
<pdfrwt beam="1">  1       21 0.94550697E-02 0.13491393E+03</pdfrwt>
<pdfrwt beam="2">  1       -4 0.31530296E-01 0.13491393E+03</pdfrwt>
<totfact> 0.35102686E+04</totfact>
</mgrwt>
</event>
<event>
 6    4  0.6358868E-003  0.1341175E+03  0.7818608E-02  0.1221471E+00
         21   -1    0    0  501  502  0.00000000000E+00  0.00000000000E+00  0.50536135365E+02  0.50536135365E+02  0.00000000000E+00 0.  1.
         -4   -1    0    0    0  501 -0.00000000000E+00 -0.00000000000E+00 -0.18714760444E+03  0.18715191356E+03  0.12700000000E+01 0. -1.
         25    2    1    2    0    0  0.31617969417E+02 -0.36923526512E+02 -0.13307002165E+03  0.18893153603E+03  0.12499780735E+03 0.  0.
    9000005    1    3    3    0    0 -0.57986602717E+01  0.44115025461E+02 -0.37988902856E+02  0.58514243331E+02  0.10000000000E+01 0.  0.
    9000005    1    3    3    0    0  0.37416629688E+02 -0.81038551973E+02 -0.95081118792E+02  0.13041729269E+03  0.10000000000E+01 0.  0.
         -4    1    1    2    0  502 -0.31617969417E+02  0.36923526512E+02 -0.35414474303E+01  0.48756512898E+02  0.12700000000E+01 0.  1.
<mgrwt>
<rscale>  1 0.13411747E+03</rscale>
<asrwt>0</asrwt>
<pdfrwt beam="1">  1       21 0.77747900E-02 0.13411747E+03</pdfrwt>
<pdfrwt beam="2">  1       -4 0.28793498E-01 0.13411747E+03</pdfrwt>
<totfact> 0.58465687E+04</totfact>
</mgrwt>
</event>
<event>
 6    4  0.6358868E-003  0.1351452E+03  0.7818608E-02  0.1220015E+00
         -4   -1    0    0    0  501 -0.00000000000E+00  0.00000000000E+00  0.81976325282E+02  0.81986162288E+02  0.12700000000E+01 0. -1.
         21   -1    0    0  501  502  0.00000000000E+00 -0.00000000000E+00 -0.19195058973E+03  0.19195058973E+03  0.00000000000E+00 0.  1.
         25    2    1    2    0    0  0.29281110072E+02 -0.42211634609E+02  0.17708601099E+02  0.13630051930E+03  0.12500012602E+03 0.  0.
    9000005    1    3    3    0    0  0.19564513168E+02  0.44011931978E+02  0.28193904593E+01  0.48257323740E+02  0.10000000000E+01 0.  0.
    9000005    1    3    3    0    0  0.97165969031E+01 -0.86223566587E+02  0.14889210640E+02  0.88043195557E+02  0.10000000000E+01 0.  0.
         -4    1    1    2    0  502 -0.29281110072E+02  0.42211634609E+02 -0.12768286555E+03  0.13763623272E+03  0.12700000000E+01 0.  1.
<mgrwt>
<rscale>  1 0.13514524E+03</rscale>
<asrwt>0</asrwt>
<pdfrwt beam="2">  1       21 0.29530860E-01 0.13514524E+03</pdfrwt>
<pdfrwt beam="1">  1       -4 0.12612822E-01 0.13514524E+03</pdfrwt>
<totfact> 0.22871253E+04</totfact>
</mgrwt>
</event>
<event>
 6    4  0.6358868E-003  0.1284580E+03  0.7818608E-02  0.1229762E+00
         21   -1    0    0  501  502  0.00000000000E+00  0.00000000000E+00  0.24489726463E+01  0.24489726463E+01  0.00000000000E+00 0. -1.
         -4   -1    0    0    0  501 -0.00000000000E+00 -0.00000000000E+00 -0.31367950275E+04  0.31367952846E+04  0.12700000000E+01 0. -1.
         25    2    1    2    0    0  0.27685014207E+02  0.10480177872E+02 -0.29241438149E+04  0.29269640445E+04  0.12500069372E+03 0.  0.
    9000005    1    3    3    0    0 -0.32580796620E+02  0.47324945981E+02 -0.14198879393E+04  0.14210502873E+04  0.10000000000E+01 0.  0.
    9000005    1    3    3    0    0  0.60265810827E+02 -0.36844768109E+02 -0.15042558756E+04  0.15059137572E+04  0.10000000000E+01 0.  0.
         -4    1    1    2    0  502 -0.27685014207E+02 -0.10480177872E+02 -0.21020223998E+03  0.21228021277E+03  0.12700000000E+01 0.  1.
<mgrwt>
<rscale>  1 0.12845804E+03</rscale>
<asrwt>0</asrwt>
<pdfrwt beam="1">  1       21 0.37676486E-03 0.12845804E+03</pdfrwt>
<pdfrwt beam="2">  1       -4 0.48260941E+00 0.12845804E+03</pdfrwt>
<totfact> 0.16925834E+03</totfact>
</mgrwt>
</event>
<event>
 6    4  0.6358868E-003  0.1276861E+03  0.7818608E-02  0.1230930E+00
         -4   -1    0    0    0  501 -0.00000000000E+00  0.00000000000E+00  0.85251724516E+03  0.85251819112E+03  0.12700000000E+01 0.  1.
         21   -1    0    0  501  502  0.00000000000E+00 -0.00000000000E+00 -0.16039377059E+02  0.16039377059E+02  0.00000000000E+00 0. -1.
         25    2    1    2    0    0 -0.35486030640E+00 -0.26102420307E+02  0.83236325304E+03  0.84209995625E+03  0.12498915567E+03 0.  0.
    9000005    1    3    3    0    0 -0.12129311653E+02  0.98708397700E+01  0.94148873011E+01  0.18280967749E+02  0.10000000000E+01 0.  0.
    9000005    1    3    3    0    0  0.11774451347E+02 -0.35973260077E+02  0.82294836574E+03  0.82381898851E+03  0.10000000000E+01 0.  0.
         -4    1    1    2    0  502  0.35486030640E+00  0.26102420307E+02  0.41146150544E+01  0.26457611925E+02  0.12700000000E+01 0. -1.
<mgrwt>
<rscale>  1 0.12768614E+03</rscale>
<asrwt>0</asrwt>
<pdfrwt beam="2">  1       21 0.24675971E-02 0.12768614E+03</pdfrwt>
<pdfrwt beam="1">  1       -4 0.13116040E+00 0.12768614E+03</pdfrwt>
<totfact> 0.15767722E+04</totfact>
</mgrwt>
</event>
<event>
 6    4  0.6358868E-003  0.1345175E+03  0.7818608E-02  0.1220902E+00
         21   -1    0    0  501  502  0.00000000000E+00  0.00000000000E+00  0.11649335772E+03  0.11649335772E+03  0.00000000000E+00 0.  1.
         -4   -1    0    0    0  501 -0.00000000000E+00 -0.00000000000E+00 -0.72986487051E+02  0.72997535521E+02  0.12700000000E+01 0.  1.
         25    2    1    2    0    0  0.28410015070E+02  0.40860468970E+02  0.34882056288E+02  0.13896657035E+03  0.12497296885E+03 0.  0.
    9000005    1    3    3    0    0  0.21120990578E+02  0.53192732941E+02 -0.35353002246E+02  0.67278509559E+02  0.10000000000E+01 0.  0.
    9000005    1    3    3    0    0  0.72890244923E+01 -0.12332263971E+02  0.70235058534E+02  0.71688060791E+02  0.10000000000E+01 0.  0.
         -4    1    1    2    0  502 -0.28410015070E+02 -0.40860468970E+02  0.86248143848E+01  0.50524322894E+02  0.12700000000E+01 0. -1.
<mgrwt>
<rscale>  1 0.13451747E+03</rscale>
<asrwt>0</asrwt>
<pdfrwt beam="1">  1       21 0.17922055E-01 0.13451747E+03</pdfrwt>
<pdfrwt beam="2">  1       -4 0.11230073E-01 0.13451747E+03</pdfrwt>
<totfact> 0.71194282E+04</totfact>
</mgrwt>
</event>
<event>
 6    4  0.6358868E-003  0.1596276E+03  0.7818608E-02  0.1189118E+00
         21   -1    0    0  501  502  0.00000000000E+00  0.00000000000E+00  0.23954635865E+03  0.23954635865E+03  0.00000000000E+00 0. -1.
         -4   -1    0    0    0  501 -0.00000000000E+00 -0.00000000000E+00 -0.22719536423E+03  0.22719891379E+03  0.12700000000E+01 0.  1.
         25    2    1    2    0    0 -0.83600683874E+02 -0.53548173966E+02 -0.18589459084E+03  0.24502606656E+03  0.12499797243E+03 0.  0.
    9000005    1    3    3    0    0 -0.31823257421E+02  0.19324228117E+02 -0.13933888875E+03  0.14423061889E+03  0.10000000000E+01 0.  0.
    9000005    1    3    3    0    0 -0.51777426453E+02 -0.72872402083E+02 -0.46555702088E+02  0.10079544768E+03  0.10000000000E+01 0.  0.
         -4    1    1    2    0  502  0.83600683874E+02  0.53548173966E+02  0.19824558526E+03  0.22171920588E+03  0.12700000000E+01 0. -1.
<mgrwt>
<rscale>  1 0.15962761E+03</rscale>
<asrwt>0</asrwt>
<pdfrwt beam="1">  1       21 0.36853286E-01 0.15962761E+03</pdfrwt>
<pdfrwt beam="2">  1       -4 0.34953665E-01 0.15962761E+03</pdfrwt>
<totfact> 0.23531380E+03</totfact>
</mgrwt>
</event>
<event>
 6    4  0.6358868E-003  0.1267347E+03  0.7818608E-02  0.1232383E+00
         -4   -1    0    0    0  501 -0.00000000000E+00  0.00000000000E+00  0.60147692687E+01  0.61473855708E+01  0.12700000000E+01 0. -1.
         21   -1    0    0  501  502  0.00000000000E+00 -0.00000000000E+00 -0.11500266184E+04  0.11500266184E+04  0.00000000000E+00 0. -1.
         25    2    1    2    0    0 -0.20448822543E+02  0.43980607641E+01 -0.68126073076E+03  0.69294867248E+03  0.12499672849E+03 0.  0.
    9000005    1    3    3    0    0 -0.50772250544E+02  0.29507816894E+02 -0.16415891001E+03  0.17434930576E+03  0.10000000000E+01 0.  0.
    9000005    1    3    3    0    0  0.30323428001E+02 -0.25109756130E+02 -0.51710182075E+03  0.51859936672E+03  0.10000000000E+01 0.  0.
         -4    1    1    2    0  502  0.20448822543E+02 -0.43980607641E+01 -0.46275111837E+03  0.46322533149E+03  0.12700000000E+01 0.  1.
<mgrwt>
<rscale>  1 0.12673468E+03</rscale>
<asrwt>0</asrwt>
<pdfrwt beam="2">  1       21 0.17692720E+00 0.12673468E+03</pdfrwt>
<pdfrwt beam="1">  1       -4 0.93560415E-03 0.12673468E+03</pdfrwt>
<totfact> 0.25729632E+04</totfact>
</mgrwt>
</event>
<event>
 6    4  0.6358868E-003  0.1271704E+03  0.7818608E-02  0.1231716E+00
          4   -1    0    0  502    0 -0.00000000000E+00  0.00000000000E+00  0.25584603915E+04  0.25584607067E+04  0.12700000000E+01 0.  1.
         21   -1    0    0  501  502  0.00000000000E+00 -0.00000000000E+00 -0.23709922836E+01  0.23709922836E+01  0.00000000000E+00 0.  1.
         25    2    1    2    0    0 -0.11958220650E+02 -0.20098729574E+02  0.23452521624E+04  0.23486975167E+04  0.12500144682E+03 0.  0.
    9000005    1    3    3    0    0  0.12789684073E+02 -0.33080050304E+02  0.22231913828E+04  0.22234744861E+04  0.10000000000E+01 0.  0.
    9000005    1    3    3    0    0 -0.24747904723E+02  0.12981320731E+02  0.12206077956E+03  0.12522303056E+03  0.10000000000E+01 0.  0.
          4    1    1    2  501    0  0.11958220650E+02  0.20098729574E+02  0.21083723685E+03  0.21213418233E+03  0.12700000000E+01 0. -1.
<mgrwt>
<rscale>  1 0.12717044E+03</rscale>
<asrwt>0</asrwt>
<pdfrwt beam="2">  1       21 0.36477009E-03 0.12717044E+03</pdfrwt>
<pdfrwt beam="1">  1        4 0.39363327E+00 0.12717044E+03</pdfrwt>
<totfact> 0.74625066E+03</totfact>
</mgrwt>
</event>
<event>
 6    4  0.6358868E-003  0.1280724E+03  0.7818608E-02  0.1230344E+00
         21   -1    0    0  501  502  0.00000000000E+00  0.00000000000E+00  0.17975726539E+03  0.17975726539E+03  0.00000000000E+00 0.  1.
         -4   -1    0    0    0  501 -0.00000000000E+00 -0.00000000000E+00 -0.65172492689E+02  0.65184865600E+02  0.12700000000E+01 0. -1.
         25    2    1    2    0    0 -0.27331789096E+02  0.55955860041E+01  0.11058916204E+01  0.12807722339E+03  0.12499685947E+03 0.  0.
    9000005    1    3    3    0    0  0.11035811084E+02  0.25653703776E+02 -0.52313423131E+02  0.59309323748E+02  0.10000000000E+01 0.  0.
    9000005    1    3    3    0    0 -0.38367600180E+02 -0.20058117772E+02  0.53419314752E+02  0.68767899639E+02  0.10000000000E+01 0.  0.
         -4    1    1    2    0  502  0.27331789096E+02 -0.55955860041E+01  0.11347888108E+03  0.11686490761E+03  0.12700000000E+01 0.  1.
<mgrwt>
<rscale>  1 0.12807245E+03</rscale>
<asrwt>0</asrwt>
<pdfrwt beam="1">  1       21 0.27654964E-01 0.12807245E+03</pdfrwt>
<pdfrwt beam="2">  1       -4 0.10027834E-01 0.12807245E+03</pdfrwt>
<totfact> 0.38098039E+04</totfact>
</mgrwt>
</event>
<event>
 6    4  0.6358868E-003  0.1267587E+03  0.7818608E-02  0.1232346E+00
         21   -1    0    0  501  502  0.00000000000E+00  0.00000000000E+00  0.68802942066E+03  0.68802942066E+03  0.00000000000E+00 0. -1.
          4   -1    0    0  502    0 -0.00000000000E+00 -0.00000000000E+00 -0.94601376132E+01  0.95450041205E+01  0.12700000000E+01 0. -1.
         25    2    1    2    0    0  0.11025306258E+02  0.17908694192E+02  0.43491282420E+03  0.45300876582E+03  0.12500199418E+03 0.  0.
    9000005    1    3    3    0    0  0.24623164677E+02  0.14946254283E+02  0.14317378824E+02  0.32181952895E+02  0.10000000000E+01 0.  0.
    9000005    1    3    3    0    0 -0.13597858418E+02  0.29624399096E+01  0.42059544538E+03  0.42082681293E+03  0.10000000000E+01 0.  0.
          4    1    1    2  501    0 -0.11025306258E+02 -0.17908694192E+02  0.24365645884E+03  0.24456565896E+03  0.12700000000E+01 0.  1.
<mgrwt>
<rscale>  1 0.12675874E+03</rscale>
<asrwt>0</asrwt>
<pdfrwt beam="1">  1       21 0.10585064E+00 0.12675874E+03</pdfrwt>
<pdfrwt beam="2">  1        4 0.14620247E-02 0.12675874E+03</pdfrwt>
<totfact> 0.48145911E+04</totfact>
</mgrwt>
</event>
<event>
 6    4  0.6358868E-003  0.1328035E+03  0.7818608E-02  0.1223354E+00
          4   -1    0    0  502    0 -0.00000000000E+00  0.00000000000E+00  0.79946562327E+02  0.79956649054E+02  0.12700000000E+01 0.  1.
         21   -1    0    0  501  502  0.00000000000E+00 -0.00000000000E+00 -0.15605027430E+03  0.15605027430E+03  0.00000000000E+00 0. -1.
         25    2    1    2    0    0 -0.44514544421E+02 -0.54472763991E+01  0.15797083048E+02  0.13373969248E+03  0.12500216009E+03 0.  0.
    9000005    1    3    3    0    0  0.28212830254E+02 -0.17554467925E+02 -0.31777933532E+02  0.45988696379E+02  0.10000000000E+01 0.  0.
    9000005    1    3    3    0    0 -0.72727374675E+02  0.12107191526E+02  0.47575016581E+02  0.87750996099E+02  0.10000000000E+01 0.  0.
          4    1    1    2  501    0  0.44514544421E+02  0.54472763991E+01 -0.91900795019E+02  0.10226723087E+03  0.12700000000E+01 0. -1.
<mgrwt>
<rscale>  1 0.13280345E+03</rscale>
<asrwt>0</asrwt>
<pdfrwt beam="2">  1       21 0.24007734E-01 0.13280345E+03</pdfrwt>
<pdfrwt beam="1">  1        4 0.12300645E-01 0.13280345E+03</pdfrwt>
<totfact> 0.35359969E+04</totfact>
</mgrwt>
</event>
<event>
 6    4  0.6358868E-003  0.1289551E+03  0.7818608E-02  0.1229014E+00
         -4   -1    0    0    0  501 -0.00000000000E+00  0.00000000000E+00  0.47007321609E+03  0.47007493167E+03  0.12700000000E+01 0.  1.
         21   -1    0    0  501  502  0.00000000000E+00 -0.00000000000E+00 -0.44806895142E+02  0.44806895142E+02  0.00000000000E+00 0. -1.
         25    2    1    2    0    0 -0.31563590821E+02  0.29674292646E+01  0.45407179062E+03  0.47202819353E+03  0.12499743419E+03 0.  0.
    9000005    1    3    3    0    0 -0.53503201423E+01  0.60504265115E+02  0.28771888196E+03  0.29406214829E+03  0.10000000000E+01 0.  0.
    9000005    1    3    3    0    0 -0.26213270679E+02 -0.57536835850E+02  0.16635290866E+03  0.17796604524E+03  0.10000000000E+01 0.  0.
         -4    1    1    2    0  502  0.31563590821E+02 -0.29674292646E+01 -0.28805469673E+02  0.42853633277E+02  0.12700000000E+01 0. -1.
<mgrwt>
<rscale>  1 0.12895513E+03</rscale>
<asrwt>0</asrwt>
<pdfrwt beam="2">  1       21 0.68933688E-02 0.12895513E+03</pdfrwt>
<pdfrwt beam="1">  1       -4 0.72320469E-01 0.12895513E+03</pdfrwt>
<totfact> 0.11216620E+04</totfact>
</mgrwt>
</event>
<event>
 6    4  0.6358868E-003  0.1292831E+03  0.7818608E-02  0.1228523E+00
         -4   -1    0    0    0  501 -0.00000000000E+00  0.00000000000E+00  0.16623404185E+04  0.16623409036E+04  0.12700000000E+01 0.  1.
         21   -1    0    0  501  502  0.00000000000E+00 -0.00000000000E+00 -0.40836920406E+01  0.40836920406E+01  0.00000000000E+00 0.  1.
         25    2    1    2    0    0 -0.32588798584E+02  0.51086291815E+01  0.14234116208E+04  0.14292707122E+04  0.12500399467E+03 0.  0.
    9000005    1    3    3    0    0  0.21864854397E+02 -0.34678104013E+02  0.20885697546E+03  0.21284472968E+03  0.10000000000E+01 0.  0.
    9000005    1    3    3    0    0 -0.54453652981E+02  0.39786733195E+02  0.12145546453E+04  0.12164259825E+04  0.10000000000E+01 0.  0.
         -4    1    1    2    0  502  0.32588798584E+02 -0.51086291815E+01  0.23484510562E+03  0.23715388341E+03  0.12700000000E+01 0. -1.
<mgrwt>
<rscale>  1 0.12928313E+03</rscale>
<asrwt>0</asrwt>
<pdfrwt beam="2">  1       21 0.62826164E-03 0.12928313E+03</pdfrwt>
<pdfrwt beam="1">  1       -4 0.25575937E+00 0.12928313E+03</pdfrwt>
<totfact> 0.21457657E+04</totfact>
</mgrwt>
</event>
<event>
 6    4  0.6358868E-003  0.1271293E+03  0.7818608E-02  0.1231779E+00
          4   -1    0    0  502    0 -0.00000000000E+00  0.00000000000E+00  0.10910739980E+02  0.10984404714E+02  0.12700000000E+01 0.  1.
         21   -1    0    0  501  502  0.00000000000E+00 -0.00000000000E+00 -0.53620492354E+03  0.53620492354E+03  0.00000000000E+00 0. -1.
         25    2    1    2    0    0 -0.11086948708E+02 -0.20340308868E+02 -0.39840540329E+03  0.41819698718E+03  0.12500082449E+03 0.  0.
    9000005    1    3    3    0    0  0.17574701594E+02  0.73016982981E+01 -0.13030056458E+01  0.19101904561E+02  0.10000000000E+01 0.  0.
    9000005    1    3    3    0    0 -0.28661650302E+02 -0.27642007166E+02 -0.39710239765E+03  0.39909508262E+03  0.10000000000E+01 0.  0.
          4    1    1    2  501    0  0.11086948708E+02  0.20340308868E+02 -0.12688878027E+03  0.12899234107E+03  0.12700000000E+01 0. -1.
<mgrwt>
<rscale>  1 0.12712928E+03</rscale>
<asrwt>0</asrwt>
<pdfrwt beam="2">  1       21 0.82493065E-01 0.12712928E+03</pdfrwt>
<pdfrwt beam="1">  1        4 0.16843576E-02 0.12712928E+03</pdfrwt>
<totfact> 0.68964578E+04</totfact>
</mgrwt>
</event>
<event>
 6    4  0.6358868E-003  0.1271100E+03  0.7818608E-02  0.1231808E+00
         21   -1    0    0  501  502  0.00000000000E+00  0.00000000000E+00  0.76330017575E+02  0.76330017575E+02  0.00000000000E+00 0. -1.
         -4   -1    0    0    0  501 -0.00000000000E+00 -0.00000000000E+00 -0.91367310063E+02  0.91376136098E+02  0.12700000000E+01 0. -1.
         25    2    1    2    0    0  0.23000304669E+02 -0.17117517260E+01 -0.40424382281E+02  0.13338325553E+03  0.12500007226E+03 0.  0.
    9000005    1    3    3    0    0  0.65566264220E+02 -0.43921436622E+01 -0.57603643445E+02  0.87392251761E+02  0.10000000000E+01 0.  0.
    9000005    1    3    3    0    0 -0.42565959551E+02  0.26803919362E+01  0.17179261165E+02  0.45991003768E+02  0.10000000000E+01 0.  0.
         -4    1    1    2    0  502 -0.23000304669E+02  0.17117517260E+01  0.25387089793E+02  0.34322898144E+02  0.12700000000E+01 0.  1.
<mgrwt>
<rscale>  1 0.12711004E+03</rscale>
<asrwt>0</asrwt>
<pdfrwt beam="1">  1       21 0.11743080E-01 0.12711004E+03</pdfrwt>
<pdfrwt beam="2">  1       -4 0.14058001E-01 0.12711004E+03</pdfrwt>
<totfact> 0.10280838E+05</totfact>
</mgrwt>
</event>
<event>
 6    4  0.6358868E-003  0.1273581E+03  0.7818608E-02  0.1231429E+00
         21   -1    0    0  501  502  0.00000000000E+00  0.00000000000E+00  0.15776606600E+03  0.15776606600E+03  0.00000000000E+00 0. -1.
          4   -1    0    0  502    0 -0.00000000000E+00 -0.00000000000E+00 -0.40748905105E+02  0.40768691017E+02  0.12700000000E+01 0.  1.
         25    2    1    2    0    0 -0.37120727374E+01 -0.24089922555E+02  0.69431074232E+02  0.14505436438E+03  0.12500396275E+03 0.  0.
    9000005    1    3    3    0    0  0.12979610105E+02 -0.71042750373E+02  0.20197944601E+02  0.74996664094E+02  0.10000000000E+01 0.  0.
    9000005    1    3    3    0    0 -0.16691682842E+02  0.46952827818E+02  0.49233129631E+02  0.70057700287E+02  0.10000000000E+01 0.  0.
          4    1    1    2  501    0  0.37120727374E+01  0.24089922555E+02  0.47586086664E+02  0.53480392638E+02  0.12700000000E+01 0. -1.
<mgrwt>
<rscale>  1 0.12735814E+03</rscale>
<asrwt>0</asrwt>
<pdfrwt beam="1">  1       21 0.24271702E-01 0.12735814E+03</pdfrwt>
<pdfrwt beam="2">  1        4 0.62709776E-02 0.12735814E+03</pdfrwt>
<totfact> 0.10600378E+05</totfact>
</mgrwt>
</event>
<event>
 6    4  0.6358868E-003  0.1372842E+03  0.7818608E-02  0.1217031E+00
          4   -1    0    0  502    0 -0.00000000000E+00  0.00000000000E+00  0.16650646472E+04  0.16650651316E+04  0.12700000000E+01 0.  1.
         21   -1    0    0  501  502  0.00000000000E+00 -0.00000000000E+00 -0.57519040662E+01  0.57519040662E+01  0.00000000000E+00 0.  1.
         25    2    1    2    0    0 -0.41362036659E+02 -0.38865491262E+02  0.12674473308E+04  0.12748606506E+04  0.12500239109E+03 0.  0.
    9000005    1    3    3    0    0 -0.83641876094E+02 -0.44241809835E+02  0.88494872334E+03  0.88999356409E+03  0.10000000000E+01 0.  0.
    9000005    1    3    3    0    0  0.42279839435E+02  0.53763185729E+01  0.38249860743E+03  0.38486708655E+03  0.10000000000E+01 0.  0.
          4    1    1    2  501    0  0.41362036659E+02  0.38865491262E+02  0.39186541240E+03  0.39595638500E+03  0.12700000000E+01 0. -1.
<mgrwt>
<rscale>  1 0.13728417E+03</rscale>
<asrwt>0</asrwt>
<pdfrwt beam="2">  1       21 0.88490965E-03 0.13728417E+03</pdfrwt>
<pdfrwt beam="1">  1        4 0.25617423E+00 0.13728417E+03</pdfrwt>
<totfact> 0.12549473E+04</totfact>
</mgrwt>
</event>
<event>
 6    4  0.6358868E-003  0.1492319E+03  0.7818608E-02  0.1201420E+00
          4   -1    0    0  502    0 -0.00000000000E+00  0.00000000000E+00  0.45603537878E+03  0.45603714717E+03  0.12700000000E+01 0.  1.
         21   -1    0    0  501  502  0.00000000000E+00 -0.00000000000E+00 -0.13839688270E+03  0.13839688270E+03  0.00000000000E+00 0. -1.
         25    2    1    2    0    0  0.76569502383E+02 -0.28144229056E+02  0.43023712446E+03  0.45538349828E+03  0.12496063749E+03 0.  0.
    9000005    1    3    3    0    0  0.59772381395E+02  0.43792399330E+02  0.24483540535E+03  0.25580439310E+03  0.10000000000E+01 0.  0.
    9000005    1    3    3    0    0  0.16797120988E+02 -0.71936628386E+02  0.18540171911E+03  0.19957910518E+03  0.10000000000E+01 0.  0.
          4    1    1    2  501    0 -0.76569502383E+02  0.28144229056E+02 -0.11259862838E+03  0.13905053159E+03  0.12700000000E+01 0. -1.
<mgrwt>
<rscale>  1 0.14923186E+03</rscale>
<asrwt>0</asrwt>
<pdfrwt beam="2">  1       21 0.21291828E-01 0.14923186E+03</pdfrwt>
<pdfrwt beam="1">  1        4 0.70159873E-01 0.14923186E+03</pdfrwt>
<totfact> 0.16247077E+03</totfact>
</mgrwt>
</event>
<event>
 6    4  0.6358868E-003  0.1377692E+03  0.7818608E-02  0.1216363E+00
         -4   -1    0    0    0  501 -0.00000000000E+00  0.00000000000E+00  0.25279384771E+03  0.25279703784E+03  0.12700000000E+01 0.  1.
         21   -1    0    0  501  502  0.00000000000E+00 -0.00000000000E+00 -0.67490362944E+02  0.67490362944E+02  0.00000000000E+00 0. -1.
         25    2    1    2    0    0 -0.48561630432E+02  0.31569137294E+02  0.21487010634E+03  0.25524402763E+03  0.12500203464E+03 0.  0.
    9000005    1    3    3    0    0 -0.50386487905E+02 -0.36701407142E+02  0.14349559225E+03  0.15645375178E+03  0.10000000000E+01 0.  0.
    9000005    1    3    3    0    0  0.18248574731E+01  0.68270544436E+02  0.71374514087E+02  0.98790275855E+02  0.10000000000E+01 0.  0.
         -4    1    1    2    0  502  0.48561630432E+02 -0.31569137294E+02 -0.29566621572E+02  0.65043373151E+02  0.12700000000E+01 0. -1.
<mgrwt>
<rscale>  1 0.13776919E+03</rscale>
<asrwt>0</asrwt>
<pdfrwt beam="2">  1       21 0.10383133E-01 0.13776919E+03</pdfrwt>
<pdfrwt beam="1">  1       -4 0.38892525E-01 0.13776919E+03</pdfrwt>
<totfact> 0.19913917E+04</totfact>
</mgrwt>
</event>
<event>
 6    4  0.6358868E-003  0.1338469E+03  0.7818608E-02  0.1221857E+00
          4   -1    0    0  502    0 -0.00000000000E+00  0.00000000000E+00  0.20033777393E+03  0.20034179934E+03  0.12700000000E+01 0.  1.
         21   -1    0    0  501  502  0.00000000000E+00 -0.00000000000E+00 -0.21443630130E+03  0.21443630130E+03  0.00000000000E+00 0. -1.
         25    2    1    2    0    0 -0.17394690420E+02  0.44568284081E+02  0.17465930367E+03  0.22004741770E+03  0.12500434583E+03 0.  0.
    9000005    1    3    3    0    0  0.51725647909E+02  0.28297078916E+01  0.53790373224E+02  0.74685702447E+02  0.10000000000E+01 0.  0.
    9000005    1    3    3    0    0 -0.69120338329E+02  0.41738576189E+02  0.12086893045E+03  0.14536171525E+03  0.10000000000E+01 0.  0.
          4    1    1    2  501    0  0.17394690420E+02 -0.44568284081E+02 -0.18875783104E+03  0.19473068295E+03  0.12700000000E+01 0. -1.
<mgrwt>
<rscale>  1 0.13384690E+03</rscale>
<asrwt>0</asrwt>
<pdfrwt beam="2">  1       21 0.32990200E-01 0.13384690E+03</pdfrwt>
<pdfrwt beam="1">  1        4 0.30821795E-01 0.13384690E+03</pdfrwt>
<totfact> 0.36929819E+03</totfact>
</mgrwt>
</event>
<event>
 6    4  0.6358868E-003  0.1266540E+03  0.7818608E-02  0.1232507E+00
          4   -1    0    0  502    0 -0.00000000000E+00  0.00000000000E+00  0.53147099325E+03  0.53147251064E+03  0.12700000000E+01 0. -1.
         21   -1    0    0  501  502  0.00000000000E+00 -0.00000000000E+00 -0.10181098751E+02  0.10181098751E+02  0.00000000000E+00 0. -1.
         25    2    1    2    0    0  0.15111549355E+02  0.13725259596E+02  0.45155973713E+03  0.46898553235E+03  0.12499796669E+03 0.  0.
    9000005    1    3    3    0    0  0.16217897469E+02  0.23570012218E+02  0.45682561414E+03  0.45772175763E+03  0.10000000000E+01 0.  0.
    9000005    1    3    3    0    0 -0.11063481146E+01 -0.98447526217E+01 -0.52658770033E+01  0.11263774720E+02  0.10000000000E+01 0.  0.
          4    1    1    2  501    0 -0.15111549355E+02 -0.13725259596E+02  0.69730157368E+02  0.72668077045E+02  0.12700000000E+01 0.  1.
<mgrwt>
<rscale>  1 0.12665399E+03</rscale>
<asrwt>0</asrwt>
<pdfrwt beam="2">  1       21 0.15663233E-02 0.12665399E+03</pdfrwt>
<pdfrwt beam="1">  1        4 0.81770956E-01 0.12665399E+03</pdfrwt>
<totfact> 0.98388070E+04</totfact>
</mgrwt>
</event>
<event>
 6    4  0.6358868E-003  0.1338617E+03  0.7818608E-02  0.1221836E+00
          4   -1    0    0  502    0 -0.00000000000E+00  0.00000000000E+00  0.44916709787E+03  0.44916889330E+03  0.12700000000E+01 0.  1.
         21   -1    0    0  501  502  0.00000000000E+00 -0.00000000000E+00 -0.41783995587E+02  0.41783995587E+02  0.00000000000E+00 0. -1.
         25    2    1    2    0    0 -0.81192503408E+01 -0.47189783722E+02  0.42049730466E+03  0.44129009478E+03  0.12500466635E+03 0.  0.
    9000005    1    3    3    0    0  0.47466777401E+02 -0.55968298462E+02  0.29057131357E+03  0.29969690299E+03  0.10000000000E+01 0.  0.
    9000005    1    3    3    0    0 -0.55586027741E+02  0.87785147407E+01  0.12992599109E+03  0.14159319179E+03  0.10000000000E+01 0.  0.
          4    1    1    2  501    0  0.81192503408E+01  0.47189783722E+02 -0.13114202386E+02  0.49662794102E+02  0.12700000000E+01 0. -1.
<mgrwt>
<rscale>  1 0.13386174E+03</rscale>
<asrwt>0</asrwt>
<pdfrwt beam="2">  1       21 0.64283074E-02 0.13386174E+03</pdfrwt>
<pdfrwt beam="1">  1        4 0.69104249E-01 0.13386174E+03</pdfrwt>
<totfact> 0.13992914E+04</totfact>
</mgrwt>
</event>
<event>
 6    4  0.6358868E-003  0.1271963E+03  0.7818608E-02  0.1231676E+00
         21   -1    0    0  501  502  0.00000000000E+00  0.00000000000E+00  0.17947057456E+02  0.17947057456E+02  0.00000000000E+00 0.  1.
          4   -1    0    0  502    0 -0.00000000000E+00 -0.00000000000E+00 -0.32329696632E+03  0.32329946077E+03  0.12700000000E+01 0.  1.
         25    2    1    2    0    0  0.23545366786E+02 -0.80532447623E+00 -0.27329510973E+03  0.30144506232E+03  0.12499550291E+03 0.  0.
    9000005    1    3    3    0    0  0.71929679404E+02  0.35846283232E+01 -0.11349899280E+03  0.13442376912E+03  0.10000000000E+01 0.  0.
    9000005    1    3    3    0    0 -0.48384312618E+02 -0.43899527995E+01 -0.15979611694E+03  0.16702129320E+03  0.10000000000E+01 0.  0.
          4    1    1    2  501    0 -0.23545366786E+02  0.80532447623E+00 -0.32054799130E+02  0.39801455902E+02  0.12700000000E+01 0. -1.
<mgrwt>
<rscale>  1 0.12719634E+03</rscale>
<asrwt>0</asrwt>
<pdfrwt beam="1">  1       21 0.27610858E-02 0.12719634E+03</pdfrwt>
<pdfrwt beam="2">  1        4 0.49741643E-01 0.12719634E+03</pdfrwt>
<totfact> 0.11306578E+05</totfact>
</mgrwt>
</event>
<event>
 6    4  0.6358868E-003  0.1275416E+03  0.7818608E-02  0.1231150E+00
         -4   -1    0    0    0  501 -0.00000000000E+00  0.00000000000E+00  0.68201489009E+01  0.69373864698E+01  0.12700000000E+01 0. -1.
         21   -1    0    0  501  502  0.00000000000E+00 -0.00000000000E+00 -0.15234946597E+04  0.15234946597E+04  0.00000000000E+00 0. -1.
         25    2    1    2    0    0  0.23403636957E+02  0.97050464283E+01 -0.59997073611E+03  0.61337733593E+03  0.12499981557E+03 0.  0.
    9000005    1    3    3    0    0  0.38386217182E+02 -0.41686071702E+02 -0.46064465812E+03  0.46411822987E+03  0.10000000000E+01 0.  0.
    9000005    1    3    3    0    0 -0.14982580226E+02  0.51391118130E+02 -0.13932607799E+03  0.14925910606E+03  0.10000000000E+01 0.  0.
         -4    1    1    2    0  502 -0.23403636957E+02 -0.97050464283E+01 -0.91670377471E+03  0.91705471026E+03  0.12700000000E+01 0.  1.
<mgrwt>
<rscale>  1 0.12754165E+03</rscale>
<asrwt>0</asrwt>
<pdfrwt beam="2">  1       21 0.23438382E+00 0.12754165E+03</pdfrwt>
<pdfrwt beam="1">  1       -4 0.10583125E-02 0.12754165E+03</pdfrwt>
<totfact> 0.93846012E+03</totfact>
</mgrwt>
</event>
<event>
 6    4  0.6358868E-003  0.1299323E+03  0.7818608E-02  0.1227556E+00
         21   -1    0    0  501  502  0.00000000000E+00  0.00000000000E+00  0.30635942522E+03  0.30635942522E+03  0.00000000000E+00 0. -1.
         -4   -1    0    0    0  501 -0.00000000000E+00 -0.00000000000E+00 -0.11407095977E+03  0.11407802927E+03  0.12700000000E+01 0.  1.
         25    2    1    2    0    0  0.12396520701E+02  0.33165471997E+02 -0.75526890033E+02  0.15028879211E+03  0.12501514971E+03 0.  0.
    9000005    1    3    3    0    0  0.36572864658E+02  0.60862697052E+02 -0.55423920706E+01  0.71228929738E+02  0.10000000000E+01 0.  0.
    9000005    1    3    3    0    0 -0.24176343957E+02 -0.27697225055E+02 -0.69984497962E+02  0.79059862369E+02  0.10000000000E+01 0.  0.
         -4    1    1    2    0  502 -0.12396520701E+02 -0.33165471997E+02  0.26781535548E+03  0.27014866239E+03  0.12700000000E+01 0. -1.
<mgrwt>
<rscale>  1 0.12993233E+03</rscale>
<asrwt>0</asrwt>
<pdfrwt beam="1">  1       21 0.47132219E-01 0.12993233E+03</pdfrwt>
<pdfrwt beam="2">  1       -4 0.17550125E-01 0.12993233E+03</pdfrwt>
<totfact> 0.50692509E+03</totfact>
</mgrwt>
</event>
<event>
 6    4  0.6358868E-003  0.1811543E+03  0.7818608E-02  0.1166691E+00
         21   -1    0    0  501  502  0.00000000000E+00  0.00000000000E+00  0.79344252316E+03  0.79344252316E+03  0.00000000000E+00 0.  1.
          4   -1    0    0  502    0 -0.00000000000E+00 -0.00000000000E+00 -0.69004096913E+02  0.69015782911E+02  0.12700000000E+01 0. -1.
         25    2    1    2    0    0  0.12744416128E+03  0.30818440064E+02  0.68708269491E+02  0.19374652819E+03  0.12500040160E+03 0.  0.
    9000005    1    3    3    0    0  0.12180880674E+03  0.21763560755E+02  0.10099772768E+03  0.15972657566E+03  0.10000000000E+01 0.  0.
    9000005    1    3    3    0    0  0.56353545363E+01  0.90548793091E+01 -0.32289458190E+02  0.34019952532E+02  0.10000000000E+01 0.  0.
          4    1    1    2  501    0 -0.12744416128E+03 -0.30818440064E+02  0.65573015676E+03  0.66871177788E+03  0.12700000000E+01 0.  1.
<mgrwt>
<rscale>  1 0.18115433E+03</rscale>
<asrwt>0</asrwt>
<pdfrwt beam="1">  1       21 0.12206807E+00 0.18115433E+03</pdfrwt>
<pdfrwt beam="2">  1        4 0.10616993E-01 0.18115433E+03</pdfrwt>
<totfact> 0.14596803E+03</totfact>
</mgrwt>
</event>
<event>
 6    4  0.6358868E-003  0.1269632E+03  0.7818608E-02  0.1232033E+00
         21   -1    0    0  501  502  0.00000000000E+00  0.00000000000E+00  0.68024230228E+03  0.68024230228E+03  0.00000000000E+00 0. -1.
          4   -1    0    0  502    0 -0.00000000000E+00 -0.00000000000E+00 -0.96275932232E+01  0.97109964098E+01  0.12700000000E+01 0. -1.
         25    2    1    2    0    0 -0.11380201584E+02 -0.19139110494E+02  0.43123177274E+03  0.44953362887E+03  0.12499530840E+03 0.  0.
    9000005    1    3    3    0    0  0.29854214598E+02 -0.25352298391E+02  0.38608289460E+03  0.38806573498E+03  0.10000000000E+01 0.  0.
    9000005    1    3    3    0    0 -0.41234416182E+02  0.62131878974E+01  0.45148878149E+02  0.61467893894E+02  0.10000000000E+01 0.  0.
          4    1    1    2  501    0  0.11380201584E+02  0.19139110494E+02  0.23938293632E+03  0.24041966982E+03  0.12700000000E+01 0.  1.
<mgrwt>
<rscale>  1 0.12696315E+03</rscale>
<asrwt>0</asrwt>
<pdfrwt beam="1">  1       21 0.10465262E+00 0.12696315E+03</pdfrwt>
<pdfrwt beam="2">  1        4 0.14876755E-02 0.12696315E+03</pdfrwt>
<totfact> 0.48177529E+04</totfact>
</mgrwt>
</event>
<event>
 6    4  0.6358868E-003  0.1266194E+03  0.7818608E-02  0.1232560E+00
         -4   -1    0    0    0  501 -0.00000000000E+00  0.00000000000E+00  0.79229669956E+01  0.80241078017E+01  0.12700000000E+01 0.  1.
         21   -1    0    0  501  502  0.00000000000E+00 -0.00000000000E+00 -0.80924282888E+03  0.80924282888E+03  0.00000000000E+00 0.  1.
         25    2    1    2    0    0  0.53268688570E+01  0.19479204708E+02 -0.51897716221E+03  0.53420011081E+03  0.12499859419E+03 0.  0.
    9000005    1    3    3    0    0 -0.20148910064E+02 -0.49277751508E+02 -0.21168133198E+03  0.21827565526E+03  0.10000000000E+01 0.  0.
    9000005    1    3    3    0    0  0.25475778921E+02  0.68756956216E+02 -0.30729583023E+03  0.31592445555E+03  0.10000000000E+01 0.  0.
         -4    1    1    2    0  502 -0.53268688570E+01 -0.19479204708E+02 -0.28234269967E+03  0.28306682586E+03  0.12700000000E+01 0. -1.
<mgrwt>
<rscale>  1 0.12661936E+03</rscale>
<asrwt>0</asrwt>
<pdfrwt beam="2">  1       21 0.12449890E+00 0.12661936E+03</pdfrwt>
<pdfrwt beam="1">  1       -4 0.12267747E-02 0.12661936E+03</pdfrwt>
<totfact> 0.42477194E+04</totfact>
</mgrwt>
</event>
<event>
 6    4  0.6358868E-003  0.1284019E+03  0.7818608E-02  0.1229846E+00
         -4   -1    0    0    0  501 -0.00000000000E+00  0.00000000000E+00  0.14898479376E+02  0.14952511084E+02  0.12700000000E+01 0.  1.
         21   -1    0    0  501  502  0.00000000000E+00 -0.00000000000E+00 -0.44282321619E+03  0.44282321619E+03  0.00000000000E+00 0.  1.
         25    2    1    2    0    0 -0.22639664719E+02  0.18690657590E+02 -0.29655031568E+03  0.32315497654E+03  0.12500061613E+03 0.  0.
    9000005    1    3    3    0    0  0.27955806472E+02 -0.11219396177E+02 -0.23898946706E+03  0.24088247618E+03  0.10000000000E+01 0.  0.
    9000005    1    3    3    0    0 -0.50595471190E+02  0.29910053767E+02 -0.57560848621E+02  0.82272500358E+02  0.10000000000E+01 0.  0.
         -4    1    1    2    0  502  0.22639664719E+02 -0.18690657590E+02 -0.13137442113E+03  0.13462075073E+03  0.12700000000E+01 0. -1.
<mgrwt>
<rscale>  1 0.12840190E+03</rscale>
<asrwt>0</asrwt>
<pdfrwt beam="2">  1       21 0.68126637E-01 0.12840190E+03</pdfrwt>
<pdfrwt beam="1">  1       -4 0.22963705E-02 0.12840190E+03</pdfrwt>
<totfact> 0.65393446E+04</totfact>
</mgrwt>
</event>
<event>
 6    4  0.6358868E-003  0.1271777E+03  0.7818608E-02  0.1231705E+00
         21   -1    0    0  501  502  0.00000000000E+00  0.00000000000E+00  0.21485329317E+04  0.21485329317E+04  0.00000000000E+00 0.  1.
          4   -1    0    0  502    0 -0.00000000000E+00 -0.00000000000E+00 -0.51346896551E+01  0.52894175345E+01  0.12700000000E+01 0.  1.
         25    2    1    2    0    0  0.22903654499E+02  0.49408813494E+01  0.78608859254E+03  0.79630988622E+03  0.12500067949E+03 0.  0.
    9000005    1    3    3    0    0  0.71482608154E+02 -0.28756542908E+01  0.33565493877E+03  0.34319567389E+03  0.10000000000E+01 0.  0.
    9000005    1    3    3    0    0 -0.48578953656E+02  0.78165356402E+01  0.45043365376E+03  0.45311421232E+03  0.10000000000E+01 0.  0.
          4    1    1    2  501    0 -0.22903654499E+02 -0.49408813494E+01  0.13573096496E+04  0.13575124631E+04  0.12700000000E+01 0. -1.
<mgrwt>
<rscale>  1 0.12717767E+03</rscale>
<asrwt>0</asrwt>
<pdfrwt beam="1">  1       21 0.33054282E+00 0.12717767E+03</pdfrwt>
<pdfrwt beam="2">  1        4 0.80188499E-03 0.12717767E+03</pdfrwt>
<totfact> 0.40587978E+03</totfact>
</mgrwt>
</event>
<event>
 6    4  0.6358868E-003  0.1315184E+03  0.7818608E-02  0.1225220E+00
          4   -1    0    0  502    0 -0.00000000000E+00  0.00000000000E+00  0.57084195792E+02  0.57098321422E+02  0.12700000000E+01 0.  1.
         21   -1    0    0  501  502  0.00000000000E+00 -0.00000000000E+00 -0.14240048141E+03  0.14240048141E+03  0.00000000000E+00 0.  1.
         25    2    1    2    0    0  0.27778212746E+02  0.30026423886E+02 -0.37913516547E+02  0.13687412199E+03  0.12499550112E+03 0.  0.
    9000005    1    3    3    0    0  0.77744419099E+02  0.19808274919E+02 -0.18856460757E+02  0.82420437809E+02  0.10000000000E+01 0.  0.
    9000005    1    3    3    0    0 -0.49966206353E+02  0.10218148967E+02 -0.19057055790E+02  0.54453684182E+02  0.10000000000E+01 0.  0.
          4    1    1    2  501    0 -0.27778212746E+02 -0.30026423886E+02 -0.47402769069E+02  0.62624680839E+02  0.12700000000E+01 0. -1.
<mgrwt>
<rscale>  1 0.13151840E+03</rscale>
<asrwt>0</asrwt>
<pdfrwt beam="2">  1       21 0.21907766E-01 0.13151840E+03</pdfrwt>
<pdfrwt beam="1">  1        4 0.87837062E-02 0.13151840E+03</pdfrwt>
<totfact> 0.74066385E+04</totfact>
</mgrwt>
</event>
<event>
 6    4  0.6358868E-003  0.1413168E+03  0.7818608E-02  0.1211568E+00
         21   -1    0    0  501  502  0.00000000000E+00  0.00000000000E+00  0.10014043034E+03  0.10014043034E+03  0.00000000000E+00 0. -1.
          4   -1    0    0  502    0 -0.00000000000E+00 -0.00000000000E+00 -0.11709331429E+03  0.11710020133E+03  0.12700000000E+01 0.  1.
         25    2    1    2    0    0  0.11477709966E+02  0.64816304095E+02 -0.41008449520E+02  0.14714659314E+03  0.12505013330E+03 0.  0.
    9000005    1    3    3    0    0 -0.47193580259E+02  0.64589834197E+02 -0.37522222950E+02  0.88362876336E+02  0.10000000000E+01 0.  0.
    9000005    1    3    3    0    0  0.58671290225E+02  0.22646989768E+00 -0.34862265705E+01  0.58783716802E+02  0.10000000000E+01 0.  0.
          4    1    1    2  501    0 -0.11477709966E+02 -0.64816304095E+02  0.24055565575E+02  0.70094038532E+02  0.12700000000E+01 0. -1.
<mgrwt>
<rscale>  1 0.14131676E+03</rscale>
<asrwt>0</asrwt>
<pdfrwt beam="1">  1       21 0.15406220E-01 0.14131676E+03</pdfrwt>
<pdfrwt beam="2">  1        4 0.18015505E-01 0.14131676E+03</pdfrwt>
<totfact> 0.41468460E+04</totfact>
</mgrwt>
</event>
<event>
 6    4  0.6358868E-003  0.1293734E+03  0.7818608E-02  0.1228389E+00
         21   -1    0    0  501  502  0.00000000000E+00  0.00000000000E+00  0.46101580818E+02  0.46101580818E+02  0.00000000000E+00 0.  1.
          4   -1    0    0  502    0 -0.00000000000E+00 -0.00000000000E+00 -0.33561447133E+03  0.33561687423E+03  0.12700000000E+01 0. -1.
         25    2    1    2    0    0 -0.31314719438E+02 -0.11463035662E+02 -0.31447321764E+03  0.34004539816E+03  0.12500182143E+03 0.  0.
    9000005    1    3    3    0    0  0.25092744886E+02  0.34097895168E+02 -0.48605415114E+02  0.64465484402E+02  0.10000000000E+01 0.  0.
    9000005    1    3    3    0    0 -0.56407464324E+02 -0.45560930829E+02 -0.26586780252E+03  0.27557991376E+03  0.10000000000E+01 0.  0.
          4    1    1    2  501    0  0.31314719438E+02  0.11463035662E+02  0.24960327123E+02  0.41673056885E+02  0.12700000000E+01 0.  1.
<mgrwt>
<rscale>  1 0.12937337E+03</rscale>
<asrwt>0</asrwt>
<pdfrwt beam="1">  1       21 0.70925509E-02 0.12937337E+03</pdfrwt>
<pdfrwt beam="2">  1        4 0.51634526E-01 0.12937337E+03</pdfrwt>
<totfact> 0.21720315E+04</totfact>
</mgrwt>
</event>
<event>
 6    4  0.6358868E-003  0.1279134E+03  0.7818608E-02  0.1230585E+00
         21   -1    0    0  501  502  0.00000000000E+00  0.00000000000E+00  0.57172064128E+03  0.57172064128E+03  0.00000000000E+00 0.  1.
          4   -1    0    0  502    0 -0.00000000000E+00 -0.00000000000E+00 -0.11872264574E+02  0.11939998581E+02  0.12700000000E+01 0. -1.
         25    2    1    2    0    0 -0.25114236614E+02  0.10167259973E+02  0.36143776329E+03  0.38340459757E+03  0.12501092214E+03 0.  0.
    9000005    1    3    3    0    0  0.27157232524E+02  0.46191140939E+02  0.24488755436E+03  0.25068316868E+03  0.10000000000E+01 0.  0.
    9000005    1    3    3    0    0 -0.52271469139E+02 -0.36023880966E+02  0.11655020893E+03  0.13272142889E+03  0.10000000000E+01 0.  0.
          4    1    1    2  501    0  0.25114236614E+02 -0.10167259973E+02  0.19841061342E+03  0.20025604229E+03  0.12700000000E+01 0.  1.
<mgrwt>
<rscale>  1 0.12791336E+03</rscale>
<asrwt>0</asrwt>
<pdfrwt beam="1">  1       21 0.87957000E-01 0.12791336E+03</pdfrwt>
<pdfrwt beam="2">  1        4 0.18318215E-02 0.12791336E+03</pdfrwt>
<totfact> 0.52496638E+04</totfact>
</mgrwt>
</event>
<event>
 6    4  0.6358868E-003  0.1273472E+03  0.7818608E-02  0.1231446E+00
         -4   -1    0    0    0  501 -0.00000000000E+00  0.00000000000E+00  0.65817202750E+02  0.65829454486E+02  0.12700000000E+01 0. -1.
         21   -1    0    0  501  502  0.00000000000E+00 -0.00000000000E+00 -0.14795761153E+03  0.14795761153E+03  0.00000000000E+00 0.  1.
         25    2    1    2    0    0  0.13866818264E+02 -0.19966410749E+02  0.79848088210E+00  0.12734969837E+03  0.12500544747E+03 0.  0.
    9000005    1    3    3    0    0 -0.46281709859E+02 -0.29066027828E+02  0.27167307249E+02  0.61040095218E+02  0.10000000000E+01 0.  0.
    9000005    1    3    3    0    0  0.60148528123E+02  0.90996170792E+01 -0.26368826366E+02  0.66309603153E+02  0.10000000000E+01 0.  0.
         -4    1    1    2    0  502 -0.13866818264E+02  0.19966410749E+02 -0.82938889662E+02  0.86437367645E+02  0.12700000000E+01 0.  1.
<mgrwt>
<rscale>  1 0.12734720E+03</rscale>
<asrwt>0</asrwt>
<pdfrwt beam="2">  1       21 0.22762709E-01 0.12734720E+03</pdfrwt>
<pdfrwt beam="1">  1       -4 0.10127085E-01 0.12734720E+03</pdfrwt>
<totfact> 0.54103580E+04</totfact>
</mgrwt>
</event>
<event>
 6    4  0.6358868E-003  0.1294078E+03  0.7818608E-02  0.1228337E+00
         21   -1    0    0  501  502  0.00000000000E+00  0.00000000000E+00  0.29883831338E+02  0.29883831338E+02  0.00000000000E+00 0.  1.
          4   -1    0    0  502    0 -0.00000000000E+00 -0.00000000000E+00 -0.26847893550E+03  0.26848193925E+03  0.12700000000E+01 0. -1.
         25    2    1    2    0    0 -0.33471859992E+02  0.66393455765E+00 -0.22979400326E+03  0.26372650822E+03  0.12500232392E+03 0.  0.
    9000005    1    3    3    0    0  0.46315253989E+02 -0.76417627164E+01 -0.10942628782E+03  0.11907397598E+03  0.10000000000E+01 0.  0.
    9000005    1    3    3    0    0 -0.79787113981E+02  0.83056972741E+01 -0.12036771544E+03  0.14465253225E+03  0.10000000000E+01 0.  0.
          4    1    1    2  501    0  0.33471859992E+02 -0.66393455765E+00 -0.88011008997E+01  0.34639262369E+02  0.12700000000E+01 0.  1.
<mgrwt>
<rscale>  1 0.12940783E+03</rscale>
<asrwt>0</asrwt>
<pdfrwt beam="1">  1       21 0.45975126E-02 0.12940783E+03</pdfrwt>
<pdfrwt beam="2">  1        4 0.41306758E-01 0.12940783E+03</pdfrwt>
<totfact> 0.70822711E+04</totfact>
</mgrwt>
</event>
<event>
 6    4  0.6358868E-003  0.1281657E+03  0.7818608E-02  0.1230203E+00
         21   -1    0    0  501  502  0.00000000000E+00  0.00000000000E+00  0.61475004915E+03  0.61475004915E+03  0.00000000000E+00 0. -1.
         -4   -1    0    0    0  501 -0.00000000000E+00 -0.00000000000E+00 -0.10256891879E+02  0.10335217996E+02  0.12700000000E+01 0. -1.
         25    2    1    2    0    0  0.27902700093E+02  0.48165375829E+01  0.44482479516E+03  0.46292066414E+03  0.12499873279E+03 0.  0.
    9000005    1    3    3    0    0  0.36689320868E+02  0.60956877021E+02  0.23506350369E+03  0.24559661620E+03  0.10000000000E+01 0.  0.
    9000005    1    3    3    0    0 -0.87866207754E+01 -0.56140339438E+02  0.20976129146E+03  0.21732404794E+03  0.10000000000E+01 0.  0.
         -4    1    1    2    0  502 -0.27902700093E+02 -0.48165375829E+01  0.15966836211E+03  0.16216460300E+03  0.12700000000E+01 0.  1.
<mgrwt>
<rscale>  1 0.12816569E+03</rscale>
<asrwt>0</asrwt>
<pdfrwt beam="1">  1       21 0.94576902E-01 0.12816569E+03</pdfrwt>
<pdfrwt beam="2">  1       -4 0.15841098E-02 0.12816569E+03</pdfrwt>
<totfact> 0.55525423E+04</totfact>
</mgrwt>
</event>
<event>
 6    4  0.6358868E-003  0.1273676E+03  0.7818608E-02  0.1231415E+00
          4   -1    0    0  502    0 -0.00000000000E+00  0.00000000000E+00  0.66516694312E+02  0.66528817231E+02  0.12700000000E+01 0. -1.
         21   -1    0    0  501  502  0.00000000000E+00 -0.00000000000E+00 -0.91599836304E+02  0.91599836304E+02  0.00000000000E+00 0. -1.
         25    2    1    2    0    0 -0.13591147239E+02 -0.20317382146E+02 -0.67486996887E+01  0.12754630609E+03  0.12499999980E+03 0.  0.
    9000005    1    3    3    0    0 -0.32268103331E+02 -0.11106897792E+02 -0.60735629282E+02  0.69673598554E+02  0.10000000000E+01 0.  0.
    9000005    1    3    3    0    0  0.18676956092E+02 -0.92104843541E+01  0.53986929593E+02  0.57872707538E+02  0.10000000000E+01 0.  0.
          4    1    1    2  501    0  0.13591147239E+02  0.20317382146E+02 -0.18334442304E+02  0.30582347443E+02  0.12700000000E+01 0.  1.
<mgrwt>
<rscale>  1 0.12736764E+03</rscale>
<asrwt>0</asrwt>
<pdfrwt beam="2">  1       21 0.14092283E-01 0.12736764E+03</pdfrwt>
<pdfrwt beam="1">  1        4 0.10234947E-01 0.12736764E+03</pdfrwt>
<totfact> 0.12783332E+05</totfact>
</mgrwt>
</event>
<event>
 6    4  0.6358868E-003  0.1300374E+03  0.7818608E-02  0.1227400E+00
         -4   -1    0    0    0  501 -0.00000000000E+00  0.00000000000E+00  0.10325365208E+04  0.10325373018E+04  0.12700000000E+01 0. -1.
         21   -1    0    0  501  502  0.00000000000E+00 -0.00000000000E+00 -0.83450895417E+01  0.83450895417E+01  0.00000000000E+00 0. -1.
         25    2    1    2    0    0 -0.12186639378E+02  0.33702639121E+02  0.94555806779E+03  0.95445785311E+03  0.12500140700E+03 0.  0.
    9000005    1    3    3    0    0  0.38917275872E+02 -0.22486288195E+02  0.53848551708E+03  0.54035899144E+03  0.10000000000E+01 0.  0.
    9000005    1    3    3    0    0 -0.51103915250E+02  0.56188927316E+02  0.40707255070E+03  0.41409886168E+03  0.10000000000E+01 0.  0.
         -4    1    1    2    0  502  0.12186639378E+02 -0.33702639121E+02  0.78633363449E+02  0.86424538242E+02  0.12700000000E+01 0.  1.
<mgrwt>
<rscale>  1 0.13003743E+03</rscale>
<asrwt>0</asrwt>
<pdfrwt beam="2">  1       21 0.12838607E-02 0.13003743E+03</pdfrwt>
<pdfrwt beam="1">  1       -4 0.15885917E+00 0.13003743E+03</pdfrwt>
<totfact> 0.27874519E+04</totfact>
</mgrwt>
</event>
<event>
 6    4  0.6358868E-003  0.1266731E+03  0.7818608E-02  0.1232477E+00
          4   -1    0    0  502    0 -0.00000000000E+00  0.00000000000E+00  0.35667405199E+02  0.35690008317E+02  0.12700000000E+01 0. -1.
         21   -1    0    0  501  502  0.00000000000E+00 -0.00000000000E+00 -0.24335845422E+03  0.24335845422E+03  0.00000000000E+00 0.  1.
         25    2    1    2    0    0 -0.20519969305E+02  0.73068179022E+00 -0.80241459572E+02  0.14994922247E+03  0.12499789777E+03 0.  0.
    9000005    1    3    3    0    0 -0.59308464276E+02 -0.37798797692E+02 -0.57001463848E+02  0.90534026325E+02  0.10000000000E+01 0.  0.
    9000005    1    3    3    0    0  0.38788494970E+02  0.38529479483E+02 -0.23239995723E+02  0.59415196141E+02  0.10000000000E+01 0.  0.
          4    1    1    2  501    0  0.20519969305E+02 -0.73068179022E+00 -0.12744958945E+03  0.12909924007E+03  0.12700000000E+01 0.  1.
<mgrwt>
<rscale>  1 0.12667311E+03</rscale>
<asrwt>0</asrwt>
<pdfrwt beam="2">  1       21 0.37439763E-01 0.12667311E+03</pdfrwt>
<pdfrwt beam="1">  1        4 0.54892866E-02 0.12667311E+03</pdfrwt>
<totfact> 0.56946791E+04</totfact>
</mgrwt>
</event>
<event>
 6    4  0.6358868E-003  0.1267254E+03  0.7818608E-02  0.1232397E+00
         -4   -1    0    0    0  501 -0.00000000000E+00  0.00000000000E+00  0.68198788579E+01  0.69371209905E+01  0.12700000000E+01 0.  1.
         21   -1    0    0  501  502  0.00000000000E+00 -0.00000000000E+00 -0.86198123130E+03  0.86198123130E+03  0.00000000000E+00 0.  1.
         25    2    1    2    0    0 -0.16531641861E+02  0.12719235134E+02 -0.61928022383E+03  0.63211338220E+03  0.12499703277E+03 0.  0.
    9000005    1    3    3    0    0 -0.14264399220E+02  0.11161518629E+01 -0.17273502173E+01  0.14446543492E+02  0.10000000000E+01 0.  0.
    9000005    1    3    3    0    0 -0.22672426408E+01  0.11603083271E+02 -0.61755287362E+03  0.61766683871E+03  0.10000000000E+01 0.  0.
         -4    1    1    2    0  502  0.16531641861E+02 -0.12719235134E+02 -0.23588112861E+03  0.23680497009E+03  0.12700000000E+01 0.  1.
<mgrwt>
<rscale>  1 0.12672542E+03</rscale>
<asrwt>0</asrwt>
<pdfrwt beam="2">  1       21 0.13261240E+00 0.12672542E+03</pdfrwt>
<pdfrwt beam="1">  1       -4 0.10583035E-02 0.12672542E+03</pdfrwt>
<totfact> 0.45399424E+04</totfact>
</mgrwt>
</event>
<event>
 6    4  0.6358868E-003  0.1530990E+03  0.7818608E-02  0.1196716E+00
         21   -1    0    0  501  502  0.00000000000E+00  0.00000000000E+00  0.63889565344E+03  0.63889565344E+03  0.00000000000E+00 0.  1.
         -4   -1    0    0    0  501 -0.00000000000E+00 -0.00000000000E+00 -0.23495872891E+02  0.23530170907E+02  0.12700000000E+01 0. -1.
         25    2    1    2    0    0 -0.28440714517E+02  0.83704472736E+02  0.33297641419E+03  0.36648683779E+03  0.12499598741E+03 0.  0.
    9000005    1    3    3    0    0  0.72225436268E+01  0.15324410040E+02 -0.66393707425E+01  0.18223169960E+02  0.10000000000E+01 0.  0.
    9000005    1    3    3    0    0 -0.35663258143E+02  0.68380062696E+02  0.33961578493E+03  0.34826366783E+03  0.10000000000E+01 0.  0.
         -4    1    1    2    0  502  0.28440714517E+02 -0.83704472736E+02  0.28242336635E+03  0.29593898655E+03  0.12700000000E+01 0.  1.
<mgrwt>
<rscale>  1 0.15309902E+03</rscale>
<asrwt>0</asrwt>
<pdfrwt beam="1">  1       21 0.98291626E-01 0.15309902E+03</pdfrwt>
<pdfrwt beam="2">  1       -4 0.36174856E-02 0.15309902E+03</pdfrwt>
<totfact> 0.14283434E+04</totfact>
</mgrwt>
</event>
<event>
 6    4  0.6358868E-003  0.1269887E+03  0.7818608E-02  0.1231994E+00
          4   -1    0    0  502    0 -0.00000000000E+00  0.00000000000E+00  0.26286165070E+02  0.26316826824E+02  0.12700000000E+01 0.  1.
         21   -1    0    0  501  502  0.00000000000E+00 -0.00000000000E+00 -0.21425485928E+03  0.21425485928E+03  0.00000000000E+00 0.  1.
         25    2    1    2    0    0 -0.12018616762E+02 -0.18895556792E+02 -0.16758109072E+03  0.21026068989E+03  0.12499858612E+03 0.  0.
    9000005    1    3    3    0    0 -0.32193882521E+02 -0.26574792733E+02 -0.18037611910E+03  0.18514645560E+03  0.10000000000E+01 0.  0.
    9000005    1    3    3    0    0  0.20175265759E+02  0.76792359407E+01  0.12795028374E+02  0.25114234294E+02  0.10000000000E+01 0.  0.
          4    1    1    2  501    0  0.12018616762E+02  0.18895556792E+02 -0.20387603488E+02  0.30310996212E+02  0.12700000000E+01 0. -1.
<mgrwt>
<rscale>  1 0.12698872E+03</rscale>
<asrwt>0</asrwt>
<pdfrwt beam="2">  1       21 0.32962286E-01 0.12698872E+03</pdfrwt>
<pdfrwt beam="1">  1        4 0.40466736E-02 0.12698872E+03</pdfrwt>
<totfact> 0.11917157E+05</totfact>
</mgrwt>
</event>
<event>
 6    4  0.6358868E-003  0.1314305E+03  0.7818608E-02  0.1225348E+00
         -4   -1    0    0    0  501 -0.00000000000E+00  0.00000000000E+00  0.10925767188E+02  0.10999331282E+02  0.12700000000E+01 0. -1.
         21   -1    0    0  501  502  0.00000000000E+00 -0.00000000000E+00 -0.80270962723E+03  0.80270962723E+03  0.00000000000E+00 0.  1.
         25    2    1    2    0    0  0.40579181722E+02  0.15117053747E+01 -0.42964031059E+03  0.44929364798E+03  0.12500012155E+03 0.  0.
    9000005    1    3    3    0    0  0.71540463937E+02  0.35600743000E+02 -0.32973787495E+03  0.33928382964E+03  0.10000000000E+01 0.  0.
    9000005    1    3    3    0    0 -0.30961282216E+02 -0.34089037625E+02 -0.99902435643E+02  0.11000981833E+03  0.10000000000E+01 0.  0.
         -4    1    1    2    0  502 -0.40579181722E+02 -0.15117053747E+01 -0.36214354945E+03  0.36441531053E+03  0.12700000000E+01 0.  1.
<mgrwt>
<rscale>  1 0.13143054E+03</rscale>
<asrwt>0</asrwt>
<pdfrwt beam="2">  1       21 0.12349378E+00 0.13143054E+03</pdfrwt>
<pdfrwt beam="1">  1       -4 0.16866235E-02 0.13143054E+03</pdfrwt>
<totfact> 0.26781354E+04</totfact>
</mgrwt>
</event>
<event>
 6    4  0.6358868E-003  0.1325940E+03  0.7818608E-02  0.1223657E+00
         21   -1    0    0  501  502  0.00000000000E+00  0.00000000000E+00  0.23568934215E+03  0.23568934215E+03  0.00000000000E+00 0. -1.
          4   -1    0    0  502    0 -0.00000000000E+00 -0.00000000000E+00 -0.34704263246E+02  0.34727493250E+02  0.12700000000E+01 0.  1.
         25    2    1    2    0    0 -0.41679484067E+02  0.14811962370E+02  0.17334618505E+03  0.21824313537E+03  0.12499837056E+03 0.  0.
    9000005    1    3    3    0    0 -0.46870056734E+02 -0.42353241896E+02  0.44773119121E+02  0.77435337625E+02  0.10000000000E+01 0.  0.
    9000005    1    3    3    0    0  0.51905726674E+01  0.57165204266E+02  0.12857306593E+03  0.14080779775E+03  0.10000000000E+01 0.  0.
          4    1    1    2  501    0  0.41679484067E+02 -0.14811962370E+02  0.27638893854E+02  0.52173700030E+02  0.12700000000E+01 0. -1.
<mgrwt>
<rscale>  1 0.13259399E+03</rscale>
<asrwt>0</asrwt>
<pdfrwt beam="1">  1       21 0.36259898E-01 0.13259399E+03</pdfrwt>
<pdfrwt beam="2">  1        4 0.53411677E-02 0.13259399E+03</pdfrwt>
<totfact> 0.63752036E+04</totfact>
</mgrwt>
</event>
<event>
 6    4  0.6358868E-003  0.1290583E+03  0.7818608E-02  0.1228860E+00
         21   -1    0    0  501  502  0.00000000000E+00  0.00000000000E+00  0.12965461947E+03  0.12965461947E+03  0.00000000000E+00 0.  1.
         -4   -1    0    0    0  501 -0.00000000000E+00 -0.00000000000E+00 -0.51524339563E+02  0.51539989012E+02  0.12700000000E+01 0.  1.
         25    2    1    2    0    0 -0.28740824469E+02 -0.14320447917E+02  0.74069696446E+02  0.14880307475E+03  0.12499969961E+03 0.  0.
    9000005    1    3    3    0    0 -0.39230316109E+02  0.32765014436E+02  0.85130549476E+02  0.99301431647E+02  0.10000000000E+01 0.  0.
    9000005    1    3    3    0    0  0.10489491639E+02 -0.47085462353E+02 -0.11060853029E+02  0.49501643100E+02  0.10000000000E+01 0.  0.
         -4    1    1    2    0  502  0.28740824469E+02  0.14320447917E+02  0.40605834607E+01  0.32391533736E+02  0.12700000000E+01 0. -1.
<mgrwt>
<rscale>  1 0.12905826E+03</rscale>
<asrwt>0</asrwt>
<pdfrwt beam="1">  1       21 0.19946864E-01 0.12905826E+03</pdfrwt>
<pdfrwt beam="2">  1       -4 0.79285038E-02 0.12905826E+03</pdfrwt>
<totfact> 0.10423548E+05</totfact>
</mgrwt>
</event>
<event>
 6    4  0.6358868E-003  0.1272294E+03  0.7818608E-02  0.1231626E+00
         21   -1    0    0  501  502  0.00000000000E+00  0.00000000000E+00  0.47557940901E+03  0.47557940901E+03  0.00000000000E+00 0. -1.
          4   -1    0    0  502    0 -0.00000000000E+00 -0.00000000000E+00 -0.19573766967E+02  0.19614924249E+02  0.12700000000E+01 0. -1.
         25    2    1    2    0    0  0.23666852535E+02 -0.15252798230E+01  0.19327640394E+03  0.23139381802E+03  0.12499953724E+03 0.  0.
    9000005    1    3    3    0    0  0.36273363197E+02 -0.37315364754E+02  0.22942934804E+02  0.56882084893E+02  0.10000000000E+01 0.  0.
    9000005    1    3    3    0    0 -0.12606510661E+02  0.35790084931E+02  0.17033346913E+03  0.17451173312E+03  0.10000000000E+01 0.  0.
          4    1    1    2  501    0 -0.23666852535E+02  0.15252798230E+01  0.26272923811E+03  0.26380051525E+03  0.12700000000E+01 0.  1.
<mgrwt>
<rscale>  1 0.12722944E+03</rscale>
<asrwt>0</asrwt>
<pdfrwt beam="1">  1       21 0.73166054E-01 0.12722944E+03</pdfrwt>
<pdfrwt beam="2">  1        4 0.30146455E-02 0.12722944E+03</pdfrwt>
<totfact> 0.36609579E+04</totfact>
</mgrwt>
</event>
<event>
 6    4  0.6358868E-003  0.1283468E+03  0.7818608E-02  0.1229930E+00
          4   -1    0    0  502    0 -0.00000000000E+00  0.00000000000E+00  0.64430070544E+02  0.64442586000E+02  0.12700000000E+01 0. -1.
         21   -1    0    0  501  502  0.00000000000E+00 -0.00000000000E+00 -0.28162741331E+03  0.28162741331E+03  0.00000000000E+00 0.  1.
         25    2    1    2    0    0  0.26215504679E+02  0.12281676842E+02 -0.14190215944E+01  0.12835461387E+03  0.12503919788E+03 0.  0.
    9000005    1    3    3    0    0  0.54093876382E+02 -0.38316116079E+02 -0.17138061459E+02  0.68476166394E+02  0.10000000000E+01 0.  0.
    9000005    1    3    3    0    0 -0.27878371703E+02  0.50597792922E+02  0.15719039864E+02  0.59878447472E+02  0.10000000000E+01 0.  0.
          4    1    1    2  501    0 -0.26215504679E+02 -0.12281676842E+02 -0.21577832117E+03  0.21771538544E+03  0.12700000000E+01 0.  1.
<mgrwt>
<rscale>  1 0.12834677E+03</rscale>
<asrwt>0</asrwt>
<pdfrwt beam="2">  1       21 0.43327294E-01 0.12834677E+03</pdfrwt>
<pdfrwt beam="1">  1        4 0.99135015E-02 0.12834677E+03</pdfrwt>
<totfact> 0.16092233E+04</totfact>
</mgrwt>
</event>
<event>
 6    4  0.6358868E-003  0.1294118E+03  0.7818608E-02  0.1228331E+00
         21   -1    0    0  501  502  0.00000000000E+00  0.00000000000E+00  0.36049984969E+02  0.36049984969E+02  0.00000000000E+00 0.  1.
         -4   -1    0    0    0  501 -0.00000000000E+00 -0.00000000000E+00 -0.21352324887E+03  0.21352702571E+03  0.12700000000E+01 0.  1.
         25    2    1    2    0    0  0.39507019954E+01 -0.33270485986E+02 -0.17255324579E+03  0.21568965667E+03  0.12499948830E+03 0.  0.
    9000005    1    3    3    0    0  0.14608514688E+02 -0.63931590879E+02 -0.34973839337E+02  0.74329176315E+02  0.10000000000E+01 0.  0.
    9000005    1    3    3    0    0 -0.10657812693E+02  0.30661104893E+02 -0.13757940645E+03  0.14136048035E+03  0.10000000000E+01 0.  0.
         -4    1    1    2    0  502 -0.39507019954E+01  0.33270485986E+02 -0.49200181155E+01  0.33887354017E+02  0.12700000000E+01 0. -1.
<mgrwt>
<rscale>  1 0.12941177E+03</rscale>
<asrwt>0</asrwt>
<pdfrwt beam="1">  1       21 0.55461515E-02 0.12941177E+03</pdfrwt>
<pdfrwt beam="2">  1       -4 0.32851742E-01 0.12941177E+03</pdfrwt>
<totfact> 0.80624664E+04</totfact>
</mgrwt>
</event>
<event>
 6    4  0.6358868E-003  0.1316663E+03  0.7818608E-02  0.1225004E+00
          4   -1    0    0  502    0 -0.00000000000E+00  0.00000000000E+00  0.79334992524E+02  0.79345156996E+02  0.12700000000E+01 0.  1.
         21   -1    0    0  501  502  0.00000000000E+00 -0.00000000000E+00 -0.14655803913E+03  0.14655803913E+03  0.00000000000E+00 0. -1.
         25    2    1    2    0    0  0.40295219991E+02 -0.93371271255E+01  0.16318734281E+02  0.13267375469E+03  0.12500054959E+03 0.  0.
    9000005    1    3    3    0    0 -0.29468236682E+02 -0.44587317656E+02  0.49857767983E+01  0.53686719393E+02  0.10000000000E+01 0.  0.
    9000005    1    3    3    0    0  0.69763456673E+02  0.35250190531E+02  0.11332957482E+02  0.78987035295E+02  0.10000000000E+01 0.  0.
          4    1    1    2  501    0 -0.40295219991E+02  0.93371271255E+01 -0.83541780889E+02  0.93229441440E+02  0.12700000000E+01 0. -1.
<mgrwt>
<rscale>  1 0.13166634E+03</rscale>
<asrwt>0</asrwt>
<pdfrwt beam="2">  1       21 0.22547391E-01 0.13166634E+03</pdfrwt>
<pdfrwt beam="1">  1        4 0.12206589E-01 0.13166634E+03</pdfrwt>
<totfact> 0.40268509E+04</totfact>
</mgrwt>
</event>
<event>
 6    4  0.6358868E-003  0.1276523E+03  0.7818608E-02  0.1230982E+00
         21   -1    0    0  501  502  0.00000000000E+00  0.00000000000E+00  0.25090299621E+04  0.25090299621E+04  0.00000000000E+00 0. -1.
          4   -1    0    0  502    0 -0.00000000000E+00 -0.00000000000E+00 -0.25744540285E+01  0.28706643038E+01  0.12700000000E+01 0. -1.
         25    2    1    2    0    0 -0.18238557734E+02  0.18322101098E+02  0.16030860592E+04  0.16081604434E+04  0.12500701596E+03 0.  0.
    9000005    1    3    3    0    0  0.37462416775E+02 -0.22792987032E+02  0.10257398712E+04  0.10266772796E+04  0.10000000000E+01 0.  0.
    9000005    1    3    3    0    0 -0.55700974508E+02  0.41115088130E+02  0.57734618796E+03  0.58148316380E+03  0.10000000000E+01 0.  0.
          4    1    1    2  501    0  0.18238557734E+02 -0.18322101098E+02  0.90336944884E+03  0.90374018301E+03  0.12700000000E+01 0.  1.
<mgrwt>
<rscale>  1 0.12765226E+03</rscale>
<asrwt>0</asrwt>
<pdfrwt beam="1">  1       21 0.38600276E+00 0.12765226E+03</pdfrwt>
<pdfrwt beam="2">  1        4 0.41888199E-03 0.12765226E+03</pdfrwt>
<totfact> 0.50512530E+03</totfact>
</mgrwt>
</event>
<event>
 6    4  0.6358868E-003  0.1294303E+03  0.7818608E-02  0.1228304E+00
         -4   -1    0    0    0  501 -0.00000000000E+00  0.00000000000E+00  0.25540566271E+02  0.25572122037E+02  0.12700000000E+01 0. -1.
         21   -1    0    0  501  502  0.00000000000E+00 -0.00000000000E+00 -0.26310481994E+03  0.26310481994E+03  0.00000000000E+00 0. -1.
         25    2    1    2    0    0 -0.23596409520E+02 -0.23852817404E+02 -0.17487939921E+03  0.21756610371E+03  0.12500583097E+03 0.  0.
    9000005    1    3    3    0    0 -0.60237530094E+02  0.25945157795E+02 -0.70892557353E+02  0.96583983832E+02  0.10000000000E+01 0.  0.
    9000005    1    3    3    0    0  0.36641120574E+02 -0.49797975199E+02 -0.10398684186E+03  0.12098211988E+03  0.10000000000E+01 0.  0.
         -4    1    1    2    0  502  0.23596409520E+02  0.23852817404E+02 -0.62684854450E+02  0.71110838258E+02  0.12700000000E+01 0.  1.
<mgrwt>
<rscale>  1 0.12943031E+03</rscale>
<asrwt>0</asrwt>
<pdfrwt beam="2">  1       21 0.40477666E-01 0.12943031E+03</pdfrwt>
<pdfrwt beam="1">  1       -4 0.39319809E-02 0.12943031E+03</pdfrwt>
<totfact> 0.83347457E+04</totfact>
</mgrwt>
</event>
<event>
 6    4  0.6358868E-003  0.1268873E+03  0.7818608E-02  0.1232149E+00
         21   -1    0    0  501  502  0.00000000000E+00  0.00000000000E+00  0.18387659452E+02  0.18387659452E+02  0.00000000000E+00 0.  1.
          4   -1    0    0  502    0 -0.00000000000E+00 -0.00000000000E+00 -0.47088978574E+03  0.47089149834E+03  0.12700000000E+01 0.  1.
         25    2    1    2    0    0 -0.69947143968E+01 -0.20656396949E+02 -0.44969547509E+03  0.46725410489E+03  0.12499906182E+03 0.  0.
    9000005    1    3    3    0    0 -0.81604183723E+01 -0.28287333596E+02 -0.45617565012E+03  0.45712579169E+03  0.10000000000E+01 0.  0.
    9000005    1    3    3    0    0  0.11657039754E+01  0.76309366477E+01  0.64801750268E+01  0.10128313199E+02  0.10000000000E+01 0.  0.
          4    1    1    2  501    0  0.69947143968E+01  0.20656396949E+02 -0.28066511925E+01  0.22025052902E+02  0.12700000000E+01 0. -1.
<mgrwt>
<rscale>  1 0.12688727E+03</rscale>
<asrwt>0</asrwt>
<pdfrwt beam="1">  1       21 0.28288712E-02 0.12688727E+03</pdfrwt>
<pdfrwt beam="2">  1        4 0.72448076E-01 0.12688727E+03</pdfrwt>
<totfact> 0.49355284E+04</totfact>
</mgrwt>
</event>
<event>
 6    4  0.6358868E-003  0.1280366E+03  0.7818608E-02  0.1230398E+00
          4   -1    0    0  502    0 -0.00000000000E+00  0.00000000000E+00  0.35087231290E+03  0.35087461131E+03  0.12700000000E+01 0.  1.
         21   -1    0    0  501  502  0.00000000000E+00 -0.00000000000E+00 -0.17289507013E+02  0.17289507013E+02  0.00000000000E+00 0.  1.
         25    2    1    2    0    0 -0.19994434705E+02  0.19185325983E+02  0.27318387038E+03  0.30169985377E+03  0.12500208228E+03 0.  0.
    9000005    1    3    3    0    0 -0.45136956634E+02  0.14154506849E+02  0.27192277281E+03  0.27600849497E+03  0.10000000000E+01 0.  0.
    9000005    1    3    3    0    0  0.25142521930E+02  0.50308191339E+01  0.12610975698E+01  0.25691358804E+02  0.10000000000E+01 0.  0.
          4    1    1    2  501    0  0.19994434705E+02 -0.19185325983E+02  0.60398935509E+02  0.66464264555E+02  0.12700000000E+01 0. -1.
<mgrwt>
<rscale>  1 0.12803661E+03</rscale>
<asrwt>0</asrwt>
<pdfrwt beam="2">  1       21 0.26599244E-02 0.12803661E+03</pdfrwt>
<pdfrwt beam="1">  1        4 0.53984115E-01 0.12803661E+03</pdfrwt>
<totfact> 0.10174044E+05</totfact>
</mgrwt>
</event>
<event>
 6    4  0.6358868E-003  0.1275396E+03  0.7818608E-02  0.1231153E+00
         21   -1    0    0  501  502  0.00000000000E+00  0.00000000000E+00  0.37474587084E+02  0.37474587084E+02  0.00000000000E+00 0.  1.
          4   -1    0    0  502    0 -0.00000000000E+00 -0.00000000000E+00 -0.29823535743E+03  0.29823806149E+03  0.12700000000E+01 0. -1.
         25    2    1    2    0    0 -0.25087267896E+02 -0.35219586070E+01 -0.27744268711E+03  0.30535355687E+03  0.12499829942E+03 0.  0.
    9000005    1    3    3    0    0 -0.22155475731E+02  0.59425648684E+02 -0.11927201168E+03  0.13508917646E+03  0.10000000000E+01 0.  0.
    9000005    1    3    3    0    0 -0.29317921645E+01 -0.62947607291E+02 -0.15817067543E+03  0.17026438041E+03  0.10000000000E+01 0.  0.
          4    1    1    2  501    0  0.25087267896E+02  0.35219586070E+01  0.16681916759E+02  0.30359091713E+02  0.12700000000E+01 0.  1.
<mgrwt>
<rscale>  1 0.12753960E+03</rscale>
<asrwt>0</asrwt>
<pdfrwt beam="1">  1       21 0.57653210E-02 0.12753960E+03</pdfrwt>
<pdfrwt beam="2">  1        4 0.45884227E-01 0.12753960E+03</pdfrwt>
<totfact> 0.39185407E+04</totfact>
</mgrwt>
</event>
<event>
 6    4  0.6358868E-003  0.1316713E+03  0.7818608E-02  0.1224997E+00
         21   -1    0    0  501  502  0.00000000000E+00  0.00000000000E+00  0.21035166585E+03  0.21035166585E+03  0.00000000000E+00 0.  1.
         -4   -1    0    0    0  501 -0.00000000000E+00 -0.00000000000E+00 -0.46091485431E+02  0.46108978835E+02  0.12700000000E+01 0. -1.
         25    2    1    2    0    0 -0.13536299805E+02 -0.39192315173E+02  0.60873266568E+02  0.14506165081E+03  0.12497223280E+03 0.  0.
    9000005    1    3    3    0    0 -0.30376304183E+02 -0.20690092193E+02 -0.32080292162E+02  0.48794927154E+02  0.10000000000E+01 0.  0.
    9000005    1    3    3    0    0  0.16840004378E+02 -0.18502222980E+02  0.92953558730E+02  0.96266723655E+02  0.10000000000E+01 0.  0.
         -4    1    1    2    0  502  0.13536299805E+02  0.39192315173E+02  0.10338691385E+03  0.11139899388E+03  0.12700000000E+01 0.  1.
<mgrwt>
<rscale>  1 0.13167129E+03</rscale>
<asrwt>0</asrwt>
<pdfrwt beam="1">  1       21 0.32361794E-01 0.13167129E+03</pdfrwt>
<pdfrwt beam="2">  1       -4 0.70926384E-02 0.13167129E+03</pdfrwt>
<totfact> 0.50183996E+04</totfact>
</mgrwt>
</event>
<event>
 6    4  0.6358868E-003  0.1320409E+03  0.7818608E-02  0.1224458E+00
         21   -1    0    0  501  502  0.00000000000E+00  0.00000000000E+00  0.30064380628E+03  0.30064380628E+03  0.00000000000E+00 0. -1.
         -4   -1    0    0    0  501 -0.00000000000E+00 -0.00000000000E+00 -0.10403178806E+03  0.10403953972E+03  0.12700000000E+01 0.  1.
         25    2    1    2    0    0  0.36582384279E+02 -0.21707500475E+02 -0.59665961301E+02  0.14489592886E+03  0.12500126738E+03 0.  0.
    9000005    1    3    3    0    0  0.42074139941E+02 -0.10255708104E+02  0.31045729973E+02  0.53293997317E+02  0.10000000000E+01 0.  0.
    9000005    1    3    3    0    0 -0.54917556618E+01 -0.11451792371E+02 -0.90711691274E+02  0.91601931543E+02  0.10000000000E+01 0.  0.
         -4    1    1    2    0  502 -0.36582384279E+02  0.21707500475E+02  0.25627797953E+03  0.25978741715E+03  0.12700000000E+01 0. -1.
<mgrwt>
<rscale>  1 0.13204092E+03</rscale>
<asrwt>0</asrwt>
<pdfrwt beam="1">  1       21 0.46252893E-01 0.13204092E+03</pdfrwt>
<pdfrwt beam="2">  1       -4 0.16005693E-01 0.13204092E+03</pdfrwt>
<totfact> 0.62041162E+03</totfact>
</mgrwt>
</event>
<event>
 6    4  0.6358868E-003  0.1279899E+03  0.7818608E-02  0.1230469E+00
         21   -1    0    0  501  502  0.00000000000E+00  0.00000000000E+00  0.46183380538E+02  0.46183380538E+02  0.00000000000E+00 0.  1.
          4   -1    0    0  502    0 -0.00000000000E+00 -0.00000000000E+00 -0.13543492049E+03  0.13544087488E+03  0.12700000000E+01 0.  1.
         25    2    1    2    0    0 -0.17675837192E+02  0.21060858723E+02 -0.85318006666E+02  0.15381992887E+03  0.12500165306E+03 0.  0.
    9000005    1    3    3    0    0  0.71119863053E+01  0.71088097228E+02 -0.55802662535E+02  0.90658894008E+02  0.10000000000E+01 0.  0.
    9000005    1    3    3    0    0 -0.24787823498E+02 -0.50027238505E+02 -0.29515344130E+02  0.63161034865E+02  0.10000000000E+01 0.  0.
          4    1    1    2  501    0  0.17675837192E+02 -0.21060858723E+02 -0.39335332879E+01  0.27804326547E+02  0.12700000000E+01 0. -1.
<mgrwt>
<rscale>  1 0.12798988E+03</rscale>
<asrwt>0</asrwt>
<pdfrwt beam="1">  1       21 0.71051355E-02 0.12798988E+03</pdfrwt>
<pdfrwt beam="2">  1        4 0.20837943E-01 0.12798988E+03</pdfrwt>
<totfact> 0.12296262E+05</totfact>
</mgrwt>
</event>
<event>
 6    4  0.6358868E-003  0.1271978E+03  0.7818608E-02  0.1231674E+00
          4   -1    0    0  502    0 -0.00000000000E+00  0.00000000000E+00  0.10886513105E+04  0.10886520513E+04  0.12700000000E+01 0. -1.
         21   -1    0    0  501  502  0.00000000000E+00 -0.00000000000E+00 -0.14085650916E+02  0.14085650916E+02  0.00000000000E+00 0.  1.
         25    2    1    2    0    0  0.16279990455E+02 -0.16996224600E+02  0.10714376709E+04  0.10789615177E+04  0.12500145657E+03 0.  0.
    9000005    1    3    3    0    0 -0.30952521193E+02 -0.23932195367E+02  0.90404057190E+03  0.90488737652E+03  0.10000000000E+01 0.  0.
    9000005    1    3    3    0    0  0.47232511648E+02  0.69359707664E+01  0.16739709903E+03  0.17407414113E+03  0.10000000000E+01 0.  0.
          4    1    1    2  501    0 -0.16279990455E+02  0.16996224600E+02  0.31279886886E+01  0.23776184579E+02  0.12700000000E+01 0.  1.
<mgrwt>
<rscale>  1 0.12719777E+03</rscale>
<asrwt>0</asrwt>
<pdfrwt beam="2">  1       21 0.21670241E-02 0.12719777E+03</pdfrwt>
<pdfrwt beam="1">  1        4 0.16748921E+00 0.12719777E+03</pdfrwt>
<totfact> 0.10463002E+04</totfact>
</mgrwt>
</event>
<event>
 6    4  0.6358868E-003  0.1267105E+03  0.7818608E-02  0.1232420E+00
          4   -1    0    0  502    0 -0.00000000000E+00  0.00000000000E+00  0.92115572255E+02  0.92124326602E+02  0.12700000000E+01 0. -1.
         21   -1    0    0  501  502  0.00000000000E+00 -0.00000000000E+00 -0.13617256346E+03  0.13617256346E+03  0.00000000000E+00 0.  1.
         25    2    1    2    0    0 -0.20607721339E+02 -0.24357155009E+01  0.46811094720E+02  0.13508083550E+03  0.12499977057E+03 0.  0.
    9000005    1    3    3    0    0  0.57384547946E+01 -0.46875079938E+02 -0.19424912096E+02  0.51073772061E+02  0.10000000000E+01 0.  0.
    9000005    1    3    3    0    0 -0.26346176133E+02  0.44439364437E+02  0.66236006816E+02  0.84007063437E+02  0.10000000000E+01 0.  0.
          4    1    1    2  501    0  0.20607721339E+02  0.24357155009E+01 -0.90868085924E+02  0.93216054562E+02  0.12700000000E+01 0.  1.
<mgrwt>
<rscale>  1 0.12671051E+03</rscale>
<asrwt>0</asrwt>
<pdfrwt beam="2">  1       21 0.20949625E-01 0.12671051E+03</pdfrwt>
<pdfrwt beam="1">  1        4 0.14172756E-01 0.12671051E+03</pdfrwt>
<totfact> 0.35545629E+04</totfact>
</mgrwt>
</event>
<event>
 6    4  0.6358868E-003  0.1446781E+03  0.7818608E-02  0.1207169E+00
          4   -1    0    0  502    0 -0.00000000000E+00  0.00000000000E+00  0.23032321109E+02  0.23067308375E+02  0.12700000000E+01 0.  1.
         21   -1    0    0  501  502  0.00000000000E+00 -0.00000000000E+00 -0.13058286780E+04  0.13058286780E+04  0.00000000000E+00 0. -1.
         25    2    1    2    0    0  0.57565706115E+02 -0.44640744356E+02 -0.21818600779E+03  0.26179551552E+03  0.12500060550E+03 0.  0.
    9000005    1    3    3    0    0 -0.39285045019E+01 -0.27116766487E+02  0.65066278269E+01  0.28179573772E+02  0.10000000000E+01 0.  0.
    9000005    1    3    3    0    0  0.61494210617E+02 -0.17523977870E+02 -0.22469263561E+03  0.23361594175E+03  0.10000000000E+01 0.  0.
          4    1    1    2  501    0 -0.57565706115E+02  0.44640744356E+02 -0.10646103491E+04  0.10671004708E+04  0.12700000000E+01 0. -1.
<mgrwt>
<rscale>  1 0.14467812E+03</rscale>
<asrwt>0</asrwt>
<pdfrwt beam="2">  1       21 0.20089670E+00 0.14467812E+03</pdfrwt>
<pdfrwt beam="1">  1        4 0.35461732E-02 0.14467812E+03</pdfrwt>
<totfact> 0.23245939E+03</totfact>
</mgrwt>
</event>
<event>
 6    4  0.6358868E-003  0.1266053E+03  0.7818608E-02  0.1232582E+00
          4   -1    0    0  502    0 -0.00000000000E+00  0.00000000000E+00  0.31903062637E+02  0.31928330768E+02  0.12700000000E+01 0.  1.
         21   -1    0    0  501  502  0.00000000000E+00 -0.00000000000E+00 -0.19816848905E+03  0.19816848905E+03  0.00000000000E+00 0.  1.
         25    2    1    2    0    0  0.19737237938E+02  0.37837204921E+01 -0.10148659622E+03  0.16226036322E+03  0.12500008463E+03 0.  0.
    9000005    1    3    3    0    0 -0.28877255727E+02  0.25156380815E+02 -0.10219601962E+03  0.10914103637E+03  0.10000000000E+01 0.  0.
    9000005    1    3    3    0    0  0.48614493665E+02 -0.21372660323E+02  0.70942340014E+00  0.53119326851E+02  0.10000000000E+01 0.  0.
          4    1    1    2  501    0 -0.19737237938E+02 -0.37837204921E+01 -0.64778830200E+02  0.67836456601E+02  0.12700000000E+01 0. -1.
<mgrwt>
<rscale>  1 0.12660528E+03</rscale>
<asrwt>0</asrwt>
<pdfrwt beam="2">  1       21 0.30487461E-01 0.12660528E+03</pdfrwt>
<pdfrwt beam="1">  1        4 0.49104201E-02 0.12660528E+03</pdfrwt>
<totfact> 0.10179589E+05</totfact>
</mgrwt>
</event>
<event>
 6    4  0.6358868E-003  0.1277677E+03  0.7818608E-02  0.1230806E+00
         21   -1    0    0  501  502  0.00000000000E+00  0.00000000000E+00  0.15112385833E+03  0.15112385833E+03  0.00000000000E+00 0. -1.
         -4   -1    0    0    0  501 -0.00000000000E+00 -0.00000000000E+00 -0.24213535611E+03  0.24213868666E+03  0.12700000000E+01 0.  1.
         25    2    1    2    0    0 -0.19870289593E+02 -0.17450478297E+02 -0.22388490697E+03  0.25777710898E+03  0.12500095497E+03 0.  0.
    9000005    1    3    3    0    0 -0.56357621420E+02  0.38048859452E+01 -0.20288917932E+03  0.21060787672E+03  0.10000000000E+01 0.  0.
    9000005    1    3    3    0    0  0.36487331827E+02 -0.21255364242E+02 -0.20995727651E+02  0.47169232266E+02  0.10000000000E+01 0.  0.
         -4    1    1    2    0  502  0.19870289593E+02  0.17450478297E+02  0.13287340919E+03  0.13548543601E+03  0.12700000000E+01 0. -1.
<mgrwt>
<rscale>  1 0.12776770E+03</rscale>
<asrwt>0</asrwt>
<pdfrwt beam="1">  1       21 0.23249824E-01 0.12776770E+03</pdfrwt>
<pdfrwt beam="2">  1       -4 0.37252260E-01 0.12776770E+03</pdfrwt>
<totfact> 0.49969248E+03</totfact>
</mgrwt>
</event>
<event>
 6    4  0.6358868E-003  0.1267875E+03  0.7818608E-02  0.1232302E+00
         21   -1    0    0  501  502  0.00000000000E+00  0.00000000000E+00  0.15830164480E+02  0.15830164480E+02  0.00000000000E+00 0. -1.
         -4   -1    0    0    0  501 -0.00000000000E+00 -0.00000000000E+00 -0.34618948057E+03  0.34619181007E+03  0.12700000000E+01 0. -1.
         25    2    1    2    0    0  0.20190229895E+02 -0.65100906356E+01 -0.28516577146E+03  0.31208104905E+03  0.12500014920E+03 0.  0.
    9000005    1    3    3    0    0  0.91665891446E+01 -0.65030641154E+02 -0.12510238566E+03  0.14129620498E+03  0.10000000000E+01 0.  0.
    9000005    1    3    3    0    0  0.11023640750E+02  0.58520550518E+02 -0.16006338580E+03  0.17078484407E+03  0.10000000000E+01 0.  0.
         -4    1    1    2    0  502 -0.20190229895E+02  0.65100906356E+01 -0.45193544627E+02  0.49940925494E+02  0.12700000000E+01 0.  1.
<mgrwt>
<rscale>  1 0.12678748E+03</rscale>
<asrwt>0</asrwt>
<pdfrwt beam="1">  1       21 0.24354101E-02 0.12678748E+03</pdfrwt>
<pdfrwt beam="2">  1       -4 0.53264014E-01 0.12678748E+03</pdfrwt>
<totfact> 0.12055894E+05</totfact>
</mgrwt>
</event>
<event>
 6    4  0.6358868E-003  0.1287933E+03  0.7818608E-02  0.1229257E+00
          4   -1    0    0  502    0 -0.00000000000E+00  0.00000000000E+00  0.10333071531E+03  0.10333851957E+03  0.12700000000E+01 0. -1.
         21   -1    0    0  501  502  0.00000000000E+00 -0.00000000000E+00 -0.52913093962E+03  0.52913093962E+03  0.00000000000E+00 0.  1.
         25    2    1    2    0    0  0.30942317092E+02  0.20500337210E+01  0.62518653250E+02  0.14316529131E+03  0.12500435595E+03 0.  0.
    9000005    1    3    3    0    0  0.53792066210E+02 -0.27750134723E+02  0.81142908348E+02  0.10123649510E+03  0.10000000000E+01 0.  0.
    9000005    1    3    3    0    0 -0.22849749118E+02  0.29800168444E+02 -0.18624255097E+02  0.41928796214E+02  0.10000000000E+01 0.  0.
          4    1    1    2  501    0 -0.30942317092E+02 -0.20500337210E+01 -0.48831887755E+03  0.48930416788E+03  0.12700000000E+01 0.  1.
<mgrwt>
<rscale>  1 0.12879332E+03</rscale>
<asrwt>0</asrwt>
<pdfrwt beam="2">  1       21 0.81404758E-01 0.12879332E+03</pdfrwt>
<pdfrwt beam="1">  1        4 0.15897751E-01 0.12879332E+03</pdfrwt>
<totfact> 0.18754740E+03</totfact>
</mgrwt>
</event>
<event>
 6    4  0.6358868E-003  0.1304418E+03  0.7818608E-02  0.1226802E+00
          4   -1    0    0  502    0 -0.00000000000E+00  0.00000000000E+00  0.77125145707E+03  0.77125250271E+03  0.12700000000E+01 0. -1.
         21   -1    0    0  501  502  0.00000000000E+00 -0.00000000000E+00 -0.12978860974E+02  0.12978860974E+02  0.00000000000E+00 0.  1.
         25    2    1    2    0    0  0.22519685770E+02 -0.29713211389E+02  0.71628613645E+03  0.72806654487E+03  0.12500021326E+03 0.  0.
    9000005    1    3    3    0    0  0.10378521833E+02 -0.26678031966E+02  0.29331417226E+02  0.40997111380E+02  0.10000000000E+01 0.  0.
    9000005    1    3    3    0    0  0.12141163937E+02 -0.30351794230E+01  0.68695471922E+03  0.68706943349E+03  0.10000000000E+01 0.  0.
          4    1    1    2  501    0 -0.22519685770E+02  0.29713211389E+02  0.41986459650E+02  0.56164818812E+02  0.12700000000E+01 0.  1.
<mgrwt>
<rscale>  1 0.13044181E+03</rscale>
<asrwt>0</asrwt>
<pdfrwt beam="2">  1       21 0.19967484E-02 0.13044181E+03</pdfrwt>
<pdfrwt beam="1">  1        4 0.11865889E+00 0.13044181E+03</pdfrwt>
<totfact> 0.28396986E+04</totfact>
</mgrwt>
</event>
<event>
 6    4  0.6358868E-003  0.1330426E+03  0.7818608E-02  0.1223010E+00
          4   -1    0    0  502    0 -0.00000000000E+00  0.00000000000E+00  0.58116679992E+03  0.58116818756E+03  0.12700000000E+01 0.  1.
         21   -1    0    0  501  502  0.00000000000E+00 -0.00000000000E+00 -0.20290950381E+02  0.20290950381E+02  0.00000000000E+00 0. -1.
         25    2    1    2    0    0  0.18487374243E+02  0.41610205134E+02  0.52996918599E+03  0.54641345755E+03  0.12500854497E+03 0.  0.
    9000005    1    3    3    0    0  0.53648777833E+01  0.85817636294E+02  0.37454676086E+03  0.38429119777E+03  0.10000000000E+01 0.  0.
    9000005    1    3    3    0    0  0.13122496459E+02 -0.44207431160E+02  0.15542242513E+03  0.16212225978E+03  0.10000000000E+01 0.  0.
          4    1    1    2  501    0 -0.18487374243E+02 -0.41610205134E+02  0.30906663548E+02  0.55045680388E+02  0.12700000000E+01 0. -1.
<mgrwt>
<rscale>  1 0.13304258E+03</rscale>
<asrwt>0</asrwt>
<pdfrwt beam="2">  1       21 0.31216851E-02 0.13304258E+03</pdfrwt>
<pdfrwt beam="1">  1        4 0.89413428E-01 0.13304258E+03</pdfrwt>
<totfact> 0.26531545E+04</totfact>
</mgrwt>
</event>
<event>
 6    4  0.6358868E-003  0.1841544E+03  0.7818608E-02  0.1163842E+00
         -4   -1    0    0    0  501 -0.00000000000E+00  0.00000000000E+00  0.54563244067E+02  0.54578022162E+02  0.12700000000E+01 0.  1.
         21   -1    0    0  501  502  0.00000000000E+00 -0.00000000000E+00 -0.47216071069E+03  0.47216071069E+03  0.00000000000E+00 0. -1.
         25    2    1    2    0    0 -0.10292759085E+03 -0.87697111598E+02 -0.26686843933E+03  0.32424002938E+03  0.12501184103E+03 0.  0.
    9000005    1    3    3    0    0 -0.76530022108E+02 -0.10299132768E+03 -0.12504315632E+03  0.17916709744E+03  0.10000000000E+01 0.  0.
    9000005    1    3    3    0    0 -0.26397568741E+02  0.15294216079E+02 -0.14182528301E+03  0.14507293194E+03  0.10000000000E+01 0.  0.
         -4    1    1    2    0  502  0.10292759085E+03  0.87697111598E+02 -0.15072902729E+03  0.20249870347E+03  0.12700000000E+01 0. -1.
<mgrwt>
<rscale>  1 0.18415437E+03</rscale>
<asrwt>0</asrwt>
<pdfrwt beam="2">  1       21 0.72640109E-01 0.18415437E+03</pdfrwt>
<pdfrwt beam="1">  1       -4 0.83956134E-02 0.18415437E+03</pdfrwt>
<totfact> 0.73048981E+03</totfact>
</mgrwt>
</event>
<event>
 6    4  0.6358868E-003  0.1289216E+03  0.7818608E-02  0.1229065E+00
          4   -1    0    0  502    0 -0.00000000000E+00  0.00000000000E+00  0.22340773019E+02  0.22376841580E+02  0.12700000000E+01 0.  1.
         21   -1    0    0  501  502  0.00000000000E+00 -0.00000000000E+00 -0.49765705552E+03  0.49765705552E+03  0.00000000000E+00 0. -1.
         25    2    1    2    0    0  0.29530425584E+02  0.11102399153E+02 -0.17135550511E+03  0.21443763339E+03  0.12500192071E+03 0.  0.
    9000005    1    3    3    0    0  0.72147272099E+02 -0.13091198130E+02 -0.67819804595E+02  0.99885605745E+02  0.10000000000E+01 0.  0.
    9000005    1    3    3    0    0 -0.42616846515E+02  0.24193597283E+02 -0.10353570052E+03  0.11455202765E+03  0.10000000000E+01 0.  0.
          4    1    1    2  501    0 -0.29530425584E+02 -0.11102399153E+02 -0.30396077739E+03  0.30559626371E+03  0.12700000000E+01 0. -1.
<mgrwt>
<rscale>  1 0.12892164E+03</rscale>
<asrwt>0</asrwt>
<pdfrwt beam="2">  1       21 0.76562629E-01 0.12892164E+03</pdfrwt>
<pdfrwt beam="1">  1        4 0.34399409E-02 0.12892164E+03</pdfrwt>
<totfact> 0.26958052E+04</totfact>
</mgrwt>
</event>
<event>
 6    4  0.6358868E-003  0.1266295E+03  0.7818608E-02  0.1232544E+00
         21   -1    0    0  501  502  0.00000000000E+00  0.00000000000E+00  0.37706755614E+02  0.37706755614E+02  0.00000000000E+00 0.  1.
         -4   -1    0    0    0  501 -0.00000000000E+00 -0.00000000000E+00 -0.29665407733E+03  0.29665679580E+03  0.12700000000E+01 0. -1.
         25    2    1    2    0    0  0.19842670818E+02 -0.40205505292E+01 -0.27865697401E+03  0.30607963893E+03  0.12500055918E+03 0.  0.
    9000005    1    3    3    0    0  0.30677835993E+02 -0.49880206232E+02 -0.65900200528E+02  0.88164624565E+02  0.10000000000E+01 0.  0.
    9000005    1    3    3    0    0 -0.10835165175E+02  0.45859655703E+02 -0.21275677348E+03  0.21791501437E+03  0.10000000000E+01 0.  0.
         -4    1    1    2    0  502 -0.19842670818E+02  0.40205505292E+01  0.19709652294E+02  0.28283912483E+02  0.12700000000E+01 0.  1.
<mgrwt>
<rscale>  1 0.12662952E+03</rscale>
<asrwt>0</asrwt>
<pdfrwt beam="1">  1       21 0.58010391E-02 0.12662952E+03</pdfrwt>
<pdfrwt beam="2">  1       -4 0.45640945E-01 0.12662952E+03</pdfrwt>
<totfact> 0.39158226E+04</totfact>
</mgrwt>
</event>
<event>
 6    4  0.6358868E-003  0.1288175E+03  0.7818608E-02  0.1229221E+00
         21   -1    0    0  501  502  0.00000000000E+00  0.00000000000E+00  0.43200481432E+03  0.43200481432E+03  0.00000000000E+00 0. -1.
          4   -1    0    0  502    0 -0.00000000000E+00 -0.00000000000E+00 -0.34043229440E+02  0.34066910201E+02  0.12700000000E+01 0.  1.
         25    2    1    2    0    0 -0.26566160239E+02  0.16223503734E+02  0.91442950673E+02  0.15797393329E+03  0.12499994972E+03 0.  0.
    9000005    1    3    3    0    0 -0.11553902380E+02  0.70791192450E+02  0.44315280904E+02  0.84319213175E+02  0.10000000000E+01 0.  0.
    9000005    1    3    3    0    0 -0.15012257859E+02 -0.54567688717E+02  0.47127669768E+02  0.73654720118E+02  0.10000000000E+01 0.  0.
          4    1    1    2  501    0  0.26566160239E+02 -0.16223503734E+02  0.30651863421E+03  0.30809779123E+03  0.12700000000E+01 0. -1.
<mgrwt>
<rscale>  1 0.12881751E+03</rscale>
<asrwt>0</asrwt>
<pdfrwt beam="1">  1       21 0.66462275E-01 0.12881751E+03</pdfrwt>
<pdfrwt beam="2">  1        4 0.52393854E-02 0.12881751E+03</pdfrwt>
<totfact> 0.18801685E+04</totfact>
</mgrwt>
</event>
<event>
 6    4  0.6358868E-003  0.1267470E+03  0.7818608E-02  0.1232364E+00
          4   -1    0    0  502    0 -0.00000000000E+00  0.00000000000E+00  0.64690399621E+02  0.64702864721E+02  0.12700000000E+01 0.  1.
         21   -1    0    0  501  502  0.00000000000E+00 -0.00000000000E+00 -0.19048267008E+03  0.19048267008E+03  0.00000000000E+00 0. -1.
         25    2    1    2    0    0 -0.18131112204E+02  0.10620548408E+02  0.90614008691E+00  0.12675020706E+03  0.12499304229E+03 0.  0.
    9000005    1    3    3    0    0  0.24028888449E+02 -0.13356976436E+02  0.50417076656E+02  0.57434118067E+02  0.10000000000E+01 0.  0.
    9000005    1    3    3    0    0 -0.42160000652E+02  0.23977524844E+02 -0.49510936570E+02  0.69316088988E+02  0.10000000000E+01 0.  0.
          4    1    1    2  501    0  0.18131112204E+02 -0.10620548408E+02 -0.12669841055E+03  0.12843532775E+03  0.12700000000E+01 0. -1.
<mgrwt>
<rscale>  1 0.12674697E+03</rscale>
<asrwt>0</asrwt>
<pdfrwt beam="2">  1       21 0.29305026E-01 0.12674697E+03</pdfrwt>
<pdfrwt beam="1">  1        4 0.99536537E-02 0.12674697E+03</pdfrwt>
<totfact> 0.34480716E+04</totfact>
</mgrwt>
</event>
<event>
 6    4  0.6358868E-003  0.1356528E+03  0.7818608E-02  0.1219301E+00
         21   -1    0    0  501  502  0.00000000000E+00  0.00000000000E+00  0.13584636877E+04  0.13584636877E+04  0.00000000000E+00 0. -1.
          4   -1    0    0  502    0 -0.00000000000E+00 -0.00000000000E+00 -0.36671112876E+03  0.36671332789E+03  0.12700000000E+01 0.  1.
         25    2    1    2    0    0  0.26078899704E+02  0.45778338000E+02 -0.35363362592E+03  0.37875904016E+03  0.12500361547E+03 0.  0.
    9000005    1    3    3    0    0  0.73724922007E+01  0.28738704711E+02 -0.61029651527E+01  0.30306978955E+02  0.10000000000E+01 0.  0.
    9000005    1    3    3    0    0  0.18706407503E+02  0.17039633288E+02 -0.34753066077E+03  0.34845206121E+03  0.10000000000E+01 0.  0.
          4    1    1    2  501    0 -0.26078899704E+02 -0.45778338000E+02  0.13453861848E+04  0.13464179754E+04  0.12700000000E+01 0. -1.
<mgrwt>
<rscale>  1 0.13565275E+03</rscale>
<asrwt>0</asrwt>
<pdfrwt beam="1">  1       21 0.20899441E+00 0.13565275E+03</pdfrwt>
<pdfrwt beam="2">  1        4 0.56417312E-01 0.13565275E+03</pdfrwt>
<totfact> 0.15606389E+01</totfact>
</mgrwt>
</event>
<event>
 6    4  0.6358868E-003  0.1380720E+03  0.7818608E-02  0.1215947E+00
         21   -1    0    0  501  502  0.00000000000E+00  0.00000000000E+00  0.14320636426E+03  0.14320636426E+03  0.00000000000E+00 0.  1.
          4   -1    0    0  502    0 -0.00000000000E+00 -0.00000000000E+00 -0.80525112631E+02  0.80535126897E+02  0.12700000000E+01 0.  1.
         25    2    1    2    0    0 -0.53314335234E+02  0.24427243025E+02  0.24324412565E+00  0.13807220714E+03  0.12499906669E+03 0.  0.
    9000005    1    3    3    0    0 -0.27544814134E+01  0.59393282606E+02  0.33417447774E+02  0.68211985767E+02  0.10000000000E+01 0.  0.
    9000005    1    3    3    0    0 -0.50559853821E+02 -0.34966039580E+02 -0.33174203648E+02  0.69860221371E+02  0.10000000000E+01 0.  0.
          4    1    1    2  501    0  0.53314335234E+02 -0.24427243025E+02  0.62438007502E+02  0.85669284018E+02  0.12700000000E+01 0. -1.
<mgrwt>
<rscale>  1 0.13807199E+03</rscale>
<asrwt>0</asrwt>
<pdfrwt beam="1">  1       21 0.22031748E-01 0.13807199E+03</pdfrwt>
<pdfrwt beam="2">  1        4 0.12389682E-01 0.13807199E+03</pdfrwt>
<totfact> 0.41203976E+04</totfact>
</mgrwt>
</event>
<event>
 6    4  0.6358868E-003  0.1293293E+03  0.7818608E-02  0.1228454E+00
         21   -1    0    0  501  502  0.00000000000E+00  0.00000000000E+00  0.27448713287E+03  0.27448713287E+03  0.00000000000E+00 0.  1.
         -4   -1    0    0    0  501 -0.00000000000E+00 -0.00000000000E+00 -0.24159248510E+02  0.24192606073E+02  0.12700000000E+01 0.  1.
         25    2    1    2    0    0  0.19567954431E+02 -0.26761868625E+02  0.19017063082E+03  0.22998031750E+03  0.12500790038E+03 0.  0.
    9000005    1    3    3    0    0  0.52719894418E+02 -0.38000881340E+02  0.41211293924E+02  0.76959892132E+02  0.10000000000E+01 0.  0.
    9000005    1    3    3    0    0 -0.33151939987E+02  0.11239012715E+02  0.14895933690E+03  0.15302042537E+03  0.10000000000E+01 0.  0.
         -4    1    1    2    0  502 -0.19567954431E+02  0.26761868625E+02  0.60157253531E+02  0.68699421433E+02  0.12700000000E+01 0. -1.
<mgrwt>
<rscale>  1 0.12932934E+03</rscale>
<asrwt>0</asrwt>
<pdfrwt beam="1">  1       21 0.42228788E-01 0.12932934E+03</pdfrwt>
<pdfrwt beam="2">  1       -4 0.37195996E-02 0.12932934E+03</pdfrwt>
<totfact> 0.83575889E+04</totfact>
</mgrwt>
</event>
<event>
 6    4  0.6358868E-003  0.1292018E+03  0.7818608E-02  0.1228645E+00
         21   -1    0    0  501  502  0.00000000000E+00  0.00000000000E+00  0.82060486587E+02  0.82060486587E+02  0.00000000000E+00 0.  1.
         -4   -1    0    0    0  501 -0.00000000000E+00 -0.00000000000E+00 -0.82058069637E+02  0.82067896845E+02  0.12700000000E+01 0. -1.
         25    2    1    2    0    0 -0.17799860769E+02  0.27412871442E+02 -0.10872491735E+02  0.12965843851E+03  0.12499919614E+03 0.  0.
    9000005    1    3    3    0    0 -0.21195439620E+02 -0.48237038262E+02  0.24870012256E+01  0.52756456439E+02  0.10000000000E+01 0.  0.
    9000005    1    3    3    0    0  0.33955788509E+01  0.75649909704E+02 -0.13359492961E+02  0.76901982069E+02  0.10000000000E+01 0.  0.
         -4    1    1    2    0  502  0.17799860769E+02 -0.27412871442E+02  0.10874908686E+02  0.34469944923E+02  0.12700000000E+01 0.  1.
<mgrwt>
<rscale>  1 0.12920178E+03</rscale>
<asrwt>0</asrwt>
<pdfrwt beam="1">  1       21 0.12624690E-01 0.12920178E+03</pdfrwt>
<pdfrwt beam="2">  1       -4 0.12625830E-01 0.12920178E+03</pdfrwt>
<totfact> 0.10908800E+05</totfact>
</mgrwt>
</event>
<event>
 6    4  0.6358868E-003  0.1268596E+03  0.7818608E-02  0.1232191E+00
         21   -1    0    0  501  502  0.00000000000E+00  0.00000000000E+00  0.16962359854E+02  0.16962359854E+02  0.00000000000E+00 0. -1.
          4   -1    0    0  502    0 -0.00000000000E+00 -0.00000000000E+00 -0.48595544558E+03  0.48595710510E+03  0.12700000000E+01 0. -1.
         25    2    1    2    0    0  0.19468716818E+02 -0.94380143339E+01 -0.46351941362E+03  0.48056591858E+03  0.12500099297E+03 0.  0.
    9000005    1    3    3    0    0  0.25073662366E+02 -0.27504197255E+02 -0.33362833196E+02  0.49992479934E+02  0.10000000000E+01 0.  0.
    9000005    1    3    3    0    0 -0.56049455474E+01  0.18066182921E+02 -0.43015658043E+03  0.43057343864E+03  0.10000000000E+01 0.  0.
          4    1    1    2  501    0 -0.19468716818E+02  0.94380143339E+01 -0.54736721085E+01  0.22353546374E+02  0.12700000000E+01 0.  1.
<mgrwt>
<rscale>  1 0.12685959E+03</rscale>
<asrwt>0</asrwt>
<pdfrwt beam="1">  1       21 0.26095939E-02 0.12685959E+03</pdfrwt>
<pdfrwt beam="2">  1        4 0.74766158E-01 0.12685959E+03</pdfrwt>
<totfact> 0.52575281E+04</totfact>
</mgrwt>
</event>
<event>
 6    4  0.6358868E-003  0.1382289E+03  0.7818608E-02  0.1215732E+00
         21   -1    0    0  501  502  0.00000000000E+00  0.00000000000E+00  0.47355786752E+03  0.47355786752E+03  0.00000000000E+00 0.  1.
         -4   -1    0    0    0  501 -0.00000000000E+00 -0.00000000000E+00 -0.26668289101E+02  0.26698512010E+02  0.12700000000E+01 0. -1.
         25    2    1    2    0    0 -0.24386450135E+02  0.53750877293E+02  0.18020236115E+03  0.22711257031E+03  0.12499349131E+03 0.  0.
    9000005    1    3    3    0    0 -0.37565101470E+02  0.31643485109E+02  0.42780681620E+01  0.49312765745E+02  0.10000000000E+01 0.  0.
    9000005    1    3    3    0    0  0.13178651335E+02  0.22107392184E+02  0.17592429299E+03  0.17779980457E+03  0.10000000000E+01 0.  0.
         -4    1    1    2    0  502  0.24386450135E+02 -0.53750877293E+02  0.26668721727E+03  0.27314380922E+03  0.12700000000E+01 0.  1.
<mgrwt>
<rscale>  1 0.13822890E+03</rscale>
<asrwt>0</asrwt>
<pdfrwt beam="1">  1       21 0.72855050E-01 0.13822890E+03</pdfrwt>
<pdfrwt beam="2">  1       -4 0.41052699E-02 0.13822890E+03</pdfrwt>
<totfact> 0.22875079E+04</totfact>
</mgrwt>
</event>
<event>
 6    4  0.6358868E-003  0.1277432E+03  0.7818608E-02  0.1230843E+00
         21   -1    0    0  501  502  0.00000000000E+00  0.00000000000E+00  0.16718646588E+03  0.16718646588E+03  0.00000000000E+00 0. -1.
         -4   -1    0    0    0  501 -0.00000000000E+00 -0.00000000000E+00 -0.35536763703E+02  0.35559449862E+02  0.12700000000E+01 0. -1.
         25    2    1    2    0    0 -0.24081310059E+02  0.10612317400E+02  0.10634470139E+03  0.16621528833E+03  0.12500318310E+03 0.  0.
    9000005    1    3    3    0    0 -0.67346736935E+02 -0.50059902506E+01  0.23609120329E+02  0.71547421176E+02  0.10000000000E+01 0.  0.
    9000005    1    3    3    0    0  0.43265426876E+02  0.15618307651E+02  0.82735581065E+02  0.94667867150E+02  0.10000000000E+01 0.  0.
         -4    1    1    2    0  502  0.24081310059E+02 -0.10612317400E+02  0.25305000783E+02  0.36530627416E+02  0.12700000000E+01 0.  1.
<mgrwt>
<rscale>  1 0.12774321E+03</rscale>
<asrwt>0</asrwt>
<pdfrwt beam="1">  1       21 0.25720994E-01 0.12774321E+03</pdfrwt>
<pdfrwt beam="2">  1       -4 0.54693106E-02 0.12774321E+03</pdfrwt>
<totfact> 0.11862881E+05</totfact>
</mgrwt>
</event>
<event>
 6    4  0.6358868E-003  0.1348268E+03  0.7818608E-02  0.1220464E+00
         21   -1    0    0  501  502  0.00000000000E+00  0.00000000000E+00  0.24975572161E+03  0.24975572161E+03  0.00000000000E+00 0. -1.
          4   -1    0    0  502    0 -0.00000000000E+00 -0.00000000000E+00 -0.37900180445E+02  0.37921452738E+02  0.12700000000E+01 0.  1.
         25    2    1    2    0    0  0.46981514147E+02  0.18657097006E+02  0.11017543509E+03  0.17411746841E+03  0.12499166520E+03 0.  0.
    9000005    1    3    3    0    0  0.55957539283E+02  0.54663126068E+02  0.11238174673E+03  0.13693049533E+03  0.10000000000E+01 0.  0.
    9000005    1    3    3    0    0 -0.89760251361E+01 -0.36006029062E+02 -0.22063116370E+01  0.37186973083E+02  0.10000000000E+01 0.  0.
          4    1    1    2  501    0 -0.46981514147E+02 -0.18657097006E+02  0.10168010607E+03  0.11355970593E+03  0.12700000000E+01 0. -1.
<mgrwt>
<rscale>  1 0.13482680E+03</rscale>
<asrwt>0</asrwt>
<pdfrwt beam="1">  1       21 0.38423956E-01 0.13482680E+03</pdfrwt>
<pdfrwt beam="2">  1        4 0.58326819E-02 0.13482680E+03</pdfrwt>
<totfact> 0.49380776E+04</totfact>
</mgrwt>
</event>
<event>
 6    4  0.6358868E-003  0.1310580E+03  0.7818608E-02  0.1225894E+00
         -4   -1    0    0    0  501 -0.00000000000E+00  0.00000000000E+00  0.40406550501E+02  0.40426503972E+02  0.12700000000E+01 0. -1.
         21   -1    0    0  501  502  0.00000000000E+00 -0.00000000000E+00 -0.18050694105E+03  0.18050694105E+03  0.00000000000E+00 0.  1.
         25    2    1    2    0    0  0.23060993186E+02  0.31932215810E+02 -0.10146433158E+03  0.16574437214E+03  0.12499884199E+03 0.  0.
    9000005    1    3    3    0    0  0.21059557349E+02  0.20787118923E+02 -0.13089129293E+03  0.13419813648E+03  0.10000000000E+01 0.  0.
    9000005    1    3    3    0    0  0.20014358372E+01  0.11145096887E+02  0.29426961350E+02  0.31546235660E+02  0.10000000000E+01 0.  0.
         -4    1    1    2    0  502 -0.23060993186E+02 -0.31932215810E+02 -0.38636058962E+02  0.55189072880E+02  0.12700000000E+01 0.  1.
<mgrwt>
<rscale>  1 0.13105795E+03</rscale>
<asrwt>0</asrwt>
<pdfrwt beam="2">  1       21 0.27770299E-01 0.13105795E+03</pdfrwt>
<pdfrwt beam="1">  1       -4 0.62182708E-02 0.13105795E+03</pdfrwt>
<totfact> 0.83554513E+04</totfact>
</mgrwt>
</event>
<event>
 6    4  0.6358868E-003  0.1321158E+03  0.7818608E-02  0.1224350E+00
         21   -1    0    0  501  502  0.00000000000E+00  0.00000000000E+00  0.30136377529E+02  0.30136377529E+02  0.00000000000E+00 0.  1.
          4   -1    0    0  502    0 -0.00000000000E+00 -0.00000000000E+00 -0.31261302557E+03  0.31261560527E+03  0.12700000000E+01 0. -1.
         25    2    1    2    0    0  0.11186364440E+02  0.41295487404E+02 -0.26578451717E+03  0.29680971291E+03  0.12499657629E+03 0.  0.
    9000005    1    3    3    0    0  0.16034314204E+02 -0.41073578643E+02 -0.13638277595E+03  0.14333666548E+03  0.10000000000E+01 0.  0.
    9000005    1    3    3    0    0 -0.48479497641E+01  0.82369066047E+02 -0.12940174122E+03  0.15347304743E+03  0.10000000000E+01 0.  0.
          4    1    1    2  501    0 -0.11186364440E+02 -0.41295487404E+02 -0.16692130880E+02  0.45942269890E+02  0.12700000000E+01 0.  1.
<mgrwt>
<rscale>  1 0.13211584E+03</rscale>
<asrwt>0</asrwt>
<pdfrwt beam="1">  1       21 0.46363653E-02 0.13211584E+03</pdfrwt>
<pdfrwt beam="2">  1        4 0.48096574E-01 0.13211584E+03</pdfrwt>
<totfact> 0.51662324E+04</totfact>
</mgrwt>
</event>
<event>
 6    4  0.6358868E-003  0.1334424E+03  0.7818608E-02  0.1222435E+00
          4   -1    0    0  502    0 -0.00000000000E+00  0.00000000000E+00  0.50395259261E+02  0.50411259219E+02  0.12700000000E+01 0. -1.
         21   -1    0    0  501  502  0.00000000000E+00 -0.00000000000E+00 -0.29305179816E+03  0.29305179816E+03  0.00000000000E+00 0. -1.
         25    2    1    2    0    0  0.46686323468E+02 -0.10081870074E+01 -0.45713132195E+02  0.14105518307E+03  0.12500497980E+03 0.  0.
    9000005    1    3    3    0    0  0.64466859126E+02 -0.29942508204E+02 -0.69628105337E+02  0.99506797637E+02  0.10000000000E+01 0.  0.
    9000005    1    3    3    0    0 -0.17780535658E+02  0.28934321197E+02  0.23914973141E+02  0.41548385429E+02  0.10000000000E+01 0.  0.
          4    1    1    2  501    0 -0.46686323468E+02  0.10081870074E+01 -0.19694340670E+03  0.20240787431E+03  0.12700000000E+01 0.  1.
<mgrwt>
<rscale>  1 0.13344240E+03</rscale>
<asrwt>0</asrwt>
<pdfrwt beam="2">  1       21 0.45084892E-01 0.13344240E+03</pdfrwt>
<pdfrwt beam="1">  1        4 0.77545593E-02 0.13344240E+03</pdfrwt>
<totfact> 0.22435084E+04</totfact>
</mgrwt>
</event>
<event>
 6    4  0.6358868E-003  0.1376201E+03  0.7818608E-02  0.1216568E+00
         21   -1    0    0  501  502  0.00000000000E+00  0.00000000000E+00  0.68889953518E+03  0.68889953518E+03  0.00000000000E+00 0. -1.
          4   -1    0    0  502    0 -0.00000000000E+00 -0.00000000000E+00 -0.26232488526E+02  0.26263212947E+02  0.12700000000E+01 0.  1.
         25    2    1    2    0    0 -0.13602175650E+02 -0.55937369720E+02  0.16807048945E+03  0.21722562779E+03  0.12500110172E+03 0.  0.
    9000005    1    3    3    0    0 -0.12312170213E+02 -0.13450109694E+02 -0.18426727828E+02  0.25943000686E+02  0.10000000000E+01 0.  0.
    9000005    1    3    3    0    0 -0.12900054369E+01 -0.42487260025E+02  0.18649721728E+03  0.19128262711E+03  0.10000000000E+01 0.  0.
          4    1    1    2  501    0  0.13602175650E+02  0.55937369720E+02  0.49459655720E+03  0.49793712034E+03  0.12700000000E+01 0. -1.
<mgrwt>
<rscale>  1 0.13762007E+03</rscale>
<asrwt>0</asrwt>
<pdfrwt beam="1">  1       21 0.10598453E+00 0.13762007E+03</pdfrwt>
<pdfrwt beam="2">  1        4 0.40382215E-02 0.13762007E+03</pdfrwt>
<totfact> 0.99735383E+03</totfact>
</mgrwt>
</event>
<event>
 6    4  0.6358868E-003  0.1266508E+03  0.7818608E-02  0.1232512E+00
         -4   -1    0    0    0  501 -0.00000000000E+00  0.00000000000E+00  0.46684218822E+02  0.46701490202E+02  0.12700000000E+01 0. -1.
         21   -1    0    0  501  502  0.00000000000E+00 -0.00000000000E+00 -0.14388184878E+03  0.14388184878E+03  0.00000000000E+00 0. -1.
         25    2    1    2    0    0  0.12402564723E+02 -0.16174005381E+02 -0.44790046960E+02  0.13433754165E+03  0.12500001891E+03 0.  0.
    9000005    1    3    3    0    0  0.92639676368E+01  0.42886857579E+02  0.18572177060E+02  0.47655318802E+02  0.10000000000E+01 0.  0.
    9000005    1    3    3    0    0  0.31385970859E+01 -0.59060862960E+02 -0.63362224020E+02  0.86682222848E+02  0.10000000000E+01 0.  0.
         -4    1    1    2    0  502 -0.12402564723E+02  0.16174005381E+02 -0.52407582998E+02  0.56245797331E+02  0.12700000000E+01 0.  1.
<mgrwt>
<rscale>  1 0.12665081E+03</rscale>
<asrwt>0</asrwt>
<pdfrwt beam="2">  1       21 0.22135669E-01 0.12665081E+03</pdfrwt>
<pdfrwt beam="1">  1       -4 0.71839473E-02 0.12665081E+03</pdfrwt>
<totfact> 0.10080690E+05</totfact>
</mgrwt>
</event>
<event>
 6    4  0.6358868E-003  0.1286820E+03  0.7818608E-02  0.1229425E+00
         21   -1    0    0  501  502  0.00000000000E+00  0.00000000000E+00  0.33653409549E+02  0.33653409549E+02  0.00000000000E+00 0. -1.
          4   -1    0    0  502    0 -0.00000000000E+00 -0.00000000000E+00 -0.31082079510E+03  0.31082338967E+03  0.12700000000E+01 0.  1.
         25    2    1    2    0    0 -0.17443901747E+02 -0.25116567432E+02 -0.28515472343E+03  0.31284545189E+03  0.12499571514E+03 0.  0.
    9000005    1    3    3    0    0 -0.22049705355E+02 -0.11641988788E+02 -0.29464741978E+03  0.29570226139E+03  0.10000000000E+01 0.  0.
    9000005    1    3    3    0    0  0.46058036083E+01 -0.13474578644E+02  0.94926963451E+01  0.17143190497E+02  0.10000000000E+01 0.  0.
          4    1    1    2  501    0  0.17443901747E+02  0.25116567432E+02  0.79873378815E+01  0.31631347334E+02  0.12700000000E+01 0. -1.
<mgrwt>
<rscale>  1 0.12868201E+03</rscale>
<asrwt>0</asrwt>
<pdfrwt beam="1">  1       21 0.51774477E-02 0.12868201E+03</pdfrwt>
<pdfrwt beam="2">  1        4 0.47820626E-01 0.12868201E+03</pdfrwt>
<totfact> 0.43277696E+04</totfact>
</mgrwt>
</event>
<event>
 6    4  0.6358868E-003  0.1661006E+03  0.7818608E-02  0.1181976E+00
         -4   -1    0    0    0  501 -0.00000000000E+00  0.00000000000E+00  0.40078462316E+03  0.40078663533E+03  0.12700000000E+01 0.  1.
         21   -1    0    0  501  502  0.00000000000E+00 -0.00000000000E+00 -0.48490081443E+02  0.48490081443E+02  0.00000000000E+00 0. -1.
         25    2    1    2    0    0  0.58416964858E+02  0.92476305996E+02  0.24541776223E+03  0.29634317615E+03  0.12499996432E+03 0.  0.
    9000005    1    3    3    0    0  0.20707338324E+02  0.18970794595E+02 -0.84703838612E+01  0.29350167134E+02  0.10000000000E+01 0.  0.
    9000005    1    3    3    0    0  0.37709626534E+02  0.73505511401E+02  0.25388814609E+03  0.26699300902E+03  0.10000000000E+01 0.  0.
         -4    1    1    2    0  502 -0.58416964858E+02 -0.92476305996E+02  0.10687677949E+03  0.15293354062E+03  0.12700000000E+01 0. -1.
<mgrwt>
<rscale>  1 0.16610057E+03</rscale>
<asrwt>0</asrwt>
<pdfrwt beam="2">  1       21 0.74600128E-02 0.16610057E+03</pdfrwt>
<pdfrwt beam="1">  1       -4 0.61660605E-01 0.16610057E+03</pdfrwt>
<totfact> 0.14100975E+04</totfact>
</mgrwt>
</event>
<event>
 6    4  0.6358868E-003  0.1278877E+03  0.7818608E-02  0.1230624E+00
         21   -1    0    0  501  502  0.00000000000E+00  0.00000000000E+00  0.82245169880E+01  0.82245169880E+01  0.00000000000E+00 0.  1.
          4   -1    0    0  502    0 -0.00000000000E+00 -0.00000000000E+00 -0.73955129226E+03  0.73955238271E+03  0.12700000000E+01 0.  1.
         25    2    1    2    0    0  0.20758051420E+02 -0.17281058583E+02 -0.56730422014E+03  0.58154049221E+03  0.12500293680E+03 0.  0.
    9000005    1    3    3    0    0  0.53762916704E+02 -0.55512269630E+02 -0.33260104476E+03  0.34146232335E+03  0.10000000000E+01 0.  0.
    9000005    1    3    3    0    0 -0.33004865285E+02  0.38231211047E+02 -0.23470317538E+03  0.24007816886E+03  0.10000000000E+01 0.  0.
          4    1    1    2  501    0 -0.20758051420E+02  0.17281058583E+02 -0.16402255513E+03  0.16623640749E+03  0.12700000000E+01 0. -1.
<mgrwt>
<rscale>  1 0.12788771E+03</rscale>
<asrwt>0</asrwt>
<pdfrwt beam="1">  1       21 0.12653097E-02 0.12788771E+03</pdfrwt>
<pdfrwt beam="2">  1        4 0.11378480E+00 0.12788771E+03</pdfrwt>
<totfact> 0.64933474E+04</totfact>
</mgrwt>
</event>
<event>
 6    4  0.6358868E-003  0.1272738E+03  0.7818608E-02  0.1231558E+00
          4   -1    0    0  502    0 -0.00000000000E+00  0.00000000000E+00  0.15660752698E+02  0.15712163284E+02  0.12700000000E+01 0. -1.
         21   -1    0    0  501  502  0.00000000000E+00 -0.00000000000E+00 -0.38973146168E+03  0.38973146168E+03  0.00000000000E+00 0. -1.
         25    2    1    2    0    0  0.97208918893E+01 -0.21885429546E+02 -0.26786397840E+03  0.29656318463E+03  0.12500057516E+03 0.  0.
    9000005    1    3    3    0    0 -0.56017324353E+02 -0.13875409570E+02 -0.15879405596E+03  0.16895863348E+03  0.10000000000E+01 0.  0.
    9000005    1    3    3    0    0  0.65738216242E+02 -0.80100199760E+01 -0.10906992243E+03  0.12760455115E+03  0.10000000000E+01 0.  0.
          4    1    1    2  501    0 -0.97208918893E+01  0.21885429546E+02 -0.10620673059E+03  0.10888044034E+03  0.12700000000E+01 0.  1.
<mgrwt>
<rscale>  1 0.12727377E+03</rscale>
<asrwt>0</asrwt>
<pdfrwt beam="2">  1       21 0.59958679E-01 0.12727377E+03</pdfrwt>
<pdfrwt beam="1">  1        4 0.24134607E-02 0.12727377E+03</pdfrwt>
<totfact> 0.79556449E+04</totfact>
</mgrwt>
</event>
<event>
 6    4  0.6358868E-003  0.1368670E+03  0.7818608E-02  0.1217608E+00
         21   -1    0    0  501  502  0.00000000000E+00  0.00000000000E+00  0.14037252066E+03  0.14037252066E+03  0.00000000000E+00 0.  1.
          4   -1    0    0  502    0 -0.00000000000E+00 -0.00000000000E+00 -0.23366780554E+03  0.23367125678E+03  0.12700000000E+01 0. -1.
         25    2    1    2    0    0 -0.46702515391E+02  0.30434508981E+02 -0.20656517363E+03  0.24779376802E+03  0.12500078493E+03 0.  0.
    9000005    1    3    3    0    0  0.16933589834E+02  0.62904341768E+02 -0.90806777863E+02  0.11176123471E+03  0.10000000000E+01 0.  0.
    9000005    1    3    3    0    0 -0.63636105225E+02 -0.32469832788E+02 -0.11575839576E+03  0.13603253331E+03  0.10000000000E+01 0.  0.
          4    1    1    2  501    0  0.46702515391E+02 -0.30434508981E+02  0.11326988875E+03  0.12625000942E+03  0.12700000000E+01 0.  1.
<mgrwt>
<rscale>  1 0.13686702E+03</rscale>
<asrwt>0</asrwt>
<pdfrwt beam="1">  1       21 0.21595772E-01 0.13686702E+03</pdfrwt>
<pdfrwt beam="2">  1        4 0.35949601E-01 0.13686702E+03</pdfrwt>
<totfact> 0.61768157E+03</totfact>
</mgrwt>
</event>
<event>
 6    4  0.6358868E-003  0.1333947E+03  0.7818608E-02  0.1222504E+00
         21   -1    0    0  501  502  0.00000000000E+00  0.00000000000E+00  0.10036435924E+03  0.10036435924E+03  0.00000000000E+00 0.  1.
         -4   -1    0    0    0  501 -0.00000000000E+00 -0.00000000000E+00 -0.80836616343E+02  0.80846592024E+02  0.12700000000E+01 0. -1.
         25    2    1    2    0    0  0.18948058876E+02 -0.42541657526E+02  0.10984844837E+02  0.13384624322E+03  0.12500131379E+03 0.  0.
    9000005    1    3    3    0    0  0.11224600631E+02 -0.46292972508E+02 -0.51851905490E+02  0.70417690007E+02  0.10000000000E+01 0.  0.
    9000005    1    3    3    0    0  0.77234582450E+01  0.37513149828E+01  0.62836750327E+02  0.63428553216E+02  0.10000000000E+01 0.  0.
         -4    1    1    2    0  502 -0.18948058876E+02  0.42541657526E+02  0.85428980544E+01  0.47364708036E+02  0.12700000000E+01 0.  1.
<mgrwt>
<rscale>  1 0.13339472E+03</rscale>
<asrwt>0</asrwt>
<pdfrwt beam="1">  1       21 0.15440671E-01 0.13339472E+03</pdfrwt>
<pdfrwt beam="2">  1       -4 0.12437788E-01 0.13339472E+03</pdfrwt>
<totfact> 0.78347855E+04</totfact>
</mgrwt>
</event>
<event>
 6    4  0.6358868E-003  0.1288894E+03  0.7818608E-02  0.1229113E+00
         -4   -1    0    0    0  501 -0.00000000000E+00  0.00000000000E+00  0.10818882506E+04  0.10818889960E+04  0.12700000000E+01 0. -1.
         21   -1    0    0  501  502  0.00000000000E+00 -0.00000000000E+00 -0.79291018060E+01  0.79291018060E+01  0.00000000000E+00 0.  1.
         25    2    1    2    0    0 -0.26069332897E+02  0.17533837913E+02  0.10135830240E+04  0.10217450860E+04  0.12500171468E+03 0.  0.
    9000005    1    3    3    0    0  0.17852317890E+02 -0.40268023735E+02  0.61699935633E+03  0.61857046866E+03  0.10000000000E+01 0.  0.
    9000005    1    3    3    0    0 -0.43921650787E+02  0.57801861649E+02  0.39658366765E+03  0.40317461734E+03  0.10000000000E+01 0.  0.
         -4    1    1    2    0  502  0.26069332897E+02 -0.17533837913E+02  0.60376124778E+02  0.68073011780E+02  0.12700000000E+01 0.  1.
<mgrwt>
<rscale>  1 0.12888939E+03</rscale>
<asrwt>0</asrwt>
<pdfrwt beam="2">  1       21 0.12198627E-02 0.12888939E+03</pdfrwt>
<pdfrwt beam="1">  1       -4 0.16645211E+00 0.12888939E+03</pdfrwt>
<totfact> 0.26729017E+04</totfact>
</mgrwt>
</event>
<event>
 6    4  0.6358868E-003  0.1340362E+03  0.7818608E-02  0.1221587E+00
         21   -1    0    0  501  502  0.00000000000E+00  0.00000000000E+00  0.10883080084E+03  0.10883080084E+03  0.00000000000E+00 0.  1.
          4   -1    0    0  502    0 -0.00000000000E+00 -0.00000000000E+00 -0.76673888733E+02  0.76684405934E+02  0.12700000000E+01 0.  1.
         25    2    1    2    0    0  0.40726535022E+01 -0.48227452804E+02  0.27930490559E+02  0.13691531737E+03  0.12499287227E+03 0.  0.
    9000005    1    3    3    0    0  0.36366839299E+02  0.31289611741E+02  0.13792856222E+02  0.49928245375E+02  0.10000000000E+01 0.  0.
    9000005    1    3    3    0    0 -0.32294185797E+02 -0.79517064545E+02  0.14137634337E+02  0.86987071998E+02  0.10000000000E+01 0.  0.
          4    1    1    2  501    0 -0.40726535022E+01  0.48227452804E+02  0.42264215459E+01  0.48599889399E+02  0.12700000000E+01 0. -1.
<mgrwt>
<rscale>  1 0.13403616E+03</rscale>
<asrwt>0</asrwt>
<pdfrwt beam="1">  1       21 0.16743200E-01 0.13403616E+03</pdfrwt>
<pdfrwt beam="2">  1        4 0.11797362E-01 0.13403616E+03</pdfrwt>
<totfact> 0.74088153E+04</totfact>
</mgrwt>
</event>
<event>
 6    4  0.6358868E-003  0.1305166E+03  0.7818608E-02  0.1226691E+00
         21   -1    0    0  501  502  0.00000000000E+00  0.00000000000E+00  0.37991044951E+03  0.37991044951E+03  0.00000000000E+00 0. -1.
         -4   -1    0    0    0  501 -0.00000000000E+00 -0.00000000000E+00 -0.20887829926E+02  0.20926402916E+02  0.12700000000E+01 0. -1.
         25    2    1    2    0    0  0.25035138456E+02  0.27974897087E+02  0.21084394537E+03  0.24797127286E+03  0.12500091935E+03 0.  0.
    9000005    1    3    3    0    0 -0.45530009554E+02  0.37790747154E+02  0.10016458851E+03  0.11634030742E+03  0.10000000000E+01 0.  0.
    9000005    1    3    3    0    0  0.70565148009E+02 -0.98158500663E+01  0.11067935687E+03  0.13163096544E+03  0.10000000000E+01 0.  0.
         -4    1    1    2    0  502 -0.25035138456E+02 -0.27974897087E+02  0.14817867421E+03  0.15286557956E+03  0.12700000000E+01 0.  1.
<mgrwt>
<rscale>  1 0.13051660E+03</rscale>
<asrwt>0</asrwt>
<pdfrwt beam="1">  1       21 0.58447757E-01 0.13051660E+03</pdfrwt>
<pdfrwt beam="2">  1       -4 0.32166430E-02 0.13051660E+03</pdfrwt>
<totfact> 0.53803701E+04</totfact>
</mgrwt>
</event>
<event>
 6    4  0.6358868E-003  0.1281494E+03  0.7818608E-02  0.1230228E+00
         21   -1    0    0  501  502  0.00000000000E+00  0.00000000000E+00  0.31246973684E+03  0.31246973684E+03  0.00000000000E+00 0.  1.
         -4   -1    0    0    0  501 -0.00000000000E+00 -0.00000000000E+00 -0.20264781751E+02  0.20304538395E+02  0.12700000000E+01 0.  1.
         25    2    1    2    0    0 -0.51085510760E+01 -0.27768400555E+02  0.21185012777E+03  0.24759392224E+03  0.12500036932E+03 0.  0.
    9000005    1    3    3    0    0  0.46146277100E+01  0.37132133480E+02  0.15409137966E+02  0.40478780349E+02  0.10000000000E+01 0.  0.
    9000005    1    3    3    0    0 -0.97231787860E+01 -0.64900534036E+02  0.19644098981E+03  0.20711514189E+03  0.10000000000E+01 0.  0.
         -4    1    1    2    0  502  0.51085510760E+01  0.27768400555E+02  0.80354827318E+02  0.85180352997E+02  0.12700000000E+01 0. -1.
<mgrwt>
<rscale>  1 0.12814942E+03</rscale>
<asrwt>0</asrwt>
<pdfrwt beam="1">  1       21 0.48072264E-01 0.12814942E+03</pdfrwt>
<pdfrwt beam="2">  1       -4 0.31209157E-02 0.12814942E+03</pdfrwt>
<totfact> 0.84560059E+04</totfact>
</mgrwt>
</event>
<event>
 6    4  0.6358868E-003  0.1773408E+03  0.7818608E-02  0.1170402E+00
         21   -1    0    0  501  502  0.00000000000E+00  0.00000000000E+00  0.71582817454E+03  0.71582817454E+03  0.00000000000E+00 0.  1.
          4   -1    0    0  502    0 -0.00000000000E+00 -0.00000000000E+00 -0.46345698736E+02  0.46363096223E+02  0.12700000000E+01 0. -1.
         25    2    1    2    0    0  0.87253664901E+02 -0.90619013155E+02  0.16489419118E+03  0.24215669743E+03  0.12499905696E+03 0.  0.
    9000005    1    3    3    0    0  0.88077085212E+02 -0.11711424139E+03  0.15634778231E+03  0.21428706799E+03  0.10000000000E+01 0.  0.
    9000005    1    3    3    0    0 -0.82342031113E+00  0.26495228237E+02  0.85464088747E+01  0.27869629438E+02  0.10000000000E+01 0.  0.
          4    1    1    2  501    0 -0.87253664901E+02  0.90619013155E+02  0.50458828462E+03  0.52003457333E+03  0.12700000000E+01 0.  1.
<mgrwt>
<rscale>  1 0.17734084E+03</rscale>
<asrwt>0</asrwt>
<pdfrwt beam="1">  1       21 0.11012740E+00 0.17734084E+03</pdfrwt>
<pdfrwt beam="2">  1        4 0.71315330E-02 0.17734084E+03</pdfrwt>
<totfact> 0.36577063E+03</totfact>
</mgrwt>
</event>
<event>
 6    4  0.6358868E-003  0.1270505E+03  0.7818608E-02  0.1231899E+00
          4   -1    0    0  502    0 -0.00000000000E+00  0.00000000000E+00  0.12410644082E+03  0.12411293870E+03  0.12700000000E+01 0.  1.
         21   -1    0    0  501  502  0.00000000000E+00 -0.00000000000E+00 -0.58472611658E+02  0.58472611658E+02  0.00000000000E+00 0. -1.
         25    2    1    2    0    0 -0.21324566591E+02  0.78820676561E+01  0.84859843941E+02  0.15278426389E+03  0.12499989620E+03 0.  0.
    9000005    1    3    3    0    0  0.48941543159E+02  0.24564045755E+02  0.38832464224E+02  0.67138865557E+02  0.10000000000E+01 0.  0.
    9000005    1    3    3    0    0 -0.70266109750E+02 -0.16681978099E+02  0.46027379717E+02  0.85645398337E+02  0.10000000000E+01 0.  0.
          4    1    1    2  501    0  0.21324566591E+02 -0.78820676561E+01 -0.19226014777E+02  0.29801286466E+02  0.12700000000E+01 0. -1.
<mgrwt>
<rscale>  1 0.12705053E+03</rscale>
<asrwt>0</asrwt>
<pdfrwt beam="2">  1       21 0.89957865E-02 0.12705053E+03</pdfrwt>
<pdfrwt beam="1">  1        4 0.19094859E-01 0.12705053E+03</pdfrwt>
<totfact> 0.95682505E+04</totfact>
</mgrwt>
</event>
<event>
 6    4  0.6358868E-003  0.1268999E+03  0.7818608E-02  0.1232130E+00
         21   -1    0    0  501  502  0.00000000000E+00  0.00000000000E+00  0.59910296553E+03  0.59910296553E+03  0.00000000000E+00 0. -1.
          4   -1    0    0  502    0 -0.00000000000E+00 -0.00000000000E+00 -0.51993254311E+02  0.52008762665E+02  0.12700000000E+01 0.  1.
         25    2    1    2    0    0  0.15209695423E+02  0.15711514012E+02  0.25992675743E+02  0.12953453921E+03  0.12500156458E+03 0.  0.
    9000005    1    3    3    0    0 -0.31946935750E+02  0.54675990677E+02  0.71156802615E+00  0.63337011213E+02  0.10000000000E+01 0.  0.
    9000005    1    3    3    0    0  0.47156631173E+02 -0.38964476665E+02  0.25281107717E+02  0.66197527996E+02  0.10000000000E+01 0.  0.
          4    1    1    2  501    0 -0.15209695423E+02 -0.15711514012E+02  0.52111703547E+03  0.52157718899E+03  0.12700000000E+01 0. -1.
<mgrwt>
<rscale>  1 0.12689987E+03</rscale>
<asrwt>0</asrwt>
<pdfrwt beam="1">  1       21 0.92169682E-01 0.12689987E+03</pdfrwt>
<pdfrwt beam="2">  1        4 0.80002591E-02 0.12689987E+03</pdfrwt>
<totfact> 0.45474328E+03</totfact>
</mgrwt>
</event>
<event>
 6    4  0.6358868E-003  0.1299017E+03  0.7818608E-02  0.1227602E+00
         21   -1    0    0  501  502  0.00000000000E+00  0.00000000000E+00  0.82691003767E+02  0.82691003767E+02  0.00000000000E+00 0. -1.
         -4   -1    0    0    0  501 -0.00000000000E+00 -0.00000000000E+00 -0.87000690587E+02  0.87009959560E+02  0.12700000000E+01 0.  1.
         25    2    1    2    0    0 -0.34483695282E+02 -0.76635099009E+01 -0.19259592884E+02  0.13132170831E+03  0.12500641796E+03 0.  0.
    9000005    1    3    3    0    0 -0.41367526749E+02  0.42751703226E+02 -0.44705976140E+02  0.74421802590E+02  0.10000000000E+01 0.  0.
    9000005    1    3    3    0    0  0.68838314676E+01 -0.50415213127E+02  0.25446383256E+02  0.56899905722E+02  0.10000000000E+01 0.  0.
         -4    1    1    2    0  502  0.34483695282E+02  0.76635099009E+01  0.14949906064E+02  0.38379255016E+02  0.12700000000E+01 0. -1.
<mgrwt>
<rscale>  1 0.12990173E+03</rscale>
<asrwt>0</asrwt>
<pdfrwt beam="1">  1       21 0.12721693E-01 0.12990173E+03</pdfrwt>
<pdfrwt beam="2">  1       -4 0.13386185E-01 0.12990173E+03</pdfrwt>
<totfact> 0.97383615E+04</totfact>
</mgrwt>
</event>
<event>
 6    4  0.6358868E-003  0.1285992E+03  0.7818608E-02  0.1229549E+00
          4   -1    0    0  502    0 -0.00000000000E+00  0.00000000000E+00  0.86494133314E+02  0.86503456566E+02  0.12700000000E+01 0. -1.
         21   -1    0    0  501  502  0.00000000000E+00 -0.00000000000E+00 -0.39856023312E+03  0.39856023312E+03  0.00000000000E+00 0.  1.
         25    2    1    2    0    0 -0.73077772679E+01 -0.29313642078E+02  0.37685621963E+02  0.13400732242E+03  0.12500025255E+03 0.  0.
    9000005    1    3    3    0    0  0.58688880807E+02 -0.10837297327E+02  0.22604654657E+02  0.63826343745E+02  0.10000000000E+01 0.  0.
    9000005    1    3    3    0    0 -0.65996658074E+02 -0.18476344750E+02  0.15080967306E+02  0.70180978671E+02  0.10000000000E+01 0.  0.
          4    1    1    2  501    0  0.73077772679E+01  0.29313642078E+02 -0.34975172177E+03  0.35105636727E+03  0.12700000000E+01 0.  1.
<mgrwt>
<rscale>  1 0.12859921E+03</rscale>
<asrwt>0</asrwt>
<pdfrwt beam="2">  1       21 0.61316958E-01 0.12859921E+03</pdfrwt>
<pdfrwt beam="1">  1        4 0.13307663E-01 0.12859921E+03</pdfrwt>
<totfact> 0.47452185E+03</totfact>
</mgrwt>
</event>
<event>
 6    4  0.6358868E-003  0.1297240E+03  0.7818608E-02  0.1227866E+00
         -4   -1    0    0    0  501 -0.00000000000E+00  0.00000000000E+00  0.46464861698E+02  0.46482214584E+02  0.12700000000E+01 0.  1.
         21   -1    0    0  501  502  0.00000000000E+00 -0.00000000000E+00 -0.15930649714E+03  0.15930649714E+03  0.00000000000E+00 0.  1.
         25    2    1    2    0    0 -0.34641867164E+02 -0.16475259643E+01 -0.60869605155E+02  0.14329488695E+03  0.12500216995E+03 0.  0.
    9000005    1    3    3    0    0 -0.21101459015E+02 -0.20218076256E+02  0.34479877284E+02  0.45209557813E+02  0.10000000000E+01 0.  0.
    9000005    1    3    3    0    0 -0.13540408149E+02  0.18570550292E+02 -0.95349482439E+02  0.98085329140E+02  0.10000000000E+01 0.  0.
         -4    1    1    2    0  502  0.34641867164E+02  0.16475259643E+01 -0.51972030287E+02  0.62493824771E+02  0.12700000000E+01 0. -1.
<mgrwt>
<rscale>  1 0.12972400E+03</rscale>
<asrwt>0</asrwt>
<pdfrwt beam="2">  1       21 0.24508692E-01 0.12972400E+03</pdfrwt>
<pdfrwt beam="1">  1       -4 0.71501644E-02 0.12972400E+03</pdfrwt>
<totfact> 0.84192844E+04</totfact>
</mgrwt>
</event>
<event>
 6    4  0.6358868E-003  0.1270194E+03  0.7818608E-02  0.1231947E+00
         21   -1    0    0  501  502  0.00000000000E+00  0.00000000000E+00  0.34960650240E+03  0.34960650240E+03  0.00000000000E+00 0. -1.
          4   -1    0    0  502    0 -0.00000000000E+00 -0.00000000000E+00 -0.31649615822E+02  0.31675086135E+02  0.12700000000E+01 0.  1.
         25    2    1    2    0    0  0.21300072682E+02  0.75135463435E+01  0.98695448591E+02  0.16085623255E+03  0.12499515791E+03 0.  0.
    9000005    1    3    3    0    0 -0.46854212193E+02 -0.30432596525E+01  0.73900558628E+02  0.87560671509E+02  0.10000000000E+01 0.  0.
    9000005    1    3    3    0    0  0.68154284874E+02  0.10556805996E+02  0.24794889963E+02  0.73295561038E+02  0.10000000000E+01 0.  0.
          4    1    1    2  501    0 -0.21300072682E+02 -0.75135463435E+01  0.21926143799E+03  0.22042535599E+03  0.12700000000E+01 0. -1.
<mgrwt>
<rscale>  1 0.12701943E+03</rscale>
<asrwt>0</asrwt>
<pdfrwt beam="1">  1       21 0.53785613E-01 0.12701943E+03</pdfrwt>
<pdfrwt beam="2">  1        4 0.48713086E-02 0.12701943E+03</pdfrwt>
<totfact> 0.33074671E+04</totfact>
</mgrwt>
</event>
<event>
 6    4  0.6358868E-003  0.1437263E+03  0.7818608E-02  0.1208401E+00
         21   -1    0    0  501  502  0.00000000000E+00  0.00000000000E+00  0.19350212583E+03  0.19350212583E+03  0.00000000000E+00 0.  1.
          4   -1    0    0  502    0 -0.00000000000E+00 -0.00000000000E+00 -0.75695979431E+02  0.75706632484E+02  0.12700000000E+01 0. -1.
         25    2    1    2    0    0  0.63107106978E+02  0.32383351943E+02  0.15286555501E+02  0.14453691766E+03  0.12500421334E+03 0.  0.
    9000005    1    3    3    0    0  0.49558732111E+01  0.67250556627E+02  0.32074374664E+02  0.74679070402E+02  0.10000000000E+01 0.  0.
    9000005    1    3    3    0    0  0.58151233767E+02 -0.34867204684E+02 -0.16787819164E+02  0.69857847257E+02  0.10000000000E+01 0.  0.
          4    1    1    2  501    0 -0.63107106978E+02 -0.32383351943E+02  0.10251959090E+03  0.12467184065E+03  0.12700000000E+01 0.  1.
<mgrwt>
<rscale>  1 0.14372627E+03</rscale>
<asrwt>0</asrwt>
<pdfrwt beam="1">  1       21 0.29769558E-01 0.14372627E+03</pdfrwt>
<pdfrwt beam="2">  1        4 0.11646675E-01 0.14372627E+03</pdfrwt>
<totfact> 0.25962926E+04</totfact>
</mgrwt>
</event>
<event>
 6    4  0.6358868E-003  0.1272458E+03  0.7818608E-02  0.1231601E+00
         -4   -1    0    0    0  501 -0.00000000000E+00  0.00000000000E+00  0.15149065927E+03  0.15149598260E+03  0.12700000000E+01 0.  1.
         21   -1    0    0  501  502  0.00000000000E+00 -0.00000000000E+00 -0.70032260487E+02  0.70032260487E+02  0.00000000000E+00 0.  1.
         25    2    1    2    0    0  0.16869499641E+02 -0.16783156598E+02  0.12085063540E+03  0.17548896020E+03  0.12500097884E+03 0.  0.
    9000005    1    3    3    0    0  0.67614407453E+02 -0.28571874723E+02  0.84619724615E+02  0.11202480937E+03  0.10000000000E+01 0.  0.
    9000005    1    3    3    0    0 -0.50744907812E+02  0.11788718125E+02  0.36230910783E+02  0.63464150826E+02  0.10000000000E+01 0.  0.
         -4    1    1    2    0  502 -0.16869499641E+02  0.16783156598E+02 -0.39392236619E+02  0.46039282894E+02  0.12700000000E+01 0. -1.
<mgrwt>
<rscale>  1 0.12724582E+03</rscale>
<asrwt>0</asrwt>
<pdfrwt beam="2">  1       21 0.10774194E-01 0.12724582E+03</pdfrwt>
<pdfrwt beam="1">  1       -4 0.23307550E-01 0.12724582E+03</pdfrwt>
<totfact> 0.48703866E+04</totfact>
</mgrwt>
</event>
<event>
 6    4  0.6358868E-003  0.1280896E+03  0.7818608E-02  0.1230318E+00
         21   -1    0    0  501  502  0.00000000000E+00  0.00000000000E+00  0.44971845247E+02  0.44971845247E+02  0.00000000000E+00 0.  1.
         -4   -1    0    0    0  501 -0.00000000000E+00 -0.00000000000E+00 -0.62175234617E+03  0.62175364322E+03  0.12700000000E+01 0. -1.
         25    2    1    2    0    0 -0.26783033247E+02 -0.80050483590E+01 -0.60999293552E+03  0.62329634640E+03  0.12500216949E+03 0.  0.
    9000005    1    3    3    0    0 -0.31209278669E+01  0.38562464188E+02 -0.63872399164E+02  0.74682576348E+02  0.10000000000E+01 0.  0.
    9000005    1    3    3    0    0 -0.23662105380E+02 -0.46567512547E+02 -0.54612053636E+03  0.54861377005E+03  0.10000000000E+01 0.  0.
         -4    1    1    2    0  502  0.26783033247E+02  0.80050483590E+01  0.33212434603E+02  0.43429142075E+02  0.12700000000E+01 0.  1.
<mgrwt>
<rscale>  1 0.12808963E+03</rscale>
<asrwt>0</asrwt>
<pdfrwt beam="1">  1       21 0.69187453E-02 0.12808963E+03</pdfrwt>
<pdfrwt beam="2">  1       -4 0.95655688E-01 0.12808963E+03</pdfrwt>
<totfact> 0.59800815E+03</totfact>
</mgrwt>
</event>
<event>
 6    4  0.6358868E-003  0.1296478E+03  0.7818608E-02  0.1227979E+00
         21   -1    0    0  501  502  0.00000000000E+00  0.00000000000E+00  0.98031343907E+02  0.98031343907E+02  0.00000000000E+00 0. -1.
          4   -1    0    0  502    0 -0.00000000000E+00 -0.00000000000E+00 -0.69031945727E+02  0.69043627011E+02  0.12700000000E+01 0. -1.
         25    2    1    2    0    0 -0.30958933277E+02  0.14987049496E+02  0.28023688863E+02  0.13264196189E+03  0.12500198284E+03 0.  0.
    9000005    1    3    3    0    0 -0.42075251747E+02 -0.92171951576E+01  0.70425168386E+02  0.82558996108E+02  0.10000000000E+01 0.  0.
    9000005    1    3    3    0    0  0.11116318470E+02  0.24204244654E+02 -0.42401479523E+02  0.50082965780E+02  0.10000000000E+01 0.  0.
          4    1    1    2  501    0  0.30958933277E+02 -0.14987049496E+02  0.97570931815E+00  0.34433009031E+02  0.12700000000E+01 0.  1.
<mgrwt>
<rscale>  1 0.12964784E+03</rscale>
<asrwt>0</asrwt>
<pdfrwt beam="1">  1       21 0.15081745E-01 0.12964784E+03</pdfrwt>
<pdfrwt beam="2">  1        4 0.10621831E-01 0.12964784E+03</pdfrwt>
<totfact> 0.10654579E+05</totfact>
</mgrwt>
</event>
<event>
 6    4  0.6358868E-003  0.1300865E+03  0.7818608E-02  0.1227327E+00
         21   -1    0    0  501  502  0.00000000000E+00  0.00000000000E+00  0.69928063905E+03  0.69928063905E+03  0.00000000000E+00 0. -1.
         -4   -1    0    0    0  501 -0.00000000000E+00 -0.00000000000E+00 -0.98956736601E+01  0.99768360308E+01  0.12700000000E+01 0.  1.
         25    2    1    2    0    0 -0.35392390236E+01 -0.35852151156E+02  0.51400005375E+03  0.53020613304E+03  0.12499834120E+03 0.  0.
    9000005    1    3    3    0    0 -0.56603496753E+02 -0.46599061713E+02  0.24184288813E+03  0.25271408931E+03  0.10000000000E+01 0.  0.
    9000005    1    3    3    0    0  0.53064257730E+02  0.10746910557E+02  0.27215716562E+03  0.27749204373E+03  0.10000000000E+01 0.  0.
         -4    1    1    2    0  502  0.35392390236E+01  0.35852151156E+02  0.17538491164E+03  0.17905134204E+03  0.12700000000E+01 0.  1.
<mgrwt>
<rscale>  1 0.13008646E+03</rscale>
<asrwt>0</asrwt>
<pdfrwt beam="1">  1       21 0.10758160E+00 0.13008646E+03</pdfrwt>
<pdfrwt beam="2">  1       -4 0.15287439E-02 0.13008646E+03</pdfrwt>
<totfact> 0.43386069E+04</totfact>
</mgrwt>
</event>
<event>
 6    4  0.6358868E-003  0.1280035E+03  0.7818608E-02  0.1230449E+00
         21   -1    0    0  501  502  0.00000000000E+00  0.00000000000E+00  0.15581411425E+03  0.15581411425E+03  0.00000000000E+00 0. -1.
         -4   -1    0    0    0  501 -0.00000000000E+00 -0.00000000000E+00 -0.65837103226E+02  0.65849351258E+02  0.12700000000E+01 0. -1.
         25    2    1    2    0    0  0.64386965428E+01 -0.26803527859E+02  0.47545571491E+00  0.12800436439E+03  0.12500002131E+03 0.  0.
    9000005    1    3    3    0    0  0.49493306165E+01 -0.77222176030E+02 -0.28963378678E+01  0.77441262370E+02  0.10000000000E+01 0.  0.
    9000005    1    3    3    0    0  0.14893659263E+01  0.50418648171E+02  0.33717935827E+01  0.50563102024E+02  0.10000000000E+01 0.  0.
         -4    1    1    2    0  502 -0.64386965428E+01  0.26803527859E+02  0.89501555307E+02  0.93659101112E+02  0.12700000000E+01 0.  1.
<mgrwt>
<rscale>  1 0.12800348E+03</rscale>
<asrwt>0</asrwt>
<pdfrwt beam="1">  1       21 0.23971402E-01 0.12800348E+03</pdfrwt>
<pdfrwt beam="2">  1       -4 0.10130125E-01 0.12800348E+03</pdfrwt>
<totfact> 0.49104215E+04</totfact>
</mgrwt>
</event>
<event>
 6    4  0.6358868E-003  0.1371702E+03  0.7818608E-02  0.1217188E+00
         -4   -1    0    0    0  501 -0.00000000000E+00  0.00000000000E+00  0.21547723548E+02  0.21585117329E+02  0.12700000000E+01 0.  1.
         21   -1    0    0  501  502  0.00000000000E+00 -0.00000000000E+00 -0.48938635429E+03  0.48938635429E+03  0.00000000000E+00 0.  1.
         25    2    1    2    0    0  0.28550791293E+02  0.48731333635E+02 -0.24197860988E+03  0.27815340427E+03  0.12500311238E+03 0.  0.
    9000005    1    3    3    0    0  0.47218943384E+02 -0.29909804604E+02 -0.88202742100E+02  0.10442676256E+03  0.10000000000E+01 0.  0.
    9000005    1    3    3    0    0 -0.18668152091E+02  0.78641138239E+02 -0.15377586778E+03  0.17372664171E+03  0.10000000000E+01 0.  0.
         -4    1    1    2    0  502 -0.28550791293E+02 -0.48731333635E+02 -0.22586002086E+03  0.23281806735E+03  0.12700000000E+01 0. -1.
<mgrwt>
<rscale>  1 0.13717022E+03</rscale>
<asrwt>0</asrwt>
<pdfrwt beam="2">  1       21 0.75290206E-01 0.13717022E+03</pdfrwt>
<pdfrwt beam="1">  1       -4 0.33180377E-02 0.13717022E+03</pdfrwt>
<totfact> 0.29776848E+04</totfact>
</mgrwt>
</event>
<event>
 6    4  0.6358868E-003  0.1288898E+03  0.7818608E-02  0.1229112E+00
         -4   -1    0    0    0  501 -0.00000000000E+00  0.00000000000E+00  0.15890142733E+04  0.15890147808E+04  0.12700000000E+01 0.  1.
         21   -1    0    0  501  502  0.00000000000E+00 -0.00000000000E+00 -0.42848020271E+01  0.42848020271E+01  0.00000000000E+00 0.  1.
         25    2    1    2    0    0 -0.18059535209E+02 -0.25716994271E+02  0.10946413612E+04  0.11022033814E+04  0.12500029423E+03 0.  0.
    9000005    1    3    3    0    0 -0.55484347511E+02 -0.21157696583E+02  0.25943706088E+03  0.26614798421E+03  0.10000000000E+01 0.  0.
    9000005    1    3    3    0    0  0.37424812302E+02 -0.45592976877E+01  0.83520430035E+03  0.83605539715E+03  0.10000000000E+01 0.  0.
         -4    1    1    2    0  502  0.18059535209E+02  0.25716994271E+02  0.49008811006E+03  0.49109620150E+03  0.12700000000E+01 0. -1.
<mgrwt>
<rscale>  1 0.12888981E+03</rscale>
<asrwt>0</asrwt>
<pdfrwt beam="2">  1       21 0.65920158E-03 0.12888981E+03</pdfrwt>
<pdfrwt beam="1">  1       -4 0.24447778E+00 0.12888981E+03</pdfrwt>
<totfact> 0.23120545E+04</totfact>
</mgrwt>
</event>
<event>
 6    4  0.6358868E-003  0.1552782E+03  0.7818608E-02  0.1194133E+00
         -4   -1    0    0    0  501 -0.00000000000E+00  0.00000000000E+00  0.59188523394E+02  0.59202146934E+02  0.12700000000E+01 0. -1.
         21   -1    0    0  501  502  0.00000000000E+00 -0.00000000000E+00 -0.25981805149E+03  0.25981805149E+03  0.00000000000E+00 0.  1.
         25    2    1    2    0    0 -0.52763886562E+02 -0.75502550625E+02 -0.13683521422E+03  0.20696668327E+03  0.12500667684E+03 0.  0.
    9000005    1    3    3    0    0 -0.36388699996E+02 -0.99363620404E+02 -0.53162713141E+02  0.11842525329E+03  0.10000000000E+01 0.  0.
    9000005    1    3    3    0    0 -0.16375186565E+02  0.23861069779E+02 -0.83672501082E+02  0.88541429982E+02  0.10000000000E+01 0.  0.
         -4    1    1    2    0  502  0.52763886562E+02  0.75502550625E+02 -0.63794313872E+02  0.11205351515E+03  0.12700000000E+01 0.  1.
<mgrwt>
<rscale>  1 0.15527824E+03</rscale>
<asrwt>0</asrwt>
<pdfrwt beam="2">  1       21 0.39972007E-01 0.15527824E+03</pdfrwt>
<pdfrwt beam="1">  1       -4 0.91072136E-02 0.15527824E+03</pdfrwt>
<totfact> 0.22191757E+04</totfact>
</mgrwt>
</event>
<event>
 6    4  0.6358868E-003  0.1266579E+03  0.7818608E-02  0.1232501E+00
         -4   -1    0    0    0  501 -0.00000000000E+00  0.00000000000E+00  0.68975693321E+03  0.68975810238E+03  0.12700000000E+01 0. -1.
         21   -1    0    0  501  502  0.00000000000E+00 -0.00000000000E+00 -0.10293719545E+02  0.10293719545E+02  0.00000000000E+00 0.  1.
         25    2    1    2    0    0 -0.20428043647E+02 -0.83938939500E+00  0.65913028336E+03  0.67118920776E+03  0.12499685050E+03 0.  0.
    9000005    1    3    3    0    0 -0.12337561416E+02 -0.57346404278E+02  0.46949289309E+03  0.47314416637E+03  0.10000000000E+01 0.  0.
    9000005    1    3    3    0    0 -0.80904822313E+01  0.56507014883E+02  0.18963739027E+03  0.19804504140E+03  0.10000000000E+01 0.  0.
         -4    1    1    2    0  502  0.20428043647E+02  0.83938939500E+00  0.20332930301E+02  0.28862614165E+02  0.12700000000E+01 0.  1.
<mgrwt>
<rscale>  1 0.12665789E+03</rscale>
<asrwt>0</asrwt>
<pdfrwt beam="2">  1       21 0.15836497E-02 0.12665789E+03</pdfrwt>
<pdfrwt beam="1">  1       -4 0.10612253E+00 0.12665789E+03</pdfrwt>
<totfact> 0.53433467E+04</totfact>
</mgrwt>
</event>
<event>
 6    4  0.6358868E-003  0.1270108E+03  0.7818608E-02  0.1231960E+00
         21   -1    0    0  501  502  0.00000000000E+00  0.00000000000E+00  0.83095167831E+03  0.83095167831E+03  0.00000000000E+00 0.  1.
         -4   -1    0    0    0  501 -0.00000000000E+00 -0.00000000000E+00 -0.96748240513E+01  0.97578235495E+01  0.12700000000E+01 0. -1.
         25    2    1    2    0    0 -0.14682569267E+02  0.17056550515E+02  0.41962106105E+03  0.43842167844E+03  0.12500091796E+03 0.  0.
    9000005    1    3    3    0    0 -0.22925803896E+02 -0.46843961350E+02  0.27770465659E+03  0.28256118894E+03  0.10000000000E+01 0.  0.
    9000005    1    3    3    0    0  0.82432346294E+01  0.63900511865E+02  0.14191640446E+03  0.15586048950E+03  0.10000000000E+01 0.  0.
         -4    1    1    2    0  502  0.14682569267E+02 -0.17056550515E+02  0.40165579321E+03  0.40228782342E+03  0.12700000000E+01 0.  1.
<mgrwt>
<rscale>  1 0.12701076E+03</rscale>
<asrwt>0</asrwt>
<pdfrwt beam="1">  1       21 0.12783866E+00 0.12701076E+03</pdfrwt>
<pdfrwt beam="2">  1       -4 0.14948944E-02 0.12701076E+03</pdfrwt>
<totfact> 0.29484510E+04</totfact>
</mgrwt>
</event>
<event>
 6    4  0.6358868E-003  0.1278702E+03  0.7818608E-02  0.1230651E+00
         -4   -1    0    0    0  501 -0.00000000000E+00  0.00000000000E+00  0.32271771872E+03  0.32272021764E+03  0.12700000000E+01 0.  1.
         21   -1    0    0  501  502  0.00000000000E+00 -0.00000000000E+00 -0.20451340861E+02  0.20451340861E+02  0.00000000000E+00 0.  1.
         25    2    1    2    0    0 -0.18987036608E+02  0.19098755921E+02  0.19977716609E+03  0.23719551656E+03  0.12500210778E+03 0.  0.
    9000005    1    3    3    0    0 -0.16949405641E+02 -0.49014143394E+02  0.12852806656E+03  0.13860062229E+03  0.10000000000E+01 0.  0.
    9000005    1    3    3    0    0 -0.20376309673E+01  0.68112899315E+02  0.71249099522E+02  0.98594894269E+02  0.10000000000E+01 0.  0.
         -4    1    1    2    0  502  0.18987036608E+02 -0.19098755921E+02  0.10248921177E+03  0.10597604194E+03  0.12700000000E+01 0. -1.
<mgrwt>
<rscale>  1 0.12787023E+03</rscale>
<asrwt>0</asrwt>
<pdfrwt beam="2">  1       21 0.31463604E-02 0.12787023E+03</pdfrwt>
<pdfrwt beam="1">  1       -4 0.49652101E-01 0.12787023E+03</pdfrwt>
<totfact> 0.91691177E+04</totfact>
</mgrwt>
</event>
<event>
 6    4  0.6358868E-003  0.1281502E+03  0.7818608E-02  0.1230227E+00
          4   -1    0    0  502    0 -0.00000000000E+00  0.00000000000E+00  0.23556888308E+02  0.23591097617E+02  0.12700000000E+01 0. -1.
         21   -1    0    0  501  502  0.00000000000E+00 -0.00000000000E+00 -0.12762347291E+04  0.12762347291E+04  0.00000000000E+00 0.  1.
         25    2    1    2    0    0 -0.28170905306E+02  0.20174065747E+01 -0.15211800438E+03  0.19890292466E+03  0.12499926539E+03 0.  0.
    9000005    1    3    3    0    0 -0.61521662152E+02  0.30346173045E+02 -0.13588118624E+03  0.15221859908E+03  0.10000000000E+01 0.  0.
    9000005    1    3    3    0    0  0.33350756846E+02 -0.28328766470E+02 -0.16236818138E+02  0.46684325583E+02  0.10000000000E+01 0.  0.
          4    1    1    2  501    0  0.28170905306E+02 -0.20174065747E+01 -0.11005598364E+04  0.11009229020E+04  0.12700000000E+01 0.  1.
<mgrwt>
<rscale>  1 0.12815025E+03</rscale>
<asrwt>0</asrwt>
<pdfrwt beam="2">  1       21 0.19634383E+00 0.12815025E+03</pdfrwt>
<pdfrwt beam="1">  1        4 0.36268164E-02 0.12815025E+03</pdfrwt>
<totfact> 0.23990701E+03</totfact>
</mgrwt>
</event>
<event>
 6    4  0.6358868E-003  0.1290267E+03  0.7818608E-02  0.1228907E+00
          4   -1    0    0  502    0 -0.00000000000E+00  0.00000000000E+00  0.45623085446E+02  0.45640758381E+02  0.12700000000E+01 0.  1.
         21   -1    0    0  501  502  0.00000000000E+00 -0.00000000000E+00 -0.16220985960E+03  0.16220985960E+03  0.00000000000E+00 0.  1.
         25    2    1    2    0    0  0.25647724368E+02 -0.19111193245E+02 -0.58806442096E+02  0.14179591985E+03  0.12499936712E+03 0.  0.
    9000005    1    3    3    0    0 -0.86755422228E+01  0.50068141359E+02 -0.31924198334E+02  0.60018649196E+02  0.10000000000E+01 0.  0.
    9000005    1    3    3    0    0  0.34323266591E+02 -0.69179334605E+02 -0.26882243762E+02  0.81777270653E+02  0.10000000000E+01 0.  0.
          4    1    1    2  501    0 -0.25647724368E+02  0.19111193245E+02 -0.57780332055E+02  0.66054698129E+02  0.12700000000E+01 0. -1.
<mgrwt>
<rscale>  1 0.12902668E+03</rscale>
<asrwt>0</asrwt>
<pdfrwt beam="2">  1       21 0.24955363E-01 0.12902668E+03</pdfrwt>
<pdfrwt beam="1">  1        4 0.70206782E-02 0.12902668E+03</pdfrwt>
<totfact> 0.83789213E+04</totfact>
</mgrwt>
</event>
<event>
 6    4  0.6358868E-003  0.1281728E+03  0.7818608E-02  0.1230192E+00
         21   -1    0    0  501  502  0.00000000000E+00  0.00000000000E+00  0.26864841875E+03  0.26864841875E+03  0.00000000000E+00 0.  1.
         -4   -1    0    0    0  501 -0.00000000000E+00 -0.00000000000E+00 -0.66591762723E+02  0.66603871979E+02  0.12700000000E+01 0. -1.
         25    2    1    2    0    0 -0.17483921187E+02  0.22298778609E+02 -0.30347820736E+01  0.12820873514E+03  0.12500138734E+03 0.  0.
    9000005    1    3    3    0    0 -0.71829988964E+02  0.13188058477E+02 -0.29007153230E+01  0.73095050108E+02  0.10000000000E+01 0.  0.
    9000005    1    3    3    0    0  0.54346067777E+02  0.91107201321E+01 -0.13406675065E+00  0.55113685034E+02  0.10000000000E+01 0.  0.
         -4    1    1    2    0  502  0.17483921187E+02 -0.22298778609E+02  0.20509143810E+03  0.20704355558E+03  0.12700000000E+01 0.  1.
<mgrwt>
<rscale>  1 0.12817281E+03</rscale>
<asrwt>0</asrwt>
<pdfrwt beam="1">  1       21 0.41330525E-01 0.12817281E+03</pdfrwt>
<pdfrwt beam="2">  1       -4 0.10246049E-01 0.12817281E+03</pdfrwt>
<totfact> 0.16738275E+04</totfact>
</mgrwt>
</event>
<event>
 6    4  0.6358868E-003  0.1370192E+03  0.7818608E-02  0.1217397E+00
          4   -1    0    0  502    0 -0.00000000000E+00  0.00000000000E+00  0.12939869428E+04  0.12939875660E+04  0.12700000000E+01 0.  1.
         21   -1    0    0  501  502  0.00000000000E+00 -0.00000000000E+00 -0.14729101407E+02  0.14729101407E+02  0.00000000000E+00 0. -1.
         25    2    1    2    0    0  0.19763090192E+02  0.52524759742E+02  0.12177897159E+04  0.12254738090E+04  0.12499933760E+03 0.  0.
    9000005    1    3    3    0    0 -0.34080249506E+02 -0.24736915887E+02  0.43673128336E+03  0.43875801107E+03  0.10000000000E+01 0.  0.
    9000005    1    3    3    0    0  0.53843339698E+02  0.77261675630E+02  0.78105843250E+03  0.78671579794E+03  0.10000000000E+01 0.  0.
          4    1    1    2  501    0 -0.19763090192E+02 -0.52524759742E+02  0.61468125485E+02  0.83242858375E+02  0.12700000000E+01 0. -1.
<mgrwt>
<rscale>  1 0.13701921E+03</rscale>
<asrwt>0</asrwt>
<pdfrwt beam="2">  1       21 0.22660166E-02 0.13701921E+03</pdfrwt>
<pdfrwt beam="1">  1        4 0.19907908E+00 0.13701921E+03</pdfrwt>
<totfact> 0.60972840E+03</totfact>
</mgrwt>
</event>
<event>
 6    4  0.6358868E-003  0.1268104E+03  0.7818608E-02  0.1232267E+00
         21   -1    0    0  501  502  0.00000000000E+00  0.00000000000E+00  0.10912036829E+03  0.10912036829E+03  0.00000000000E+00 0. -1.
          4   -1    0    0  502    0 -0.00000000000E+00 -0.00000000000E+00 -0.56297974316E+02  0.56312297166E+02  0.12700000000E+01 0. -1.
         25    2    1    2    0    0  0.85830526628E+00  0.21325277809E+02  0.23223406247E+02  0.12891941942E+03  0.12500154377E+03 0.  0.
    9000005    1    3    3    0    0 -0.38842122403E+01  0.26593879293E+02  0.73432441473E+02  0.78202589351E+02  0.10000000000E+01 0.  0.
    9000005    1    3    3    0    0  0.47425175066E+01 -0.52686014841E+01 -0.50209035226E+02  0.50716830069E+02  0.10000000000E+01 0.  0.
          4    1    1    2  501    0 -0.85830526628E+00 -0.21325277809E+02  0.29598987725E+02  0.36513246033E+02  0.12700000000E+01 0.  1.
<mgrwt>
<rscale>  1 0.12681045E+03</rscale>
<asrwt>0</asrwt>
<pdfrwt beam="1">  1       21 0.16787749E-01 0.12681045E+03</pdfrwt>
<pdfrwt beam="2">  1        4 0.86628970E-02 0.12681045E+03</pdfrwt>
<totfact> 0.12314016E+05</totfact>
</mgrwt>
</event>
<event>
 6    4  0.6358868E-003  0.1274651E+03  0.7818608E-02  0.1231266E+00
         -4   -1    0    0    0  501 -0.00000000000E+00  0.00000000000E+00  0.43226969638E+02  0.43245621790E+02  0.12700000000E+01 0. -1.
         21   -1    0    0  501  502  0.00000000000E+00 -0.00000000000E+00 -0.39000019688E+03  0.39000019688E+03  0.00000000000E+00 0.  1.
         25    2    1    2    0    0 -0.23631170784E+02  0.79417708957E+01 -0.52398982589E+02  0.13781509452E+03  0.12500337173E+03 0.  0.
    9000005    1    3    3    0    0  0.23716638168E+02 -0.23913137348E+02 -0.70334137741E+02  0.77988511947E+02  0.10000000000E+01 0.  0.
    9000005    1    3    3    0    0 -0.47347808953E+02  0.31854908244E+02  0.17935155153E+02  0.59826582572E+02  0.10000000000E+01 0.  0.
         -4    1    1    2    0  502  0.23631170784E+02 -0.79417708957E+01 -0.29437424465E+03  0.29543072415E+03  0.12700000000E+01 0.  1.
<mgrwt>
<rscale>  1 0.12746508E+03</rscale>
<asrwt>0</asrwt>
<pdfrwt beam="2">  1       21 0.60000031E-01 0.12746508E+03</pdfrwt>
<pdfrwt beam="1">  1       -4 0.66518968E-02 0.12746508E+03</pdfrwt>
<totfact> 0.15879310E+04</totfact>
</mgrwt>
</event>
<event>
 6    4  0.6358868E-003  0.1289960E+03  0.7818608E-02  0.1228953E+00
         21   -1    0    0  501  502  0.00000000000E+00  0.00000000000E+00  0.40388303654E+02  0.40388303654E+02  0.00000000000E+00 0. -1.
         -4   -1    0    0    0  501 -0.00000000000E+00 -0.00000000000E+00 -0.18371321097E+03  0.18371760064E+03  0.12700000000E+01 0. -1.
         25    2    1    2    0    0 -0.29588547258E+02 -0.11652506824E+02 -0.14257749625E+03  0.19227141721E+03  0.12501476871E+03 0.  0.
    9000005    1    3    3    0    0  0.63981047839E+01 -0.46340356820E+02 -0.64236688030E+01  0.47229523986E+02  0.10000000000E+01 0.  0.
    9000005    1    3    3    0    0 -0.35986652042E+02  0.34687849996E+02 -0.13615382745E+03  0.14504189323E+03  0.10000000000E+01 0.  0.
         -4    1    1    2    0  502  0.29588547258E+02  0.11652506824E+02 -0.74741106264E+00  0.31834487076E+02  0.12700000000E+01 0.  1.
<mgrwt>
<rscale>  1 0.12899595E+03</rscale>
<asrwt>0</asrwt>
<pdfrwt beam="1">  1       21 0.62135852E-02 0.12899595E+03</pdfrwt>
<pdfrwt beam="2">  1       -4 0.28265445E-01 0.12899595E+03</pdfrwt>
<totfact> 0.88356405E+04</totfact>
</mgrwt>
</event>
<event>
 6    4  0.6358868E-003  0.1337765E+03  0.7818608E-02  0.1221957E+00
          4   -1    0    0  502    0 -0.00000000000E+00  0.00000000000E+00  0.71833147185E+03  0.71833259452E+03  0.12700000000E+01 0. -1.
         21   -1    0    0  501  502  0.00000000000E+00 -0.00000000000E+00 -0.29318857283E+02  0.29318857283E+02  0.00000000000E+00 0.  1.
         25    2    1    2    0    0  0.24744322903E+02 -0.40721794540E+02  0.68704058902E+03  0.69994350853E+03  0.12500239240E+03 0.  0.
    9000005    1    3    3    0    0  0.72622962213E+02 -0.42883055792E+02  0.38577899244E+03  0.39489173468E+03  0.10000000000E+01 0.  0.
    9000005    1    3    3    0    0 -0.47878639310E+02  0.21612612524E+01  0.30126159658E+03  0.30505177385E+03  0.10000000000E+01 0.  0.
          4    1    1    2  501    0 -0.24744322903E+02  0.40721794540E+02  0.19720255461E+01  0.47707943272E+02  0.12700000000E+01 0.  1.
<mgrwt>
<rscale>  1 0.13377647E+03</rscale>
<asrwt>0</asrwt>
<pdfrwt beam="2">  1       21 0.45105940E-02 0.13377647E+03</pdfrwt>
<pdfrwt beam="1">  1        4 0.11051472E+00 0.13377647E+03</pdfrwt>
<totfact> 0.88430627E+03</totfact>
</mgrwt>
</event>
<event>
 6    4  0.6358868E-003  0.1388609E+03  0.7818608E-02  0.1214870E+00
         21   -1    0    0  501  502  0.00000000000E+00  0.00000000000E+00  0.10029513841E+04  0.10029513841E+04  0.00000000000E+00 0. -1.
         -4   -1    0    0    0  501 -0.00000000000E+00 -0.00000000000E+00 -0.14533153999E+02  0.14588538829E+02  0.12700000000E+01 0.  1.
         25    2    1    2    0    0  0.43693937655E+02 -0.41813064075E+02  0.35425575470E+03  0.38049898969E+03  0.12499939561E+03 0.  0.
    9000005    1    3    3    0    0  0.28103978685E+02 -0.53939917259E+02  0.35551579999E+03  0.36068245360E+03  0.10000000000E+01 0.  0.
    9000005    1    3    3    0    0  0.15589958970E+02  0.12126853184E+02 -0.12600452820E+01  0.19816536099E+02  0.10000000000E+01 0.  0.
         -4    1    1    2    0  502 -0.43693937655E+02  0.41813064075E+02  0.63416247541E+03  0.63704093324E+03  0.12700000000E+01 0. -1.
<mgrwt>
<rscale>  1 0.13886087E+03</rscale>
<asrwt>0</asrwt>
<pdfrwt beam="1">  1       21 0.15430016E+00 0.13886087E+03</pdfrwt>
<pdfrwt beam="2">  1       -4 0.22401929E-02 0.13886087E+03</pdfrwt>
<totfact> 0.98698754E+03</totfact>
</mgrwt>
</event>
<event>
 6    4  0.6358868E-003  0.1324482E+03  0.7818608E-02  0.1223868E+00
         -4   -1    0    0    0  501 -0.00000000000E+00  0.00000000000E+00  0.39539399914E+03  0.39539603875E+03  0.12700000000E+01 0.  1.
         21   -1    0    0  501  502  0.00000000000E+00 -0.00000000000E+00 -0.22373548873E+02  0.22373548873E+02  0.00000000000E+00 0.  1.
         25    2    1    2    0    0 -0.43621158945E+02 -0.37252516311E+01  0.33326235183E+03  0.35861722250E+03  0.12500333644E+03 0.  0.
    9000005    1    3    3    0    0 -0.59051626073E+02  0.12265602073E+02  0.62205205227E+02  0.86648872430E+02  0.10000000000E+01 0.  0.
    9000005    1    3    3    0    0  0.15430467128E+02 -0.15990853704E+02  0.27105714660E+03  0.27196835007E+03  0.10000000000E+01 0.  0.
         -4    1    1    2    0  502  0.43621158945E+02  0.37252516311E+01  0.39758098443E+02  0.59152365120E+02  0.12700000000E+01 0. -1.
<mgrwt>
<rscale>  1 0.13244817E+03</rscale>
<asrwt>0</asrwt>
<pdfrwt beam="2">  1       21 0.34420847E-02 0.13244817E+03</pdfrwt>
<pdfrwt beam="1">  1       -4 0.60832770E-01 0.13244817E+03</pdfrwt>
<totfact> 0.52227569E+04</totfact>
</mgrwt>
</event>
<event>
 6    4  0.6358868E-003  0.1294123E+03  0.7818608E-02  0.1228330E+00
          4   -1    0    0  502    0 -0.00000000000E+00  0.00000000000E+00  0.36937727664E+02  0.36959553907E+02  0.12700000000E+01 0.  1.
         21   -1    0    0  501  502  0.00000000000E+00 -0.00000000000E+00 -0.19872113868E+03  0.19872113868E+03  0.00000000000E+00 0. -1.
         25    2    1    2    0    0  0.61856280556E+01 -0.32887149064E+02 -0.93588437795E+02  0.15970705347E+03  0.12501088221E+03 0.  0.
    9000005    1    3    3    0    0 -0.37278871505E+02  0.13477447893E+02 -0.87242705635E+02  0.95831339075E+02  0.10000000000E+01 0.  0.
    9000005    1    3    3    0    0  0.43464499561E+02 -0.46364596956E+02 -0.63457321606E+01  0.63875714396E+02  0.10000000000E+01 0.  0.
          4    1    1    2  501    0 -0.61856280556E+01  0.32887149064E+02 -0.68194973223E+02  0.75973639118E+02  0.12700000000E+01 0. -1.
<mgrwt>
<rscale>  1 0.12941231E+03</rscale>
<asrwt>0</asrwt>
<pdfrwt beam="2">  1       21 0.30572483E-01 0.12941231E+03</pdfrwt>
<pdfrwt beam="1">  1        4 0.56847184E-02 0.12941231E+03</pdfrwt>
<totfact> 0.80204959E+04</totfact>
</mgrwt>
</event>
<event>
 6    4  0.6358868E-003  0.1273698E+03  0.7818608E-02  0.1231412E+00
         21   -1    0    0  501  502  0.00000000000E+00  0.00000000000E+00  0.14317404499E+03  0.14317404499E+03  0.00000000000E+00 0. -1.
         -4   -1    0    0    0  501 -0.00000000000E+00 -0.00000000000E+00 -0.96109654455E+02  0.96118045026E+02  0.12700000000E+01 0.  1.
         25    2    1    2    0    0  0.52646485165E+01  0.23813423334E+02 -0.51767249356E+02  0.13748785828E+03  0.12501306898E+03 0.  0.
    9000005    1    3    3    0    0 -0.11864062606E+02 -0.12693424035E+02  0.36501910137E+02  0.40438452480E+02  0.10000000000E+01 0.  0.
    9000005    1    3    3    0    0  0.17128711123E+02  0.36506847369E+02 -0.88269159493E+02  0.97049405805E+02  0.10000000000E+01 0.  0.
         -4    1    1    2    0  502 -0.52646485165E+01 -0.23813423334E+02  0.98831639886E+02  0.10180423173E+03  0.12700000000E+01 0. -1.
<mgrwt>
<rscale>  1 0.12736979E+03</rscale>
<asrwt>0</asrwt>
<pdfrwt beam="1">  1       21 0.22026776E-01 0.12736979E+03</pdfrwt>
<pdfrwt beam="2">  1       -4 0.14787179E-01 0.12736979E+03</pdfrwt>
<totfact> 0.30095036E+04</totfact>
</mgrwt>
</event>
<event>
 6    4  0.6358868E-003  0.1437918E+03  0.7818608E-02  0.1208316E+00
          4   -1    0    0  502    0 -0.00000000000E+00  0.00000000000E+00  0.12294280170E+03  0.12294936108E+03  0.12700000000E+01 0.  1.
         21   -1    0    0  501  502  0.00000000000E+00 -0.00000000000E+00 -0.17073960625E+03  0.17073960625E+03  0.00000000000E+00 0. -1.
         25    2    1    2    0    0 -0.59124621478E+02  0.39416430522E+02  0.67029856233E+02  0.15864767444E+03  0.12500682828E+03 0.  0.
    9000005    1    3    3    0    0 -0.35929266391E+02  0.49015892688E+02  0.10010485849E+03  0.11711299079E+03  0.10000000000E+01 0.  0.
    9000005    1    3    3    0    0 -0.23195355086E+02 -0.95994621659E+01 -0.33075002253E+02  0.41534683645E+02  0.10000000000E+01 0.  0.
          4    1    1    2  501    0  0.59124621478E+02 -0.39416430522E+02 -0.11482666078E+03  0.13504129289E+03  0.12700000000E+01 0. -1.
<mgrwt>
<rscale>  1 0.14379180E+03</rscale>
<asrwt>0</asrwt>
<pdfrwt beam="2">  1       21 0.26267632E-01 0.14379180E+03</pdfrwt>
<pdfrwt beam="1">  1        4 0.18915145E-01 0.14379180E+03</pdfrwt>
<totfact> 0.14147949E+04</totfact>
</mgrwt>
</event>
<event>
 6    4  0.6358868E-003  0.1283687E+03  0.7818608E-02  0.1229897E+00
         21   -1    0    0  501  502  0.00000000000E+00  0.00000000000E+00  0.13742063113E+03  0.13742063113E+03  0.00000000000E+00 0.  1.
         -4   -1    0    0    0  501 -0.00000000000E+00 -0.00000000000E+00 -0.47208375074E+02  0.47225454759E+02  0.12700000000E+01 0. -1.
         25    2    1    2    0    0 -0.28190679340E+02  0.73922181840E+01  0.57037639787E+02  0.14046999104E+03  0.12501666585E+03 0.  0.
    9000005    1    3    3    0    0 -0.70891132307E+02  0.33276715119E+02  0.37603558076E+02  0.86878766042E+02  0.10000000000E+01 0.  0.
    9000005    1    3    3    0    0  0.42700452968E+02 -0.25884496935E+02  0.19434081711E+02  0.53591225001E+02  0.10000000000E+01 0.  0.
         -4    1    1    2    0  502  0.28190679340E+02 -0.73922181840E+01  0.33174616271E+02  0.44176094848E+02  0.12700000000E+01 0.  1.
<mgrwt>
<rscale>  1 0.12836871E+03</rscale>
<asrwt>0</asrwt>
<pdfrwt beam="1">  1       21 0.21141635E-01 0.12836871E+03</pdfrwt>
<pdfrwt beam="2">  1       -4 0.72645923E-02 0.12836871E+03</pdfrwt>
<totfact> 0.10801566E+05</totfact>
</mgrwt>
</event>
<event>
 6    4  0.6358868E-003  0.1392433E+03  0.7818608E-02  0.1214351E+00
         21   -1    0    0  501  502  0.00000000000E+00  0.00000000000E+00  0.18241147168E+02  0.18241147168E+02  0.00000000000E+00 0. -1.
          4   -1    0    0  502    0 -0.00000000000E+00 -0.00000000000E+00 -0.56127394867E+03  0.56127538549E+03  0.12700000000E+01 0.  1.
         25    2    1    2    0    0  0.30611082253E+02  0.53158510157E+02 -0.41043550858E+03  0.43341204762E+03  0.12500332298E+03 0.  0.
    9000005    1    3    3    0    0  0.32036528244E+02  0.13900139927E+02 -0.38504356882E+03  0.38662527455E+03  0.10000000000E+01 0.  0.
    9000005    1    3    3    0    0 -0.14254459912E+01  0.39258370230E+02 -0.25391939767E+02  0.46786773072E+02  0.10000000000E+01 0.  0.
          4    1    1    2  501    0 -0.30611082253E+02 -0.53158510157E+02 -0.13259729292E+03  0.14610448504E+03  0.12700000000E+01 0. -1.
<mgrwt>
<rscale>  1 0.13924330E+03</rscale>
<asrwt>0</asrwt>
<pdfrwt beam="1">  1       21 0.28063305E-02 0.13924330E+03</pdfrwt>
<pdfrwt beam="2">  1        4 0.86353345E-01 0.13924330E+03</pdfrwt>
<totfact> 0.34350801E+04</totfact>
</mgrwt>
</event>
<event>
 6    4  0.6358868E-003  0.1318316E+03  0.7818608E-02  0.1224763E+00
         21   -1    0    0  501  502  0.00000000000E+00  0.00000000000E+00  0.72035012120E+02  0.72035012120E+02  0.00000000000E+00 0.  1.
          4   -1    0    0  502    0 -0.00000000000E+00 -0.00000000000E+00 -0.10508428843E+03  0.10509196246E+03  0.12700000000E+01 0.  1.
         25    2    1    2    0    0  0.12349908771E+02 -0.40022632095E+02 -0.29355887674E+02  0.13506053492E+03  0.12500099450E+03 0.  0.
    9000005    1    3    3    0    0 -0.19760498768E+02  0.28204451091E+01 -0.66794864523E+02  0.69720772721E+02  0.10000000000E+01 0.  0.
    9000005    1    3    3    0    0  0.32110407539E+02 -0.42843077204E+02  0.37438976849E+02  0.65339762199E+02  0.10000000000E+01 0.  0.
          4    1    1    2  501    0 -0.12349908771E+02  0.40022632095E+02 -0.36933886360E+01  0.42066439665E+02  0.12700000000E+01 0. -1.
<mgrwt>
<rscale>  1 0.13183163E+03</rscale>
<asrwt>0</asrwt>
<pdfrwt beam="1">  1       21 0.11082310E-01 0.13183163E+03</pdfrwt>
<pdfrwt beam="2">  1        4 0.16168265E-01 0.13183163E+03</pdfrwt>
<totfact> 0.89672716E+04</totfact>
</mgrwt>
</event>
<event>
 6    4  0.6358868E-003  0.1272685E+03  0.7818608E-02  0.1231566E+00
         -4   -1    0    0    0  501 -0.00000000000E+00  0.00000000000E+00  0.58520758824E+02  0.58534537782E+02  0.12700000000E+01 0. -1.
         21   -1    0    0  501  502  0.00000000000E+00 -0.00000000000E+00 -0.10665480532E+03  0.10665480532E+03  0.00000000000E+00 0. -1.
         25    2    1    2    0    0  0.11206702443E+02  0.21133283372E+02 -0.20991566520E+02  0.12898805908E+03  0.12500027070E+03 0.  0.
    9000005    1    3    3    0    0  0.65353628278E+02  0.26905423837E+02 -0.17522837812E+00  0.70682595212E+02  0.10000000000E+01 0.  0.
    9000005    1    3    3    0    0 -0.54146925836E+02 -0.57721404646E+01 -0.20816338142E+02  0.58305463866E+02  0.10000000000E+01 0.  0.
         -4    1    1    2    0  502 -0.11206702443E+02 -0.21133283372E+02 -0.27142479981E+02  0.36201284027E+02  0.12700000000E+01 0.  1.
<mgrwt>
<rscale>  1 0.12726851E+03</rscale>
<asrwt>0</asrwt>
<pdfrwt beam="2">  1       21 0.16408432E-01 0.12726851E+03</pdfrwt>
<pdfrwt beam="1">  1       -4 0.90048353E-02 0.12726851E+03</pdfrwt>
<totfact> 0.12040458E+05</totfact>
</mgrwt>
</event>
<event>
 6    4  0.6358868E-003  0.1290847E+03  0.7818608E-02  0.1228820E+00
         -4   -1    0    0    0  501 -0.00000000000E+00  0.00000000000E+00  0.48234433722E+03  0.48234600915E+03  0.12700000000E+01 0. -1.
         21   -1    0    0  501  502  0.00000000000E+00 -0.00000000000E+00 -0.13534001019E+02  0.13534001019E+02  0.00000000000E+00 0. -1.
         25    2    1    2    0    0 -0.16777376761E+02 -0.27493832667E+02  0.36297992484E+03  0.38524963426E+03  0.12500185461E+03 0.  0.
    9000005    1    3    3    0    0 -0.22255603959E+02 -0.62725807848E+02  0.10170668941E+03  0.12155282616E+03  0.10000000000E+01 0.  0.
    9000005    1    3    3    0    0  0.54782271987E+01  0.35231975181E+02  0.26127323543E+03  0.26369680810E+03  0.10000000000E+01 0.  0.
         -4    1    1    2    0  502  0.16777376761E+02  0.27493832667E+02  0.10583041136E+03  0.11063037591E+03  0.12700000000E+01 0.  1.
<mgrwt>
<rscale>  1 0.12908468E+03</rscale>
<asrwt>0</asrwt>
<pdfrwt beam="2">  1       21 0.20821544E-02 0.12908468E+03</pdfrwt>
<pdfrwt beam="1">  1       -4 0.74211520E-01 0.12908468E+03</pdfrwt>
<totfact> 0.77274227E+04</totfact>
</mgrwt>
</event>
<event>
 6    4  0.6358868E-003  0.1332613E+03  0.7818608E-02  0.1222695E+00
         21   -1    0    0  501  502  0.00000000000E+00  0.00000000000E+00  0.10589195071E+03  0.10589195071E+03  0.00000000000E+00 0. -1.
         -4   -1    0    0    0  501 -0.00000000000E+00 -0.00000000000E+00 -0.77247116242E+02  0.77257555409E+02  0.12700000000E+01 0. -1.
         25    2    1    2    0    0 -0.45874117048E+02 -0.53936982517E+01  0.11098621147E+02  0.13372270066E+03  0.12500021874E+03 0.  0.
    9000005    1    3    3    0    0  0.26077930930E+02  0.76342563762E+01  0.45422709662E+02  0.52939237858E+02  0.10000000000E+01 0.  0.
    9000005    1    3    3    0    0 -0.71952047978E+02 -0.13027954628E+02 -0.34324088515E+02  0.80783462803E+02  0.10000000000E+01 0.  0.
         -4    1    1    2    0  502  0.45874117048E+02  0.53936982517E+01  0.17546213319E+02  0.49426805456E+02  0.12700000000E+01 0.  1.
<mgrwt>
<rscale>  1 0.13326133E+03</rscale>
<asrwt>0</asrwt>
<pdfrwt beam="1">  1       21 0.16291069E-01 0.13326133E+03</pdfrwt>
<pdfrwt beam="2">  1       -4 0.11885561E-01 0.13326133E+03</pdfrwt>
<totfact> 0.76830353E+04</totfact>
</mgrwt>
</event>
<event>
 6    4  0.6358868E-003  0.1301838E+03  0.7818608E-02  0.1227183E+00
         21   -1    0    0  501  502  0.00000000000E+00  0.00000000000E+00  0.14502503662E+03  0.14502503662E+03  0.00000000000E+00 0. -1.
          4   -1    0    0  502    0 -0.00000000000E+00 -0.00000000000E+00 -0.73358846539E+02  0.73369838936E+02  0.12700000000E+01 0.  1.
         25    2    1    2    0    0  0.50341686041E+01  0.36020823040E+02 -0.83909552050E+01  0.13045397519E+03  0.12499995587E+03 0.  0.
    9000005    1    3    3    0    0  0.24238110981E+02  0.62580382639E+02 -0.45383025239E+02  0.81021042298E+02  0.10000000000E+01 0.  0.
    9000005    1    3    3    0    0 -0.19203942377E+02 -0.26559559599E+02  0.36992070034E+02  0.49432932892E+02  0.10000000000E+01 0.  0.
          4    1    1    2  501    0 -0.50341686041E+01 -0.36020823040E+02  0.80057145285E+02  0.87940900366E+02  0.12700000000E+01 0. -1.
<mgrwt>
<rscale>  1 0.13018384E+03</rscale>
<asrwt>0</asrwt>
<pdfrwt beam="1">  1       21 0.22311544E-01 0.13018384E+03</pdfrwt>
<pdfrwt beam="2">  1        4 0.11287250E-01 0.13018384E+03</pdfrwt>
<totfact> 0.46874621E+04</totfact>
</mgrwt>
</event>
<event>
 6    4  0.6358868E-003  0.1280458E+03  0.7818608E-02  0.1230385E+00
          4   -1    0    0  502    0 -0.00000000000E+00  0.00000000000E+00  0.15838349884E+04  0.15838354976E+04  0.12700000000E+01 0.  1.
         21   -1    0    0  501  502  0.00000000000E+00 -0.00000000000E+00 -0.55084719535E+01  0.55084719535E+01  0.00000000000E+00 0. -1.
         25    2    1    2    0    0  0.10263434366E+02 -0.25800060282E+02  0.15122225674E+04  0.15176339551E+04  0.12499898806E+03 0.  0.
    9000005    1    3    3    0    0  0.22962072614E+02 -0.14287561292E+02  0.14862676352E+04  0.14865140009E+04  0.10000000000E+01 0.  0.
    9000005    1    3    3    0    0 -0.12698638248E+02 -0.11512498990E+02  0.25954932159E+02  0.31119954205E+02  0.10000000000E+01 0.  0.
          4    1    1    2  501    0 -0.10263434366E+02  0.25800060282E+02  0.66103949101E+02  0.71710014519E+02  0.12700000000E+01 0. -1.
<mgrwt>
<rscale>  1 0.12804581E+03</rscale>
<asrwt>0</asrwt>
<pdfrwt beam="2">  1       21 0.84745849E-03 0.12804581E+03</pdfrwt>
<pdfrwt beam="1">  1        4 0.24367786E+00 0.12804581E+03</pdfrwt>
<totfact> 0.15774856E+04</totfact>
</mgrwt>
</event>
<event>
 6    4  0.6358868E-003  0.1373634E+03  0.7818608E-02  0.1216921E+00
         21   -1    0    0  501  502  0.00000000000E+00  0.00000000000E+00  0.34472286055E+02  0.34472286055E+02  0.00000000000E+00 0. -1.
          4   -1    0    0  502    0 -0.00000000000E+00 -0.00000000000E+00 -0.41020574207E+03  0.41020770803E+03  0.12700000000E+01 0.  1.
         25    2    1    2    0    0 -0.22228944837E+02 -0.52439110738E+02 -0.36038861207E+03  0.38567945629E+03  0.12499881990E+03 0.  0.
    9000005    1    3    3    0    0  0.48112625737E+02 -0.10627074639E+02 -0.83586358259E+02  0.97033183796E+02  0.10000000000E+01 0.  0.
    9000005    1    3    3    0    0 -0.70341570574E+02 -0.41812036099E+02 -0.27680225381E+03  0.28864627250E+03  0.10000000000E+01 0.  0.
          4    1    1    2  501    0  0.22228944837E+02  0.52439110738E+02 -0.15344843945E+02  0.59000537788E+02  0.12700000000E+01 0. -1.
<mgrwt>
<rscale>  1 0.13736336E+03</rscale>
<asrwt>0</asrwt>
<pdfrwt beam="1">  1       21 0.53034285E-02 0.13736336E+03</pdfrwt>
<pdfrwt beam="2">  1        4 0.63110527E-01 0.13736336E+03</pdfrwt>
<totfact> 0.23593924E+04</totfact>
</mgrwt>
</event>
<event>
 6    4  0.6358868E-003  0.1282822E+03  0.7818608E-02  0.1230027E+00
         21   -1    0    0  501  502  0.00000000000E+00  0.00000000000E+00  0.32803878244E+02  0.32803878244E+02  0.00000000000E+00 0.  1.
         -4   -1    0    0    0  501 -0.00000000000E+00 -0.00000000000E+00 -0.19444254604E+03  0.19444669349E+03  0.12700000000E+01 0.  1.
         25    2    1    2    0    0  0.28234279545E+02  0.58450133703E+01 -0.11434449499E+03  0.17184578491E+03  0.12499988613E+03 0.  0.
    9000005    1    3    3    0    0 -0.74363260026E+01 -0.53236783761E+02 -0.75369470363E+02  0.92579755630E+02  0.10000000000E+01 0.  0.
    9000005    1    3    3    0    0  0.35670605547E+02  0.59081797131E+02 -0.38975024629E+02  0.79266029276E+02  0.10000000000E+01 0.  0.
         -4    1    1    2    0  502 -0.28234279545E+02 -0.58450133703E+01 -0.47294172804E+02  0.55404786832E+02  0.12700000000E+01 0. -1.
<mgrwt>
<rscale>  1 0.12828215E+03</rscale>
<asrwt>0</asrwt>
<pdfrwt beam="1">  1       21 0.50467505E-02 0.12828215E+03</pdfrwt>
<pdfrwt beam="2">  1       -4 0.29916448E-01 0.12828215E+03</pdfrwt>
<totfact> 0.11275173E+05</totfact>
</mgrwt>
</event>
<event>
 6    4  0.6358868E-003  0.2397882E+03  0.7818608E-02  0.1119934E+00
         21   -1    0    0  501  502  0.00000000000E+00  0.00000000000E+00  0.11343006352E+04  0.11343006352E+04  0.00000000000E+00 0. -1.
         -4   -1    0    0    0  501 -0.00000000000E+00 -0.00000000000E+00 -0.19906609312E+03  0.19907014424E+03  0.12700000000E+01 0.  1.
         25    2    1    2    0    0  0.19726482383E+03  0.54402046580E+02 -0.11319117745E+03  0.26516148550E+03  0.12500150938E+03 0.  0.
    9000005    1    3    3    0    0  0.19886441757E+03  0.19948530825E+02 -0.74447622201E+02  0.21328021218E+03  0.10000000000E+01 0.  0.
    9000005    1    3    3    0    0 -0.15995937363E+01  0.34453515755E+02 -0.38743555245E+02  0.51881273317E+02  0.10000000000E+01 0.  0.
         -4    1    1    2    0  502 -0.19726482383E+03 -0.54402046580E+02  0.10484257196E+04  0.10682092940E+04  0.12700000000E+01 0. -1.
<mgrwt>
<rscale>  1 0.23978818E+03</rscale>
<asrwt>0</asrwt>
<pdfrwt beam="1">  1       21 0.17450779E+00 0.23978818E+03</pdfrwt>
<pdfrwt beam="2">  1       -4 0.30625920E-01 0.23978818E+03</pdfrwt>
<totfact> 0.83736442E+01</totfact>
</mgrwt>
</event>
<event>
 6    4  0.6358868E-003  0.1559514E+03  0.7818608E-02  0.1193345E+00
          4   -1    0    0  502    0 -0.00000000000E+00  0.00000000000E+00  0.48710703525E+02  0.48727256622E+02  0.12700000000E+01 0.  1.
         21   -1    0    0  501  502  0.00000000000E+00 -0.00000000000E+00 -0.33434741700E+03  0.33434741700E+03  0.00000000000E+00 0.  1.
         25    2    1    2    0    0 -0.27648811674E+02 -0.89055310726E+02 -0.21725403478E+03  0.26743251522E+03  0.12500211762E+03 0.  0.
    9000005    1    3    3    0    0  0.39764772514E+02  0.47728292536E+01 -0.64001602120E+02  0.75506437514E+02  0.10000000000E+01 0.  0.
    9000005    1    3    3    0    0 -0.67413584188E+02 -0.93828139980E+02 -0.15325243266E+03  0.19192607770E+03  0.10000000000E+01 0.  0.
          4    1    1    2  501    0  0.27648811674E+02  0.89055310726E+02 -0.68382678692E+02  0.11564215841E+03  0.12700000000E+01 0. -1.
<mgrwt>
<rscale>  1 0.15595139E+03</rscale>
<asrwt>0</asrwt>
<pdfrwt beam="2">  1       21 0.51438067E-01 0.15595139E+03</pdfrwt>
<pdfrwt beam="1">  1        4 0.74954128E-02 0.15595139E+03</pdfrwt>
<totfact> 0.18333226E+04</totfact>
</mgrwt>
</event>
<event>
 6    4  0.6358868E-003  0.1274164E+03  0.7818608E-02  0.1231340E+00
         21   -1    0    0  501  502  0.00000000000E+00  0.00000000000E+00  0.27846063710E+03  0.27846063710E+03  0.00000000000E+00 0.  1.
          4   -1    0    0  502    0 -0.00000000000E+00 -0.00000000000E+00 -0.42725701682E+02  0.42744572570E+02  0.12700000000E+01 0. -1.
         25    2    1    2    0    0  0.11185266357E+02  0.22023818582E+02  0.54990770041E+02  0.13877652501E+03  0.12499912134E+03 0.  0.
    9000005    1    3    3    0    0 -0.51971088683E+02  0.30158389863E+02  0.43191096651E+02  0.74006711641E+02  0.10000000000E+01 0.  0.
    9000005    1    3    3    0    0  0.63156355040E+02 -0.81345712807E+01  0.11799673390E+02  0.64769813370E+02  0.10000000000E+01 0.  0.
          4    1    1    2  501    0 -0.11185266357E+02 -0.22023818582E+02  0.18074416538E+03  0.18242868466E+03  0.12700000000E+01 0.  1.
<mgrwt>
<rscale>  1 0.12741640E+03</rscale>
<asrwt>0</asrwt>
<pdfrwt beam="1">  1       21 0.42840097E-01 0.12741640E+03</pdfrwt>
<pdfrwt beam="2">  1        4 0.65748594E-02 0.12741640E+03</pdfrwt>
<totfact> 0.32478353E+04</totfact>
</mgrwt>
</event>
<event>
 6    4  0.6358868E-003  0.1286867E+03  0.7818608E-02  0.1229418E+00
         -4   -1    0    0    0  501 -0.00000000000E+00  0.00000000000E+00  0.63314491037E+03  0.63314618409E+03  0.12700000000E+01 0.  1.
         21   -1    0    0  501  502  0.00000000000E+00 -0.00000000000E+00 -0.10135008393E+02  0.10135008393E+02  0.00000000000E+00 0. -1.
         25    2    1    2    0    0 -0.13096911934E+02  0.27638053217E+02  0.52830514610E+03  0.54375232846E+03  0.12499950489E+03 0.  0.
    9000005    1    3    3    0    0 -0.40660397947E+02  0.32140587316E+02  0.84953639153E+02  0.99520882832E+02  0.10000000000E+01 0.  0.
    9000005    1    3    3    0    0  0.27563486013E+02 -0.45025340986E+01  0.44335150694E+03  0.44423144562E+03  0.10000000000E+01 0.  0.
         -4    1    1    2    0  502  0.13096911934E+02 -0.27638053217E+02  0.94704755880E+02  0.99528864025E+02  0.12700000000E+01 0. -1.
<mgrwt>
<rscale>  1 0.12868670E+03</rscale>
<asrwt>0</asrwt>
<pdfrwt beam="2">  1       21 0.15592326E-02 0.12868670E+03</pdfrwt>
<pdfrwt beam="1">  1       -4 0.97413097E-01 0.12868670E+03</pdfrwt>
<totfact> 0.66958883E+04</totfact>
</mgrwt>
</event>
<event>
 6    4  0.6358868E-003  0.1271061E+03  0.7818608E-02  0.1231814E+00
         21   -1    0    0  501  502  0.00000000000E+00  0.00000000000E+00  0.62384367737E+02  0.62384367737E+02  0.00000000000E+00 0. -1.
          4   -1    0    0  502    0 -0.00000000000E+00 -0.00000000000E+00 -0.12562567404E+03  0.12563209335E+03  0.12700000000E+01 0.  1.
         25    2    1    2    0    0  0.14389404185E+02 -0.17995792995E+02 -0.87672474852E+02  0.15440993769E+03  0.12500024997E+03 0.  0.
    9000005    1    3    3    0    0 -0.30774221224E+01  0.53011176311E+02 -0.28095371208E+02  0.60083319018E+02  0.10000000000E+01 0.  0.
    9000005    1    3    3    0    0  0.17466826307E+02 -0.71006969307E+02 -0.59577103644E+02  0.94326618671E+02  0.10000000000E+01 0.  0.
          4    1    1    2  501    0 -0.14389404185E+02  0.17995792995E+02  0.24431168545E+02  0.33606523397E+02  0.12700000000E+01 0. -1.
<mgrwt>
<rscale>  1 0.12710612E+03</rscale>
<asrwt>0</asrwt>
<pdfrwt beam="1">  1       21 0.95975952E-02 0.12710612E+03</pdfrwt>
<pdfrwt beam="2">  1        4 0.19328515E-01 0.12710612E+03</pdfrwt>
<totfact> 0.83650437E+04</totfact>
</mgrwt>
</event>
<event>
 6    4  0.6358868E-003  0.1318115E+03  0.7818608E-02  0.1224792E+00
         21   -1    0    0  501  502  0.00000000000E+00  0.00000000000E+00  0.93388053079E+02  0.93388053079E+02  0.00000000000E+00 0.  1.
         -4   -1    0    0    0  501 -0.00000000000E+00 -0.00000000000E+00 -0.93288166423E+02  0.93296810742E+02  0.12700000000E+01 0.  1.
         25    2    1    2    0    0  0.25935503530E+02 -0.32814116081E+02 -0.29945430693E+02  0.13517029741E+03  0.12499945570E+03 0.  0.
    9000005    1    3    3    0    0  0.52941403709E+02  0.54127032327E+01  0.28428557555E+02  0.60342957067E+02  0.10000000000E+01 0.  0.
    9000005    1    3    3    0    0 -0.27005900180E+02 -0.38226819314E+02 -0.58373988247E+02  0.74827340346E+02  0.10000000000E+01 0.  0.
         -4    1    1    2    0  502 -0.25935503530E+02  0.32814116081E+02  0.30045317348E+02  0.51514566407E+02  0.12700000000E+01 0. -1.
<mgrwt>
<rscale>  1 0.13181153E+03</rscale>
<asrwt>0</asrwt>
<pdfrwt beam="1">  1       21 0.14367393E-01 0.13181153E+03</pdfrwt>
<pdfrwt beam="2">  1       -4 0.14353355E-01 0.13181153E+03</pdfrwt>
<totfact> 0.69562768E+04</totfact>
</mgrwt>
</event>
<event>
 6    4  0.6358868E-003  0.1286845E+03  0.7818608E-02  0.1229421E+00
          4   -1    0    0  502    0 -0.00000000000E+00  0.00000000000E+00  0.31597197049E+02  0.31622709583E+02  0.12700000000E+01 0.  1.
         21   -1    0    0  501  502  0.00000000000E+00 -0.00000000000E+00 -0.43850660304E+03  0.43850660304E+03  0.00000000000E+00 0. -1.
         25    2    1    2    0    0  0.25163100267E+02  0.17372132528E+02 -0.10339634154E+03  0.16507724200E+03  0.12499887910E+03 0.  0.
    9000005    1    3    3    0    0 -0.87809005736E+01 -0.14721950890E+02  0.23927233723E+02  0.29450850014E+02  0.10000000000E+01 0.  0.
    9000005    1    3    3    0    0  0.33944000841E+02  0.32094083419E+02 -0.12732357527E+03  0.13562639198E+03  0.10000000000E+01 0.  0.
          4    1    1    2  501    0 -0.25163100267E+02 -0.17372132528E+02 -0.30351306445E+03  0.30505207063E+03  0.12700000000E+01 0. -1.
<mgrwt>
<rscale>  1 0.12868447E+03</rscale>
<asrwt>0</asrwt>
<pdfrwt beam="2">  1       21 0.67462549E-01 0.12868447E+03</pdfrwt>
<pdfrwt beam="1">  1        4 0.48632116E-02 0.12868447E+03</pdfrwt>
<totfact> 0.20517016E+04</totfact>
</mgrwt>
</event>
<event>
 6    4  0.6358868E-003  0.1316775E+03  0.7818608E-02  0.1224988E+00
         21   -1    0    0  501  502  0.00000000000E+00  0.00000000000E+00  0.28245651961E+03  0.28245651961E+03  0.00000000000E+00 0.  1.
         -4   -1    0    0    0  501 -0.00000000000E+00 -0.00000000000E+00 -0.55342649322E+02  0.55357219348E+02  0.12700000000E+01 0. -1.
         25    2    1    2    0    0 -0.21328284758E+02 -0.35484340318E+02  0.28239205973E+02  0.13467147564E+03  0.12499967784E+03 0.  0.
    9000005    1    3    3    0    0 -0.38507687582E+02  0.33917794205E+02 -0.11879447203E+02  0.52681875750E+02  0.10000000000E+01 0.  0.
    9000005    1    3    3    0    0  0.17179402824E+02 -0.69402134523E+02  0.40118653176E+02  0.81989599892E+02  0.10000000000E+01 0.  0.
         -4    1    1    2    0  502  0.21328284758E+02  0.35484340318E+02  0.19887466431E+03  0.20314226331E+03  0.12700000000E+01 0.  1.
<mgrwt>
<rscale>  1 0.13167746E+03</rscale>
<asrwt>0</asrwt>
<pdfrwt beam="1">  1       21 0.43454848E-01 0.13167746E+03</pdfrwt>
<pdfrwt beam="2">  1       -4 0.85155943E-02 0.13167746E+03</pdfrwt>
<totfact> 0.20675124E+04</totfact>
</mgrwt>
</event>
<event>
 6    4  0.6358868E-003  0.1265933E+03  0.7818608E-02  0.1232600E+00
          4   -1    0    0  502    0 -0.00000000000E+00  0.00000000000E+00  0.65672064582E+02  0.65684343389E+02  0.12700000000E+01 0. -1.
         21   -1    0    0  501  502  0.00000000000E+00 -0.00000000000E+00 -0.12125326664E+03  0.12125326664E+03  0.00000000000E+00 0. -1.
         25    2    1    2    0    0  0.17212286692E+02  0.10318555048E+02  0.13071003207E+01  0.12659999955E+03  0.12499246370E+03 0.  0.
    9000005    1    3    3    0    0  0.58623174093E+02 -0.72523323373E-01 -0.36916848488E+02  0.69285896852E+02  0.10000000000E+01 0.  0.
    9000005    1    3    3    0    0 -0.41410887400E+02  0.10391078372E+02  0.38223948808E+02  0.57314102693E+02  0.10000000000E+01 0.  0.
          4    1    1    2  501    0 -0.17212286692E+02 -0.10318555048E+02 -0.56888302380E+02  0.60337610486E+02  0.12700000000E+01 0.  1.
<mgrwt>
<rscale>  1 0.12659325E+03</rscale>
<asrwt>0</asrwt>
<pdfrwt beam="2">  1       21 0.18654349E-01 0.12659325E+03</pdfrwt>
<pdfrwt beam="1">  1        4 0.10104851E-01 0.12659325E+03</pdfrwt>
<totfact> 0.78474470E+04</totfact>
</mgrwt>
</event>
<event>
 6    4  0.6358868E-003  0.1523877E+03  0.7818608E-02  0.1197569E+00
         -4   -1    0    0    0  501 -0.00000000000E+00  0.00000000000E+00  0.39809132470E+02  0.39829385232E+02  0.12700000000E+01 0.  1.
         21   -1    0    0  501  502  0.00000000000E+00 -0.00000000000E+00 -0.61564365229E+03  0.61564365229E+03  0.00000000000E+00 0. -1.
         25    2    1    2    0    0 -0.14821460668E+02  0.85912036135E+02 -0.12736004014E+03  0.19860158352E+03  0.12498582122E+03 0.  0.
    9000005    1    3    3    0    0  0.17796598821E+02  0.76987736306E+02 -0.13941342360E+02  0.80244573012E+02  0.10000000000E+01 0.  0.
    9000005    1    3    3    0    0 -0.32618059490E+02  0.89242998292E+01 -0.11341869778E+03  0.11835701051E+03  0.10000000000E+01 0.  0.
         -4    1    1    2    0  502  0.14821460668E+02 -0.85912036135E+02 -0.44847447968E+03  0.45687145399E+03  0.12700000000E+01 0. -1.
<mgrwt>
<rscale>  1 0.15238769E+03</rscale>
<asrwt>0</asrwt>
<pdfrwt beam="2">  1       21 0.94714405E-01 0.15238769E+03</pdfrwt>
<pdfrwt beam="1">  1       -4 0.61261408E-02 0.15238769E+03</pdfrwt>
<totfact> 0.66788157E+03</totfact>
</mgrwt>
</event>
<event>
 6    4  0.6358868E-003  0.1271777E+03  0.7818608E-02  0.1231705E+00
         21   -1    0    0  501  502  0.00000000000E+00  0.00000000000E+00  0.12500749449E+03  0.12500749449E+03  0.00000000000E+00 0.  1.
          4   -1    0    0  502    0 -0.00000000000E+00 -0.00000000000E+00 -0.62385092071E+02  0.62398017698E+02  0.12700000000E+01 0.  1.
         25    2    1    2    0    0  0.13873185134E+02  0.18881341298E+02  0.73862133982E+01  0.12739201544E+03  0.12500079653E+03 0.  0.
    9000005    1    3    3    0    0  0.28569622562E+02 -0.28698076335E+02  0.48226899110E+02  0.62981240989E+02  0.10000000000E+01 0.  0.
    9000005    1    3    3    0    0 -0.14696437429E+02  0.47579417633E+02 -0.40840685712E+02  0.64410774447E+02  0.10000000000E+01 0.  0.
          4    1    1    2  501    0 -0.13873185134E+02 -0.18881341298E+02  0.55236189020E+02  0.60013496752E+02  0.12700000000E+01 0. -1.
<mgrwt>
<rscale>  1 0.12717771E+03</rscale>
<asrwt>0</asrwt>
<pdfrwt beam="1">  1       21 0.19231922E-01 0.12717771E+03</pdfrwt>
<pdfrwt beam="2">  1        4 0.95991971E-02 0.12717771E+03</pdfrwt>
<totfact> 0.80930309E+04</totfact>
</mgrwt>
</event>
<event>
 6    4  0.6358868E-003  0.1269576E+03  0.7818608E-02  0.1232041E+00
         21   -1    0    0  501  502  0.00000000000E+00  0.00000000000E+00  0.55687937979E+01  0.55687937979E+01  0.00000000000E+00 0. -1.
          4   -1    0    0  502    0 -0.00000000000E+00 -0.00000000000E+00 -0.14740992935E+04  0.14740998405E+04  0.12700000000E+01 0. -1.
         25    2    1    2    0    0 -0.17109613108E+02 -0.14156588373E+02 -0.14262925812E+04  0.14319318298E+04  0.12500036018E+03 0.  0.
    9000005    1    3    3    0    0 -0.21041463672E+02 -0.12703203536E+02 -0.50900119085E+02  0.56532616218E+02  0.10000000000E+01 0.  0.
    9000005    1    3    3    0    0  0.39318505641E+01 -0.14533848374E+01 -0.13753924621E+04  0.13753992135E+04  0.10000000000E+01 0.  0.
          4    1    1    2  501    0  0.17109613108E+02  0.14156588373E+02 -0.42237918466E+02  0.47736804579E+02  0.12700000000E+01 0.  1.
<mgrwt>
<rscale>  1 0.12695762E+03</rscale>
<asrwt>0</asrwt>
<pdfrwt beam="1">  1       21 0.85673676E-03 0.12695762E+03</pdfrwt>
<pdfrwt beam="2">  1        4 0.22679589E+00 0.12695762E+03</pdfrwt>
<totfact> 0.19438017E+04</totfact>
</mgrwt>
</event>
<event>
 6    4  0.6358868E-003  0.1303788E+03  0.7818608E-02  0.1226895E+00
          4   -1    0    0  502    0 -0.00000000000E+00  0.00000000000E+00  0.10222687963E+04  0.10222695852E+04  0.12700000000E+01 0.  1.
         21   -1    0    0  501  502  0.00000000000E+00 -0.00000000000E+00 -0.14118768351E+02  0.14118768351E+02  0.00000000000E+00 0.  1.
         25    2    1    2    0    0  0.21363504497E+02 -0.30303243704E+02  0.98290651132E+03  0.99151593513E+03  0.12499581481E+03 0.  0.
    9000005    1    3    3    0    0  0.67783919839E+01  0.29904906449E+02  0.69019041363E+02  0.75530643439E+02  0.10000000000E+01 0.  0.
    9000005    1    3    3    0    0  0.14585112513E+02 -0.60208150154E+02  0.91388746995E+03  0.91598529169E+03  0.10000000000E+01 0.  0.
          4    1    1    2  501    0 -0.21363504497E+02  0.30303243704E+02  0.25243516679E+02  0.44872418452E+02  0.12700000000E+01 0. -1.
<mgrwt>
<rscale>  1 0.13037883E+03</rscale>
<asrwt>0</asrwt>
<pdfrwt beam="2">  1       21 0.21721190E-02 0.13037883E+03</pdfrwt>
<pdfrwt beam="1">  1        4 0.15727652E+00 0.13037883E+03</pdfrwt>
<totfact> 0.12314586E+04</totfact>
</mgrwt>
</event>
<event>
 6    4  0.6358868E-003  0.1339465E+03  0.7818608E-02  0.1221715E+00
          4   -1    0    0  502    0 -0.00000000000E+00  0.00000000000E+00  0.43252070408E+03  0.43252256861E+03  0.12700000000E+01 0. -1.
         21   -1    0    0  501  502  0.00000000000E+00 -0.00000000000E+00 -0.41209075481E+02  0.41209075481E+02  0.00000000000E+00 0.  1.
         25    2    1    2    0    0  0.43953225240E+02  0.19579029739E+02  0.40259538361E+03  0.42429319305E+03  0.12500578527E+03 0.  0.
    9000005    1    3    3    0    0  0.12403740455E+02  0.25214725208E+02  0.38807811365E+03  0.38909543487E+03  0.10000000000E+01 0.  0.
    9000005    1    3    3    0    0  0.31549484785E+02 -0.56356954692E+01  0.14517269956E+02  0.35197758176E+02  0.10000000000E+01 0.  0.
          4    1    1    2  501    0 -0.43953225240E+02 -0.19579029739E+02 -0.11283755007E+02  0.49438451043E+02  0.12700000000E+01 0.  1.
<mgrwt>
<rscale>  1 0.13394652E+03</rscale>
<asrwt>0</asrwt>
<pdfrwt beam="2">  1       21 0.63398580E-02 0.13394652E+03</pdfrwt>
<pdfrwt beam="1">  1        4 0.66543293E-01 0.13394652E+03</pdfrwt>
<totfact> 0.15536714E+04</totfact>
</mgrwt>
</event>
<event>
 6    4  0.6358868E-003  0.1292843E+03  0.7818608E-02  0.1228522E+00
          4   -1    0    0  502    0 -0.00000000000E+00  0.00000000000E+00  0.14748206184E+04  0.14748211652E+04  0.12700000000E+01 0.  1.
         21   -1    0    0  501  502  0.00000000000E+00 -0.00000000000E+00 -0.82572745262E+01  0.82572745262E+01  0.00000000000E+00 0. -1.
         25    2    1    2    0    0 -0.29115378724E+02 -0.15619107324E+02  0.14205292886E+04  0.14264003228E+04  0.12499103714E+03 0.  0.
    9000005    1    3    3    0    0  0.27630918268E+02  0.36351865106E+02  0.76644195737E+03  0.76780153670E+03  0.10000000000E+01 0.  0.
    9000005    1    3    3    0    0 -0.56746296992E+02 -0.51970972429E+02  0.65408733125E+03  0.65859878614E+03  0.10000000000E+01 0.  0.
          4    1    1    2  501    0  0.29115378724E+02  0.15619107324E+02  0.46034055218E+02  0.56678116867E+02  0.12700000000E+01 0. -1.
<mgrwt>
<rscale>  1 0.12928426E+03</rscale>
<asrwt>0</asrwt>
<pdfrwt beam="2">  1       21 0.12703511E-02 0.12928426E+03</pdfrwt>
<pdfrwt beam="1">  1        4 0.22690283E+00 0.12928426E+03</pdfrwt>
<totfact> 0.10441859E+04</totfact>
</mgrwt>
</event>
<event>
 6    4  0.6358868E-003  0.1276040E+03  0.7818608E-02  0.1231055E+00
         -4   -1    0    0    0  501 -0.00000000000E+00  0.00000000000E+00  0.20002287879E+02  0.20042565215E+02  0.12700000000E+01 0.  1.
         21   -1    0    0  501  502  0.00000000000E+00 -0.00000000000E+00 -0.31436004536E+03  0.31436004536E+03  0.00000000000E+00 0. -1.
         25    2    1    2    0    0  0.10004458665E+02  0.23613136228E+02 -0.20536721698E+03  0.24178188615E+03  0.12500046904E+03 0.  0.
    9000005    1    3    3    0    0  0.40021878182E+02 -0.35383985715E+02 -0.51199576616E+02  0.74001174477E+02  0.10000000000E+01 0.  0.
    9000005    1    3    3    0    0 -0.30017419517E+02  0.58997121943E+02 -0.15416764037E+03  0.16778071167E+03  0.10000000000E+01 0.  0.
         -4    1    1    2    0  502 -0.10004458665E+02 -0.23613136228E+02 -0.88990540501E+02  0.92620724432E+02  0.12700000000E+01 0. -1.
<mgrwt>
<rscale>  1 0.12760402E+03</rscale>
<asrwt>0</asrwt>
<pdfrwt beam="2">  1       21 0.48363079E-01 0.12760402E+03</pdfrwt>
<pdfrwt beam="1">  1       -4 0.30805710E-02 0.12760402E+03</pdfrwt>
<totfact> 0.85195865E+04</totfact>
</mgrwt>
</event>
<event>
 6    4  0.6358868E-003  0.1335894E+03  0.7818608E-02  0.1222225E+00
          4   -1    0    0  502    0 -0.00000000000E+00  0.00000000000E+00  0.22038319971E+03  0.22038685899E+03  0.12700000000E+01 0. -1.
         21   -1    0    0  501  502  0.00000000000E+00 -0.00000000000E+00 -0.10594910034E+03  0.10594910034E+03  0.00000000000E+00 0.  1.
         25    2    1    2    0    0 -0.29621919303E+02  0.36651402734E+02  0.19299298546E+03  0.23471775748E+03  0.12500139925E+03 0.  0.
    9000005    1    3    3    0    0  0.47813294692E+02  0.19568255176E+02  0.54326552934E+02  0.74976010254E+02  0.10000000000E+01 0.  0.
    9000005    1    3    3    0    0 -0.77435213995E+02  0.17083147558E+02  0.13866643253E+03  0.15974174723E+03  0.10000000000E+01 0.  0.
          4    1    1    2  501    0  0.29621919303E+02 -0.36651402734E+02 -0.78558886089E+02  0.91618201844E+02  0.12700000000E+01 0.  1.
<mgrwt>
<rscale>  1 0.13358942E+03</rscale>
<asrwt>0</asrwt>
<pdfrwt beam="2">  1       21 0.16299862E-01 0.13358942E+03</pdfrwt>
<pdfrwt beam="1">  1        4 0.33905974E-01 0.13358942E+03</pdfrwt>
<totfact> 0.11583770E+04</totfact>
</mgrwt>
</event>
<event>
 6    4  0.6358868E-003  0.1267351E+03  0.7818608E-02  0.1232382E+00
         -4   -1    0    0    0  501 -0.00000000000E+00  0.00000000000E+00  0.74663836789E+01  0.75736243134E+01  0.12700000000E+01 0. -1.
         21   -1    0    0  501  502  0.00000000000E+00 -0.00000000000E+00 -0.10426468820E+04  0.10426468820E+04  0.00000000000E+00 0. -1.
         25    2    1    2    0    0 -0.80792329325E+01  0.19278608932E+02 -0.54296264780E+03  0.55755737187E+03  0.12499938902E+03 0.  0.
    9000005    1    3    3    0    0  0.44247723675E+02  0.75334478433E+01 -0.82011992473E+02  0.93496421302E+02  0.10000000000E+01 0.  0.
    9000005    1    3    3    0    0 -0.52326956607E+02  0.11745161089E+02 -0.46095065532E+03  0.46406095057E+03  0.10000000000E+01 0.  0.
         -4    1    1    2    0  502  0.80792329325E+01 -0.19278608932E+02 -0.49221785054E+03  0.49266313446E+03  0.12700000000E+01 0.  1.
<mgrwt>
<rscale>  1 0.12673510E+03</rscale>
<asrwt>0</asrwt>
<pdfrwt beam="2">  1       21 0.16040721E+00 0.12673510E+03</pdfrwt>
<pdfrwt beam="1">  1       -4 0.11569832E-02 0.12673510E+03</pdfrwt>
<totfact> 0.24338416E+04</totfact>
</mgrwt>
</event>
<event>
 6    4  0.6358868E-003  0.1631021E+03  0.7818608E-02  0.1185238E+00
         -4   -1    0    0    0  501 -0.00000000000E+00  0.00000000000E+00  0.71945827828E+03  0.71945939919E+03  0.12700000000E+01 0. -1.
         21   -1    0    0  501  502  0.00000000000E+00 -0.00000000000E+00 -0.27973711465E+02  0.27973711465E+02  0.00000000000E+00 0.  1.
         25    2    1    2    0    0  0.11189372389E+02  0.10417151654E+03  0.53338444513E+03  0.55776453580E+03  0.12500161669E+03 0.  0.
    9000005    1    3    3    0    0  0.25792513259E+02 -0.11437491968E+02  0.24656307710E+03  0.24817417463E+03  0.10000000000E+01 0.  0.
    9000005    1    3    3    0    0 -0.14603140870E+02  0.11560900851E+03  0.28682136803E+03  0.30959036117E+03  0.10000000000E+01 0.  0.
         -4    1    1    2    0  502 -0.11189372389E+02 -0.10417151654E+03  0.15810012169E+03  0.18966857486E+03  0.12700000000E+01 0.  1.
<mgrwt>
<rscale>  1 0.16310215E+03</rscale>
<asrwt>0</asrwt>
<pdfrwt beam="2">  1       21 0.43036485E-02 0.16310215E+03</pdfrwt>
<pdfrwt beam="1">  1       -4 0.11068818E+00 0.16310215E+03</pdfrwt>
<totfact> 0.96905626E+03</totfact>
</mgrwt>
</event>
<event>
 6    4  0.6358868E-003  0.1271282E+03  0.7818608E-02  0.1231780E+00
         21   -1    0    0  501  502  0.00000000000E+00  0.00000000000E+00  0.18516318141E+02  0.18516318141E+02  0.00000000000E+00 0.  1.
          4   -1    0    0  502    0 -0.00000000000E+00 -0.00000000000E+00 -0.47243657430E+03  0.47243828130E+03  0.12700000000E+01 0. -1.
         25    2    1    2    0    0 -0.45027230806E+01 -0.22727870344E+02 -0.44975815735E+03  0.46737989749E+03  0.12499895149E+03 0.  0.
    9000005    1    3    3    0    0  0.48831444178E+02  0.66367340477E+00 -0.85291912120E+02  0.98288659956E+02  0.10000000000E+01 0.  0.
    9000005    1    3    3    0    0 -0.53334167259E+02 -0.23391543749E+02 -0.36446624523E+03  0.36909123753E+03  0.10000000000E+01 0.  0.
          4    1    1    2  501    0  0.45027230806E+01  0.22727870344E+02 -0.41620988168E+01  0.23574701951E+02  0.12700000000E+01 0.  1.
<mgrwt>
<rscale>  1 0.12712816E+03</rscale>
<asrwt>0</asrwt>
<pdfrwt beam="1">  1       21 0.28486647E-02 0.12712816E+03</pdfrwt>
<pdfrwt beam="2">  1        4 0.72686023E-01 0.12712816E+03</pdfrwt>
<totfact> 0.48462390E+04</totfact>
</mgrwt>
</event>
<event>
 6    4  0.6358868E-003  0.1269160E+03  0.7818608E-02  0.1232105E+00
         21   -1    0    0  501  502  0.00000000000E+00  0.00000000000E+00  0.70235695148E+01  0.70235695148E+01  0.00000000000E+00 0. -1.
         -4   -1    0    0    0  501 -0.00000000000E+00 -0.00000000000E+00 -0.87562371510E+03  0.87562463610E+03  0.12700000000E+01 0. -1.
         25    2    1    2    0    0  0.21490694901E+02 -0.46319736333E+01 -0.81298950049E+03  0.82283631804E+03  0.12499749292E+03 0.  0.
    9000005    1    3    3    0    0 -0.36882323532E+02  0.37585453841E+02 -0.27011379794E+03  0.27520071942E+03  0.10000000000E+01 0.  0.
    9000005    1    3    3    0    0  0.58373018433E+02 -0.42217427474E+02 -0.54287570255E+03  0.54763559862E+03  0.10000000000E+01 0.  0.
         -4    1    1    2    0  502 -0.21490694901E+02  0.46319736333E+01 -0.55610645093E+02  0.59811887570E+02  0.12700000000E+01 0.  1.
<mgrwt>
<rscale>  1 0.12691603E+03</rscale>
<asrwt>0</asrwt>
<pdfrwt beam="1">  1       21 0.10805488E-02 0.12691603E+03</pdfrwt>
<pdfrwt beam="2">  1       -4 0.13472029E+00 0.12691603E+03</pdfrwt>
<totfact> 0.55377637E+04</totfact>
</mgrwt>
</event>
<event>
 6    4  0.6358868E-003  0.1346061E+03  0.7818608E-02  0.1220777E+00
         21   -1    0    0  501  502  0.00000000000E+00  0.00000000000E+00  0.86976336775E+02  0.86976336775E+02  0.00000000000E+00 0.  1.
          4   -1    0    0  502    0 -0.00000000000E+00 -0.00000000000E+00 -0.10344520895E+03  0.10345300457E+03  0.12700000000E+01 0. -1.
         25    2    1    2    0    0 -0.32700656903E+02  0.37745042047E+02 -0.31534849781E+02  0.13825063168E+03  0.12499907699E+03 0.  0.
    9000005    1    3    3    0    0 -0.46898325726E+01  0.37007624979E+02  0.43991828305E+02  0.57687431853E+02  0.10000000000E+01 0.  0.
    9000005    1    3    3    0    0 -0.28010824330E+02  0.73741706826E+00 -0.75526678086E+02  0.80563199827E+02  0.10000000000E+01 0.  0.
          4    1    1    2  501    0  0.32700656903E+02 -0.37745042047E+02  0.15065977607E+02  0.52178709665E+02  0.12700000000E+01 0.  1.
<mgrwt>
<rscale>  1 0.13460606E+03</rscale>
<asrwt>0</asrwt>
<pdfrwt beam="1">  1       21 0.13380975E-01 0.13460606E+03</pdfrwt>
<pdfrwt beam="2">  1        4 0.15915960E-01 0.13460606E+03</pdfrwt>
<totfact> 0.66148993E+04</totfact>
</mgrwt>
</event>
<event>
 6    4  0.6358868E-003  0.1269682E+03  0.7818608E-02  0.1232025E+00
          4   -1    0    0  502    0 -0.00000000000E+00  0.00000000000E+00  0.56961132791E+03  0.56961274369E+03  0.12700000000E+01 0. -1.
         21   -1    0    0  501  502  0.00000000000E+00 -0.00000000000E+00 -0.16616518732E+02  0.16616518732E+02  0.00000000000E+00 0.  1.
         25    2    1    2    0    0  0.16487300778E+02 -0.15043928757E+02  0.54903616632E+03  0.56352607691E+03  0.12499110587E+03 0.  0.
    9000005    1    3    3    0    0 -0.16197040109E+02  0.47300867056E+02  0.14446180056E+03  0.15287226025E+03  0.10000000000E+01 0.  0.
    9000005    1    3    3    0    0  0.32684340887E+02 -0.62344795813E+02  0.40457436577E+03  0.41065381666E+03  0.10000000000E+01 0.  0.
          4    1    1    2  501    0 -0.16487300778E+02  0.15043928757E+02  0.39586428495E+01  0.22703185517E+02  0.12700000000E+01 0.  1.
<mgrwt>
<rscale>  1 0.12696821E+03</rscale>
<asrwt>0</asrwt>
<pdfrwt beam="2">  1       21 0.25563879E-02 0.12696821E+03</pdfrwt>
<pdfrwt beam="1">  1        4 0.87636339E-01 0.12696821E+03</pdfrwt>
<totfact> 0.38266019E+04</totfact>
</mgrwt>
</event>
<event>
 6    4  0.6358868E-003  0.1291390E+03  0.7818608E-02  0.1228739E+00
          4   -1    0    0  502    0 -0.00000000000E+00  0.00000000000E+00  0.13219285152E+02  0.13280150599E+02  0.12700000000E+01 0.  1.
         21   -1    0    0  501  502  0.00000000000E+00 -0.00000000000E+00 -0.51323109925E+03  0.51323109925E+03  0.00000000000E+00 0. -1.
         25    2    1    2    0    0 -0.21240378954E+02 -0.24477380784E+02 -0.35078962514E+03  0.37380509265E+03  0.12500636111E+03 0.  0.
    9000005    1    3    3    0    0 -0.16177084470E+02 -0.51302844145E+01  0.47897437152E+01  0.17662375972E+02  0.10000000000E+01 0.  0.
    9000005    1    3    3    0    0 -0.50632944839E+01 -0.19347096369E+02 -0.35557936886E+03  0.35614271668E+03  0.10000000000E+01 0.  0.
          4    1    1    2  501    0  0.21240378954E+02  0.24477380784E+02 -0.14922218896E+03  0.15270615720E+03  0.12700000000E+01 0. -1.
<mgrwt>
<rscale>  1 0.12913902E+03</rscale>
<asrwt>0</asrwt>
<pdfrwt beam="2">  1       21 0.78958621E-01 0.12913902E+03</pdfrwt>
<pdfrwt beam="1">  1        4 0.20385393E-02 0.12913902E+03</pdfrwt>
<totfact> 0.56851681E+04</totfact>
</mgrwt>
</event>
<event>
 6    4  0.6358868E-003  0.1417843E+03  0.7818608E-02  0.1210948E+00
          4   -1    0    0  502    0 -0.00000000000E+00  0.00000000000E+00  0.72736906320E+03  0.72737017192E+03  0.12700000000E+01 0.  1.
         21   -1    0    0  501  502  0.00000000000E+00 -0.00000000000E+00 -0.15764105133E+02  0.15764105133E+02  0.00000000000E+00 0.  1.
         25    2    1    2    0    0  0.64136629858E+02  0.19048910942E+02  0.55514035357E+03  0.57296038464E+03  0.12500568752E+03 0.  0.
    9000005    1    3    3    0    0  0.75295033069E+02  0.45089209067E+02  0.22357923514E+03  0.24018961918E+03  0.10000000000E+01 0.  0.
    9000005    1    3    3    0    0 -0.11158403211E+02 -0.26040298124E+02  0.33156111843E+03  0.33277076546E+03  0.10000000000E+01 0.  0.
          4    1    1    2  501    0 -0.64136629858E+02 -0.19048910942E+02  0.15646460450E+03  0.17017389241E+03  0.12700000000E+01 0. -1.
<mgrwt>
<rscale>  1 0.14178431E+03</rscale>
<asrwt>0</asrwt>
<pdfrwt beam="2">  1       21 0.24252475E-02 0.14178431E+03</pdfrwt>
<pdfrwt beam="1">  1        4 0.11190693E+00 0.14178431E+03</pdfrwt>
<totfact> 0.24032611E+04</totfact>
</mgrwt>
</event>
<event>
 6    4  0.6358868E-003  0.1269224E+03  0.7818608E-02  0.1232095E+00
         21   -1    0    0  501  502  0.00000000000E+00  0.00000000000E+00  0.51665547925E+02  0.51665547925E+02  0.00000000000E+00 0.  1.
          4   -1    0    0  502    0 -0.00000000000E+00 -0.00000000000E+00 -0.11920423277E+03  0.11921099786E+03  0.12700000000E+01 0.  1.
         25    2    1    2    0    0 -0.47296791764E+01  0.21494549961E+02 -0.75212441391E+02  0.14753377425E+03  0.12499967065E+03 0.  0.
    9000005    1    3    3    0    0  0.53680033051E+02  0.36963933327E+02 -0.49552281521E+02  0.81879832189E+02  0.10000000000E+01 0.  0.
    9000005    1    3    3    0    0 -0.58409712227E+02 -0.15469383366E+02 -0.25660159869E+02  0.65653942065E+02  0.10000000000E+01 0.  0.
          4    1    1    2  501    0  0.47296791764E+01 -0.21494549961E+02  0.76737565460E+01  0.23342771529E+02  0.12700000000E+01 0. -1.
<mgrwt>
<rscale>  1 0.12692243E+03</rscale>
<asrwt>0</asrwt>
<pdfrwt beam="1">  1       21 0.79485460E-02 0.12692243E+03</pdfrwt>
<pdfrwt beam="2">  1        4 0.18340834E-01 0.12692243E+03</pdfrwt>
<totfact> 0.12732752E+05</totfact>
</mgrwt>
</event>
<event>
 6    4  0.6358868E-003  0.1277194E+03  0.7818608E-02  0.1230879E+00
         21   -1    0    0  501  502  0.00000000000E+00  0.00000000000E+00  0.72909963540E+02  0.72909963540E+02  0.00000000000E+00 0.  1.
         -4   -1    0    0    0  501 -0.00000000000E+00 -0.00000000000E+00 -0.37100362135E+03  0.37100579504E+03  0.12700000000E+01 0. -1.
         25    2    1    2    0    0 -0.20698226566E+02 -0.15977381563E+02 -0.35715942123E+03  0.37930871087E+03  0.12501420983E+03 0.  0.
    9000005    1    3    3    0    0 -0.70138941038E+02  0.25475913635E+01 -0.25259834595E+03  0.26216957422E+03  0.10000000000E+01 0.  0.
    9000005    1    3    3    0    0  0.49440714472E+02 -0.18524972926E+02 -0.10456107529E+03  0.11713913665E+03  0.10000000000E+01 0.  0.
         -4    1    1    2    0  502  0.20698226566E+02  0.15977381563E+02  0.59065763428E+02  0.64607047710E+02  0.12700000000E+01 0.  1.
<mgrwt>
<rscale>  1 0.12771940E+03</rscale>
<asrwt>0</asrwt>
<pdfrwt beam="1">  1       21 0.11216918E-01 0.12771940E+03</pdfrwt>
<pdfrwt beam="2">  1       -4 0.57078498E-01 0.12771940E+03</pdfrwt>
<totfact> 0.79590631E+03</totfact>
</mgrwt>
</event>
<event>
 6    4  0.6358868E-003  0.1305415E+03  0.7818608E-02  0.1226655E+00
         -4   -1    0    0    0  501 -0.00000000000E+00  0.00000000000E+00  0.16696060526E+03  0.16696543538E+03  0.12700000000E+01 0. -1.
         21   -1    0    0  501  502  0.00000000000E+00 -0.00000000000E+00 -0.37170501893E+03  0.37170501893E+03  0.00000000000E+00 0.  1.
         25    2    1    2    0    0  0.77959441548E+01 -0.36817037278E+02  0.14026488156E+03  0.19161239335E+03  0.12499920522E+03 0.  0.
    9000005    1    3    3    0    0 -0.94704383887E+01 -0.65376083268E+02  0.23425499340E+02  0.70096187386E+02  0.10000000000E+01 0.  0.
    9000005    1    3    3    0    0  0.17266382543E+02  0.28559045990E+02  0.11683938222E+03  0.12151620597E+03  0.10000000000E+01 0.  0.
         -4    1    1    2    0  502 -0.77959441548E+01  0.36817037278E+02 -0.34500929523E+03  0.34705806095E+03  0.12700000000E+01 0.  1.
<mgrwt>
<rscale>  1 0.13054146E+03</rscale>
<asrwt>0</asrwt>
<pdfrwt beam="2">  1       21 0.57185387E-01 0.13054146E+03</pdfrwt>
<pdfrwt beam="1">  1       -4 0.25686786E-01 0.13054146E+03</pdfrwt>
<totfact> 0.17034390E+03</totfact>
</mgrwt>
</event>
<event>
 6    4  0.6358868E-003  0.1276810E+03  0.7818608E-02  0.1230938E+00
         21   -1    0    0  501  502  0.00000000000E+00  0.00000000000E+00  0.17352780530E+03  0.17352780530E+03  0.00000000000E+00 0. -1.
          4   -1    0    0  502    0 -0.00000000000E+00 -0.00000000000E+00 -0.56215177177E+02  0.56229521117E+02  0.12700000000E+01 0. -1.
         25    2    1    2    0    0 -0.17864794663E+01  0.25984335749E+02  0.20279650909E+02  0.12928151450E+03  0.12499627409E+03 0.  0.
    9000005    1    3    3    0    0  0.86939869291E+01 -0.16418712104E+02 -0.46157257894E+02  0.49765972031E+02  0.10000000000E+01 0.  0.
    9000005    1    3    3    0    0 -0.10480466395E+02  0.42403047853E+02  0.66436908803E+02  0.79515542471E+02  0.10000000000E+01 0.  0.
          4    1    1    2  501    0  0.17864794663E+01 -0.25984335749E+02  0.97032977218E+02  0.10047581192E+03  0.12700000000E+01 0.  1.
<mgrwt>
<rscale>  1 0.12768103E+03</rscale>
<asrwt>0</asrwt>
<pdfrwt beam="1">  1       21 0.26696585E-01 0.12768103E+03</pdfrwt>
<pdfrwt beam="2">  1        4 0.86499497E-02 0.12768103E+03</pdfrwt>
<totfact> 0.52165332E+04</totfact>
</mgrwt>
</event>
<event>
 6    4  0.6358868E-003  0.1269091E+03  0.7818608E-02  0.1232116E+00
         -4   -1    0    0    0  501 -0.00000000000E+00  0.00000000000E+00  0.15157213266E+03  0.15157745314E+03  0.12700000000E+01 0.  1.
         21   -1    0    0  501  502  0.00000000000E+00 -0.00000000000E+00 -0.37902329018E+02  0.37902329018E+02  0.00000000000E+00 0.  1.
         25    2    1    2    0    0  0.20603396232E+02  0.74873729186E+01  0.82557615926E+02  0.15139905456E+03  0.12500141233E+03 0.  0.
    9000005    1    3    3    0    0  0.55457446461E+02 -0.36438667063E+02  0.24676407843E+02  0.70804166045E+02  0.10000000000E+01 0.  0.
    9000005    1    3    3    0    0 -0.34854050230E+02  0.43926039981E+02  0.57881208083E+02  0.80594888517E+02  0.10000000000E+01 0.  0.
         -4    1    1    2    0  502 -0.20603396232E+02 -0.74873729186E+01  0.31112187721E+02  0.38080727597E+02  0.12700000000E+01 0. -1.
<mgrwt>
<rscale>  1 0.12690908E+03</rscale>
<asrwt>0</asrwt>
<pdfrwt beam="2">  1       21 0.58311276E-02 0.12690908E+03</pdfrwt>
<pdfrwt beam="1">  1       -4 0.23320835E-01 0.12690908E+03</pdfrwt>
<totfact> 0.14011042E+05</totfact>
</mgrwt>
</event>
<event>
 6    4  0.6358868E-003  0.1304619E+03  0.7818608E-02  0.1226772E+00
          4   -1    0    0  502    0 -0.00000000000E+00  0.00000000000E+00  0.48776143281E+03  0.48776308617E+03  0.12700000000E+01 0. -1.
         21   -1    0    0  501  502  0.00000000000E+00 -0.00000000000E+00 -0.45947614678E+02  0.45947614678E+02  0.00000000000E+00 0.  1.
         25    2    1    2    0    0  0.35120541406E+01 -0.37178143046E+02  0.46944676258E+03  0.48723768326E+03  0.12500299296E+03 0.  0.
    9000005    1    3    3    0    0 -0.39684320453E+02  0.43754573576E+01  0.36202462592E+03  0.36422083918E+03  0.10000000000E+01 0.  0.
    9000005    1    3    3    0    0  0.43196374593E+02 -0.41553600403E+02  0.10742213666E+03  0.12301684409E+03  0.10000000000E+01 0.  0.
          4    1    1    2  501    0 -0.35120541406E+01  0.37178143046E+02 -0.27632944453E+02  0.46473017588E+02  0.12700000000E+01 0.  1.
<mgrwt>
<rscale>  1 0.13046186E+03</rscale>
<asrwt>0</asrwt>
<pdfrwt beam="2">  1       21 0.70688642E-02 0.13046186E+03</pdfrwt>
<pdfrwt beam="1">  1        4 0.75041694E-01 0.13046186E+03</pdfrwt>
<totfact> 0.99260838E+03</totfact>
</mgrwt>
</event>
<event>
 6    4  0.6358868E-003  0.1272234E+03  0.7818608E-02  0.1231635E+00
         21   -1    0    0  501  502  0.00000000000E+00  0.00000000000E+00  0.26289812585E+03  0.26289812585E+03  0.00000000000E+00 0. -1.
         -4   -1    0    0    0  501 -0.00000000000E+00 -0.00000000000E+00 -0.23034835180E+02  0.23069818633E+02  0.12700000000E+01 0. -1.
         25    2    1    2    0    0 -0.90169064084E+01  0.21899616594E+02  0.17100547744E+03  0.21314000238E+03  0.12499955797E+03 0.  0.
    9000005    1    3    3    0    0  0.38694583156E+02  0.50031967048E+02  0.52052626976E+02  0.81920354415E+02  0.10000000000E+01 0.  0.
    9000005    1    3    3    0    0 -0.47711489565E+02 -0.28132350454E+02  0.11895285046E+03  0.13121964796E+03  0.10000000000E+01 0.  0.
         -4    1    1    2    0  502  0.90169064084E+01 -0.21899616594E+02  0.68857813235E+02  0.72827942108E+02  0.12700000000E+01 0.  1.
<mgrwt>
<rscale>  1 0.12722338E+03</rscale>
<asrwt>0</asrwt>
<pdfrwt beam="1">  1       21 0.40445864E-01 0.12722338E+03</pdfrwt>
<pdfrwt beam="2">  1       -4 0.35467480E-02 0.12722338E+03</pdfrwt>
<totfact> 0.98044861E+04</totfact>
</mgrwt>
</event>
<event>
 6    4  0.6358868E-003  0.1274551E+03  0.7818608E-02  0.1231281E+00
         21   -1    0    0  501  502  0.00000000000E+00  0.00000000000E+00  0.29581437071E+03  0.29581437071E+03  0.00000000000E+00 0. -1.
         -4   -1    0    0    0  501 -0.00000000000E+00 -0.00000000000E+00 -0.40906249948E+02  0.40925959791E+02  0.12700000000E+01 0.  1.
         25    2    1    2    0    0 -0.23338198400E+02  0.88856453713E+01  0.61131785639E+02  0.14135735491E+03  0.12498472056E+03 0.  0.
    9000005    1    3    3    0    0  0.24673972709E+02 -0.14897724367E+02 -0.26154390599E+02  0.38933266857E+02  0.10000000000E+01 0.  0.
    9000005    1    3    3    0    0 -0.48012171109E+02  0.23783369738E+02  0.87286176238E+02  0.10242408805E+03  0.10000000000E+01 0.  0.
         -4    1    1    2    0  502  0.23338198400E+02 -0.88856453713E+01  0.19377633512E+03  0.19538297559E+03  0.12700000000E+01 0. -1.
<mgrwt>
<rscale>  1 0.12745512E+03</rscale>
<asrwt>0</asrwt>
<pdfrwt beam="1">  1       21 0.45509902E-01 0.12745512E+03</pdfrwt>
<pdfrwt beam="2">  1       -4 0.62949953E-02 0.12745512E+03</pdfrwt>
<totfact> 0.30847220E+04</totfact>
</mgrwt>
</event>
<event>
 6    4  0.6358868E-003  0.1380625E+03  0.7818608E-02  0.1215960E+00
          4   -1    0    0  502    0 -0.00000000000E+00  0.00000000000E+00  0.10652199378E+02  0.10727639609E+02  0.12700000000E+01 0. -1.
         21   -1    0    0  501  502  0.00000000000E+00 -0.00000000000E+00 -0.15770071577E+04  0.15770071577E+04  0.00000000000E+00 0.  1.
         25    2    1    2    0    0 -0.51136074958E+02 -0.28663100864E+02 -0.47116385583E+03  0.49097519038E+03  0.12499914806E+03 0.  0.
    9000005    1    3    3    0    0 -0.39680004259E+02 -0.26068800827E+02 -0.47565437226E+02  0.67212766147E+02  0.10000000000E+01 0.  0.
    9000005    1    3    3    0    0 -0.11456070699E+02 -0.25943000367E+01 -0.42359841860E+03  0.42376242423E+03  0.10000000000E+01 0.  0.
          4    1    1    2  501    0  0.51136074958E+02  0.28663100864E+02 -0.10951911025E+04  0.10967596069E+04  0.12700000000E+01 0.  1.
<mgrwt>
<rscale>  1 0.13806252E+03</rscale>
<asrwt>0</asrwt>
<pdfrwt beam="2">  1       21 0.24261642E+00 0.13806252E+03</pdfrwt>
<pdfrwt beam="1">  1        4 0.16446428E-02 0.13806252E+03</pdfrwt>
<totfact> 0.43016801E+03</totfact>
</mgrwt>
</event>
<event>
 6    4  0.6358868E-003  0.1270976E+03  0.7818608E-02  0.1231827E+00
         -4   -1    0    0    0  501 -0.00000000000E+00  0.00000000000E+00  0.71928039662E+02  0.71939250688E+02  0.12700000000E+01 0. -1.
         21   -1    0    0  501  502  0.00000000000E+00 -0.00000000000E+00 -0.93628971830E+02  0.93628971830E+02  0.00000000000E+00 0. -1.
         25    2    1    2    0    0 -0.15106876792E+00  0.23066401920E+02  0.86891482357E+01  0.12739425749E+03  0.12498685461E+03 0.  0.
    9000005    1    3    3    0    0  0.37615454514E+02 -0.34501314990E+02 -0.17139591788E+02  0.53851915110E+02  0.10000000000E+01 0.  0.
    9000005    1    3    3    0    0 -0.37766523282E+02  0.57567716910E+02  0.25828740024E+02  0.73542342377E+02  0.10000000000E+01 0.  0.
         -4    1    1    2    0  502  0.15106876792E+00 -0.23066401920E+02 -0.30390080404E+02  0.38173965032E+02  0.12700000000E+01 0.  1.
<mgrwt>
<rscale>  1 0.12709758E+03</rscale>
<asrwt>0</asrwt>
<pdfrwt beam="2">  1       21 0.14404457E-01 0.12709758E+03</pdfrwt>
<pdfrwt beam="1">  1       -4 0.11067377E-01 0.12709758E+03</pdfrwt>
<totfact> 0.10764808E+05</totfact>
</mgrwt>
</event>
<event>
 6    4  0.6358868E-003  0.1299422E+03  0.7818608E-02  0.1227541E+00
         21   -1    0    0  501  502  0.00000000000E+00  0.00000000000E+00  0.52218187798E+03  0.52218187798E+03  0.00000000000E+00 0. -1.
          4   -1    0    0  502    0 -0.00000000000E+00 -0.00000000000E+00 -0.65106321202E+02  0.65118706686E+02  0.12700000000E+01 0.  1.
         25    2    1    2    0    0 -0.30708177063E+02 -0.17793492963E+02  0.11027855573E+01  0.12994691241E+03  0.12500153351E+03 0.  0.
    9000005    1    3    3    0    0  0.83047919573E+01  0.20270239654E+02  0.51332112934E+02  0.55819691896E+02  0.10000000000E+01 0.  0.
    9000005    1    3    3    0    0 -0.39012969020E+02 -0.38063732617E+02 -0.50229327377E+02  0.74127220515E+02  0.10000000000E+01 0.  0.
          4    1    1    2  501    0  0.30708177063E+02  0.17793492963E+02  0.45597277122E+03  0.45735367226E+03  0.12700000000E+01 0. -1.
<mgrwt>
<rscale>  1 0.12994223E+03</rscale>
<asrwt>0</asrwt>
<pdfrwt beam="1">  1       21 0.80335671E-01 0.12994223E+03</pdfrwt>
<pdfrwt beam="2">  1        4 0.10017429E-01 0.12994223E+03</pdfrwt>
<totfact> 0.42713477E+03</totfact>
</mgrwt>
</event>
<event>
 6    4  0.6358868E-003  0.1266944E+03  0.7818608E-02  0.1232445E+00
         21   -1    0    0  501  502  0.00000000000E+00  0.00000000000E+00  0.85606737475E+02  0.85606737475E+02  0.00000000000E+00 0.  1.
          4   -1    0    0  502    0 -0.00000000000E+00 -0.00000000000E+00 -0.63513971365E+02  0.63526667302E+02  0.12700000000E+01 0.  1.
         25    2    1    2    0    0 -0.20023209020E+02 -0.51007230357E+01  0.17150860362E+02  0.12785004021E+03  0.12499813797E+03 0.  0.
    9000005    1    3    3    0    0  0.18182589610E+02  0.25565203260E+02 -0.41109960279E+02  0.51722480768E+02  0.10000000000E+01 0.  0.
    9000005    1    3    3    0    0 -0.38205798630E+02 -0.30665926296E+02  0.58260820641E+02  0.76127559440E+02  0.10000000000E+01 0.  0.
          4    1    1    2  501    0  0.20023209020E+02  0.51007230357E+01  0.49419057481E+01  0.21283364569E+02  0.12700000000E+01 0. -1.
<mgrwt>
<rscale>  1 0.12669444E+03</rscale>
<asrwt>0</asrwt>
<pdfrwt beam="1">  1       21 0.13170267E-01 0.12669444E+03</pdfrwt>
<pdfrwt beam="2">  1        4 0.97730814E-02 0.12669444E+03</pdfrwt>
<totfact> 0.15581315E+05</totfact>
</mgrwt>
</event>
<event>
 6    4  0.6358868E-003  0.1316187E+03  0.7818608E-02  0.1225073E+00
          4   -1    0    0  502    0 -0.00000000000E+00  0.00000000000E+00  0.63927952587E+02  0.63940566325E+02  0.12700000000E+01 0. -1.
         21   -1    0    0  501  502  0.00000000000E+00 -0.00000000000E+00 -0.11848786323E+03  0.11848786323E+03  0.00000000000E+00 0. -1.
         25    2    1    2    0    0  0.40848963617E+02 -0.54483660566E+01 -0.32095836197E+02  0.13547558020E+03  0.12500067043E+03 0.  0.
    9000005    1    3    3    0    0 -0.33841608969E+01 -0.41460964125E+01 -0.74191574970E+02  0.74391077805E+02  0.10000000000E+01 0.  0.
    9000005    1    3    3    0    0  0.44233124514E+02 -0.13022696441E+01  0.42095738773E+02  0.61084502399E+02  0.10000000000E+01 0.  0.
          4    1    1    2  501    0 -0.40848963617E+02  0.54483660566E+01 -0.22464074441E+02  0.46952849347E+02  0.12700000000E+01 0.  1.
<mgrwt>
<rscale>  1 0.13161873E+03</rscale>
<asrwt>0</asrwt>
<pdfrwt beam="2">  1       21 0.18228902E-01 0.13161873E+03</pdfrwt>
<pdfrwt beam="1">  1        4 0.98365635E-02 0.13161873E+03</pdfrwt>
<totfact> 0.86105470E+04</totfact>
</mgrwt>
</event>
<event>
 6    4  0.6358868E-003  0.1325738E+03  0.7818608E-02  0.1223686E+00
          4   -1    0    0  502    0 -0.00000000000E+00  0.00000000000E+00  0.36350717370E+03  0.36350939222E+03  0.12700000000E+01 0. -1.
         21   -1    0    0  501  502  0.00000000000E+00 -0.00000000000E+00 -0.30662374172E+02  0.30662374172E+02  0.00000000000E+00 0.  1.
         25    2    1    2    0    0 -0.38877067843E+02  0.21025762571E+02  0.32260716613E+03  0.34878530218E+03  0.12498917667E+03 0.  0.
    9000005    1    3    3    0    0 -0.54894401770E+02 -0.28088908284E+02  0.26191336860E+03  0.26907618766E+03  0.10000000000E+01 0.  0.
    9000005    1    3    3    0    0  0.16017333927E+02  0.49114670854E+02  0.60693797528E+02  0.79709114520E+02  0.10000000000E+01 0.  0.
          4    1    1    2  501    0  0.38877067843E+02 -0.21025762571E+02  0.10237633399E+02  0.45386464208E+02  0.12700000000E+01 0.  1.
<mgrwt>
<rscale>  1 0.13257377E+03</rscale>
<asrwt>0</asrwt>
<pdfrwt beam="2">  1       21 0.47172886E-02 0.13257377E+03</pdfrwt>
<pdfrwt beam="1">  1        4 0.55926371E-01 0.13257377E+03</pdfrwt>
<totfact> 0.36865278E+04</totfact>
</mgrwt>
</event>
<event>
 6    4  0.6358868E-003  0.1372805E+03  0.7818608E-02  0.1217036E+00
          4   -1    0    0  502    0 -0.00000000000E+00  0.00000000000E+00  0.98267367891E+03  0.98267449958E+03  0.12700000000E+01 0. -1.
         21   -1    0    0  501  502  0.00000000000E+00 -0.00000000000E+00 -0.11983381832E+02  0.11983381832E+02  0.00000000000E+00 0. -1.
         25    2    1    2    0    0 -0.14314436250E+02 -0.54922670557E+02  0.85316197091E+03  0.86413614691E+03  0.12499811581E+03 0.  0.
    9000005    1    3    3    0    0  0.42977330417E+02 -0.61315404508E+02  0.36659547714E+03  0.37416556980E+03  0.10000000000E+01 0.  0.
    9000005    1    3    3    0    0 -0.57291766666E+02  0.63927339514E+01  0.48656649377E+03  0.48997057711E+03  0.10000000000E+01 0.  0.
          4    1    1    2  501    0  0.14314436250E+02  0.54922670557E+02  0.11752832616E+03  0.13052173450E+03  0.12700000000E+01 0.  1.
<mgrwt>
<rscale>  1 0.13728049E+03</rscale>
<asrwt>0</asrwt>
<pdfrwt beam="2">  1       21 0.18435980E-02 0.13728049E+03</pdfrwt>
<pdfrwt beam="1">  1        4 0.15118574E+00 0.13728049E+03</pdfrwt>
<totfact> 0.17849137E+04</totfact>
</mgrwt>
</event>
<event>
 6    4  0.6358868E-003  0.1275294E+03  0.7818608E-02  0.1231168E+00
          4   -1    0    0  502    0 -0.00000000000E+00  0.00000000000E+00  0.18523204360E+02  0.18566690598E+02  0.12700000000E+01 0.  1.
         21   -1    0    0  501  502  0.00000000000E+00 -0.00000000000E+00 -0.31499322466E+03  0.31499322466E+03  0.00000000000E+00 0.  1.
         25    2    1    2    0    0 -0.10349102648E+02 -0.23057309495E+02 -0.24487012903E+03  0.27608900848E+03  0.12500006826E+03 0.  0.
    9000005    1    3    3    0    0  0.27067469996E+02 -0.39789864798E+01  0.26700331368E+00  0.27377939224E+02  0.10000000000E+01 0.  0.
    9000005    1    3    3    0    0 -0.37416572643E+02 -0.19078323016E+02 -0.24513713234E+03  0.24871106925E+03  0.10000000000E+01 0.  0.
          4    1    1    2  501    0  0.10349102648E+02  0.23057309495E+02 -0.51599891277E+02  0.57470906784E+02  0.12700000000E+01 0. -1.
<mgrwt>
<rscale>  1 0.12752945E+03</rscale>
<asrwt>0</asrwt>
<pdfrwt beam="2">  1       21 0.48460495E-01 0.12752945E+03</pdfrwt>
<pdfrwt beam="1">  1        4 0.28532658E-02 0.12752945E+03</pdfrwt>
<totfact> 0.95641418E+04</totfact>
</mgrwt>
</event>
<event>
 6    4  0.6358868E-003  0.1288787E+03  0.7818608E-02  0.1229129E+00
         -4   -1    0    0    0  501 -0.00000000000E+00  0.00000000000E+00  0.85829930593E+01  0.86764433875E+01  0.12700000000E+01 0.  1.
         21   -1    0    0  501  502  0.00000000000E+00 -0.00000000000E+00 -0.11602551024E+04  0.11602551024E+04  0.00000000000E+00 0.  1.
         25    2    1    2    0    0 -0.30756632653E+02 -0.61152536167E+01 -0.49476000245E+03  0.51127016189E+03  0.12500540646E+03 0.  0.
    9000005    1    3    3    0    0 -0.10657801831E+02 -0.54183424527E+02 -0.39380648849E+03  0.39766063749E+03  0.10000000000E+01 0.  0.
    9000005    1    3    3    0    0 -0.20098830822E+02  0.48068170910E+02 -0.10095351396E+03  0.11360952440E+03  0.10000000000E+01 0.  0.
         -4    1    1    2    0  502  0.30756632653E+02  0.61152536167E+01 -0.65691210694E+03  0.65766138393E+03  0.12700000000E+01 0. -1.
<mgrwt>
<rscale>  1 0.12887870E+03</rscale>
<asrwt>0</asrwt>
<pdfrwt beam="2">  1       21 0.17850074E+00 0.12887870E+03</pdfrwt>
<pdfrwt beam="1">  1       -4 0.13277027E-02 0.12887870E+03</pdfrwt>
<totfact> 0.14820489E+04</totfact>
</mgrwt>
</event>
<event>
 6    4  0.6358868E-003  0.1278813E+03  0.7818608E-02  0.1230634E+00
         -4   -1    0    0    0  501 -0.00000000000E+00  0.00000000000E+00  0.18260741195E+03  0.18261182821E+03  0.12700000000E+01 0. -1.
         21   -1    0    0  501  502  0.00000000000E+00 -0.00000000000E+00 -0.18977258598E+03  0.18977258598E+03  0.00000000000E+00 0.  1.
         25    2    1    2    0    0  0.25056565452E+02  0.10014230996E+02  0.15899554885E+03  0.20404215858E+03  0.12500200651E+03 0.  0.
    9000005    1    3    3    0    0  0.35467238602E+02  0.26615531088E+01 -0.80728370550E+01  0.36485333727E+02  0.10000000000E+01 0.  0.
    9000005    1    3    3    0    0 -0.10410673151E+02  0.73526778870E+01  0.16706838590E+03  0.16755682486E+03  0.10000000000E+01 0.  0.
         -4    1    1    2    0  502 -0.25056565452E+02 -0.10014230996E+02 -0.16616072288E+03  0.16834225560E+03  0.12700000000E+01 0.  1.
<mgrwt>
<rscale>  1 0.12788126E+03</rscale>
<asrwt>0</asrwt>
<pdfrwt beam="2">  1       21 0.29195782E-01 0.12788126E+03</pdfrwt>
<pdfrwt beam="1">  1       -4 0.28094115E-01 0.12788126E+03</pdfrwt>
<totfact> 0.55552482E+03</totfact>
</mgrwt>
</event>
<event>
 6    4  0.6358868E-003  0.1278046E+03  0.7818608E-02  0.1230750E+00
         21   -1    0    0  501  502  0.00000000000E+00  0.00000000000E+00  0.72353688910E+02  0.72353688910E+02  0.00000000000E+00 0.  1.
          4   -1    0    0  502    0 -0.00000000000E+00 -0.00000000000E+00 -0.13351589527E+03  0.13352193524E+03  0.12700000000E+01 0. -1.
         25    2    1    2    0    0  0.66639523311E+01  0.25809337534E+02 -0.97530036081E+02  0.16076728674E+03  0.12499392939E+03 0.  0.
    9000005    1    3    3    0    0  0.55945002606E+02 -0.18917731944E+02 -0.31196620788E+02  0.66797852114E+02  0.10000000000E+01 0.  0.
    9000005    1    3    3    0    0 -0.49281050275E+02  0.44727069477E+02 -0.66333415293E+02  0.93969434630E+02  0.10000000000E+01 0.  0.
          4    1    1    2  501    0 -0.66639523311E+01 -0.25809337534E+02  0.36367829722E+02  0.45108337403E+02  0.12700000000E+01 0.  1.
<mgrwt>
<rscale>  1 0.12780459E+03</rscale>
<asrwt>0</asrwt>
<pdfrwt beam="1">  1       21 0.11131337E-01 0.12780459E+03</pdfrwt>
<pdfrwt beam="2">  1        4 0.20542229E-01 0.12780459E+03</pdfrwt>
<totfact> 0.57868068E+04</totfact>
</mgrwt>
</event>
<event>
 6    4  0.6358868E-003  0.1277460E+03  0.7818608E-02  0.1230839E+00
         21   -1    0    0  501  502  0.00000000000E+00  0.00000000000E+00  0.10002399061E+03  0.10002399061E+03  0.00000000000E+00 0. -1.
         -4   -1    0    0    0  501 -0.00000000000E+00 -0.00000000000E+00 -0.18019579919E+03  0.18020027454E+03  0.12700000000E+01 0.  1.
         25    2    1    2    0    0  0.22440401986E+02 -0.13817661438E+02 -0.15501318475E+03  0.20086845946E+03  0.12499820459E+03 0.  0.
    9000005    1    3    3    0    0  0.27425357179E+02 -0.32945868970E+01 -0.17529477909E+03  0.17746059871E+03  0.10000000000E+01 0.  0.
    9000005    1    3    3    0    0 -0.49849551927E+01 -0.10523074541E+02  0.20281594336E+02  0.23407860750E+02  0.10000000000E+01 0.  0.
         -4    1    1    2    0  502 -0.22440401986E+02  0.13817661438E+02  0.74841376178E+02  0.79355805692E+02  0.12700000000E+01 0. -1.
<mgrwt>
<rscale>  1 0.12774604E+03</rscale>
<asrwt>0</asrwt>
<pdfrwt beam="1">  1       21 0.15388306E-01 0.12774604E+03</pdfrwt>
<pdfrwt beam="2">  1       -4 0.27723395E-01 0.12774604E+03</pdfrwt>
<totfact> 0.18742838E+04</totfact>
</mgrwt>
</event>
<event>
 6    4  0.6358868E-003  0.1274141E+03  0.7818608E-02  0.1231344E+00
         21   -1    0    0  501  502  0.00000000000E+00  0.00000000000E+00  0.88447893263E+02  0.88447893263E+02  0.00000000000E+00 0.  1.
          4   -1    0    0  502    0 -0.00000000000E+00 -0.00000000000E+00 -0.12929634160E+03  0.12930257867E+03  0.12700000000E+01 0. -1.
         25    2    1    2    0    0 -0.10654053804E+02 -0.22259504534E+02 -0.94532145252E+02  0.15865270024E+03  0.12500143361E+03 0.  0.
    9000005    1    3    3    0    0 -0.65088649871E+01 -0.72897908362E+02 -0.73270289064E+02  0.10356643098E+03  0.10000000000E+01 0.  0.
    9000005    1    3    3    0    0 -0.41451888168E+01  0.50638403828E+02 -0.21261856188E+02  0.55086269261E+02  0.10000000000E+01 0.  0.
          4    1    1    2  501    0  0.10654053804E+02  0.22259504534E+02  0.53683696914E+02  0.59097771692E+02  0.12700000000E+01 0.  1.
<mgrwt>
<rscale>  1 0.12741410E+03</rscale>
<asrwt>0</asrwt>
<pdfrwt beam="1">  1       21 0.13607368E-01 0.12741410E+03</pdfrwt>
<pdfrwt beam="2">  1        4 0.19892926E-01 0.12741410E+03</pdfrwt>
<totfact> 0.42911164E+04</totfact>
</mgrwt>
</event>
<event>
 6    4  0.6358868E-003  0.1271337E+03  0.7818608E-02  0.1231772E+00
         -4   -1    0    0    0  501 -0.00000000000E+00  0.00000000000E+00  0.33553434746E+02  0.33577460942E+02  0.12700000000E+01 0. -1.
         21   -1    0    0  501  502  0.00000000000E+00 -0.00000000000E+00 -0.25702673666E+03  0.25702673666E+03  0.00000000000E+00 0.  1.
         25    2    1    2    0    0 -0.14728670800E+02 -0.17919572844E+02 -0.91588298214E+02  0.15668888132E+03  0.12499977730E+03 0.  0.
    9000005    1    3    3    0    0 -0.59472047284E+02  0.18336691196E+02 -0.21234854388E+02  0.65765322877E+02  0.10000000000E+01 0.  0.
    9000005    1    3    3    0    0  0.44743376485E+02 -0.36256264041E+02 -0.70353443827E+02  0.90923558442E+02  0.10000000000E+01 0.  0.
         -4    1    1    2    0  502  0.14728670800E+02  0.17919572844E+02 -0.13188500369E+03  0.13391531628E+03  0.12700000000E+01 0.  1.
<mgrwt>
<rscale>  1 0.12713375E+03</rscale>
<asrwt>0</asrwt>
<pdfrwt beam="2">  1       21 0.39542576E-01 0.12713375E+03</pdfrwt>
<pdfrwt beam="1">  1       -4 0.51641563E-02 0.12713375E+03</pdfrwt>
<totfact> 0.56392437E+04</totfact>
</mgrwt>
</event>
<event>
 6    4  0.6358868E-003  0.1297209E+03  0.7818608E-02  0.1227870E+00
         21   -1    0    0  501  502  0.00000000000E+00  0.00000000000E+00  0.28581214731E+02  0.28581214731E+02  0.00000000000E+00 0. -1.
         -4   -1    0    0    0  501 -0.00000000000E+00 -0.00000000000E+00 -0.23841425573E+03  0.23841763826E+03  0.12700000000E+01 0. -1.
         25    2    1    2    0    0 -0.32221370503E+02 -0.12726624998E+02 -0.17519681688E+03  0.21799411218E+03  0.12500929805E+03 0.  0.
    9000005    1    3    3    0    0  0.71361052737E+01 -0.21289460296E+02 -0.17626220623E+03  0.17768942136E+03  0.10000000000E+01 0.  0.
    9000005    1    3    3    0    0 -0.39357475777E+02  0.85628352979E+01  0.10653893474E+01  0.40304690823E+02  0.10000000000E+01 0.  0.
         -4    1    1    2    0  502  0.32221370503E+02  0.12726624998E+02 -0.34636224113E+02  0.49004740809E+02  0.12700000000E+01 0.  1.
<mgrwt>
<rscale>  1 0.12972089E+03</rscale>
<asrwt>0</asrwt>
<pdfrwt beam="1">  1       21 0.43971100E-02 0.12972089E+03</pdfrwt>
<pdfrwt beam="2">  1       -4 0.36681546E-01 0.12972089E+03</pdfrwt>
<totfact> 0.96304299E+04</totfact>
</mgrwt>
</event>
<event>
 6    4  0.6358868E-003  0.1280338E+03  0.7818608E-02  0.1230403E+00
          4   -1    0    0  502    0 -0.00000000000E+00  0.00000000000E+00  0.92590387061E+03  0.92590474160E+03  0.12700000000E+01 0. -1.
         21   -1    0    0  501  502  0.00000000000E+00 -0.00000000000E+00 -0.10627599963E+02  0.10627599963E+02  0.00000000000E+00 0.  1.
         25    2    1    2    0    0  0.14957258643E+02  0.23139573195E+02  0.88986619295E+03  0.89902974988E+03  0.12503395695E+03 0.  0.
    9000005    1    3    3    0    0 -0.52396712173E+02 -0.87930630810E+01  0.40339321633E+03  0.40687813948E+03  0.10000000000E+01 0.  0.
    9000005    1    3    3    0    0  0.67353970816E+02  0.31932636276E+02  0.48647297661E+03  0.49215161040E+03  0.10000000000E+01 0.  0.
          4    1    1    2  501    0 -0.14957258643E+02 -0.23139573195E+02  0.25410077702E+02  0.37502591678E+02  0.12700000000E+01 0.  1.
<mgrwt>
<rscale>  1 0.12803378E+03</rscale>
<asrwt>0</asrwt>
<pdfrwt beam="2">  1       21 0.16350161E-02 0.12803378E+03</pdfrwt>
<pdfrwt beam="1">  1        4 0.14245259E+00 0.12803378E+03</pdfrwt>
<totfact> 0.24975669E+04</totfact>
</mgrwt>
</event>
<event>
 6    4  0.6358868E-003  0.1268565E+03  0.7818608E-02  0.1232196E+00
         21   -1    0    0  501  502  0.00000000000E+00  0.00000000000E+00  0.11270590764E+03  0.11270590764E+03  0.00000000000E+00 0.  1.
          4   -1    0    0  502    0 -0.00000000000E+00 -0.00000000000E+00 -0.48910616765E+02  0.48927102227E+02  0.12700000000E+01 0.  1.
         25    2    1    2    0    0  0.15978015239E+02  0.14556466863E+02  0.54175646099E+02  0.13794043373E+03  0.12500149970E+03 0.  0.
    9000005    1    3    3    0    0  0.49513531529E+02  0.27344032748E+02 -0.16277055356E+02  0.58866191167E+02  0.10000000000E+01 0.  0.
    9000005    1    3    3    0    0 -0.33535516290E+02 -0.12787565885E+02  0.70452701455E+02  0.79074242560E+02  0.10000000000E+01 0.  0.
          4    1    1    2  501    0 -0.15978015239E+02 -0.14556466863E+02  0.96196447767E+01  0.23692576140E+02  0.12700000000E+01 0. -1.
<mgrwt>
<rscale>  1 0.12685646E+03</rscale>
<asrwt>0</asrwt>
<pdfrwt beam="1">  1       21 0.17339370E-01 0.12685646E+03</pdfrwt>
<pdfrwt beam="2">  1        4 0.75265288E-02 0.12685646E+03</pdfrwt>
<totfact> 0.14653585E+05</totfact>
</mgrwt>
</event>
<event>
 6    4  0.6358868E-003  0.1276721E+03  0.7818608E-02  0.1230951E+00
         21   -1    0    0  501  502  0.00000000000E+00  0.00000000000E+00  0.86600682194E+02  0.86600682194E+02  0.00000000000E+00 0.  1.
          4   -1    0    0  502    0 -0.00000000000E+00 -0.00000000000E+00 -0.72755943470E+02  0.72767026944E+02  0.12700000000E+01 0.  1.
         25    2    1    2    0    0 -0.77726122468E+01 -0.24786444918E+02 -0.41535900887E+01  0.12773965051E+03  0.12500153858E+03 0.  0.
    9000005    1    3    3    0    0 -0.62313543635E+02 -0.20494469706E+02 -0.23522018736E+02  0.69694234871E+02  0.10000000000E+01 0.  0.
    9000005    1    3    3    0    0  0.54540931388E+02 -0.42919752118E+01  0.19368428647E+02  0.58045415635E+02  0.10000000000E+01 0.  0.
          4    1    1    2  501    0  0.77726122468E+01  0.24786444918E+02  0.17998328813E+02  0.31628058632E+02  0.12700000000E+01 0. -1.
<mgrwt>
<rscale>  1 0.12767210E+03</rscale>
<asrwt>0</asrwt>
<pdfrwt beam="1">  1       21 0.13323182E-01 0.12767210E+03</pdfrwt>
<pdfrwt beam="2">  1        4 0.11194791E-01 0.12767210E+03</pdfrwt>
<totfact> 0.12149058E+05</totfact>
</mgrwt>
</event>
<event>
 6    4  0.6358868E-003  0.1329340E+03  0.7818608E-02  0.1223166E+00
         -4   -1    0    0    0  501 -0.00000000000E+00  0.00000000000E+00  0.10659890516E+02  0.10735276699E+02  0.12700000000E+01 0.  1.
         21   -1    0    0  501  502  0.00000000000E+00 -0.00000000000E+00 -0.98489787735E+03  0.98489787735E+03  0.00000000000E+00 0. -1.
         25    2    1    2    0    0  0.39240907708E+02 -0.22508045733E+02 -0.44415241178E+03  0.46361925316E+03  0.12499994419E+03 0.  0.
    9000005    1    3    3    0    0 -0.14341870677E+02  0.44676436108E+02 -0.15026678120E+03  0.15742547040E+03  0.10000000000E+01 0.  0.
    9000005    1    3    3    0    0  0.53582778386E+02 -0.67184481841E+02 -0.29388563059E+03  0.30619378277E+03  0.10000000000E+01 0.  0.
         -4    1    1    2    0  502 -0.39240907708E+02  0.22508045733E+02 -0.53008557505E+03  0.53201390089E+03  0.12700000000E+01 0. -1.
<mgrwt>
<rscale>  1 0.13293399E+03</rscale>
<asrwt>0</asrwt>
<pdfrwt beam="2">  1       21 0.15152284E+00 0.13293399E+03</pdfrwt>
<pdfrwt beam="1">  1       -4 0.16458442E-02 0.13293399E+03</pdfrwt>
<totfact> 0.16592873E+04</totfact>
</mgrwt>
</event>
<event>
 6    4  0.6358868E-003  0.1268969E+03  0.7818608E-02  0.1232134E+00
         -4   -1    0    0    0  501 -0.00000000000E+00  0.00000000000E+00  0.26117114156E+01  0.29041240535E+01  0.12700000000E+01 0.  1.
         21   -1    0    0  501  502  0.00000000000E+00 -0.00000000000E+00 -0.20927492881E+04  0.20927492881E+04  0.00000000000E+00 0.  1.
         25    2    1    2    0    0 -0.15950129140E+02  0.14957403375E+02 -0.15988597008E+04  0.16038875179E+04  0.12499878655E+03 0.  0.
    9000005    1    3    3    0    0  0.47640760213E+01  0.68729533704E+02 -0.80988060107E+03  0.81280627040E+03  0.10000000000E+01 0.  0.
    9000005    1    3    3    0    0 -0.20714205162E+02 -0.53772130329E+02 -0.78897909976E+03  0.79108124751E+03  0.10000000000E+01 0.  0.
         -4    1    1    2    0  502  0.15950129140E+02 -0.14957403375E+02 -0.49127787589E+03  0.49176589427E+03  0.12700000000E+01 0. -1.
<mgrwt>
<rscale>  1 0.12689692E+03</rscale>
<asrwt>0</asrwt>
<pdfrwt beam="2">  1       21 0.32196080E+00 0.12689692E+03</pdfrwt>
<pdfrwt beam="1">  1       -4 0.42432550E-03 0.12689692E+03</pdfrwt>
<totfact> 0.11662858E+04</totfact>
</mgrwt>
</event>
<event>
 6    4  0.6358868E-003  0.1273827E+03  0.7818608E-02  0.1231392E+00
         -4   -1    0    0    0  501 -0.00000000000E+00  0.00000000000E+00  0.33648139329E+03  0.33648379000E+03  0.12700000000E+01 0.  1.
         21   -1    0    0  501  502  0.00000000000E+00 -0.00000000000E+00 -0.17531802072E+02  0.17531802072E+02  0.00000000000E+00 0.  1.
         25    2    1    2    0    0 -0.85223027392E+01 -0.22995642442E+02  0.28443688278E+03  0.31165795806E+03  0.12499965328E+03 0.  0.
    9000005    1    3    3    0    0 -0.57065546917E+02  0.18856590663E+01  0.69737626213E+02  0.90135280911E+02  0.10000000000E+01 0.  0.
    9000005    1    3    3    0    0  0.48543244178E+02 -0.24881301508E+02  0.21469925656E+03  0.22152267714E+03  0.10000000000E+01 0.  0.
         -4    1    1    2    0  502  0.85223027392E+01  0.22995642442E+02  0.34512708443E+02  0.42357634015E+02  0.12700000000E+01 0. -1.
<mgrwt>
<rscale>  1 0.12738266E+03</rscale>
<asrwt>0</asrwt>
<pdfrwt beam="2">  1       21 0.26972006E-02 0.12738266E+03</pdfrwt>
<pdfrwt beam="1">  1       -4 0.51770086E-01 0.12738266E+03</pdfrwt>
<totfact> 0.10830074E+05</totfact>
</mgrwt>
</event>
<event>
 6    4  0.6358868E-003  0.1366547E+03  0.7818608E-02  0.1217903E+00
         -4   -1    0    0    0  501 -0.00000000000E+00  0.00000000000E+00  0.56701872182E+02  0.56716093033E+02  0.12700000000E+01 0. -1.
         21   -1    0    0  501  502  0.00000000000E+00 -0.00000000000E+00 -0.16550249791E+03  0.16550249791E+03  0.00000000000E+00 0. -1.
         25    2    1    2    0    0  0.49932365666E+02  0.23580810812E+02 -0.63058162337E+02  0.15050191480E+03  0.12500079497E+03 0.  0.
    9000005    1    3    3    0    0  0.55393198185E+02 -0.67023679862E+01 -0.92417253904E+02  0.10795960801E+03  0.10000000000E+01 0.  0.
    9000005    1    3    3    0    0 -0.54608325193E+01  0.30283178798E+02  0.29359091567E+02  0.42542306796E+02  0.10000000000E+01 0.  0.
         -4    1    1    2    0  502 -0.49932365666E+02 -0.23580810812E+02 -0.45742463391E+02  0.71716676140E+02  0.12700000000E+01 0.  1.
<mgrwt>
<rscale>  1 0.13665465E+03</rscale>
<asrwt>0</asrwt>
<pdfrwt beam="2">  1       21 0.25461923E-01 0.13665465E+03</pdfrwt>
<pdfrwt beam="1">  1       -4 0.87248337E-02 0.13665465E+03</pdfrwt>
<totfact> 0.56711666E+04</totfact>
</mgrwt>
</event>
<event>
 6    4  0.6358868E-003  0.1284524E+03  0.7818608E-02  0.1229770E+00
         21   -1    0    0  501  502  0.00000000000E+00  0.00000000000E+00  0.12347531774E+03  0.12347531774E+03  0.00000000000E+00 0. -1.
          4   -1    0    0  502    0 -0.00000000000E+00 -0.00000000000E+00 -0.51496483054E+02  0.51512140967E+02  0.12700000000E+01 0. -1.
         25    2    1    2    0    0 -0.29473507122E+02  0.24383654776E+01  0.48872734684E+02  0.13743565442E+03  0.12500152663E+03 0.  0.
    9000005    1    3    3    0    0  0.93758511889E+01  0.23663413874E+02  0.79574843726E+02  0.83552495448E+02  0.10000000000E+01 0.  0.
    9000005    1    3    3    0    0 -0.38849358311E+02 -0.21225048396E+02 -0.30702109041E+02  0.53883158967E+02  0.10000000000E+01 0.  0.
          4    1    1    2  501    0  0.29473507122E+02 -0.24383654776E+01  0.23106100002E+02  0.37551804292E+02  0.12700000000E+01 0.  1.
<mgrwt>
<rscale>  1 0.12845238E+03</rscale>
<asrwt>0</asrwt>
<pdfrwt beam="1">  1       21 0.18996203E-01 0.12845238E+03</pdfrwt>
<pdfrwt beam="2">  1        4 0.79242428E-02 0.12845238E+03</pdfrwt>
<totfact> 0.11408571E+05</totfact>
</mgrwt>
</event>
<event>
 6    4  0.6358868E-003  0.1475256E+03  0.7818608E-02  0.1203547E+00
         -4   -1    0    0    0  501 -0.00000000000E+00  0.00000000000E+00  0.25517273533E+03  0.25517589572E+03  0.12700000000E+01 0. -1.
         21   -1    0    0  501  502  0.00000000000E+00 -0.00000000000E+00 -0.53084177951E+02  0.53084177951E+02  0.00000000000E+00 0.  1.
         25    2    1    2    0    0  0.70498361037E+02 -0.34188595856E+02  0.16571721542E+03  0.22186929632E+03  0.12499964067E+03 0.  0.
    9000005    1    3    3    0    0 -0.14220200573E+02  0.33529919266E+02  0.61320448425E+02  0.71327883645E+02  0.10000000000E+01 0.  0.
    9000005    1    3    3    0    0  0.84718561610E+02 -0.67718515122E+02  0.10439676699E+03  0.15054141267E+03  0.10000000000E+01 0.  0.
         -4    1    1    2    0  502 -0.70498361037E+02  0.34188595856E+02  0.36371341967E+02  0.86390777355E+02  0.12700000000E+01 0.  1.
<mgrwt>
<rscale>  1 0.14752555E+03</rscale>
<asrwt>0</asrwt>
<pdfrwt beam="2">  1       21 0.81667968E-02 0.14752555E+03</pdfrwt>
<pdfrwt beam="1">  1       -4 0.39258755E-01 0.14752555E+03</pdfrwt>
<totfact> 0.29932132E+04</totfact>
</mgrwt>
</event>
<event>
 6    4  0.6358868E-003  0.1266395E+03  0.7818608E-02  0.1232529E+00
          4   -1    0    0  502    0 -0.00000000000E+00  0.00000000000E+00  0.12695452907E+03  0.12696088119E+03  0.12700000000E+01 0.  1.
         21   -1    0    0  501  502  0.00000000000E+00 -0.00000000000E+00 -0.42748749226E+02  0.42748749226E+02  0.00000000000E+00 0.  1.
         25    2    1    2    0    0 -0.68644957834E+01 -0.19142079211E+02  0.68462070860E+02  0.14396049894E+03  0.12499611838E+03 0.  0.
    9000005    1    3    3    0    0  0.24272764129E+02 -0.63426987577E+02  0.18762504117E+02  0.70464043258E+02  0.10000000000E+01 0.  0.
    9000005    1    3    3    0    0 -0.31137259913E+02  0.44284908366E+02  0.49699566744E+02  0.73496455686E+02  0.10000000000E+01 0.  0.
          4    1    1    2  501    0  0.68644957834E+01  0.19142079211E+02  0.15743708986E+02  0.25749131471E+02  0.12700000000E+01 0. -1.
<mgrwt>
<rscale>  1 0.12663953E+03</rscale>
<asrwt>0</asrwt>
<pdfrwt beam="2">  1       21 0.65767307E-02 0.12663953E+03</pdfrwt>
<pdfrwt beam="1">  1        4 0.19533405E-01 0.12663953E+03</pdfrwt>
<totfact> 0.15735423E+05</totfact>
</mgrwt>
</event>
<event>
 6    4  0.6358868E-003  0.1268301E+03  0.7818608E-02  0.1232237E+00
         21   -1    0    0  501  502  0.00000000000E+00  0.00000000000E+00  0.96612315910E+01  0.96612315910E+01  0.00000000000E+00 0.  1.
         -4   -1    0    0    0  501 -0.00000000000E+00 -0.00000000000E+00 -0.57359998836E+03  0.57360139430E+03  0.12700000000E+01 0.  1.
         25    2    1    2    0    0 -0.20297115396E+02 -0.68821174911E+01 -0.46237321147E+03  0.47945265852E+03  0.12500611442E+03 0.  0.
    9000005    1    3    3    0    0  0.21070356681E+02  0.49970911388E+02 -0.24721449976E+03  0.25309496401E+03  0.10000000000E+01 0.  0.
    9000005    1    3    3    0    0 -0.41367472077E+02 -0.56853028879E+02 -0.21515871171E+03  0.22635769451E+03  0.10000000000E+01 0.  0.
         -4    1    1    2    0  502  0.20297115396E+02  0.68821174911E+01 -0.10156554530E+03  0.10380996737E+03  0.12700000000E+01 0. -1.
<mgrwt>
<rscale>  1 0.12683006E+03</rscale>
<asrwt>0</asrwt>
<pdfrwt beam="1">  1       21 0.14863438E-02 0.12683006E+03</pdfrwt>
<pdfrwt beam="2">  1       -4 0.88252655E-01 0.12683006E+03</pdfrwt>
<totfact> 0.90254397E+04</totfact>
</mgrwt>
</event>
<event>
 6    4  0.6358868E-003  0.1285053E+03  0.7818608E-02  0.1229691E+00
         21   -1    0    0  501  502  0.00000000000E+00  0.00000000000E+00  0.97020239780E+03  0.97020239780E+03  0.00000000000E+00 0. -1.
          4   -1    0    0  502    0 -0.00000000000E+00 -0.00000000000E+00 -0.21704382380E+02  0.21741506721E+02  0.12700000000E+01 0.  1.
         25    2    1    2    0    0  0.25381518779E+02  0.15638361421E+02  0.17114904813E+03  0.21402243696E+03  0.12499930801E+03 0.  0.
    9000005    1    3    3    0    0  0.47513430277E+02  0.60788253476E+02  0.11668476170E+03  0.13988949722E+03  0.10000000000E+01 0.  0.
    9000005    1    3    3    0    0 -0.22131911498E+02 -0.45149892055E+02  0.54464286423E+02  0.74132939742E+02  0.10000000000E+01 0.  0.
          4    1    1    2  501    0 -0.25381518779E+02 -0.15638361421E+02  0.77734896729E+03  0.77792146756E+03  0.12700000000E+01 0. -1.
<mgrwt>
<rscale>  1 0.12850528E+03</rscale>
<asrwt>0</asrwt>
<pdfrwt beam="1">  1       21 0.14926187E+00 0.12850528E+03</pdfrwt>
<pdfrwt beam="2">  1        4 0.33420562E-02 0.12850528E+03</pdfrwt>
<totfact> 0.57481621E+03</totfact>
</mgrwt>
</event>
<event>
 6    4  0.6358868E-003  0.1322106E+03  0.7818608E-02  0.1224212E+00
         21   -1    0    0  501  502  0.00000000000E+00  0.00000000000E+00  0.20041199458E+03  0.20041199458E+03  0.00000000000E+00 0.  1.
         -4   -1    0    0    0  501 -0.00000000000E+00 -0.00000000000E+00 -0.48493832024E+02  0.48510459124E+02  0.12700000000E+01 0. -1.
         25    2    1    2    0    0  0.25874093754E+02 -0.34423639572E+02  0.55633841202E+02  0.14343909422E+03  0.12500077510E+03 0.  0.
    9000005    1    3    3    0    0 -0.79761134194E+01  0.44984015820E+02  0.15654985085E+02  0.48303815818E+02  0.10000000000E+01 0.  0.
    9000005    1    3    3    0    0  0.33850207173E+02 -0.79407655392E+02  0.39978856117E+02  0.95135278404E+02  0.10000000000E+01 0.  0.
         -4    1    1    2    0  502 -0.25874093754E+02  0.34423639572E+02  0.96284321353E+02  0.10548335948E+03  0.12700000000E+01 0.  1.
<mgrwt>
<rscale>  1 0.13221063E+03</rscale>
<asrwt>0</asrwt>
<pdfrwt beam="1">  1       21 0.30832614E-01 0.13221063E+03</pdfrwt>
<pdfrwt beam="2">  1       -4 0.74621782E-02 0.13221063E+03</pdfrwt>
<totfact> 0.50735141E+04</totfact>
</mgrwt>
</event>
<event>
 6    4  0.6358868E-003  0.1271950E+03  0.7818608E-02  0.1231678E+00
         -4   -1    0    0    0  501 -0.00000000000E+00  0.00000000000E+00  0.38693812653E+03  0.38694021071E+03  0.12700000000E+01 0. -1.
         21   -1    0    0  501  502  0.00000000000E+00 -0.00000000000E+00 -0.25442737191E+02  0.25442737191E+02  0.00000000000E+00 0.  1.
         25    2    1    2    0    0  0.23155613165E+02  0.43713053700E+01  0.36677207041E+03  0.38820140546E+03  0.12499315517E+03 0.  0.
    9000005    1    3    3    0    0 -0.19492824645E+02 -0.27385958818E+02  0.23968851392E+02  0.41297297611E+02  0.10000000000E+01 0.  0.
    9000005    1    3    3    0    0  0.42648437810E+02  0.31757264188E+02  0.34280321901E+03  0.34690410785E+03  0.10000000000E+01 0.  0.
         -4    1    1    2    0  502 -0.23155613165E+02 -0.43713053700E+01 -0.52766810656E+01  0.24181542440E+02  0.12700000000E+01 0.  1.
<mgrwt>
<rscale>  1 0.12719505E+03</rscale>
<asrwt>0</asrwt>
<pdfrwt beam="2">  1       21 0.39142676E-02 0.12719505E+03</pdfrwt>
<pdfrwt beam="1">  1       -4 0.59531536E-01 0.12719505E+03</pdfrwt>
<totfact> 0.43941814E+04</totfact>
</mgrwt>
</event>
<event>
 6    4  0.6358868E-003  0.1281389E+03  0.7818608E-02  0.1230244E+00
         -4   -1    0    0    0  501 -0.00000000000E+00  0.00000000000E+00  0.22424905288E+02  0.22460838746E+02  0.12700000000E+01 0. -1.
         21   -1    0    0  501  502  0.00000000000E+00 -0.00000000000E+00 -0.60207909554E+03  0.60207909554E+03  0.00000000000E+00 0.  1.
         25    2    1    2    0    0  0.23324624182E+02  0.15785836751E+02 -0.16492511378E+03  0.20885369382E+03  0.12500536602E+03 0.  0.
    9000005    1    3    3    0    0  0.76785717251E+01 -0.53539396569E+02 -0.93931395364E+02  0.10839526966E+03  0.10000000000E+01 0.  0.
    9000005    1    3    3    0    0  0.15646052457E+02  0.69325233319E+02 -0.70993718414E+02  0.10045842417E+03  0.10000000000E+01 0.  0.
         -4    1    1    2    0  502 -0.23324624182E+02 -0.15785836751E+02 -0.41472907647E+03  0.41568624046E+03  0.12700000000E+01 0.  1.
<mgrwt>
<rscale>  1 0.12813888E+03</rscale>
<asrwt>0</asrwt>
<pdfrwt beam="2">  1       21 0.92627534E-01 0.12813888E+03</pdfrwt>
<pdfrwt beam="1">  1       -4 0.34528533E-02 0.12813888E+03</pdfrwt>
<totfact> 0.17427079E+04</totfact>
</mgrwt>
</event>
<event>
 6    4  0.6358868E-003  0.1294125E+03  0.7818608E-02  0.1228330E+00
         21   -1    0    0  501  502  0.00000000000E+00  0.00000000000E+00  0.85334545439E+02  0.85334545439E+02  0.00000000000E+00 0.  1.
          4   -1    0    0  502    0 -0.00000000000E+00 -0.00000000000E+00 -0.84421556921E+02  0.84431109036E+02  0.12700000000E+01 0.  1.
         25    2    1    2    0    0  0.30125382342E+00 -0.33500132997E+02 -0.18957770291E+02  0.13079374638E+03  0.12500102949E+03 0.  0.
    9000005    1    3    3    0    0 -0.55781400735E+02  0.12137528076E+02 -0.77987371600E+01  0.57625554722E+02  0.10000000000E+01 0.  0.
    9000005    1    3    3    0    0  0.56082654558E+02 -0.45637661073E+02 -0.11159033131E+02  0.73168191661E+02  0.10000000000E+01 0.  0.
          4    1    1    2  501    0 -0.30125382342E+00  0.33500132997E+02  0.19870758809E+02  0.38971908092E+02  0.12700000000E+01 0. -1.
<mgrwt>
<rscale>  1 0.12941255E+03</rscale>
<asrwt>0</asrwt>
<pdfrwt beam="1">  1       21 0.13128392E-01 0.12941255E+03</pdfrwt>
<pdfrwt beam="2">  1        4 0.12989394E-01 0.12941255E+03</pdfrwt>
<totfact> 0.96923113E+04</totfact>
</mgrwt>
</event>
<event>
 6    4  0.6358868E-003  0.1271275E+03  0.7818608E-02  0.1231781E+00
         21   -1    0    0  501  502  0.00000000000E+00  0.00000000000E+00  0.16057755027E+03  0.16057755027E+03  0.00000000000E+00 0.  1.
         -4   -1    0    0    0  501 -0.00000000000E+00 -0.00000000000E+00 -0.36095882604E+02  0.36118217577E+02  0.12700000000E+01 0.  1.
         25    2    1    2    0    0  0.11306318806E+02  0.20229245931E+02  0.92675166432E+02  0.15732164365E+03  0.12499743137E+03 0.  0.
    9000005    1    3    3    0    0  0.65094992377E+02 -0.22208434079E+01  0.29966614416E+02  0.71702776498E+02  0.10000000000E+01 0.  0.
    9000005    1    3    3    0    0 -0.53788673570E+02  0.22450089339E+02  0.62708552015E+02  0.85618867147E+02  0.10000000000E+01 0.  0.
         -4    1    1    2    0  502 -0.11306318806E+02 -0.20229245931E+02  0.31806501239E+02  0.39374124206E+02  0.12700000000E+01 0. -1.
<mgrwt>
<rscale>  1 0.12712755E+03</rscale>
<asrwt>0</asrwt>
<pdfrwt beam="1">  1       21 0.24704238E-01 0.12712755E+03</pdfrwt>
<pdfrwt beam="2">  1       -4 0.55553172E-02 0.12712755E+03</pdfrwt>
<totfact> 0.12476016E+05</totfact>
</mgrwt>
</event>
<event>
 6    4  0.6358868E-003  0.1312328E+03  0.7818608E-02  0.1225638E+00
         -4   -1    0    0    0  501 -0.00000000000E+00  0.00000000000E+00  0.33627181710E+02  0.33651155252E+02  0.12700000000E+01 0. -1.
         21   -1    0    0  501  502  0.00000000000E+00 -0.00000000000E+00 -0.21989378009E+03  0.21989378009E+03  0.00000000000E+00 0. -1.
         25    2    1    2    0    0 -0.38866863767E+02 -0.92637011922E+01 -0.15271474901E+03  0.20135500571E+03  0.12500237798E+03 0.  0.
    9000005    1    3    3    0    0 -0.77928030902E+02  0.19640120241E+02 -0.11257080299E+03  0.13831738144E+03  0.10000000000E+01 0.  0.
    9000005    1    3    3    0    0  0.39061167135E+02 -0.28903821433E+02 -0.40143946020E+02  0.63037624269E+02  0.10000000000E+01 0.  0.
         -4    1    1    2    0  502  0.38866863767E+02  0.92637011922E+01 -0.33551849376E+02  0.52189929636E+02  0.12700000000E+01 0.  1.
<mgrwt>
<rscale>  1 0.13123278E+03</rscale>
<asrwt>0</asrwt>
<pdfrwt beam="2">  1       21 0.33829813E-01 0.13123278E+03</pdfrwt>
<pdfrwt beam="1">  1       -4 0.51755387E-02 0.13123278E+03</pdfrwt>
<totfact> 0.76773780E+04</totfact>
</mgrwt>
</event>
<event>
 6    4  0.6358868E-003  0.1268767E+03  0.7818608E-02  0.1232165E+00
         21   -1    0    0  501  502  0.00000000000E+00  0.00000000000E+00  0.38782125987E+02  0.38782125987E+02  0.00000000000E+00 0.  1.
          4   -1    0    0  502    0 -0.00000000000E+00 -0.00000000000E+00 -0.17564746975E+03  0.17565206099E+03  0.12700000000E+01 0. -1.
         25    2    1    2    0    0  0.21555847043E+02 -0.29232754265E+01 -0.14360557996E+03  0.19162533420E+03  0.12499802411E+03 0.  0.
    9000005    1    3    3    0    0  0.38148770128E+02  0.17997895080E+02 -0.15640546475E+03  0.16199667371E+03  0.10000000000E+01 0.  0.
    9000005    1    3    3    0    0 -0.16592923085E+02 -0.20921170506E+02  0.12799884790E+02  0.29628660491E+02  0.10000000000E+01 0.  0.
          4    1    1    2  501    0 -0.21555847043E+02  0.29232754265E+01  0.67402361959E+01  0.22808852776E+02  0.12700000000E+01 0.  1.
<mgrwt>
<rscale>  1 0.12687674E+03</rscale>
<asrwt>0</asrwt>
<pdfrwt beam="1">  1       21 0.59664809E-02 0.12687674E+03</pdfrwt>
<pdfrwt beam="2">  1        4 0.27024640E-01 0.12687674E+03</pdfrwt>
<totfact> 0.10268327E+05</totfact>
</mgrwt>
</event>
<event>
 6    4  0.6358868E-003  0.1307680E+03  0.7818608E-02  0.1226321E+00
         21   -1    0    0  501  502  0.00000000000E+00  0.00000000000E+00  0.25240465736E+03  0.25240465736E+03  0.00000000000E+00 0.  1.
          4   -1    0    0  502    0 -0.00000000000E+00 -0.00000000000E+00 -0.19537896091E+03  0.19538308849E+03  0.12700000000E+01 0. -1.
         25    2    1    2    0    0 -0.46589153069E+01  0.38120514527E+02 -0.17171694939E+03  0.21584014391E+03  0.12500151158E+03 0.  0.
    9000005    1    3    3    0    0 -0.48171776151E+02  0.55476901012E+02 -0.60590490872E+02  0.95238721892E+02  0.10000000000E+01 0.  0.
    9000005    1    3    3    0    0  0.43512860844E+02 -0.17356386485E+02 -0.11112645852E+03  0.12060142202E+03  0.10000000000E+01 0.  0.
          4    1    1    2  501    0  0.46589153069E+01 -0.38120514527E+02  0.22874264584E+03  0.23194760194E+03  0.12700000000E+01 0.  1.
<mgrwt>
<rscale>  1 0.13076795E+03</rscale>
<asrwt>0</asrwt>
<pdfrwt beam="1">  1       21 0.38831486E-01 0.13076795E+03</pdfrwt>
<pdfrwt beam="2">  1        4 0.30058865E-01 0.13076795E+03</pdfrwt>
<totfact> 0.28045363E+03</totfact>
</mgrwt>
</event>
<event>
 6    4  0.6358868E-003  0.1599238E+03  0.7818608E-02  0.1188783E+00
         21   -1    0    0  501  502  0.00000000000E+00  0.00000000000E+00  0.32805621260E+02  0.32805621260E+02  0.00000000000E+00 0.  1.
         -4   -1    0    0    0  501 -0.00000000000E+00 -0.00000000000E+00 -0.18185152097E+04  0.18185156532E+04  0.12700000000E+01 0. -1.
         25    2    1    2    0    0  0.19204412965E+02  0.97887536924E+02 -0.17293727888E+04  0.17367515260E+04  0.12499936405E+03 0.  0.
    9000005    1    3    3    0    0 -0.44407039544E+02  0.17844013852E+01 -0.44187774017E+03  0.44410821486E+03  0.10000000000E+01 0.  0.
    9000005    1    3    3    0    0  0.63611452509E+02  0.96103135539E+02 -0.12874950487E+04  0.12926433111E+04  0.10000000000E+01 0.  0.
         -4    1    1    2    0  502 -0.19204412965E+02 -0.97887536924E+02 -0.56336799627E+02  0.11456974843E+03  0.12700000000E+01 0.  1.
<mgrwt>
<rscale>  1 0.15992380E+03</rscale>
<asrwt>0</asrwt>
<pdfrwt beam="1">  1       21 0.50470202E-02 0.15992380E+03</pdfrwt>
<pdfrwt beam="2">  1       -4 0.27977341E+00 0.15992380E+03</pdfrwt>
<totfact> 0.54430540E+02</totfact>
</mgrwt>
</event>
<event>
 6    4  0.6358868E-003  0.1267642E+03  0.7818608E-02  0.1232338E+00
         21   -1    0    0  501  502  0.00000000000E+00  0.00000000000E+00  0.20186860322E+03  0.20186860322E+03  0.00000000000E+00 0.  1.
         -4   -1    0    0    0  501 -0.00000000000E+00 -0.00000000000E+00 -0.27246723476E+02  0.27276305472E+02  0.12700000000E+01 0.  1.
         25    2    1    2    0    0  0.80753645853E+01 -0.19447110804E+02  0.14259065187E+03  0.19079110717E+03  0.12500300374E+03 0.  0.
    9000005    1    3    3    0    0  0.10943040933E+02  0.32186594740E+02 -0.50215429172E+01  0.34379396724E+02  0.10000000000E+01 0.  0.
    9000005    1    3    3    0    0 -0.28676763475E+01 -0.51633705544E+02  0.14761219478E+03  0.15641171045E+03  0.10000000000E+01 0.  0.
         -4    1    1    2    0  502 -0.80753645853E+01  0.19447110804E+02  0.32031227875E+02  0.38353801519E+02  0.12700000000E+01 0. -1.
<mgrwt>
<rscale>  1 0.12676416E+03</rscale>
<asrwt>0</asrwt>
<pdfrwt beam="1">  1       21 0.31056707E-01 0.12676416E+03</pdfrwt>
<pdfrwt beam="2">  1       -4 0.41943866E-02 0.12676416E+03</pdfrwt>
<totfact> 0.12634930E+05</totfact>
</mgrwt>
</event>
<event>
 6    4  0.6358868E-003  0.1496105E+03  0.7818608E-02  0.1200952E+00
         21   -1    0    0  501  502  0.00000000000E+00  0.00000000000E+00  0.42818807498E+02  0.42818807498E+02  0.00000000000E+00 0. -1.
         -4   -1    0    0    0  501 -0.00000000000E+00 -0.00000000000E+00 -0.42614359323E+03  0.42614548567E+03  0.12700000000E+01 0.  1.
         25    2    1    2    0    0  0.27711514019E+02  0.77396712690E+02 -0.34928555331E+03  0.37997855617E+03  0.12500050501E+03 0.  0.
    9000005    1    3    3    0    0  0.16613387734E+02 -0.28637941730E+02 -0.15361712649E+03  0.15714756730E+03  0.10000000000E+01 0.  0.
    9000005    1    3    3    0    0  0.11098126284E+02  0.10603465442E+03 -0.19566842682E+03  0.22283098887E+03  0.10000000000E+01 0.  0.
         -4    1    1    2    0  502 -0.27711514019E+02 -0.77396712690E+02 -0.34039232428E+02  0.88985736996E+02  0.12700000000E+01 0. -1.
<mgrwt>
<rscale>  1 0.14961051E+03</rscale>
<asrwt>0</asrwt>
<pdfrwt beam="1">  1       21 0.65875089E-02 0.14961051E+03</pdfrwt>
<pdfrwt beam="2">  1       -4 0.65562147E-01 0.14961051E+03</pdfrwt>
<totfact> 0.15183579E+04</totfact>
</mgrwt>
</event>
<event>
 6    4  0.6358868E-003  0.1581631E+03  0.7818608E-02  0.1190786E+00
         21   -1    0    0  501  502  0.00000000000E+00  0.00000000000E+00  0.94055163181E+02  0.94055163181E+02  0.00000000000E+00 0. -1.
          4   -1    0    0  502    0 -0.00000000000E+00 -0.00000000000E+00 -0.44415534670E+03  0.44415716239E+03  0.12700000000E+01 0. -1.
         25    2    1    2    0    0  0.61878160853E+02  0.74570979090E+02 -0.39933324387E+03  0.42951437322E+03  0.12500327769E+03 0.  0.
    9000005    1    3    3    0    0 -0.38651420235E+02  0.25269555040E+02 -0.11731468492E+03  0.12608020462E+03  0.10000000000E+01 0.  0.
    9000005    1    3    3    0    0  0.10052958109E+03  0.49301424050E+02 -0.28201855894E+03  0.30343416860E+03  0.10000000000E+01 0.  0.
          4    1    1    2  501    0 -0.61878160853E+02 -0.74570979090E+02  0.49233060350E+02  0.10869795235E+03  0.12700000000E+01 0.  1.
<mgrwt>
<rscale>  1 0.15816307E+03</rscale>
<asrwt>0</asrwt>
<pdfrwt beam="1">  1       21 0.14470025E-01 0.15816307E+03</pdfrwt>
<pdfrwt beam="2">  1        4 0.68332391E-01 0.15816307E+03</pdfrwt>
<totfact> 0.35050745E+03</totfact>
</mgrwt>
</event>
<event>
 6    4  0.6358868E-003  0.1281603E+03  0.7818608E-02  0.1230211E+00
         -4   -1    0    0    0  501 -0.00000000000E+00  0.00000000000E+00  0.16207974566E+04  0.16207979542E+04  0.12700000000E+01 0. -1.
         21   -1    0    0  501  502  0.00000000000E+00 -0.00000000000E+00 -0.11168321197E+02  0.11168321197E+02  0.00000000000E+00 0.  1.
         25    2    1    2    0    0  0.24024822128E+02 -0.14939382143E+02  0.15949084317E+04  0.16000493640E+04  0.12499873718E+03 0.  0.
    9000005    1    3    3    0    0  0.10489439305E+01  0.17324625499E+02  0.30254169680E+02  0.34893519671E+02  0.10000000000E+01 0.  0.
    9000005    1    3    3    0    0  0.22975878197E+02 -0.32264007642E+02  0.15646542621E+04  0.15651558443E+04  0.10000000000E+01 0.  0.
         -4    1    1    2    0  502 -0.24024822128E+02  0.14939382143E+02  0.14720703688E+02  0.31916911413E+02  0.12700000000E+01 0.  1.
<mgrwt>
<rscale>  1 0.12816030E+03</rscale>
<asrwt>0</asrwt>
<pdfrwt beam="2">  1       21 0.17182045E-02 0.12816030E+03</pdfrwt>
<pdfrwt beam="1">  1       -4 0.24935886E+00 0.12816030E+03</pdfrwt>
<totfact> 0.47706973E+03</totfact>
</mgrwt>
</event>
<event>
 6    4  0.6358868E-003  0.1290981E+03  0.7818608E-02  0.1228800E+00
         -4   -1    0    0    0  501 -0.00000000000E+00  0.00000000000E+00  0.34275802483E+02  0.34299322673E+02  0.12700000000E+01 0.  1.
         21   -1    0    0  501  502  0.00000000000E+00 -0.00000000000E+00 -0.34261906732E+03  0.34261906732E+03  0.00000000000E+00 0. -1.
         25    2    1    2    0    0  0.21876768456E+02  0.23755844349E+02 -0.92863047252E+02  0.15902788949E+03  0.12499356364E+03 0.  0.
    9000005    1    3    3    0    0  0.45138216110E+02  0.66503530173E+02 -0.59739097418E+02  0.10014957733E+03  0.10000000000E+01 0.  0.
    9000005    1    3    3    0    0 -0.23261447655E+02 -0.42747685824E+02 -0.33123949834E+02  0.58878312161E+02  0.10000000000E+01 0.  0.
         -4    1    1    2    0  502 -0.21876768456E+02 -0.23755844349E+02 -0.21548021758E+03  0.21789050050E+03  0.12700000000E+01 0. -1.
<mgrwt>
<rscale>  1 0.12909812E+03</rscale>
<asrwt>0</asrwt>
<pdfrwt beam="2">  1       21 0.52710625E-01 0.12909812E+03</pdfrwt>
<pdfrwt beam="1">  1       -4 0.52751908E-02 0.12909812E+03</pdfrwt>
<totfact> 0.30399850E+04</totfact>
</mgrwt>
</event>
<event>
 6    4  0.6358868E-003  0.1281689E+03  0.7818608E-02  0.1230198E+00
          4   -1    0    0  502    0 -0.00000000000E+00  0.00000000000E+00  0.32864433148E+02  0.32888962680E+02  0.12700000000E+01 0. -1.
         21   -1    0    0  501  502  0.00000000000E+00 -0.00000000000E+00 -0.23072333825E+03  0.23072333825E+03  0.00000000000E+00 0.  1.
         25    2    1    2    0    0 -0.23192331057E+00  0.28306480851E+02 -0.10244584044E+03  0.16408051477E+03  0.12500381778E+03 0.  0.
    9000005    1    3    3    0    0 -0.25947598994E+02 -0.18064278454E+02  0.15154621354E+02  0.35075042380E+02  0.10000000000E+01 0.  0.
    9000005    1    3    3    0    0  0.25715675683E+02  0.46370759304E+02 -0.11760046179E+03  0.12900547239E+03  0.10000000000E+01 0.  0.
          4    1    1    2  501    0  0.23192331057E+00 -0.28306480851E+02 -0.95413064666E+02  0.99531786156E+02  0.12700000000E+01 0.  1.
<mgrwt>
<rscale>  1 0.12816889E+03</rscale>
<asrwt>0</asrwt>
<pdfrwt beam="2">  1       21 0.35495899E-01 0.12816889E+03</pdfrwt>
<pdfrwt beam="1">  1        4 0.50582223E-02 0.12816889E+03</pdfrwt>
<totfact> 0.72274183E+04</totfact>
</mgrwt>
</event>
<event>
 6    4  0.6358868E-003  0.1320407E+03  0.7818608E-02  0.1224459E+00
         21   -1    0    0  501  502  0.00000000000E+00  0.00000000000E+00  0.30626759706E+03  0.30626759706E+03  0.00000000000E+00 0. -1.
          4   -1    0    0  502    0 -0.00000000000E+00 -0.00000000000E+00 -0.31855040527E+02  0.31880346720E+02  0.12700000000E+01 0.  1.
         25    2    1    2    0    0  0.41723310381E+02  0.83125482501E+01  0.12154479546E+03  0.17946556176E+03  0.12499926987E+03 0.  0.
    9000005    1    3    3    0    0  0.62283193049E+02 -0.37847992827E+02  0.38972783400E+02  0.82653158097E+02  0.10000000000E+01 0.  0.
    9000005    1    3    3    0    0 -0.20559882668E+02  0.46160541077E+02  0.82572012062E+02  0.96812403667E+02  0.10000000000E+01 0.  0.
          4    1    1    2  501    0 -0.41723310381E+02 -0.83125482501E+01  0.15286776107E+03  0.15868238202E+03  0.12700000000E+01 0. -1.
<mgrwt>
<rscale>  1 0.13204072E+03</rscale>
<asrwt>0</asrwt>
<pdfrwt beam="1">  1       21 0.47118090E-01 0.13204072E+03</pdfrwt>
<pdfrwt beam="2">  1        4 0.49029248E-02 0.13204072E+03</pdfrwt>
<totfact> 0.43199081E+04</totfact>
</mgrwt>
</event>
<event>
 6    4  0.6358868E-003  0.1282395E+03  0.7818608E-02  0.1230092E+00
          4   -1    0    0  502    0 -0.00000000000E+00  0.00000000000E+00  0.15437475229E+03  0.15437997618E+03  0.12700000000E+01 0.  1.
         21   -1    0    0  501  502  0.00000000000E+00 -0.00000000000E+00 -0.17325413187E+03  0.17325413187E+03  0.00000000000E+00 0. -1.
         25    2    1    2    0    0 -0.25331796268E+02 -0.13359925321E+02  0.12609772053E+03  0.17984994123E+03  0.12500071491E+03 0.  0.
    9000005    1    3    3    0    0  0.11077502472E+01  0.48012065051E+02  0.15221809047E+02  0.50389373600E+02  0.10000000000E+01 0.  0.
    9000005    1    3    3    0    0 -0.26439546515E+02 -0.61371990373E+02  0.11087591149E+03  0.12946056763E+03  0.10000000000E+01 0.  0.
          4    1    1    2  501    0  0.25331796268E+02  0.13359925321E+02 -0.14497710011E+03  0.14778416683E+03  0.12700000000E+01 0. -1.
<mgrwt>
<rscale>  1 0.12823949E+03</rscale>
<asrwt>0</asrwt>
<pdfrwt beam="2">  1       21 0.26654482E-01 0.12823949E+03</pdfrwt>
<pdfrwt beam="1">  1        4 0.23750722E-01 0.12823949E+03</pdfrwt>
<totfact> 0.90258591E+03</totfact>
</mgrwt>
</event>
<event>
 6    4  0.6358868E-003  0.1395410E+03  0.7818608E-02  0.1213948E+00
         -4   -1    0    0    0  501 -0.00000000000E+00  0.00000000000E+00  0.91312340819E+02  0.91321172166E+02  0.12700000000E+01 0. -1.
         21   -1    0    0  501  502  0.00000000000E+00 -0.00000000000E+00 -0.15733961166E+03  0.15733961166E+03  0.00000000000E+00 0.  1.
         25    2    1    2    0    0 -0.57999432040E+02  0.22019619244E+02  0.21687603157E+02  0.14121633414E+03  0.12499161231E+03 0.  0.
    9000005    1    3    3    0    0 -0.77870300573E+01 -0.34630035275E+02 -0.32483257834E+02  0.48125245139E+02  0.10000000000E+01 0.  0.
    9000005    1    3    3    0    0 -0.50212401983E+02  0.56649654519E+02  0.54170860991E+02  0.93091088996E+02  0.10000000000E+01 0.  0.
         -4    1    1    2    0  502  0.57999432040E+02 -0.22019619244E+02 -0.87714873995E+02  0.10744444969E+03  0.12700000000E+01 0.  1.
<mgrwt>
<rscale>  1 0.13954104E+03</rscale>
<asrwt>0</asrwt>
<pdfrwt beam="2">  1       21 0.24206094E-01 0.13954104E+03</pdfrwt>
<pdfrwt beam="1">  1       -4 0.14049126E-01 0.13954104E+03</pdfrwt>
<totfact> 0.27823977E+04</totfact>
</mgrwt>
</event>
<event>
 6    4  0.6358868E-003  0.1293584E+03  0.7818608E-02  0.1228411E+00
         21   -1    0    0  501  502  0.00000000000E+00  0.00000000000E+00  0.22618531864E+03  0.22618531864E+03  0.00000000000E+00 0.  1.
          4   -1    0    0  502    0 -0.00000000000E+00 -0.00000000000E+00 -0.39376276024E+02  0.39396751307E+02  0.12700000000E+01 0.  1.
         25    2    1    2    0    0  0.32315203177E+02 -0.80145845377E+01  0.76354837674E+02  0.15021201226E+03  0.12500032588E+03 0.  0.
    9000005    1    3    3    0    0  0.19151738205E+02 -0.36041884618E+02  0.10208098235E+03  0.10994240983E+03  0.10000000000E+01 0.  0.
    9000005    1    3    3    0    0  0.13163464972E+02  0.28027300080E+02 -0.25726144672E+02  0.40269602426E+02  0.10000000000E+01 0.  0.
          4    1    1    2  501    0 -0.32315203177E+02  0.80145845377E+01  0.11045420494E+03  0.11537005769E+03  0.12700000000E+01 0. -1.
<mgrwt>
<rscale>  1 0.12935837E+03</rscale>
<asrwt>0</asrwt>
<pdfrwt beam="1">  1       21 0.34797740E-01 0.12935837E+03</pdfrwt>
<pdfrwt beam="2">  1        4 0.60597381E-02 0.12935837E+03</pdfrwt>
<totfact> 0.56192835E+04</totfact>
</mgrwt>
</event>
<event>
 6    4  0.6358868E-003  0.1295341E+03  0.7818608E-02  0.1228149E+00
         -4   -1    0    0    0  501 -0.00000000000E+00  0.00000000000E+00  0.13553898208E+03  0.13554493190E+03  0.12700000000E+01 0. -1.
         21   -1    0    0  501  502  0.00000000000E+00 -0.00000000000E+00 -0.54083216975E+02  0.54083216975E+02  0.00000000000E+00 0. -1.
         25    2    1    2    0    0 -0.33944044853E+02  0.11747596916E+01  0.39069656042E+02  0.13529792356E+03  0.12500204740E+03 0.  0.
    9000005    1    3    3    0    0  0.43082594792E+02  0.22210287526E+02  0.23759012141E+02  0.53989790738E+02  0.10000000000E+01 0.  0.
    9000005    1    3    3    0    0 -0.77026639644E+02 -0.21035527834E+02  0.15310643901E+02  0.81308132821E+02  0.10000000000E+01 0.  0.
         -4    1    1    2    0  502  0.33944044853E+02 -0.11747596916E+01  0.42386109063E+02  0.54330225316E+02  0.12700000000E+01 0.  1.
<mgrwt>
<rscale>  1 0.12953413E+03</rscale>
<asrwt>0</asrwt>
<pdfrwt beam="2">  1       21 0.83204950E-02 0.12953413E+03</pdfrwt>
<pdfrwt beam="1">  1       -4 0.20853756E-01 0.12953413E+03</pdfrwt>
<totfact> 0.93754543E+04</totfact>
</mgrwt>
</event>
<event>
 6    4  0.6358868E-003  0.1276891E+03  0.7818608E-02  0.1230925E+00
         -4   -1    0    0    0  501 -0.00000000000E+00  0.00000000000E+00  0.42226341117E+02  0.42245435068E+02  0.12700000000E+01 0. -1.
         21   -1    0    0  501  502  0.00000000000E+00 -0.00000000000E+00 -0.31337412127E+03  0.31337412127E+03  0.00000000000E+00 0.  1.
         25    2    1    2    0    0 -0.27510368649E+01  0.25911793251E+02 -0.56906627901E+02  0.13979584714E+03  0.12500210136E+03 0.  0.
    9000005    1    3    3    0    0  0.20297767906E+02  0.31856753237E+02 -0.90810426206E+02  0.98358454728E+02  0.10000000000E+01 0.  0.
    9000005    1    3    3    0    0 -0.23048804771E+02 -0.59449599859E+01  0.33903798304E+02  0.41437392414E+02  0.10000000000E+01 0.  0.
         -4    1    1    2    0  502  0.27510368649E+01 -0.25911793251E+02 -0.21424115225E+03  0.21582370919E+03  0.12700000000E+01 0.  1.
<mgrwt>
<rscale>  1 0.12768913E+03</rscale>
<asrwt>0</asrwt>
<pdfrwt beam="2">  1       21 0.48211405E-01 0.12768913E+03</pdfrwt>
<pdfrwt beam="1">  1       -4 0.64980266E-02 0.12768913E+03</pdfrwt>
<totfact> 0.26041358E+04</totfact>
</mgrwt>
</event>
<event>
 6    4  0.6358868E-003  0.1270283E+03  0.7818608E-02  0.1231933E+00
         -4   -1    0    0    0  501 -0.00000000000E+00  0.00000000000E+00  0.36836799122E+02  0.36858685130E+02  0.12700000000E+01 0. -1.
         21   -1    0    0  501  502  0.00000000000E+00 -0.00000000000E+00 -0.15301534792E+03  0.15301534792E+03  0.00000000000E+00 0. -1.
         25    2    1    2    0    0  0.13883024459E+02  0.17855349567E+02 -0.92756457684E+02  0.15728938746E+03  0.12499855634E+03 0.  0.
    9000005    1    3    3    0    0  0.67581416299E+02  0.26524448407E+02 -0.51701443178E+02  0.89133795044E+02  0.10000000000E+01 0.  0.
    9000005    1    3    3    0    0 -0.53698391840E+02 -0.86690988392E+01 -0.41055014506E+02  0.68155592412E+02  0.10000000000E+01 0.  0.
         -4    1    1    2    0  502 -0.13883024459E+02 -0.17855349567E+02 -0.23422091113E+02  0.32584645593E+02  0.12700000000E+01 0.  1.
<mgrwt>
<rscale>  1 0.12702831E+03</rscale>
<asrwt>0</asrwt>
<pdfrwt beam="2">  1       21 0.23540822E-01 0.12702831E+03</pdfrwt>
<pdfrwt beam="1">  1       -4 0.56692889E-02 0.12702831E+03</pdfrwt>
<totfact> 0.13219090E+05</totfact>
</mgrwt>
</event>
<event>
 6    4  0.6358868E-003  0.1266340E+03  0.7818608E-02  0.1232537E+00
          4   -1    0    0  502    0 -0.00000000000E+00  0.00000000000E+00  0.15999417025E+03  0.15999921067E+03  0.12700000000E+01 0.  1.
         21   -1    0    0  501  502  0.00000000000E+00 -0.00000000000E+00 -0.48739894961E+02  0.48739894961E+02  0.00000000000E+00 0. -1.
         25    2    1    2    0    0  0.16135720477E+02  0.12293452545E+02  0.12971688229E+03  0.18128056947E+03  0.12499873946E+03 0.  0.
    9000005    1    3    3    0    0 -0.48275699545E+02  0.14448693129E+02  0.20393762602E+02  0.54371071837E+02  0.10000000000E+01 0.  0.
    9000005    1    3    3    0    0  0.64411420022E+02 -0.21552405840E+01  0.10932311969E+03  0.12690949763E+03  0.10000000000E+01 0.  0.
          4    1    1    2  501    0 -0.16135720477E+02 -0.12293452545E+02 -0.18462606999E+02  0.27458536159E+02  0.12700000000E+01 0. -1.
<mgrwt>
<rscale>  1 0.12663402E+03</rscale>
<asrwt>0</asrwt>
<pdfrwt beam="2">  1       21 0.74984455E-02 0.12663402E+03</pdfrwt>
<pdfrwt beam="1">  1        4 0.24616148E-01 0.12663402E+03</pdfrwt>
<totfact> 0.82627122E+04</totfact>
</mgrwt>
</event>
<event>
 6    4  0.6358868E-003  0.1326673E+03  0.7818608E-02  0.1223551E+00
         -4   -1    0    0    0  501 -0.00000000000E+00  0.00000000000E+00  0.16015867666E+02  0.16066141948E+02  0.12700000000E+01 0. -1.
         21   -1    0    0  501  502  0.00000000000E+00 -0.00000000000E+00 -0.61578175185E+03  0.61578175185E+03  0.00000000000E+00 0.  1.
         25    2    1    2    0    0 -0.57276165389E+01 -0.44086111863E+02 -0.28999703408E+03  0.31890262024E+03  0.12499684223E+03 0.  0.
    9000005    1    3    3    0    0  0.34908127113E+02 -0.24574298298E+02 -0.23745360557E+02  0.48860163972E+02  0.10000000000E+01 0.  0.
    9000005    1    3    3    0    0 -0.40635743652E+02 -0.19511813566E+02 -0.26625167353E+03  0.27004245627E+03  0.10000000000E+01 0.  0.
         -4    1    1    2    0  502  0.57276165389E+01  0.44086111863E+02 -0.30976885010E+03  0.31294527355E+03  0.12700000000E+01 0.  1.
<mgrwt>
<rscale>  1 0.13266726E+03</rscale>
<asrwt>0</asrwt>
<pdfrwt beam="2">  1       21 0.94735666E-01 0.13266726E+03</pdfrwt>
<pdfrwt beam="1">  1       -4 0.24679473E-02 0.13266726E+03</pdfrwt>
<totfact> 0.28048974E+04</totfact>
</mgrwt>
</event>
<event>
 6    4  0.6358868E-003  0.1274369E+03  0.7818608E-02  0.1231309E+00
         21   -1    0    0  501  502  0.00000000000E+00  0.00000000000E+00  0.31992827810E+03  0.31992827810E+03  0.00000000000E+00 0.  1.
         -4   -1    0    0    0  501 -0.00000000000E+00 -0.00000000000E+00 -0.21915764938E+02  0.21952531809E+02  0.12700000000E+01 0.  1.
         25    2    1    2    0    0  0.14415413291E+02 -0.20189274436E+02  0.17557375119E+03  0.21694773071E+03  0.12499905925E+03 0.  0.
    9000005    1    3    3    0    0 -0.55257605488E+02 -0.13681559313E+02  0.69110292008E+02  0.89542283257E+02  0.10000000000E+01 0.  0.
    9000005    1    3    3    0    0  0.69673018778E+02 -0.65077151220E+01  0.10646345918E+03  0.12740544746E+03  0.10000000000E+01 0.  0.
         -4    1    1    2    0  502 -0.14415413291E+02  0.20189274436E+02  0.12243876198E+03  0.12493307919E+03  0.12700000000E+01 0. -1.
<mgrwt>
<rscale>  1 0.12743695E+03</rscale>
<asrwt>0</asrwt>
<pdfrwt beam="1">  1       21 0.49219732E-01 0.12743695E+03</pdfrwt>
<pdfrwt beam="2">  1       -4 0.33746785E-02 0.12743695E+03</pdfrwt>
<totfact> 0.71206214E+04</totfact>
</mgrwt>
</event>
<event>
 6    4  0.6358868E-003  0.1273912E+03  0.7818608E-02  0.1231379E+00
         -4   -1    0    0    0  501 -0.00000000000E+00  0.00000000000E+00  0.10375300866E+04  0.10375308638E+04  0.12700000000E+01 0. -1.
         21   -1    0    0  501  502  0.00000000000E+00 -0.00000000000E+00 -0.55703461239E+01  0.55703461239E+01  0.00000000000E+00 0. -1.
         25    2    1    2    0    0 -0.24538307460E+02  0.20306610650E+01  0.86183298175E+03  0.87119722793E+03  0.12498907714E+03 0.  0.
    9000005    1    3    3    0    0 -0.27852617070E+02 -0.17353191251E+02  0.54506475761E+02  0.63630632749E+02  0.10000000000E+01 0.  0.
    9000005    1    3    3    0    0  0.33143096101E+01  0.19383852316E+02  0.80732650599E+03  0.80756659518E+03  0.10000000000E+01 0.  0.
         -4    1    1    2    0  502  0.24538307460E+02 -0.20306610650E+01  0.17012675869E+03  0.17190398203E+03  0.12700000000E+01 0.  1.
<mgrwt>
<rscale>  1 0.12739121E+03</rscale>
<asrwt>0</asrwt>
<pdfrwt beam="2">  1       21 0.85697715E-03 0.12739121E+03</pdfrwt>
<pdfrwt beam="1">  1       -4 0.15963106E+00 0.12739121E+03</pdfrwt>
<totfact> 0.51962666E+04</totfact>
</mgrwt>
</event>
<event>
 6    4  0.6358868E-003  0.1774035E+03  0.7818608E-02  0.1170340E+00
         21   -1    0    0  501  502  0.00000000000E+00  0.00000000000E+00  0.14868240073E+03  0.14868240073E+03  0.00000000000E+00 0. -1.
          4   -1    0    0  502    0 -0.00000000000E+00 -0.00000000000E+00 -0.36349216656E+03  0.36349438517E+03  0.12700000000E+01 0.  1.
         25    2    1    2    0    0  0.23500691121E+02  0.12367378302E+03 -0.30807335911E+03  0.35550133211E+03  0.12499806179E+03 0.  0.
    9000005    1    3    3    0    0  0.20870836019E+01  0.12918343822E+03 -0.30729660607E+03  0.33335404712E+03  0.10000000000E+01 0.  0.
    9000005    1    3    3    0    0  0.21413607519E+02 -0.55096552082E+01 -0.77675304625E+00  0.22147284998E+02  0.10000000000E+01 0.  0.
          4    1    1    2  501    0 -0.23500691121E+02 -0.12367378302E+03  0.93263593286E+02  0.15667545379E+03  0.12700000000E+01 0. -1.
<mgrwt>
<rscale>  1 0.17740350E+03</rscale>
<asrwt>0</asrwt>
<pdfrwt beam="1">  1       21 0.22874216E-01 0.17740350E+03</pdfrwt>
<pdfrwt beam="2">  1        4 0.55922460E-01 0.17740350E+03</pdfrwt>
<totfact> 0.23133577E+03</totfact>
</mgrwt>
</event>
<event>
 6    4  0.6358868E-003  0.1425747E+03  0.7818608E-02  0.1209906E+00
         21   -1    0    0  501  502  0.00000000000E+00  0.00000000000E+00  0.18025814634E+03  0.18025814634E+03  0.00000000000E+00 0. -1.
          4   -1    0    0  502    0 -0.00000000000E+00 -0.00000000000E+00 -0.70525780967E+02  0.70537214865E+02  0.12700000000E+01 0.  1.
         25    2    1    2    0    0 -0.21660211005E+02  0.65087615418E+02  0.30161340135E+02  0.14573003210E+03  0.12498789300E+03 0.  0.
    9000005    1    3    3    0    0  0.38274124622E+02  0.57094609004E+02  0.46615246188E+02  0.83058317886E+02  0.10000000000E+01 0.  0.
    9000005    1    3    3    0    0 -0.59934335627E+02  0.79930064143E+01 -0.16453906053E+02  0.62671714218E+02  0.10000000000E+01 0.  0.
          4    1    1    2  501    0  0.21660211005E+02 -0.65087615418E+02  0.79571025234E+02  0.10506532910E+03  0.12700000000E+01 0. -1.
<mgrwt>
<rscale>  1 0.14257467E+03</rscale>
<asrwt>0</asrwt>
<pdfrwt beam="1">  1       21 0.27732022E-01 0.14257467E+03</pdfrwt>
<pdfrwt beam="2">  1        4 0.10851344E-01 0.14257467E+03</pdfrwt>
<totfact> 0.33541988E+04</totfact>
</mgrwt>
</event>
<event>
 6    4  0.6358868E-003  0.1290690E+03  0.7818608E-02  0.1228844E+00
         21   -1    0    0  501  502  0.00000000000E+00  0.00000000000E+00  0.24910854628E+03  0.24910854628E+03  0.00000000000E+00 0. -1.
          4   -1    0    0  502    0 -0.00000000000E+00 -0.00000000000E+00 -0.35096360741E+02  0.35119331390E+02  0.12700000000E+01 0. -1.
         25    2    1    2    0    0  0.31617410390E+02 -0.57757223483E+01  0.93184977637E+02  0.15919249597E+03  0.12500316439E+03 0.  0.
    9000005    1    3    3    0    0  0.92501443608E+01  0.96173994830E+00 -0.31229426815E+02  0.32600110639E+02  0.10000000000E+01 0.  0.
    9000005    1    3    3    0    0  0.22367266029E+02 -0.67374622965E+01  0.12441440445E+03  0.12659238533E+03  0.10000000000E+01 0.  0.
          4    1    1    2  501    0 -0.31617410390E+02  0.57757223483E+01  0.12082720790E+03  0.12503538171E+03  0.12700000000E+01 0.  1.
<mgrwt>
<rscale>  1 0.12906902E+03</rscale>
<asrwt>0</asrwt>
<pdfrwt beam="1">  1       21 0.38324391E-01 0.12906902E+03</pdfrwt>
<pdfrwt beam="2">  1        4 0.54014563E-02 0.12906902E+03</pdfrwt>
<totfact> 0.55925969E+04</totfact>
</mgrwt>
</event>
<event>
 6    4  0.6358868E-003  0.1694378E+03  0.7818608E-02  0.1178435E+00
         21   -1    0    0  501  502  0.00000000000E+00  0.00000000000E+00  0.64574441893E+02  0.64574441893E+02  0.00000000000E+00 0.  1.
         -4   -1    0    0    0  501 -0.00000000000E+00 -0.00000000000E+00 -0.39155162197E+03  0.39155368159E+03  0.12700000000E+01 0. -1.
         25    2    1    2    0    0  0.10186186061E+03  0.52040376367E+02 -0.29006632310E+03  0.33592802497E+03  0.12500050697E+03 0.  0.
    9000005    1    3    3    0    0  0.22925462783E+02  0.42675858929E+02 -0.16722039596E+02  0.51258486004E+02  0.10000000000E+01 0.  0.
    9000005    1    3    3    0    0  0.78936397831E+02  0.93645174378E+01 -0.27334428350E+03  0.28466953896E+03  0.10000000000E+01 0.  0.
         -4    1    1    2    0  502 -0.10186186061E+03 -0.52040376367E+02 -0.36910856976E+02  0.12020009851E+03  0.12700000000E+01 0.  1.
<mgrwt>
<rscale>  1 0.16943779E+03</rscale>
<asrwt>0</asrwt>
<pdfrwt beam="1">  1       21 0.99345295E-02 0.16943779E+03</pdfrwt>
<pdfrwt beam="2">  1       -4 0.60239830E-01 0.16943779E+03</pdfrwt>
<totfact> 0.90030259E+03</totfact>
</mgrwt>
</event>
<event>
 6    4  0.6358868E-003  0.1314239E+03  0.7818608E-02  0.1225358E+00
         -4   -1    0    0    0  501 -0.00000000000E+00  0.00000000000E+00  0.12294448990E+02  0.12359869577E+02  0.12700000000E+01 0.  1.
         21   -1    0    0  501  502  0.00000000000E+00 -0.00000000000E+00 -0.87970019506E+03  0.87970019506E+03  0.00000000000E+00 0. -1.
         25    2    1    2    0    0  0.39434424206E+02  0.96024986479E+01 -0.36364069315E+03  0.38666109032E+03  0.12499985305E+03 0.  0.
    9000005    1    3    3    0    0  0.18848544745E+02 -0.57192075496E+02 -0.14155982649E+03  0.15383883000E+03  0.10000000000E+01 0.  0.
    9000005    1    3    3    0    0  0.20585879461E+02  0.66794574143E+02 -0.22208086666E+03  0.23282226032E+03  0.10000000000E+01 0.  0.
         -4    1    1    2    0  502 -0.39434424206E+02 -0.96024986479E+01 -0.50376505293E+03  0.50539897432E+03  0.12700000000E+01 0. -1.
<mgrwt>
<rscale>  1 0.13142391E+03</rscale>
<asrwt>0</asrwt>
<pdfrwt beam="2">  1       21 0.13533849E+00 0.13142391E+03</pdfrwt>
<pdfrwt beam="1">  1       -4 0.18965566E-02 0.13142391E+03</pdfrwt>
<totfact> 0.17817813E+04</totfact>
</mgrwt>
</event>
<event>
 6    4  0.6358868E-003  0.1348159E+03  0.7818608E-02  0.1220480E+00
         -4   -1    0    0    0  501 -0.00000000000E+00  0.00000000000E+00  0.23954639165E+03  0.23954975820E+03  0.12700000000E+01 0.  1.
         21   -1    0    0  501  502  0.00000000000E+00 -0.00000000000E+00 -0.42454822808E+02  0.42454822808E+02  0.00000000000E+00 0.  1.
         25    2    1    2    0    0 -0.72311637659E+01 -0.49981313919E+02  0.85850395052E+02  0.15982998006E+03  0.12499964290E+03 0.  0.
    9000005    1    3    3    0    0  0.41529442301E+02 -0.26549982172E+02 -0.94898791264E+01  0.50206114538E+02  0.10000000000E+01 0.  0.
    9000005    1    3    3    0    0 -0.48760606067E+02 -0.23431331747E+02  0.95340274178E+02  0.10962386552E+03  0.10000000000E+01 0.  0.
         -4    1    1    2    0  502  0.72311637659E+01  0.49981313919E+02  0.11124117379E+03  0.12217460095E+03  0.12700000000E+01 0. -1.
<mgrwt>
<rscale>  1 0.13481592E+03</rscale>
<asrwt>0</asrwt>
<pdfrwt beam="2">  1       21 0.65315114E-02 0.13481592E+03</pdfrwt>
<pdfrwt beam="1">  1       -4 0.36855010E-01 0.13481592E+03</pdfrwt>
<totfact> 0.49209668E+04</totfact>
</mgrwt>
</event>
<event>
 6    4  0.6358868E-003  0.1388583E+03  0.7818608E-02  0.1214873E+00
         21   -1    0    0  501  502  0.00000000000E+00  0.00000000000E+00  0.75076334261E+03  0.75076334261E+03  0.00000000000E+00 0.  1.
          4   -1    0    0  502    0 -0.00000000000E+00 -0.00000000000E+00 -0.29536073175E+02  0.29563364467E+02  0.12700000000E+01 0. -1.
         25    2    1    2    0    0  0.53238989677E+02 -0.28675504666E+02  0.14438223016E+03  0.20031939089E+03  0.12499982157E+03 0.  0.
    9000005    1    3    3    0    0  0.38057559053E+01 -0.33752058834E+02 -0.12148485669E+02  0.36086991529E+02  0.10000000000E+01 0.  0.
    9000005    1    3    3    0    0  0.49433233771E+02  0.50765541680E+01  0.15653071582E+03  0.16423239936E+03  0.10000000000E+01 0.  0.
          4    1    1    2  501    0 -0.53238989677E+02  0.28675504666E+02  0.57684503928E+03  0.58000731618E+03  0.12700000000E+01 0.  1.
<mgrwt>
<rscale>  1 0.13885831E+03</rscale>
<asrwt>0</asrwt>
<pdfrwt beam="1">  1       21 0.11550204E+00 0.13885831E+03</pdfrwt>
<pdfrwt beam="2">  1        4 0.45461938E-02 0.13885831E+03</pdfrwt>
<totfact> 0.67219734E+03</totfact>
</mgrwt>
</event>
<event>
 6    4  0.6358868E-003  0.1267703E+03  0.7818608E-02  0.1232328E+00
         -4   -1    0    0    0  501 -0.00000000000E+00  0.00000000000E+00  0.27745242379E+02  0.27774293414E+02  0.12700000000E+01 0.  1.
         21   -1    0    0  501  502  0.00000000000E+00 -0.00000000000E+00 -0.24988527723E+03  0.24988527723E+03  0.00000000000E+00 0.  1.
         25    2    1    2    0    0 -0.12019031568E+02  0.17414872210E+02 -0.12427329046E+03  0.17752342606E+03  0.12499192448E+03 0.  0.
    9000005    1    3    3    0    0 -0.36188033525E+02  0.19815294385E+01 -0.14012691188E+03  0.14474132672E+03  0.10000000000E+01 0.  0.
    9000005    1    3    3    0    0  0.24169001957E+02  0.15433342771E+02  0.15853621422E+02  0.32782099335E+02  0.10000000000E+01 0.  0.
         -4    1    1    2    0  502  0.12019031568E+02 -0.17414872210E+02 -0.97866744401E+02  0.10013614459E+03  0.12700000000E+01 0. -1.
<mgrwt>
<rscale>  1 0.12677033E+03</rscale>
<asrwt>0</asrwt>
<pdfrwt beam="2">  1       21 0.38443891E-01 0.12677033E+03</pdfrwt>
<pdfrwt beam="1">  1       -4 0.42709815E-02 0.12677033E+03</pdfrwt>
<totfact> 0.80793905E+04</totfact>
</mgrwt>
</event>
<event>
 6    4  0.6358868E-003  0.1289016E+03  0.7818608E-02  0.1229095E+00
          4   -1    0    0  502    0 -0.00000000000E+00  0.00000000000E+00  0.15066642440E+03  0.15067177686E+03  0.12700000000E+01 0. -1.
         21   -1    0    0  501  502  0.00000000000E+00 -0.00000000000E+00 -0.13967402367E+03  0.13967402367E+03  0.00000000000E+00 0.  1.
         25    2    1    2    0    0 -0.28252286756E+02 -0.13871356989E+02  0.12046610725E+03  0.17643043032E+03  0.12500002998E+03 0.  0.
    9000005    1    3    3    0    0 -0.53260624635E+02  0.26461931236E+02  0.15860687551E+02  0.61558828374E+02  0.10000000000E+01 0.  0.
    9000005    1    3    3    0    0  0.25008337879E+02 -0.40333288225E+02  0.10460541970E+03  0.11487160194E+03  0.10000000000E+01 0.  0.
          4    1    1    2  501    0  0.28252286756E+02  0.13871356989E+02 -0.10947370652E+03  0.11391537021E+03  0.12700000000E+01 0.  1.
<mgrwt>
<rscale>  1 0.12890157E+03</rscale>
<asrwt>0</asrwt>
<pdfrwt beam="2">  1       21 0.21488311E-01 0.12890157E+03</pdfrwt>
<pdfrwt beam="1">  1        4 0.23180306E-01 0.12890157E+03</pdfrwt>
<totfact> 0.14159408E+04</totfact>
</mgrwt>
</event>
<event>
 6    4  0.6358868E-003  0.1319172E+03  0.7818608E-02  0.1224638E+00
         21   -1    0    0  501  502  0.00000000000E+00  0.00000000000E+00  0.23724252027E+03  0.23724252027E+03  0.00000000000E+00 0. -1.
          4   -1    0    0  502    0 -0.00000000000E+00 -0.00000000000E+00 -0.62233949868E+02  0.62246906881E+02  0.12700000000E+01 0. -1.
         25    2    1    2    0    0  0.33021261004E+02 -0.26200523699E+02  0.13546626623E+02  0.13261089855E+03  0.12500107280E+03 0.  0.
    9000005    1    3    3    0    0  0.65516681266E+02 -0.46825348171E+02 -0.18365721584E+02  0.82603562179E+02  0.10000000000E+01 0.  0.
    9000005    1    3    3    0    0 -0.32495420262E+02  0.20624824472E+02  0.31912348207E+02  0.50007336368E+02  0.10000000000E+01 0.  0.
          4    1    1    2  501    0 -0.33021261004E+02  0.26200523699E+02  0.16146194378E+03  0.16687852861E+03  0.12700000000E+01 0. -1.
<mgrwt>
<rscale>  1 0.13191717E+03</rscale>
<asrwt>0</asrwt>
<pdfrwt beam="1">  1       21 0.36498849E-01 0.13191717E+03</pdfrwt>
<pdfrwt beam="2">  1        4 0.95757122E-02 0.13191717E+03</pdfrwt>
<totfact> 0.24090829E+04</totfact>
</mgrwt>
</event>
<event>
 6    4  0.6358868E-003  0.1279606E+03  0.7818608E-02  0.1230514E+00
          4   -1    0    0  502    0 -0.00000000000E+00  0.00000000000E+00  0.14426432281E+02  0.14482225256E+02  0.12700000000E+01 0.  1.
         21   -1    0    0  501  502  0.00000000000E+00 -0.00000000000E+00 -0.11799861460E+04  0.11799861460E+04  0.00000000000E+00 0. -1.
         25    2    1    2    0    0 -0.26738581441E+02 -0.57982891445E+01 -0.27313371954E+03  0.30162216956E+03  0.12500133010E+03 0.  0.
    9000005    1    3    3    0    0  0.75014668040E+01 -0.40788966885E+02 -0.24430182868E+02  0.48144009583E+02  0.10000000000E+01 0.  0.
    9000005    1    3    3    0    0 -0.34240048245E+02  0.34990677740E+02 -0.24870353668E+03  0.25347815998E+03  0.10000000000E+01 0.  0.
          4    1    1    2  501    0  0.26738581441E+02  0.57982891445E+01 -0.89242599423E+03  0.89284620174E+03  0.12700000000E+01 0. -1.
<mgrwt>
<rscale>  1 0.12796056E+03</rscale>
<asrwt>0</asrwt>
<pdfrwt beam="2">  1       21 0.18153627E+00 0.12796056E+03</pdfrwt>
<pdfrwt beam="1">  1        4 0.22237961E-02 0.12796056E+03</pdfrwt>
<totfact> 0.64222417E+03</totfact>
</mgrwt>
</event>
<event>
 6    4  0.6358868E-003  0.1300035E+03  0.7818608E-02  0.1227451E+00
         21   -1    0    0  501  502  0.00000000000E+00  0.00000000000E+00  0.16659304276E+02  0.16659304276E+02  0.00000000000E+00 0.  1.
         -4   -1    0    0    0  501 -0.00000000000E+00 -0.00000000000E+00 -0.47059995839E+03  0.47060167205E+03  0.12700000000E+01 0. -1.
         25    2    1    2    0    0  0.26004916226E+02  0.24497618307E+02 -0.41265382591E+03  0.43264775399E+03  0.12499804009E+03 0.  0.
    9000005    1    3    3    0    0 -0.44807567777E+02  0.34060115272E+02 -0.22245765205E+03  0.22946942397E+03  0.10000000000E+01 0.  0.
    9000005    1    3    3    0    0  0.70812484003E+02 -0.95624969650E+01 -0.19019617386E+03  0.20317833002E+03  0.10000000000E+01 0.  0.
         -4    1    1    2    0  502 -0.26004916226E+02 -0.24497618307E+02 -0.41286828203E+02  0.54613222334E+02  0.12700000000E+01 0.  1.
<mgrwt>
<rscale>  1 0.13000346E+03</rscale>
<asrwt>0</asrwt>
<pdfrwt beam="1">  1       21 0.25629695E-02 0.13000346E+03</pdfrwt>
<pdfrwt beam="2">  1       -4 0.72403860E-01 0.13000346E+03</pdfrwt>
<totfact> 0.58253786E+04</totfact>
</mgrwt>
</event>
<event>
 6    4  0.6358868E-003  0.1304298E+03  0.7818608E-02  0.1226819E+00
         -4   -1    0    0    0  501 -0.00000000000E+00  0.00000000000E+00  0.10034549505E+03  0.10035353146E+03  0.12700000000E+01 0. -1.
         21   -1    0    0  501  502  0.00000000000E+00 -0.00000000000E+00 -0.79702985052E+02  0.79702985052E+02  0.00000000000E+00 0. -1.
         25    2    1    2    0    0 -0.24971181682E+02  0.27624226743E+02  0.42105020144E+02  0.13705756234E+03  0.12500113942E+03 0.  0.
    9000005    1    3    3    0    0  0.85581147797E+01  0.25509192343E+02  0.81172533057E+02  0.85521578245E+02  0.10000000000E+01 0.  0.
    9000005    1    3    3    0    0 -0.33529296461E+02  0.21150344008E+01 -0.39067512913E+02  0.51535984098E+02  0.10000000000E+01 0.  0.
         -4    1    1    2    0  502  0.24971181682E+02 -0.27624226743E+02 -0.21462510148E+02  0.42998954169E+02  0.12700000000E+01 0.  1.
<mgrwt>
<rscale>  1 0.13042984E+03</rscale>
<asrwt>0</asrwt>
<pdfrwt beam="2">  1       21 0.12261998E-01 0.13042984E+03</pdfrwt>
<pdfrwt beam="1">  1       -4 0.15439165E-01 0.13042984E+03</pdfrwt>
<totfact> 0.81182660E+04</totfact>
</mgrwt>
</event>
<event>
 6    4  0.6358868E-003  0.1292704E+03  0.7818608E-02  0.1228542E+00
         21   -1    0    0  501  502  0.00000000000E+00  0.00000000000E+00  0.94234037471E+02  0.94234037471E+02  0.00000000000E+00 0. -1.
          4   -1    0    0  502    0 -0.00000000000E+00 -0.00000000000E+00 -0.79295408656E+02  0.79305578202E+02  0.12700000000E+01 0. -1.
         25    2    1    2    0    0 -0.30426693283E+02  0.12665923722E+02  0.36267883586E+02  0.13426164097E+03  0.12499847826E+03 0.  0.
    9000005    1    3    3    0    0  0.23953401785E+01  0.64207999509E+02  0.34914765299E+02  0.73133068385E+02  0.10000000000E+01 0.  0.
    9000005    1    3    3    0    0 -0.32822033461E+02 -0.51542075787E+02  0.13531182870E+01  0.61128572583E+02  0.10000000000E+01 0.  0.
          4    1    1    2  501    0  0.30426693283E+02 -0.12665923722E+02 -0.21329254771E+02  0.39277974705E+02  0.12700000000E+01 0.  1.
<mgrwt>
<rscale>  1 0.12927037E+03</rscale>
<asrwt>0</asrwt>
<pdfrwt beam="1">  1       21 0.14497544E-01 0.12927037E+03</pdfrwt>
<pdfrwt beam="2">  1        4 0.12200734E-01 0.12927037E+03</pdfrwt>
<totfact> 0.90338329E+04</totfact>
</mgrwt>
</event>
<event>
 6    4  0.6358868E-003  0.1286289E+03  0.7818608E-02  0.1229504E+00
         -4   -1    0    0    0  501 -0.00000000000E+00  0.00000000000E+00  0.85870602556E+01  0.86804667981E+01  0.12700000000E+01 0.  1.
         21   -1    0    0  501  502  0.00000000000E+00 -0.00000000000E+00 -0.11534312782E+04  0.11534312782E+04  0.00000000000E+00 0.  1.
         25    2    1    2    0    0 -0.28400982567E+02 -0.10531476801E+02 -0.49112942047E+03  0.50769431159E+03  0.12501151368E+03 0.  0.
    9000005    1    3    3    0    0  0.34596121364E+02 -0.18897674545E+02 -0.59312016276E+02  0.71224497129E+02  0.10000000000E+01 0.  0.
    9000005    1    3    3    0    0 -0.62997103930E+02  0.83661977444E+01 -0.43181740420E+03  0.43646981446E+03  0.10000000000E+01 0.  0.
         -4    1    1    2    0  502  0.28400982567E+02  0.10531476801E+02 -0.65371479744E+03  0.65441743337E+03  0.12700000000E+01 0. -1.
<mgrwt>
<rscale>  1 0.12862895E+03</rscale>
<asrwt>0</asrwt>
<pdfrwt beam="2">  1       21 0.17745089E+00 0.12862895E+03</pdfrwt>
<pdfrwt beam="1">  1       -4 0.13283256E-02 0.12862895E+03</pdfrwt>
<totfact> 0.15051405E+04</totfact>
</mgrwt>
</event>
<event>
 6    4  0.6358868E-003  0.1610610E+03  0.7818608E-02  0.1187504E+00
         -4   -1    0    0    0  501 -0.00000000000E+00  0.00000000000E+00  0.24399327021E+03  0.24399657541E+03  0.12700000000E+01 0.  1.
         21   -1    0    0  501  502  0.00000000000E+00 -0.00000000000E+00 -0.92524958848E+02  0.92524958848E+02  0.00000000000E+00 0. -1.
         25    2    1    2    0    0  0.68997339233E+02 -0.74533853328E+02  0.16898710737E+03  0.23344656529E+03  0.12499891309E+03 0.  0.
    9000005    1    3    3    0    0  0.59571371565E+02 -0.10947009668E+03  0.12562651332E+03  0.17696177900E+03  0.10000000000E+01 0.  0.
    9000005    1    3    3    0    0  0.94259676680E+01  0.34936243350E+02  0.43360594057E+02  0.56484786296E+02  0.10000000000E+01 0.  0.
         -4    1    1    2    0  502 -0.68997339233E+02  0.74533853328E+02 -0.17518796007E+02  0.10307496896E+03  0.12700000000E+01 0. -1.
<mgrwt>
<rscale>  1 0.16106103E+03</rscale>
<asrwt>0</asrwt>
<pdfrwt beam="2">  1       21 0.14234609E-01 0.16106103E+03</pdfrwt>
<pdfrwt beam="1">  1       -4 0.37538351E-01 0.16106103E+03</pdfrwt>
<totfact> 0.12348403E+04</totfact>
</mgrwt>
</event>
<event>
 6    4  0.6358868E-003  0.1309127E+03  0.7818608E-02  0.1226108E+00
         -4   -1    0    0    0  501 -0.00000000000E+00  0.00000000000E+00  0.75483271823E+01  0.76544198508E+01  0.12700000000E+01 0. -1.
         21   -1    0    0  501  502  0.00000000000E+00 -0.00000000000E+00 -0.16167911514E+04  0.16167911514E+04  0.00000000000E+00 0.  1.
         25    2    1    2    0    0 -0.20693145867E+02  0.32943443017E+02 -0.58524139926E+03  0.59970462451E+03  0.12499865807E+03 0.  0.
    9000005    1    3    3    0    0 -0.51748529691E+02 -0.10030277160E+02 -0.11531293907E+03  0.12679349629E+03  0.10000000000E+01 0.  0.
    9000005    1    3    3    0    0  0.31055383824E+02  0.42973720178E+02 -0.46992846019E+03  0.47291112821E+03  0.10000000000E+01 0.  0.
         -4    1    1    2    0  502  0.20693145867E+02 -0.32943443017E+02 -0.10240014250E+04  0.10247409468E+04  0.12700000000E+01 0.  1.
<mgrwt>
<rscale>  1 0.13091272E+03</rscale>
<asrwt>0</asrwt>
<pdfrwt beam="2">  1       21 0.24873689E+00 0.13091272E+03</pdfrwt>
<pdfrwt beam="1">  1       -4 0.11694814E-02 0.13091272E+03</pdfrwt>
<totfact> 0.66634801E+03</totfact>
</mgrwt>
</event>
<event>
 6    4  0.6358868E-003  0.1271455E+03  0.7818608E-02  0.1231754E+00
          4   -1    0    0  502    0 -0.00000000000E+00  0.00000000000E+00  0.19748748313E+03  0.19749156664E+03  0.12700000000E+01 0. -1.
         21   -1    0    0  501  502  0.00000000000E+00 -0.00000000000E+00 -0.12555397995E+03  0.12555397995E+03  0.00000000000E+00 0.  1.
         25    2    1    2    0    0 -0.13543186792E+02 -0.18907024414E+02  0.17559817884E+03  0.21679644607E+03  0.12500034055E+03 0.  0.
    9000005    1    3    3    0    0 -0.38447393048E+02 -0.13389520879E+02  0.18512317233E+03  0.18954965111E+03  0.10000000000E+01 0.  0.
    9000005    1    3    3    0    0  0.24904206256E+02 -0.55175035346E+01 -0.95249934959E+01  0.27246794960E+02  0.10000000000E+01 0.  0.
          4    1    1    2  501    0  0.13543186792E+02  0.18907024414E+02 -0.10366467565E+03  0.10624910051E+03  0.12700000000E+01 0.  1.
<mgrwt>
<rscale>  1 0.12714550E+03</rscale>
<asrwt>0</asrwt>
<pdfrwt beam="2">  1       21 0.19315997E-01 0.12714550E+03</pdfrwt>
<pdfrwt beam="1">  1        4 0.30383498E-01 0.12714550E+03</pdfrwt>
<totfact> 0.10419522E+04</totfact>
</mgrwt>
</event>
<event>
 6    4  0.6358868E-003  0.1316066E+03  0.7818608E-02  0.1225091E+00
          4   -1    0    0  502    0 -0.00000000000E+00  0.00000000000E+00  0.10254604462E+03  0.10255390859E+03  0.12700000000E+01 0. -1.
         21   -1    0    0  501  502  0.00000000000E+00 -0.00000000000E+00 -0.74068258496E+02  0.74068258496E+02  0.00000000000E+00 0. -1.
         25    2    1    2    0    0 -0.56739005845E+01  0.40779930715E+02  0.11636587764E+02  0.13212009119E+03  0.12500044970E+03 0.  0.
    9000005    1    3    3    0    0  0.26042489229E+02  0.61451770273E+02 -0.32266637961E+02  0.74139512005E+02  0.10000000000E+01 0.  0.
    9000005    1    3    3    0    0 -0.31716389814E+02 -0.20671839558E+02  0.43903225725E+02  0.57980579185E+02  0.10000000000E+01 0.  0.
          4    1    1    2  501    0  0.56739005845E+01 -0.40779930715E+02  0.16841198360E+02  0.44502075898E+02  0.12700000000E+01 0.  1.
<mgrwt>
<rscale>  1 0.13160664E+03</rscale>
<asrwt>0</asrwt>
<pdfrwt beam="2">  1       21 0.11395117E-01 0.13160664E+03</pdfrwt>
<pdfrwt beam="1">  1        4 0.15777757E-01 0.13160664E+03</pdfrwt>
<totfact> 0.89098690E+04</totfact>
</mgrwt>
</event>
<event>
 6    4  0.6358868E-003  0.1284505E+03  0.7818608E-02  0.1229773E+00
          4   -1    0    0  502    0 -0.00000000000E+00  0.00000000000E+00  0.78284976067E+02  0.78295276855E+02  0.12700000000E+01 0.  1.
         21   -1    0    0  501  502  0.00000000000E+00 -0.00000000000E+00 -0.10885637919E+03  0.10885637919E+03  0.00000000000E+00 0.  1.
         25    2    1    2    0    0 -0.29523797881E+02  0.82645885455E+00 -0.63171162763E+02  0.14314376011E+03  0.12500881000E+03 0.  0.
    9000005    1    3    3    0    0  0.46245505603E+02  0.19124434675E+02 -0.18952740191E+02  0.53521931495E+02  0.10000000000E+01 0.  0.
    9000005    1    3    3    0    0 -0.75769303485E+02 -0.18297975821E+02 -0.44218422573E+02  0.89621828616E+02  0.10000000000E+01 0.  0.
          4    1    1    2  501    0  0.29523797881E+02 -0.82645885455E+00  0.32599759642E+02  0.44007895931E+02  0.12700000000E+01 0. -1.
<mgrwt>
<rscale>  1 0.12845054E+03</rscale>
<asrwt>0</asrwt>
<pdfrwt beam="2">  1       21 0.16747135E-01 0.12845054E+03</pdfrwt>
<pdfrwt beam="1">  1        4 0.12045205E-01 0.12845054E+03</pdfrwt>
<totfact> 0.71079630E+04</totfact>
</mgrwt>
</event>
<event>
 6    4  0.6358868E-003  0.1359705E+03  0.7818608E-02  0.1218856E+00
         21   -1    0    0  501  502  0.00000000000E+00  0.00000000000E+00  0.21306866048E+03  0.21306866048E+03  0.00000000000E+00 0. -1.
          4   -1    0    0  502    0 -0.00000000000E+00 -0.00000000000E+00 -0.42343393683E+02  0.42362434875E+02  0.12700000000E+01 0.  1.
         25    2    1    2    0    0  0.49220833863E+02  0.21101473550E+02  0.13026146697E+03  0.18829768588E+03  0.12498002263E+03 0.  0.
    9000005    1    3    3    0    0 -0.71978207192E+01 -0.41933938735E+02  0.14593068626E+02  0.44991349089E+02  0.10000000000E+01 0.  0.
    9000005    1    3    3    0    0  0.56418654582E+02  0.63035412285E+02  0.11566839835E+03  0.14330633679E+03  0.10000000000E+01 0.  0.
          4    1    1    2  501    0 -0.49220833863E+02 -0.21101473550E+02  0.40463799823E+02  0.67133409479E+02  0.12700000000E+01 0. -1.
<mgrwt>
<rscale>  1 0.13597047E+03</rscale>
<asrwt>0</asrwt>
<pdfrwt beam="1">  1       21 0.32779793E-01 0.13597047E+03</pdfrwt>
<pdfrwt beam="2">  1        4 0.65161243E-02 0.13597047E+03</pdfrwt>
<totfact> 0.56438468E+04</totfact>
</mgrwt>
</event>
<event>
 6    4  0.6358868E-003  0.1269078E+03  0.7818608E-02  0.1232117E+00
          4   -1    0    0  502    0 -0.00000000000E+00  0.00000000000E+00  0.46428152439E+03  0.46428326137E+03  0.12700000000E+01 0. -1.
         21   -1    0    0  501  502  0.00000000000E+00 -0.00000000000E+00 -0.15264059757E+02  0.15264059757E+02  0.00000000000E+00 0.  1.
         25    2    1    2    0    0 -0.10572715575E+02 -0.19197421775E+02  0.43584527568E+03  0.45394570440E+03  0.12500109957E+03 0.  0.
    9000005    1    3    3    0    0  0.92639063650E+01  0.36587813204E+02  0.33407414123E+03  0.33620086240E+03  0.10000000000E+01 0.  0.
    9000005    1    3    3    0    0 -0.19836621940E+02 -0.55785234979E+02  0.10177113444E+03  0.11774484200E+03  0.10000000000E+01 0.  0.
          4    1    1    2  501    0  0.10572715575E+02  0.19197421775E+02  0.13172188959E+02  0.25601616734E+02  0.12700000000E+01 0.  1.
<mgrwt>
<rscale>  1 0.12690783E+03</rscale>
<asrwt>0</asrwt>
<pdfrwt beam="2">  1       21 0.23483172E-02 0.12690783E+03</pdfrwt>
<pdfrwt beam="1">  1        4 0.71432114E-01 0.12690783E+03</pdfrwt>
<totfact> 0.68917915E+04</totfact>
</mgrwt>
</event>
<event>
 6    4  0.6358868E-003  0.1298855E+03  0.7818608E-02  0.1227626E+00
         21   -1    0    0  501  502  0.00000000000E+00  0.00000000000E+00  0.48952736207E+03  0.48952736207E+03  0.00000000000E+00 0.  1.
         -4   -1    0    0    0  501 -0.00000000000E+00 -0.00000000000E+00 -0.20238951728E+02  0.20278759011E+02  0.12700000000E+01 0.  1.
         25    2    1    2    0    0 -0.96969554455E+01  0.33914314619E+02  0.20171646399E+03  0.23991619712E+03  0.12500415239E+03 0.  0.
    9000005    1    3    3    0    0  0.17885244215E+01  0.36709377846E+02 -0.10709269103E+01  0.36782116930E+02  0.10000000000E+01 0.  0.
    9000005    1    3    3    0    0 -0.11485479867E+02 -0.27950632265E+01  0.20278739090E+03  0.20313408019E+03  0.10000000000E+01 0.  0.
         -4    1    1    2    0  502  0.96969554455E+01 -0.33914314619E+02  0.26757194635E+03  0.26988992396E+03  0.12700000000E+01 0. -1.
<mgrwt>
<rscale>  1 0.12988553E+03</rscale>
<asrwt>0</asrwt>
<pdfrwt beam="1">  1       21 0.75311892E-01 0.12988553E+03</pdfrwt>
<pdfrwt beam="2">  1       -4 0.31168741E-02 0.12988553E+03</pdfrwt>
<totfact> 0.32667682E+04</totfact>
</mgrwt>
</event>
<event>
 6    4  0.6358868E-003  0.1277640E+03  0.7818608E-02  0.1230812E+00
         21   -1    0    0  501  502  0.00000000000E+00  0.00000000000E+00  0.14987753898E+02  0.14987753898E+02  0.00000000000E+00 0.  1.
          4   -1    0    0  502    0 -0.00000000000E+00 -0.00000000000E+00 -0.50844409096E+03  0.50844567708E+03  0.12700000000E+01 0. -1.
         25    2    1    2    0    0 -0.14447128031E+02  0.22125516002E+02 -0.47311352775E+03  0.49006127555E+03  0.12500154274E+03 0.  0.
    9000005    1    3    3    0    0 -0.14648773923E+02  0.18562457455E+02 -0.80737597495E+01  0.25006739105E+02  0.10000000000E+01 0.  0.
    9000005    1    3    3    0    0  0.20164589129E+00  0.35630585468E+01 -0.46503976800E+03  0.46505453644E+03  0.10000000000E+01 0.  0.
          4    1    1    2  501    0  0.14447128031E+02 -0.22125516002E+02 -0.20342809320E+02  0.33372155425E+02  0.12700000000E+01 0.  1.
<mgrwt>
<rscale>  1 0.12776402E+03</rscale>
<asrwt>0</asrwt>
<pdfrwt beam="1">  1       21 0.23058084E-02 0.12776402E+03</pdfrwt>
<pdfrwt beam="2">  1        4 0.78226426E-01 0.12776402E+03</pdfrwt>
<totfact> 0.58287769E+04</totfact>
</mgrwt>
</event>
<event>
 6    4  0.6358868E-003  0.1271521E+03  0.7818608E-02  0.1231744E+00
         21   -1    0    0  501  502  0.00000000000E+00  0.00000000000E+00  0.11149589201E+04  0.11149589201E+04  0.00000000000E+00 0. -1.
         -4   -1    0    0    0  501 -0.00000000000E+00 -0.00000000000E+00 -0.49998207909E+01  0.51585955396E+01  0.12700000000E+01 0. -1.
         25    2    1    2    0    0 -0.62390401184E+01 -0.22449563271E+02  0.93024380905E+03  0.93889360175E+03  0.12499897047E+03 0.  0.
    9000005    1    3    3    0    0 -0.52269855397E+02 -0.28392908344E+02  0.76330959799E+03  0.76562447545E+03  0.10000000000E+01 0.  0.
    9000005    1    3    3    0    0  0.46030815279E+02  0.59433450732E+01  0.16693421106E+03  0.17326912630E+03  0.10000000000E+01 0.  0.
         -4    1    1    2    0  502  0.62390401184E+01  0.22449563271E+02  0.17971529029E+03  0.18122391392E+03  0.12700000000E+01 0.  1.
<mgrwt>
<rscale>  1 0.12715208E+03</rscale>
<asrwt>0</asrwt>
<pdfrwt beam="1">  1       21 0.17153195E+00 0.12715208E+03</pdfrwt>
<pdfrwt beam="2">  1       -4 0.78147316E-03 0.12715208E+03</pdfrwt>
<totfact> 0.36664921E+04</totfact>
</mgrwt>
</event>
<event>
 6    4  0.6358868E-003  0.1268430E+03  0.7818608E-02  0.1232217E+00
         21   -1    0    0  501  502  0.00000000000E+00  0.00000000000E+00  0.11386651382E+02  0.11386651382E+02  0.00000000000E+00 0. -1.
         -4   -1    0    0    0  501 -0.00000000000E+00 -0.00000000000E+00 -0.54317279993E+03  0.54317428463E+03  0.12700000000E+01 0. -1.
         25    2    1    2    0    0 -0.18853959671E+02  0.10402438240E+02 -0.50204586989E+03  0.51782158938E+03  0.12500184172E+03 0.  0.
    9000005    1    3    3    0    0  0.35404421825E+02 -0.38116515872E+02 -0.16522723377E+03  0.17322638554E+03  0.10000000000E+01 0.  0.
    9000005    1    3    3    0    0 -0.54258381495E+02  0.48518954111E+02 -0.33681863612E+03  0.34459520384E+03  0.10000000000E+01 0.  0.
         -4    1    1    2    0  502  0.18853959671E+02 -0.10402438240E+02 -0.29740278650E+02  0.36739346629E+02  0.12700000000E+01 0.  1.
<mgrwt>
<rscale>  1 0.12684299E+03</rscale>
<asrwt>0</asrwt>
<pdfrwt beam="1">  1       21 0.17517922E-02 0.12684299E+03</pdfrwt>
<pdfrwt beam="2">  1       -4 0.83570626E-01 0.12684299E+03</pdfrwt>
<totfact> 0.78377602E+04</totfact>
</mgrwt>
</event>
<event>
 6    4  0.6358868E-003  0.1268292E+03  0.7818608E-02  0.1232238E+00
         21   -1    0    0  501  502  0.00000000000E+00  0.00000000000E+00  0.21969166417E+03  0.21969166417E+03  0.00000000000E+00 0. -1.
         -4   -1    0    0    0  501 -0.00000000000E+00 -0.00000000000E+00 -0.13396033411E+03  0.13396635404E+03  0.12700000000E+01 0.  1.
         25    2    1    2    0    0 -0.12948144964E+02  0.16971765852E+02 -0.10320563684E+03  0.16351468897E+03  0.12501981739E+03 0.  0.
    9000005    1    3    3    0    0  0.49714387824E+02 -0.19942030097E+02 -0.36521308571E+02  0.64838344372E+02  0.10000000000E+01 0.  0.
    9000005    1    3    3    0    0 -0.62662532788E+02  0.36913795950E+02 -0.66684328271E+02  0.98676344601E+02  0.10000000000E+01 0.  0.
         -4    1    1    2    0  502  0.12948144964E+02 -0.16971765852E+02  0.18893696690E+03  0.19014332924E+03  0.12700000000E+01 0. -1.
<mgrwt>
<rscale>  1 0.12682922E+03</rscale>
<asrwt>0</asrwt>
<pdfrwt beam="1">  1       21 0.33798717E-01 0.12682922E+03</pdfrwt>
<pdfrwt beam="2">  1       -4 0.20610028E-01 0.12682922E+03</pdfrwt>
<totfact> 0.73816800E+03</totfact>
</mgrwt>
</event>
<event>
 6    4  0.6358868E-003  0.1270454E+03  0.7818608E-02  0.1231907E+00
          4   -1    0    0  502    0 -0.00000000000E+00  0.00000000000E+00  0.15046101930E+03  0.15046637907E+03  0.12700000000E+01 0.  1.
         21   -1    0    0  501  502  0.00000000000E+00 -0.00000000000E+00 -0.43435327536E+02  0.43435327536E+02  0.00000000000E+00 0.  1.
         25    2    1    2    0    0  0.18346347491E+02 -0.13361970053E+02  0.11339867185E+03  0.17029326563E+03  0.12500162732E+03 0.  0.
    9000005    1    3    3    0    0  0.57138927159E+01  0.14605933912E+02  0.13296083298E+03  0.13388638834E+03  0.10000000000E+01 0.  0.
    9000005    1    3    3    0    0  0.12632454775E+02 -0.27967903965E+02 -0.19562161134E+02  0.36406877291E+02  0.10000000000E+01 0.  0.
          4    1    1    2  501    0 -0.18346347491E+02  0.13361970053E+02 -0.63729800825E+01  0.23608440971E+02  0.12700000000E+01 0. -1.
<mgrwt>
<rscale>  1 0.12704542E+03</rscale>
<asrwt>0</asrwt>
<pdfrwt beam="2">  1       21 0.66823582E-02 0.12704542E+03</pdfrwt>
<pdfrwt beam="1">  1        4 0.23149689E-01 0.12704542E+03</pdfrwt>
<totfact> 0.11268166E+05</totfact>
</mgrwt>
</event>
<event>
 6    4  0.6358868E-003  0.1287467E+03  0.7818608E-02  0.1229327E+00
         21   -1    0    0  501  502  0.00000000000E+00  0.00000000000E+00  0.24477505018E+03  0.24477505018E+03  0.00000000000E+00 0. -1.
          4   -1    0    0  502    0 -0.00000000000E+00 -0.00000000000E+00 -0.40549313040E+02  0.40569196295E+02  0.12700000000E+01 0.  1.
         25    2    1    2    0    0  0.28288503810E+02 -0.12239507278E+02  0.67866325920E+02  0.14553885704E+03  0.12500270289E+03 0.  0.
    9000005    1    3    3    0    0  0.17621087873E+01  0.48639412285E+02  0.62053570106E+02  0.78870419155E+02  0.10000000000E+01 0.  0.
    9000005    1    3    3    0    0  0.26526395022E+02 -0.60878919563E+02  0.58127558137E+01  0.66668437886E+02  0.10000000000E+01 0.  0.
          4    1    1    2  501    0 -0.28288503810E+02  0.12239507278E+02  0.13635941122E+03  0.13980538943E+03  0.12700000000E+01 0. -1.
<mgrwt>
<rscale>  1 0.12874673E+03</rscale>
<asrwt>0</asrwt>
<pdfrwt beam="1">  1       21 0.37657699E-01 0.12874673E+03</pdfrwt>
<pdfrwt beam="2">  1        4 0.62401389E-02 0.12874673E+03</pdfrwt>
<totfact> 0.45820512E+04</totfact>
</mgrwt>
</event>
<event>
 6    4  0.6358868E-003  0.1266495E+03  0.7818608E-02  0.1232514E+00
         21   -1    0    0  501  502  0.00000000000E+00  0.00000000000E+00  0.15717063967E+03  0.15717063967E+03  0.00000000000E+00 0. -1.
          4   -1    0    0  502    0 -0.00000000000E+00 -0.00000000000E+00 -0.35796463808E+02  0.35818985485E+02  0.12700000000E+01 0. -1.
         25    2    1    2    0    0  0.20030562746E+02  0.35110468289E+01  0.11640230102E+03  0.17201622931E+03  0.12500614613E+03 0.  0.
    9000005    1    3    3    0    0 -0.24250762685E+02 -0.50755498110E+02  0.58155483968E+02  0.80915266759E+02  0.10000000000E+01 0.  0.
    9000005    1    3    3    0    0  0.44281325430E+02  0.54266544939E+02  0.58246817052E+02  0.91100962554E+02  0.10000000000E+01 0.  0.
          4    1    1    2  501    0 -0.20030562746E+02 -0.35110468289E+01  0.49718748434E+01  0.20973395843E+02  0.12700000000E+01 0.  1.
<mgrwt>
<rscale>  1 0.12664947E+03</rscale>
<asrwt>0</asrwt>
<pdfrwt beam="1">  1       21 0.24180098E-01 0.12664947E+03</pdfrwt>
<pdfrwt beam="2">  1        4 0.55092755E-02 0.12664947E+03</pdfrwt>
<totfact> 0.13159328E+05</totfact>
</mgrwt>
</event>
<event>
 6    4  0.6358868E-003  0.1287984E+03  0.7818608E-02  0.1229250E+00
         -4   -1    0    0    0  501 -0.00000000000E+00  0.00000000000E+00  0.86836945801E+02  0.86846232251E+02  0.12700000000E+01 0. -1.
         21   -1    0    0  501  502  0.00000000000E+00 -0.00000000000E+00 -0.73904262675E+02  0.73904262675E+02  0.00000000000E+00 0. -1.
         25    2    1    2    0    0 -0.12900483239E+02  0.28215025939E+02  0.60144592743E+01  0.12893878517E+03  0.12500610562E+03 0.  0.
    9000005    1    3    3    0    0 -0.13173763929E+02 -0.41043394202E+02 -0.28364066182E+02  0.51610352780E+02  0.10000000000E+01 0.  0.
    9000005    1    3    3    0    0  0.27328068996E+00  0.69258420141E+02  0.34378525456E+02  0.77328432386E+02  0.10000000000E+01 0.  0.
         -4    1    1    2    0  502  0.12900483239E+02 -0.28215025939E+02  0.69182238525E+01  0.31811709759E+02  0.12700000000E+01 0.  1.
<mgrwt>
<rscale>  1 0.12879843E+03</rscale>
<asrwt>0</asrwt>
<pdfrwt beam="2">  1       21 0.11369887E-01 0.12879843E+03</pdfrwt>
<pdfrwt beam="1">  1       -4 0.13361084E-01 0.12879843E+03</pdfrwt>
<totfact> 0.11907279E+05</totfact>
</mgrwt>
</event>
<event>
 6    4  0.6358868E-003  0.1289994E+03  0.7818608E-02  0.1228948E+00
          4   -1    0    0  502    0 -0.00000000000E+00  0.00000000000E+00  0.29437736664E+02  0.29465119038E+02  0.12700000000E+01 0. -1.
         21   -1    0    0  501  502  0.00000000000E+00 -0.00000000000E+00 -0.22419916115E+03  0.22419916115E+03  0.00000000000E+00 0. -1.
         25    2    1    2    0    0 -0.30393069751E+02 -0.96122525296E+01 -0.16930830475E+03  0.21285241559E+03  0.12499885871E+03 0.  0.
    9000005    1    3    3    0    0 -0.68902389967E+02 -0.16404947904E+02 -0.48445843646E+02  0.85817605568E+02  0.10000000000E+01 0.  0.
    9000005    1    3    3    0    0  0.38509320215E+02  0.67926953745E+01 -0.12086246110E+03  0.12703481002E+03  0.10000000000E+01 0.  0.
          4    1    1    2  501    0  0.30393069751E+02  0.96122525296E+01 -0.25453119741E+02  0.40811864600E+02  0.12700000000E+01 0.  1.
<mgrwt>
<rscale>  1 0.12899941E+03</rscale>
<asrwt>0</asrwt>
<pdfrwt beam="2">  1       21 0.34492179E-01 0.12899941E+03</pdfrwt>
<pdfrwt beam="1">  1        4 0.45312655E-02 0.12899941E+03</pdfrwt>
<totfact> 0.91273940E+04</totfact>
</mgrwt>
</event>
<event>
 6    4  0.6358868E-003  0.1413922E+03  0.7818608E-02  0.1211468E+00
          4   -1    0    0  502    0 -0.00000000000E+00  0.00000000000E+00  0.64007317786E+03  0.64007443779E+03  0.12700000000E+01 0. -1.
         21   -1    0    0  501  502  0.00000000000E+00 -0.00000000000E+00 -0.19316192958E+02  0.19316192958E+02  0.00000000000E+00 0. -1.
         25    2    1    2    0    0 -0.57230405176E+02  0.33057265619E+02  0.52003563470E+03  0.53891446974E+03  0.12499456886E+03 0.  0.
    9000005    1    3    3    0    0 -0.25496255430E+01  0.52525627418E+02  0.41979814598E+03  0.42308028256E+03  0.10000000000E+01 0.  0.
    9000005    1    3    3    0    0 -0.54680779633E+02 -0.19468361799E+02  0.10023748872E+03  0.11583418717E+03  0.10000000000E+01 0.  0.
          4    1    1    2  501    0  0.57230405176E+02 -0.33057265619E+02  0.10072135020E+03  0.12047616101E+03  0.12700000000E+01 0.  1.
<mgrwt>
<rscale>  1 0.14139217E+03</rscale>
<asrwt>0</asrwt>
<pdfrwt beam="2">  1       21 0.29717225E-02 0.14139217E+03</pdfrwt>
<pdfrwt beam="1">  1        4 0.98476089E-01 0.14139217E+03</pdfrwt>
<totfact> 0.23238918E+04</totfact>
</mgrwt>
</event>
<event>
 6    4  0.6358868E-003  0.1773749E+03  0.7818608E-02  0.1170368E+00
         21   -1    0    0  501  502  0.00000000000E+00  0.00000000000E+00  0.28968028998E+04  0.28968028998E+04  0.00000000000E+00 0.  1.
         -4   -1    0    0    0  501 -0.00000000000E+00 -0.00000000000E+00 -0.12447295815E+02  0.12511917244E+02  0.12700000000E+01 0. -1.
         25    2    1    2    0    0  0.47545435809E+02 -0.11651842737E+03  0.72826727707E+03  0.74955659013E+03  0.12499897027E+03 0.  0.
    9000005    1    3    3    0    0 -0.26585502340E+02 -0.96123552146E+02  0.44488257294E+03  0.45592546531E+03  0.10000000000E+01 0.  0.
    9000005    1    3    3    0    0  0.74130938150E+02 -0.20394875223E+02  0.28338470413E+03  0.29363112482E+03  0.10000000000E+01 0.  0.
         -4    1    1    2    0  502 -0.47545435809E+02  0.11651842737E+03  0.21560883269E+04  0.21597582269E+04  0.12700000000E+01 0.  1.
<mgrwt>
<rscale>  1 0.17737490E+03</rscale>
<asrwt>0</asrwt>
<pdfrwt beam="1">  1       21 0.44566145E+00 0.17737490E+03</pdfrwt>
<pdfrwt beam="2">  1       -4 0.19199632E-02 0.17737490E+03</pdfrwt>
<totfact> 0.20612932E+02</totfact>
</mgrwt>
</event>
<event>
 6    4  0.6358868E-003  0.1358544E+03  0.7818608E-02  0.1219019E+00
         21   -1    0    0  501  502  0.00000000000E+00  0.00000000000E+00  0.27028401042E+02  0.27028401042E+02  0.00000000000E+00 0.  1.
         -4   -1    0    0    0  501 -0.00000000000E+00 -0.00000000000E+00 -0.33324418142E+03  0.33324660141E+03  0.12700000000E+01 0. -1.
         25    2    1    2    0    0 -0.47605721117E+02 -0.23771716870E+02 -0.23375835808E+03  0.27036899513E+03  0.12500009740E+03 0.  0.
    9000005    1    3    3    0    0  0.15931385701E+02  0.38708190315E+02 -0.11131300816E+03  0.11892736789E+03  0.10000000000E+01 0.  0.
    9000005    1    3    3    0    0 -0.63537106818E+02 -0.62479907184E+02 -0.12244534992E+03  0.15144162725E+03  0.10000000000E+01 0.  0.
         -4    1    1    2    0  502  0.47605721117E+02  0.23771716870E+02 -0.72457422302E+02  0.89906007323E+02  0.12700000000E+01 0.  1.
<mgrwt>
<rscale>  1 0.13585442E+03</rscale>
<asrwt>0</asrwt>
<pdfrwt beam="1">  1       21 0.41582153E-02 0.13585442E+03</pdfrwt>
<pdfrwt beam="2">  1       -4 0.51270820E-01 0.13585442E+03</pdfrwt>
<totfact> 0.54601111E+04</totfact>
</mgrwt>
</event>
<event>
 6    4  0.6358868E-003  0.1277764E+03  0.7818608E-02  0.1230793E+00
          4   -1    0    0  502    0 -0.00000000000E+00  0.00000000000E+00  0.94823132893E+03  0.94823217941E+03  0.12700000000E+01 0.  1.
         21   -1    0    0  501  502  0.00000000000E+00 -0.00000000000E+00 -0.89965247909E+02  0.89965247909E+02  0.00000000000E+00 0. -1.
         25    2    1    2    0    0  0.12432136231E+02 -0.23391780025E+02  0.94186495103E+03  0.95049271051E+03  0.12500029344E+03 0.  0.
    9000005    1    3    3    0    0  0.20663217865E+02 -0.29026800655E+02  0.69840008017E+02  0.78410142511E+02  0.10000000000E+01 0.  0.
    9000005    1    3    3    0    0 -0.82310816338E+01  0.56350206293E+01  0.87202494301E+03  0.87208256799E+03  0.10000000000E+01 0.  0.
          4    1    1    2  501    0 -0.12432136231E+02  0.23391780025E+02 -0.83598870009E+02  0.87704716811E+02  0.12700000000E+01 0. -1.
<mgrwt>
<rscale>  1 0.12777639E+03</rscale>
<asrwt>0</asrwt>
<pdfrwt beam="2">  1       21 0.13840808E-01 0.12777639E+03</pdfrwt>
<pdfrwt beam="1">  1        4 0.14588249E+00 0.12777639E+03</pdfrwt>
<totfact> 0.64767667E+02</totfact>
</mgrwt>
</event>
<event>
 6    4  0.6358868E-003  0.1283014E+03  0.7818608E-02  0.1229998E+00
         21   -1    0    0  501  502  0.00000000000E+00  0.00000000000E+00  0.27122794696E+02  0.27122794696E+02  0.00000000000E+00 0. -1.
         -4   -1    0    0    0  501 -0.00000000000E+00 -0.00000000000E+00 -0.29852308537E+03  0.29852578683E+03  0.12700000000E+01 0. -1.
         25    2    1    2    0    0 -0.26996716044E+02 -0.10380212011E+02 -0.26718299081E+03  0.29639161660E+03  0.12499867331E+03 0.  0.
    9000005    1    3    3    0    0  0.59317506442E+01 -0.63968622948E+02 -0.15474111310E+03  0.16754994023E+03  0.10000000000E+01 0.  0.
    9000005    1    3    3    0    0 -0.32928466688E+02  0.53588410936E+02 -0.11244187771E+03  0.12884167636E+03  0.10000000000E+01 0.  0.
         -4    1    1    2    0  502  0.26996716044E+02  0.10380212011E+02 -0.42172998621E+01  0.29256964926E+02  0.12700000000E+01 0.  1.
<mgrwt>
<rscale>  1 0.12830136E+03</rscale>
<asrwt>0</asrwt>
<pdfrwt beam="1">  1       21 0.41727378E-02 0.12830136E+03</pdfrwt>
<pdfrwt beam="2">  1       -4 0.45929122E-01 0.12830136E+03</pdfrwt>
<totfact> 0.67324347E+04</totfact>
</mgrwt>
</event>
<event>
 6    4  0.6358868E-003  0.1293481E+03  0.7818608E-02  0.1228426E+00
          4   -1    0    0  502    0 -0.00000000000E+00  0.00000000000E+00  0.54443640712E+02  0.54458451263E+02  0.12700000000E+01 0. -1.
         21   -1    0    0  501  502  0.00000000000E+00 -0.00000000000E+00 -0.12917566728E+03  0.12917566728E+03  0.00000000000E+00 0.  1.
         25    2    1    2    0    0  0.33110215321E+02 -0.31497491559E+01 -0.39680945669E+02  0.13529781282E+03  0.12499885371E+03 0.  0.
    9000005    1    3    3    0    0  0.50315162854E+02 -0.23905009207E+02 -0.73377724336E+02  0.92132271800E+02  0.10000000000E+01 0.  0.
    9000005    1    3    3    0    0 -0.17204947533E+02  0.20755260051E+02  0.33696778667E+02  0.43165541025E+02  0.10000000000E+01 0.  0.
          4    1    1    2  501    0 -0.33110215321E+02  0.31497491559E+01 -0.35051080901E+02  0.48336305720E+02  0.12700000000E+01 0.  1.
<mgrwt>
<rscale>  1 0.12934806E+03</rscale>
<asrwt>0</asrwt>
<pdfrwt beam="2">  1       21 0.19873180E-01 0.12934806E+03</pdfrwt>
<pdfrwt beam="1">  1        4 0.83775642E-02 0.12934806E+03</pdfrwt>
<totfact> 0.95823404E+04</totfact>
</mgrwt>
</event>
<event>
 6    4  0.6358868E-003  0.1937820E+03  0.7818608E-02  0.1155094E+00
          4   -1    0    0  502    0 -0.00000000000E+00  0.00000000000E+00  0.49494146887E+02  0.49510438052E+02  0.12700000000E+01 0.  1.
         21   -1    0    0  501  502  0.00000000000E+00 -0.00000000000E+00 -0.24862350764E+04  0.24862350764E+04  0.00000000000E+00 0. -1.
         25    2    1    2    0    0 -0.14350710540E+02  0.14738554363E+03 -0.15219176835E+03  0.24640173860E+03  0.12499216403E+03 0.  0.
    9000005    1    3    3    0    0  0.34497619308E+02  0.34906620884E+02 -0.10332390471E+03  0.11439137732E+03  0.10000000000E+01 0.  0.
    9000005    1    3    3    0    0 -0.48848329849E+02  0.11247892274E+03 -0.48867863642E+02  0.13201036129E+03  0.10000000000E+01 0.  0.
          4    1    1    2  501    0  0.14350710540E+02 -0.14738554363E+03 -0.22845491611E+04  0.22893437758E+04  0.12700000000E+01 0. -1.
<mgrwt>
<rscale>  1 0.19378205E+03</rscale>
<asrwt>0</asrwt>
<pdfrwt beam="2">  1       21 0.38249763E+00 0.19378205E+03</pdfrwt>
<pdfrwt beam="1">  1        4 0.76157638E-02 0.19378205E+03</pdfrwt>
<totfact> 0.56254974E+01</totfact>
</mgrwt>
</event>
<event>
 6    4  0.6358868E-003  0.1292943E+03  0.7818608E-02  0.1228507E+00
         21   -1    0    0  501  502  0.00000000000E+00  0.00000000000E+00  0.38221189979E+03  0.38221189979E+03  0.00000000000E+00 0.  1.
         -4   -1    0    0    0  501 -0.00000000000E+00 -0.00000000000E+00 -0.31198854163E+02  0.31224692169E+02  0.12700000000E+01 0. -1.
         25    2    1    2    0    0 -0.18996189002E+02  0.27021310885E+02  0.10880621027E+03  0.16898461215E+03  0.12500400518E+03 0.  0.
    9000005    1    3    3    0    0 -0.67287583748E+02 -0.68561576051E+01  0.74956726538E+02  0.10096601744E+03  0.10000000000E+01 0.  0.
    9000005    1    3    3    0    0  0.48291394746E+02  0.33877468490E+02  0.33849483731E+02  0.68018594713E+02  0.10000000000E+01 0.  0.
         -4    1    1    2    0  502  0.18996189002E+02 -0.27021310885E+02  0.24220683536E+03  0.24445197981E+03  0.12700000000E+01 0.  1.
<mgrwt>
<rscale>  1 0.12929427E+03</rscale>
<asrwt>0</asrwt>
<pdfrwt beam="1">  1       21 0.58801827E-01 0.12929427E+03</pdfrwt>
<pdfrwt beam="2">  1       -4 0.48019738E-02 0.12929427E+03</pdfrwt>
<totfact> 0.28112318E+04</totfact>
</mgrwt>
</event>
<event>
 6    4  0.6358868E-003  0.1279360E+03  0.7818608E-02  0.1230551E+00
         -4   -1    0    0    0  501 -0.00000000000E+00  0.00000000000E+00  0.17274218754E+02  0.17320841017E+02  0.12700000000E+01 0.  1.
         21   -1    0    0  501  502  0.00000000000E+00 -0.00000000000E+00 -0.14328108244E+04  0.14328108244E+04  0.00000000000E+00 0. -1.
         25    2    1    2    0    0  0.21399164326E+01  0.27168950373E+02 -0.22156911381E+03  0.25585250393E+03  0.12499960186E+03 0.  0.
    9000005    1    3    3    0    0  0.49837576022E+02  0.34654187489E+02 -0.18660458085E+03  0.19623191964E+03  0.10000000000E+01 0.  0.
    9000005    1    3    3    0    0 -0.47697659590E+02 -0.74852371158E+01 -0.34964532964E+02  0.59620584284E+02  0.10000000000E+01 0.  0.
         -4    1    1    2    0  502 -0.21399164326E+01 -0.27168950373E+02 -0.11939674919E+04  0.11942791615E+04  0.12700000000E+01 0. -1.
<mgrwt>
<rscale>  1 0.12793604E+03</rscale>
<asrwt>0</asrwt>
<pdfrwt beam="2">  1       21 0.22043250E+00 0.12793604E+03</pdfrwt>
<pdfrwt beam="1">  1       -4 0.26612010E-02 0.12793604E+03</pdfrwt>
<totfact> 0.27696000E+03</totfact>
</mgrwt>
</event>
<event>
 6    4  0.6358868E-003  0.1280917E+03  0.7818608E-02  0.1230315E+00
          4   -1    0    0  502    0 -0.00000000000E+00  0.00000000000E+00  0.26465381345E+03  0.26465686062E+03  0.12700000000E+01 0.  1.
         21   -1    0    0  501  502  0.00000000000E+00 -0.00000000000E+00 -0.23355746349E+02  0.23355746349E+02  0.00000000000E+00 0.  1.
         25    2    1    2    0    0 -0.83177922847E+01  0.26672903168E+02  0.21050429223E+03  0.24641334132E+03  0.12500739299E+03 0.  0.
    9000005    1    3    3    0    0 -0.31078330391E+02  0.35373661829E+02  0.21628227664E+03  0.22135081152E+03  0.10000000000E+01 0.  0.
    9000005    1    3    3    0    0  0.22760538106E+02 -0.87007586609E+01 -0.57779844107E+01  0.25062529801E+02  0.10000000000E+01 0.  0.
          4    1    1    2  501    0  0.83177922847E+01 -0.26672903168E+02  0.30793774869E+02  0.41599265649E+02  0.12700000000E+01 0. -1.
<mgrwt>
<rscale>  1 0.12809168E+03</rscale>
<asrwt>0</asrwt>
<pdfrwt beam="2">  1       21 0.35931919E-02 0.12809168E+03</pdfrwt>
<pdfrwt beam="1">  1        4 0.40718859E-01 0.12809168E+03</pdfrwt>
<totfact> 0.10958726E+05</totfact>
</mgrwt>
</event>
<event>
 6    4  0.6358868E-003  0.1300313E+03  0.7818608E-02  0.1227409E+00
         -4   -1    0    0    0  501 -0.00000000000E+00  0.00000000000E+00  0.10809020641E+03  0.10809766705E+03  0.12700000000E+01 0. -1.
         21   -1    0    0  501  502  0.00000000000E+00 -0.00000000000E+00 -0.64717388922E+02  0.64717388922E+02  0.00000000000E+00 0. -1.
         25    2    1    2    0    0  0.17670665464E+02  0.31210020684E+02  0.42896125192E+02  0.13692413867E+03  0.12498729690E+03 0.  0.
    9000005    1    3    3    0    0  0.10187368419E+02 -0.58424038149E+01 -0.42194493355E+02  0.43809718410E+02  0.10000000000E+01 0.  0.
    9000005    1    3    3    0    0  0.74832970442E+01  0.37052424499E+02  0.85090618547E+02  0.93114420262E+02  0.10000000000E+01 0.  0.
         -4    1    1    2    0  502 -0.17670665464E+02 -0.31210020684E+02  0.47669229307E+00  0.35890917299E+02  0.12700000000E+01 0.  1.
<mgrwt>
<rscale>  1 0.13003131E+03</rscale>
<asrwt>0</asrwt>
<pdfrwt beam="2">  1       21 0.99565214E-02 0.13003131E+03</pdfrwt>
<pdfrwt beam="1">  1       -4 0.16630795E-01 0.13003131E+03</pdfrwt>
<totfact> 0.10278801E+05</totfact>
</mgrwt>
</event>
<event>
 6    4  0.6358868E-003  0.1346398E+03  0.7818608E-02  0.1220729E+00
         21   -1    0    0  501  502  0.00000000000E+00  0.00000000000E+00  0.11147458847E+03  0.11147458847E+03  0.00000000000E+00 0.  1.
          4   -1    0    0  502    0 -0.00000000000E+00 -0.00000000000E+00 -0.78140191952E+02  0.78150511824E+02  0.12700000000E+01 0.  1.
         25    2    1    2    0    0  0.45501504351E+02  0.20770980945E+02  0.11808110534E+02  0.13515662835E+03  0.12500424859E+03 0.  0.
    9000005    1    3    3    0    0  0.85208757351E+02  0.16179931118E+02  0.29246402766E+02  0.91535100235E+02  0.10000000000E+01 0.  0.
    9000005    1    3    3    0    0 -0.39707253000E+02  0.45910498272E+01 -0.17438292232E+02  0.43621528117E+02  0.10000000000E+01 0.  0.
          4    1    1    2  501    0 -0.45501504351E+02 -0.20770980945E+02  0.21526285988E+02  0.54468471946E+02  0.12700000000E+01 0. -1.
<mgrwt>
<rscale>  1 0.13463983E+03</rscale>
<asrwt>0</asrwt>
<pdfrwt beam="1">  1       21 0.17149937E-01 0.13463983E+03</pdfrwt>
<pdfrwt beam="2">  1        4 0.12022918E-01 0.13463983E+03</pdfrwt>
<totfact> 0.68695984E+04</totfact>
</mgrwt>
</event>
<event>
 6    4  0.6358868E-003  0.1316304E+03  0.7818608E-02  0.1225056E+00
         21   -1    0    0  501  502  0.00000000000E+00  0.00000000000E+00  0.37122916829E+02  0.37122916829E+02  0.00000000000E+00 0.  1.
         -4   -1    0    0    0  501 -0.00000000000E+00 -0.00000000000E+00 -0.54210368866E+03  0.54210517628E+03  0.12700000000E+01 0. -1.
         25    2    1    2    0    0  0.35790545931E+02 -0.20486615150E+02 -0.51917061326E+03  0.53559749516E+03  0.12500354623E+03 0.  0.
    9000005    1    3    3    0    0  0.33911975240E-01 -0.62194118763E+02 -0.39425246348E+03  0.39912919527E+03  0.10000000000E+01 0.  0.
    9000005    1    3    3    0    0  0.35756633956E+02  0.41707503613E+02 -0.12491814978E+03  0.13646829988E+03  0.10000000000E+01 0.  0.
         -4    1    1    2    0  502 -0.35790545931E+02  0.20486615150E+02  0.14189841430E+02  0.43630597958E+02  0.12700000000E+01 0.  1.
<mgrwt>
<rscale>  1 0.13163036E+03</rscale>
<asrwt>0</asrwt>
<pdfrwt beam="1">  1       21 0.57112175E-02 0.13163036E+03</pdfrwt>
<pdfrwt beam="2">  1       -4 0.83402360E-01 0.13163036E+03</pdfrwt>
<totfact> 0.11314883E+04</totfact>
</mgrwt>
</event>
<event>
 6    4  0.6358868E-003  0.1499921E+03  0.7818608E-02  0.1200483E+00
         21   -1    0    0  501  502  0.00000000000E+00  0.00000000000E+00  0.25732128588E+04  0.25732128588E+04  0.00000000000E+00 0.  1.
         -4   -1    0    0    0  501 -0.00000000000E+00 -0.00000000000E+00 -0.55319740871E+01  0.56758820724E+01  0.12700000000E+01 0. -1.
         25    2    1    2    0    0  0.37835028447E+02  0.73763651615E+02  0.13292890672E+04  0.13377245807E+04  0.12500025683E+03 0.  0.
    9000005    1    3    3    0    0  0.15812999573E+02 -0.32813065414E+02  0.20813211360E+03  0.21129771634E+03  0.10000000000E+01 0.  0.
    9000005    1    3    3    0    0  0.22022028874E+02  0.10657671703E+03  0.11211569535E+04  0.11264268644E+04  0.10000000000E+01 0.  0.
         -4    1    1    2    0  502 -0.37835028447E+02 -0.73763651615E+02  0.12383918175E+04  0.12411641601E+04  0.12700000000E+01 0.  1.
<mgrwt>
<rscale>  1 0.14999210E+03</rscale>
<asrwt>0</asrwt>
<pdfrwt beam="1">  1       21 0.39587796E+00 0.14999210E+03</pdfrwt>
<pdfrwt beam="2">  1       -4 0.86216895E-03 0.14999210E+03</pdfrwt>
<totfact> 0.14805154E+03</totfact>
</mgrwt>
</event>
<event>
 6    4  0.6358868E-003  0.1294431E+03  0.7818608E-02  0.1228284E+00
         21   -1    0    0  501  502  0.00000000000E+00  0.00000000000E+00  0.20979139837E+03  0.20979139837E+03  0.00000000000E+00 0. -1.
          4   -1    0    0  502    0 -0.00000000000E+00 -0.00000000000E+00 -0.43689155962E+02  0.43707610879E+02  0.12700000000E+01 0. -1.
         25    2    1    2    0    0  0.31646235489E+02  0.11234864018E+02  0.60888366925E+02  0.14304866346E+03  0.12501128150E+03 0.  0.
    9000005    1    3    3    0    0  0.60184708966E+02  0.26923148188E+02  0.81240338110E+02  0.10463291852E+03  0.10000000000E+01 0.  0.
    9000005    1    3    3    0    0 -0.28538473476E+02 -0.15688284169E+02 -0.20351971184E+02  0.38415744944E+02  0.10000000000E+01 0.  0.
          4    1    1    2  501    0 -0.31646235489E+02 -0.11234864018E+02  0.10521387548E+03  0.11045034578E+03  0.12700000000E+01 0.  1.
<mgrwt>
<rscale>  1 0.12944314E+03</rscale>
<asrwt>0</asrwt>
<pdfrwt beam="1">  1       21 0.32275599E-01 0.12944314E+03</pdfrwt>
<pdfrwt beam="2">  1        4 0.67231240E-02 0.12944314E+03</pdfrwt>
<totfact> 0.54957565E+04</totfact>
</mgrwt>
</event>
<event>
 6    4  0.6358868E-003  0.1356815E+03  0.7818608E-02  0.1219261E+00
         21   -1    0    0  501  502  0.00000000000E+00  0.00000000000E+00  0.26952492044E+02  0.26952492044E+02  0.00000000000E+00 0.  1.
         -4   -1    0    0    0  501 -0.00000000000E+00 -0.00000000000E+00 -0.37997985508E+03  0.37998197742E+03  0.12700000000E+01 0.  1.
         25    2    1    2    0    0  0.11446687226E+02  0.51506496785E+02 -0.31153415982E+03  0.33979845325E+03  0.12500204094E+03 0.  0.
    9000005    1    3    3    0    0  0.62570439032E+02 -0.67012450223E+00 -0.14808081370E+03  0.16076204867E+03  0.10000000000E+01 0.  0.
    9000005    1    3    3    0    0 -0.51123751807E+02  0.52176621287E+02 -0.16345334612E+03  0.17903640458E+03  0.10000000000E+01 0.  0.
         -4    1    1    2    0  502 -0.11446687226E+02 -0.51506496785E+02 -0.41493203214E+02  0.67136016209E+02  0.12700000000E+01 0. -1.
<mgrwt>
<rscale>  1 0.13568145E+03</rscale>
<asrwt>0</asrwt>
<pdfrwt beam="1">  1       21 0.41465377E-02 0.13568145E+03</pdfrwt>
<pdfrwt beam="2">  1       -4 0.58460897E-01 0.13568145E+03</pdfrwt>
<totfact> 0.41813833E+04</totfact>
</mgrwt>
</event>
<event>
 6    4  0.6358868E-003  0.1297691E+03  0.7818608E-02  0.1227799E+00
          4   -1    0    0  502    0 -0.00000000000E+00  0.00000000000E+00  0.92699007506E+03  0.92699094503E+03  0.12700000000E+01 0.  1.
         21   -1    0    0  501  502  0.00000000000E+00 -0.00000000000E+00 -0.85767033094E+01  0.85767033094E+01  0.00000000000E+00 0.  1.
         25    2    1    2    0    0  0.88970486396E+01 -0.33712683987E+02  0.83689967943E+03  0.84690087061E+03  0.12499723468E+03 0.  0.
    9000005    1    3    3    0    0 -0.45474733876E+02 -0.53825650649E+02  0.39842081529E+03  0.40460511384E+03  0.10000000000E+01 0.  0.
    9000005    1    3    3    0    0  0.54371782516E+02  0.20112966662E+02  0.43847886413E+03  0.44229575677E+03  0.10000000000E+01 0.  0.
          4    1    1    2  501    0 -0.88970486396E+01  0.33712683987E+02  0.81513692328E+02  0.88666777730E+02  0.12700000000E+01 0. -1.
<mgrwt>
<rscale>  1 0.12976907E+03</rscale>
<asrwt>0</asrwt>
<pdfrwt beam="2">  1       21 0.13194936E-02 0.12976907E+03</pdfrwt>
<pdfrwt beam="1">  1        4 0.14262108E+00 0.12976907E+03</pdfrwt>
<totfact> 0.35117126E+04</totfact>
</mgrwt>
</event>
<event>
 6    4  0.6358868E-003  0.1291138E+03  0.7818608E-02  0.1228777E+00
         21   -1    0    0  501  502  0.00000000000E+00  0.00000000000E+00  0.89031205707E+02  0.89031205707E+02  0.00000000000E+00 0. -1.
         -4   -1    0    0    0  501 -0.00000000000E+00 -0.00000000000E+00 -0.14447011906E+03  0.14447570108E+03  0.12700000000E+01 0.  1.
         25    2    1    2    0    0 -0.16341223637E+02 -0.27905207116E+02 -0.11029910039E+03  0.16981240784E+03  0.12499850453E+03 0.  0.
    9000005    1    3    3    0    0 -0.35035730475E+02  0.25841646836E+02  0.23419064904E+01  0.43609375679E+02  0.10000000000E+01 0.  0.
    9000005    1    3    3    0    0  0.18694506837E+02 -0.53746853953E+02 -0.11264100688E+03  0.12620303216E+03  0.10000000000E+01 0.  0.
         -4    1    1    2    0  502  0.16341223637E+02  0.27905207116E+02  0.54860187035E+02  0.63694498944E+02  0.12700000000E+01 0. -1.
<mgrwt>
<rscale>  1 0.12911376E+03</rscale>
<asrwt>0</asrwt>
<pdfrwt beam="1">  1       21 0.13697109E-01 0.12911376E+03</pdfrwt>
<pdfrwt beam="2">  1       -4 0.22227298E-01 0.12911376E+03</pdfrwt>
<totfact> 0.34759909E+04</totfact>
</mgrwt>
</event>
<event>
 6    4  0.6358868E-003  0.1293318E+03  0.7818608E-02  0.1228451E+00
         -4   -1    0    0    0  501 -0.00000000000E+00  0.00000000000E+00  0.11410061479E+02  0.11480522765E+02  0.12700000000E+01 0.  1.
         21   -1    0    0  501  502  0.00000000000E+00 -0.00000000000E+00 -0.62981005574E+03  0.62981005574E+03  0.00000000000E+00 0.  1.
         25    2    1    2    0    0  0.23761948881E+02  0.23151991018E+02 -0.40019580462E+03  0.42057509156E+03  0.12500432272E+03 0.  0.
    9000005    1    3    3    0    0  0.51699796539E+02  0.25897696418E+02 -0.77708855906E+02  0.96867052852E+02  0.10000000000E+01 0.  0.
    9000005    1    3    3    0    0 -0.27937847658E+02 -0.27457054003E+01 -0.32248694872E+03  0.32370803871E+03  0.10000000000E+01 0.  0.
         -4    1    1    2    0  502 -0.23761948881E+02 -0.23151991018E+02 -0.21820418964E+03  0.22071548695E+03  0.12700000000E+01 0. -1.
<mgrwt>
<rscale>  1 0.12933184E+03</rscale>
<asrwt>0</asrwt>
<pdfrwt beam="2">  1       21 0.96893857E-01 0.12933184E+03</pdfrwt>
<pdfrwt beam="1">  1       -4 0.17609126E-02 0.12933184E+03</pdfrwt>
<totfact> 0.44697651E+04</totfact>
</mgrwt>
</event>
<event>
 6    4  0.6358868E-003  0.1303524E+03  0.7818608E-02  0.1226934E+00
          4   -1    0    0  502    0 -0.00000000000E+00  0.00000000000E+00  0.26872984979E+02  0.26902977934E+02  0.12700000000E+01 0.  1.
         21   -1    0    0  501  502  0.00000000000E+00 -0.00000000000E+00 -0.47095556670E+03  0.47095556670E+03  0.00000000000E+00 0. -1.
         25    2    1    2    0    0  0.35289931398E+02  0.11153112982E+02 -0.13908524606E+03  0.19062124409E+03  0.12498792677E+03 0.  0.
    9000005    1    3    3    0    0  0.38716515761E+02 -0.94001778134E+01 -0.15770279092E+03  0.16266069654E+03  0.10000000000E+01 0.  0.
    9000005    1    3    3    0    0 -0.34265843629E+01  0.20553290795E+02  0.18617544854E+02  0.27960547550E+02  0.10000000000E+01 0.  0.
          4    1    1    2  501    0 -0.35289931398E+02 -0.11153112982E+02 -0.30499733565E+03  0.30723730054E+03  0.12700000000E+01 0. -1.
<mgrwt>
<rscale>  1 0.13035242E+03</rscale>
<asrwt>0</asrwt>
<pdfrwt beam="2">  1       21 0.72454703E-01 0.13035242E+03</pdfrwt>
<pdfrwt beam="1">  1        4 0.41367442E-02 0.13035242E+03</pdfrwt>
<totfact> 0.22761006E+04</totfact>
</mgrwt>
</event>
<event>
 6    4  0.6358868E-003  0.1273455E+03  0.7818608E-02  0.1231449E+00
         -4   -1    0    0    0  501 -0.00000000000E+00  0.00000000000E+00  0.45521212848E+02  0.45538925319E+02  0.12700000000E+01 0. -1.
         21   -1    0    0  501  502  0.00000000000E+00 -0.00000000000E+00 -0.16874545083E+03  0.16874545083E+03  0.00000000000E+00 0.  1.
         25    2    1    2    0    0 -0.23274938257E+02 -0.68697373234E+01 -0.49447757522E+02  0.13660878146E+03  0.12501184906E+03 0.  0.
    9000005    1    3    3    0    0 -0.14889123482E+02  0.24060275639E+02 -0.84492667924E+02  0.89110009510E+02  0.10000000000E+01 0.  0.
    9000005    1    3    3    0    0 -0.83858147749E+01 -0.30930012962E+02  0.35044910403E+02  0.47498771946E+02  0.10000000000E+01 0.  0.
         -4    1    1    2    0  502  0.23274938257E+02  0.68697373234E+01 -0.73776480462E+02  0.77675594694E+02  0.12700000000E+01 0.  1.
<mgrwt>
<rscale>  1 0.12734551E+03</rscale>
<asrwt>0</asrwt>
<pdfrwt beam="2">  1       21 0.25960839E-01 0.12734551E+03</pdfrwt>
<pdfrwt beam="1">  1       -4 0.70049935E-02 0.12734551E+03</pdfrwt>
<totfact> 0.77905496E+04</totfact>
</mgrwt>
</event>
<event>
 6    4  0.6358868E-003  0.1327472E+03  0.7818608E-02  0.1223435E+00
         21   -1    0    0  501  502  0.00000000000E+00  0.00000000000E+00  0.23421262713E+02  0.23421262713E+02  0.00000000000E+00 0. -1.
         -4   -1    0    0    0  501 -0.00000000000E+00 -0.00000000000E+00 -0.33680681543E+03  0.33680920982E+03  0.12700000000E+01 0.  1.
         25    2    1    2    0    0 -0.43002005553E+02  0.12183263744E+02 -0.22725110243E+03  0.26318223286E+03  0.12499687893E+03 0.  0.
    9000005    1    3    3    0    0  0.40943426452E+02  0.24072986749E+02 -0.71414315540E+02  0.85772240991E+02  0.10000000000E+01 0.  0.
    9000005    1    3    3    0    0 -0.83945432005E+02 -0.11889723005E+02 -0.15583678689E+03  0.17740999187E+03  0.10000000000E+01 0.  0.
         -4    1    1    2    0  502  0.43002005553E+02 -0.12183263744E+02 -0.86134450287E+02  0.97048239671E+02  0.12700000000E+01 0. -1.
<mgrwt>
<rscale>  1 0.13274722E+03</rscale>
<asrwt>0</asrwt>
<pdfrwt beam="1">  1       21 0.36032713E-02 0.13274722E+03</pdfrwt>
<pdfrwt beam="2">  1       -4 0.51819264E-01 0.13274722E+03</pdfrwt>
<totfact> 0.67566334E+04</totfact>
</mgrwt>
</event>
<event>
 6    4  0.6358868E-003  0.1289624E+03  0.7818608E-02  0.1229004E+00
         21   -1    0    0  501  502  0.00000000000E+00  0.00000000000E+00  0.86405099354E+02  0.86405099354E+02  0.00000000000E+00 0. -1.
         -4   -1    0    0    0  501 -0.00000000000E+00 -0.00000000000E+00 -0.20124226967E+03  0.20124627699E+03  0.12700000000E+01 0.  1.
         25    2    1    2    0    0  0.19834696646E+02  0.24759752124E+02 -0.17632313865E+03  0.21845168186E+03  0.12499931027E+03 0.  0.
    9000005    1    3    3    0    0  0.46113601005E+02 -0.31321721359E+02 -0.12889942463E+03  0.14044064973E+03  0.10000000000E+01 0.  0.
    9000005    1    3    3    0    0 -0.26278904359E+02  0.56081473483E+02 -0.47423714020E+02  0.78011032129E+02  0.10000000000E+01 0.  0.
         -4    1    1    2    0  502 -0.19834696646E+02 -0.24759752124E+02  0.61485968328E+02  0.69199694490E+02  0.12700000000E+01 0. -1.
<mgrwt>
<rscale>  1 0.12896235E+03</rscale>
<asrwt>0</asrwt>
<pdfrwt beam="1">  1       21 0.13293092E-01 0.12896235E+03</pdfrwt>
<pdfrwt beam="2">  1       -4 0.30961376E-01 0.12896235E+03</pdfrwt>
<totfact> 0.19821489E+04</totfact>
</mgrwt>
</event>
<event>
 6    4  0.6358868E-003  0.1897560E+03  0.7818608E-02  0.1158682E+00
         -4   -1    0    0    0  501 -0.00000000000E+00  0.00000000000E+00  0.13617764256E+03  0.13618356448E+03  0.12700000000E+01 0.  1.
         21   -1    0    0  501  502  0.00000000000E+00 -0.00000000000E+00 -0.37885311567E+03  0.37885311567E+03  0.00000000000E+00 0. -1.
         25    2    1    2    0    0  0.14245919764E+03 -0.94149089181E+01  0.43985954320E+02  0.19478732359E+03  0.12499629496E+03 0.  0.
    9000005    1    3    3    0    0 -0.46492682204E+01  0.28187764069E+02 -0.14522266209E+02  0.32063405216E+02  0.10000000000E+01 0.  0.
    9000005    1    3    3    0    0  0.14710846586E+03 -0.37602672987E+02  0.58508220529E+02  0.16272391838E+03  0.10000000000E+01 0.  0.
         -4    1    1    2    0  502 -0.14245919764E+03  0.94149089181E+01 -0.28666142743E+03  0.32024935656E+03  0.12700000000E+01 0. -1.
<mgrwt>
<rscale>  1 0.18975599E+03</rscale>
<asrwt>0</asrwt>
<pdfrwt beam="2">  1       21 0.58285093E-01 0.18975599E+03</pdfrwt>
<pdfrwt beam="1">  1       -4 0.20951026E-01 0.18975599E+03</pdfrwt>
<totfact> 0.24035583E+03</totfact>
</mgrwt>
</event>
<event>
 6    4  0.6358868E-003  0.1268523E+03  0.7818608E-02  0.1232203E+00
         -4   -1    0    0    0  501 -0.00000000000E+00  0.00000000000E+00  0.14917483526E+03  0.14918024123E+03  0.12700000000E+01 0. -1.
         21   -1    0    0  501  502  0.00000000000E+00 -0.00000000000E+00 -0.36958711722E+02  0.36958711722E+02  0.00000000000E+00 0. -1.
         25    2    1    2    0    0 -0.59548777038E+01  0.20780902320E+02  0.95414780664E+02  0.15873084299E+03  0.12499677466E+03 0.  0.
    9000005    1    3    3    0    0 -0.79923936977E+01  0.39125380449E+02 -0.18003978699E+02  0.43815716373E+02  0.10000000000E+01 0.  0.
    9000005    1    3    3    0    0  0.20375159939E+01 -0.18344478129E+02  0.11341875936E+03  0.11491512661E+03  0.10000000000E+01 0.  0.
         -4    1    1    2    0  502  0.59548777038E+01 -0.20780902320E+02  0.16801342873E+02  0.27408109969E+02  0.12700000000E+01 0.  1.
<mgrwt>
<rscale>  1 0.12685228E+03</rscale>
<asrwt>0</asrwt>
<pdfrwt beam="2">  1       21 0.56859558E-02 0.12685228E+03</pdfrwt>
<pdfrwt beam="1">  1       -4 0.22952069E-01 0.12685228E+03</pdfrwt>
<totfact> 0.15052164E+05</totfact>
</mgrwt>
</event>
<event>
 6    4  0.6358868E-003  0.1270560E+03  0.7818608E-02  0.1231891E+00
         -4   -1    0    0    0  501 -0.00000000000E+00  0.00000000000E+00  0.11698326363E+02  0.11767061642E+02  0.12700000000E+01 0.  1.
         21   -1    0    0  501  502  0.00000000000E+00 -0.00000000000E+00 -0.50678707274E+03  0.50678707274E+03  0.00000000000E+00 0. -1.
         25    2    1    2    0    0  0.56660085894E+01  0.22041899055E+02 -0.36495874433E+03  0.38644289603E+03  0.12500111143E+03 0.  0.
    9000005    1    3    3    0    0 -0.44413706332E+02 -0.22747826924E+02 -0.23386412108E+03  0.23913065063E+03  0.10000000000E+01 0.  0.
    9000005    1    3    3    0    0  0.50079714921E+02  0.44789725979E+02 -0.13109462325E+03  0.14731224540E+03  0.10000000000E+01 0.  0.
         -4    1    1    2    0  502 -0.56660085894E+01 -0.22041899055E+02 -0.13013000204E+03  0.13211123835E+03  0.12700000000E+01 0. -1.
<mgrwt>
<rscale>  1 0.12705600E+03</rscale>
<asrwt>0</asrwt>
<pdfrwt beam="2">  1       21 0.77967247E-01 0.12705600E+03</pdfrwt>
<pdfrwt beam="1">  1       -4 0.18051521E-02 0.12705600E+03</pdfrwt>
<totfact> 0.70357244E+04</totfact>
</mgrwt>
</event>
<event>
 6    4  0.6358868E-003  0.1319362E+03  0.7818608E-02  0.1224611E+00
         21   -1    0    0  501  502  0.00000000000E+00  0.00000000000E+00  0.44879593819E+03  0.44879593819E+03  0.00000000000E+00 0.  1.
         -4   -1    0    0    0  501 -0.00000000000E+00 -0.00000000000E+00 -0.50993541407E+02  0.51009353704E+02  0.12700000000E+01 0. -1.
         25    2    1    2    0    0  0.34087417988E+00 -0.42213689786E+02  0.37675160285E+02  0.13720999246E+03  0.12500021012E+03 0.  0.
    9000005    1    3    3    0    0 -0.55040697225E+02 -0.17176073952E+02  0.48641764635E+02  0.75442144284E+02  0.10000000000E+01 0.  0.
    9000005    1    3    3    0    0  0.55381571405E+02 -0.25037615834E+02 -0.10966604349E+02  0.61767848181E+02  0.10000000000E+01 0.  0.
         -4    1    1    2    0  502 -0.34087417988E+00  0.42213689786E+02  0.36012723650E+03  0.36259529943E+03  0.12700000000E+01 0.  1.
<mgrwt>
<rscale>  1 0.13193621E+03</rscale>
<asrwt>0</asrwt>
<pdfrwt beam="1">  1       21 0.69045526E-01 0.13193621E+03</pdfrwt>
<pdfrwt beam="2">  1       -4 0.78465151E-02 0.13193621E+03</pdfrwt>
<totfact> 0.89743851E+03</totfact>
</mgrwt>
</event>
<event>
 6    4  0.6358868E-003  0.1266033E+03  0.7818608E-02  0.1232585E+00
         21   -1    0    0  501  502  0.00000000000E+00  0.00000000000E+00  0.45121052072E+03  0.45121052072E+03  0.00000000000E+00 0. -1.
          4   -1    0    0  502    0 -0.00000000000E+00 -0.00000000000E+00 -0.12166987214E+02  0.12233089465E+02  0.12700000000E+01 0. -1.
         25    2    1    2    0    0 -0.18578008677E+02 -0.76280821412E+01  0.35114261148E+03  0.37326869662E+03  0.12500022494E+03 0.  0.
    9000005    1    3    3    0    0 -0.57584752952E+02  0.22974951777E+02  0.27846500277E+03  0.28528513798E+03  0.10000000000E+01 0.  0.
    9000005    1    3    3    0    0  0.39006744275E+02 -0.30603033918E+02  0.72677608709E+02  0.87983558643E+02  0.10000000000E+01 0.  0.
          4    1    1    2  501    0  0.18578008677E+02  0.76280821412E+01  0.87900922020E+02  0.90174913559E+02  0.12700000000E+01 0.  1.
<mgrwt>
<rscale>  1 0.12660326E+03</rscale>
<asrwt>0</asrwt>
<pdfrwt beam="1">  1       21 0.69416990E-01 0.12660326E+03</pdfrwt>
<pdfrwt beam="2">  1        4 0.18770668E-02 0.12660326E+03</pdfrwt>
<totfact> 0.85513829E+04</totfact>
</mgrwt>
</event>
<event>
 6    4  0.6358868E-003  0.1304452E+03  0.7818608E-02  0.1226797E+00
         21   -1    0    0  501  502  0.00000000000E+00  0.00000000000E+00  0.77939001623E+02  0.77939001623E+02  0.00000000000E+00 0.  1.
         -4   -1    0    0    0  501 -0.00000000000E+00 -0.00000000000E+00 -0.19167448761E+03  0.19167869495E+03  0.12700000000E+01 0. -1.
         25    2    1    2    0    0 -0.31843740406E+02  0.19377938697E+02 -0.16240127195E+03  0.20830293542E+03  0.12500564572E+03 0.  0.
    9000005    1    3    3    0    0 -0.32441808573E+01  0.71181744839E+02 -0.88735784089E+02  0.11380863274E+03  0.10000000000E+01 0.  0.
    9000005    1    3    3    0    0 -0.28599559549E+02 -0.51803806143E+02 -0.73665487866E+02  0.94494302684E+02  0.10000000000E+01 0.  0.
         -4    1    1    2    0  502  0.31843740406E+02 -0.19377938697E+02  0.48665785972E+02  0.61314761155E+02  0.12700000000E+01 0.  1.
<mgrwt>
<rscale>  1 0.13044516E+03</rscale>
<asrwt>0</asrwt>
<pdfrwt beam="1">  1       21 0.11990616E-01 0.13044516E+03</pdfrwt>
<pdfrwt beam="2">  1       -4 0.29489502E-01 0.13044516E+03</pdfrwt>
<totfact> 0.26140283E+04</totfact>
</mgrwt>
</event>
<event>
 6    4  0.6358868E-003  0.1275451E+03  0.7818608E-02  0.1231144E+00
          4   -1    0    0  502    0 -0.00000000000E+00  0.00000000000E+00  0.17104896388E+03  0.17105367855E+03  0.12700000000E+01 0. -1.
         21   -1    0    0  501  502  0.00000000000E+00 -0.00000000000E+00 -0.42403001262E+02  0.42403001262E+02  0.00000000000E+00 0. -1.
         25    2    1    2    0    0 -0.18393886552E+02  0.17518368007E+02  0.13652248083E+03  0.18683186584E+03  0.12499011977E+03 0.  0.
    9000005    1    3    3    0    0 -0.14043676632E+02 -0.17553007797E+02  0.14796945219E+03  0.14967061074E+03  0.10000000000E+01 0.  0.
    9000005    1    3    3    0    0 -0.43502099206E+01  0.35071375805E+02 -0.11446971364E+02  0.37161255100E+02  0.10000000000E+01 0.  0.
          4    1    1    2  501    0  0.18393886552E+02 -0.17518368007E+02 -0.78765182076E+01  0.26624813975E+02  0.12700000000E+01 0.  1.
<mgrwt>
<rscale>  1 0.12754512E+03</rscale>
<asrwt>0</asrwt>
<pdfrwt beam="2">  1       21 0.65235387E-02 0.12754512E+03</pdfrwt>
<pdfrwt beam="1">  1        4 0.26317051E-01 0.12754512E+03</pdfrwt>
<totfact> 0.92765920E+04</totfact>
</mgrwt>
</event>
<event>
 6    4  0.6358868E-003  0.1277871E+03  0.7818608E-02  0.1230777E+00
         21   -1    0    0  501  502  0.00000000000E+00  0.00000000000E+00  0.33996825794E+02  0.33996825794E+02  0.00000000000E+00 0. -1.
         -4   -1    0    0    0  501 -0.00000000000E+00 -0.00000000000E+00 -0.20345950372E+03  0.20346346737E+03  0.12700000000E+01 0.  1.
         25    2    1    2    0    0  0.15020071245E+02  0.21746539508E+02 -0.16784120957E+03  0.21095073677E+03  0.12502410644E+03 0.  0.
    9000005    1    3    3    0    0 -0.46211912588E+02  0.28941707203E+02 -0.35842031272E+02  0.65259593062E+02  0.10000000000E+01 0.  0.
    9000005    1    3    3    0    0  0.61231983833E+02 -0.71951676948E+01 -0.13199917830E+03  0.14569114371E+03  0.10000000000E+01 0.  0.
         -4    1    1    2    0  502 -0.15020071245E+02 -0.21746539508E+02 -0.16214683538E+01  0.26509556397E+02  0.12700000000E+01 0. -1.
<mgrwt>
<rscale>  1 0.12778710E+03</rscale>
<asrwt>0</asrwt>
<pdfrwt beam="1">  1       21 0.52302809E-02 0.12778710E+03</pdfrwt>
<pdfrwt beam="2">  1       -4 0.31303592E-01 0.12778710E+03</pdfrwt>
<totfact> 0.97394430E+04</totfact>
</mgrwt>
</event>
<event>
 6    4  0.6358868E-003  0.1290641E+03  0.7818608E-02  0.1228851E+00
          4   -1    0    0  502    0 -0.00000000000E+00  0.00000000000E+00  0.32366094302E+03  0.32366343466E+03  0.12700000000E+01 0.  1.
         21   -1    0    0  501  502  0.00000000000E+00 -0.00000000000E+00 -0.23829304759E+02  0.23829304759E+02  0.00000000000E+00 0. -1.
         25    2    1    2    0    0  0.42397613031E+01 -0.31856290476E+02  0.28333631540E+03  0.31134709798E+03  0.12499899590E+03 0.  0.
    9000005    1    3    3    0    0 -0.55520415557E+02 -0.76878250377E+00  0.81979944028E+02  0.99019284955E+02  0.10000000000E+01 0.  0.
    9000005    1    3    3    0    0  0.59760176861E+02 -0.31087507973E+02  0.20135637138E+03  0.21232781303E+03  0.10000000000E+01 0.  0.
          4    1    1    2  501    0 -0.42397613031E+01  0.31856290476E+02  0.16495322854E+02  0.36145641437E+02  0.12700000000E+01 0. -1.
<mgrwt>
<rscale>  1 0.12906412E+03</rscale>
<asrwt>0</asrwt>
<pdfrwt beam="2">  1       21 0.36660471E-02 0.12906412E+03</pdfrwt>
<pdfrwt beam="1">  1        4 0.49796783E-01 0.12906412E+03</pdfrwt>
<totfact> 0.70938585E+04</totfact>
</mgrwt>
</event>
<event>
 6    4  0.6358868E-003  0.1289911E+03  0.7818608E-02  0.1228961E+00
          4   -1    0    0  502    0 -0.00000000000E+00  0.00000000000E+00  0.35958262850E+02  0.35980683250E+02  0.12700000000E+01 0. -1.
         21   -1    0    0  501  502  0.00000000000E+00 -0.00000000000E+00 -0.18754837655E+03  0.18754837655E+03  0.00000000000E+00 0. -1.
         25    2    1    2    0    0 -0.27773177332E+02  0.15612174263E+02 -0.10143664008E+03  0.16409781229E+03  0.12499444261E+03 0.  0.
    9000005    1    3    3    0    0 -0.58459477529E+02  0.18167908205E+02 -0.33842277001E+01  0.61319135664E+02  0.10000000000E+01 0.  0.
    9000005    1    3    3    0    0  0.30686300196E+02 -0.25557339417E+01 -0.98052412380E+02  0.10277867663E+03  0.10000000000E+01 0.  0.
          4    1    1    2  501    0  0.27773177332E+02 -0.15612174263E+02 -0.50153473624E+02  0.59431247513E+02  0.12700000000E+01 0.  1.
<mgrwt>
<rscale>  1 0.12899109E+03</rscale>
<asrwt>0</asrwt>
<pdfrwt beam="2">  1       21 0.28853597E-01 0.12899109E+03</pdfrwt>
<pdfrwt beam="1">  1        4 0.55340958E-02 0.12899109E+03</pdfrwt>
<totfact> 0.93604236E+04</totfact>
</mgrwt>
</event>
<event>
 6    4  0.6358868E-003  0.1283609E+03  0.7818608E-02  0.1229908E+00
         -4   -1    0    0    0  501 -0.00000000000E+00  0.00000000000E+00  0.36362967525E+03  0.36363189302E+03  0.12700000000E+01 0. -1.
         21   -1    0    0  501  502  0.00000000000E+00 -0.00000000000E+00 -0.30131968492E+02  0.30131968492E+02  0.00000000000E+00 0.  1.
         25    2    1    2    0    0 -0.25484135257E+02  0.14223693298E+02  0.34035660582E+03  0.36375699568E+03  0.12499911271E+03 0.  0.
    9000005    1    3    3    0    0 -0.37941318176E+02 -0.49925937646E+02  0.17891312249E+03  0.18958651923E+03  0.10000000000E+01 0.  0.
    9000005    1    3    3    0    0  0.12457182920E+02  0.64149630945E+02  0.16144348333E+03  0.17417047645E+03  0.10000000000E+01 0.  0.
         -4    1    1    2    0  502  0.25484135257E+02 -0.14223693298E+02 -0.68588990623E+01  0.30006865834E+02  0.12700000000E+01 0.  1.
<mgrwt>
<rscale>  1 0.12836095E+03</rscale>
<asrwt>0</asrwt>
<pdfrwt beam="2">  1       21 0.46356877E-02 0.12836095E+03</pdfrwt>
<pdfrwt beam="1">  1       -4 0.55945253E-01 0.12836095E+03</pdfrwt>
<totfact> 0.37776681E+04</totfact>
</mgrwt>
</event>
<event>
 6    4  0.6358868E-003  0.1283182E+03  0.7818608E-02  0.1229973E+00
         21   -1    0    0  501  502  0.00000000000E+00  0.00000000000E+00  0.12018395843E+04  0.12018395843E+04  0.00000000000E+00 0.  1.
         -4   -1    0    0    0  501 -0.00000000000E+00 -0.00000000000E+00 -0.14176129349E+02  0.14232903545E+02  0.12700000000E+01 0. -1.
         25    2    1    2    0    0  0.20777234108E+02 -0.20227339060E+02  0.28063692805E+03  0.30858167682E+03  0.12499890871E+03 0.  0.
    9000005    1    3    3    0    0  0.11052578260E+02 -0.40338458540E+02  0.28301838042E+03  0.28609396076E+03  0.10000000000E+01 0.  0.
    9000005    1    3    3    0    0  0.97246558487E+01  0.20111119480E+02 -0.23814523742E+01  0.22487716058E+02  0.10000000000E+01 0.  0.
         -4    1    1    2    0  502 -0.20777234108E+02  0.20227339060E+02  0.90702652695E+03  0.90749081108E+03  0.12700000000E+01 0.  1.
<mgrwt>
<rscale>  1 0.12831822E+03</rscale>
<asrwt>0</asrwt>
<pdfrwt beam="1">  1       21 0.18489832E+00 0.12831822E+03</pdfrwt>
<pdfrwt beam="2">  1       -4 0.21853628E-02 0.12831822E+03</pdfrwt>
<totfact> 0.62692548E+03</totfact>
</mgrwt>
</event>
<event>
 6    4  0.6358868E-003  0.1423099E+03  0.7818608E-02  0.1210254E+00
         -4   -1    0    0    0  501 -0.00000000000E+00  0.00000000000E+00  0.18567919384E+03  0.18568353703E+03  0.12700000000E+01 0.  1.
         21   -1    0    0  501  502  0.00000000000E+00 -0.00000000000E+00 -0.90564462575E+02  0.90564462575E+02  0.00000000000E+00 0. -1.
         25    2    1    2    0    0 -0.48393283473E+02 -0.47823198922E+02  0.13601350285E+03  0.19685473379E+03  0.12499257985E+03 0.  0.
    9000005    1    3    3    0    0 -0.28306844966E+02 -0.74908305656E+02  0.14158274338E+03  0.16266285670E+03  0.10000000000E+01 0.  0.
    9000005    1    3    3    0    0 -0.20086438506E+02  0.27085106734E+02 -0.55692405295E+01  0.34191877087E+02  0.10000000000E+01 0.  0.
         -4    1    1    2    0  502  0.48393283473E+02  0.47823198922E+02 -0.40898771584E+02  0.79393265819E+02  0.12700000000E+01 0. -1.
<mgrwt>
<rscale>  1 0.14230992E+03</rscale>
<asrwt>0</asrwt>
<pdfrwt beam="2">  1       21 0.13932994E-01 0.14230992E+03</pdfrwt>
<pdfrwt beam="1">  1       -4 0.28567049E-01 0.14230992E+03</pdfrwt>
<totfact> 0.21421130E+04</totfact>
</mgrwt>
</event>
<event>
 6    4  0.6358868E-003  0.1282868E+03  0.7818608E-02  0.1230020E+00
         -4   -1    0    0    0  501 -0.00000000000E+00  0.00000000000E+00  0.10668613646E+03  0.10669369528E+03  0.12700000000E+01 0. -1.
         21   -1    0    0  501  502  0.00000000000E+00 -0.00000000000E+00 -0.70791355484E+02  0.70791355484E+02  0.00000000000E+00 0. -1.
         25    2    1    2    0    0 -0.25738344131E+02  0.13047253500E+02  0.58316469040E+02  0.14091951811E+03  0.12499922736E+03 0.  0.
    9000005    1    3    3    0    0  0.22326068251E+02  0.37977876449E+02 -0.17782540519E+02  0.47518324575E+02  0.10000000000E+01 0.  0.
    9000005    1    3    3    0    0 -0.48064412382E+02 -0.24930622949E+02  0.76099009558E+02  0.93401193536E+02  0.10000000000E+01 0.  0.
         -4    1    1    2    0  502  0.25738344131E+02 -0.13047253500E+02 -0.22421688065E+02  0.36565532653E+02  0.12700000000E+01 0.  1.
<mgrwt>
<rscale>  1 0.12828679E+03</rscale>
<asrwt>0</asrwt>
<pdfrwt beam="2">  1       21 0.10890978E-01 0.12828679E+03</pdfrwt>
<pdfrwt beam="1">  1       -4 0.16414709E-01 0.12828679E+03</pdfrwt>
<totfact> 0.89695182E+04</totfact>
</mgrwt>
</event>
<event>
 6    4  0.6358868E-003  0.1329925E+03  0.7818608E-02  0.1223082E+00
         21   -1    0    0  501  502  0.00000000000E+00  0.00000000000E+00  0.72991083721E+01  0.72991083721E+01  0.00000000000E+00 0.  1.
         -4   -1    0    0    0  501 -0.00000000000E+00 -0.00000000000E+00 -0.10925829443E+04  0.10925836825E+04  0.12700000000E+01 0.  1.
         25    2    1    2    0    0  0.85646094170E+01  0.44584765070E+02 -0.83101774059E+03  0.84159222970E+03  0.12500336834E+03 0.  0.
    9000005    1    3    3    0    0  0.42421641100E+01  0.86459200484E+02 -0.65010778963E+03  0.65584626815E+03  0.10000000000E+01 0.  0.
    9000005    1    3    3    0    0  0.43224453071E+01 -0.41874435414E+02 -0.18090995096E+03  0.18574596155E+03  0.10000000000E+01 0.  0.
         -4    1    1    2    0  502 -0.85646094170E+01 -0.44584765070E+02 -0.25426609538E+03  0.25829056114E+03  0.12700000000E+01 0. -1.
<mgrwt>
<rscale>  1 0.13299247E+03</rscale>
<asrwt>0</asrwt>
<pdfrwt beam="1">  1       21 0.11229396E-02 0.13299247E+03</pdfrwt>
<pdfrwt beam="2">  1       -4 0.16809827E+00 0.13299247E+03</pdfrwt>
<totfact> 0.29798412E+04</totfact>
</mgrwt>
</event>
<event>
 6    4  0.6358868E-003  0.1282459E+03  0.7818608E-02  0.1230082E+00
         -4   -1    0    0    0  501 -0.00000000000E+00  0.00000000000E+00  0.13230897039E+03  0.13231506546E+03  0.12700000000E+01 0.  1.
         21   -1    0    0  501  502  0.00000000000E+00 -0.00000000000E+00 -0.70886695952E+02  0.70886695952E+02  0.00000000000E+00 0. -1.
         25    2    1    2    0    0 -0.20013942898E+02  0.20556050202E+02  0.94570088728E+02  0.15934404142E+03  0.12499565090E+03 0.  0.
    9000005    1    3    3    0    0  0.42001263436E+02 -0.58885675815E+00 -0.26511692362E+01  0.42100850120E+02  0.10000000000E+01 0.  0.
    9000005    1    3    3    0    0 -0.62015206334E+02  0.21144906960E+02  0.97221257964E+02  0.11724319130E+03  0.10000000000E+01 0.  0.
         -4    1    1    2    0  502  0.20013942898E+02 -0.20556050202E+02 -0.33147814287E+02  0.43857719984E+02  0.12700000000E+01 0. -1.
<mgrwt>
<rscale>  1 0.12824594E+03</rscale>
<asrwt>0</asrwt>
<pdfrwt beam="2">  1       21 0.10905646E-01 0.12824594E+03</pdfrwt>
<pdfrwt beam="1">  1       -4 0.20356570E-01 0.12824594E+03</pdfrwt>
<totfact> 0.61009782E+04</totfact>
</mgrwt>
</event>
<event>
 6    4  0.6358868E-003  0.1290877E+03  0.7818608E-02  0.1228816E+00
         -4   -1    0    0    0  501 -0.00000000000E+00  0.00000000000E+00  0.11481588888E+02  0.11551613887E+02  0.12700000000E+01 0. -1.
         21   -1    0    0  501  502  0.00000000000E+00 -0.00000000000E+00 -0.56506154941E+03  0.56506154941E+03  0.00000000000E+00 0. -1.
         25    2    1    2    0    0 -0.16271063825E+02  0.27808403080E+02 -0.44002566083E+03  0.45856975315E+03  0.12500232605E+03 0.  0.
    9000005    1    3    3    0    0 -0.63245162098E+01  0.77327420617E+02 -0.29334649695E+03  0.30343483116E+03  0.10000000000E+01 0.  0.
    9000005    1    3    3    0    0 -0.99465476153E+01 -0.49519017536E+02 -0.14667916388E+03  0.15513492200E+03  0.10000000000E+01 0.  0.
         -4    1    1    2    0  502  0.16271063825E+02 -0.27808403080E+02 -0.11355429969E+03  0.11804341014E+03  0.12700000000E+01 0.  1.
<mgrwt>
<rscale>  1 0.12908771E+03</rscale>
<asrwt>0</asrwt>
<pdfrwt beam="2">  1       21 0.86932537E-01 0.12908771E+03</pdfrwt>
<pdfrwt beam="1">  1       -4 0.17718948E-02 0.12908771E+03</pdfrwt>
<totfact> 0.56786271E+04</totfact>
</mgrwt>
</event>
<event>
 6    4  0.6358868E-003  0.1373369E+03  0.7818608E-02  0.1216958E+00
          4   -1    0    0  502    0 -0.00000000000E+00  0.00000000000E+00  0.89293125149E+03  0.89293215464E+03  0.12700000000E+01 0.  1.
         21   -1    0    0  501  502  0.00000000000E+00 -0.00000000000E+00 -0.18590508402E+02  0.18590508402E+02  0.00000000000E+00 0. -1.
         25    2    1    2    0    0  0.39069903428E+02 -0.41348532323E+02  0.82456031735E+03  0.83591934191E+03  0.12500108300E+03 0.  0.
    9000005    1    3    3    0    0 -0.43325194659E+02  0.15964885808E+01  0.21654228806E+03  0.22084198828E+03  0.10000000000E+01 0.  0.
    9000005    1    3    3    0    0  0.82395098086E+02 -0.42945020904E+02  0.60801802929E+03  0.61507735363E+03  0.10000000000E+01 0.  0.
          4    1    1    2  501    0 -0.39069903428E+02  0.41348532323E+02  0.49780425733E+02  0.75603321126E+02  0.12700000000E+01 0. -1.
<mgrwt>
<rscale>  1 0.13733692E+03</rscale>
<asrwt>0</asrwt>
<pdfrwt beam="2">  1       21 0.28600789E-02 0.13733692E+03</pdfrwt>
<pdfrwt beam="1">  1        4 0.13737741E+00 0.13733692E+03</pdfrwt>
<totfact> 0.11134275E+04</totfact>
</mgrwt>
</event>
<event>
 6    4  0.6358868E-003  0.1282331E+03  0.7818608E-02  0.1230101E+00
         -4   -1    0    0    0  501 -0.00000000000E+00  0.00000000000E+00  0.91614416980E+02  0.91623219211E+02  0.12700000000E+01 0.  1.
         21   -1    0    0  501  502  0.00000000000E+00 -0.00000000000E+00 -0.67367201391E+02  0.67367201391E+02  0.00000000000E+00 0.  1.
         25    2    1    2    0    0 -0.79239183128E+01 -0.27510511357E+02  0.16394725092E+02  0.12927693505E+03  0.12499648879E+03 0.  0.
    9000005    1    3    3    0    0  0.38909072596E+02 -0.11835163093E+02 -0.38092471907E+02  0.55731709392E+02  0.10000000000E+01 0.  0.
    9000005    1    3    3    0    0 -0.46832990909E+02 -0.15675348264E+02  0.54487196999E+02  0.73545225661E+02  0.10000000000E+01 0.  0.
         -4    1    1    2    0  502  0.79239183128E+01  0.27510511357E+02  0.78524904970E+01  0.29713485550E+02  0.12700000000E+01 0. -1.
<mgrwt>
<rscale>  1 0.12823314E+03</rscale>
<asrwt>0</asrwt>
<pdfrwt beam="2">  1       21 0.10364185E-01 0.12823314E+03</pdfrwt>
<pdfrwt beam="1">  1       -4 0.14096124E-01 0.12823314E+03</pdfrwt>
<totfact> 0.12765931E+05</totfact>
</mgrwt>
</event>
<event>
 6    4  0.6358868E-003  0.1352079E+03  0.7818608E-02  0.1219927E+00
         21   -1    0    0  501  502  0.00000000000E+00  0.00000000000E+00  0.35418855941E+02  0.35418855941E+02  0.00000000000E+00 0. -1.
          4   -1    0    0  502    0 -0.00000000000E+00 -0.00000000000E+00 -0.64762686519E+03  0.64762811043E+03  0.12700000000E+01 0.  1.
         25    2    1    2    0    0  0.41225499873E+02  0.30686523552E+02 -0.61678916822E+03  0.63143490881E+03  0.12505983154E+03 0.  0.
    9000005    1    3    3    0    0  0.19864022503E+02 -0.45327817227E+02 -0.34063319906E+03  0.34421093345E+03  0.10000000000E+01 0.  0.
    9000005    1    3    3    0    0  0.21361477370E+02  0.76014340779E+02 -0.27615596916E+03  0.28722397536E+03  0.10000000000E+01 0.  0.
          4    1    1    2  501    0 -0.41225499873E+02 -0.30686523552E+02  0.45811589735E+01  0.51612057555E+02  0.12700000000E+01 0. -1.
<mgrwt>
<rscale>  1 0.13520786E+03</rscale>
<asrwt>0</asrwt>
<pdfrwt beam="1">  1       21 0.54490551E-02 0.13520786E+03</pdfrwt>
<pdfrwt beam="2">  1        4 0.99636744E-01 0.13520786E+03</pdfrwt>
<totfact> 0.82077467E+03</totfact>
</mgrwt>
</event>
<event>
 6    4  0.6358868E-003  0.1297576E+03  0.7818608E-02  0.1227816E+00
         21   -1    0    0  501  502  0.00000000000E+00  0.00000000000E+00  0.71095500931E+02  0.71095500931E+02  0.00000000000E+00 0.  1.
          4   -1    0    0  502    0 -0.00000000000E+00 -0.00000000000E+00 -0.38891756559E+03  0.38891963916E+03  0.12700000000E+01 0. -1.
         25    2    1    2    0    0 -0.25533056161E+02 -0.23695544676E+02 -0.37290161097E+03  0.39483243444E+03  0.12499449601E+03 0.  0.
    9000005    1    3    3    0    0  0.24771961173E+00  0.50082049937E+02 -0.17587339489E+03  0.18286805112E+03  0.10000000000E+01 0.  0.
    9000005    1    3    3    0    0 -0.25780775773E+02 -0.73777594613E+02 -0.19702821608E+03  0.21196438332E+03  0.10000000000E+01 0.  0.
          4    1    1    2  501    0  0.25533056161E+02  0.23695544676E+02  0.55079546306E+02  0.65182705649E+02  0.12700000000E+01 0.  1.
<mgrwt>
<rscale>  1 0.12975762E+03</rscale>
<asrwt>0</asrwt>
<pdfrwt beam="1">  1       21 0.10937769E-01 0.12975762E+03</pdfrwt>
<pdfrwt beam="2">  1        4 0.59834504E-01 0.12975762E+03</pdfrwt>
<totfact> 0.75505978E+03</totfact>
</mgrwt>
</event>
<event>
 6    4  0.6358868E-003  0.1269126E+03  0.7818608E-02  0.1232110E+00
         21   -1    0    0  501  502  0.00000000000E+00  0.00000000000E+00  0.57475299413E+01  0.57475299413E+01  0.00000000000E+00 0.  1.
         -4   -1    0    0    0  501 -0.00000000000E+00 -0.00000000000E+00 -0.10150184098E+04  0.10150192043E+04  0.12700000000E+01 0.  1.
         25    2    1    2    0    0 -0.14132402672E+02 -0.16810281716E+02 -0.92526411991E+03  0.93392746323E+03  0.12499801836E+03 0.  0.
    9000005    1    3    3    0    0 -0.31943129013E+02 -0.20876071100E+02 -0.81838887034E+02  0.90303805383E+02  0.10000000000E+01 0.  0.
    9000005    1    3    3    0    0  0.17810726341E+02  0.40657893848E+01 -0.84342523288E+03  0.84362365784E+03  0.10000000000E+01 0.  0.
         -4    1    1    2    0  502  0.14132402672E+02  0.16810281716E+02 -0.84006759918E+02  0.86839271005E+02  0.12700000000E+01 0. -1.
<mgrwt>
<rscale>  1 0.12691263E+03</rscale>
<asrwt>0</asrwt>
<pdfrwt beam="1">  1       21 0.88423634E-03 0.12691263E+03</pdfrwt>
<pdfrwt beam="2">  1       -4 0.15616736E+00 0.12691263E+03</pdfrwt>
<totfact> 0.52338573E+04</totfact>
</mgrwt>
</event>
<event>
 6    4  0.6358868E-003  0.2892791E+03  0.7818608E-02  0.1090726E+00
         -4   -1    0    0    0  501 -0.00000000000E+00  0.00000000000E+00  0.22464746427E+03  0.22465105408E+03  0.12700000000E+01 0.  1.
         21   -1    0    0  501  502  0.00000000000E+00 -0.00000000000E+00 -0.57751308267E+03  0.57751308267E+03  0.00000000000E+00 0. -1.
         25    2    1    2    0    0  0.25833517314E+03 -0.36330408867E+02  0.76979785668E+02  0.29934643162E+03  0.12500175371E+03 0.  0.
    9000005    1    3    3    0    0  0.15847502443E+03 -0.61260267997E+02  0.95286030661E+02  0.19480138974E+03  0.10000000000E+01 0.  0.
    9000005    1    3    3    0    0  0.99860148712E+02  0.24929859130E+02 -0.18306244993E+02  0.10454504189E+03  0.10000000000E+01 0.  0.
         -4    1    1    2    0  502 -0.25833517314E+03  0.36330408867E+02 -0.42984540407E+03  0.50281770513E+03  0.12700000000E+01 0. -1.
<mgrwt>
<rscale>  1 0.28927910E+03</rscale>
<asrwt>0</asrwt>
<pdfrwt beam="2">  1       21 0.88848166E-01 0.28927910E+03</pdfrwt>
<pdfrwt beam="1">  1       -4 0.34561532E-01 0.28927910E+03</pdfrwt>
<totfact> 0.36381114E+02</totfact>
</mgrwt>
</event>
<event>
 6    4  0.6358868E-003  0.1273840E+03  0.7818608E-02  0.1231390E+00
         -4   -1    0    0    0  501 -0.00000000000E+00  0.00000000000E+00  0.51162059286E+03  0.51162216912E+03  0.12700000000E+01 0.  1.
         21   -1    0    0  501  502  0.00000000000E+00 -0.00000000000E+00 -0.11684620178E+02  0.11684620178E+02  0.00000000000E+00 0.  1.
         25    2    1    2    0    0  0.71963263812E+01 -0.23449008883E+02  0.44961242910E+03  0.46730933337E+03  0.12500013412E+03 0.  0.
    9000005    1    3    3    0    0 -0.31808336837E+02 -0.58369283652E+02  0.16445576036E+03  0.17738500692E+03  0.10000000000E+01 0.  0.
    9000005    1    3    3    0    0  0.39004663218E+02  0.34920274769E+02  0.28515666874E+03  0.28992432645E+03  0.10000000000E+01 0.  0.
         -4    1    1    2    0  502 -0.71963263812E+01  0.23449008883E+02  0.50323543583E+02  0.55997455922E+02  0.12700000000E+01 0. -1.
<mgrwt>
<rscale>  1 0.12738397E+03</rscale>
<asrwt>0</asrwt>
<pdfrwt beam="2">  1       21 0.17976343E-02 0.12738397E+03</pdfrwt>
<pdfrwt beam="1">  1       -4 0.78716273E-01 0.12738397E+03</pdfrwt>
<totfact> 0.85894844E+04</totfact>
</mgrwt>
</event>
<event>
 6    4  0.6358868E-003  0.1287685E+03  0.7818608E-02  0.1229295E+00
          4   -1    0    0  502    0 -0.00000000000E+00  0.00000000000E+00  0.25629195991E+02  0.25660642766E+02  0.12700000000E+01 0.  1.
         21   -1    0    0  501  502  0.00000000000E+00 -0.00000000000E+00 -0.31788674225E+03  0.31788674225E+03  0.00000000000E+00 0. -1.
         25    2    1    2    0    0  0.26767354076E+02  0.15506332974E+02 -0.14877297759E+03  0.19676056016E+03  0.12499752624E+03 0.  0.
    9000005    1    3    3    0    0 -0.19111378231E+02 -0.47117426676E+02 -0.65236761748E+02  0.82717179339E+02  0.10000000000E+01 0.  0.
    9000005    1    3    3    0    0  0.45878732307E+02  0.62623759650E+02 -0.83536215842E+02  0.11404338082E+03  0.10000000000E+01 0.  0.
          4    1    1    2  501    0 -0.26767354076E+02 -0.15506332974E+02 -0.14348456867E+03  0.14678682486E+03  0.12700000000E+01 0. -1.
<mgrwt>
<rscale>  1 0.12876847E+03</rscale>
<asrwt>0</asrwt>
<pdfrwt beam="2">  1       21 0.48905651E-01 0.12876847E+03</pdfrwt>
<pdfrwt beam="1">  1        4 0.39455675E-02 0.12876847E+03</pdfrwt>
<totfact> 0.56438869E+04</totfact>
</mgrwt>
</event>
<event>
 6    4  0.6358868E-003  0.1287155E+03  0.7818608E-02  0.1229374E+00
         -4   -1    0    0    0  501 -0.00000000000E+00  0.00000000000E+00  0.22956670810E+02  0.22991773196E+02  0.12700000000E+01 0.  1.
         21   -1    0    0  501  502  0.00000000000E+00 -0.00000000000E+00 -0.33850817245E+03  0.33850817245E+03  0.00000000000E+00 0. -1.
         25    2    1    2    0    0  0.30400463881E+02  0.43492761532E+01 -0.17276285613E+03  0.21544066113E+03  0.12499827840E+03 0.  0.
    9000005    1    3    3    0    0  0.79389850397E+02 -0.11671723316E+01 -0.10710245627E+03  0.13332684192E+03  0.10000000000E+01 0.  0.
    9000005    1    3    3    0    0 -0.48989386516E+02  0.55164484848E+01 -0.65660399856E+02  0.82113819204E+02  0.10000000000E+01 0.  0.
         -4    1    1    2    0  502 -0.30400463881E+02 -0.43492761532E+01 -0.14278864551E+03  0.14605928452E+03  0.12700000000E+01 0. -1.
<mgrwt>
<rscale>  1 0.12871548E+03</rscale>
<asrwt>0</asrwt>
<pdfrwt beam="2">  1       21 0.52078176E-01 0.12871548E+03</pdfrwt>
<pdfrwt beam="1">  1       -4 0.35346793E-02 0.12871548E+03</pdfrwt>
<totfact> 0.58976347E+04</totfact>
</mgrwt>
</event>
<event>
 6    4  0.6358868E-003  0.1274449E+03  0.7818608E-02  0.1231297E+00
         21   -1    0    0  501  502  0.00000000000E+00  0.00000000000E+00  0.97321237658E+01  0.97321237658E+01  0.00000000000E+00 0.  1.
          4   -1    0    0  502    0 -0.00000000000E+00 -0.00000000000E+00 -0.76738092800E+03  0.76738197891E+03  0.12700000000E+01 0.  1.
         25    2    1    2    0    0 -0.20421335904E+02 -0.14046469197E+02 -0.72493064448E+03  0.73604799579E+03  0.12501151366E+03 0.  0.
    9000005    1    3    3    0    0 -0.12125405571E+02 -0.34878701252E+02 -0.58158652897E+02  0.68898317600E+02  0.10000000000E+01 0.  0.
    9000005    1    3    3    0    0 -0.82959303329E+01  0.20832232055E+02 -0.66677199158E+03  0.66714967819E+03  0.10000000000E+01 0.  0.
          4    1    1    2  501    0  0.20421335904E+02  0.14046469197E+02 -0.32718159755E+02  0.41066106886E+02  0.12700000000E+01 0. -1.
<mgrwt>
<rscale>  1 0.12744494E+03</rscale>
<asrwt>0</asrwt>
<pdfrwt beam="1">  1       21 0.14972496E-02 0.12744494E+03</pdfrwt>
<pdfrwt beam="2">  1        4 0.11806508E+00 0.12744494E+03</pdfrwt>
<totfact> 0.45484989E+04</totfact>
</mgrwt>
</event>
<event>
 6    4  0.6358868E-003  0.1403251E+03  0.7818608E-02  0.1212892E+00
         21   -1    0    0  501  502  0.00000000000E+00  0.00000000000E+00  0.27375125719E+03  0.27375125719E+03  0.00000000000E+00 0. -1.
          4   -1    0    0  502    0 -0.00000000000E+00 -0.00000000000E+00 -0.10195583670E+03  0.10196374619E+03  0.12700000000E+01 0.  1.
         25    2    1    2    0    0  0.10997418199E+02  0.62810954155E+02 -0.46864016450E+02  0.14794379925E+03  0.12499989012E+03 0.  0.
    9000005    1    3    3    0    0 -0.39695188579E+01 -0.22340144404E+02 -0.56550227629E+02  0.60940687368E+02  0.10000000000E+01 0.  0.
    9000005    1    3    3    0    0  0.14966937057E+02  0.85151098559E+02  0.96862111791E+01  0.87003111885E+02  0.10000000000E+01 0.  0.
          4    1    1    2  501    0 -0.10997418199E+02 -0.62810954155E+02  0.21865943694E+03  0.22777120413E+03  0.12700000000E+01 0. -1.
<mgrwt>
<rscale>  1 0.14032509E+03</rscale>
<asrwt>0</asrwt>
<pdfrwt beam="1">  1       21 0.42115578E-01 0.14032509E+03</pdfrwt>
<pdfrwt beam="2">  1        4 0.15686348E-01 0.14032509E+03</pdfrwt>
<totfact> 0.78045996E+03</totfact>
</mgrwt>
</event>
<event>
 6    4  0.6358868E-003  0.1290214E+03  0.7818608E-02  0.1228915E+00
          4   -1    0    0  502    0 -0.00000000000E+00  0.00000000000E+00  0.29826204261E+03  0.29826474643E+03  0.12700000000E+01 0.  1.
         21   -1    0    0  501  502  0.00000000000E+00 -0.00000000000E+00 -0.70816774214E+02  0.70816774214E+02  0.00000000000E+00 0. -1.
         25    2    1    2    0    0 -0.15154628031E+02  0.28137871140E+02  0.27958153079E+03  0.30791612765E+03  0.12500042706E+03 0.  0.
    9000005    1    3    3    0    0 -0.37424986670E+02 -0.21606838116E+02  0.23064677952E+03  0.23466235741E+03  0.10000000000E+01 0.  0.
    9000005    1    3    3    0    0  0.22270358638E+02  0.49744709256E+02  0.48934751270E+02  0.73253770242E+02  0.10000000000E+01 0.  0.
          4    1    1    2  501    0  0.15154628031E+02 -0.28137871140E+02 -0.52136262397E+02  0.61165392991E+02  0.12700000000E+01 0. -1.
<mgrwt>
<rscale>  1 0.12902135E+03</rscale>
<asrwt>0</asrwt>
<pdfrwt beam="2">  1       21 0.10894889E-01 0.12902135E+03</pdfrwt>
<pdfrwt beam="1">  1        4 0.45887551E-01 0.12902135E+03</pdfrwt>
<totfact> 0.13096296E+04</totfact>
</mgrwt>
</event>
<event>
 6    4  0.6358868E-003  0.1296390E+03  0.7818608E-02  0.1227992E+00
         -4   -1    0    0    0  501 -0.00000000000E+00  0.00000000000E+00  0.38146436333E+02  0.38167571378E+02  0.12700000000E+01 0.  1.
         21   -1    0    0  501  502  0.00000000000E+00 -0.00000000000E+00 -0.26968134587E+03  0.26968134587E+03  0.00000000000E+00 0.  1.
         25    2    1    2    0    0 -0.32475226873E+02  0.11217806092E+02 -0.79719262802E+02  0.15218876490E+03  0.12500311903E+03 0.  0.
    9000005    1    3    3    0    0 -0.44005063433E+02  0.62120507270E+02 -0.57721135436E+02  0.95541260758E+02  0.10000000000E+01 0.  0.
    9000005    1    3    3    0    0  0.11529836560E+02 -0.50902701178E+02 -0.21998127366E+02  0.56647504146E+02  0.10000000000E+01 0.  0.
         -4    1    1    2    0  502  0.32475226873E+02 -0.11217806092E+02 -0.15181564673E+03  0.15566015234E+03  0.12700000000E+01 0. -1.
<mgrwt>
<rscale>  1 0.12963896E+03</rscale>
<asrwt>0</asrwt>
<pdfrwt beam="2">  1       21 0.41489436E-01 0.12963896E+03</pdfrwt>
<pdfrwt beam="1">  1       -4 0.58705385E-02 0.12963896E+03</pdfrwt>
<totfact> 0.41732399E+04</totfact>
</mgrwt>
</event>
<event>
 6    4  0.6358868E-003  0.1273199E+03  0.7818608E-02  0.1231488E+00
          4   -1    0    0  502    0 -0.00000000000E+00  0.00000000000E+00  0.13436948230E+02  0.13496832137E+02  0.12700000000E+01 0. -1.
         21   -1    0    0  501  502  0.00000000000E+00 -0.00000000000E+00 -0.54589757358E+03  0.54589757358E+03  0.00000000000E+00 0. -1.
         25    2    1    2    0    0  0.22567786004E+02 -0.87043627495E+01 -0.30305617488E+03  0.32871478873E+03  0.12500118521E+03 0.  0.
    9000005    1    3    3    0    0  0.99662397626E+01 -0.15530198519E+02 -0.31150205090E+03  0.31204974077E+03  0.10000000000E+01 0.  0.
    9000005    1    3    3    0    0  0.12601546242E+02  0.68258357695E+01  0.84458760232E+01  0.16665047958E+02  0.10000000000E+01 0.  0.
          4    1    1    2  501    0 -0.22567786004E+02  0.87043627495E+01 -0.22940445047E+03  0.23067961698E+03  0.12700000000E+01 0.  1.
<mgrwt>
<rscale>  1 0.12731994E+03</rscale>
<asrwt>0</asrwt>
<pdfrwt beam="2">  1       21 0.83984241E-01 0.12731994E+03</pdfrwt>
<pdfrwt beam="1">  1        4 0.20719429E-02 0.12731994E+03</pdfrwt>
<totfact> 0.48213510E+04</totfact>
</mgrwt>
</event>
<event>
 6    4  0.6358868E-003  0.1284148E+03  0.7818608E-02  0.1229827E+00
         21   -1    0    0  501  502  0.00000000000E+00  0.00000000000E+00  0.12055717825E+02  0.12055717825E+02  0.00000000000E+00 0.  1.
          4   -1    0    0  502    0 -0.00000000000E+00 -0.00000000000E+00 -0.73627768095E+03  0.73627877626E+03  0.12700000000E+01 0. -1.
         25    2    1    2    0    0  0.21906560665E+01 -0.29334169107E+02 -0.69531196484E+03  0.70707078906E+03  0.12500031937E+03 0.  0.
    9000005    1    3    3    0    0 -0.48317167901E+02  0.86798488197E+01 -0.14390295784E+03  0.15204916891E+03  0.10000000000E+01 0.  0.
    9000005    1    3    3    0    0  0.50507823967E+02 -0.38014017926E+02 -0.55140900699E+03  0.55502162015E+03  0.10000000000E+01 0.  0.
          4    1    1    2  501    0 -0.21906560665E+01  0.29334169107E+02 -0.28909998289E+02  0.41263705023E+02  0.12700000000E+01 0.  1.
<mgrwt>
<rscale>  1 0.12841484E+03</rscale>
<asrwt>0</asrwt>
<pdfrwt beam="1">  1       21 0.18547257E-02 0.12841484E+03</pdfrwt>
<pdfrwt beam="2">  1        4 0.11327873E+00 0.12841484E+03</pdfrwt>
<totfact> 0.35636418E+04</totfact>
</mgrwt>
</event>
<event>
 6    4  0.6358868E-003  0.1325227E+03  0.7818608E-02  0.1223760E+00
         21   -1    0    0  501  502  0.00000000000E+00  0.00000000000E+00  0.23862216386E+04  0.23862216386E+04  0.00000000000E+00 0. -1.
          4   -1    0    0  502    0 -0.00000000000E+00 -0.00000000000E+00 -0.40445002701E+01  0.42392077603E+01  0.12700000000E+01 0. -1.
         25    2    1    2    0    0 -0.41303446017E+02  0.15208727725E+02  0.11694927157E+04  0.11769772652E+04  0.12499996231E+03 0.  0.
    9000005    1    3    3    0    0 -0.75186366987E+02  0.18962505123E+01  0.10321880917E+04  0.10349250419E+04  0.10000000000E+01 0.  0.
    9000005    1    3    3    0    0  0.33882920970E+02  0.13312477213E+02  0.13730462399E+03  0.14205222332E+03  0.10000000000E+01 0.  0.
          4    1    1    2  501    0  0.41303446017E+02 -0.15208727725E+02  0.12126844226E+04  0.12134835812E+04  0.12700000000E+01 0.  1.
<mgrwt>
<rscale>  1 0.13252272E+03</rscale>
<asrwt>0</asrwt>
<pdfrwt beam="1">  1       21 0.36710992E+00 0.13252272E+03</pdfrwt>
<pdfrwt beam="2">  1        4 0.63723621E-03 0.13252272E+03</pdfrwt>
<totfact> 0.35040803E+03</totfact>
</mgrwt>
</event>
<event>
 6    4  0.6358868E-003  0.1509177E+03  0.7818608E-02  0.1199350E+00
         -4   -1    0    0    0  501 -0.00000000000E+00  0.00000000000E+00  0.11189387964E+03  0.11190108669E+03  0.12700000000E+01 0. -1.
         21   -1    0    0  501  502  0.00000000000E+00 -0.00000000000E+00 -0.12825544194E+03  0.12825544194E+03  0.00000000000E+00 0.  1.
         25    2    1    2    0    0  0.76981069887E+02  0.34991253927E+02  0.10874552387E+02  0.15130895232E+03  0.12500268073E+03 0.  0.
    9000005    1    3    3    0    0  0.75481586071E+01  0.29002710517E+02  0.59292755620E+02  0.66443681300E+02  0.10000000000E+01 0.  0.
    9000005    1    3    3    0    0  0.69432911280E+02  0.59885434092E+01 -0.48418203233E+02  0.84865271020E+02  0.10000000000E+01 0.  0.
         -4    1    1    2    0  502 -0.76981069887E+02 -0.34991253927E+02 -0.27236114682E+02  0.88847576305E+02  0.12700000000E+01 0.  1.
<mgrwt>
<rscale>  1 0.15091767E+03</rscale>
<asrwt>0</asrwt>
<pdfrwt beam="2">  1       21 0.19731606E-01 0.15091767E+03</pdfrwt>
<pdfrwt beam="1">  1       -4 0.17215481E-01 0.15091767E+03</pdfrwt>
<totfact> 0.28771198E+04</totfact>
</mgrwt>
</event>
<event>
 6    4  0.6358868E-003  0.1288475E+03  0.7818608E-02  0.1229176E+00
         21   -1    0    0  501  502  0.00000000000E+00  0.00000000000E+00  0.37147339194E+03  0.37147339194E+03  0.00000000000E+00 0. -1.
         -4   -1    0    0    0  501 -0.00000000000E+00 -0.00000000000E+00 -0.19683210442E+02  0.19724139356E+02  0.12700000000E+01 0. -1.
         25    2    1    2    0    0 -0.11962795827E+02  0.28813824915E+02  0.21300612915E+03  0.24894433774E+03  0.12501330828E+03 0.  0.
    9000005    1    3    3    0    0  0.88553924301E+01 -0.33470971032E+02  0.10712794995E+02  0.36255866470E+02  0.10000000000E+01 0.  0.
    9000005    1    3    3    0    0 -0.20818188258E+02  0.62284795946E+02  0.20229333415E+03  0.21268847127E+03  0.10000000000E+01 0.  0.
         -4    1    1    2    0  502  0.11962795827E+02 -0.28813824915E+02  0.13878405235E+03  0.14225319356E+03  0.12700000000E+01 0.  1.
<mgrwt>
<rscale>  1 0.12884748E+03</rscale>
<asrwt>0</asrwt>
<pdfrwt beam="1">  1       21 0.57149747E-01 0.12884748E+03</pdfrwt>
<pdfrwt beam="2">  1       -4 0.30315019E-02 0.12884748E+03</pdfrwt>
<totfact> 0.61822687E+04</totfact>
</mgrwt>
</event>
<event>
 6    4  0.6358868E-003  0.1321730E+03  0.7818608E-02  0.1224267E+00
         21   -1    0    0  501  502  0.00000000000E+00  0.00000000000E+00  0.65721013555E+01  0.65721013555E+01  0.00000000000E+00 0. -1.
          4   -1    0    0  502    0 -0.00000000000E+00 -0.00000000000E+00 -0.14762280194E+04  0.14762285657E+04  0.12700000000E+01 0. -1.
         25    2    1    2    0    0 -0.28746116695E+02 -0.31949786625E+02 -0.13330819339E+04  0.13396182864E+04  0.12499033004E+03 0.  0.
    9000005    1    3    3    0    0 -0.73047340109E+02 -0.44868970668E+02 -0.90746792396E+03  0.91150873361E+03  0.10000000000E+01 0.  0.
    9000005    1    3    3    0    0  0.44301223413E+02  0.12919184043E+02 -0.42561400995E+03  0.42810955277E+03  0.10000000000E+01 0.  0.
          4    1    1    2  501    0  0.28746116695E+02  0.31949786625E+02 -0.13657398416E+03  0.14318238069E+03  0.12700000000E+01 0.  1.
<mgrwt>
<rscale>  1 0.13217303E+03</rscale>
<asrwt>0</asrwt>
<pdfrwt beam="1">  1       21 0.10110909E-02 0.13217303E+03</pdfrwt>
<pdfrwt beam="2">  1        4 0.22712185E+00 0.13217303E+03</pdfrwt>
<totfact> 0.14967559E+04</totfact>
</mgrwt>
</event>
<event>
 6    4  0.6358868E-003  0.1287744E+03  0.7818608E-02  0.1229286E+00
         21   -1    0    0  501  502  0.00000000000E+00  0.00000000000E+00  0.21816849708E+02  0.21816849708E+02  0.00000000000E+00 0.  1.
         -4   -1    0    0    0  501 -0.00000000000E+00 -0.00000000000E+00 -0.68475335604E+03  0.68475453376E+03  0.12700000000E+01 0. -1.
         25    2    1    2    0    0 -0.65749902526E+01  0.30234272113E+02 -0.66321694803E+03  0.67560312142E+03  0.12500206322E+03 0.  0.
    9000005    1    3    3    0    0 -0.12776734348E+02 -0.33591529491E+02 -0.48260364842E+03  0.48394102663E+03  0.10000000000E+01 0.  0.
    9000005    1    3    3    0    0  0.62017440951E+01  0.63825801603E+02 -0.18061329961E+03  0.19166209478E+03  0.10000000000E+01 0.  0.
         -4    1    1    2    0  502  0.65749902526E+01 -0.30234272113E+02  0.28044169628E+00  0.30968262052E+02  0.12700000000E+01 0.  1.
<mgrwt>
<rscale>  1 0.12877444E+03</rscale>
<asrwt>0</asrwt>
<pdfrwt beam="1">  1       21 0.33564385E-02 0.12877444E+03</pdfrwt>
<pdfrwt beam="2">  1       -4 0.10534960E+00 0.12877444E+03</pdfrwt>
<totfact> 0.16099606E+04</totfact>
</mgrwt>
</event>
<event>
 6    4  0.6358868E-003  0.1266411E+03  0.7818608E-02  0.1232527E+00
          4   -1    0    0  502    0 -0.00000000000E+00  0.00000000000E+00  0.57757630327E+02  0.57771591297E+02  0.12700000000E+01 0. -1.
         21   -1    0    0  501  502  0.00000000000E+00 -0.00000000000E+00 -0.12862705731E+03  0.12862705731E+03  0.00000000000E+00 0.  1.
         25    2    1    2    0    0 -0.55280833715E+01 -0.19560478704E+02 -0.15725202152E+02  0.12761369760E+03  0.12499920719E+03 0.  0.
    9000005    1    3    3    0    0  0.93219890981E+01  0.27726897922E+02  0.42208979129E+02  0.51364173002E+02  0.10000000000E+01 0.  0.
    9000005    1    3    3    0    0 -0.14850072470E+02 -0.47287376625E+02 -0.57934181281E+02  0.76249524596E+02  0.10000000000E+01 0.  0.
          4    1    1    2  501    0  0.55280833715E+01  0.19560478704E+02 -0.55144224832E+02  0.58784951010E+02  0.12700000000E+01 0.  1.
<mgrwt>
<rscale>  1 0.12664112E+03</rscale>
<asrwt>0</asrwt>
<pdfrwt beam="2">  1       21 0.19788778E-01 0.12664112E+03</pdfrwt>
<pdfrwt beam="1">  1        4 0.88873456E-02 0.12664112E+03</pdfrwt>
<totfact> 0.87290117E+04</totfact>
</mgrwt>
</event>
<event>
 6    4  0.6358868E-003  0.1275061E+03  0.7818608E-02  0.1231204E+00
         21   -1    0    0  501  502  0.00000000000E+00  0.00000000000E+00  0.17435370157E+04  0.17435370157E+04  0.00000000000E+00 0.  1.
         -4   -1    0    0    0  501 -0.00000000000E+00 -0.00000000000E+00 -0.37020827914E+02  0.37042605192E+02  0.12700000000E+01 0. -1.
         25    2    1    2    0    0 -0.64307855715E+01 -0.24309039360E+02  0.73109528746E+02  0.14697893189E+03  0.12500207530E+03 0.  0.
    9000005    1    3    3    0    0  0.18086539624E+02  0.38247117883E+02 -0.64835153804E+01  0.42813559927E+02  0.10000000000E+01 0.  0.
    9000005    1    3    3    0    0 -0.24517325195E+02 -0.62556157243E+02  0.79593044127E+02  0.10416537197E+03  0.10000000000E+01 0.  0.
         -4    1    1    2    0  502  0.64307855715E+01  0.24309039360E+02  0.16334066590E+04  0.16336006890E+04  0.12700000000E+01 0.  1.
<mgrwt>
<rscale>  1 0.12750609E+03</rscale>
<asrwt>0</asrwt>
<pdfrwt beam="1">  1       21 0.26823640E+00 0.12750609E+03</pdfrwt>
<pdfrwt beam="2">  1       -4 0.56972241E-02 0.12750609E+03</pdfrwt>
<totfact> 0.43828814E+02</totfact>
</mgrwt>
</event>
<event>
 6    4  0.6358868E-003  0.1424732E+03  0.7818608E-02  0.1210039E+00
         21   -1    0    0  501  502  0.00000000000E+00  0.00000000000E+00  0.24153007514E+02  0.24153007514E+02  0.00000000000E+00 0. -1.
         -4   -1    0    0    0  501 -0.00000000000E+00 -0.00000000000E+00 -0.50153621162E+03  0.50153781958E+03  0.12700000000E+01 0.  1.
         25    2    1    2    0    0  0.37352441439E+02 -0.57269219886E+02 -0.38671082060E+03  0.41212119004E+03  0.12499459224E+03 0.  0.
    9000005    1    3    3    0    0 -0.30865083075E+02  0.96022998429E+01 -0.19782503607E+03  0.20045099753E+03  0.10000000000E+01 0.  0.
    9000005    1    3    3    0    0  0.68217524514E+02 -0.66871519729E+02 -0.18888578453E+03  0.21167019251E+03  0.10000000000E+01 0.  0.
         -4    1    1    2    0  502 -0.37352441439E+02  0.57269219886E+02 -0.90672383510E+02  0.11356963705E+03  0.12700000000E+01 0. -1.
<mgrwt>
<rscale>  1 0.14247321E+03</rscale>
<asrwt>0</asrwt>
<pdfrwt beam="1">  1       21 0.37158473E-02 0.14247321E+03</pdfrwt>
<pdfrwt beam="2">  1       -4 0.77162110E-01 0.14247321E+03</pdfrwt>
<totfact> 0.27835402E+04</totfact>
</mgrwt>
</event>
<event>
 6    4  0.6358868E-003  0.1474307E+03  0.7818608E-02  0.1203666E+00
         21   -1    0    0  501  502  0.00000000000E+00  0.00000000000E+00  0.16189203739E+02  0.16189203739E+02  0.00000000000E+00 0.  1.
          4   -1    0    0  502    0 -0.00000000000E+00 -0.00000000000E+00 -0.10173988522E+04  0.10173996448E+04  0.12700000000E+01 0. -1.
         25    2    1    2    0    0 -0.13986911395E+01  0.78159740109E+02 -0.85662814364E+03  0.86922241119E+03  0.12499968926E+03 0.  0.
    9000005    1    3    3    0    0  0.39235873650E+02  0.74055372396E+02 -0.75578737325E+03  0.76042041367E+03  0.10000000000E+01 0.  0.
    9000005    1    3    3    0    0 -0.40634564789E+02  0.41043677124E+01 -0.10084077040E+03  0.10880199752E+03  0.10000000000E+01 0.  0.
          4    1    1    2  501    0  0.13986911395E+01 -0.78159740109E+02 -0.14458150478E+03  0.16436643738E+03  0.12700000000E+01 0.  1.
<mgrwt>
<rscale>  1 0.14743074E+03</rscale>
<asrwt>0</asrwt>
<pdfrwt beam="1">  1       21 0.24906471E-02 0.14743074E+03</pdfrwt>
<pdfrwt beam="2">  1        4 0.15652677E+00 0.14743074E+03</pdfrwt>
<totfact> 0.10087929E+04</totfact>
</mgrwt>
</event>
<event>
 6    4  0.6358868E-003  0.1351868E+03  0.7818608E-02  0.1219956E+00
         21   -1    0    0  501  502  0.00000000000E+00  0.00000000000E+00  0.67712597019E+02  0.67712597019E+02  0.00000000000E+00 0.  1.
         -4   -1    0    0    0  501 -0.00000000000E+00 -0.00000000000E+00 -0.21351810932E+03  0.21352188625E+03  0.12700000000E+01 0. -1.
         25    2    1    2    0    0  0.43982860155E+02 -0.26758778232E+02 -0.17569911899E+03  0.22168815826E+03  0.12499973960E+03 0.  0.
    9000005    1    3    3    0    0  0.83615207623E+02  0.57902626698E+01 -0.11244908470E+03  0.14025272453E+03  0.10000000000E+01 0.  0.
    9000005    1    3    3    0    0 -0.39632347468E+02 -0.32549040902E+02 -0.63250034296E+02  0.81435433737E+02  0.10000000000E+01 0.  0.
         -4    1    1    2    0  502 -0.43982860155E+02  0.26758778232E+02  0.29893606697E+02  0.59546325002E+02  0.12700000000E+01 0.  1.
<mgrwt>
<rscale>  1 0.13518676E+03</rscale>
<asrwt>0</asrwt>
<pdfrwt beam="1">  1       21 0.10417323E-01 0.13518676E+03</pdfrwt>
<pdfrwt beam="2">  1       -4 0.32850146E-01 0.13518676E+03</pdfrwt>
<totfact> 0.27401845E+04</totfact>
</mgrwt>
</event>
<event>
 6    4  0.6358868E-003  0.1270158E+03  0.7818608E-02  0.1231952E+00
         -4   -1    0    0    0  501 -0.00000000000E+00  0.00000000000E+00  0.66424171284E+02  0.66436311086E+02  0.12700000000E+01 0.  1.
         21   -1    0    0  501  502  0.00000000000E+00 -0.00000000000E+00 -0.16619591289E+03  0.16619591289E+03  0.00000000000E+00 0.  1.
         25    2    1    2    0    0 -0.14544310299E+01 -0.22491318336E+02  0.33585654475E+01  0.12706022057E+03  0.12500017968E+03 0.  0.
    9000005    1    3    3    0    0  0.51469274858E+02 -0.45024136954E+02 -0.64749665939E+01  0.68696319809E+02  0.10000000000E+01 0.  0.
    9000005    1    3    3    0    0 -0.52923705888E+02  0.22532818618E+02  0.98335320414E+01  0.58363900762E+02  0.10000000000E+01 0.  0.
         -4    1    1    2    0  502  0.14544310299E+01  0.22491318336E+02 -0.10313030706E+03  0.10557200341E+03  0.12700000000E+01 0. -1.
<mgrwt>
<rscale>  1 0.12701582E+03</rscale>
<asrwt>0</asrwt>
<pdfrwt beam="2">  1       21 0.25568602E-01 0.12701582E+03</pdfrwt>
<pdfrwt beam="1">  1       -4 0.10220410E-01 0.12701582E+03</pdfrwt>
<totfact> 0.42791672E+04</totfact>
</mgrwt>
</event>
<event>
 6    4  0.6358868E-003  0.1747770E+03  0.7818608E-02  0.1172956E+00
          4   -1    0    0  502    0 -0.00000000000E+00  0.00000000000E+00  0.39336297916E+02  0.39356793997E+02  0.12700000000E+01 0.  1.
         21   -1    0    0  501  502  0.00000000000E+00 -0.00000000000E+00 -0.79856566742E+03  0.79856566742E+03  0.00000000000E+00 0. -1.
         25    2    1    2    0    0  0.12167057697E+03  0.10802161236E+02 -0.20044666683E+03  0.26594332046E+03  0.12500626969E+03 0.  0.
    9000005    1    3    3    0    0  0.52756464861E+02 -0.49567340687E+02 -0.44222580132E+02  0.84833969853E+02  0.10000000000E+01 0.  0.
    9000005    1    3    3    0    0  0.68914112113E+02  0.60369501923E+02 -0.15622408670E+03  0.18110935060E+03  0.10000000000E+01 0.  0.
          4    1    1    2  501    0 -0.12167057697E+03 -0.10802161236E+02 -0.55878270268E+03  0.57197914097E+03  0.12700000000E+01 0. -1.
<mgrwt>
<rscale>  1 0.17477695E+03</rscale>
<asrwt>0</asrwt>
<pdfrwt beam="2">  1       21 0.12285626E+00 0.17477695E+03</pdfrwt>
<pdfrwt beam="1">  1        4 0.60533924E-02 0.17477695E+03</pdfrwt>
<totfact> 0.36642159E+03</totfact>
</mgrwt>
</event>
<event>
 6    4  0.6358868E-003  0.1776436E+03  0.7818608E-02  0.1170103E+00
          4   -1    0    0  502    0 -0.00000000000E+00  0.00000000000E+00  0.29289439846E+02  0.29316960731E+02  0.12700000000E+01 0. -1.
         21   -1    0    0  501  502  0.00000000000E+00 -0.00000000000E+00 -0.11241239647E+04  0.11241239647E+04  0.00000000000E+00 0.  1.
         25    2    1    2    0    0  0.11834684274E+03 -0.43891035090E+02 -0.30004151740E+03  0.34868634437E+03  0.12499942574E+03 0.  0.
    9000005    1    3    3    0    0  0.49834278692E+02 -0.84175906149E+02 -0.15488143740E+03  0.18318924139E+03  0.10000000000E+01 0.  0.
    9000005    1    3    3    0    0  0.68512564049E+02  0.40284871059E+02 -0.14516008000E+03  0.16549710298E+03  0.10000000000E+01 0.  0.
          4    1    1    2  501    0 -0.11834684274E+03  0.43891035090E+02 -0.79479300745E+03  0.80475458106E+03  0.12700000000E+01 0.  1.
<mgrwt>
<rscale>  1 0.17764362E+03</rscale>
<asrwt>0</asrwt>
<pdfrwt beam="2">  1       21 0.17294215E+00 0.17764362E+03</pdfrwt>
<pdfrwt beam="1">  1        4 0.45082399E-02 0.17764362E+03</pdfrwt>
<totfact> 0.24214654E+03</totfact>
</mgrwt>
</event>
<event>
 6    4  0.6358868E-003  0.1319942E+03  0.7818608E-02  0.1224526E+00
         21   -1    0    0  501  502  0.00000000000E+00  0.00000000000E+00  0.55759437470E+02  0.55759437470E+02  0.00000000000E+00 0.  1.
         -4   -1    0    0    0  501 -0.00000000000E+00 -0.00000000000E+00 -0.14588645447E+03  0.14589198230E+03  0.12700000000E+01 0.  1.
         25    2    1    2    0    0 -0.41047481230E+02  0.10652447384E+02 -0.89026070714E+02  0.15921092810E+03  0.12499643198E+03 0.  0.
    9000005    1    3    3    0    0 -0.14970969294E+01  0.41892088929E+02 -0.99277558420E+02  0.10776929999E+03  0.10000000000E+01 0.  0.
    9000005    1    3    3    0    0 -0.39550384301E+02 -0.31239641545E+02  0.10251487706E+02  0.51441628107E+02  0.10000000000E+01 0.  0.
         -4    1    1    2    0  502  0.41047481230E+02 -0.10652447384E+02 -0.11009462885E+01  0.42440491672E+02  0.12700000000E+01 0. -1.
<mgrwt>
<rscale>  1 0.13199424E+03</rscale>
<asrwt>0</asrwt>
<pdfrwt beam="1">  1       21 0.85783751E-02 0.13199424E+03</pdfrwt>
<pdfrwt beam="2">  1       -4 0.22445607E-01 0.13199424E+03</pdfrwt>
<totfact> 0.78031032E+04</totfact>
</mgrwt>
</event>
<event>
 6    4  0.6358868E-003  0.1440789E+03  0.7818608E-02  0.1207944E+00
         -4   -1    0    0    0  501 -0.00000000000E+00  0.00000000000E+00  0.32423365079E+03  0.32423613803E+03  0.12700000000E+01 0. -1.
         21   -1    0    0  501  502  0.00000000000E+00 -0.00000000000E+00 -0.49623346101E+02  0.49623346101E+02  0.00000000000E+00 0.  1.
         25    2    1    2    0    0 -0.39828002501E+02  0.59563340407E+02  0.26489159353E+03  0.30153986334E+03  0.12499868623E+03 0.  0.
    9000005    1    3    3    0    0 -0.84772207833E+02  0.37855304284E+02  0.15217407346E+03  0.17826188576E+03  0.10000000000E+01 0.  0.
    9000005    1    3    3    0    0  0.44944205332E+02  0.21708036122E+02  0.11271752007E+03  0.12327797758E+03  0.10000000000E+01 0.  0.
         -4    1    1    2    0  502  0.39828002501E+02 -0.59563340407E+02  0.97187111548E+01  0.72319620782E+02  0.12700000000E+01 0.  1.
<mgrwt>
<rscale>  1 0.14407891E+03</rscale>
<asrwt>0</asrwt>
<pdfrwt beam="2">  1       21 0.76343611E-02 0.14407891E+03</pdfrwt>
<pdfrwt beam="1">  1       -4 0.49883540E-01 0.14407891E+03</pdfrwt>
<totfact> 0.20770457E+04</totfact>
</mgrwt>
</event>
<event>
 6    4  0.6358868E-003  0.1266829E+03  0.7818608E-02  0.1232462E+00
          4   -1    0    0  502    0 -0.00000000000E+00  0.00000000000E+00  0.42932015145E+01  0.44771061239E+01  0.12700000000E+01 0. -1.
         21   -1    0    0  501  502  0.00000000000E+00 -0.00000000000E+00 -0.12899311182E+04  0.12899311182E+04  0.00000000000E+00 0.  1.
         25    2    1    2    0    0  0.19864785141E+02 -0.53971066150E+01 -0.99368007717E+03  0.10017228448E+04  0.12499929410E+03 0.  0.
    9000005    1    3    3    0    0  0.69994654557E+02  0.16541830287E+02 -0.57387945230E+03  0.57836969975E+03  0.10000000000E+01 0.  0.
    9000005    1    3    3    0    0 -0.50129869415E+02 -0.21938936902E+02 -0.41980062487E+03  0.42335314503E+03  0.10000000000E+01 0.  0.
          4    1    1    2  501    0 -0.19864785141E+02  0.53971066150E+01 -0.29195783948E+03  0.29268537951E+03  0.12700000000E+01 0.  1.
<mgrwt>
<rscale>  1 0.12668292E+03</rscale>
<asrwt>0</asrwt>
<pdfrwt beam="2">  1       21 0.19845106E+00 0.12668292E+03</pdfrwt>
<pdfrwt beam="1">  1        4 0.67468674E-03 0.12668292E+03</pdfrwt>
<totfact> 0.30368522E+04</totfact>
</mgrwt>
</event>
<event>
 6    4  0.6358868E-003  0.1311633E+03  0.7818608E-02  0.1225740E+00
         -4   -1    0    0    0  501 -0.00000000000E+00  0.00000000000E+00  0.30230593142E+03  0.30230859907E+03  0.12700000000E+01 0.  1.
         21   -1    0    0  501  502  0.00000000000E+00 -0.00000000000E+00 -0.24923736279E+02  0.24923736279E+02  0.00000000000E+00 0. -1.
         25    2    1    2    0    0 -0.34778421669E+02  0.19220823560E+02  0.23497011503E+03  0.26909993378E+03  0.12499936294E+03 0.  0.
    9000005    1    3    3    0    0  0.30151675393E+02  0.47272779301E+02  0.70653788111E+02  0.90204195946E+02  0.10000000000E+01 0.  0.
    9000005    1    3    3    0    0 -0.64930097062E+02 -0.28051955740E+02  0.16431632691E+03  0.17889573784E+03  0.10000000000E+01 0.  0.
         -4    1    1    2    0  502  0.34778421669E+02 -0.19220823560E+02  0.42412080115E+02  0.58132401566E+02  0.12700000000E+01 0. -1.
<mgrwt>
<rscale>  1 0.13116333E+03</rscale>
<asrwt>0</asrwt>
<pdfrwt beam="2">  1       21 0.38344212E-02 0.13116333E+03</pdfrwt>
<pdfrwt beam="1">  1       -4 0.46511296E-01 0.13116333E+03</pdfrwt>
<totfact> 0.75777157E+04</totfact>
</mgrwt>
</event>
<event>
 6    4  0.6358868E-003  0.1269919E+03  0.7818608E-02  0.1231989E+00
         -4   -1    0    0    0  501 -0.00000000000E+00  0.00000000000E+00  0.66089011706E+03  0.66089133731E+03  0.12700000000E+01 0. -1.
         21   -1    0    0  501  502  0.00000000000E+00 -0.00000000000E+00 -0.10120343590E+02  0.10120343590E+02  0.00000000000E+00 0.  1.
         25    2    1    2    0    0  0.13177262255E+02 -0.18134379006E+02  0.62028395902E+03  0.63315017373E+03  0.12499782691E+03 0.  0.
    9000005    1    3    3    0    0 -0.51701566305E+02 -0.27257637136E+02  0.22485561947E+03  0.23232968030E+03  0.10000000000E+01 0.  0.
    9000005    1    3    3    0    0  0.64878828560E+02  0.91232581304E+01  0.39542833955E+03  0.40082049343E+03  0.10000000000E+01 0.  0.
         -4    1    1    2    0  502 -0.13177262255E+02  0.18134379006E+02  0.30485814453E+02  0.37861507172E+02  0.12700000000E+01 0.  1.
<mgrwt>
<rscale>  1 0.12699194E+03</rscale>
<asrwt>0</asrwt>
<pdfrwt beam="2">  1       21 0.15569765E-02 0.12699194E+03</pdfrwt>
<pdfrwt beam="1">  1       -4 0.10168159E+00 0.12699194E+03</pdfrwt>
<totfact> 0.60679046E+04</totfact>
</mgrwt>
</event>
<event>
 6    4  0.6358868E-003  0.1266364E+03  0.7818608E-02  0.1232534E+00
         21   -1    0    0  501  502  0.00000000000E+00  0.00000000000E+00  0.40053655073E+02  0.40053655073E+02  0.00000000000E+00 0. -1.
         -4   -1    0    0    0  501 -0.00000000000E+00 -0.00000000000E+00 -0.13511725404E+03  0.13512322243E+03  0.12700000000E+01 0. -1.
         25    2    1    2    0    0 -0.20276478357E+02 -0.96934705753E-01 -0.78790149220E+02  0.14914645227E+03  0.12500252654E+03 0.  0.
    9000005    1    3    3    0    0 -0.36143264082E+02 -0.51971417328E+02 -0.14368984918E+02  0.64921733535E+02  0.10000000000E+01 0.  0.
    9000005    1    3    3    0    0  0.15866785725E+02  0.51874482622E+02 -0.64421164301E+02  0.84224718738E+02  0.10000000000E+01 0.  0.
         -4    1    1    2    0  502  0.20276478357E+02  0.96934705753E-01 -0.16273449749E+02  0.26030425229E+02  0.12700000000E+01 0.  1.
<mgrwt>
<rscale>  1 0.12663640E+03</rscale>
<asrwt>0</asrwt>
<pdfrwt beam="1">  1       21 0.61621008E-02 0.12663640E+03</pdfrwt>
<pdfrwt beam="2">  1       -4 0.20789278E-01 0.12663640E+03</pdfrwt>
<totfact> 0.15715323E+05</totfact>
</mgrwt>
</event>
<event>
 6    4  0.6358868E-003  0.1306542E+03  0.7818608E-02  0.1226488E+00
         -4   -1    0    0    0  501 -0.00000000000E+00  0.00000000000E+00  0.68323498456E+02  0.68335300843E+02  0.12700000000E+01 0.  1.
         21   -1    0    0  501  502  0.00000000000E+00 -0.00000000000E+00 -0.29078552398E+03  0.29078552398E+03  0.00000000000E+00 0. -1.
         25    2    1    2    0    0 -0.14788822837E+02 -0.35083120882E+02  0.27764743247E+01  0.13068367950E+03  0.12498392147E+03 0.  0.
    9000005    1    3    3    0    0 -0.56830679042E+02  0.79022801629E+01 -0.27182881946E+02  0.63498670718E+02  0.10000000000E+01 0.  0.
    9000005    1    3    3    0    0  0.42041856205E+02 -0.42985401045E+02  0.29959356270E+02  0.67185008777E+02  0.10000000000E+01 0.  0.
         -4    1    1    2    0  502  0.14788822837E+02  0.35083120882E+02 -0.22523849985E+03  0.22843714533E+03  0.12700000000E+01 0. -1.
<mgrwt>
<rscale>  1 0.13065418E+03</rscale>
<asrwt>0</asrwt>
<pdfrwt beam="2">  1       21 0.44736234E-01 0.13065418E+03</pdfrwt>
<pdfrwt beam="1">  1       -4 0.10512429E-01 0.13065418E+03</pdfrwt>
<totfact> 0.13682916E+04</totfact>
</mgrwt>
</event>
<event>
 6    4  0.6358868E-003  0.1328723E+03  0.7818608E-02  0.1223255E+00
         21   -1    0    0  501  502  0.00000000000E+00  0.00000000000E+00  0.36409663352E+03  0.36409663352E+03  0.00000000000E+00 0. -1.
          4   -1    0    0  502    0 -0.00000000000E+00 -0.00000000000E+00 -0.45178177458E+02  0.45196024366E+02  0.12700000000E+01 0.  1.
         25    2    1    2    0    0  0.42105855894E+02  0.16013184767E+02  0.58803722637E+02  0.14530286143E+03  0.12500287420E+03 0.  0.
    9000005    1    3    3    0    0  0.65135769341E+02 -0.36003443755E+02  0.44190972901E+02  0.86560721438E+02  0.10000000000E+01 0.  0.
    9000005    1    3    3    0    0 -0.23029913447E+02  0.52016628523E+02  0.14612749736E+02  0.58742139994E+02  0.10000000000E+01 0.  0.
          4    1    1    2  501    0 -0.42105855894E+02 -0.16013184767E+02  0.26011473342E+03  0.26398979645E+03  0.12700000000E+01 0. -1.
<mgrwt>
<rscale>  1 0.13287228E+03</rscale>
<asrwt>0</asrwt>
<pdfrwt beam="1">  1       21 0.56014865E-01 0.13287228E+03</pdfrwt>
<pdfrwt beam="2">  1        4 0.69520323E-02 0.13287228E+03</pdfrwt>
<totfact> 0.17140811E+04</totfact>
</mgrwt>
</event>
<event>
 6    4  0.6358868E-003  0.1270357E+03  0.7818608E-02  0.1231922E+00
         -4   -1    0    0    0  501 -0.00000000000E+00  0.00000000000E+00  0.74438831728E+01  0.75514433515E+01  0.12700000000E+01 0.  1.
         21   -1    0    0  501  502  0.00000000000E+00 -0.00000000000E+00 -0.77594071286E+03  0.77594071286E+03  0.00000000000E+00 0.  1.
         25    2    1    2    0    0 -0.21524011790E+02 -0.70565155366E+01 -0.69700040195E+03  0.70848262632E+03  0.12499997595E+03 0.  0.
    9000005    1    3    3    0    0  0.45284148697E+01  0.45045853813E+02 -0.11533059726E+03  0.12390230890E+03  0.10000000000E+01 0.  0.
    9000005    1    3    3    0    0 -0.26052426659E+02 -0.52102369350E+02 -0.58166980469E+03  0.58458031742E+03  0.10000000000E+01 0.  0.
         -4    1    1    2    0  502  0.21524011790E+02  0.70565155366E+01 -0.71496427744E+02  0.75009529896E+02  0.12700000000E+01 0. -1.
<mgrwt>
<rscale>  1 0.12703571E+03</rscale>
<asrwt>0</asrwt>
<pdfrwt beam="2">  1       21 0.11937552E+00 0.12703571E+03</pdfrwt>
<pdfrwt beam="1">  1       -4 0.11535663E-02 0.12703571E+03</pdfrwt>
<totfact> 0.51692918E+04</totfact>
</mgrwt>
</event>
<event>
 6    4  0.6358868E-003  0.1294269E+03  0.7818608E-02  0.1228309E+00
          4   -1    0    0  502    0 -0.00000000000E+00  0.00000000000E+00  0.67171917793E+02  0.67183922482E+02  0.12700000000E+01 0.  1.
         21   -1    0    0  501  502  0.00000000000E+00 -0.00000000000E+00 -0.10585519248E+03  0.10585519248E+03  0.00000000000E+00 0.  1.
         25    2    1    2    0    0 -0.21476976168E+02  0.25808529352E+02 -0.11716869703E+02  0.12995616485E+03  0.12499591615E+03 0.  0.
    9000005    1    3    3    0    0  0.88496809813E+00  0.75145170425E+02 -0.92341435570E+01  0.75722184424E+02  0.10000000000E+01 0.  0.
    9000005    1    3    3    0    0 -0.22361944266E+02 -0.49336641073E+02 -0.24827261464E+01  0.54233980426E+02  0.10000000000E+01 0.  0.
          4    1    1    2  501    0  0.21476976168E+02 -0.25808529352E+02 -0.26966404982E+02  0.43082950111E+02  0.12700000000E+01 0. -1.
<mgrwt>
<rscale>  1 0.12942689E+03</rscale>
<asrwt>0</asrwt>
<pdfrwt beam="2">  1       21 0.16285414E-01 0.12942689E+03</pdfrwt>
<pdfrwt beam="1">  1        4 0.10335651E-01 0.12942689E+03</pdfrwt>
<totfact> 0.97081588E+04</totfact>
</mgrwt>
</event>
<event>
 6    4  0.6358868E-003  0.1272072E+03  0.7818608E-02  0.1231660E+00
         -4   -1    0    0    0  501 -0.00000000000E+00  0.00000000000E+00  0.15748099231E+03  0.15748611316E+03  0.12700000000E+01 0.  1.
         21   -1    0    0  501  502  0.00000000000E+00 -0.00000000000E+00 -0.37061143635E+02  0.37061143635E+02  0.00000000000E+00 0.  1.
         25    2    1    2    0    0 -0.23558640492E+02  0.11951239119E+01  0.11194432684E+03  0.16944974231E+03  0.12500097998E+03 0.  0.
    9000005    1    3    3    0    0 -0.70692122139E+02 -0.44851482119E+01  0.96104447196E+02  0.11939245143E+03  0.10000000000E+01 0.  0.
    9000005    1    3    3    0    0  0.47133481647E+02  0.56802721237E+01  0.15839879642E+02  0.50057290884E+02  0.10000000000E+01 0.  0.
         -4    1    1    2    0  502  0.23558640492E+02 -0.11951239119E+01  0.84755218379E+01  0.25097514487E+02  0.12700000000E+01 0. -1.
<mgrwt>
<rscale>  1 0.12720724E+03</rscale>
<asrwt>0</asrwt>
<pdfrwt beam="2">  1       21 0.57017145E-02 0.12720724E+03</pdfrwt>
<pdfrwt beam="1">  1       -4 0.24229912E-01 0.12720724E+03</pdfrwt>
<totfact> 0.13573115E+05</totfact>
</mgrwt>
</event>
<event>
 6    4  0.6358868E-003  0.1470119E+03  0.7818608E-02  0.1204194E+00
         21   -1    0    0  501  502  0.00000000000E+00  0.00000000000E+00  0.16945102402E+03  0.16945102402E+03  0.00000000000E+00 0.  1.
          4   -1    0    0  502    0 -0.00000000000E+00 -0.00000000000E+00 -0.10717973144E+03  0.10718725545E+03  0.12700000000E+01 0. -1.
         25    2    1    2    0    0  0.29168289681E+02 -0.71669570638E+02 -0.36193329135E+02  0.15140165900E+03  0.12500075518E+03 0.  0.
    9000005    1    3    3    0    0  0.37299901273E+02 -0.41421557484E+02  0.40265268862E+02  0.68770051156E+02  0.10000000000E+01 0.  0.
    9000005    1    3    3    0    0 -0.81316115924E+01 -0.30248013154E+02 -0.76458597998E+02  0.82631607842E+02  0.10000000000E+01 0.  0.
          4    1    1    2  501    0 -0.29168289681E+02  0.71669570638E+02  0.98464621716E+02  0.12523662048E+03  0.12700000000E+01 0.  1.
<mgrwt>
<rscale>  1 0.14701192E+03</rscale>
<asrwt>0</asrwt>
<pdfrwt beam="1">  1       21 0.26069388E-01 0.14701192E+03</pdfrwt>
<pdfrwt beam="2">  1        4 0.16490134E-01 0.14701192E+03</pdfrwt>
<totfact> 0.18352624E+04</totfact>
</mgrwt>
</event>
<event>
 6    4  0.6358868E-003  0.1304647E+03  0.7818608E-02  0.1226768E+00
          4   -1    0    0  502    0 -0.00000000000E+00  0.00000000000E+00  0.12934294674E+03  0.12934918156E+03  0.12700000000E+01 0.  1.
         21   -1    0    0  501  502  0.00000000000E+00 -0.00000000000E+00 -0.80628124948E+02  0.80628124948E+02  0.00000000000E+00 0. -1.
         25    2    1    2    0    0 -0.84437315899E+01  0.36398896126E+02  0.86726517403E+02  0.15666053480E+03  0.12499943240E+03 0.  0.
    9000005    1    3    3    0    0 -0.28477964338E+02 -0.32678826109E+02 -0.80468955719E+00  0.43365281666E+02  0.10000000000E+01 0.  0.
    9000005    1    3    3    0    0  0.20034232748E+02  0.69077722236E+02  0.87531206960E+02  0.11329525313E+03  0.10000000000E+01 0.  0.
          4    1    1    2  501    0  0.84437315899E+01 -0.36398896126E+02 -0.38011695612E+02  0.53316771711E+02  0.12700000000E+01 0. -1.
<mgrwt>
<rscale>  1 0.13046469E+03</rscale>
<asrwt>0</asrwt>
<pdfrwt beam="2">  1       21 0.12404327E-01 0.13046469E+03</pdfrwt>
<pdfrwt beam="1">  1        4 0.19900164E-01 0.13046469E+03</pdfrwt>
<totfact> 0.50724805E+04</totfact>
</mgrwt>
</event>
<event>
 6    4  0.6358868E-003  0.1383009E+03  0.7818608E-02  0.1215634E+00
         21   -1    0    0  501  502  0.00000000000E+00  0.00000000000E+00  0.98780955015E+02  0.98780955015E+02  0.00000000000E+00 0. -1.
         -4   -1    0    0    0  501 -0.00000000000E+00 -0.00000000000E+00 -0.33284229171E+03  0.33284471462E+03  0.12700000000E+01 0.  1.
         25    2    1    2    0    0 -0.32248312950E+02 -0.49623170055E+02 -0.30757729224E+03  0.33724017651E+03  0.12499893301E+03 0.  0.
    9000005    1    3    3    0    0  0.15494420317E+02 -0.24124670613E+02 -0.41099419043E+01  0.28982208605E+02  0.10000000000E+01 0.  0.
    9000005    1    3    3    0    0 -0.47742733267E+02 -0.25498499441E+02 -0.30346735034E+03  0.30825796790E+03  0.10000000000E+01 0.  0.
         -4    1    1    2    0  502  0.32248312950E+02  0.49623170055E+02  0.73515955544E+02  0.94385493133E+02  0.12700000000E+01 0. -1.
<mgrwt>
<rscale>  1 0.13830093E+03</rscale>
<asrwt>0</asrwt>
<pdfrwt beam="1">  1       21 0.15197070E-01 0.13830093E+03</pdfrwt>
<pdfrwt beam="2">  1       -4 0.51207321E-01 0.13830093E+03</pdfrwt>
<totfact> 0.58269843E+03</totfact>
</mgrwt>
</event>
<event>
 6    4  0.6358868E-003  0.1280326E+03  0.7818608E-02  0.1230405E+00
         -4   -1    0    0    0  501 -0.00000000000E+00  0.00000000000E+00  0.73449029387E+02  0.73460008290E+02  0.12700000000E+01 0. -1.
         21   -1    0    0  501  502  0.00000000000E+00 -0.00000000000E+00 -0.11320755542E+03  0.11320755542E+03  0.00000000000E+00 0. -1.
         25    2    1    2    0    0  0.20149443319E+02 -0.18976272220E+02  0.11346745928E+02  0.12853443464E+03  0.12500501298E+03 0.  0.
    9000005    1    3    3    0    0 -0.30763563852E+02 -0.11402858295E+02 -0.42722026915E+02  0.53875723864E+02  0.10000000000E+01 0.  0.
    9000005    1    3    3    0    0  0.50913007171E+02 -0.75734139253E+01  0.54068772844E+02  0.74658710774E+02  0.10000000000E+01 0.  0.
         -4    1    1    2    0  502 -0.20149443319E+02  0.18976272220E+02 -0.51105271961E+02  0.58133129071E+02  0.12700000000E+01 0.  1.
<mgrwt>
<rscale>  1 0.12803262E+03</rscale>
<asrwt>0</asrwt>
<pdfrwt beam="2">  1       21 0.17416547E-01 0.12803262E+03</pdfrwt>
<pdfrwt beam="1">  1       -4 0.11301243E-01 0.12803262E+03</pdfrwt>
<totfact> 0.73745625E+04</totfact>
</mgrwt>
</event>
<event>
 6    4  0.6358868E-003  0.1274522E+03  0.7818608E-02  0.1231286E+00
         21   -1    0    0  501  502  0.00000000000E+00  0.00000000000E+00  0.69789678267E+02  0.69789678267E+02  0.00000000000E+00 0.  1.
         -4   -1    0    0    0  501 -0.00000000000E+00 -0.00000000000E+00 -0.96192795564E+02  0.96201178883E+02  0.12700000000E+01 0.  1.
         25    2    1    2    0    0 -0.74326070909E+01  0.23730344440E+02 -0.44730491550E+02  0.13507357327E+03  0.12500272168E+03 0.  0.
    9000005    1    3    3    0    0  0.32667833216E+02 -0.40026088475E+02 -0.23813727987E+02  0.56897879805E+02  0.10000000000E+01 0.  0.
    9000005    1    3    3    0    0 -0.40100440307E+02  0.63756432916E+02 -0.20916763562E+02  0.78175693466E+02  0.10000000000E+01 0.  0.
         -4    1    1    2    0  502  0.74326070909E+01 -0.23730344440E+02  0.18327374252E+02  0.30917283878E+02  0.12700000000E+01 0. -1.
<mgrwt>
<rscale>  1 0.12745216E+03</rscale>
<asrwt>0</asrwt>
<pdfrwt beam="1">  1       21 0.10736874E-01 0.12745216E+03</pdfrwt>
<pdfrwt beam="2">  1       -4 0.14800425E-01 0.12745216E+03</pdfrwt>
<totfact> 0.11013900E+05</totfact>
</mgrwt>
</event>
<event>
 6    4  0.6358868E-003  0.1281598E+03  0.7818608E-02  0.1230212E+00
         21   -1    0    0  501  502  0.00000000000E+00  0.00000000000E+00  0.51789215946E+02  0.51789215946E+02  0.00000000000E+00 0. -1.
          4   -1    0    0  502    0 -0.00000000000E+00 -0.00000000000E+00 -0.19810228838E+03  0.19810635922E+03  0.12700000000E+01 0.  1.
         25    2    1    2    0    0 -0.20390378450E+01 -0.28219100903E+02 -0.17005417967E+03  0.21293981237E+03  0.12499785734E+03 0.  0.
    9000005    1    3    3    0    0  0.58042913129E+02 -0.56340997107E+00 -0.10602146904E+03  0.12087534526E+03  0.10000000000E+01 0.  0.
    9000005    1    3    3    0    0 -0.60081950974E+02 -0.27655690932E+02 -0.64032710633E+02  0.92064467113E+02  0.10000000000E+01 0.  0.
          4    1    1    2  501    0  0.20390378450E+01  0.28219100903E+02  0.23741107230E+02  0.36955762793E+02  0.12700000000E+01 0. -1.
<mgrwt>
<rscale>  1 0.12815982E+03</rscale>
<asrwt>0</asrwt>
<pdfrwt beam="1">  1       21 0.79675716E-02 0.12815982E+03</pdfrwt>
<pdfrwt beam="2">  1        4 0.30478786E-01 0.12815982E+03</pdfrwt>
<totfact> 0.50054700E+04</totfact>
</mgrwt>
</event>
<event>
 6    4  0.6358868E-003  0.1344179E+03  0.7818608E-02  0.1221044E+00
          4   -1    0    0  502    0 -0.00000000000E+00  0.00000000000E+00  0.13515616043E+03  0.13516212710E+03  0.12700000000E+01 0.  1.
         21   -1    0    0  501  502  0.00000000000E+00 -0.00000000000E+00 -0.18262015403E+03  0.18262015403E+03  0.00000000000E+00 0. -1.
         25    2    1    2    0    0  0.49376514339E+02 -0.18510850315E+01  0.96564931541E+02  0.16550815049E+03  0.12500678058E+03 0.  0.
    9000005    1    3    3    0    0  0.11313377764E+02 -0.62363670940E+01  0.11992468716E+03  0.12062261554E+03  0.10000000000E+01 0.  0.
    9000005    1    3    3    0    0  0.38063136576E+02  0.43852820626E+01 -0.23359755617E+02  0.44885534944E+02  0.10000000000E+01 0.  0.
          4    1    1    2  501    0 -0.49376514339E+02  0.18510850315E+01 -0.14402892514E+03  0.15227413064E+03  0.12700000000E+01 0. -1.
<mgrwt>
<rscale>  1 0.13441786E+03</rscale>
<asrwt>0</asrwt>
<pdfrwt beam="2">  1       21 0.28095408E-01 0.13441786E+03</pdfrwt>
<pdfrwt beam="1">  1        4 0.20794054E-01 0.13441786E+03</pdfrwt>
<totfact> 0.10436091E+04</totfact>
</mgrwt>
</event>
<event>
 6    4  0.6358868E-003  0.1273440E+03  0.7818608E-02  0.1231451E+00
          4   -1    0    0  502    0 -0.00000000000E+00  0.00000000000E+00  0.14339858357E+03  0.14340420730E+03  0.12700000000E+01 0. -1.
         21   -1    0    0  501  502  0.00000000000E+00 -0.00000000000E+00 -0.30998341983E+03  0.30998341983E+03  0.00000000000E+00 0.  1.
         25    2    1    2    0    0 -0.16568023580E+02  0.17826516615E+02  0.11449867871E+03  0.17124964778E+03  0.12499684131E+03 0.  0.
    9000005    1    3    3    0    0 -0.11465234741E+02 -0.40862054670E+02  0.10274578428E+03  0.11117038862E+03  0.10000000000E+01 0.  0.
    9000005    1    3    3    0    0 -0.51027888393E+01  0.58688571285E+02  0.11752894435E+02  0.60079259158E+02  0.10000000000E+01 0.  0.
          4    1    1    2  501    0  0.16568023580E+02 -0.17826516615E+02 -0.28108351497E+03  0.28213797935E+03  0.12700000000E+01 0.  1.
<mgrwt>
<rscale>  1 0.12734400E+03</rscale>
<asrwt>0</asrwt>
<pdfrwt beam="2">  1       21 0.47689757E-01 0.12734400E+03</pdfrwt>
<pdfrwt beam="1">  1        4 0.22061953E-01 0.12734400E+03</pdfrwt>
<totfact> 0.32789364E+03</totfact>
</mgrwt>
</event>
<event>
 6    4  0.6358868E-003  0.1355757E+03  0.7818608E-02  0.1219409E+00
          4   -1    0    0  502    0 -0.00000000000E+00  0.00000000000E+00  0.20212939888E+03  0.20213338862E+03  0.12700000000E+01 0.  1.
         21   -1    0    0  501  502  0.00000000000E+00 -0.00000000000E+00 -0.11429519965E+03  0.11429519965E+03  0.00000000000E+00 0. -1.
         25    2    1    2    0    0  0.79216101316E+01 -0.51884633903E+02  0.17091002377E+03  0.21815360333E+03  0.12500396505E+03 0.  0.
    9000005    1    3    3    0    0 -0.36987063295E+02 -0.17419431230E+02  0.30584237021E+01  0.41010162047E+02  0.10000000000E+01 0.  0.
    9000005    1    3    3    0    0  0.44908673426E+02 -0.34465202673E+02  0.16785160007E+03  0.17714344128E+03  0.10000000000E+01 0.  0.
          4    1    1    2  501    0 -0.79216101316E+01  0.51884633903E+02 -0.83075824535E+02  0.98274984938E+02  0.12700000000E+01 0. -1.
<mgrwt>
<rscale>  1 0.13557566E+03</rscale>
<asrwt>0</asrwt>
<pdfrwt beam="2">  1       21 0.17583877E-01 0.13557566E+03</pdfrwt>
<pdfrwt beam="1">  1        4 0.31097680E-01 0.13557566E+03</pdfrwt>
<totfact> 0.11914505E+04</totfact>
</mgrwt>
</event>
<event>
 6    4  0.6358868E-003  0.1323596E+03  0.7818608E-02  0.1223996E+00
         21   -1    0    0  501  502  0.00000000000E+00  0.00000000000E+00  0.91930679833E+03  0.91930679833E+03  0.00000000000E+00 0.  1.
         -4   -1    0    0    0  501 -0.00000000000E+00 -0.00000000000E+00 -0.39965991282E+02  0.39986164597E+02  0.12700000000E+01 0. -1.
         25    2    1    2    0    0  0.33481244624E+02  0.27804693553E+02  0.71801198935E+02  0.15058045140E+03  0.12499986180E+03 0.  0.
    9000005    1    3    3    0    0  0.63305348507E+02 -0.73355458009E+01  0.81507026934E+02  0.10346870455E+03  0.10000000000E+01 0.  0.
    9000005    1    3    3    0    0 -0.29824103883E+02  0.35140239354E+02 -0.97058279989E+01  0.47111746852E+02  0.10000000000E+01 0.  0.
         -4    1    1    2    0  502 -0.33481244624E+02 -0.27804693553E+02  0.80753960811E+03  0.80871251152E+03  0.12700000000E+01 0.  1.
<mgrwt>
<rscale>  1 0.13235959E+03</rscale>
<asrwt>0</asrwt>
<pdfrwt beam="1">  1       21 0.14143180E+00 0.13235959E+03</pdfrwt>
<pdfrwt beam="2">  1       -4 0.61502340E-02 0.13235959E+03</pdfrwt>
<totfact> 0.24926971E+03</totfact>
</mgrwt>
</event>
<event>
 6    4  0.6358868E-003  0.1269187E+03  0.7818608E-02  0.1232101E+00
          4   -1    0    0  502    0 -0.00000000000E+00  0.00000000000E+00  0.39898284380E+03  0.39898486506E+03  0.12700000000E+01 0. -1.
         21   -1    0    0  501  502  0.00000000000E+00 -0.00000000000E+00 -0.45889438800E+02  0.45889438800E+02  0.00000000000E+00 0.  1.
         25    2    1    2    0    0 -0.12057127490E+01 -0.22008579957E+02  0.38539090142E+03  0.40575177186E+03  0.12499008813E+03 0.  0.
    9000005    1    3    3    0    0 -0.50658913841E+02 -0.88289251699E+01  0.31236879617E+03  0.31657469939E+03  0.10000000000E+01 0.  0.
    9000005    1    3    3    0    0  0.49453201092E+02 -0.13179654787E+02  0.73022105255E+02  0.89177072471E+02  0.10000000000E+01 0.  0.
          4    1    1    2  501    0  0.12057127490E+01  0.22008579957E+02 -0.32297496424E+02  0.39122532002E+02  0.12700000000E+01 0.  1.
<mgrwt>
<rscale>  1 0.12691869E+03</rscale>
<asrwt>0</asrwt>
<pdfrwt beam="2">  1       21 0.70599139E-02 0.12691869E+03</pdfrwt>
<pdfrwt beam="1">  1        4 0.61383481E-01 0.12691869E+03</pdfrwt>
<totfact> 0.15259390E+04</totfact>
</mgrwt>
</event>
<event>
 6    4  0.6358868E-003  0.1346429E+03  0.7818608E-02  0.1220725E+00
         21   -1    0    0  501  502  0.00000000000E+00  0.00000000000E+00  0.15234140412E+02  0.15234140412E+02  0.00000000000E+00 0.  1.
          4   -1    0    0  502    0 -0.00000000000E+00 -0.00000000000E+00 -0.76925483073E+03  0.76925587908E+03  0.12700000000E+01 0. -1.
         25    2    1    2    0    0 -0.49558754756E+02  0.69604732876E+01 -0.69105074827E+03  0.70404534992E+03  0.12499679875E+03 0.  0.
    9000005    1    3    3    0    0 -0.29172543094E+02 -0.18141674151E+02 -0.42360366082E+02  0.54548677584E+02  0.10000000000E+01 0.  0.
    9000005    1    3    3    0    0 -0.20386211662E+02  0.25102147439E+02 -0.64869038218E+03  0.64949667233E+03  0.10000000000E+01 0.  0.
          4    1    1    2  501    0  0.49558754756E+02 -0.69604732876E+01 -0.62969942053E+02  0.80444669578E+02  0.12700000000E+01 0.  1.
<mgrwt>
<rscale>  1 0.13464293E+03</rscale>
<asrwt>0</asrwt>
<pdfrwt beam="1">  1       21 0.23437140E-02 0.13464293E+03</pdfrwt>
<pdfrwt beam="2">  1        4 0.11835105E+00 0.13464293E+03</pdfrwt>
<totfact> 0.22123357E+04</totfact>
</mgrwt>
</event>
<event>
 6    4  0.6358868E-003  0.1267812E+03  0.7818608E-02  0.1232312E+00
         21   -1    0    0  501  502  0.00000000000E+00  0.00000000000E+00  0.29609276614E+02  0.29609276614E+02  0.00000000000E+00 0.  1.
          4   -1    0    0  502    0 -0.00000000000E+00 -0.00000000000E+00 -0.19865265532E+03  0.19865671488E+03  0.12700000000E+01 0.  1.
         25    2    1    2    0    0  0.12797816642E+02  0.16892663879E+02 -0.16238474730E+03  0.20601522800E+03  0.12499728721E+03 0.  0.
    9000005    1    3    3    0    0  0.42282084311E+01 -0.51829259702E+02 -0.10037971752E+03  0.11305413569E+03  0.10000000000E+01 0.  0.
    9000005    1    3    3    0    0  0.85696082108E+01  0.68721923580E+02 -0.62005029780E+02  0.92961092310E+02  0.10000000000E+01 0.  0.
          4    1    1    2  501    0 -0.12797816642E+02 -0.16892663879E+02 -0.66586314084E+01  0.22250763492E+02  0.12700000000E+01 0. -1.
<mgrwt>
<rscale>  1 0.12678118E+03</rscale>
<asrwt>0</asrwt>
<pdfrwt beam="1">  1       21 0.45552730E-02 0.12678118E+03</pdfrwt>
<pdfrwt beam="2">  1        4 0.30564356E-01 0.12678118E+03</pdfrwt>
<totfact> 0.12832907E+05</totfact>
</mgrwt>
</event>
<event>
 6    4  0.6358868E-003  0.1269853E+03  0.7818608E-02  0.1231999E+00
         21   -1    0    0  501  502  0.00000000000E+00  0.00000000000E+00  0.75366859592E+02  0.75366859592E+02  0.00000000000E+00 0.  1.
          4   -1    0    0  502    0 -0.00000000000E+00 -0.00000000000E+00 -0.13383829660E+03  0.13384432202E+03  0.12700000000E+01 0. -1.
         25    2    1    2    0    0  0.17472307861E+02 -0.13930527152E+02 -0.10026799847E+03  0.16179908844E+03  0.12500372944E+03 0.  0.
    9000005    1    3    3    0    0 -0.52902067372E+02 -0.17194027721E+02 -0.53836006257E+02  0.77418207750E+02  0.10000000000E+01 0.  0.
    9000005    1    3    3    0    0  0.70374375234E+02  0.32635005690E+01 -0.46431992210E+02  0.84380880690E+02  0.10000000000E+01 0.  0.
          4    1    1    2  501    0 -0.17472307861E+02  0.13930527152E+02  0.41796561460E+02  0.47412093169E+02  0.12700000000E+01 0.  1.
<mgrwt>
<rscale>  1 0.12698533E+03</rscale>
<asrwt>0</asrwt>
<pdfrwt beam="1">  1       21 0.11594901E-01 0.12698533E+03</pdfrwt>
<pdfrwt beam="2">  1        4 0.20591794E-01 0.12698533E+03</pdfrwt>
<totfact> 0.53571237E+04</totfact>
</mgrwt>
</event>
<event>
 6    4  0.6358868E-003  0.1368301E+03  0.7818608E-02  0.1217659E+00
         -4   -1    0    0    0  501 -0.00000000000E+00  0.00000000000E+00  0.12567252742E+04  0.12567259159E+04  0.12700000000E+01 0.  1.
         21   -1    0    0  501  502  0.00000000000E+00 -0.00000000000E+00 -0.10771247820E+02  0.10771247820E+02  0.00000000000E+00 0. -1.
         25    2    1    2    0    0  0.42088801546E+02  0.36413013614E+02  0.11364272464E+04  0.11446350328E+04  0.12500038893E+03 0.  0.
    9000005    1    3    3    0    0  0.22930031030E+02  0.41422523489E+02  0.11127271940E+04  0.11137344477E+04  0.10000000000E+01 0.  0.
    9000005    1    3    3    0    0  0.19158770516E+02 -0.50095098752E+01  0.23700052468E+02  0.30900585170E+02  0.10000000000E+01 0.  0.
         -4    1    1    2    0  502 -0.42088801546E+02 -0.36413013614E+02  0.10952677993E+03  0.12286213086E+03  0.12700000000E+01 0. -1.
<mgrwt>
<rscale>  1 0.13683008E+03</rscale>
<asrwt>0</asrwt>
<pdfrwt beam="2">  1       21 0.16571160E-02 0.13683008E+03</pdfrwt>
<pdfrwt beam="1">  1       -4 0.19334804E+00 0.13683008E+03</pdfrwt>
<totfact> 0.10974966E+04</totfact>
</mgrwt>
</event>
<event>
 6    4  0.6358868E-003  0.1270350E+03  0.7818608E-02  0.1231923E+00
         -4   -1    0    0    0  501 -0.00000000000E+00  0.00000000000E+00  0.13382494466E+02  0.13442620955E+02  0.12700000000E+01 0. -1.
         21   -1    0    0  501  502  0.00000000000E+00 -0.00000000000E+00 -0.53717647835E+03  0.53717647835E+03  0.00000000000E+00 0. -1.
         25    2    1    2    0    0 -0.43941747785E+01 -0.22218581180E+02 -0.30148937009E+03  0.32716009112E+03  0.12499964331E+03 0.  0.
    9000005    1    3    3    0    0  0.38595968462E+02 -0.41638288444E+02 -0.66339123591E+02  0.87322821558E+02  0.10000000000E+01 0.  0.
    9000005    1    3    3    0    0 -0.42990143240E+02  0.19419707264E+02 -0.23515024650E+03  0.23983726957E+03  0.10000000000E+01 0.  0.
         -4    1    1    2    0  502  0.43941747785E+01  0.22218581180E+02 -0.22230461379E+03  0.22345900818E+03  0.12700000000E+01 0.  1.
<mgrwt>
<rscale>  1 0.12703498E+03</rscale>
<asrwt>0</asrwt>
<pdfrwt beam="2">  1       21 0.82642523E-01 0.12703498E+03</pdfrwt>
<pdfrwt beam="1">  1       -4 0.20635862E-02 0.12703498E+03</pdfrwt>
<totfact> 0.50293894E+04</totfact>
</mgrwt>
</event>
<event>
 6    4  0.6358868E-003  0.1291460E+03  0.7818608E-02  0.1228728E+00
         21   -1    0    0  501  502  0.00000000000E+00  0.00000000000E+00  0.56029952689E+02  0.56029952689E+02  0.00000000000E+00 0. -1.
          4   -1    0    0  502    0 -0.00000000000E+00 -0.00000000000E+00 -0.19224857767E+03  0.19225277245E+03  0.12700000000E+01 0.  1.
         25    2    1    2    0    0 -0.29289726808E+02 -0.13972314115E+02 -0.16174249687E+03  0.20697661670E+03  0.12500228362E+03 0.  0.
    9000005    1    3    3    0    0  0.31241467724E+02 -0.26339567942E+01 -0.13709185705E+03  0.14063479052E+03  0.10000000000E+01 0.  0.
    9000005    1    3    3    0    0 -0.60531194532E+02 -0.11338357321E+02 -0.24650639815E+02  0.66341826185E+02  0.10000000000E+01 0.  0.
          4    1    1    2  501    0  0.29289726808E+02  0.13972314115E+02  0.25523871887E+02  0.41306108438E+02  0.12700000000E+01 0. -1.
<mgrwt>
<rscale>  1 0.12914598E+03</rscale>
<asrwt>0</asrwt>
<pdfrwt beam="1">  1       21 0.86199929E-02 0.12914598E+03</pdfrwt>
<pdfrwt beam="2">  1        4 0.29578134E-01 0.12914598E+03</pdfrwt>
<totfact> 0.46282488E+04</totfact>
</mgrwt>
</event>
<event>
 6    4  0.6358868E-003  0.1286041E+03  0.7818608E-02  0.1229542E+00
         21   -1    0    0  501  502  0.00000000000E+00  0.00000000000E+00  0.64629503806E+03  0.64629503806E+03  0.00000000000E+00 0.  1.
         -4   -1    0    0    0  501 -0.00000000000E+00 -0.00000000000E+00 -0.97254295174E+01  0.98080007799E+01  0.12700000000E+01 0. -1.
         25    2    1    2    0    0 -0.30104846975E+02 -0.22871770061E+01  0.50701962627E+03  0.52307543344E+03  0.12500989825E+03 0.  0.
    9000005    1    3    3    0    0  0.30325299580E+02  0.21303707278E+02  0.36569973136E+03  0.36757416294E+03  0.10000000000E+01 0.  0.
    9000005    1    3    3    0    0 -0.60430146555E+02 -0.23590884284E+02  0.14131989490E+03  0.15550127051E+03  0.10000000000E+01 0.  0.
         -4    1    1    2    0  502  0.30104846975E+02  0.22871770061E+01  0.12954998227E+03  0.13302760539E+03  0.12700000000E+01 0.  1.
<mgrwt>
<rscale>  1 0.12860407E+03</rscale>
<asrwt>0</asrwt>
<pdfrwt beam="1">  1       21 0.99429972E-01 0.12860407E+03</pdfrwt>
<pdfrwt beam="2">  1       -4 0.15026681E-02 0.12860407E+03</pdfrwt>
<totfact> 0.53594473E+04</totfact>
</mgrwt>
</event>
<event>
 6    4  0.6358868E-003  0.1278307E+03  0.7818608E-02  0.1230711E+00
         21   -1    0    0  501  502  0.00000000000E+00  0.00000000000E+00  0.99544647007E+02  0.99544647007E+02  0.00000000000E+00 0. -1.
         -4   -1    0    0    0  501 -0.00000000000E+00 -0.00000000000E+00 -0.68329550332E+02  0.68341351673E+02  0.12700000000E+01 0. -1.
         25    2    1    2    0    0  0.25297492467E+02  0.86225786085E+01  0.14179486270E+01  0.12783859029E+03  0.12500553029E+03 0.  0.
    9000005    1    3    3    0    0 -0.79622532154E+01  0.61060661630E+02 -0.15430293247E+02  0.63489336307E+02  0.10000000000E+01 0.  0.
    9000005    1    3    3    0    0  0.33259745683E+02 -0.52438083022E+02  0.16848241874E+02  0.64349253983E+02  0.10000000000E+01 0.  0.
         -4    1    1    2    0  502 -0.25297492467E+02 -0.86225786085E+01  0.29797148048E+02  0.40047408391E+02  0.12700000000E+01 0.  1.
<mgrwt>
<rscale>  1 0.12783073E+03</rscale>
<asrwt>0</asrwt>
<pdfrwt beam="1">  1       21 0.15314561E-01 0.12783073E+03</pdfrwt>
<pdfrwt beam="2">  1       -4 0.10513769E-01 0.12783073E+03</pdfrwt>
<totfact> 0.10523855E+05</totfact>
</mgrwt>
</event>
<event>
 6    4  0.6358868E-003  0.1290266E+03  0.7818608E-02  0.1228907E+00
          4   -1    0    0  502    0 -0.00000000000E+00  0.00000000000E+00  0.42386945954E+02  0.42405967591E+02  0.12700000000E+01 0.  1.
         21   -1    0    0  501  502  0.00000000000E+00 -0.00000000000E+00 -0.17523111580E+03  0.17523111580E+03  0.00000000000E+00 0.  1.
         25    2    1    2    0    0  0.30227453040E+02  0.10379163293E+02 -0.69210353687E+02  0.14641699208E+03  0.12500574612E+03 0.  0.
    9000005    1    3    3    0    0 -0.19968905326E+02  0.29243452093E+02 -0.83677024278E+02  0.90866831474E+02  0.10000000000E+01 0.  0.
    9000005    1    3    3    0    0  0.50196358365E+02 -0.18864288801E+02  0.14466670590E+02  0.55550160603E+02  0.10000000000E+01 0.  0.
          4    1    1    2  501    0 -0.30227453040E+02 -0.10379163293E+02 -0.63633816163E+02  0.71220091318E+02  0.12700000000E+01 0. -1.
<mgrwt>
<rscale>  1 0.12902660E+03</rscale>
<asrwt>0</asrwt>
<pdfrwt beam="2">  1       21 0.26958633E-01 0.12902660E+03</pdfrwt>
<pdfrwt beam="1">  1        4 0.65228859E-02 0.12902660E+03</pdfrwt>
<totfact> 0.81626701E+04</totfact>
</mgrwt>
</event>
<event>
 6    4  0.6358868E-003  0.1273026E+03  0.7818608E-02  0.1231514E+00
         21   -1    0    0  501  502  0.00000000000E+00  0.00000000000E+00  0.89646175623E+02  0.89646175623E+02  0.00000000000E+00 0.  1.
         -4   -1    0    0    0  501 -0.00000000000E+00 -0.00000000000E+00 -0.76359083201E+02  0.76369643755E+02  0.12700000000E+01 0.  1.
         25    2    1    2    0    0  0.16751581258E+02 -0.17345520692E+02 -0.15724109883E+02  0.12827002065E+03  0.12499787199E+03 0.  0.
    9000005    1    3    3    0    0  0.44310644879E+02  0.78936702366E+00  0.42455540030E+02  0.61380202257E+02  0.10000000000E+01 0.  0.
    9000005    1    3    3    0    0 -0.27559063621E+02 -0.18134887716E+02 -0.58179649913E+02  0.66889818389E+02  0.10000000000E+01 0.  0.
         -4    1    1    2    0  502 -0.16751581258E+02  0.17345520692E+02  0.29011202305E+02  0.37745798732E+02  0.12700000000E+01 0. -1.
<mgrwt>
<rscale>  1 0.12730259E+03</rscale>
<asrwt>0</asrwt>
<pdfrwt beam="1">  1       21 0.13791719E-01 0.12730259E+03</pdfrwt>
<pdfrwt beam="2">  1       -4 0.11749056E-01 0.12730259E+03</pdfrwt>
<totfact> 0.10515088E+05</totfact>
</mgrwt>
</event>
<event>
 6    4  0.6358868E-003  0.1274400E+03  0.7818608E-02  0.1231305E+00
          4   -1    0    0  502    0 -0.00000000000E+00  0.00000000000E+00  0.23107949045E+03  0.23108298034E+03  0.12700000000E+01 0. -1.
         21   -1    0    0  501  502  0.00000000000E+00 -0.00000000000E+00 -0.25264399278E+02  0.25264399278E+02  0.00000000000E+00 0. -1.
         25    2    1    2    0    0  0.24838246689E+02 -0.15240650703E+00  0.17949752357E+03  0.22013703593E+03  0.12499596751E+03 0.  0.
    9000005    1    3    3    0    0  0.39245043648E+02  0.32951548620E+02  0.17661911678E+03  0.18390565630E+03  0.10000000000E+01 0.  0.
    9000005    1    3    3    0    0 -0.14406796960E+02 -0.33103955127E+02  0.28784067866E+01  0.36231379622E+02  0.10000000000E+01 0.  0.
          4    1    1    2  501    0 -0.24838246689E+02  0.15240650703E+00  0.26317567598E+02  0.36210343696E+02  0.12700000000E+01 0.  1.
<mgrwt>
<rscale>  1 0.12744000E+03</rscale>
<asrwt>0</asrwt>
<pdfrwt beam="2">  1       21 0.38868308E-02 0.12744000E+03</pdfrwt>
<pdfrwt beam="1">  1        4 0.35553413E-01 0.12744000E+03</pdfrwt>
<totfact> 0.12527859E+05</totfact>
</mgrwt>
</event>
<event>
 6    4  0.6358868E-003  0.1513022E+03  0.7818608E-02  0.1198882E+00
          4   -1    0    0  502    0 -0.00000000000E+00  0.00000000000E+00  0.16797969602E+04  0.16797974402E+04  0.12700000000E+01 0.  1.
         21   -1    0    0  501  502  0.00000000000E+00 -0.00000000000E+00 -0.84751090124E+01  0.84751090124E+01  0.00000000000E+00 0.  1.
         25    2    1    2    0    0 -0.15545331717E+02 -0.83862333817E+02  0.11705060868E+04  0.11802444092E+04  0.12497126808E+03 0.  0.
    9000005    1    3    3    0    0 -0.12663109831E+02 -0.84548138852E+02  0.11730817811E+04  0.11761932695E+04  0.10000000000E+01 0.  0.
    9000005    1    3    3    0    0 -0.28822218852E+01  0.68580503474E+00 -0.25756942996E+01  0.40511396750E+01  0.10000000000E+01 0.  0.
          4    1    1    2  501    0  0.15545331717E+02  0.83862333817E+02  0.50081576436E+03  0.50802814007E+03  0.12700000000E+01 0. -1.
<mgrwt>
<rscale>  1 0.15130223E+03</rscale>
<asrwt>0</asrwt>
<pdfrwt beam="2">  1       21 0.13038643E-02 0.15130223E+03</pdfrwt>
<pdfrwt beam="1">  1        4 0.25843739E+00 0.15130223E+03</pdfrwt>
<totfact> 0.66296753E+03</totfact>
</mgrwt>
</event>
<event>
 6    4  0.6358868E-003  0.1467965E+03  0.7818608E-02  0.1204466E+00
         21   -1    0    0  501  502  0.00000000000E+00  0.00000000000E+00  0.79098105257E+02  0.79098105257E+02  0.00000000000E+00 0.  1.
          4   -1    0    0  502    0 -0.00000000000E+00 -0.00000000000E+00 -0.16311903123E+03  0.16312397509E+03  0.12700000000E+01 0.  1.
         25    2    1    2    0    0  0.54952148746E+02  0.53899455313E+02 -0.74598607949E+02  0.16466382539E+03  0.12499733257E+03 0.  0.
    9000005    1    3    3    0    0  0.57383049364E+02  0.98197233085E+01 -0.98522259717E+02  0.11444158763E+03  0.10000000000E+01 0.  0.
    9000005    1    3    3    0    0 -0.24309006171E+01  0.44079732005E+02  0.23923651768E+02  0.50222237757E+02  0.10000000000E+01 0.  0.
          4    1    1    2  501    0 -0.54952148746E+02 -0.53899455313E+02 -0.94223180211E+01  0.77558254956E+02  0.12700000000E+01 0. -1.
<mgrwt>
<rscale>  1 0.14679654E+03</rscale>
<asrwt>0</asrwt>
<pdfrwt beam="1">  1       21 0.12168939E-01 0.14679654E+03</pdfrwt>
<pdfrwt beam="2">  1        4 0.25096400E-01 0.14679654E+03</pdfrwt>
<totfact> 0.34853408E+04</totfact>
</mgrwt>
</event>
<event>
 6    4  0.6358868E-003  0.1280451E+03  0.7818608E-02  0.1230386E+00
         21   -1    0    0  501  502  0.00000000000E+00  0.00000000000E+00  0.12666808873E+03  0.12666808873E+03  0.00000000000E+00 0. -1.
         -4   -1    0    0    0  501 -0.00000000000E+00 -0.00000000000E+00 -0.10138211709E+03  0.10139007134E+03  0.12700000000E+01 0.  1.
         25    2    1    2    0    0 -0.23298403752E+02  0.15109368758E+02 -0.57769965014E+02  0.14047385694E+03  0.12499770792E+03 0.  0.
    9000005    1    3    3    0    0 -0.20815118999E+02  0.67095096579E+02 -0.12235872023E+02  0.71314358499E+02  0.10000000000E+01 0.  0.
    9000005    1    3    3    0    0 -0.24832847527E+01 -0.51985727821E+02 -0.45534092991E+02  0.69159498442E+02  0.10000000000E+01 0.  0.
         -4    1    1    2    0  502  0.23298403752E+02 -0.15109368758E+02  0.83055936647E+02  0.87584303125E+02  0.12700000000E+01 0. -1.
<mgrwt>
<rscale>  1 0.12804505E+03</rscale>
<asrwt>0</asrwt>
<pdfrwt beam="1">  1       21 0.19487398E-01 0.12804505E+03</pdfrwt>
<pdfrwt beam="2">  1       -4 0.15598350E-01 0.12804505E+03</pdfrwt>
<totfact> 0.34428951E+04</totfact>
</mgrwt>
</event>
<event>
 6    4  0.6358868E-003  0.1266452E+03  0.7818608E-02  0.1232520E+00
         -4   -1    0    0    0  501 -0.00000000000E+00  0.00000000000E+00  0.32038131961E+04  0.32038134478E+04  0.12700000000E+01 0.  1.
         21   -1    0    0  501  502  0.00000000000E+00 -0.00000000000E+00 -0.17314802381E+01  0.17314802381E+01  0.00000000000E+00 0.  1.
         25    2    1    2    0    0 -0.19277141493E+02  0.65933187081E+01  0.29074255063E+04  0.29101824817E+04  0.12499568613E+03 0.  0.
    9000005    1    3    3    0    0 -0.36240855372E+02  0.13360951865E+01  0.24260516991E+03  0.24530277865E+03  0.10000000000E+01 0.  0.
    9000005    1    3    3    0    0  0.16963713879E+02  0.52572235215E+01  0.26648203364E+04  0.26648797030E+04  0.10000000000E+01 0.  0.
         -4    1    1    2    0  502  0.19277141493E+02 -0.65933187081E+01  0.29465620952E+03  0.29536244640E+03  0.12700000000E+01 0. -1.
<mgrwt>
<rscale>  1 0.12664518E+03</rscale>
<asrwt>0</asrwt>
<pdfrwt beam="2">  1       21 0.26638414E-03 0.12664518E+03</pdfrwt>
<pdfrwt beam="1">  1       -4 0.49292544E+00 0.12664518E+03</pdfrwt>
<totfact> 0.23993345E+03</totfact>
</mgrwt>
</event>
<event>
 6    4  0.6358868E-003  0.1283198E+03  0.7818608E-02  0.1229970E+00
          4   -1    0    0  502    0 -0.00000000000E+00  0.00000000000E+00  0.16057706126E+03  0.16058208338E+03  0.12700000000E+01 0.  1.
         21   -1    0    0  501  502  0.00000000000E+00 -0.00000000000E+00 -0.39502975258E+02  0.39502975258E+02  0.00000000000E+00 0.  1.
         25    2    1    2    0    0  0.18283941461E+02 -0.22456113058E+02  0.11013800645E+03  0.16910457664E+03  0.12500959102E+03 0.  0.
    9000005    1    3    3    0    0 -0.31130412142E+02 -0.53038145248E+02  0.87002004129E+02  0.10654809306E+03  0.10000000000E+01 0.  0.
    9000005    1    3    3    0    0  0.49414353603E+02  0.30582032190E+02  0.23136002322E+02  0.62556483584E+02  0.10000000000E+01 0.  0.
          4    1    1    2  501    0 -0.18283941461E+02  0.22456113058E+02  0.10936079554E+02  0.30980482001E+02  0.12700000000E+01 0. -1.
<mgrwt>
<rscale>  1 0.12831982E+03</rscale>
<asrwt>0</asrwt>
<pdfrwt beam="2">  1       21 0.60773809E-02 0.12831982E+03</pdfrwt>
<pdfrwt beam="1">  1        4 0.24706119E-01 0.12831982E+03</pdfrwt>
<totfact> 0.11770282E+05</totfact>
</mgrwt>
</event>
<event>
 6    4  0.6358868E-003  0.1279339E+03  0.7818608E-02  0.1230554E+00
         21   -1    0    0  501  502  0.00000000000E+00  0.00000000000E+00  0.45013089652E+03  0.45013089652E+03  0.00000000000E+00 0. -1.
         -4   -1    0    0    0  501 -0.00000000000E+00 -0.00000000000E+00 -0.14789877646E+02  0.14844304659E+02  0.12700000000E+01 0. -1.
         25    2    1    2    0    0 -0.16629360960E+02  0.21624750714E+02  0.28817124667E+03  0.31529313733E+03  0.12499171791E+03 0.  0.
    9000005    1    3    3    0    0 -0.66651757003E+02  0.14207159653E+02  0.10431912846E+03  0.12461051585E+03  0.10000000000E+01 0.  0.
    9000005    1    3    3    0    0  0.50022396043E+02  0.74175910615E+01  0.18385211821E+03  0.19068262148E+03  0.10000000000E+01 0.  0.
         -4    1    1    2    0  502  0.16629360960E+02 -0.21624750714E+02  0.14716977220E+03  0.14968206385E+03  0.12700000000E+01 0.  1.
<mgrwt>
<rscale>  1 0.12793395E+03</rscale>
<asrwt>0</asrwt>
<pdfrwt beam="1">  1       21 0.69250897E-01 0.12793395E+03</pdfrwt>
<pdfrwt beam="2">  1       -4 0.22796906E-02 0.12793395E+03</pdfrwt>
<totfact> 0.63798538E+04</totfact>
</mgrwt>
</event>
<event>
 6    4  0.6358868E-003  0.1275372E+03  0.7818608E-02  0.1231156E+00
          4   -1    0    0  502    0 -0.00000000000E+00  0.00000000000E+00  0.97557026210E+02  0.97565292307E+02  0.12700000000E+01 0. -1.
         21   -1    0    0  501  502  0.00000000000E+00 -0.00000000000E+00 -0.11700242879E+03  0.11700242879E+03  0.00000000000E+00 0.  1.
         25    2    1    2    0    0 -0.21926532138E+02 -0.12770075407E+02  0.52762761463E+02  0.13802048410E+03  0.12498758897E+03 0.  0.
    9000005    1    3    3    0    0  0.39330293099E+02 -0.36634255243E+02  0.48051247350E+02  0.72103141293E+02  0.10000000000E+01 0.  0.
    9000005    1    3    3    0    0 -0.61256825237E+02  0.23864179836E+02  0.47115141125E+01  0.65917342806E+02  0.10000000000E+01 0.  0.
          4    1    1    2  501    0  0.21926532138E+02  0.12770075407E+02 -0.72208164043E+02  0.76547236998E+02  0.12700000000E+01 0.  1.
<mgrwt>
<rscale>  1 0.12753723E+03</rscale>
<asrwt>0</asrwt>
<pdfrwt beam="2">  1       21 0.18000374E-01 0.12753723E+03</pdfrwt>
<pdfrwt beam="1">  1        4 0.15009939E-01 0.12753723E+03</pdfrwt>
<totfact> 0.42581628E+04</totfact>
</mgrwt>
</event>
<event>
 6    4  0.6358868E-003  0.1270917E+03  0.7818608E-02  0.1231836E+00
          4   -1    0    0  502    0 -0.00000000000E+00  0.00000000000E+00  0.15301891986E+02  0.15354504171E+02  0.12700000000E+01 0.  1.
         21   -1    0    0  501  502  0.00000000000E+00 -0.00000000000E+00 -0.37556525979E+03  0.37556525979E+03  0.00000000000E+00 0.  1.
         25    2    1    2    0    0  0.13715757862E+02 -0.18416548430E+02 -0.28134742303E+03  0.30872103824E+03  0.12500006296E+03 0.  0.
    9000005    1    3    3    0    0 -0.28894066209E+02 -0.50868843435E+02 -0.21821590676E+03  0.22592407631E+03  0.10000000000E+01 0.  0.
    9000005    1    3    3    0    0  0.42609824071E+02  0.32452295005E+02 -0.63131516267E+02  0.82796961929E+02  0.10000000000E+01 0.  0.
          4    1    1    2  501    0 -0.13715757862E+02  0.18416548430E+02 -0.78915944782E+02  0.82198725724E+02  0.12700000000E+01 0. -1.
<mgrwt>
<rscale>  1 0.12709173E+03</rscale>
<asrwt>0</asrwt>
<pdfrwt beam="2">  1       21 0.57779266E-01 0.12709173E+03</pdfrwt>
<pdfrwt beam="1">  1        4 0.23583497E-02 0.12709173E+03</pdfrwt>
<totfact> 0.89160637E+04</totfact>
</mgrwt>
</event>
<event>
 6    4  0.6358868E-003  0.1286425E+03  0.7818608E-02  0.1229484E+00
         21   -1    0    0  501  502  0.00000000000E+00  0.00000000000E+00  0.69447012639E+02  0.69447012639E+02  0.00000000000E+00 0. -1.
         -4   -1    0    0    0  501 -0.00000000000E+00 -0.00000000000E+00 -0.92438847185E+02  0.92447570920E+02  0.12700000000E+01 0. -1.
         25    2    1    2    0    0  0.34851330270E+01 -0.30206414939E+02 -0.26230122237E+02  0.13128946858E+03  0.12499732634E+03 0.  0.
    9000005    1    3    3    0    0  0.12683926975E+02 -0.64035285589E+02 -0.55437413214E+02  0.85648739557E+02  0.10000000000E+01 0.  0.
    9000005    1    3    3    0    0 -0.91987939483E+01  0.33828870650E+02  0.29207290977E+02  0.45640729023E+02  0.10000000000E+01 0.  0.
         -4    1    1    2    0  502 -0.34851330270E+01  0.30206414939E+02  0.32382876913E+01  0.30605114979E+02  0.12700000000E+01 0.  1.
<mgrwt>
<rscale>  1 0.12864255E+03</rscale>
<asrwt>0</asrwt>
<pdfrwt beam="1">  1       21 0.10684156E-01 0.12864255E+03</pdfrwt>
<pdfrwt beam="2">  1       -4 0.14222925E-01 0.12864255E+03</pdfrwt>
<totfact> 0.11921567E+05</totfact>
</mgrwt>
</event>
<event>
 6    4  0.6358868E-003  0.1608516E+03  0.7818608E-02  0.1187739E+00
         -4   -1    0    0    0  501 -0.00000000000E+00  0.00000000000E+00  0.95458926635E+02  0.95467374397E+02  0.12700000000E+01 0. -1.
         21   -1    0    0  501  502  0.00000000000E+00 -0.00000000000E+00 -0.30701837700E+03  0.30701837700E+03  0.00000000000E+00 0.  1.
         25    2    1    2    0    0 -0.10107923257E+03  0.55552241057E+01  0.76434647603E+01  0.16103305899E+03  0.12500140704E+03 0.  0.
    9000005    1    3    3    0    0 -0.34801834866E+02 -0.39198104977E+02  0.48325664350E+02  0.71302377090E+02  0.10000000000E+01 0.  0.
    9000005    1    3    3    0    0 -0.66277397704E+02  0.44753329083E+02 -0.40682199590E+02  0.89730681898E+02  0.10000000000E+01 0.  0.
         -4    1    1    2    0  502  0.10107923257E+03 -0.55552241057E+01 -0.21920291512E+03  0.24145269241E+03  0.12700000000E+01 0.  1.
<mgrwt>
<rscale>  1 0.16085156E+03</rscale>
<asrwt>0</asrwt>
<pdfrwt beam="2">  1       21 0.47233595E-01 0.16085156E+03</pdfrwt>
<pdfrwt beam="1">  1       -4 0.14686841E-01 0.16085156E+03</pdfrwt>
<totfact> 0.69936476E+03</totfact>
</mgrwt>
</event>
<event>
 6    4  0.6358868E-003  0.1269324E+03  0.7818608E-02  0.1232080E+00
         21   -1    0    0  501  502  0.00000000000E+00  0.00000000000E+00  0.11682718785E+03  0.11682718785E+03  0.00000000000E+00 0.  1.
          4   -1    0    0  502    0 -0.00000000000E+00 -0.00000000000E+00 -0.22174946437E+03  0.22175310110E+03  0.12700000000E+01 0. -1.
         25    2    1    2    0    0  0.19381295754E+02 -0.10572322209E+02 -0.20224442298E+03  0.23877737460E+03  0.12499767747E+03 0.  0.
    9000005    1    3    3    0    0 -0.49570103011E+01 -0.59034477214E+02 -0.51263006141E+02  0.78348817793E+02  0.10000000000E+01 0.  0.
    9000005    1    3    3    0    0  0.24338306055E+02  0.48462155005E+02 -0.15098141684E+03  0.16042855681E+03  0.10000000000E+01 0.  0.
          4    1    1    2  501    0 -0.19381295754E+02  0.10572322209E+02  0.97322146461E+02  0.99802914355E+02  0.12700000000E+01 0.  1.
<mgrwt>
<rscale>  1 0.12693238E+03</rscale>
<asrwt>0</asrwt>
<pdfrwt beam="1">  1       21 0.17973413E-01 0.12693238E+03</pdfrwt>
<pdfrwt beam="2">  1        4 0.34116113E-01 0.12693238E+03</pdfrwt>
<totfact> 0.95354140E+03</totfact>
</mgrwt>
</event>
<event>
 6    4  0.6358868E-003  0.1305875E+03  0.7818608E-02  0.1226587E+00
         21   -1    0    0  501  502  0.00000000000E+00  0.00000000000E+00  0.51682149142E+03  0.51682149142E+03  0.00000000000E+00 0.  1.
         -4   -1    0    0    0  501 -0.00000000000E+00 -0.00000000000E+00 -0.14334567484E+02  0.14390716624E+02  0.12700000000E+01 0.  1.
         25    2    1    2    0    0  0.28586432468E+02 -0.24723031082E+02  0.33599903557E+03  0.36048364494E+03  0.12499877590E+03 0.  0.
    9000005    1    3    3    0    0  0.89448679517E+01 -0.62280904964E+02  0.29453488852E+03  0.30118220787E+03  0.10000000000E+01 0.  0.
    9000005    1    3    3    0    0  0.19641564516E+02  0.37557873882E+02  0.41464147054E+02  0.59301437066E+02  0.10000000000E+01 0.  0.
         -4    1    1    2    0  502 -0.28586432468E+02  0.24723031082E+02  0.16648788837E+03  0.17072856311E+03  0.12700000000E+01 0. -1.
<mgrwt>
<rscale>  1 0.13058754E+03</rscale>
<asrwt>0</asrwt>
<pdfrwt beam="1">  1       21 0.79510984E-01 0.13058754E+03</pdfrwt>
<pdfrwt beam="2">  1       -4 0.22097577E-02 0.13058754E+03</pdfrwt>
<totfact> 0.49483437E+04</totfact>
</mgrwt>
</event>
<event>
 6    4  0.6358868E-003  0.1280924E+03  0.7818608E-02  0.1230314E+00
         21   -1    0    0  501  502  0.00000000000E+00  0.00000000000E+00  0.16678861447E+03  0.16678861447E+03  0.00000000000E+00 0. -1.
          4   -1    0    0  502    0 -0.00000000000E+00 -0.00000000000E+00 -0.51946682460E+02  0.51962204712E+02  0.12700000000E+01 0. -1.
         25    2    1    2    0    0 -0.16029272402E+02 -0.22972005152E+02  0.33052161938E+02  0.13228793707E+03  0.12499200891E+03 0.  0.
    9000005    1    3    3    0    0 -0.20875230910E+02 -0.30094000422E+02  0.78177212488E+02  0.86337133838E+02  0.10000000000E+01 0.  0.
    9000005    1    3    3    0    0  0.48459585076E+01  0.71219952709E+01 -0.45125050551E+02  0.45950803232E+02  0.10000000000E+01 0.  0.
          4    1    1    2  501    0  0.16029272402E+02  0.22972005152E+02  0.81789770070E+02  0.86462882109E+02  0.12700000000E+01 0.  1.
<mgrwt>
<rscale>  1 0.12809236E+03</rscale>
<asrwt>0</asrwt>
<pdfrwt beam="1">  1       21 0.25659787E-01 0.12809236E+03</pdfrwt>
<pdfrwt beam="2">  1        4 0.79933633E-02 0.12809236E+03</pdfrwt>
<totfact> 0.64134354E+04</totfact>
</mgrwt>
</event>
<event>
 6    4  0.6358868E-003  0.1333838E+03  0.7818608E-02  0.1222520E+00
          4   -1    0    0  502    0 -0.00000000000E+00  0.00000000000E+00  0.32859293444E+02  0.32883826810E+02  0.12700000000E+01 0.  1.
         21   -1    0    0  501  502  0.00000000000E+00 -0.00000000000E+00 -0.44499214472E+03  0.44499214472E+03  0.00000000000E+00 0. -1.
         25    2    1    2    0    0  0.22905230970E+02 -0.40481691612E+02 -0.11203579989E+03  0.17419312692E+03  0.12501123168E+03 0.  0.
    9000005    1    3    3    0    0 -0.40425886492E+02 -0.38773633599E+02 -0.14476835155E+02  0.57863855015E+02  0.10000000000E+01 0.  0.
    9000005    1    3    3    0    0  0.63331117462E+02 -0.17080580134E+01 -0.97558964739E+02  0.11632927191E+03  0.10000000000E+01 0.  0.
          4    1    1    2  501    0 -0.22905230970E+02  0.40481691612E+02 -0.30009705138E+03  0.30368284460E+03  0.12700000000E+01 0. -1.
<mgrwt>
<rscale>  1 0.13338375E+03</rscale>
<asrwt>0</asrwt>
<pdfrwt beam="2">  1       21 0.68460329E-01 0.13338375E+03</pdfrwt>
<pdfrwt beam="1">  1        4 0.50573026E-02 0.13338375E+03</pdfrwt>
<totfact> 0.18720285E+04</totfact>
</mgrwt>
</event>
<event>
 6    4  0.6358868E-003  0.1270919E+03  0.7818608E-02  0.1231836E+00
         -4   -1    0    0    0  501 -0.00000000000E+00  0.00000000000E+00  0.16028140339E+02  0.16078376247E+02  0.12700000000E+01 0.  1.
         21   -1    0    0  501  502  0.00000000000E+00 -0.00000000000E+00 -0.39304135933E+03  0.39304135933E+03  0.00000000000E+00 0. -1.
         25    2    1    2    0    0  0.28365556545E+01 -0.22812771883E+02 -0.25458016238E+03  0.28454070500E+03  0.12499554038E+03 0.  0.
    9000005    1    3    3    0    0  0.23958059060E+02 -0.69256272882E+02 -0.17819005655E+03  0.19267360011E+03  0.10000000000E+01 0.  0.
    9000005    1    3    3    0    0 -0.21121503405E+02  0.46443500999E+02 -0.76390105835E+02  0.91867104889E+02  0.10000000000E+01 0.  0.
         -4    1    1    2    0  502 -0.28365556545E+01  0.22812771883E+02 -0.12243305660E+03  0.12457903057E+03  0.12700000000E+01 0. -1.
<mgrwt>
<rscale>  1 0.12709191E+03</rscale>
<asrwt>0</asrwt>
<pdfrwt beam="2">  1       21 0.60467898E-01 0.12709191E+03</pdfrwt>
<pdfrwt beam="1">  1       -4 0.24698900E-02 0.12709191E+03</pdfrwt>
<totfact> 0.75376710E+04</totfact>
</mgrwt>
</event>
<event>
 6    4  0.6358868E-003  0.1410660E+03  0.7818608E-02  0.1211902E+00
          4   -1    0    0  502    0 -0.00000000000E+00  0.00000000000E+00  0.15322963946E+04  0.15322969209E+04  0.12700000000E+01 0.  1.
         21   -1    0    0  501  502  0.00000000000E+00 -0.00000000000E+00 -0.94884438519E+01  0.94884438519E+01  0.00000000000E+00 0. -1.
         25    2    1    2    0    0 -0.60279593694E+02  0.25315633994E+02  0.13442230525E+04  0.13516046888E+04  0.12500043617E+03 0.  0.
    9000005    1    3    3    0    0 -0.90646054942E+02  0.35614617066E+02  0.11955011669E+04  0.11994620245E+04  0.10000000000E+01 0.  0.
    9000005    1    3    3    0    0  0.30366461248E+02 -0.10298983072E+02  0.14872188567E+03  0.15214266430E+03  0.10000000000E+01 0.  0.
          4    1    1    2  501    0  0.60279593694E+02 -0.25315633994E+02  0.17858489816E+03  0.19018067592E+03  0.12700000000E+01 0. -1.
<mgrwt>
<rscale>  1 0.14106601E+03</rscale>
<asrwt>0</asrwt>
<pdfrwt beam="2">  1       21 0.14597618E-02 0.14106601E+03</pdfrwt>
<pdfrwt beam="1">  1        4 0.23574429E+00 0.14106601E+03</pdfrwt>
<totfact> 0.74687393E+03</totfact>
</mgrwt>
</event>
<event>
 6    4  0.6358868E-003  0.1269636E+03  0.7818608E-02  0.1232032E+00
         -4   -1    0    0    0  501 -0.00000000000E+00  0.00000000000E+00  0.60998663526E+02  0.61011882875E+02  0.12700000000E+01 0. -1.
         21   -1    0    0  501  502  0.00000000000E+00 -0.00000000000E+00 -0.91299631177E+02  0.91299631177E+02  0.00000000000E+00 0. -1.
         25    2    1    2    0    0 -0.46251363524E+01  0.21765140306E+02 -0.24976396528E+02  0.12939695151E+03  0.12499854982E+03 0.  0.
    9000005    1    3    3    0    0 -0.24200732880E+01 -0.33806309914E+02 -0.56179143533E+02  0.65618743609E+02  0.10000000000E+01 0.  0.
    9000005    1    3    3    0    0 -0.22050630644E+01  0.55571450219E+02  0.31202747004E+02  0.63778207902E+02  0.10000000000E+01 0.  0.
         -4    1    1    2    0  502  0.46251363524E+01 -0.21765140306E+02 -0.53245711228E+01  0.22914562541E+02  0.12700000000E+01 0.  1.
<mgrwt>
<rscale>  1 0.12696358E+03</rscale>
<asrwt>0</asrwt>
<pdfrwt beam="2">  1       21 0.14046097E-01 0.12696358E+03</pdfrwt>
<pdfrwt beam="1">  1       -4 0.93861061E-02 0.12696358E+03</pdfrwt>
<totfact> 0.14865003E+05</totfact>
</mgrwt>
</event>
<event>
 6    4  0.6358868E-003  0.1284713E+03  0.7818608E-02  0.1229742E+00
         21   -1    0    0  501  502  0.00000000000E+00  0.00000000000E+00  0.68997984293E+02  0.68997984293E+02  0.00000000000E+00 0.  1.
          4   -1    0    0  502    0 -0.00000000000E+00 -0.00000000000E+00 -0.10439713852E+03  0.10440486307E+03  0.12700000000E+01 0.  1.
         25    2    1    2    0    0  0.25405839109E+01 -0.29550669340E+02 -0.52905829376E+02  0.13893847155E+03  0.12500070188E+03 0.  0.
    9000005    1    3    3    0    0 -0.30508736640E+02 -0.32431176579E+02  0.27229716227E+02  0.52201740119E+02  0.10000000000E+01 0.  0.
    9000005    1    3    3    0    0  0.33049320551E+02  0.28805072381E+01 -0.80135545603E+02  0.86736731434E+02  0.10000000000E+01 0.  0.
          4    1    1    2  501    0 -0.25405839109E+01  0.29550669340E+02  0.17506675146E+02  0.34464375806E+02  0.12700000000E+01 0. -1.
<mgrwt>
<rscale>  1 0.12847129E+03</rscale>
<asrwt>0</asrwt>
<pdfrwt beam="1">  1       21 0.10615075E-01 0.12847129E+03</pdfrwt>
<pdfrwt beam="2">  1        4 0.16062592E-01 0.12847129E+03</pdfrwt>
<totfact> 0.97498202E+04</totfact>
</mgrwt>
</event>
<event>
 6    4  0.6358868E-003  0.1276795E+03  0.7818608E-02  0.1230940E+00
         -4   -1    0    0    0  501 -0.00000000000E+00  0.00000000000E+00  0.13685029032E+02  0.13743832057E+02  0.12700000000E+01 0. -1.
         21   -1    0    0  501  502  0.00000000000E+00 -0.00000000000E+00 -0.13900527872E+04  0.13900527872E+04  0.00000000000E+00 0.  1.
         25    2    1    2    0    0 -0.63294576760E+01 -0.24987361907E+02 -0.28695680498E+03  0.31408001935E+03  0.12505047117E+03 0.  0.
    9000005    1    3    3    0    0  0.25531315766E+02  0.25559211474E+01 -0.17058579859E+01  0.25735010571E+02  0.10000000000E+01 0.  0.
    9000005    1    3    3    0    0 -0.31860773442E+02 -0.27543283055E+02 -0.28525094699E+03  0.28834500878E+03  0.10000000000E+01 0.  0.
         -4    1    1    2    0  502  0.63294576760E+01  0.24987361907E+02 -0.10894109531E+04  0.10897165999E+04  0.12700000000E+01 0.  1.
<mgrwt>
<rscale>  1 0.12767948E+03</rscale>
<asrwt>0</asrwt>
<pdfrwt beam="2">  1       21 0.21385436E+00 0.12767948E+03</pdfrwt>
<pdfrwt beam="1">  1       -4 0.21099562E-02 0.12767948E+03</pdfrwt>
<totfact> 0.43476193E+03</totfact>
</mgrwt>
</event>
<event>
 6    4  0.6358868E-003  0.1325233E+03  0.7818608E-02  0.1223759E+00
          4   -1    0    0  502    0 -0.00000000000E+00  0.00000000000E+00  0.16207719306E+03  0.16208216870E+03  0.12700000000E+01 0. -1.
         21   -1    0    0  501  502  0.00000000000E+00 -0.00000000000E+00 -0.48238095929E+02  0.48238095929E+02  0.00000000000E+00 0. -1.
         25    2    1    2    0    0 -0.35752047760E+02 -0.25665154228E+02  0.80087168866E+02  0.15484311057E+03  0.12500210084E+03 0.  0.
    9000005    1    3    3    0    0  0.25379792083E+02  0.33385649020E+02  0.65703447408E+01  0.42460626899E+02  0.10000000000E+01 0.  0.
    9000005    1    3    3    0    0 -0.61131839843E+02 -0.59050803247E+02  0.73516824125E+02  0.11238248367E+03  0.10000000000E+01 0.  0.
          4    1    1    2  501    0  0.35752047760E+02  0.25665154228E+02  0.33751928264E+02  0.55477154055E+02  0.12700000000E+01 0.  1.
<mgrwt>
<rscale>  1 0.13252333E+03</rscale>
<asrwt>0</asrwt>
<pdfrwt beam="2">  1       21 0.74212456E-02 0.13252333E+03</pdfrwt>
<pdfrwt beam="1">  1        4 0.24936621E-01 0.13252333E+03</pdfrwt>
<totfact> 0.82656493E+04</totfact>
</mgrwt>
</event>
<event>
 6    4  0.6358868E-003  0.1291380E+03  0.7818608E-02  0.1228740E+00
         -4   -1    0    0    0  501 -0.00000000000E+00  0.00000000000E+00  0.27604450477E+02  0.27633649527E+02  0.12700000000E+01 0.  1.
         21   -1    0    0  501  502  0.00000000000E+00 -0.00000000000E+00 -0.25426031370E+03  0.25426031370E+03  0.00000000000E+00 0.  1.
         25    2    1    2    0    0 -0.31522667731E+02 -0.75578694321E+01 -0.14576841680E+03  0.19474356530E+03  0.12500329962E+03 0.  0.
    9000005    1    3    3    0    0 -0.60467888792E+02 -0.22676778380E+02 -0.14852055793E+03  0.16195665463E+03  0.10000000000E+01 0.  0.
    9000005    1    3    3    0    0  0.28945221061E+02  0.15118908948E+02  0.27521411249E+01  0.32786910663E+02  0.10000000000E+01 0.  0.
         -4    1    1    2    0  502  0.31522667731E+02  0.75578694321E+01 -0.80887446418E+02  0.87150397930E+02  0.12700000000E+01 0. -1.
<mgrwt>
<rscale>  1 0.12913801E+03</rscale>
<asrwt>0</asrwt>
<pdfrwt beam="2">  1       21 0.39116971E-01 0.12913801E+03</pdfrwt>
<pdfrwt beam="1">  1       -4 0.42493286E-02 0.12913801E+03</pdfrwt>
<totfact> 0.78867429E+04</totfact>
</mgrwt>
</event>
<event>
 6    4  0.6358868E-003  0.1275271E+03  0.7818608E-02  0.1231172E+00
         -4   -1    0    0    0  501 -0.00000000000E+00  0.00000000000E+00  0.50716872563E+02  0.50732771091E+02  0.12700000000E+01 0. -1.
         21   -1    0    0  501  502  0.00000000000E+00 -0.00000000000E+00 -0.12157117244E+03  0.12157117244E+03  0.00000000000E+00 0. -1.
         25    2    1    2    0    0 -0.23648665748E+02  0.88454417289E+01 -0.42748766926E+02  0.13450136275E+03  0.12500263308E+03 0.  0.
    9000005    1    3    3    0    0  0.10227081355E+02 -0.26250659573E+02  0.33622364895E+02  0.43876573957E+02  0.10000000000E+01 0.  0.
    9000005    1    3    3    0    0 -0.33875747103E+02  0.35096101302E+02 -0.76371131821E+02  0.90624788795E+02  0.10000000000E+01 0.  0.
         -4    1    1    2    0  502  0.23648665748E+02 -0.88454417289E+01 -0.28105532947E+02  0.37802580775E+02  0.12700000000E+01 0.  1.
<mgrwt>
<rscale>  1 0.12752709E+03</rscale>
<asrwt>0</asrwt>
<pdfrwt beam="2">  1       21 0.18703257E-01 0.12752709E+03</pdfrwt>
<pdfrwt beam="1">  1       -4 0.78043291E-02 0.12752709E+03</pdfrwt>
<totfact> 0.12026543E+05</totfact>
</mgrwt>
</event>
<event>
 6    4  0.6358868E-003  0.1292487E+03  0.7818608E-02  0.1228575E+00
         21   -1    0    0  501  502  0.00000000000E+00  0.00000000000E+00  0.28812406103E+02  0.28812406103E+02  0.00000000000E+00 0.  1.
          4   -1    0    0  502    0 -0.00000000000E+00 -0.00000000000E+00 -0.23591980225E+03  0.23592322055E+03  0.12700000000E+01 0. -1.
         25    2    1    2    0    0 -0.23841671198E+02 -0.22612135523E+02 -0.14346372906E+03  0.19309860257E+03  0.12500197919E+03 0.  0.
    9000005    1    3    3    0    0  0.20635570072E+02  0.28226661549E+02 -0.11427102760E+03  0.11950497447E+03  0.10000000000E+01 0.  0.
    9000005    1    3    3    0    0 -0.44477241269E+02 -0.50838797072E+02 -0.29192701458E+02  0.73593628101E+02  0.10000000000E+01 0.  0.
          4    1    1    2  501    0  0.23841671198E+02  0.22612135523E+02 -0.63643667092E+02  0.71637024082E+02  0.12700000000E+01 0.  1.
<mgrwt>
<rscale>  1 0.12924871E+03</rscale>
<asrwt>0</asrwt>
<pdfrwt beam="1">  1       21 0.44326780E-02 0.12924871E+03</pdfrwt>
<pdfrwt beam="2">  1        4 0.36297769E-01 0.12924871E+03</pdfrwt>
<totfact> 0.96923610E+04</totfact>
</mgrwt>
</event>
<event>
 6    4  0.6358868E-003  0.1319720E+03  0.7818608E-02  0.1224559E+00
         21   -1    0    0  501  502  0.00000000000E+00  0.00000000000E+00  0.28672759567E+02  0.28672759567E+02  0.00000000000E+00 0. -1.
         -4   -1    0    0    0  501 -0.00000000000E+00 -0.00000000000E+00 -0.13766448751E+04  0.13766454609E+04  0.12700000000E+01 0.  1.
         25    2    1    2    0    0  0.39355641537E+02 -0.15567117402E+02 -0.13558434897E+04  0.13622511437E+04  0.12500163298E+03 0.  0.
    9000005    1    3    3    0    0  0.80412400006E+02  0.13085934892E+02 -0.78602033720E+03  0.79023184336E+03  0.10000000000E+01 0.  0.
    9000005    1    3    3    0    0 -0.41056758469E+02 -0.28653052293E+02 -0.56982315252E+03  0.57201930035E+03  0.10000000000E+01 0.  0.
         -4    1    1    2    0  502 -0.39355641537E+02  0.15567117402E+02  0.78713742345E+01  0.43067076721E+02  0.12700000000E+01 0. -1.
<mgrwt>
<rscale>  1 0.13197200E+03</rscale>
<asrwt>0</asrwt>
<pdfrwt beam="1">  1       21 0.44111934E-02 0.13197200E+03</pdfrwt>
<pdfrwt beam="2">  1       -4 0.21179375E+00 0.13197200E+03</pdfrwt>
<totfact> 0.16994282E+03</totfact>
</mgrwt>
</event>
<event>
 6    4  0.6358868E-003  0.1277688E+03  0.7818608E-02  0.1230805E+00
         21   -1    0    0  501  502  0.00000000000E+00  0.00000000000E+00  0.24838604125E+02  0.24838604125E+02  0.00000000000E+00 0. -1.
         -4   -1    0    0    0  501 -0.00000000000E+00 -0.00000000000E+00 -0.80589755385E+03  0.80589855453E+03  0.12700000000E+01 0.  1.
         25    2    1    2    0    0  0.57691997042E+01  0.25823050229E+02 -0.79188048944E+03  0.80212191429E+03  0.12499896899E+03 0.  0.
    9000005    1    3    3    0    0  0.28283544152E+02  0.14155192904E+02 -0.76307941583E+03  0.76373524419E+03  0.10000000000E+01 0.  0.
    9000005    1    3    3    0    0 -0.22514344448E+02  0.11667857325E+02 -0.28801073605E+02  0.38386670099E+02  0.10000000000E+01 0.  0.
         -4    1    1    2    0  502 -0.57691997042E+01 -0.25823050229E+02  0.10821539714E+02  0.28615244366E+02  0.12700000000E+01 0. -1.
<mgrwt>
<rscale>  1 0.12776876E+03</rscale>
<asrwt>0</asrwt>
<pdfrwt beam="1">  1       21 0.38213239E-02 0.12776876E+03</pdfrwt>
<pdfrwt beam="2">  1       -4 0.12398681E+00 0.12776876E+03</pdfrwt>
<totfact> 0.88203444E+03</totfact>
</mgrwt>
</event>
<event>
 6    4  0.6358868E-003  0.1356970E+03  0.7818608E-02  0.1219239E+00
          4   -1    0    0  502    0 -0.00000000000E+00  0.00000000000E+00  0.56531438349E+03  0.56531581004E+03  0.12700000000E+01 0.  1.
         21   -1    0    0  501  502  0.00000000000E+00 -0.00000000000E+00 -0.71746058623E+02  0.71746058623E+02  0.00000000000E+00 0. -1.
         25    2    1    2    0    0 -0.52342792609E+02  0.71007241017E+01  0.54600899923E+03  0.56261843074E+03  0.12499393245E+03 0.  0.
    9000005    1    3    3    0    0 -0.13051481949E+01 -0.28071127097E+02  0.43142408962E+03  0.43233949241E+03  0.10000000000E+01 0.  0.
    9000005    1    3    3    0    0 -0.51037644414E+02  0.35171851199E+02  0.11458490961E+03  0.13027893834E+03  0.10000000000E+01 0.  0.
          4    1    1    2  501    0  0.52342792609E+02 -0.71007241017E+01 -0.52440674367E+02  0.74443437917E+02  0.12700000000E+01 0. -1.
<mgrwt>
<rscale>  1 0.13569698E+03</rscale>
<asrwt>0</asrwt>
<pdfrwt beam="2">  1       21 0.11037856E-01 0.13569698E+03</pdfrwt>
<pdfrwt beam="1">  1        4 0.86972415E-01 0.13569698E+03</pdfrwt>
<totfact> 0.33121544E+03</totfact>
</mgrwt>
</event>
<event>
 6    4  0.6358868E-003  0.1302522E+03  0.7818608E-02  0.1227082E+00
         21   -1    0    0  501  502  0.00000000000E+00  0.00000000000E+00  0.18644150699E+03  0.18644150699E+03  0.00000000000E+00 0. -1.
         -4   -1    0    0    0  501 -0.00000000000E+00 -0.00000000000E+00 -0.41460478232E+02  0.41479924725E+02  0.12700000000E+01 0. -1.
         25    2    1    2    0    0  0.34590399695E+01 -0.36458693744E+02  0.78690889872E+02  0.15217714665E+03  0.12499770600E+03 0.  0.
    9000005    1    3    3    0    0 -0.34369964105E+02 -0.65736895923E+02  0.20748158775E+02  0.77033239648E+02  0.10000000000E+01 0.  0.
    9000005    1    3    3    0    0  0.37829004075E+02  0.29278202179E+02  0.57942731097E+02  0.75143906999E+02  0.10000000000E+01 0.  0.
         -4    1    1    2    0  502 -0.34590399695E+01  0.36458693744E+02  0.66290138886E+02  0.75744285068E+02  0.12700000000E+01 0.  1.
<mgrwt>
<rscale>  1 0.13025217E+03</rscale>
<asrwt>0</asrwt>
<pdfrwt beam="1">  1       21 0.28683308E-01 0.13025217E+03</pdfrwt>
<pdfrwt beam="2">  1       -4 0.63803638E-02 0.13025217E+03</pdfrwt>
<totfact> 0.75248563E+04</totfact>
</mgrwt>
</event>
<event>
 6    4  0.6358868E-003  0.1347930E+03  0.7818608E-02  0.1220512E+00
         21   -1    0    0  501  502  0.00000000000E+00  0.00000000000E+00  0.94811270463E+01  0.94811270463E+01  0.00000000000E+00 0.  1.
         -4   -1    0    0    0  501 -0.00000000000E+00 -0.00000000000E+00 -0.99927538957E+03  0.99927619660E+03  0.12700000000E+01 0.  1.
         25    2    1    2    0    0 -0.44394363689E+02  0.23944746181E+02 -0.55916833302E+03  0.57518551361E+03  0.12499976009E+03 0.  0.
    9000005    1    3    3    0    0 -0.16682043943E+02 -0.36897528730E+02 -0.65522197020E+02  0.77031659199E+02  0.10000000000E+01 0.  0.
    9000005    1    3    3    0    0 -0.27712319746E+02  0.60842274911E+02 -0.49364613600E+03  0.49815385441E+03  0.10000000000E+01 0.  0.
         -4    1    1    2    0  502  0.44394363689E+02 -0.23944746181E+02 -0.43062592951E+03  0.43357181004E+03  0.12700000000E+01 0. -1.
<mgrwt>
<rscale>  1 0.13479299E+03</rscale>
<asrwt>0</asrwt>
<pdfrwt beam="1">  1       21 0.14586352E-02 0.13479299E+03</pdfrwt>
<pdfrwt beam="2">  1       -4 0.15374125E+00 0.13479299E+03</pdfrwt>
<totfact> 0.24851582E+04</totfact>
</mgrwt>
</event>
<event>
 6    4  0.6358868E-003  0.1371705E+03  0.7818608E-02  0.1217188E+00
          4   -1    0    0  502    0 -0.00000000000E+00  0.00000000000E+00  0.89766970262E+01  0.90660900889E+01  0.12700000000E+01 0.  1.
         21   -1    0    0  501  502  0.00000000000E+00 -0.00000000000E+00 -0.26631755363E+04  0.26631755363E+04  0.00000000000E+00 0. -1.
         25    2    1    2    0    0  0.10456431910E+02  0.55546745788E+02 -0.53552285610E+03  0.55281144058E+03  0.12498392495E+03 0.  0.
    9000005    1    3    3    0    0  0.26185615429E+02 -0.24677305006E+02 -0.32472679359E+03  0.32671569646E+03  0.10000000000E+01 0.  0.
    9000005    1    3    3    0    0 -0.15729183519E+02  0.80224050794E+02 -0.21079606251E+03  0.22609574412E+03  0.10000000000E+01 0.  0.
          4    1    1    2  501    0 -0.10456431910E+02 -0.55546745788E+02 -0.21186759832E+04  0.21194301859E+04  0.12700000000E+01 0. -1.
<mgrwt>
<rscale>  1 0.13717055E+03</rscale>
<asrwt>0</asrwt>
<pdfrwt beam="2">  1       21 0.40972030E+00 0.13717055E+03</pdfrwt>
<pdfrwt beam="1">  1        4 0.13879267E-02 0.13717055E+03</pdfrwt>
<totfact> 0.59918424E+02</totfact>
</mgrwt>
</event>
<event>
 6    4  0.6358868E-003  0.1390958E+03  0.7818608E-02  0.1214551E+00
         -4   -1    0    0    0  501 -0.00000000000E+00  0.00000000000E+00  0.68307589775E+03  0.68307707837E+03  0.12700000000E+01 0.  1.
         21   -1    0    0  501  502  0.00000000000E+00 -0.00000000000E+00 -0.15294240852E+02  0.15294240852E+02  0.00000000000E+00 0.  1.
         25    2    1    2    0    0  0.44365620574E+02  0.41877654014E+02  0.52463093755E+03  0.54275709254E+03  0.12500237866E+03 0.  0.
    9000005    1    3    3    0    0  0.19939795242E+02 -0.73746402127E+01  0.44764872229E+03  0.44815439228E+03  0.10000000000E+01 0.  0.
    9000005    1    3    3    0    0  0.24425825332E+02  0.49252294226E+02  0.76982215263E+02  0.94602700260E+02  0.10000000000E+01 0.  0.
         -4    1    1    2    0  502 -0.44365620574E+02 -0.41877654014E+02  0.14315071935E+03  0.15561422668E+03  0.12700000000E+01 0. -1.
<mgrwt>
<rscale>  1 0.13909580E+03</rscale>
<asrwt>0</asrwt>
<pdfrwt beam="2">  1       21 0.23529607E-02 0.13909580E+03</pdfrwt>
<pdfrwt beam="1">  1       -4 0.10509272E+00 0.13909580E+03</pdfrwt>
<totfact> 0.29206800E+04</totfact>
</mgrwt>
</event>
<event>
 6    4  0.6358868E-003  0.1271332E+03  0.7818608E-02  0.1231773E+00
         21   -1    0    0  501  502  0.00000000000E+00  0.00000000000E+00  0.14582845540E+04  0.14582845540E+04  0.00000000000E+00 0.  1.
         -4   -1    0    0    0  501 -0.00000000000E+00 -0.00000000000E+00 -0.10075499074E+02  0.10155224350E+02  0.12700000000E+01 0. -1.
         25    2    1    2    0    0  0.20035403529E+02 -0.11612995395E+02  0.39457929503E+03  0.41455479274E+03  0.12500630808E+03 0.  0.
    9000005    1    3    3    0    0  0.71314262594E+02  0.71123818671E+01  0.24743375952E+03  0.25760585276E+03  0.10000000000E+01 0.  0.
    9000005    1    3    3    0    0 -0.51278859065E+02 -0.18725377262E+02  0.14714553550E+03  0.15694893998E+03  0.10000000000E+01 0.  0.
         -4    1    1    2    0  502 -0.20035403529E+02  0.11612995395E+02  0.10536297599E+04  0.10538849856E+04  0.12700000000E+01 0.  1.
<mgrwt>
<rscale>  1 0.12713322E+03</rscale>
<asrwt>0</asrwt>
<pdfrwt beam="1">  1       21 0.22435130E+00 0.12713322E+03</pdfrwt>
<pdfrwt beam="2">  1       -4 0.15562532E-02 0.12713322E+03</pdfrwt>
<totfact> 0.59954437E+03</totfact>
</mgrwt>
</event>
<event>
 6    4  0.6358868E-003  0.1318814E+03  0.7818608E-02  0.1224691E+00
         -4   -1    0    0    0  501 -0.00000000000E+00  0.00000000000E+00  0.12723144720E+03  0.12723778549E+03  0.12700000000E+01 0. -1.
         21   -1    0    0  501  502  0.00000000000E+00 -0.00000000000E+00 -0.80871102679E+02  0.80871102679E+02  0.00000000000E+00 0.  1.
         25    2    1    2    0    0  0.14973637121E+02  0.39296375024E+02  0.79993942121E+02  0.15424566615E+03  0.12499711938E+03 0.  0.
    9000005    1    3    3    0    0  0.41612206176E+02  0.22953860166E+02 -0.18424513263E+02  0.50979585015E+02  0.10000000000E+01 0.  0.
    9000005    1    3    3    0    0 -0.26638569056E+02  0.16342514857E+02  0.98418455384E+02  0.10326608114E+03  0.10000000000E+01 0.  0.
         -4    1    1    2    0  502 -0.14973637121E+02 -0.39296375024E+02 -0.33633597600E+02  0.53863222018E+02  0.12700000000E+01 0.  1.
<mgrwt>
<rscale>  1 0.13188137E+03</rscale>
<asrwt>0</asrwt>
<pdfrwt beam="2">  1       21 0.12441708E-01 0.13188137E+03</pdfrwt>
<pdfrwt beam="1">  1       -4 0.19575323E-01 0.13188137E+03</pdfrwt>
<totfact> 0.52038517E+04</totfact>
</mgrwt>
</event>
<event>
 6    4  0.6358868E-003  0.1288238E+03  0.7818608E-02  0.1229212E+00
         21   -1    0    0  501  502  0.00000000000E+00  0.00000000000E+00  0.10486747254E+04  0.10486747254E+04  0.00000000000E+00 0. -1.
          4   -1    0    0  502    0 -0.00000000000E+00 -0.00000000000E+00 -0.61692654833E+01  0.62986297402E+01  0.12700000000E+01 0. -1.
         25    2    1    2    0    0  0.27490251477E+02  0.14653018335E+02  0.77164702995E+03  0.78232646471E+03  0.12500053478E+03 0.  0.
    9000005    1    3    3    0    0 -0.15945429664E+01 -0.29521073191E+02  0.63662534647E+03  0.63731222183E+03  0.10000000000E+01 0.  0.
    9000005    1    3    3    0    0  0.29084794443E+02  0.44174091526E+02  0.13502168348E+03  0.14501424289E+03  0.10000000000E+01 0.  0.
          4    1    1    2  501    0 -0.27490251477E+02 -0.14653018335E+02  0.27085843000E+03  0.27264689045E+03  0.12700000000E+01 0.  1.
<mgrwt>
<rscale>  1 0.12882375E+03</rscale>
<asrwt>0</asrwt>
<pdfrwt beam="1">  1       21 0.16133443E+00 0.12882375E+03</pdfrwt>
<pdfrwt beam="2">  1        4 0.95912885E-03 0.12882375E+03</pdfrwt>
<totfact> 0.31825369E+04</totfact>
</mgrwt>
</event>
<event>
 6    4  0.6358868E-003  0.1272905E+03  0.7818608E-02  0.1231532E+00
         21   -1    0    0  501  502  0.00000000000E+00  0.00000000000E+00  0.19390190562E+02  0.19390190562E+02  0.00000000000E+00 0. -1.
         -4   -1    0    0    0  501 -0.00000000000E+00 -0.00000000000E+00 -0.38466710270E+03  0.38466919918E+03  0.12700000000E+01 0. -1.
         25    2    1    2    0    0 -0.23108206720E+02 -0.66587989978E+01 -0.35630609486E+03  0.37836080448E+03  0.12499814523E+03 0.  0.
    9000005    1    3    3    0    0  0.44961048882E+02 -0.31344117884E+02 -0.14783041572E+03  0.15766667833E+03  0.10000000000E+01 0.  0.
    9000005    1    3    3    0    0 -0.68069255602E+02  0.24685318886E+02 -0.20847567914E+03  0.22069412615E+03  0.10000000000E+01 0.  0.
         -4    1    1    2    0  502  0.23108206720E+02  0.66587989978E+01 -0.89708172790E+01  0.25698585264E+02  0.12700000000E+01 0.  1.
<mgrwt>
<rscale>  1 0.12729048E+03</rscale>
<asrwt>0</asrwt>
<pdfrwt beam="1">  1       21 0.29831061E-02 0.12729048E+03</pdfrwt>
<pdfrwt beam="2">  1       -4 0.59182918E-01 0.12729048E+03</pdfrwt>
<totfact> 0.69630663E+04</totfact>
</mgrwt>
</event>
<event>
 6    4  0.6358868E-003  0.1295786E+03  0.7818608E-02  0.1228082E+00
         -4   -1    0    0    0  501 -0.00000000000E+00  0.00000000000E+00  0.77840859774E+01  0.78870079564E+01  0.12700000000E+01 0. -1.
         21   -1    0    0  501  502  0.00000000000E+00 -0.00000000000E+00 -0.19582651811E+04  0.19582651811E+04  0.00000000000E+00 0.  1.
         25    2    1    2    0    0  0.20592347943E+02  0.27247993365E+02 -0.54265710071E+03  0.55791339181E+03  0.12499650343E+03 0.  0.
    9000005    1    3    3    0    0  0.52364999800E+02  0.42236660741E+02 -0.49004600645E+03  0.49464342424E+03  0.10000000000E+01 0.  0.
    9000005    1    3    3    0    0 -0.31772651857E+02 -0.14988667376E+02 -0.52611094269E+02  0.63269967567E+02  0.10000000000E+01 0.  0.
         -4    1    1    2    0  502 -0.20592347943E+02 -0.27247993365E+02 -0.14078239944E+04  0.14082387972E+04  0.12700000000E+01 0.  1.
<mgrwt>
<rscale>  1 0.12957864E+03</rscale>
<asrwt>0</asrwt>
<pdfrwt beam="2">  1       21 0.30127139E+00 0.12957864E+03</pdfrwt>
<pdfrwt beam="1">  1       -4 0.12055012E-02 0.12957864E+03</pdfrwt>
<totfact> 0.32123074E+03</totfact>
</mgrwt>
</event>
<event>
 6    4  0.6358868E-003  0.1284144E+03  0.7818608E-02  0.1229828E+00
         21   -1    0    0  501  502  0.00000000000E+00  0.00000000000E+00  0.10554567108E+03  0.10554567108E+03  0.00000000000E+00 0.  1.
         -4   -1    0    0    0  501 -0.00000000000E+00 -0.00000000000E+00 -0.95115734288E+02  0.95124212529E+02  0.12700000000E+01 0. -1.
         25    2    1    2    0    0 -0.25876241457E+02  0.13961915510E+02 -0.46507031039E+02  0.13657662216E+03  0.12500301928E+03 0.  0.
    9000005    1    3    3    0    0  0.10120888875E+02 -0.16258832274E+02  0.36471471781E+02  0.41206192161E+02  0.10000000000E+01 0.  0.
    9000005    1    3    3    0    0 -0.35997130332E+02  0.30220747784E+02 -0.82978502820E+02  0.95370430004E+02  0.10000000000E+01 0.  0.
         -4    1    1    2    0  502  0.25876241457E+02 -0.13961915510E+02  0.56936967827E+02  0.64093261440E+02  0.12700000000E+01 0.  1.
<mgrwt>
<rscale>  1 0.12841445E+03</rscale>
<asrwt>0</asrwt>
<pdfrwt beam="1">  1       21 0.16237796E-01 0.12841445E+03</pdfrwt>
<pdfrwt beam="2">  1       -4 0.14634430E-01 0.12841445E+03</pdfrwt>
<totfact> 0.53739432E+04</totfact>
</mgrwt>
</event>
<event>
 6    4  0.6358868E-003  0.1328369E+03  0.7818608E-02  0.1223306E+00
         21   -1    0    0  501  502  0.00000000000E+00  0.00000000000E+00  0.40302153626E+02  0.40302153626E+02  0.00000000000E+00 0. -1.
         -4   -1    0    0    0  501 -0.00000000000E+00 -0.00000000000E+00 -0.19617221271E+03  0.19617632359E+03  0.12700000000E+01 0.  1.
         25    2    1    2    0    0  0.27690946199E+02 -0.35393516619E+02 -0.11412227861E+03  0.17512719692E+03  0.12500460434E+03 0.  0.
    9000005    1    3    3    0    0  0.28867203769E+02 -0.22783524850E+02  0.18996377811E+02  0.41403705486E+02  0.10000000000E+01 0.  0.
    9000005    1    3    3    0    0 -0.11762575699E+01 -0.12609991769E+02 -0.13311865642E+03  0.13372349143E+03  0.10000000000E+01 0.  0.
         -4    1    1    2    0  502 -0.27690946199E+02  0.35393516619E+02 -0.41747780473E+02  0.61351280300E+02  0.12700000000E+01 0. -1.
<mgrwt>
<rscale>  1 0.13283689E+03</rscale>
<asrwt>0</asrwt>
<pdfrwt beam="1">  1       21 0.62003312E-02 0.13283689E+03</pdfrwt>
<pdfrwt beam="2">  1       -4 0.30182197E-01 0.13283689E+03</pdfrwt>
<totfact> 0.78704036E+04</totfact>
</mgrwt>
</event>
<event>
 6    4  0.6358868E-003  0.1279452E+03  0.7818608E-02  0.1230537E+00
         -4   -1    0    0    0  501 -0.00000000000E+00  0.00000000000E+00  0.70330270947E+01  0.71467734059E+01  0.12700000000E+01 0. -1.
         21   -1    0    0  501  502  0.00000000000E+00 -0.00000000000E+00 -0.85575468449E+03  0.85575468449E+03  0.00000000000E+00 0. -1.
         25    2    1    2    0    0 -0.76254806593E+01  0.26194159770E+02 -0.72477857213E+03  0.73598501591E+03  0.12500273222E+03 0.  0.
    9000005    1    3    3    0    0  0.14279421335E+02  0.34270013509E+02 -0.58478588838E+02  0.69275400050E+02  0.10000000000E+01 0.  0.
    9000005    1    3    3    0    0 -0.21904901995E+02 -0.80758537388E+01 -0.66629998330E+03  0.66670961586E+03  0.10000000000E+01 0.  0.
         -4    1    1    2    0  502  0.76254806593E+01 -0.26194159770E+02 -0.12394308526E+03  0.12691644198E+03  0.12700000000E+01 0.  1.
<mgrwt>
<rscale>  1 0.12794516E+03</rscale>
<asrwt>0</asrwt>
<pdfrwt beam="2">  1       21 0.13165452E+00 0.12794516E+03</pdfrwt>
<pdfrwt beam="1">  1       -4 0.10908267E-02 0.12794516E+03</pdfrwt>
<totfact> 0.44202075E+04</totfact>
</mgrwt>
</event>
<event>
 6    4  0.6358868E-003  0.1301257E+03  0.7818608E-02  0.1227269E+00
         -4   -1    0    0    0  501 -0.00000000000E+00  0.00000000000E+00  0.14838516776E+03  0.14839060250E+03  0.12700000000E+01 0. -1.
         21   -1    0    0  501  502  0.00000000000E+00 -0.00000000000E+00 -0.63980585569E+02  0.63980585569E+02  0.00000000000E+00 0.  1.
         25    2    1    2    0    0  0.25282705529E+02 -0.25849573425E+02  0.10805989049E+03  0.16914385695E+03  0.12500115507E+03 0.  0.
    9000005    1    3    3    0    0 -0.26437099917E+02 -0.61145250956E+02  0.65486957876E+02  0.93419503416E+02  0.10000000000E+01 0.  0.
    9000005    1    3    3    0    0  0.51719805445E+02  0.35295677531E+02  0.42572932611E+02  0.75724353538E+02  0.10000000000E+01 0.  0.
         -4    1    1    2    0  502 -0.25282705529E+02  0.25849573425E+02 -0.23655308296E+02  0.43227331119E+02  0.12700000000E+01 0.  1.
<mgrwt>
<rscale>  1 0.13012573E+03</rscale>
<asrwt>0</asrwt>
<pdfrwt beam="2">  1       21 0.98431670E-02 0.13012573E+03</pdfrwt>
<pdfrwt beam="1">  1       -4 0.22829875E-01 0.13012573E+03</pdfrwt>
<totfact> 0.59435104E+04</totfact>
</mgrwt>
</event>
<event>
 6    4  0.6358868E-003  0.1275741E+03  0.7818608E-02  0.1231100E+00
         21   -1    0    0  501  502  0.00000000000E+00  0.00000000000E+00  0.53709308576E+02  0.53709308576E+02  0.00000000000E+00 0. -1.
          4   -1    0    0  502    0 -0.00000000000E+00 -0.00000000000E+00 -0.50471819610E+03  0.50471979392E+03  0.12700000000E+01 0. -1.
         25    2    1    2    0    0 -0.25322310684E+02 -0.34374914558E+01 -0.49300995478E+03  0.50924843234E+03  0.12498845774E+03 0.  0.
    9000005    1    3    3    0    0  0.34065509649E+02  0.40920558935E+02 -0.19257339546E+03  0.19980106039E+03  0.10000000000E+01 0.  0.
    9000005    1    3    3    0    0 -0.59387820333E+02 -0.44358050391E+02 -0.30043655931E+03  0.30944737196E+03  0.10000000000E+01 0.  0.
          4    1    1    2  501    0  0.25322310684E+02  0.34374914558E+01  0.42001067255E+02  0.49180670151E+02  0.12700000000E+01 0. -1.
<mgrwt>
<rscale>  1 0.12757410E+03</rscale>
<asrwt>0</asrwt>
<pdfrwt beam="1">  1       21 0.82629706E-02 0.12757410E+03</pdfrwt>
<pdfrwt beam="2">  1        4 0.77650231E-01 0.12757410E+03</pdfrwt>
<totfact> 0.70281718E+03</totfact>
</mgrwt>
</event>
<event>
 6    4  0.6358868E-003  0.1278435E+03  0.7818608E-02  0.1230691E+00
         -4   -1    0    0    0  501 -0.00000000000E+00  0.00000000000E+00  0.30432975262E+03  0.30433240253E+03  0.12700000000E+01 0.  1.
         21   -1    0    0  501  502  0.00000000000E+00 -0.00000000000E+00 -0.12197767196E+03  0.12197767196E+03  0.00000000000E+00 0. -1.
         25    2    1    2    0    0 -0.18302555912E+02 -0.19605944769E+02  0.28916965056E+03  0.31616933379E+03  0.12499833679E+03 0.  0.
    9000005    1    3    3    0    0 -0.22271402584E+02  0.42257783398E+02  0.50257551753E+02  0.69343760635E+02  0.10000000000E+01 0.  0.
    9000005    1    3    3    0    0  0.39688466724E+01 -0.61863728167E+02  0.23891209880E+03  0.24682557315E+03  0.10000000000E+01 0.  0.
         -4    1    1    2    0  502  0.18302555912E+02  0.19605944769E+02 -0.10681756990E+03  0.11014074070E+03  0.12700000000E+01 0. -1.
<mgrwt>
<rscale>  1 0.12784350E+03</rscale>
<asrwt>0</asrwt>
<pdfrwt beam="2">  1       21 0.18765796E-01 0.12784350E+03</pdfrwt>
<pdfrwt beam="1">  1       -4 0.46820674E-01 0.12784350E+03</pdfrwt>
<totfact> 0.47318572E+03</totfact>
</mgrwt>
</event>
<event>
 6    4  0.6358868E-003  0.1318278E+03  0.7818608E-02  0.1224769E+00
         21   -1    0    0  501  502  0.00000000000E+00  0.00000000000E+00  0.47187388502E+03  0.47187388502E+03  0.00000000000E+00 0. -1.
         -4   -1    0    0    0  501 -0.00000000000E+00 -0.00000000000E+00 -0.16020236637E+02  0.16070497251E+02  0.12700000000E+01 0.  1.
         25    2    1    2    0    0 -0.27838235026E+02 -0.31276371005E+02  0.33296104489E+03  0.35810839494E+03  0.12500154559E+03 0.  0.
    9000005    1    3    3    0    0 -0.22810316608E+02  0.13207495607E+02  0.30319304941E+03  0.30433825539E+03  0.10000000000E+01 0.  0.
    9000005    1    3    3    0    0 -0.50279184174E+01 -0.44483866613E+02  0.29767995483E+02  0.53770139553E+02  0.10000000000E+01 0.  0.
         -4    1    1    2    0  502  0.27838235026E+02  0.31276371005E+02  0.12289260349E+03  0.12983598732E+03  0.12700000000E+01 0. -1.
<mgrwt>
<rscale>  1 0.13182779E+03</rscale>
<asrwt>0</asrwt>
<pdfrwt beam="1">  1       21 0.72595972E-01 0.13182779E+03</pdfrwt>
<pdfrwt beam="2">  1       -4 0.24686498E-02 0.13182779E+03</pdfrwt>
<totfact> 0.51032609E+04</totfact>
</mgrwt>
</event>
<event>
 6    4  0.6358868E-003  0.1364010E+03  0.7818608E-02  0.1218255E+00
         21   -1    0    0  501  502  0.00000000000E+00  0.00000000000E+00  0.46591447282E+03  0.46591447282E+03  0.00000000000E+00 0. -1.
          4   -1    0    0  502    0 -0.00000000000E+00 -0.00000000000E+00 -0.55521852836E+02  0.55536375848E+02  0.12700000000E+01 0.  1.
         25    2    1    2    0    0  0.49388781908E+02 -0.23253967319E+02  0.33275651844E+02  0.14040122023E+03  0.12500093944E+03 0.  0.
    9000005    1    3    3    0    0  0.66145383793E+02  0.24243719584E+02 -0.13407548856E+02  0.71719816666E+02  0.10000000000E+01 0.  0.
    9000005    1    3    3    0    0 -0.16756601885E+02 -0.47497686903E+02  0.46683200700E+02  0.68681403564E+02  0.10000000000E+01 0.  0.
          4    1    1    2  501    0 -0.49388781908E+02  0.23253967319E+02  0.37711696814E+03  0.38104962844E+03  0.12700000000E+01 0. -1.
<mgrwt>
<rscale>  1 0.13640100E+03</rscale>
<asrwt>0</asrwt>
<pdfrwt beam="1">  1       21 0.71679147E-01 0.13640100E+03</pdfrwt>
<pdfrwt beam="2">  1        4 0.85430741E-02 0.13640100E+03</pdfrwt>
<totfact> 0.71963565E+03</totfact>
</mgrwt>
</event>
<event>
 6    4  0.6358868E-003  0.1431388E+03  0.7818608E-02  0.1209167E+00
          4   -1    0    0  502    0 -0.00000000000E+00  0.00000000000E+00  0.42002212501E+02  0.42021408294E+02  0.12700000000E+01 0. -1.
         21   -1    0    0  501  502  0.00000000000E+00 -0.00000000000E+00 -0.30891296156E+03  0.30891296156E+03  0.00000000000E+00 0. -1.
         25    2    1    2    0    0 -0.42637779599E+02 -0.55184023540E+02 -0.11442339929E+03  0.18325234505E+03  0.12500180382E+03 0.  0.
    9000005    1    3    3    0    0 -0.76266275000E+02 -0.68961256225E+02 -0.64095228442E+02  0.12116681836E+03  0.10000000000E+01 0.  0.
    9000005    1    3    3    0    0  0.33628495401E+02  0.13777232686E+02 -0.50328170850E+02  0.62085526690E+02  0.10000000000E+01 0.  0.
          4    1    1    2  501    0  0.42637779599E+02  0.55184023540E+02 -0.15248734977E+03  0.16768202481E+03  0.12700000000E+01 0.  1.
<mgrwt>
<rscale>  1 0.14313877E+03</rscale>
<asrwt>0</asrwt>
<pdfrwt beam="2">  1       21 0.47525069E-01 0.14313877E+03</pdfrwt>
<pdfrwt beam="1">  1        4 0.64635565E-02 0.14313877E+03</pdfrwt>
<totfact> 0.27344651E+04</totfact>
</mgrwt>
</event>
<event>
 6    4  0.6358868E-003  0.1302854E+03  0.7818608E-02  0.1227033E+00
         21   -1    0    0  501  502  0.00000000000E+00  0.00000000000E+00  0.46954324914E+02  0.46954324914E+02  0.00000000000E+00 0.  1.
          4   -1    0    0  502    0 -0.00000000000E+00 -0.00000000000E+00 -0.25259185524E+03  0.25259504792E+03  0.12700000000E+01 0. -1.
         25    2    1    2    0    0  0.36538633569E+02 -0.37840572816E+01 -0.22348556328E+03  0.25868917199E+03  0.12499959951E+03 0.  0.
    9000005    1    3    3    0    0  0.63331103596E+02 -0.31776517336E+02 -0.67168118689E+02  0.97637758602E+02  0.10000000000E+01 0.  0.
    9000005    1    3    3    0    0 -0.26792470028E+02  0.27992460054E+02 -0.15631744459E+03  0.16105141338E+03  0.10000000000E+01 0.  0.
          4    1    1    2  501    0 -0.36538633569E+02  0.37840572816E+01  0.17848032956E+02  0.40860200844E+02  0.12700000000E+01 0.  1.
<mgrwt>
<rscale>  1 0.13028542E+03</rscale>
<asrwt>0</asrwt>
<pdfrwt beam="1">  1       21 0.72237423E-02 0.13028542E+03</pdfrwt>
<pdfrwt beam="2">  1        4 0.38861852E-01 0.13028542E+03</pdfrwt>
<totfact> 0.37195974E+04</totfact>
</mgrwt>
</event>
<event>
 6    4  0.6358868E-003  0.1267442E+03  0.7818608E-02  0.1232368E+00
         21   -1    0    0  501  502  0.00000000000E+00  0.00000000000E+00  0.41360036223E+03  0.41360036223E+03  0.00000000000E+00 0.  1.
          4   -1    0    0  502    0 -0.00000000000E+00 -0.00000000000E+00 -0.19326211471E+02  0.19367894821E+02  0.12700000000E+01 0. -1.
         25    2    1    2    0    0  0.14255153980E+02  0.15422065146E+02  0.19489812646E+03  0.23248518676E+03  0.12499213118E+03 0.  0.
    9000005    1    3    3    0    0  0.50181775213E+02 -0.23632768547E+01  0.21747451477E+02  0.54751687524E+02  0.10000000000E+01 0.  0.
    9000005    1    3    3    0    0 -0.35926621233E+02  0.17785342001E+02  0.17315067498E+03  0.17773349923E+03  0.10000000000E+01 0.  0.
          4    1    1    2  501    0 -0.14255153980E+02 -0.15422065146E+02  0.19937602430E+03  0.20048307029E+03  0.12700000000E+01 0.  1.
<mgrwt>
<rscale>  1 0.12674416E+03</rscale>
<asrwt>0</asrwt>
<pdfrwt beam="1">  1       21 0.63630819E-01 0.12674416E+03</pdfrwt>
<pdfrwt beam="2">  1        4 0.29766200E-02 0.12674416E+03</pdfrwt>
<totfact> 0.50538888E+04</totfact>
</mgrwt>
</event>
<event>
 6    4  0.6358868E-003  0.1313351E+03  0.7818608E-02  0.1225488E+00
          4   -1    0    0  502    0 -0.00000000000E+00  0.00000000000E+00  0.57156909883E+02  0.57171017547E+02  0.12700000000E+01 0.  1.
         21   -1    0    0  501  502  0.00000000000E+00 -0.00000000000E+00 -0.16785115516E+03  0.16785115516E+03  0.00000000000E+00 0. -1.
         25    2    1    2    0    0  0.13203658456E+02 -0.38069129303E+02 -0.29851002285E+02  0.13468481587E+03  0.12500128834E+03 0.  0.
    9000005    1    3    3    0    0  0.48581302700E+02 -0.68838027333E+02 -0.22525966803E+02  0.87219471218E+02  0.10000000000E+01 0.  0.
    9000005    1    3    3    0    0 -0.35377644245E+02  0.30768898030E+02 -0.73250354823E+01  0.47465344653E+02  0.10000000000E+01 0.  0.
          4    1    1    2  501    0 -0.13203658456E+02  0.38069129303E+02 -0.80843242996E+02  0.90337356839E+02  0.12700000000E+01 0. -1.
<mgrwt>
<rscale>  1 0.13133513E+03</rscale>
<asrwt>0</asrwt>
<pdfrwt beam="2">  1       21 0.25823254E-01 0.13133513E+03</pdfrwt>
<pdfrwt beam="1">  1        4 0.87948256E-02 0.13133513E+03</pdfrwt>
<totfact> 0.54235673E+04</totfact>
</mgrwt>
</event>
<event>
 6    4  0.6358868E-003  0.1266326E+03  0.7818608E-02  0.1232540E+00
          4   -1    0    0  502    0 -0.00000000000E+00  0.00000000000E+00  0.25260536495E+02  0.25292441638E+02  0.12700000000E+01 0. -1.
         21   -1    0    0  501  502  0.00000000000E+00 -0.00000000000E+00 -0.21357417929E+03  0.21357417929E+03  0.00000000000E+00 0. -1.
         25    2    1    2    0    0 -0.25198110684E+01 -0.20105067501E+02 -0.16097204595E+03  0.20481167995E+03  0.12500104591E+03 0.  0.
    9000005    1    3    3    0    0 -0.48178754355E+02  0.28224608612E+02 -0.47606280687E+02  0.73383777930E+02  0.10000000000E+01 0.  0.
    9000005    1    3    3    0    0  0.45658943286E+02 -0.48329676113E+02 -0.11336576526E+03  0.13142790201E+03  0.10000000000E+01 0.  0.
          4    1    1    2  501    0  0.25198110684E+01  0.20105067501E+02 -0.27341596845E+02  0.34054940979E+02  0.12700000000E+01 0.  1.
<mgrwt>
<rscale>  1 0.12663264E+03</rscale>
<asrwt>0</asrwt>
<pdfrwt beam="2">  1       21 0.32857566E-01 0.12663264E+03</pdfrwt>
<pdfrwt beam="1">  1        4 0.38889810E-02 0.12663264E+03</pdfrwt>
<totfact> 0.12766304E+05</totfact>
</mgrwt>
</event>
<event>
 6    4  0.6358868E-003  0.2223153E+03  0.7818608E-02  0.1132169E+00
         -4   -1    0    0    0  501 -0.00000000000E+00  0.00000000000E+00  0.42058731887E+02  0.42077901896E+02  0.12700000000E+01 0. -1.
         21   -1    0    0  501  502  0.00000000000E+00 -0.00000000000E+00 -0.11444074148E+04  0.11444074148E+04  0.00000000000E+00 0.  1.
         25    2    1    2    0    0 -0.12944925828E+03  0.13054736604E+03 -0.37215083205E+03  0.43349777393E+03  0.12499741181E+03 0.  0.
    9000005    1    3    3    0    0 -0.29987002181E+01 -0.22629895183E+02 -0.50994204545E+02  0.55879452897E+02  0.10000000000E+01 0.  0.
    9000005    1    3    3    0    0 -0.12645055806E+03  0.15317726122E+03 -0.32115662751E+03  0.37761832104E+03  0.10000000000E+01 0.  0.
         -4    1    1    2    0  502  0.12944925828E+03 -0.13054736604E+03 -0.73019785084E+03  0.75298754274E+03  0.12700000000E+01 0.  1.
<mgrwt>
<rscale>  1 0.22231527E+03</rscale>
<asrwt>0</asrwt>
<pdfrwt beam="2">  1       21 0.17606268E+00 0.22231527E+03</pdfrwt>
<pdfrwt beam="1">  1       -4 0.64721030E-02 0.22231527E+03</pdfrwt>
<totfact> 0.12722677E+03</totfact>
</mgrwt>
</event>
<event>
 6    4  0.6358868E-003  0.1545681E+03  0.7818608E-02  0.1194969E+00
         21   -1    0    0  501  502  0.00000000000E+00  0.00000000000E+00  0.28412313625E+03  0.28412313625E+03  0.00000000000E+00 0. -1.
          4   -1    0    0  502    0 -0.00000000000E+00 -0.00000000000E+00 -0.88149722257E+02  0.88158870422E+02  0.12700000000E+01 0.  1.
         25    2    1    2    0    0  0.81526919510E+02  0.40233940786E+02 -0.18335070228E+01  0.15457899912E+03  0.12500358645E+03 0.  0.
    9000005    1    3    3    0    0  0.68117600713E+02  0.44354585406E+02  0.53611406546E+02  0.97378230038E+02  0.10000000000E+01 0.  0.
    9000005    1    3    3    0    0  0.13409318798E+02 -0.41206446203E+01 -0.55444913569E+02  0.57200769080E+02  0.10000000000E+01 0.  0.
          4    1    1    2  501    0 -0.81526919510E+02 -0.40233940786E+02  0.19780692102E+03  0.21770300755E+03  0.12700000000E+01 0. -1.
<mgrwt>
<rscale>  1 0.15456812E+03</rscale>
<asrwt>0</asrwt>
<pdfrwt beam="1">  1       21 0.43711251E-01 0.15456812E+03</pdfrwt>
<pdfrwt beam="2">  1        4 0.13562418E-01 0.15456812E+03</pdfrwt>
<totfact> 0.93908588E+03</totfact>
</mgrwt>
</event>
<event>
 6    4  0.6358868E-003  0.1269702E+03  0.7818608E-02  0.1232022E+00
         21   -1    0    0  501  502  0.00000000000E+00  0.00000000000E+00  0.23884937500E+02  0.23884937500E+02  0.00000000000E+00 0. -1.
         -4   -1    0    0    0  501 -0.00000000000E+00 -0.00000000000E+00 -0.46316294048E+03  0.46316468166E+03  0.12700000000E+01 0.  1.
         25    2    1    2    0    0 -0.19599233214E+02 -0.10574245907E+02 -0.44602517932E+03  0.46374550133E+03  0.12500193919E+03 0.  0.
    9000005    1    3    3    0    0 -0.20190700423E+02  0.41139914120E+02 -0.36329288548E+03  0.36617328898E+03  0.10000000000E+01 0.  0.
    9000005    1    3    3    0    0  0.59146720859E+00 -0.51714160027E+02 -0.82732293839E+02  0.97572212359E+02  0.10000000000E+01 0.  0.
         -4    1    1    2    0  502  0.19599233214E+02  0.10574245907E+02  0.67471763381E+01  0.23304117825E+02  0.12700000000E+01 0. -1.
<mgrwt>
<rscale>  1 0.12697019E+03</rscale>
<asrwt>0</asrwt>
<pdfrwt beam="1">  1       21 0.36746057E-02 0.12697019E+03</pdfrwt>
<pdfrwt beam="2">  1       -4 0.71258569E-01 0.12697019E+03</pdfrwt>
<totfact> 0.33274573E+04</totfact>
</mgrwt>
</event>
<event>
 6    4  0.6358868E-003  0.1276404E+03  0.7818608E-02  0.1231000E+00
          4   -1    0    0  502    0 -0.00000000000E+00  0.00000000000E+00  0.15199868189E+02  0.15252832294E+02  0.12700000000E+01 0.  1.
         21   -1    0    0  501  502  0.00000000000E+00 -0.00000000000E+00 -0.62496328356E+03  0.62496328356E+03  0.00000000000E+00 0.  1.
         25    2    1    2    0    0 -0.24963483932E+02 -0.66275252577E+01 -0.26144480731E+03  0.29093891184E+03  0.12499985413E+03 0.  0.
    9000005    1    3    3    0    0 -0.53407819018E+02  0.41259160189E+02 -0.18023933689E+03  0.19246280678E+03  0.10000000000E+01 0.  0.
    9000005    1    3    3    0    0  0.28444335086E+02 -0.47886685447E+02 -0.81205470415E+02  0.98476105055E+02  0.10000000000E+01 0.  0.
          4    1    1    2  501    0  0.24963483932E+02  0.66275252577E+01 -0.34831860807E+03  0.34927720402E+03  0.12700000000E+01 0. -1.
<mgrwt>
<rscale>  1 0.12764037E+03</rscale>
<asrwt>0</asrwt>
<pdfrwt beam="2">  1       21 0.96148191E-01 0.12764037E+03</pdfrwt>
<pdfrwt beam="1">  1        4 0.23426149E-02 0.12764037E+03</pdfrwt>
<totfact> 0.29287419E+04</totfact>
</mgrwt>
</event>
<event>
 6    4  0.6358868E-003  0.1265943E+03  0.7818608E-02  0.1232598E+00
         21   -1    0    0  501  502  0.00000000000E+00  0.00000000000E+00  0.33934583523E+02  0.33934583523E+02  0.00000000000E+00 0. -1.
          4   -1    0    0  502    0 -0.00000000000E+00 -0.00000000000E+00 -0.60477331361E+03  0.60477464708E+03  0.12700000000E+01 0.  1.
         25    2    1    2    0    0 -0.75539234138E-01  0.20020580316E+02 -0.59441902194E+03  0.60775002509E+03  0.12500116003E+03 0.  0.
    9000005    1    3    3    0    0 -0.54289749491E+02 -0.48628040738E+01 -0.41745963375E+03  0.42100423937E+03  0.10000000000E+01 0.  0.
    9000005    1    3    3    0    0  0.54214210257E+02  0.24883384390E+02 -0.17695938820E+03  0.18674578572E+03  0.10000000000E+01 0.  0.
          4    1    1    2  501    0  0.75539234138E-01 -0.20020580316E+02  0.23580291853E+02  0.30959205517E+02  0.12700000000E+01 0. -1.
<mgrwt>
<rscale>  1 0.12659431E+03</rscale>
<asrwt>0</asrwt>
<pdfrwt beam="1">  1       21 0.52207056E-02 0.12659431E+03</pdfrwt>
<pdfrwt beam="2">  1        4 0.93043971E-01 0.12659431E+03</pdfrwt>
<totfact> 0.10256093E+04</totfact>
</mgrwt>
</event>
<event>
 6    4  0.6358868E-003  0.1276229E+03  0.7818608E-02  0.1231026E+00
         21   -1    0    0  501  502  0.00000000000E+00  0.00000000000E+00  0.10264241766E+04  0.10264241766E+04  0.00000000000E+00 0. -1.
          4   -1    0    0  502    0 -0.00000000000E+00 -0.00000000000E+00 -0.80912063105E+01  0.81902698099E+01  0.12700000000E+01 0.  1.
         25    2    1    2    0    0  0.23225410305E+02  0.11085721465E+02  0.51340918783E+03  0.52903363991E+03  0.12500114043E+03 0.  0.
    9000005    1    3    3    0    0 -0.18498639970E+02 -0.49884949662E+02  0.23887284687E+03  0.24472830824E+03  0.10000000000E+01 0.  0.
    9000005    1    3    3    0    0  0.41724050275E+02  0.60970671127E+02  0.27453634096E+03  0.28430533167E+03  0.10000000000E+01 0.  0.
          4    1    1    2  501    0 -0.23225410305E+02 -0.11085721465E+02  0.50492378250E+03  0.50558080654E+03  0.12700000000E+01 0. -1.
<mgrwt>
<rscale>  1 0.12762287E+03</rscale>
<asrwt>0</asrwt>
<pdfrwt beam="1">  1       21 0.15791131E+00 0.12762287E+03</pdfrwt>
<pdfrwt beam="2">  1        4 0.12524825E-02 0.12762287E+03</pdfrwt>
<totfact> 0.22511739E+04</totfact>
</mgrwt>
</event>
<event>
 6    4  0.6358868E-003  0.1313090E+03  0.7818608E-02  0.1225526E+00
         21   -1    0    0  501  502  0.00000000000E+00  0.00000000000E+00  0.96759511145E+02  0.96759511145E+02  0.00000000000E+00 0.  1.
          4   -1    0    0  502    0 -0.00000000000E+00 -0.00000000000E+00 -0.76212276106E+02  0.76222857000E+02  0.12700000000E+01 0.  1.
         25    2    1    2    0    0 -0.15886135373E+02  0.36946185659E+02  0.19355266335E+02  0.13272788242E+03  0.12499869801E+03 0.  0.
    9000005    1    3    3    0    0  0.45340863979E+02 -0.55189169753E+01 -0.18324787615E+02  0.49224488134E+02  0.10000000000E+01 0.  0.
    9000005    1    3    3    0    0 -0.61226999352E+02  0.42465102634E+02  0.37680053949E+02  0.83503394284E+02  0.10000000000E+01 0.  0.
          4    1    1    2  501    0  0.15886135373E+02 -0.36946185659E+02  0.11919687044E+01  0.40254485728E+02  0.12700000000E+01 0. -1.
<mgrwt>
<rscale>  1 0.13130904E+03</rscale>
<asrwt>0</asrwt>
<pdfrwt beam="1">  1       21 0.14886079E-01 0.13130904E+03</pdfrwt>
<pdfrwt beam="2">  1        4 0.11726421E-01 0.13130904E+03</pdfrwt>
<totfact> 0.92374339E+04</totfact>
</mgrwt>
</event>
<event>
 6    4  0.6358868E-003  0.1289086E+03  0.7818608E-02  0.1229084E+00
         21   -1    0    0  501  502  0.00000000000E+00  0.00000000000E+00  0.20233775514E+02  0.20233775514E+02  0.00000000000E+00 0.  1.
          4   -1    0    0  502    0 -0.00000000000E+00 -0.00000000000E+00 -0.31769691613E+03  0.31769945454E+03  0.12700000000E+01 0.  1.
         25    2    1    2    0    0 -0.10567893594E+01  0.31256946985E+02 -0.23341404669E+03  0.26664499210E+03  0.12505727120E+03 0.  0.
    9000005    1    3    3    0    0 -0.32164194497E+02  0.35905601808E+02 -0.22999098532E+03  0.23499064019E+03  0.10000000000E+01 0.  0.
    9000005    1    3    3    0    0  0.31107405138E+02 -0.46486548221E+01 -0.34230613783E+01  0.31654351917E+02  0.10000000000E+01 0.  0.
          4    1    1    2  501    0  0.10567893594E+01 -0.31256946985E+02 -0.64049093920E+02  0.71288237954E+02  0.12700000000E+01 0. -1.
<mgrwt>
<rscale>  1 0.12890863E+03</rscale>
<asrwt>0</asrwt>
<pdfrwt beam="1">  1       21 0.31128886E-02 0.12890863E+03</pdfrwt>
<pdfrwt beam="2">  1        4 0.48879709E-01 0.12890863E+03</pdfrwt>
<totfact> 0.96449962E+04</totfact>
</mgrwt>
</event>
<event>
 6    4  0.6358868E-003  0.1267667E+03  0.7818608E-02  0.1232334E+00
         21   -1    0    0  501  502  0.00000000000E+00  0.00000000000E+00  0.13668402584E+02  0.13668402584E+02  0.00000000000E+00 0.  1.
         -4   -1    0    0    0  501 -0.00000000000E+00 -0.00000000000E+00 -0.43610489697E+03  0.43610674618E+03  0.12700000000E+01 0.  1.
         25    2    1    2    0    0 -0.17907633316E+02  0.11164505934E+02 -0.39673740306E+03  0.41649774323E+03  0.12499789441E+03 0.  0.
    9000005    1    3    3    0    0 -0.34533475164E+02  0.33264860720E+02 -0.52339167683E+02  0.70989438224E+02  0.10000000000E+01 0.  0.
    9000005    1    3    3    0    0  0.16625841848E+02 -0.22100354786E+02 -0.34439823538E+03  0.34550830501E+03  0.10000000000E+01 0.  0.
         -4    1    1    2    0  502  0.17907633316E+02 -0.11164505934E+02 -0.25699091330E+02  0.33277405532E+02  0.12700000000E+01 0. -1.
<mgrwt>
<rscale>  1 0.12676673E+03</rscale>
<asrwt>0</asrwt>
<pdfrwt beam="1">  1       21 0.21028311E-02 0.12676673E+03</pdfrwt>
<pdfrwt beam="2">  1       -4 0.67097746E-01 0.12676673E+03</pdfrwt>
<totfact> 0.94270520E+04</totfact>
</mgrwt>
</event>
<event>
 6    4  0.6358868E-003  0.1294128E+03  0.7818608E-02  0.1228330E+00
         21   -1    0    0  501  502  0.00000000000E+00  0.00000000000E+00  0.20074081621E+02  0.20074081621E+02  0.00000000000E+00 0.  1.
          4   -1    0    0  502    0 -0.00000000000E+00 -0.00000000000E+00 -0.33108105780E+03  0.33108349360E+03  0.12700000000E+01 0.  1.
         25    2    1    2    0    0 -0.17057445081E+02 -0.28838314891E+02 -0.24164917605E+03  0.27412042719E+03  0.12500031791E+03 0.  0.
    9000005    1    3    3    0    0  0.95248993370E+01 -0.73168372360E+02 -0.17382002363E+03  0.18883520603E+03  0.10000000000E+01 0.  0.
    9000005    1    3    3    0    0 -0.26582344419E+02  0.44330057469E+02 -0.67829152422E+02  0.85285221160E+02  0.10000000000E+01 0.  0.
          4    1    1    2  501    0  0.17057445081E+02  0.28838314891E+02 -0.69357800130E+02  0.77037148035E+02  0.12700000000E+01 0. -1.
<mgrwt>
<rscale>  1 0.12941284E+03</rscale>
<asrwt>0</asrwt>
<pdfrwt beam="1">  1       21 0.30883201E-02 0.12941284E+03</pdfrwt>
<pdfrwt beam="2">  1        4 0.50938827E-01 0.12941284E+03</pdfrwt>
<totfact> 0.89898491E+04</totfact>
</mgrwt>
</event>
<event>
 6    4  0.6358868E-003  0.1301878E+03  0.7818608E-02  0.1227177E+00
          4   -1    0    0  502    0 -0.00000000000E+00  0.00000000000E+00  0.27574707220E+03  0.27574999679E+03  0.12700000000E+01 0. -1.
         21   -1    0    0  501  502  0.00000000000E+00 -0.00000000000E+00 -0.48864231927E+02  0.48864231927E+02  0.00000000000E+00 0.  1.
         25    2    1    2    0    0 -0.40105831954E+00 -0.36386911936E+02  0.24973082892E+03  0.28162804846E+03  0.12499881022E+03 0.  0.
    9000005    1    3    3    0    0 -0.11152739406E+02  0.45809166488E+02  0.96610678352E+02  0.10750575102E+03  0.10000000000E+01 0.  0.
    9000005    1    3    3    0    0  0.10751681086E+02 -0.82196078424E+02  0.15312015057E+03  0.17412229744E+03  0.10000000000E+01 0.  0.
          4    1    1    2  501    0  0.40105831954E+00  0.36386911936E+02 -0.22847988646E+02  0.42986180258E+02  0.12700000000E+01 0.  1.
<mgrwt>
<rscale>  1 0.13018783E+03</rscale>
<asrwt>0</asrwt>
<pdfrwt beam="2">  1       21 0.75175743E-02 0.13018783E+03</pdfrwt>
<pdfrwt beam="1">  1        4 0.42424120E-01 0.13018783E+03</pdfrwt>
<totfact> 0.29220316E+04</totfact>
</mgrwt>
</event>
<event>
 6    4  0.6358868E-003  0.1611727E+03  0.7818608E-02  0.1187379E+00
         21   -1    0    0  501  502  0.00000000000E+00  0.00000000000E+00  0.24099596461E+04  0.24099596461E+04  0.00000000000E+00 0. -1.
          4   -1    0    0  502    0 -0.00000000000E+00 -0.00000000000E+00 -0.78595876704E+01  0.79615336681E+01  0.12700000000E+01 0.  1.
         25    2    1    2    0    0 -0.96418186904E+01 -0.10128805005E+03  0.10861522352E+04  0.10980452310E+04  0.12499767022E+03 0.  0.
    9000005    1    3    3    0    0 -0.61688235788E+02 -0.54766665012E+02  0.40448643045E+03  0.41281363647E+03  0.10000000000E+01 0.  0.
    9000005    1    3    3    0    0  0.52046417098E+02 -0.46521385042E+02  0.68166580477E+03  0.68523159457E+03  0.10000000000E+01 0.  0.
          4    1    1    2  501    0  0.96418186904E+01  0.10128805005E+03  0.13159478232E+04  0.13198759488E+04  0.12700000000E+01 0. -1.
<mgrwt>
<rscale>  1 0.16117274E+03</rscale>
<asrwt>0</asrwt>
<pdfrwt beam="1">  1       21 0.37076244E+00 0.16117274E+03</pdfrwt>
<pdfrwt beam="2">  1        4 0.12170370E-02 0.16117274E+03</pdfrwt>
<totfact> 0.12363524E+03</totfact>
</mgrwt>
</event>
<event>
 6    4  0.6358868E-003  0.1545450E+03  0.7818608E-02  0.1194997E+00
         21   -1    0    0  501  502  0.00000000000E+00  0.00000000000E+00  0.24207854765E+03  0.24207854765E+03  0.00000000000E+00 0.  1.
         -4   -1    0    0    0  501 -0.00000000000E+00 -0.00000000000E+00 -0.12527070459E+03  0.12527714208E+03  0.12700000000E+01 0. -1.
         25    2    1    2    0    0  0.56570136109E+02  0.71115675283E+02 -0.62205717882E+02  0.16659441988E+03  0.12500611915E+03 0.  0.
    9000005    1    3    3    0    0  0.54354265667E+01 -0.29972887853E+02  0.10203640072E+02  0.32140817334E+02  0.10000000000E+01 0.  0.
    9000005    1    3    3    0    0  0.51134709542E+02  0.10108856314E+03 -0.72409357955E+02  0.13445360254E+03  0.10000000000E+01 0.  0.
         -4    1    1    2    0  502 -0.56570136109E+02 -0.71115675283E+02  0.17901356095E+03  0.20076126985E+03  0.12700000000E+01 0.  1.
<mgrwt>
<rscale>  1 0.15454498E+03</rscale>
<asrwt>0</asrwt>
<pdfrwt beam="1">  1       21 0.37242854E-01 0.15454498E+03</pdfrwt>
<pdfrwt beam="2">  1       -4 0.19273168E-01 0.15454498E+03</pdfrwt>
<totfact> 0.69716682E+03</totfact>
</mgrwt>
</event>
<event>
 6    4  0.6358868E-003  0.1275690E+03  0.7818608E-02  0.1231108E+00
         21   -1    0    0  501  502  0.00000000000E+00  0.00000000000E+00  0.22859037620E+03  0.22859037620E+03  0.00000000000E+00 0. -1.
         -4   -1    0    0    0  501 -0.00000000000E+00 -0.00000000000E+00 -0.50209515706E+02  0.50225574835E+02  0.12700000000E+01 0.  1.
         25    2    1    2    0    0  0.18798957415E+02  0.17126509696E+02  0.33746082632E+02  0.13195700510E+03  0.12500853958E+03 0.  0.
    9000005    1    3    3    0    0  0.20160124361E+02 -0.42614976947E+02  0.51288307691E+02  0.69670347927E+02  0.10000000000E+01 0.  0.
    9000005    1    3    3    0    0 -0.13611669461E+01  0.59741486643E+02 -0.17542225059E+02  0.62286657173E+02  0.10000000000E+01 0.  0.
         -4    1    1    2    0  502 -0.18798957415E+02 -0.17126509696E+02  0.14463477787E+03  0.14685894594E+03  0.12700000000E+01 0. -1.
<mgrwt>
<rscale>  1 0.12756901E+03</rscale>
<asrwt>0</asrwt>
<pdfrwt beam="1">  1       21 0.35167750E-01 0.12756901E+03</pdfrwt>
<pdfrwt beam="2">  1       -4 0.77260477E-02 0.12756901E+03</pdfrwt>
<totfact> 0.36917038E+04</totfact>
</mgrwt>
</event>
<event>
 6    4  0.6358868E-003  0.1318854E+03  0.7818608E-02  0.1224685E+00
         21   -1    0    0  501  502  0.00000000000E+00  0.00000000000E+00  0.12354146041E+02  0.12354146041E+02  0.00000000000E+00 0.  1.
          4   -1    0    0  502    0 -0.00000000000E+00 -0.00000000000E+00 -0.19406741028E+04  0.19406745183E+04  0.12700000000E+01 0. -1.
         25    2    1    2    0    0  0.31998511178E+02 -0.27295603889E+02 -0.18943888829E+04  0.18989741976E+04  0.12499923464E+03 0.  0.
    9000005    1    3    3    0    0 -0.30507159495E+01  0.14439040655E+02 -0.26969969427E+02  0.30759909196E+02  0.10000000000E+01 0.  0.
    9000005    1    3    3    0    0  0.35049227128E+02 -0.41734644544E+02 -0.18674189135E+04  0.18682142884E+04  0.10000000000E+01 0.  0.
          4    1    1    2  501    0 -0.31998511178E+02  0.27295603889E+02 -0.33931073825E+02  0.54054466793E+02  0.12700000000E+01 0.  1.
<mgrwt>
<rscale>  1 0.13188542E+03</rscale>
<asrwt>0</asrwt>
<pdfrwt beam="1">  1       21 0.19006374E-02 0.13188542E+03</pdfrwt>
<pdfrwt beam="2">  1        4 0.29857038E+00 0.13188542E+03</pdfrwt>
<totfact> 0.21189812E+03</totfact>
</mgrwt>
</event>
<event>
 6    4  0.6358868E-003  0.1276704E+03  0.7818608E-02  0.1230954E+00
         21   -1    0    0  501  502  0.00000000000E+00  0.00000000000E+00  0.32656611750E+02  0.32656611750E+02  0.00000000000E+00 0.  1.
         -4   -1    0    0    0  501 -0.00000000000E+00 -0.00000000000E+00 -0.39631798117E+03  0.39632001602E+03  0.12700000000E+01 0. -1.
         25    2    1    2    0    0 -0.29676597194E+01 -0.25788124514E+02 -0.37822039521E+03  0.39918715812E+03  0.12500354190E+03 0.  0.
    9000005    1    3    3    0    0 -0.29981884384E+02 -0.38317635945E+02 -0.50558889672E+02  0.70173755354E+02  0.10000000000E+01 0.  0.
    9000005    1    3    3    0    0  0.27014224665E+02  0.12529511431E+02 -0.32766150554E+03  0.32901340277E+03  0.10000000000E+01 0.  0.
         -4    1    1    2    0  502  0.29676597194E+01  0.25788124514E+02  0.14559025786E+02  0.29789469650E+02  0.12700000000E+01 0.  1.
<mgrwt>
<rscale>  1 0.12767036E+03</rscale>
<asrwt>0</asrwt>
<pdfrwt beam="1">  1       21 0.50240941E-02 0.12767036E+03</pdfrwt>
<pdfrwt beam="2">  1       -4 0.60974054E-01 0.12767036E+03</pdfrwt>
<totfact> 0.27562479E+04</totfact>
</mgrwt>
</event>
<event>
 6    4  0.6358868E-003  0.1290993E+03  0.7818608E-02  0.1228798E+00
         21   -1    0    0  501  502  0.00000000000E+00  0.00000000000E+00  0.19347684070E+03  0.19347684070E+03  0.00000000000E+00 0.  1.
          4   -1    0    0  502    0 -0.00000000000E+00 -0.00000000000E+00 -0.39276784489E+02  0.39297311610E+02  0.12700000000E+01 0. -1.
         25    2    1    2    0    0 -0.14834823026E+02 -0.28669794691E+02  0.80078366319E+02  0.15191831199E+03  0.12499839864E+03 0.  0.
    9000005    1    3    3    0    0  0.89074121393E+01 -0.30497540914E+01  0.10724151901E+03  0.10765865683E+03  0.10000000000E+01 0.  0.
    9000005    1    3    3    0    0 -0.23742235165E+02 -0.25620040600E+02 -0.27163152687E+02  0.44259655160E+02  0.10000000000E+01 0.  0.
          4    1    1    2  501    0  0.14834823026E+02  0.28669794691E+02  0.74121689888E+02  0.80855840319E+02  0.12700000000E+01 0.  1.
<mgrwt>
<rscale>  1 0.12909930E+03</rscale>
<asrwt>0</asrwt>
<pdfrwt beam="1">  1       21 0.29765667E-01 0.12909930E+03</pdfrwt>
<pdfrwt beam="2">  1        4 0.60444820E-02 0.12909930E+03</pdfrwt>
<totfact> 0.76433890E+04</totfact>
</mgrwt>
</event>
<event>
 6    4  0.6358868E-003  0.1333860E+03  0.7818608E-02  0.1222516E+00
         21   -1    0    0  501  502  0.00000000000E+00  0.00000000000E+00  0.11322215652E+02  0.11322215652E+02  0.00000000000E+00 0.  1.
          4   -1    0    0  502    0 -0.00000000000E+00 -0.00000000000E+00 -0.72769280656E+03  0.72769391479E+03  0.12700000000E+01 0.  1.
         25    2    1    2    0    0  0.28291720853E+02 -0.36939258929E+02 -0.57113630712E+03  0.58650534261E+03  0.12500762086E+03 0.  0.
    9000005    1    3    3    0    0 -0.10974029714E+02 -0.14735819118E+02 -0.51096623117E+03  0.51129743114E+03  0.10000000000E+01 0.  0.
    9000005    1    3    3    0    0  0.39265750567E+02 -0.22203439811E+02 -0.60170075954E+02  0.75207911467E+02  0.10000000000E+01 0.  0.
          4    1    1    2  501    0 -0.28291720853E+02  0.36939258929E+02 -0.14523428378E+03  0.15251078783E+03  0.12700000000E+01 0. -1.
<mgrwt>
<rscale>  1 0.13338604E+03</rscale>
<asrwt>0</asrwt>
<pdfrwt beam="1">  1       21 0.17418797E-02 0.13338604E+03</pdfrwt>
<pdfrwt beam="2">  1        4 0.11195828E+00 0.13338604E+03</pdfrwt>
<totfact> 0.40722719E+04</totfact>
</mgrwt>
</event>
<event>
 6    4  0.6358868E-003  0.1331968E+03  0.7818608E-02  0.1222788E+00
          4   -1    0    0  502    0 -0.00000000000E+00  0.00000000000E+00  0.23517851849E+02  0.23552117858E+02  0.12700000000E+01 0. -1.
         21   -1    0    0  501  502  0.00000000000E+00 -0.00000000000E+00 -0.36925460839E+03  0.36925460839E+03  0.00000000000E+00 0. -1.
         25    2    1    2    0    0 -0.26751684075E+02  0.37422621477E+02 -0.20267191856E+03  0.24252277512E+03  0.12500113872E+03 0.  0.
    9000005    1    3    3    0    0 -0.61529082599E+02 -0.20293948294E+02 -0.84491499063E+02  0.10647763031E+03  0.10000000000E+01 0.  0.
    9000005    1    3    3    0    0  0.34777398524E+02  0.57716569771E+02 -0.11818041949E+03  0.13604514481E+03  0.10000000000E+01 0.  0.
          4    1    1    2  501    0  0.26751684075E+02 -0.37422621477E+02 -0.14306483798E+03  0.15028395113E+03  0.12700000000E+01 0.  1.
<mgrwt>
<rscale>  1 0.13319681E+03</rscale>
<asrwt>0</asrwt>
<pdfrwt beam="2">  1       21 0.56808396E-01 0.13319681E+03</pdfrwt>
<pdfrwt beam="1">  1        4 0.36209353E-02 0.13319681E+03</pdfrwt>
<totfact> 0.47518122E+04</totfact>
</mgrwt>
</event>
<event>
 6    4  0.6358868E-003  0.1273886E+03  0.7818608E-02  0.1231383E+00
         -4   -1    0    0    0  501 -0.00000000000E+00  0.00000000000E+00  0.45623427932E+03  0.45623604694E+03  0.12700000000E+01 0.  1.
         21   -1    0    0  501  502  0.00000000000E+00 -0.00000000000E+00 -0.14281152887E+02  0.14281152887E+02  0.00000000000E+00 0.  1.
         25    2    1    2    0    0  0.38926110724E+01 -0.24250200678E+02  0.41462089327E+03  0.43374916312E+03  0.12499850685E+03 0.  0.
    9000005    1    3    3    0    0 -0.25990577227E+02 -0.47636314419E+01  0.11140527654E+02  0.28693442552E+02  0.10000000000E+01 0.  0.
    9000005    1    3    3    0    0  0.29883188299E+02 -0.19486569236E+02  0.40348036562E+03  0.40505572056E+03  0.10000000000E+01 0.  0.
         -4    1    1    2    0  502 -0.38926110724E+01  0.24250200678E+02  0.27332233163E+02  0.36768036711E+02  0.12700000000E+01 0. -1.
<mgrwt>
<rscale>  1 0.12738858E+03</rscale>
<asrwt>0</asrwt>
<pdfrwt beam="2">  1       21 0.21971008E-02 0.12738858E+03</pdfrwt>
<pdfrwt beam="1">  1       -4 0.70194358E-01 0.12738858E+03</pdfrwt>
<totfact> 0.79765843E+04</totfact>
</mgrwt>
</event>
<event>
 6    4  0.6358868E-003  0.1353415E+03  0.7818608E-02  0.1219738E+00
         21   -1    0    0  501  502  0.00000000000E+00  0.00000000000E+00  0.68210870860E+03  0.68210870860E+03  0.00000000000E+00 0. -1.
         -4   -1    0    0    0  501 -0.00000000000E+00 -0.00000000000E+00 -0.55826645836E+02  0.55841089578E+02  0.12700000000E+01 0.  1.
         25    2    1    2    0    0 -0.37312370528E+02  0.36054802083E+02  0.28995681845E+02  0.13841264714E+03  0.12500059829E+03 0.  0.
    9000005    1    3    3    0    0 -0.10267584212E+02 -0.40608883060E+02  0.38065241186E+02  0.56608014057E+02  0.10000000000E+01 0.  0.
    9000005    1    3    3    0    0 -0.27044786317E+02  0.76663685143E+02 -0.90695593412E+01  0.81804633080E+02  0.10000000000E+01 0.  0.
         -4    1    1    2    0  502  0.37312370528E+02 -0.36054802083E+02  0.59728638092E+03  0.59953715104E+03  0.12700000000E+01 0. -1.
<mgrwt>
<rscale>  1 0.13534146E+03</rscale>
<asrwt>0</asrwt>
<pdfrwt beam="1">  1       21 0.10493980E+00 0.13534146E+03</pdfrwt>
<pdfrwt beam="2">  1       -4 0.85899172E-02 0.13534146E+03</pdfrwt>
<totfact> 0.29931224E+03</totfact>
</mgrwt>
</event>
<event>
 6    4  0.6358868E-003  0.1284542E+03  0.7818608E-02  0.1229768E+00
         21   -1    0    0  501  502  0.00000000000E+00  0.00000000000E+00  0.77677699814E+01  0.77677699814E+01  0.00000000000E+00 0.  1.
          4   -1    0    0  502    0 -0.00000000000E+00 -0.00000000000E+00 -0.81509933667E+03  0.81510032606E+03  0.12700000000E+01 0.  1.
         25    2    1    2    0    0 -0.16374367943E+02  0.24626267826E+02 -0.69038885445E+03  0.70223732120E+03  0.12500364773E+03 0.  0.
    9000005    1    3    3    0    0  0.52966171262E+02  0.14013241203E+02 -0.38588577918E+03  0.38975713053E+03  0.10000000000E+01 0.  0.
    9000005    1    3    3    0    0 -0.69340539204E+02  0.10613026623E+02 -0.30450307527E+03  0.31248019067E+03  0.10000000000E+01 0.  0.
          4    1    1    2  501    0  0.16374367943E+02 -0.24626267826E+02 -0.11694271223E+03  0.12063077483E+03  0.12700000000E+01 0. -1.
<mgrwt>
<rscale>  1 0.12845421E+03</rscale>
<asrwt>0</asrwt>
<pdfrwt beam="1">  1       21 0.11950410E-02 0.12845421E+03</pdfrwt>
<pdfrwt beam="2">  1        4 0.12540801E+00 0.12845421E+03</pdfrwt>
<totfact> 0.56344314E+04</totfact>
</mgrwt>
</event>
<event>
 6    4  0.6358868E-003  0.1349250E+03  0.7818608E-02  0.1220326E+00
          4   -1    0    0  502    0 -0.00000000000E+00  0.00000000000E+00  0.70786778989E+03  0.70786892916E+03  0.12700000000E+01 0.  1.
         21   -1    0    0  501  502  0.00000000000E+00 -0.00000000000E+00 -0.37588985842E+02  0.37588985842E+02  0.00000000000E+00 0. -1.
         25    2    1    2    0    0  0.50065083952E+02 -0.85418036838E+01  0.68040523292E+03  0.69365412650E+03  0.12500116476E+03 0.  0.
    9000005    1    3    3    0    0  0.70796931941E+02 -0.33400431279E+02  0.62169317004E+03  0.62660289822E+03  0.10000000000E+01 0.  0.
    9000005    1    3    3    0    0 -0.20731847989E+02  0.24858627595E+02  0.58712062880E+02  0.67051228285E+02  0.10000000000E+01 0.  0.
          4    1    1    2  501    0 -0.50065083952E+02  0.85418036838E+01 -0.10126428865E+02  0.51803788499E+02  0.12700000000E+01 0. -1.
<mgrwt>
<rscale>  1 0.13492504E+03</rscale>
<asrwt>0</asrwt>
<pdfrwt beam="2">  1       21 0.57829214E-02 0.13492504E+03</pdfrwt>
<pdfrwt beam="1">  1        4 0.10890447E+00 0.13492504E+03</pdfrwt>
<totfact> 0.60294978E+03</totfact>
</mgrwt>
</event>
<event>
 6    4  0.6358868E-003  0.1337220E+03  0.7818608E-02  0.1222035E+00
         21   -1    0    0  501  502  0.00000000000E+00  0.00000000000E+00  0.37462637474E+02  0.37462637474E+02  0.00000000000E+00 0.  1.
         -4   -1    0    0    0  501 -0.00000000000E+00 -0.00000000000E+00 -0.27901770367E+03  0.27902059398E+03  0.12700000000E+01 0. -1.
         25    2    1    2    0    0 -0.37429049782E+02 -0.29274869922E+02 -0.23232491106E+03  0.26806050496E+03  0.12499447286E+03 0.  0.
    9000005    1    3    3    0    0  0.21031347136E+02  0.38075649721E+02 -0.61230424332E+02  0.75114828948E+02  0.10000000000E+01 0.  0.
    9000005    1    3    3    0    0 -0.58460396918E+02 -0.67350519643E+02 -0.17109448673E+03  0.19294567602E+03  0.10000000000E+01 0.  0.
         -4    1    1    2    0  502  0.37429049782E+02  0.29274869922E+02 -0.92301551391E+01  0.48422726487E+02  0.12700000000E+01 0.  1.
<mgrwt>
<rscale>  1 0.13372199E+03</rscale>
<asrwt>0</asrwt>
<pdfrwt beam="1">  1       21 0.57634825E-02 0.13372199E+03</pdfrwt>
<pdfrwt beam="2">  1       -4 0.42927680E-01 0.13372199E+03</pdfrwt>
<totfact> 0.45054691E+04</totfact>
</mgrwt>
</event>
<event>
 6    4  0.6358868E-003  0.1267040E+03  0.7818608E-02  0.1232430E+00
          4   -1    0    0  502    0 -0.00000000000E+00  0.00000000000E+00  0.56338693045E+02  0.56353005546E+02  0.12700000000E+01 0.  1.
         21   -1    0    0  501  502  0.00000000000E+00 -0.00000000000E+00 -0.19366711383E+03  0.19366711383E+03  0.00000000000E+00 0.  1.
         25    2    1    2    0    0 -0.62038874725E+01  0.19935442833E+02 -0.16943885860E+02  0.12783190697E+03  0.12497196114E+03 0.  0.
    9000005    1    3    3    0    0  0.24848780990E+02 -0.27543848939E+02  0.34922218611E+02  0.50957697003E+02  0.10000000000E+01 0.  0.
    9000005    1    3    3    0    0 -0.31052668463E+02  0.47479291772E+02 -0.51866104471E+02  0.76874209972E+02  0.10000000000E+01 0.  0.
          4    1    1    2  501    0  0.62038874725E+01 -0.19935442833E+02 -0.12038453493E+03  0.12218821240E+03  0.12700000000E+01 0. -1.
<mgrwt>
<rscale>  1 0.12670399E+03</rscale>
<asrwt>0</asrwt>
<pdfrwt beam="2">  1       21 0.29794941E-01 0.12670399E+03</pdfrwt>
<pdfrwt beam="1">  1        4 0.86689125E-02 0.12670399E+03</pdfrwt>
<totfact> 0.42082685E+04</totfact>
</mgrwt>
</event>
<event>
 6    4  0.6358868E-003  0.1303397E+03  0.7818608E-02  0.1226953E+00
         21   -1    0    0  501  502  0.00000000000E+00  0.00000000000E+00  0.45675805148E+03  0.45675805148E+03  0.00000000000E+00 0.  1.
         -4   -1    0    0    0  501 -0.00000000000E+00 -0.00000000000E+00 -0.29772701398E+02  0.29799775981E+02  0.12700000000E+01 0. -1.
         25    2    1    2    0    0  0.26067391242E+02  0.26150953638E+02  0.11940140887E+03  0.17676293555E+03  0.12500023073E+03 0.  0.
    9000005    1    3    3    0    0  0.55718077455E+02 -0.14707464082E+02  0.13138782375E+02  0.59113799212E+02  0.10000000000E+01 0.  0.
    9000005    1    3    3    0    0 -0.29650686213E+02  0.40858417720E+02  0.10626262649E+03  0.11764913633E+03  0.10000000000E+01 0.  0.
         -4    1    1    2    0  502 -0.26067391242E+02 -0.26150953638E+02  0.30758394122E+03  0.30979489192E+03  0.12700000000E+01 0.  1.
<mgrwt>
<rscale>  1 0.13033971E+03</rscale>
<asrwt>0</asrwt>
<pdfrwt beam="1">  1       21 0.70270465E-01 0.13033971E+03</pdfrwt>
<pdfrwt beam="2">  1       -4 0.45826344E-02 0.13033971E+03</pdfrwt>
<totfact> 0.20673259E+04</totfact>
</mgrwt>
</event>
<event>
 6    4  0.6358868E-003  0.1367341E+03  0.7818608E-02  0.1217792E+00
          4   -1    0    0  502    0 -0.00000000000E+00  0.00000000000E+00  0.24102767510E+02  0.24136203132E+02  0.12700000000E+01 0. -1.
         21   -1    0    0  501  502  0.00000000000E+00 -0.00000000000E+00 -0.80892157722E+03  0.80892157722E+03  0.00000000000E+00 0.  1.
         25    2    1    2    0    0 -0.56306520393E+01 -0.55132728852E+02 -0.18172010519E+03  0.22741681218E+03  0.12499955120E+03 0.  0.
    9000005    1    3    3    0    0 -0.46713024529E+02  0.71546841176E+01 -0.24173033817E+02  0.53090787613E+02  0.10000000000E+01 0.  0.
    9000005    1    3    3    0    0  0.41082372490E+02 -0.62287412970E+02 -0.15754707137E+03  0.17432602457E+03  0.10000000000E+01 0.  0.
          4    1    1    2  501    0  0.56306520393E+01  0.55132728852E+02 -0.60309870451E+03  0.60564096816E+03  0.12700000000E+01 0.  1.
<mgrwt>
<rscale>  1 0.13673408E+03</rscale>
<asrwt>0</asrwt>
<pdfrwt beam="2">  1       21 0.12444949E+00 0.13673408E+03</pdfrwt>
<pdfrwt beam="1">  1        4 0.37107664E-02 0.13673408E+03</pdfrwt>
<totfact> 0.77316119E+03</totfact>
</mgrwt>
</event>
<event>
 6    4  0.6358868E-003  0.1305909E+03  0.7818608E-02  0.1226582E+00
         21   -1    0    0  501  502  0.00000000000E+00  0.00000000000E+00  0.16028217484E+03  0.16028217484E+03  0.00000000000E+00 0.  1.
          4   -1    0    0  502    0 -0.00000000000E+00 -0.00000000000E+00 -0.45194435263E+02  0.45212275753E+02  0.12700000000E+01 0. -1.
         25    2    1    2    0    0  0.54179874035E+01 -0.37390628144E+02  0.75901608793E+02  0.15104649924E+03  0.12500630806E+03 0.  0.
    9000005    1    3    3    0    0 -0.43862812063E+02 -0.27445697648E+02  0.85415682022E+02  0.99870172408E+02  0.10000000000E+01 0.  0.
    9000005    1    3    3    0    0  0.49280799467E+02 -0.99449304959E+01 -0.95140732296E+01  0.51176326833E+02  0.10000000000E+01 0.  0.
          4    1    1    2  501    0 -0.54179874035E+01  0.37390628144E+02  0.39186130782E+02  0.54447951350E+02  0.12700000000E+01 0.  1.
<mgrwt>
<rscale>  1 0.13059093E+03</rscale>
<asrwt>0</asrwt>
<pdfrwt beam="1">  1       21 0.24658796E-01 0.13059093E+03</pdfrwt>
<pdfrwt beam="2">  1        4 0.69547495E-02 0.13059093E+03</pdfrwt>
<totfact> 0.87176398E+04</totfact>
</mgrwt>
</event>
<event>
 6    4  0.6358868E-003  0.1266784E+03  0.7818608E-02  0.1232469E+00
         -4   -1    0    0    0  501 -0.00000000000E+00  0.00000000000E+00  0.44641347612E+03  0.44641528262E+03  0.12700000000E+01 0. -1.
         21   -1    0    0  501  502  0.00000000000E+00 -0.00000000000E+00 -0.24847099703E+02  0.24847099703E+02  0.00000000000E+00 0. -1.
         25    2    1    2    0    0 -0.12123445918E+02 -0.16579307571E+02  0.43055695709E+03  0.44880587277E+03  0.12500226702E+03 0.  0.
    9000005    1    3    3    0    0 -0.27794916445E+02 -0.61296214587E+02  0.15187832410E+03  0.16612588189E+03  0.10000000000E+01 0.  0.
    9000005    1    3    3    0    0  0.15671470527E+02  0.44716907016E+02  0.27867863298E+03  0.28267999088E+03  0.10000000000E+01 0.  0.
         -4    1    1    2    0  502  0.12123445918E+02  0.16579307571E+02 -0.89905806724E+01  0.22456509553E+02  0.12700000000E+01 0.  1.
<mgrwt>
<rscale>  1 0.12667840E+03</rscale>
<asrwt>0</asrwt>
<pdfrwt beam="2">  1       21 0.38226311E-02 0.12667840E+03</pdfrwt>
<pdfrwt beam="1">  1       -4 0.68681626E-01 0.12667840E+03</pdfrwt>
<totfact> 0.33732813E+04</totfact>
</mgrwt>
</event>
<event>
 6    4  0.6358868E-003  0.1287498E+03  0.7818608E-02  0.1229323E+00
         -4   -1    0    0    0  501 -0.00000000000E+00  0.00000000000E+00  0.44477609145E+02  0.44495737046E+02  0.12700000000E+01 0. -1.
         21   -1    0    0  501  502  0.00000000000E+00 -0.00000000000E+00 -0.26760743593E+03  0.26760743593E+03  0.00000000000E+00 0.  1.
         25    2    1    2    0    0 -0.10842960836E+02 -0.28879954966E+02 -0.53061857140E+02  0.13925541106E+03  0.12499954892E+03 0.  0.
    9000005    1    3    3    0    0 -0.16356846581E+02 -0.63462666713E+02  0.10787509079E+02  0.66426100657E+02  0.10000000000E+01 0.  0.
    9000005    1    3    3    0    0  0.55138857456E+01  0.34582711747E+02 -0.63849366219E+02  0.72829310407E+02  0.10000000000E+01 0.  0.
         -4    1    1    2    0  502  0.10842960836E+02  0.28879954966E+02 -0.17006796965E+03  0.17284776191E+03  0.12700000000E+01 0.  1.
<mgrwt>
<rscale>  1 0.12874979E+03</rscale>
<asrwt>0</asrwt>
<pdfrwt beam="2">  1       21 0.41170375E-01 0.12874979E+03</pdfrwt>
<pdfrwt beam="1">  1       -4 0.68443354E-02 0.12874979E+03</pdfrwt>
<totfact> 0.32982886E+04</totfact>
</mgrwt>
</event>
<event>
 6    4  0.6358868E-003  0.1299360E+03  0.7818608E-02  0.1227551E+00
         21   -1    0    0  501  502  0.00000000000E+00  0.00000000000E+00  0.30637195139E+03  0.30637195139E+03  0.00000000000E+00 0. -1.
         -4   -1    0    0    0  501 -0.00000000000E+00 -0.00000000000E+00 -0.32158422593E+02  0.32183490234E+02  0.12700000000E+01 0.  1.
         25    2    1    2    0    0 -0.33879494252E+02  0.10520137834E+02  0.10908724097E+03  0.16965666347E+03  0.12499945554E+03 0.  0.
    9000005    1    3    3    0    0  0.10104080281E+02 -0.51731888028E+02  0.55018563512E+02  0.76199232333E+02  0.10000000000E+01 0.  0.
    9000005    1    3    3    0    0 -0.43983574533E+02  0.62252025862E+02  0.54068677461E+02  0.93457431139E+02  0.10000000000E+01 0.  0.
         -4    1    1    2    0  502  0.33879494252E+02 -0.10520137834E+02  0.16512628782E+03  0.16889877815E+03  0.12700000000E+01 0. -1.
<mgrwt>
<rscale>  1 0.12993597E+03</rscale>
<asrwt>0</asrwt>
<pdfrwt beam="1">  1       21 0.47134144E-01 0.12993597E+03</pdfrwt>
<pdfrwt beam="2">  1       -4 0.49495806E-02 0.12993597E+03</pdfrwt>
<totfact> 0.42443857E+04</totfact>
</mgrwt>
</event>
<event>
 6    4  0.6358868E-003  0.1303981E+03  0.7818608E-02  0.1226866E+00
         21   -1    0    0  501  502  0.00000000000E+00  0.00000000000E+00  0.44355826723E+02  0.44355826723E+02  0.00000000000E+00 0. -1.
         -4   -1    0    0    0  501 -0.00000000000E+00 -0.00000000000E+00 -0.57456924801E+03  0.57457065158E+03  0.12700000000E+01 0.  1.
         25    2    1    2    0    0  0.13646685643E+02 -0.34523694657E+02 -0.55768481808E+03  0.57272682394E+03  0.12500216404E+03 0.  0.
    9000005    1    3    3    0    0  0.35751577072E+02 -0.57755889255E+02 -0.51430185271E+03  0.51876903696E+03  0.10000000000E+01 0.  0.
    9000005    1    3    3    0    0 -0.22104891429E+02  0.23232194598E+02 -0.43382965377E+02  0.53957786981E+02  0.10000000000E+01 0.  0.
         -4    1    1    2    0  502 -0.13646685643E+02  0.34523694657E+02  0.27471396797E+02  0.46199654368E+02  0.12700000000E+01 0. -1.
<mgrwt>
<rscale>  1 0.13039808E+03</rscale>
<asrwt>0</asrwt>
<pdfrwt beam="1">  1       21 0.68239738E-02 0.13039808E+03</pdfrwt>
<pdfrwt beam="2">  1       -4 0.88396770E-01 0.13039808E+03</pdfrwt>
<totfact> 0.73335234E+03</totfact>
</mgrwt>
</event>
<event>
 6    4  0.6358868E-003  0.1494938E+03  0.7818608E-02  0.1201096E+00
         21   -1    0    0  501  502  0.00000000000E+00  0.00000000000E+00  0.61198034172E+03  0.61198034172E+03  0.00000000000E+00 0.  1.
          4   -1    0    0  502    0 -0.00000000000E+00 -0.00000000000E+00 -0.31946799471E+02  0.31972033036E+02  0.12700000000E+01 0. -1.
         25    2    1    2    0    0 -0.76108033724E+02 -0.30487095351E+02  0.17255700459E+03  0.22830752946E+03  0.12500604943E+03 0.  0.
    9000005    1    3    3    0    0 -0.68012991486E+02 -0.31036334527E+02  0.19263147451E+03  0.20663229671E+03  0.10000000000E+01 0.  0.
    9000005    1    3    3    0    0 -0.80950422380E+01  0.54923917567E+00 -0.20074469915E+02  0.21675232753E+02  0.10000000000E+01 0.  0.
          4    1    1    2  501    0  0.76108033724E+02  0.30487095351E+02  0.40747653766E+03  0.41564484529E+03  0.12700000000E+01 0.  1.
<mgrwt>
<rscale>  1 0.14949384E+03</rscale>
<asrwt>0</asrwt>
<pdfrwt beam="1">  1       21 0.94150813E-01 0.14949384E+03</pdfrwt>
<pdfrwt beam="2">  1        4 0.49169351E-02 0.14949384E+03</pdfrwt>
<totfact> 0.96599565E+03</totfact>
</mgrwt>
</event>
<event>
 6    4  0.6358868E-003  0.1274457E+03  0.7818608E-02  0.1231296E+00
          4   -1    0    0  502    0 -0.00000000000E+00  0.00000000000E+00  0.93240931638E+02  0.93249580336E+02  0.12700000000E+01 0. -1.
         21   -1    0    0  501  502  0.00000000000E+00 -0.00000000000E+00 -0.19851536355E+03  0.19851536355E+03  0.00000000000E+00 0.  1.
         25    2    1    2    0    0  0.24339202538E+02  0.50380068737E+01  0.48222281979E+02  0.13626371441E+03  0.12499853236E+03 0.  0.
    9000005    1    3    3    0    0  0.22485906864E+02  0.65601573210E+01 -0.40878881697E+02  0.47124671250E+02  0.10000000000E+01 0.  0.
    9000005    1    3    3    0    0  0.18532956741E+01 -0.15221504473E+01  0.89101163677E+02  0.89139043159E+02  0.10000000000E+01 0.  0.
          4    1    1    2  501    0 -0.24339202538E+02 -0.50380068737E+01 -0.15349671389E+03  0.15550122948E+03  0.12700000000E+01 0.  1.
<mgrwt>
<rscale>  1 0.12744572E+03</rscale>
<asrwt>0</asrwt>
<pdfrwt beam="2">  1       21 0.30540825E-01 0.12744572E+03</pdfrwt>
<pdfrwt beam="1">  1        4 0.14345736E-01 0.12744572E+03</pdfrwt>
<totfact> 0.17065095E+04</totfact>
</mgrwt>
</event>
<event>
 6    4  0.6358868E-003  0.1340381E+03  0.7818608E-02  0.1221584E+00
         21   -1    0    0  501  502  0.00000000000E+00  0.00000000000E+00  0.91933646925E+01  0.91933646925E+01  0.00000000000E+00 0. -1.
         -4   -1    0    0    0  501 -0.00000000000E+00 -0.00000000000E+00 -0.93797983119E+03  0.93798069096E+03  0.12700000000E+01 0. -1.
         25    2    1    2    0    0  0.28578983404E+02  0.39022991723E+02 -0.75364856884E+03  0.76547527120E+03  0.12500669316E+03 0.  0.
    9000005    1    3    3    0    0  0.36522388801E+02  0.80169435703E+02 -0.41546036997E+03  0.42469911976E+03  0.10000000000E+01 0.  0.
    9000005    1    3    3    0    0 -0.79434053969E+01 -0.41146443980E+02 -0.33818819886E+03  0.34077615144E+03  0.10000000000E+01 0.  0.
         -4    1    1    2    0  502 -0.28578983404E+02 -0.39022991723E+02 -0.17513789766E+03  0.18169878445E+03  0.12700000000E+01 0.  1.
<mgrwt>
<rscale>  1 0.13403815E+03</rscale>
<asrwt>0</asrwt>
<pdfrwt beam="1">  1       21 0.14143634E-02 0.13403815E+03</pdfrwt>
<pdfrwt beam="2">  1       -4 0.14431144E+00 0.13403815E+03</pdfrwt>
<totfact> 0.30640037E+04</totfact>
</mgrwt>
</event>
<event>
 6    4  0.6358868E-003  0.1441465E+03  0.7818608E-02  0.1207856E+00
         21   -1    0    0  501  502  0.00000000000E+00  0.00000000000E+00  0.46247185383E+02  0.46247185383E+02  0.00000000000E+00 0. -1.
          4   -1    0    0  502    0 -0.00000000000E+00 -0.00000000000E+00 -0.26752228009E+03  0.26752529459E+03  0.12700000000E+01 0.  1.
         25    2    1    2    0    0  0.93650178136E+01 -0.71174433697E+02 -0.18121529577E+03  0.23155384485E+03  0.12499878428E+03 0.  0.
    9000005    1    3    3    0    0  0.13018998506E+02 -0.65104750850E+02 -0.20038090075E+03  0.21109625362E+03  0.10000000000E+01 0.  0.
    9000005    1    3    3    0    0 -0.36539806928E+01 -0.60696828476E+01  0.19165604979E+02  0.20457591232E+02  0.10000000000E+01 0.  0.
          4    1    1    2  501    0 -0.93650178136E+01  0.71174433697E+02 -0.40059798938E+02  0.82218635124E+02  0.12700000000E+01 0. -1.
<mgrwt>
<rscale>  1 0.14414645E+03</rscale>
<asrwt>0</asrwt>
<pdfrwt beam="1">  1       21 0.71149516E-02 0.14414645E+03</pdfrwt>
<pdfrwt beam="2">  1        4 0.41158847E-01 0.14414645E+03</pdfrwt>
<totfact> 0.34497990E+04</totfact>
</mgrwt>
</event>
<event>
 6    4  0.6358868E-003  0.1270875E+03  0.7818608E-02  0.1231842E+00
         21   -1    0    0  501  502  0.00000000000E+00  0.00000000000E+00  0.12513738681E+03  0.12513738681E+03  0.00000000000E+00 0.  1.
         -4   -1    0    0    0  501 -0.00000000000E+00 -0.00000000000E+00 -0.65969518750E+02  0.65981742202E+02  0.12700000000E+01 0.  1.
         25    2    1    2    0    0  0.11207300873E+02 -0.20028966986E+02 -0.59407643507E+00  0.12708893284E+03  0.12499792324E+03 0.  0.
    9000005    1    3    3    0    0  0.50362490268E+02 -0.29246214534E+02 -0.40086846128E+02  0.70708392169E+02  0.10000000000E+01 0.  0.
    9000005    1    3    3    0    0 -0.39155189395E+02  0.92172475479E+01  0.39492769693E+02  0.56380540676E+02  0.10000000000E+01 0.  0.
         -4    1    1    2    0  502 -0.11207300873E+02  0.20028966986E+02  0.59761944496E+02  0.64030196168E+02  0.12700000000E+01 0. -1.
<mgrwt>
<rscale>  1 0.12708754E+03</rscale>
<asrwt>0</asrwt>
<pdfrwt beam="1">  1       21 0.19251906E-01 0.12708754E+03</pdfrwt>
<pdfrwt beam="2">  1       -4 0.10150593E-01 0.12708754E+03</pdfrwt>
<totfact> 0.73530402E+04</totfact>
</mgrwt>
</event>
<event>
 6    4  0.6358868E-003  0.1276683E+03  0.7818608E-02  0.1230957E+00
         21   -1    0    0  501  502  0.00000000000E+00  0.00000000000E+00  0.58032495881E+02  0.58032495881E+02  0.00000000000E+00 0.  1.
          4   -1    0    0  502    0 -0.00000000000E+00 -0.00000000000E+00 -0.16640612272E+03  0.16641096892E+03  0.12700000000E+01 0. -1.
         25    2    1    2    0    0 -0.76300829542E+01 -0.24806783950E+02 -0.13598779114E+03  0.18652579523E+03  0.12500239299E+03 0.  0.
    9000005    1    3    3    0    0 -0.10887590992E+02 -0.68756201612E+02 -0.12166486802E+03  0.14017594304E+03  0.10000000000E+01 0.  0.
    9000005    1    3    3    0    0  0.32575080380E+01  0.43949417662E+02 -0.14322923119E+02  0.46349852191E+02  0.10000000000E+01 0.  0.
          4    1    1    2  501    0  0.76300829542E+01  0.24806783950E+02  0.27614164299E+02  0.37917669572E+02  0.12700000000E+01 0.  1.
<mgrwt>
<rscale>  1 0.12766829E+03</rscale>
<asrwt>0</asrwt>
<pdfrwt beam="1">  1       21 0.89280763E-02 0.12766829E+03</pdfrwt>
<pdfrwt beam="2">  1        4 0.25602384E-01 0.12766829E+03</pdfrwt>
<totfact> 0.56930082E+04</totfact>
</mgrwt>
</event>
<event>
 6    4  0.6358868E-003  0.1369225E+03  0.7818608E-02  0.1217531E+00
         -4   -1    0    0    0  501 -0.00000000000E+00  0.00000000000E+00  0.40678925532E+03  0.40679123780E+03  0.12700000000E+01 0. -1.
         21   -1    0    0  501  502  0.00000000000E+00 -0.00000000000E+00 -0.24305866835E+02  0.24305866835E+02  0.00000000000E+00 0. -1.
         25    2    1    2    0    0  0.70096533864E+01 -0.55447364049E+02  0.21860023427E+03  0.25794154867E+03  0.12499693873E+03 0.  0.
    9000005    1    3    3    0    0  0.31961844976E+02 -0.23716932907E+01  0.18999407427E+03  0.19268090907E+03  0.10000000000E+01 0.  0.
    9000005    1    3    3    0    0 -0.24952191589E+02 -0.53075670758E+02  0.28606159996E+02  0.65260639602E+02  0.10000000000E+01 0.  0.
         -4    1    1    2    0  502 -0.70096533864E+01  0.55447364049E+02  0.16388315422E+03  0.17315555596E+03  0.12700000000E+01 0.  1.
<mgrwt>
<rscale>  1 0.13692253E+03</rscale>
<asrwt>0</asrwt>
<pdfrwt beam="2">  1       21 0.37393644E-02 0.13692253E+03</pdfrwt>
<pdfrwt beam="1">  1       -4 0.62585662E-01 0.13692253E+03</pdfrwt>
<totfact> 0.43065744E+04</totfact>
</mgrwt>
</event>
<event>
 6    4  0.6358868E-003  0.1343294E+03  0.7818608E-02  0.1221169E+00
          4   -1    0    0  502    0 -0.00000000000E+00  0.00000000000E+00  0.14793335809E+03  0.14793880943E+03  0.12700000000E+01 0. -1.
         21   -1    0    0  501  502  0.00000000000E+00 -0.00000000000E+00 -0.63343000436E+02  0.63343000436E+02  0.00000000000E+00 0. -1.
         25    2    1    2    0    0 -0.48470830180E+02 -0.75008424614E+01  0.90340154590E+02  0.16188183941E+03  0.12505479752E+03 0.  0.
    9000005    1    3    3    0    0  0.33774596914E+02 -0.28228160581E+02  0.10214589826E+02  0.45198343906E+02  0.10000000000E+01 0.  0.
    9000005    1    3    3    0    0 -0.82245427094E+02  0.20727318120E+02  0.80125564764E+02  0.11668349550E+03  0.10000000000E+01 0.  0.
          4    1    1    2  501    0  0.48470830180E+02  0.75008424614E+01 -0.57497969393E+01  0.49399970454E+02  0.12700000000E+01 0.  1.
<mgrwt>
<rscale>  1 0.13432940E+03</rscale>
<asrwt>0</asrwt>
<pdfrwt beam="2">  1       21 0.97450770E-02 0.13432940E+03</pdfrwt>
<pdfrwt beam="1">  1        4 0.22760377E-01 0.13432940E+03</pdfrwt>
<totfact> 0.61071327E+04</totfact>
</mgrwt>
</event>
<event>
 6    4  0.6358868E-003  0.1561802E+03  0.7818608E-02  0.1193078E+00
         21   -1    0    0  501  502  0.00000000000E+00  0.00000000000E+00  0.12291658541E+04  0.12291658541E+04  0.00000000000E+00 0. -1.
          4   -1    0    0  502    0 -0.00000000000E+00 -0.00000000000E+00 -0.14326364319E+02  0.14382545484E+02  0.12700000000E+01 0.  1.
         25    2    1    2    0    0 -0.37507160095E+02  0.85792487467E+02  0.53631982117E+03  0.55859753160E+03  0.12500045505E+03 0.  0.
    9000005    1    3    3    0    0  0.24129800889E+02 -0.14432267584E+02  0.42612977648E+02  0.51062740845E+02  0.10000000000E+01 0.  0.
    9000005    1    3    3    0    0 -0.61636960984E+02  0.10022475505E+03  0.49370684352E+03  0.50753479075E+03  0.10000000000E+01 0.  0.
          4    1    1    2  501    0  0.37507160095E+02 -0.85792487467E+02  0.67851966864E+03  0.68495086801E+03  0.12700000000E+01 0. -1.
<mgrwt>
<rscale>  1 0.15618019E+03</rscale>
<asrwt>0</asrwt>
<pdfrwt beam="1">  1       21 0.18910236E+00 0.15618019E+03</pdfrwt>
<pdfrwt beam="2">  1        4 0.22084291E-02 0.15618019E+03</pdfrwt>
<totfact> 0.58088103E+03</totfact>
</mgrwt>
</event>
<event>
 6    4  0.6358868E-003  0.1306434E+03  0.7818608E-02  0.1226504E+00
          4   -1    0    0  502    0 -0.00000000000E+00  0.00000000000E+00  0.61976489385E+03  0.61976619506E+03  0.12700000000E+01 0. -1.
         21   -1    0    0  501  502  0.00000000000E+00 -0.00000000000E+00 -0.91803955345E+02  0.91803955345E+02  0.00000000000E+00 0.  1.
         25    2    1    2    0    0 -0.24275288655E+02 -0.29199648817E+02  0.60858120123E+03  0.62244580585E+03  0.12500317434E+03 0.  0.
    9000005    1    3    3    0    0 -0.72633948938E+02  0.26791733695E+01  0.34456221900E+03  0.35214626404E+03  0.10000000000E+01 0.  0.
    9000005    1    3    3    0    0  0.48358660283E+02 -0.31878822186E+02  0.26401898223E+03  0.27029954181E+03  0.10000000000E+01 0.  0.
          4    1    1    2  501    0  0.24275288655E+02  0.29199648817E+02 -0.80620262732E+02  0.89124344560E+02  0.12700000000E+01 0.  1.
<mgrwt>
<rscale>  1 0.13064342E+03</rscale>
<asrwt>0</asrwt>
<pdfrwt beam="2">  1       21 0.14123686E-01 0.13064342E+03</pdfrwt>
<pdfrwt beam="1">  1        4 0.95349218E-01 0.13064342E+03</pdfrwt>
<totfact> 0.17312313E+03</totfact>
</mgrwt>
</event>
<event>
 6    4  0.6358868E-003  0.1329542E+03  0.7818608E-02  0.1223137E+00
         -4   -1    0    0    0  501 -0.00000000000E+00  0.00000000000E+00  0.12078658709E+04  0.12078665385E+04  0.12700000000E+01 0.  1.
         21   -1    0    0  501  502  0.00000000000E+00 -0.00000000000E+00 -0.99649799697E+01  0.99649799697E+01  0.00000000000E+00 0.  1.
         25    2    1    2    0    0 -0.45261450519E+02 -0.18356000137E+01  0.11187776212E+04  0.11266499796E+04  0.12499936997E+03 0.  0.
    9000005    1    3    3    0    0 -0.19077754684E+02  0.60597686586E+02  0.45211599581E+03  0.45655877389E+03  0.10000000000E+01 0.  0.
    9000005    1    3    3    0    0 -0.26183695835E+02 -0.62433286600E+02  0.66666162538E+03  0.67009120570E+03  0.10000000000E+01 0.  0.
         -4    1    1    2    0  502  0.45261450519E+02  0.18356000137E+01  0.79123269726E+02  0.91181538935E+02  0.12700000000E+01 0. -1.
<mgrwt>
<rscale>  1 0.13295417E+03</rscale>
<asrwt>0</asrwt>
<pdfrwt beam="2">  1       21 0.15330748E-02 0.13295417E+03</pdfrwt>
<pdfrwt beam="1">  1       -4 0.18583168E+00 0.13295417E+03</pdfrwt>
<totfact> 0.13849732E+04</totfact>
</mgrwt>
</event>
<event>
 6    4  0.6358868E-003  0.1361780E+03  0.7818608E-02  0.1218566E+00
         -4   -1    0    0    0  501 -0.00000000000E+00  0.00000000000E+00  0.14200489105E+03  0.14201056996E+03  0.12700000000E+01 0. -1.
         21   -1    0    0  501  502  0.00000000000E+00 -0.00000000000E+00 -0.25193042480E+03  0.25193042480E+03  0.00000000000E+00 0.  1.
         25    2    1    2    0    0  0.62084053575E+01 -0.53677856856E+02  0.10523117816E+03  0.17209897846E+03  0.12499840366E+03 0.  0.
    9000005    1    3    3    0    0 -0.52573759683E+02 -0.42722556689E+02  0.25407787797E+02  0.72358639692E+02  0.10000000000E+01 0.  0.
    9000005    1    3    3    0    0  0.58782165041E+02 -0.10955300167E+02  0.79823390366E+02  0.99740338771E+02  0.10000000000E+01 0.  0.
         -4    1    1    2    0  502 -0.62084053575E+01  0.53677856856E+02 -0.21515671192E+03  0.22184201630E+03  0.12700000000E+01 0.  1.
<mgrwt>
<rscale>  1 0.13617804E+03</rscale>
<asrwt>0</asrwt>
<pdfrwt beam="2">  1       21 0.38758526E-01 0.13617804E+03</pdfrwt>
<pdfrwt beam="1">  1       -4 0.21847590E-01 0.13617804E+03</pdfrwt>
<totfact> 0.50940382E+03</totfact>
</mgrwt>
</event>
<event>
 6    4  0.6358868E-003  0.1479254E+03  0.7818608E-02  0.1203046E+00
          4   -1    0    0  502    0 -0.00000000000E+00  0.00000000000E+00  0.33706703038E+03  0.33706942292E+03  0.12700000000E+01 0.  1.
         21   -1    0    0  501  502  0.00000000000E+00 -0.00000000000E+00 -0.67071989974E+02  0.67071989974E+02  0.00000000000E+00 0. -1.
         25    2    1    2    0    0  0.30585804679E+02  0.72955043299E+02  0.28730716793E+03  0.32315220096E+03  0.12499602575E+03 0.  0.
    9000005    1    3    3    0    0  0.55547401174E+02 -0.98953005429E+01  0.74777984116E+02  0.93681255641E+02  0.10000000000E+01 0.  0.
    9000005    1    3    3    0    0 -0.24961596495E+02  0.82850343842E+02  0.21252918381E+03  0.22947094532E+03  0.10000000000E+01 0.  0.
          4    1    1    2  501    0 -0.30585804679E+02 -0.72955043299E+02 -0.17312127523E+02  0.80989211936E+02  0.12700000000E+01 0. -1.
<mgrwt>
<rscale>  1 0.14792544E+03</rscale>
<asrwt>0</asrwt>
<pdfrwt beam="2">  1       21 0.10318768E-01 0.14792544E+03</pdfrwt>
<pdfrwt beam="1">  1        4 0.51857574E-01 0.14792544E+03</pdfrwt>
<totfact> 0.11381946E+04</totfact>
</mgrwt>
</event>
<event>
 6    4  0.6358868E-003  0.1345736E+03  0.7818608E-02  0.1220823E+00
         21   -1    0    0  501  502  0.00000000000E+00  0.00000000000E+00  0.11673670684E+03  0.11673670684E+03  0.00000000000E+00 0.  1.
         -4   -1    0    0    0  501 -0.00000000000E+00 -0.00000000000E+00 -0.82134514150E+02  0.82144332213E+02  0.12700000000E+01 0.  1.
         25    2    1    2    0    0  0.35530684016E+02  0.34985076817E+02 -0.57891583011E+01  0.13469802540E+03  0.12499463423E+03 0.  0.
    9000005    1    3    3    0    0  0.25753678087E+02 -0.15147286378E+02  0.50498562744E+02  0.58683873925E+02  0.10000000000E+01 0.  0.
    9000005    1    3    3    0    0  0.97770059287E+01  0.50132363195E+02 -0.56287721045E+02  0.76014151478E+02  0.10000000000E+01 0.  0.
         -4    1    1    2    0  502 -0.35530684016E+02 -0.34985076817E+02  0.40391350994E+02  0.64183013653E+02  0.12700000000E+01 0. -1.
<mgrwt>
<rscale>  1 0.13457356E+03</rscale>
<asrwt>0</asrwt>
<pdfrwt beam="1">  1       21 0.17959493E-01 0.13457356E+03</pdfrwt>
<pdfrwt beam="2">  1       -4 0.12637366E-01 0.13457356E+03</pdfrwt>
<totfact> 0.57966295E+04</totfact>
</mgrwt>
</event>
<event>
 6    4  0.6358868E-003  0.1309761E+03  0.7818608E-02  0.1226014E+00
          4   -1    0    0  502    0 -0.00000000000E+00  0.00000000000E+00  0.89144957906E+02  0.89154003949E+02  0.12700000000E+01 0.  1.
         21   -1    0    0  501  502  0.00000000000E+00 -0.00000000000E+00 -0.55079560179E+03  0.55079560179E+03  0.00000000000E+00 0. -1.
         25    2    1    2    0    0 -0.17247771562E+02  0.35085167524E+02  0.39866718831E+02  0.13690911770E+03  0.12500518643E+03 0.  0.
    9000005    1    3    3    0    0  0.52904411366E+02  0.98733299588E+00  0.14322825358E+02  0.54826954089E+02  0.10000000000E+01 0.  0.
    9000005    1    3    3    0    0 -0.70152182927E+02  0.34097834528E+02  0.25543893473E+02  0.82082163609E+02  0.10000000000E+01 0.  0.
          4    1    1    2  501    0  0.17247771562E+02 -0.35085167524E+02 -0.50151736272E+03  0.50304048804E+03  0.12700000000E+01 0. -1.
<mgrwt>
<rscale>  1 0.13097615E+03</rscale>
<asrwt>0</asrwt>
<pdfrwt beam="2">  1       21 0.84737784E-01 0.13097615E+03</pdfrwt>
<pdfrwt beam="1">  1        4 0.13715417E-01 0.13097615E+03</pdfrwt>
<totfact> 0.22173527E+03</totfact>
</mgrwt>
</event>
<event>
 6    4  0.6358868E-003  0.1300522E+03  0.7818608E-02  0.1227378E+00
          4   -1    0    0  502    0 -0.00000000000E+00  0.00000000000E+00  0.64988894599E+02  0.65001302458E+02  0.12700000000E+01 0. -1.
         21   -1    0    0  501  502  0.00000000000E+00 -0.00000000000E+00 -0.43207889032E+03  0.43207889032E+03  0.00000000000E+00 0.  1.
         25    2    1    2    0    0 -0.53787752285E+01  0.35499995572E+02 -0.18377288228E+01  0.13006518997E+03  0.12499758193E+03 0.  0.
    9000005    1    3    3    0    0  0.54844021510E+02  0.42027656941E+01  0.20344907461E+02  0.58655308323E+02  0.10000000000E+01 0.  0.
    9000005    1    3    3    0    0 -0.60222796738E+02  0.31297229877E+02 -0.22182636284E+02  0.71409881652E+02  0.10000000000E+01 0.  0.
          4    1    1    2  501    0  0.53787752285E+01 -0.35499995572E+02 -0.36525226690E+03  0.36701500281E+03  0.12700000000E+01 0.  1.
<mgrwt>
<rscale>  1 0.13005221E+03</rscale>
<asrwt>0</asrwt>
<pdfrwt beam="2">  1       21 0.66473672E-01 0.13005221E+03</pdfrwt>
<pdfrwt beam="1">  1        4 0.99993900E-02 0.13005221E+03</pdfrwt>
<totfact> 0.64969556E+03</totfact>
</mgrwt>
</event>
<event>
 6    4  0.6358868E-003  0.1994693E+03  0.7818608E-02  0.1150188E+00
         -4   -1    0    0    0  501 -0.00000000000E+00  0.00000000000E+00  0.20879008366E+04  0.20879012228E+04  0.12700000000E+01 0.  1.
         21   -1    0    0  501  502  0.00000000000E+00 -0.00000000000E+00 -0.18151959158E+02  0.18151959158E+02  0.00000000000E+00 0. -1.
         25    2    1    2    0    0 -0.15543153896E+03 -0.18500399966E+01  0.15717594440E+04  0.15843660395E+04  0.12500244523E+03 0.  0.
    9000005    1    3    3    0    0 -0.49967558989E+02  0.50391192642E+02  0.36178399880E+03  0.36867965910E+03  0.10000000000E+01 0.  0.
    9000005    1    3    3    0    0 -0.10546397997E+03 -0.52241232639E+02  0.12099754452E+04  0.12156863804E+04  0.10000000000E+01 0.  0.
         -4    1    1    2    0  502  0.15543153896E+03  0.18500399966E+01  0.49798943339E+03  0.52168714247E+03  0.12700000000E+01 0. -1.
<mgrwt>
<rscale>  1 0.19946929E+03</rscale>
<asrwt>0</asrwt>
<pdfrwt beam="2">  1       21 0.27926108E-02 0.19946929E+03</pdfrwt>
<pdfrwt beam="1">  1       -4 0.32121877E+00 0.19946929E+03</pdfrwt>
<totfact> 0.83092619E+02</totfact>
</mgrwt>
</event>
<event>
 6    4  0.6358868E-003  0.1313906E+03  0.7818608E-02  0.1225407E+00
         -4   -1    0    0    0  501 -0.00000000000E+00  0.00000000000E+00  0.14576228962E+02  0.14631450740E+02  0.12700000000E+01 0.  1.
         21   -1    0    0  501  502  0.00000000000E+00 -0.00000000000E+00 -0.60691599373E+03  0.60691599373E+03  0.00000000000E+00 0.  1.
         25    2    1    2    0    0 -0.40435809807E+02  0.19077566114E+01 -0.53778191089E+03  0.55359991641E+03  0.12499915805E+03 0.  0.
    9000005    1    3    3    0    0 -0.78337706963E+02  0.72844817187E+01 -0.22252943653E+03  0.23603010428E+03  0.10000000000E+01 0.  0.
    9000005    1    3    3    0    0  0.37901897156E+02 -0.53767251073E+01 -0.31525247436E+03  0.31756981213E+03  0.10000000000E+01 0.  0.
         -4    1    1    2    0  502  0.40435809807E+02 -0.19077566114E+01 -0.54557853873E+02  0.67947528058E+02  0.12700000000E+01 0. -1.
<mgrwt>
<rscale>  1 0.13139058E+03</rscale>
<asrwt>0</asrwt>
<pdfrwt beam="2">  1       21 0.93371672E-01 0.13139058E+03</pdfrwt>
<pdfrwt beam="1">  1       -4 0.22468473E-02 0.13139058E+03</pdfrwt>
<totfact> 0.33516180E+04</totfact>
</mgrwt>
</event>
<event>
 6    4  0.6358868E-003  0.1375658E+03  0.7818608E-02  0.1216642E+00
         -4   -1    0    0    0  501 -0.00000000000E+00  0.00000000000E+00  0.56805684016E+03  0.56805825982E+03  0.12700000000E+01 0. -1.
         21   -1    0    0  501  502  0.00000000000E+00 -0.00000000000E+00 -0.18122181475E+02  0.18122181475E+02  0.00000000000E+00 0.  1.
         25    2    1    2    0    0  0.55631882362E+02  0.14316831413E+02  0.45370354108E+03  0.47410047479E+03  0.12499791603E+03 0.  0.
    9000005    1    3    3    0    0  0.47182506106E+02  0.54018834492E+01  0.45844278098E+03  0.46089711722E+03  0.10000000000E+01 0.  0.
    9000005    1    3    3    0    0  0.84493762559E+01  0.89149479637E+01 -0.47392399009E+01  0.13203357571E+02  0.10000000000E+01 0.  0.
         -4    1    1    2    0  502 -0.55631882362E+02 -0.14316831413E+02  0.96231117604E+02  0.11207996651E+03  0.12700000000E+01 0.  1.
<mgrwt>
<rscale>  1 0.13756583E+03</rscale>
<asrwt>0</asrwt>
<pdfrwt beam="2">  1       21 0.27880284E-02 0.13756583E+03</pdfrwt>
<pdfrwt beam="1">  1       -4 0.87396879E-01 0.13756583E+03</pdfrwt>
<totfact> 0.33749266E+04</totfact>
</mgrwt>
</event>
<event>
 6    4  0.6358868E-003  0.1337241E+03  0.7818608E-02  0.1222032E+00
         21   -1    0    0  501  502  0.00000000000E+00  0.00000000000E+00  0.16464429742E+02  0.16464429742E+02  0.00000000000E+00 0. -1.
         -4   -1    0    0    0  501 -0.00000000000E+00 -0.00000000000E+00 -0.86671779226E+03  0.86671872273E+03  0.12700000000E+01 0.  1.
         25    2    1    2    0    0 -0.47412284870E+02  0.29593862621E+01 -0.80982432981E+03  0.82079082674E+03  0.12500181354E+03 0.  0.
    9000005    1    3    3    0    0 -0.84544770130E+02 -0.35931850411E+01 -0.68998890541E+03  0.69515927580E+03  0.10000000000E+01 0.  0.
    9000005    1    3    3    0    0  0.37132485260E+02  0.65525713032E+01 -0.11983542440E+03  0.12563155095E+03  0.10000000000E+01 0.  0.
         -4    1    1    2    0  502  0.47412284870E+02 -0.29593862621E+01 -0.40429032709E+02  0.62392325725E+02  0.12700000000E+01 0. -1.
<mgrwt>
<rscale>  1 0.13372410E+03</rscale>
<asrwt>0</asrwt>
<pdfrwt beam="1">  1       21 0.25329884E-02 0.13372410E+03</pdfrwt>
<pdfrwt beam="2">  1       -4 0.13334508E+00 0.13372410E+03</pdfrwt>
<totfact> 0.14579822E+04</totfact>
</mgrwt>
</event>
<event>
 6    4  0.6358868E-003  0.1266174E+03  0.7818608E-02  0.1232563E+00
         21   -1    0    0  501  502  0.00000000000E+00  0.00000000000E+00  0.82123491531E+01  0.82123491531E+01  0.00000000000E+00 0. -1.
         -4   -1    0    0    0  501 -0.00000000000E+00 -0.00000000000E+00 -0.65911666646E+03  0.65911788999E+03  0.12700000000E+01 0. -1.
         25    2    1    2    0    0  0.15017669748E+02 -0.13461486914E+02 -0.57558918066E+03  0.58935123721E+03  0.12500093548E+03 0.  0.
    9000005    1    3    3    0    0  0.43876824920E+02 -0.45503411543E+02 -0.16826203014E+03  0.17974661892E+03  0.10000000000E+01 0.  0.
    9000005    1    3    3    0    0 -0.28859155171E+02  0.32041924629E+02 -0.40732715052E+03  0.40960461829E+03  0.10000000000E+01 0.  0.
         -4    1    1    2    0  502 -0.15017669748E+02  0.13461486914E+02 -0.75315136652E+02  0.77979001940E+02  0.12700000000E+01 0.  1.
<mgrwt>
<rscale>  1 0.12661744E+03</rscale>
<asrwt>0</asrwt>
<pdfrwt beam="1">  1       21 0.12634388E-02 0.12661744E+03</pdfrwt>
<pdfrwt beam="2">  1       -4 0.10141018E+00 0.12661744E+03</pdfrwt>
<totfact> 0.85123017E+04</totfact>
</mgrwt>
</event>
<event>
 6    4  0.6358868E-003  0.1294116E+03  0.7818608E-02  0.1228331E+00
         21   -1    0    0  501  502  0.00000000000E+00  0.00000000000E+00  0.42287548238E+01  0.42287548238E+01  0.00000000000E+00 0.  1.
          4   -1    0    0  502    0 -0.00000000000E+00 -0.00000000000E+00 -0.16056852392E+04  0.16056857415E+04  0.12700000000E+01 0.  1.
         25    2    1    2    0    0 -0.26528542813E+02 -0.20450606209E+02 -0.13598293650E+04  0.13659733792E+04  0.12500151958E+03 0.  0.
    9000005    1    3    3    0    0 -0.35866452232E+02 -0.38255271325E+02 -0.13226912772E+04  0.13237307442E+04  0.10000000000E+01 0.  0.
    9000005    1    3    3    0    0  0.93379094196E+01  0.17804665116E+02 -0.37138087793E+02  0.42242635064E+02  0.10000000000E+01 0.  0.
          4    1    1    2  501    0  0.26528542813E+02  0.20450606209E+02 -0.24162711940E+03  0.24394111709E+03  0.12700000000E+01 0. -1.
<mgrwt>
<rscale>  1 0.12941163E+03</rscale>
<asrwt>0</asrwt>
<pdfrwt beam="1">  1       21 0.65057728E-03 0.12941163E+03</pdfrwt>
<pdfrwt beam="2">  1        4 0.24704335E+00 0.12941163E+03</pdfrwt>
<totfact> 0.22816245E+04</totfact>
</mgrwt>
</event>
<event>
 6    4  0.6358868E-003  0.1343990E+03  0.7818608E-02  0.1221071E+00
         21   -1    0    0  501  502  0.00000000000E+00  0.00000000000E+00  0.21616328862E+02  0.21616328862E+02  0.00000000000E+00 0.  1.
         -4   -1    0    0    0  501 -0.00000000000E+00 -0.00000000000E+00 -0.42036212301E+03  0.42036404147E+03  0.12700000000E+01 0.  1.
         25    2    1    2    0    0 -0.25816971931E+02  0.42090385354E+02 -0.23248315588E+03  0.26853587096E+03  0.12499991858E+03 0.  0.
    9000005    1    3    3    0    0 -0.67368304250E+02  0.13731600694E+02 -0.68705749310E+02  0.97203524953E+02  0.10000000000E+01 0.  0.
    9000005    1    3    3    0    0  0.41551332319E+02  0.28358784661E+02 -0.16377740657E+03  0.17133234600E+03  0.10000000000E+01 0.  0.
         -4    1    1    2    0  502  0.25816971931E+02 -0.42090385354E+02 -0.16626263827E+03  0.17344449937E+03  0.12700000000E+01 0. -1.
<mgrwt>
<rscale>  1 0.13439902E+03</rscale>
<asrwt>0</asrwt>
<pdfrwt beam="1">  1       21 0.33255895E-02 0.13439902E+03</pdfrwt>
<pdfrwt beam="2">  1       -4 0.64674105E-01 0.13439902E+03</pdfrwt>
<totfact> 0.48653914E+04</totfact>
</mgrwt>
</event>
<event>
 6    4  0.6358868E-003  0.1269257E+03  0.7818608E-02  0.1232090E+00
         21   -1    0    0  501  502  0.00000000000E+00  0.00000000000E+00  0.57143809942E+02  0.57143809942E+02  0.00000000000E+00 0.  1.
         -4   -1    0    0    0  501 -0.00000000000E+00 -0.00000000000E+00 -0.97290535739E+02  0.97298824476E+02  0.12700000000E+01 0.  1.
         25    2    1    2    0    0 -0.21794165733E+02 -0.31751632293E+01 -0.36610125859E+02  0.13210012425E+03  0.12500029676E+03 0.  0.
    9000005    1    3    3    0    0  0.26645449092E+02 -0.35207316732E+02  0.22211357039E+02  0.49435609537E+02  0.10000000000E+01 0.  0.
    9000005    1    3    3    0    0 -0.48439614825E+02  0.32032153502E+02 -0.58821482898E+02  0.82664514713E+02  0.10000000000E+01 0.  0.
         -4    1    1    2    0  502  0.21794165733E+02  0.31751632293E+01 -0.35365999382E+01  0.22342510169E+02  0.12700000000E+01 0. -1.
<mgrwt>
<rscale>  1 0.12692573E+03</rscale>
<asrwt>0</asrwt>
<pdfrwt beam="1">  1       21 0.87913555E-02 0.12692573E+03</pdfrwt>
<pdfrwt beam="2">  1       -4 0.14969498E-01 0.12692573E+03</pdfrwt>
<totfact> 0.15297524E+05</totfact>
</mgrwt>
</event>
<event>
 6    4  0.6358868E-003  0.1271327E+03  0.7818608E-02  0.1231773E+00
          4   -1    0    0  502    0 -0.00000000000E+00  0.00000000000E+00  0.12567509067E+02  0.12631515513E+02  0.12700000000E+01 0. -1.
         21   -1    0    0  501  502  0.00000000000E+00 -0.00000000000E+00 -0.47522063494E+03  0.47522063494E+03  0.00000000000E+00 0. -1.
         25    2    1    2    0    0 -0.22983854618E+02  0.30788088507E+01 -0.42504957915E+03  0.44365513400E+03  0.12499998621E+03 0.  0.
    9000005    1    3    3    0    0  0.12345575700E+02  0.59366371352E+02 -0.20711133038E+03  0.21580751251E+03  0.10000000000E+01 0.  0.
    9000005    1    3    3    0    0 -0.35329430318E+02 -0.56287562502E+02 -0.21793824878E+03  0.22784762149E+03  0.10000000000E+01 0.  0.
          4    1    1    2  501    0  0.22983854618E+02 -0.30788088507E+01 -0.37603546721E+02  0.44197016450E+02  0.12700000000E+01 0.  1.
<mgrwt>
<rscale>  1 0.12713274E+03</rscale>
<asrwt>0</asrwt>
<pdfrwt beam="2">  1       21 0.73110863E-01 0.12713274E+03</pdfrwt>
<pdfrwt beam="1">  1        4 0.19385171E-02 0.12713274E+03</pdfrwt>
<totfact> 0.72701340E+04</totfact>
</mgrwt>
</event>
<event>
 6    4  0.6358868E-003  0.1281676E+03  0.7818608E-02  0.1230200E+00
         21   -1    0    0  501  502  0.00000000000E+00  0.00000000000E+00  0.37528543400E+03  0.37528543400E+03  0.00000000000E+00 0. -1.
         -4   -1    0    0    0  501 -0.00000000000E+00 -0.00000000000E+00 -0.19069040219E+02  0.19111284490E+02  0.12700000000E+01 0. -1.
         25    2    1    2    0    0 -0.38510525224E+01 -0.28034523117E+02  0.21447722257E+03  0.24985478462E+03  0.12500467712E+03 0.  0.
    9000005    1    3    3    0    0 -0.19774530584E+02  0.32161470630E+02  0.14583869626E+02  0.40485571580E+02  0.10000000000E+01 0.  0.
    9000005    1    3    3    0    0  0.15923478062E+02 -0.60195993747E+02  0.19989335295E+03  0.20936921304E+03  0.10000000000E+01 0.  0.
         -4    1    1    2    0  502  0.38510525224E+01  0.28034523117E+02  0.14173917121E+03  0.14454193387E+03  0.12700000000E+01 0.  1.
<mgrwt>
<rscale>  1 0.12816760E+03</rscale>
<asrwt>0</asrwt>
<pdfrwt beam="1">  1       21 0.57736215E-01 0.12816760E+03</pdfrwt>
<pdfrwt beam="2">  1       -4 0.29371136E-02 0.12816760E+03</pdfrwt>
<totfact> 0.63537253E+04</totfact>
</mgrwt>
</event>
<event>
 6    4  0.6358868E-003  0.1271153E+03  0.7818608E-02  0.1231800E+00
         21   -1    0    0  501  502  0.00000000000E+00  0.00000000000E+00  0.11561960355E+03  0.11561960355E+03  0.00000000000E+00 0.  1.
         -4   -1    0    0    0  501 -0.00000000000E+00 -0.00000000000E+00 -0.49468886835E+02  0.49485186315E+02  0.12700000000E+01 0.  1.
         25    2    1    2    0    0  0.13877332576E+02  0.18453318924E+02  0.62655859701E+02  0.14171820687E+03  0.12500075225E+03 0.  0.
    9000005    1    3    3    0    0 -0.54000952512E+02  0.23280136712E+01  0.11683891693E+02  0.55308551282E+02  0.10000000000E+01 0.  0.
    9000005    1    3    3    0    0  0.67878285087E+02  0.16125305253E+02  0.50971968008E+02  0.86409655586E+02  0.10000000000E+01 0.  0.
         -4    1    1    2    0  502 -0.13877332576E+02 -0.18453318924E+02  0.34948570146E+01  0.23386582997E+02  0.12700000000E+01 0. -1.
<mgrwt>
<rscale>  1 0.12711528E+03</rscale>
<asrwt>0</asrwt>
<pdfrwt beam="1">  1       21 0.17787631E-01 0.12711528E+03</pdfrwt>
<pdfrwt beam="2">  1       -4 0.76123884E-02 0.12711528E+03</pdfrwt>
<totfact> 0.13731487E+05</totfact>
</mgrwt>
</event>
<event>
 6    4  0.6358868E-003  0.2127786E+03  0.7818608E-02  0.1139384E+00
         21   -1    0    0  501  502  0.00000000000E+00  0.00000000000E+00  0.51276730230E+02  0.51276730230E+02  0.00000000000E+00 0.  1.
         -4   -1    0    0    0  501 -0.00000000000E+00 -0.00000000000E+00 -0.72738110753E+03  0.72738221623E+03  0.12700000000E+01 0. -1.
         25    2    1    2    0    0 -0.56876461263E+02 -0.16252953364E+03 -0.40491121290E+03  0.45741429442E+03  0.12499586096E+03 0.  0.
    9000005    1    3    3    0    0 -0.86011545487E+02 -0.15927923919E+03 -0.36928144756E+03  0.41126347942E+03  0.10000000000E+01 0.  0.
    9000005    1    3    3    0    0  0.29135084224E+02 -0.32502944420E+01 -0.35629765343E+02  0.46150814999E+02  0.10000000000E+01 0.  0.
         -4    1    1    2    0  502  0.56876461263E+02  0.16252953364E+03 -0.27119316440E+03  0.32124465204E+03  0.12700000000E+01 0.  1.
<mgrwt>
<rscale>  1 0.21277863E+03</rscale>
<asrwt>0</asrwt>
<pdfrwt beam="1">  1       21 0.78887279E-02 0.21277863E+03</pdfrwt>
<pdfrwt beam="2">  1       -4 0.11190608E+00 0.21277863E+03</pdfrwt>
<totfact> 0.34012744E+03</totfact>
</mgrwt>
</event>
<event>
 6    4  0.6358868E-003  0.1273494E+03  0.7818608E-02  0.1231443E+00
         21   -1    0    0  501  502  0.00000000000E+00  0.00000000000E+00  0.31065222364E+03  0.31065222364E+03  0.00000000000E+00 0.  1.
          4   -1    0    0  502    0 -0.00000000000E+00 -0.00000000000E+00 -0.21265040844E+02  0.21302930834E+02  0.12700000000E+01 0.  1.
         25    2    1    2    0    0 -0.14709842804E+02  0.19366742142E+02  0.27646581752E+03  0.30438660796E+03  0.12500563455E+03 0.  0.
    9000005    1    3    3    0    0  0.24628193681E+02 -0.43595750871E+02  0.80273415856E+02  0.94614791186E+02  0.10000000000E+01 0.  0.
    9000005    1    3    3    0    0 -0.39338036485E+02  0.62962493013E+02  0.19619240166E+03  0.20977181677E+03  0.10000000000E+01 0.  0.
          4    1    1    2  501    0  0.14709842804E+02 -0.19366742142E+02  0.12921365279E+02  0.27568546519E+02  0.12700000000E+01 0. -1.
<mgrwt>
<rscale>  1 0.12734936E+03</rscale>
<asrwt>0</asrwt>
<pdfrwt beam="1">  1       21 0.47792646E-01 0.12734936E+03</pdfrwt>
<pdfrwt beam="2">  1        4 0.32746593E-02 0.12734936E+03</pdfrwt>
<totfact> 0.79296809E+04</totfact>
</mgrwt>
</event>
<event>
 6    4  0.6358868E-003  0.1366342E+03  0.7818608E-02  0.1217931E+00
         21   -1    0    0  501  502  0.00000000000E+00  0.00000000000E+00  0.24179521651E+02  0.24179521651E+02  0.00000000000E+00 0. -1.
         -4   -1    0    0    0  501 -0.00000000000E+00 -0.00000000000E+00 -0.70038296516E+03  0.70038411660E+03  0.12700000000E+01 0.  1.
         25    2    1    2    0    0  0.26986630176E+02  0.48121449826E+02 -0.64864345218E+03  0.66287799840E+03  0.12499984226E+03 0.  0.
    9000005    1    3    3    0    0  0.82744427197E+01  0.49390430970E+02 -0.83138769735E+02  0.97061506824E+02  0.10000000000E+01 0.  0.
    9000005    1    3    3    0    0  0.18712187456E+02 -0.12689811447E+01 -0.56550468245E+03  0.56581649158E+03  0.10000000000E+01 0.  0.
         -4    1    1    2    0  502 -0.26986630176E+02 -0.48121449826E+02 -0.27559991323E+02  0.61685639847E+02  0.12700000000E+01 0. -1.
<mgrwt>
<rscale>  1 0.13663423E+03</rscale>
<asrwt>0</asrwt>
<pdfrwt beam="1">  1       21 0.37199265E-02 0.13663423E+03</pdfrwt>
<pdfrwt beam="2">  1       -4 0.10775388E+00 0.13663423E+03</pdfrwt>
<totfact> 0.12960863E+04</totfact>
</mgrwt>
</event>
<event>
 6    4  0.6358868E-003  0.1311910E+03  0.7818608E-02  0.1225699E+00
         -4   -1    0    0    0  501 -0.00000000000E+00  0.00000000000E+00  0.83025989144E+01  0.83991695265E+01  0.12700000000E+01 0.  1.
         21   -1    0    0  501  502  0.00000000000E+00 -0.00000000000E+00 -0.90585287924E+03  0.90585287924E+03  0.00000000000E+00 0.  1.
         25    2    1    2    0    0  0.36199824461E+02 -0.16604020733E+02 -0.60952570847E+03  0.62348429318E+03  0.12499981505E+03 0.  0.
    9000005    1    3    3    0    0  0.57953682904E+02  0.24622916839E+02 -0.50649284246E+03  0.51039290440E+03  0.10000000000E+01 0.  0.
    9000005    1    3    3    0    0 -0.21753858443E+02 -0.41226937573E+02 -0.10303286601E+03  0.11309138878E+03  0.10000000000E+01 0.  0.
         -4    1    1    2    0  502 -0.36199824461E+02  0.16604020733E+02 -0.28802457186E+03  0.29076775559E+03  0.12700000000E+01 0. -1.
<mgrwt>
<rscale>  1 0.13119099E+03</rscale>
<asrwt>0</asrwt>
<pdfrwt beam="2">  1       21 0.13936197E+00 0.13119099E+03</pdfrwt>
<pdfrwt beam="1">  1       -4 0.12848200E-02 0.13119099E+03</pdfrwt>
<totfact> 0.29970883E+04</totfact>
</mgrwt>
</event>
<event>
 6    4  0.6358868E-003  0.1301989E+03  0.7818608E-02  0.1227161E+00
         -4   -1    0    0    0  501 -0.00000000000E+00  0.00000000000E+00  0.89191985176E+02  0.89201026450E+02  0.12700000000E+01 0.  1.
         21   -1    0    0  501  502  0.00000000000E+00 -0.00000000000E+00 -0.32801909167E+03  0.32801909167E+03  0.00000000000E+00 0. -1.
         25    2    1    2    0    0  0.24467589625E+02 -0.26957981441E+02  0.39858821754E+02  0.13616344197E+03  0.12500544609E+03 0.  0.
    9000005    1    3    3    0    0  0.15591808601E+02  0.42081414708E+02  0.48417789387E+02  0.66024482493E+02  0.10000000000E+01 0.  0.
    9000005    1    3    3    0    0  0.88757810242E+01 -0.69039396150E+02 -0.85589676327E+01  0.70138959477E+02  0.10000000000E+01 0.  0.
         -4    1    1    2    0  502 -0.24467589625E+02  0.26957981441E+02 -0.27868592825E+03  0.28105667615E+03  0.12700000000E+01 0. -1.
<mgrwt>
<rscale>  1 0.13019891E+03</rscale>
<asrwt>0</asrwt>
<pdfrwt beam="2">  1       21 0.50464476E-01 0.13019891E+03</pdfrwt>
<pdfrwt beam="1">  1       -4 0.13722728E-01 0.13019891E+03</pdfrwt>
<totfact> 0.67767641E+03</totfact>
</mgrwt>
</event>
<event>
 6    4  0.6358868E-003  0.1274313E+03  0.7818608E-02  0.1231318E+00
          4   -1    0    0  502    0 -0.00000000000E+00  0.00000000000E+00  0.87945977800E+02  0.87955147155E+02  0.12700000000E+01 0. -1.
         21   -1    0    0  501  502  0.00000000000E+00 -0.00000000000E+00 -0.76343114673E+02  0.76343114673E+02  0.00000000000E+00 0.  1.
         25    2    1    2    0    0  0.17253663459E+02  0.17812473278E+02  0.32872461166E+02  0.13160297459E+03  0.12499508434E+03 0.  0.
    9000005    1    3    3    0    0 -0.18173294505E+02 -0.47231981049E+02  0.13453255222E+00  0.50617652711E+02  0.10000000000E+01 0.  0.
    9000005    1    3    3    0    0  0.35426957965E+02  0.65044454327E+02  0.32737928613E+02  0.80985321876E+02  0.10000000000E+01 0.  0.
          4    1    1    2  501    0 -0.17253663459E+02 -0.17812473278E+02 -0.21269598038E+02  0.32695287241E+02  0.12700000000E+01 0.  1.
<mgrwt>
<rscale>  1 0.12743133E+03</rscale>
<asrwt>0</asrwt>
<pdfrwt beam="2">  1       21 0.11745095E-01 0.12743133E+03</pdfrwt>
<pdfrwt beam="1">  1        4 0.13531668E-01 0.12743133E+03</pdfrwt>
<totfact> 0.10983053E+05</totfact>
</mgrwt>
</event>
<event>
 6    4  0.6358868E-003  0.1961331E+03  0.7818608E-02  0.1153043E+00
         21   -1    0    0  501  502  0.00000000000E+00  0.00000000000E+00  0.10012770355E+03  0.10012770355E+03  0.00000000000E+00 0.  1.
         -4   -1    0    0    0  501 -0.00000000000E+00 -0.00000000000E+00 -0.44975882649E+03  0.44976061956E+03  0.12700000000E+01 0. -1.
         25    2    1    2    0    0 -0.19145243230E+02 -0.14992193518E+03 -0.34714836178E+03  0.39872316842E+03  0.12500021185E+03 0.  0.
    9000005    1    3    3    0    0 -0.16567878747E+02 -0.58942153211E+02 -0.27732497366E+03  0.28400495250E+03  0.10000000000E+01 0.  0.
    9000005    1    3    3    0    0 -0.25773644823E+01 -0.90979781971E+02 -0.69823388124E+02  0.11471821592E+03  0.10000000000E+01 0.  0.
         -4    1    1    2    0  502  0.19145243230E+02  0.14992193518E+03 -0.24827611599E+01  0.15116515468E+03  0.12700000000E+01 0.  1.
<mgrwt>
<rscale>  1 0.19613307E+03</rscale>
<asrwt>0</asrwt>
<pdfrwt beam="1">  1       21 0.15404262E-01 0.19613307E+03</pdfrwt>
<pdfrwt beam="2">  1       -4 0.69194423E-01 0.19613307E+03</pdfrwt>
<totfact> 0.30738236E+03</totfact>
</mgrwt>
</event>
<event>
 6    4  0.6358868E-003  0.1301865E+03  0.7818608E-02  0.1227179E+00
         -4   -1    0    0    0  501 -0.00000000000E+00  0.00000000000E+00  0.25026199116E+03  0.25026521356E+03  0.12700000000E+01 0.  1.
         21   -1    0    0  501  502  0.00000000000E+00 -0.00000000000E+00 -0.29252988201E+02  0.29252988201E+02  0.00000000000E+00 0.  1.
         25    2    1    2    0    0  0.36388389410E+02  0.43906609602E+00  0.14273266276E+03  0.19318682857E+03  0.12499692016E+03 0.  0.
    9000005    1    3    3    0    0 -0.42337010872E+02 -0.17960917298E+02  0.73674180589E+02  0.86855638419E+02  0.10000000000E+01 0.  0.
    9000005    1    3    3    0    0  0.78725400282E+02  0.18399983394E+02  0.69058482172E+02  0.10633119015E+03  0.10000000000E+01 0.  0.
         -4    1    1    2    0  502 -0.36388389410E+02 -0.43906609602E+00  0.78276340196E+02  0.86331373193E+02  0.12700000000E+01 0. -1.
<mgrwt>
<rscale>  1 0.13018655E+03</rscale>
<asrwt>0</asrwt>
<pdfrwt beam="2">  1       21 0.45004599E-02 0.13018655E+03</pdfrwt>
<pdfrwt beam="1">  1       -4 0.38504212E-01 0.13018655E+03</pdfrwt>
<totfact> 0.84332812E+04</totfact>
</mgrwt>
</event>
<event>
 6    4  0.6358868E-003  0.1308860E+03  0.7818608E-02  0.1226147E+00
         -4   -1    0    0    0  501 -0.00000000000E+00  0.00000000000E+00  0.17180324212E+02  0.17227200586E+02  0.12700000000E+01 0.  1.
         21   -1    0    0  501  502  0.00000000000E+00 -0.00000000000E+00 -0.45008223748E+03  0.45008223748E+03  0.00000000000E+00 0. -1.
         25    2    1    2    0    0  0.29826801049E+01 -0.38696596565E+02 -0.27291986744E+03  0.30268200762E+03  0.12499928292E+03 0.  0.
    9000005    1    3    3    0    0  0.15435490816E+02  0.40056502621E+02 -0.15112585487E+03  0.15710761213E+03  0.10000000000E+01 0.  0.
    9000005    1    3    3    0    0 -0.12452810711E+02 -0.78753099185E+02 -0.12179401256E+03  0.14557439549E+03  0.10000000000E+01 0.  0.
         -4    1    1    2    0  502 -0.29826801049E+01  0.38696596565E+02 -0.15998204584E+03  0.16462743045E+03  0.12700000000E+01 0. -1.
<mgrwt>
<rscale>  1 0.13088600E+03</rscale>
<asrwt>0</asrwt>
<pdfrwt beam="2">  1       21 0.69243425E-01 0.13088600E+03</pdfrwt>
<pdfrwt beam="1">  1       -4 0.26468704E-02 0.13088600E+03</pdfrwt>
<totfact> 0.50741064E+04</totfact>
</mgrwt>
</event>
<event>
 6    4  0.6358868E-003  0.2104049E+03  0.7818608E-02  0.1141246E+00
          4   -1    0    0  502    0 -0.00000000000E+00  0.00000000000E+00  0.23610121597E+02  0.23644253886E+02  0.12700000000E+01 0. -1.
         21   -1    0    0  501  502  0.00000000000E+00 -0.00000000000E+00 -0.16398731736E+04  0.16398731736E+04  0.00000000000E+00 0.  1.
         25    2    1    2    0    0 -0.85832115277E+02 -0.14587030105E+03 -0.67079732248E+03  0.70302153716E+03  0.12499974846E+03 0.  0.
    9000005    1    3    3    0    0 -0.34522866781E+02 -0.26644253942E+02 -0.40585629151E+02  0.59581355242E+02  0.10000000000E+01 0.  0.
    9000005    1    3    3    0    0 -0.51309248496E+02 -0.11922604711E+03 -0.63021169333E+03  0.64344018191E+03  0.10000000000E+01 0.  0.
          4    1    1    2  501    0  0.85832115277E+02  0.14587030105E+03 -0.94546572950E+03  0.96049589031E+03  0.12700000000E+01 0.  1.
<mgrwt>
<rscale>  1 0.21040493E+03</rscale>
<asrwt>0</asrwt>
<pdfrwt beam="2">  1       21 0.25228821E+00 0.21040493E+03</pdfrwt>
<pdfrwt beam="1">  1        4 0.36349893E-02 0.21040493E+03</pdfrwt>
<totfact> 0.10751547E+03</totfact>
</mgrwt>
</event>
<event>
 6    4  0.6358868E-003  0.1267206E+03  0.7818608E-02  0.1232404E+00
          4   -1    0    0  502    0 -0.00000000000E+00  0.00000000000E+00  0.24385101316E+03  0.24385432028E+03  0.12700000000E+01 0.  1.
         21   -1    0    0  501  502  0.00000000000E+00 -0.00000000000E+00 -0.22503393090E+02  0.22503393090E+02  0.00000000000E+00 0.  1.
         25    2    1    2    0    0  0.26546186611E+01 -0.20650170603E+02  0.19768766192E+03  0.23481594636E+03  0.12499856177E+03 0.  0.
    9000005    1    3    3    0    0 -0.29697743979E+02  0.32789936445E+02  0.24232207862E+02  0.50451321364E+02  0.10000000000E+01 0.  0.
    9000005    1    3    3    0    0  0.32352362640E+02 -0.53440107047E+02  0.17345545405E+03  0.18436462500E+03  0.10000000000E+01 0.  0.
          4    1    1    2  501    0 -0.26546186611E+01  0.20650170603E+02  0.23659958155E+02  0.31541767009E+02  0.12700000000E+01 0. -1.
<mgrwt>
<rscale>  1 0.12672063E+03</rscale>
<asrwt>0</asrwt>
<pdfrwt beam="2">  1       21 0.34620607E-02 0.12672063E+03</pdfrwt>
<pdfrwt beam="1">  1        4 0.37518550E-01 0.12672063E+03</pdfrwt>
<totfact> 0.13655864E+05</totfact>
</mgrwt>
</event>
<event>
 6    4  0.6358868E-003  0.1326401E+03  0.7818608E-02  0.1223590E+00
         -4   -1    0    0    0  501 -0.00000000000E+00  0.00000000000E+00  0.22139182782E+02  0.22175579231E+02  0.12700000000E+01 0. -1.
         21   -1    0    0  501  502  0.00000000000E+00 -0.00000000000E+00 -0.38695500662E+03  0.38695500662E+03  0.00000000000E+00 0. -1.
         25    2    1    2    0    0  0.30570919777E+01  0.44258682700E+02 -0.21266521896E+03  0.25063895746E+03  0.12500085934E+03 0.  0.
    9000005    1    3    3    0    0 -0.38332932580E+02  0.12475988652E+02 -0.10255816123E+02  0.41608241700E+02  0.10000000000E+01 0.  0.
    9000005    1    3    3    0    0  0.41390024558E+02  0.31782694048E+02 -0.20240940284E+03  0.20903071576E+03  0.10000000000E+01 0.  0.
         -4    1    1    2    0  502 -0.30570919777E+01 -0.44258682700E+02 -0.15215060488E+03  0.15849162839E+03  0.12700000000E+01 0.  1.
<mgrwt>
<rscale>  1 0.13264008E+03</rscale>
<asrwt>0</asrwt>
<pdfrwt beam="2">  1       21 0.59531542E-01 0.13264008E+03</pdfrwt>
<pdfrwt beam="1">  1       -4 0.34089880E-02 0.13264008E+03</pdfrwt>
<totfact> 0.47314126E+04</totfact>
</mgrwt>
</event>
<event>
 6    4  0.6358868E-003  0.1290300E+03  0.7818608E-02  0.1228902E+00
         21   -1    0    0  501  502  0.00000000000E+00  0.00000000000E+00  0.19956507799E+03  0.19956507799E+03  0.00000000000E+00 0. -1.
         -4   -1    0    0    0  501 -0.00000000000E+00 -0.00000000000E+00 -0.60701300696E+02  0.60714584790E+02  0.12700000000E+01 0. -1.
         25    2    1    2    0    0 -0.30462756852E+02  0.98266796083E+01  0.12174274837E+02  0.12960301559E+03  0.12499674194E+03 0.  0.
    9000005    1    3    3    0    0 -0.15860027957E+02 -0.53407291290E+02  0.28626164384E+02  0.62644525196E+02  0.10000000000E+01 0.  0.
    9000005    1    3    3    0    0 -0.14602728895E+02  0.63233970898E+02 -0.16451889547E+02  0.66958490398E+02  0.10000000000E+01 0.  0.
         -4    1    1    2    0  502  0.30462756852E+02 -0.98266796083E+01  0.12668950246E+03  0.13067664719E+03  0.12700000000E+01 0.  1.
<mgrwt>
<rscale>  1 0.12902995E+03</rscale>
<asrwt>0</asrwt>
<pdfrwt beam="1">  1       21 0.30702319E-01 0.12902995E+03</pdfrwt>
<pdfrwt beam="2">  1       -4 0.93399944E-02 0.12902995E+03</pdfrwt>
<totfact> 0.35139394E+04</totfact>
</mgrwt>
</event>
<event>
 6    4  0.6358868E-003  0.1274036E+03  0.7818608E-02  0.1231360E+00
         21   -1    0    0  501  502  0.00000000000E+00  0.00000000000E+00  0.10892069416E+03  0.10892069416E+03  0.00000000000E+00 0. -1.
          4   -1    0    0  502    0 -0.00000000000E+00 -0.00000000000E+00 -0.89722427164E+02  0.89731414990E+02  0.12700000000E+01 0.  1.
         25    2    1    2    0    0 -0.58687127875E+01  0.23936283313E+02 -0.40799824582E+02  0.13377706509E+03  0.12499716001E+03 0.  0.
    9000005    1    3    3    0    0 -0.50968009456E+02  0.14148138888E+02 -0.63240206170E+02  0.82451388699E+02  0.10000000000E+01 0.  0.
    9000005    1    3    3    0    0  0.45099296669E+02  0.97881444244E+01  0.22440381588E+02  0.51325676392E+02  0.10000000000E+01 0.  0.
          4    1    1    2  501    0  0.58687127875E+01 -0.23936283313E+02  0.59998091579E+02  0.64875044060E+02  0.12700000000E+01 0. -1.
<mgrwt>
<rscale>  1 0.12740360E+03</rscale>
<asrwt>0</asrwt>
<pdfrwt beam="1">  1       21 0.16757030E-01 0.12740360E+03</pdfrwt>
<pdfrwt beam="2">  1        4 0.13804711E-01 0.12740360E+03</pdfrwt>
<totfact> 0.56106034E+04</totfact>
</mgrwt>
</event>
<event>
 6    4  0.6358868E-003  0.1330179E+03  0.7818608E-02  0.1223045E+00
         21   -1    0    0  501  502  0.00000000000E+00  0.00000000000E+00  0.13610462645E+03  0.13610462645E+03  0.00000000000E+00 0.  1.
         -4   -1    0    0    0  501 -0.00000000000E+00 -0.00000000000E+00 -0.60506964595E+02  0.60520291345E+02  0.12700000000E+01 0.  1.
         25    2    1    2    0    0  0.30074936323E+01 -0.45384642321E+02  0.40150368685E+02  0.13894533502E+03  0.12499977296E+03 0.  0.
    9000005    1    3    3    0    0  0.30634857864E+02 -0.80172778970E+02  0.39550395639E+02  0.94506099271E+02  0.10000000000E+01 0.  0.
    9000005    1    3    3    0    0 -0.27627364232E+02  0.34788136649E+02  0.59997304505E+00  0.44439235745E+02  0.10000000000E+01 0.  0.
         -4    1    1    2    0  502 -0.30074936323E+01  0.45384642321E+02  0.35447293170E+02  0.57679582780E+02  0.12700000000E+01 0. -1.
<mgrwt>
<rscale>  1 0.13301787E+03</rscale>
<asrwt>0</asrwt>
<pdfrwt beam="1">  1       21 0.20939173E-01 0.13301787E+03</pdfrwt>
<pdfrwt beam="2">  1       -4 0.93102448E-02 0.13301787E+03</pdfrwt>
<totfact> 0.73210187E+04</totfact>
</mgrwt>
</event>
<event>
 6    4  0.6358868E-003  0.2775081E+03  0.7818608E-02  0.1097058E+00
         -4   -1    0    0    0  501 -0.00000000000E+00  0.00000000000E+00  0.45485085284E+03  0.45485262584E+03  0.12700000000E+01 0.  1.
         21   -1    0    0  501  502  0.00000000000E+00 -0.00000000000E+00 -0.17209606331E+03  0.17209606331E+03  0.00000000000E+00 0. -1.
         25    2    1    2    0    0  0.22666037254E+03  0.10005340391E+03  0.25633284563E+03  0.37777938901E+03  0.12500052358E+03 0.  0.
    9000005    1    3    3    0    0  0.16670538539E+03  0.86543738489E+02  0.25446919087E+03  0.31628479776E+03  0.10000000000E+01 0.  0.
    9000005    1    3    3    0    0  0.59954987147E+02  0.13509665425E+02  0.18636547577E+01  0.61494591248E+02  0.10000000000E+01 0.  0.
         -4    1    1    2    0  502 -0.22666037254E+03 -0.10005340391E+03  0.26421943906E+02  0.24916930014E+03  0.12700000000E+01 0. -1.
<mgrwt>
<rscale>  1 0.27750809E+03</rscale>
<asrwt>0</asrwt>
<pdfrwt beam="2">  1       21 0.26476318E-01 0.27750809E+03</pdfrwt>
<pdfrwt beam="1">  1       -4 0.69977551E-01 0.27750809E+03</pdfrwt>
<totfact> 0.10899395E+03</totfact>
</mgrwt>
</event>
<event>
 6    4  0.6358868E-003  0.1274785E+03  0.7818608E-02  0.1231246E+00
          4   -1    0    0  502    0 -0.00000000000E+00  0.00000000000E+00  0.69442366674E+02  0.69453978930E+02  0.12700000000E+01 0.  1.
         21   -1    0    0  501  502  0.00000000000E+00 -0.00000000000E+00 -0.12785292855E+03  0.12785292855E+03  0.00000000000E+00 0.  1.
         25    2    1    2    0    0  0.22977479141E+02 -0.98490141860E+01 -0.90699349836E+02  0.15645171985E+03  0.12500320379E+03 0.  0.
    9000005    1    3    3    0    0 -0.30849896105E+02 -0.70881450933E+01  0.17051572032E+02  0.35968235977E+02  0.10000000000E+01 0.  0.
    9000005    1    3    3    0    0  0.53827375245E+02 -0.27608690926E+01 -0.10775092187E+03  0.12048348388E+03  0.10000000000E+01 0.  0.
          4    1    1    2  501    0 -0.22977479141E+02  0.98490141860E+01  0.32288787959E+02  0.40855187626E+02  0.12700000000E+01 0. -1.
<mgrwt>
<rscale>  1 0.12747850E+03</rscale>
<asrwt>0</asrwt>
<pdfrwt beam="2">  1       21 0.19669681E-01 0.12747850E+03</pdfrwt>
<pdfrwt beam="1">  1        4 0.10684820E-01 0.12747850E+03</pdfrwt>
<totfact> 0.64840483E+04</totfact>
</mgrwt>
</event>
<event>
 6    4  0.6358868E-003  0.1274112E+03  0.7818608E-02  0.1231348E+00
         21   -1    0    0  501  502  0.00000000000E+00  0.00000000000E+00  0.10540808212E+04  0.10540808212E+04  0.00000000000E+00 0. -1.
          4   -1    0    0  502    0 -0.00000000000E+00 -0.00000000000E+00 -0.99449211385E+01  0.10025684837E+02  0.12700000000E+01 0. -1.
         25    2    1    2    0    0  0.14334435549E+02 -0.20088388598E+02  0.40667476273E+03  0.42616659201E+03  0.12499832841E+03 0.  0.
    9000005    1    3    3    0    0 -0.15640579036E+02 -0.57087498553E+02  0.10317536026E+03  0.11895278546E+03  0.10000000000E+01 0.  0.
    9000005    1    3    3    0    0  0.29975014586E+02  0.36999109956E+02  0.30349940247E+03  0.30721380655E+03  0.10000000000E+01 0.  0.
          4    1    1    2  501    0 -0.14334435549E+02  0.20088388598E+02  0.63746113733E+03  0.63793991403E+03  0.12700000000E+01 0.  1.
<mgrwt>
<rscale>  1 0.12741115E+03</rscale>
<asrwt>0</asrwt>
<pdfrwt beam="1">  1       21 0.16216619E+00 0.12741115E+03</pdfrwt>
<pdfrwt beam="2">  1        4 0.15362601E-02 0.12741115E+03</pdfrwt>
<totfact> 0.15383571E+04</totfact>
</mgrwt>
</event>
<event>
 6    4  0.6358868E-003  0.1380768E+03  0.7818608E-02  0.1215940E+00
         21   -1    0    0  501  502  0.00000000000E+00  0.00000000000E+00  0.28012285855E+02  0.28012285855E+02  0.00000000000E+00 0.  1.
         -4   -1    0    0    0  501 -0.00000000000E+00 -0.00000000000E+00 -0.46828296148E+03  0.46828468362E+03  0.12700000000E+01 0. -1.
         25    2    1    2    0    0 -0.41618359856E+02  0.41331639723E+02 -0.40488856974E+03  0.42778493669E+03  0.12499922334E+03 0.  0.
    9000005    1    3    3    0    0  0.29150082374E+02  0.14335636054E+02 -0.27883157785E+03  0.28071923085E+03  0.10000000000E+01 0.  0.
    9000005    1    3    3    0    0 -0.70768442230E+02  0.26996003668E+02 -0.12605699189E+03  0.14706570584E+03  0.10000000000E+01 0.  0.
         -4    1    1    2    0  502  0.41618359856E+02 -0.41331639723E+02 -0.35382105886E+02  0.68512032784E+02  0.12700000000E+01 0.  1.
<mgrwt>
<rscale>  1 0.13807678E+03</rscale>
<asrwt>0</asrwt>
<pdfrwt beam="1">  1       21 0.43095824E-02 0.13807678E+03</pdfrwt>
<pdfrwt beam="2">  1       -4 0.72045880E-01 0.13807678E+03</pdfrwt>
<totfact> 0.25177834E+04</totfact>
</mgrwt>
</event>
<event>
 6    4  0.6358868E-003  0.1280669E+03  0.7818608E-02  0.1230353E+00
         21   -1    0    0  501  502  0.00000000000E+00  0.00000000000E+00  0.13921798429E+02  0.13921798429E+02  0.00000000000E+00 0.  1.
          4   -1    0    0  502    0 -0.00000000000E+00 -0.00000000000E+00 -0.43671880460E+03  0.43672065120E+03  0.12700000000E+01 0. -1.
         25    2    1    2    0    0 -0.22220438106E+02 -0.16798179855E+02 -0.34641744970E+03  0.36933207967E+03  0.12500083562E+03 0.  0.
    9000005    1    3    3    0    0  0.35706873779E+02 -0.13521036803E+02 -0.32661387342E+02  0.50255004670E+02  0.10000000000E+01 0.  0.
    9000005    1    3    3    0    0 -0.57927311886E+02 -0.32771430523E+01 -0.31375606235E+03  0.31907707500E+03  0.10000000000E+01 0.  0.
          4    1    1    2  501    0  0.22220438106E+02  0.16798179855E+02 -0.76379556472E+02  0.81310369960E+02  0.12700000000E+01 0.  1.
<mgrwt>
<rscale>  1 0.12806692E+03</rscale>
<asrwt>0</asrwt>
<pdfrwt beam="1">  1       21 0.21418155E-02 0.12806692E+03</pdfrwt>
<pdfrwt beam="2">  1        4 0.67192095E-01 0.12806692E+03</pdfrwt>
<totfact> 0.91376648E+04</totfact>
</mgrwt>
</event>
<event>
 6    4  0.6358868E-003  0.1640002E+03  0.7818608E-02  0.1184253E+00
         -4   -1    0    0    0  501 -0.00000000000E+00  0.00000000000E+00  0.80057459390E+02  0.80067532146E+02  0.12700000000E+01 0.  1.
         21   -1    0    0  501  502  0.00000000000E+00 -0.00000000000E+00 -0.27203757644E+03  0.27203757644E+03  0.00000000000E+00 0. -1.
         25    2    1    2    0    0 -0.68972533574E-02 -0.10616485738E+03 -0.43681174658E+02  0.16971770166E+03  0.12500030498E+03 0.  0.
    9000005    1    3    3    0    0 -0.60662455532E+02 -0.57897106216E+02 -0.37750006114E+02  0.91967773600E+02  0.10000000000E+01 0.  0.
    9000005    1    3    3    0    0  0.60655558279E+02 -0.48267751168E+02 -0.59311685438E+01  0.77749928059E+02  0.10000000000E+01 0.  0.
         -4    1    1    2    0  502  0.68972533574E-02  0.10616485738E+03 -0.14829894239E+03  0.18238740693E+03  0.12700000000E+01 0. -1.
<mgrwt>
<rscale>  1 0.16400016E+03</rscale>
<asrwt>0</asrwt>
<pdfrwt beam="2">  1       21 0.41851935E-01 0.16400016E+03</pdfrwt>
<pdfrwt beam="1">  1       -4 0.12317535E-01 0.16400016E+03</pdfrwt>
<totfact> 0.12160645E+04</totfact>
</mgrwt>
</event>
<event>
 6    4  0.6358868E-003  0.1338993E+03  0.7818608E-02  0.1221782E+00
         21   -1    0    0  501  502  0.00000000000E+00  0.00000000000E+00  0.51822463655E+03  0.51822463655E+03  0.00000000000E+00 0. -1.
         -4   -1    0    0    0  501 -0.00000000000E+00 -0.00000000000E+00 -0.44625969929E+02  0.44644037587E+02  0.12700000000E+01 0.  1.
         25    2    1    2    0    0  0.37013362941E+02  0.30630510691E+02  0.60412653991E+02  0.14689690688E+03  0.12498317994E+03 0.  0.
    9000005    1    3    3    0    0 -0.15760583975E+02  0.67571525507E+02  0.33873958298E+02  0.77218858560E+02  0.10000000000E+01 0.  0.
    9000005    1    3    3    0    0  0.52773946915E+02 -0.36941014815E+02  0.26538695692E+02  0.69678048320E+02  0.10000000000E+01 0.  0.
         -4    1    1    2    0  502 -0.37013362941E+02 -0.30630510691E+02  0.41318601263E+03  0.41597176726E+03  0.12700000000E+01 0. -1.
<mgrwt>
<rscale>  1 0.13389926E+03</rscale>
<asrwt>0</asrwt>
<pdfrwt beam="1">  1       21 0.79726863E-01 0.13389926E+03</pdfrwt>
<pdfrwt beam="2">  1       -4 0.68670437E-02 0.13389926E+03</pdfrwt>
<totfact> 0.81464689E+03</totfact>
</mgrwt>
</event>
<event>
 6    4  0.6358868E-003  0.1313892E+03  0.7818608E-02  0.1225409E+00
         21   -1    0    0  501  502  0.00000000000E+00  0.00000000000E+00  0.12910905327E+03  0.12910905327E+03  0.00000000000E+00 0.  1.
          4   -1    0    0  502    0 -0.00000000000E+00 -0.00000000000E+00 -0.12429517554E+03  0.12430166355E+03  0.12700000000E+01 0. -1.
         25    2    1    2    0    0  0.14002970605E+02  0.37972679634E+02 -0.83900432113E+02  0.15589226085E+03  0.12500042760E+03 0.  0.
    9000005    1    3    3    0    0  0.34610845591E+02 -0.92027242017E+01 -0.96454992566E+02  0.10289395685E+03  0.10000000000E+01 0.  0.
    9000005    1    3    3    0    0 -0.20607874985E+02  0.47175403836E+02  0.12554560453E+02  0.52998303998E+02  0.10000000000E+01 0.  0.
          4    1    1    2  501    0 -0.14002970605E+02 -0.37972679634E+02  0.88714309850E+02  0.97518455979E+02  0.12700000000E+01 0.  1.
<mgrwt>
<rscale>  1 0.13138917E+03</rscale>
<asrwt>0</asrwt>
<pdfrwt beam="1">  1       21 0.19862931E-01 0.13138917E+03</pdfrwt>
<pdfrwt beam="2">  1        4 0.19123314E-01 0.13138917E+03</pdfrwt>
<totfact> 0.23243845E+04</totfact>
</mgrwt>
</event>
<event>
 6    4  0.6358868E-003  0.1277432E+03  0.7818608E-02  0.1230843E+00
         -4   -1    0    0    0  501 -0.00000000000E+00  0.00000000000E+00  0.19121210675E+02  0.19163339941E+02  0.12700000000E+01 0. -1.
         21   -1    0    0  501  502  0.00000000000E+00 -0.00000000000E+00 -0.32393456062E+03  0.32393456062E+03  0.00000000000E+00 0. -1.
         25    2    1    2    0    0 -0.22153964856E+02 -0.14232371094E+02 -0.22130577482E+03  0.25552800534E+03  0.12499982800E+03 0.  0.
    9000005    1    3    3    0    0 -0.11490936703E+02 -0.57874821183E+02 -0.19438161049E+03  0.20314218432E+03  0.10000000000E+01 0.  0.
    9000005    1    3    3    0    0 -0.10663028154E+02  0.43642450089E+02 -0.26924164329E+02  0.52385821020E+02  0.10000000000E+01 0.  0.
         -4    1    1    2    0  502  0.22153964856E+02  0.14232371094E+02 -0.83507575126E+02  0.87569895222E+02  0.12700000000E+01 0.  1.
<mgrwt>
<rscale>  1 0.12774316E+03</rscale>
<asrwt>0</asrwt>
<pdfrwt beam="2">  1       21 0.49836081E-01 0.12774316E+03</pdfrwt>
<pdfrwt beam="1">  1       -4 0.29451572E-02 0.12774316E+03</pdfrwt>
<totfact> 0.85946151E+04</totfact>
</mgrwt>
</event>
<event>
 6    4  0.6358868E-003  0.1281992E+03  0.7818608E-02  0.1230153E+00
         -4   -1    0    0    0  501 -0.00000000000E+00  0.00000000000E+00  0.80005835756E+02  0.80015915011E+02  0.12700000000E+01 0.  1.
         21   -1    0    0  501  502  0.00000000000E+00 -0.00000000000E+00 -0.10189665522E+03  0.10189665522E+03  0.00000000000E+00 0.  1.
         25    2    1    2    0    0  0.28445201911E+02 -0.46376471679E+00 -0.53900105670E+02  0.13906922894E+03  0.12500273780E+03 0.  0.
    9000005    1    3    3    0    0 -0.46273988709E+02 -0.15454313835E+02 -0.62760886472E+01  0.49198649736E+02  0.10000000000E+01 0.  0.
    9000005    1    3    3    0    0  0.74719190620E+02  0.14990549119E+02 -0.47624017023E+02  0.89870579208E+02  0.10000000000E+01 0.  0.
         -4    1    1    2    0  502 -0.28445201911E+02  0.46376471679E+00  0.32009286204E+02  0.42843341289E+02  0.12700000000E+01 0. -1.
<mgrwt>
<rscale>  1 0.12819918E+03</rscale>
<asrwt>0</asrwt>
<pdfrwt beam="2">  1       21 0.15676409E-01 0.12819918E+03</pdfrwt>
<pdfrwt beam="1">  1       -4 0.12309974E-01 0.12819918E+03</pdfrwt>
<totfact> 0.77183816E+04</totfact>
</mgrwt>
</event>
<event>
 6    4  0.6358868E-003  0.1276210E+03  0.7818608E-02  0.1231029E+00
          4   -1    0    0  502    0 -0.00000000000E+00  0.00000000000E+00  0.34047050232E+03  0.34047287095E+03  0.12700000000E+01 0.  1.
         21   -1    0    0  501  502  0.00000000000E+00 -0.00000000000E+00 -0.30322300725E+02  0.30322300725E+02  0.00000000000E+00 0. -1.
         25    2    1    2    0    0 -0.23559704032E+02  0.10299184996E+02  0.31899258816E+03  0.34357442702E+03  0.12500393087E+03 0.  0.
    9000005    1    3    3    0    0  0.42822615672E+02  0.18039920069E+02  0.58892951976E+02  0.75023962316E+02  0.10000000000E+01 0.  0.
    9000005    1    3    3    0    0 -0.66382319704E+02 -0.77407350733E+01  0.26009963619E+03  0.26855046470E+03  0.10000000000E+01 0.  0.
          4    1    1    2  501    0  0.23559704032E+02 -0.10299184996E+02 -0.88443865657E+01  0.27220744651E+02  0.12700000000E+01 0. -1.
<mgrwt>
<rscale>  1 0.12762098E+03</rscale>
<asrwt>0</asrwt>
<pdfrwt beam="2">  1       21 0.46649696E-02 0.12762098E+03</pdfrwt>
<pdfrwt beam="1">  1        4 0.52382303E-01 0.12762098E+03</pdfrwt>
<totfact> 0.42778790E+04</totfact>
</mgrwt>
</event>
<event>
 6    4  0.6358868E-003  0.1343176E+03  0.7818608E-02  0.1221186E+00
         21   -1    0    0  501  502  0.00000000000E+00  0.00000000000E+00  0.51813059947E+02  0.51813059947E+02  0.00000000000E+00 0.  1.
          4   -1    0    0  502    0 -0.00000000000E+00 -0.00000000000E+00 -0.71751321596E+03  0.71751433991E+03  0.12700000000E+01 0. -1.
         25    2    1    2    0    0  0.48934753154E+02 -0.45254261589E+01 -0.69780374384E+03  0.71061332318E+03  0.12500456237E+03 0.  0.
    9000005    1    3    3    0    0  0.49909682460E+02 -0.53331675935E+02 -0.55289388422E+03  0.55769874598E+03  0.10000000000E+01 0.  0.
    9000005    1    3    3    0    0 -0.97492930651E+00  0.48806249776E+02 -0.14490985963E+03  0.15291457721E+03  0.10000000000E+01 0.  0.
          4    1    1    2  501    0 -0.48934753154E+02  0.45254261589E+01  0.32103587832E+02  0.58714076675E+02  0.12700000000E+01 0.  1.
<mgrwt>
<rscale>  1 0.13431765E+03</rscale>
<asrwt>0</asrwt>
<pdfrwt beam="1">  1       21 0.79712401E-02 0.13431765E+03</pdfrwt>
<pdfrwt beam="2">  1        4 0.11038793E+00 0.13431765E+03</pdfrwt>
<totfact> 0.33731400E+03</totfact>
</mgrwt>
</event>
<event>
 6    4  0.6358868E-003  0.1281181E+03  0.7818608E-02  0.1230275E+00
         21   -1    0    0  501  502  0.00000000000E+00  0.00000000000E+00  0.43042938363E+03  0.43042938363E+03  0.00000000000E+00 0.  1.
          4   -1    0    0  502    0 -0.00000000000E+00 -0.00000000000E+00 -0.16795041290E+02  0.16842989994E+02  0.12700000000E+01 0.  1.
         25    2    1    2    0    0 -0.28091934324E+02  0.89566149489E+00  0.24670318483E+03  0.27798686559E+03  0.12499710817E+03 0.  0.
    9000005    1    3    3    0    0  0.73331120938E+01  0.53903918617E+02  0.16859274278E+03  0.17715507301E+03  0.10000000000E+01 0.  0.
    9000005    1    3    3    0    0 -0.35425046418E+02 -0.53008257122E+02  0.78110442046E+02  0.10083179257E+03  0.10000000000E+01 0.  0.
          4    1    1    2  501    0  0.28091934324E+02 -0.89566149489E+00  0.16693115751E+03  0.16928550804E+03  0.12700000000E+01 0. -1.
<mgrwt>
<rscale>  1 0.12811806E+03</rscale>
<asrwt>0</asrwt>
<pdfrwt beam="1">  1       21 0.66219897E-01 0.12811806E+03</pdfrwt>
<pdfrwt beam="2">  1        4 0.25876853E-02 0.12811806E+03</pdfrwt>
<totfact> 0.57766517E+04</totfact>
</mgrwt>
</event>
<event>
 6    4  0.6358868E-003  0.1400922E+03  0.7818608E-02  0.1213205E+00
          4   -1    0    0  502    0 -0.00000000000E+00  0.00000000000E+00  0.78174110651E+02  0.78184426046E+02  0.12700000000E+01 0. -1.
         21   -1    0    0  501  502  0.00000000000E+00 -0.00000000000E+00 -0.14026958335E+03  0.14026958335E+03  0.00000000000E+00 0. -1.
         25    2    1    2    0    0  0.26786084851E+02 -0.57309824899E+02 -0.17804115853E+02  0.14121899426E+03  0.12499562963E+03 0.  0.
    9000005    1    3    3    0    0 -0.79999141366E+01 -0.90489970099E+02 -0.29597669955E+01  0.90896609042E+02  0.10000000000E+01 0.  0.
    9000005    1    3    3    0    0  0.34785998988E+02  0.33180145200E+02 -0.14844348858E+02  0.50322385218E+02  0.10000000000E+01 0.  0.
          4    1    1    2  501    0 -0.26786084851E+02  0.57309824899E+02 -0.44291356844E+02  0.77235015134E+02  0.12700000000E+01 0.  1.
<mgrwt>
<rscale>  1 0.14009218E+03</rscale>
<asrwt>0</asrwt>
<pdfrwt beam="2">  1       21 0.21579936E-01 0.14009218E+03</pdfrwt>
<pdfrwt beam="1">  1        4 0.12028022E-01 0.14009218E+03</pdfrwt>
<totfact> 0.45132426E+04</totfact>
</mgrwt>
</event>
<event>
 6    4  0.6358868E-003  0.1269733E+03  0.7818608E-02  0.1232017E+00
         21   -1    0    0  501  502  0.00000000000E+00  0.00000000000E+00  0.11627548779E+02  0.11627548779E+02  0.00000000000E+00 0. -1.
         -4   -1    0    0    0  501 -0.00000000000E+00 -0.00000000000E+00 -0.55207497242E+03  0.55207643318E+03  0.12700000000E+01 0.  1.
         25    2    1    2    0    0 -0.68785614503E+01  0.21200140816E+02 -0.51218047523E+03  0.52768462812E+03  0.12500186788E+03 0.  0.
    9000005    1    3    3    0    0 -0.51316307235E+02  0.51795439084E+02 -0.28427615167E+03  0.29347923488E+03  0.10000000000E+01 0.  0.
    9000005    1    3    3    0    0  0.44437745784E+02 -0.30595298268E+02 -0.22790432356E+03  0.23420539324E+03  0.10000000000E+01 0.  0.
         -4    1    1    2    0  502  0.68785614503E+01 -0.21200140816E+02 -0.28266948407E+02  0.36019353832E+02  0.12700000000E+01 0. -1.
<mgrwt>
<rscale>  1 0.12697333E+03</rscale>
<asrwt>0</asrwt>
<pdfrwt beam="1">  1       21 0.17888538E-02 0.12697333E+03</pdfrwt>
<pdfrwt beam="2">  1       -4 0.84940050E-01 0.12697333E+03</pdfrwt>
<totfact> 0.73102749E+04</totfact>
</mgrwt>
</event>
<event>
 6    4  0.6358868E-003  0.1283203E+03  0.7818608E-02  0.1229970E+00
         21   -1    0    0  501  502  0.00000000000E+00  0.00000000000E+00  0.22267378224E+03  0.22267378224E+03  0.00000000000E+00 0. -1.
         -4   -1    0    0    0  501 -0.00000000000E+00 -0.00000000000E+00 -0.40226012270E+02  0.40246055250E+02  0.12700000000E+01 0.  1.
         25    2    1    2    0    0  0.22252479515E+02 -0.18429470522E+02  0.68700949983E+02  0.14555387059E+03  0.12502515942E+03 0.  0.
    9000005    1    3    3    0    0  0.47617341465E+01  0.29123021954E+00 -0.36729006078E+02  0.37051029872E+02  0.10000000000E+01 0.  0.
    9000005    1    3    3    0    0  0.17490745368E+02 -0.18720700742E+02  0.10542995606E+03  0.10850284072E+03  0.10000000000E+01 0.  0.
         -4    1    1    2    0  502 -0.22252479515E+02  0.18429470522E+02  0.11374681999E+03  0.11736596690E+03  0.12700000000E+01 0. -1.
<mgrwt>
<rscale>  1 0.12832034E+03</rscale>
<asrwt>0</asrwt>
<pdfrwt beam="1">  1       21 0.34257504E-01 0.12832034E+03</pdfrwt>
<pdfrwt beam="2">  1       -4 0.61904378E-02 0.12832034E+03</pdfrwt>
<totfact> 0.55914941E+04</totfact>
</mgrwt>
</event>
<event>
 6    4  0.6358868E-003  0.1284269E+03  0.7818608E-02  0.1229809E+00
         21   -1    0    0  501  502  0.00000000000E+00  0.00000000000E+00  0.59231516312E+02  0.59231516312E+02  0.00000000000E+00 0.  1.
         -4   -1    0    0    0  501 -0.00000000000E+00 -0.00000000000E+00 -0.12741307892E+03  0.12741940818E+03  0.12700000000E+01 0.  1.
         25    2    1    2    0    0  0.14886071113E+00  0.29466250222E+02 -0.83728807562E+02  0.15331008186E+03  0.12500074369E+03 0.  0.
    9000005    1    3    3    0    0 -0.20294978665E+01  0.70812056277E+02 -0.14013257832E+02  0.72220755817E+02  0.10000000000E+01 0.  0.
    9000005    1    3    3    0    0  0.21783585776E+01 -0.41345806055E+02 -0.69715549730E+02  0.81089326046E+02  0.10000000000E+01 0.  0.
         -4    1    1    2    0  502 -0.14886071113E+00 -0.29466250222E+02  0.15547244950E+02  0.33340842629E+02  0.12700000000E+01 0. -1.
<mgrwt>
<rscale>  1 0.12842690E+03</rscale>
<asrwt>0</asrwt>
<pdfrwt beam="1">  1       21 0.91125412E-02 0.12842690E+03</pdfrwt>
<pdfrwt beam="2">  1       -4 0.19603546E-01 0.12842690E+03</pdfrwt>
<totfact> 0.89397674E+04</totfact>
</mgrwt>
</event>
<event>
 6    4  0.6358868E-003  0.1280991E+03  0.7818608E-02  0.1230304E+00
         21   -1    0    0  501  502  0.00000000000E+00  0.00000000000E+00  0.30814936986E+03  0.30814936986E+03  0.00000000000E+00 0.  1.
         -4   -1    0    0    0  501 -0.00000000000E+00 -0.00000000000E+00 -0.55196670730E+02  0.55211279280E+02  0.12700000000E+01 0. -1.
         25    2    1    2    0    0  0.68936315193E+01 -0.27159357405E+02  0.21109432078E+02  0.12982678387E+03  0.12499693131E+03 0.  0.
    9000005    1    3    3    0    0  0.44307157558E+01  0.25750505415E+01 -0.51268641427E+02  0.51533830841E+02  0.10000000000E+01 0.  0.
    9000005    1    3    3    0    0  0.24629157636E+01 -0.29734407946E+02  0.72378073505E+02  0.78292953030E+02  0.10000000000E+01 0.  0.
         -4    1    1    2    0  502 -0.68936315193E+01  0.27159357405E+02  0.23184326706E+03  0.23353386527E+03  0.12700000000E+01 0.  1.
<mgrwt>
<rscale>  1 0.12809912E+03</rscale>
<asrwt>0</asrwt>
<pdfrwt beam="1">  1       21 0.47407594E-01 0.12809912E+03</pdfrwt>
<pdfrwt beam="2">  1       -4 0.84931207E-02 0.12809912E+03</pdfrwt>
<totfact> 0.17350860E+04</totfact>
</mgrwt>
</event>
<event>
 6    4  0.6358868E-003  0.1286194E+03  0.7818608E-02  0.1229519E+00
         21   -1    0    0  501  502  0.00000000000E+00  0.00000000000E+00  0.19289392031E+03  0.19289392031E+03  0.00000000000E+00 0.  1.
          4   -1    0    0  502    0 -0.00000000000E+00 -0.00000000000E+00 -0.47030759533E+02  0.47047903697E+02  0.12700000000E+01 0.  1.
         25    2    1    2    0    0  0.75209896845E+01  0.29344892490E+02  0.47661752582E+02  0.13716625555E+03  0.12500100400E+03 0.  0.
    9000005    1    3    3    0    0 -0.38470746757E+02  0.19820879486E+02  0.72187127072E+02  0.84171532804E+02  0.10000000000E+01 0.  0.
    9000005    1    3    3    0    0  0.45991736442E+02  0.95240130041E+01 -0.24525374489E+02  0.52994722742E+02  0.10000000000E+01 0.  0.
          4    1    1    2  501    0 -0.75209896845E+01 -0.29344892490E+02  0.98201408192E+02  0.10277556846E+03  0.12700000000E+01 0. -1.
<mgrwt>
<rscale>  1 0.12861936E+03</rscale>
<asrwt>0</asrwt>
<pdfrwt beam="1">  1       21 0.29675987E-01 0.12861936E+03</pdfrwt>
<pdfrwt beam="2">  1        4 0.72371419E-02 0.12861936E+03</pdfrwt>
<totfact> 0.57258416E+04</totfact>
</mgrwt>
</event>
<event>
 6    4  0.6358868E-003  0.1439125E+03  0.7818608E-02  0.1208159E+00
         21   -1    0    0  501  502  0.00000000000E+00  0.00000000000E+00  0.14064999051E+03  0.14064999051E+03  0.00000000000E+00 0.  1.
         -4   -1    0    0    0  501 -0.00000000000E+00 -0.00000000000E+00 -0.82666802274E+02  0.82676557126E+02  0.12700000000E+01 0. -1.
         25    2    1    2    0    0 -0.71195254122E+02  0.41288220258E+01  0.32097863633E+02  0.14744852506E+03  0.12499993325E+03 0.  0.
    9000005    1    3    3    0    0 -0.35530417143E+02 -0.28555137307E+02  0.71668399452E+02  0.84942132590E+02  0.10000000000E+01 0.  0.
    9000005    1    3    3    0    0 -0.35664836979E+02  0.32683959333E+02 -0.39570535819E+02  0.62506392468E+02  0.10000000000E+01 0.  0.
         -4    1    1    2    0  502  0.71195254122E+02 -0.41288220258E+01  0.25885324608E+02  0.75878022582E+02  0.12700000000E+01 0.  1.
<mgrwt>
<rscale>  1 0.14391245E+03</rscale>
<asrwt>0</asrwt>
<pdfrwt beam="1">  1       21 0.21638460E-01 0.14391245E+03</pdfrwt>
<pdfrwt beam="2">  1       -4 0.12719161E-01 0.14391245E+03</pdfrwt>
<totfact> 0.40918317E+04</totfact>
</mgrwt>
</event>
<event>
 6    4  0.6358868E-003  0.1347046E+03  0.7818608E-02  0.1220637E+00
         -4   -1    0    0    0  501 -0.00000000000E+00  0.00000000000E+00  0.47526538099E+03  0.47526707783E+03  0.12700000000E+01 0.  1.
         21   -1    0    0  501  502  0.00000000000E+00 -0.00000000000E+00 -0.21558337136E+02  0.21558337136E+02  0.00000000000E+00 0. -1.
         25    2    1    2    0    0 -0.45933386469E+02  0.20271498121E+02  0.40519107777E+03  0.42699546800E+03  0.12499804222E+03 0.  0.
    9000005    1    3    3    0    0  0.43226335838E+02  0.24932943621E+00  0.12334336662E+03  0.13070257979E+03  0.10000000000E+01 0.  0.
    9000005    1    3    3    0    0 -0.89159722308E+02  0.20022168685E+02  0.28184771115E+03  0.29629288820E+03  0.10000000000E+01 0.  0.
         -4    1    1    2    0  502  0.45933386469E+02 -0.20271498121E+02  0.48515966091E+02  0.69829946974E+02  0.12700000000E+01 0. -1.
<mgrwt>
<rscale>  1 0.13470457E+03</rscale>
<asrwt>0</asrwt>
<pdfrwt beam="2">  1       21 0.33166676E-02 0.13470457E+03</pdfrwt>
<pdfrwt beam="1">  1       -4 0.73120751E-01 0.13470457E+03</pdfrwt>
<totfact> 0.37542292E+04</totfact>
</mgrwt>
</event>
<event>
 6    4  0.6358868E-003  0.1346874E+03  0.7818608E-02  0.1220662E+00
          4   -1    0    0  502    0 -0.00000000000E+00  0.00000000000E+00  0.18757840667E+02  0.18800784198E+02  0.12700000000E+01 0.  1.
         21   -1    0    0  501  502  0.00000000000E+00 -0.00000000000E+00 -0.47760090331E+03  0.47760090331E+03  0.00000000000E+00 0.  1.
         25    2    1    2    0    0 -0.21871985476E+02  0.45138130361E+02 -0.28091823560E+03  0.31153770633E+03  0.12499941123E+03 0.  0.
    9000005    1    3    3    0    0 -0.26922588307E+02  0.71054665565E+02 -0.27383269320E+03  0.28418116603E+03  0.10000000000E+01 0.  0.
    9000005    1    3    3    0    0  0.50506028314E+01 -0.25916535203E+02 -0.70855424008E+01  0.27356540297E+02  0.10000000000E+01 0.  0.
          4    1    1    2  501    0  0.21871985476E+02 -0.45138130361E+02 -0.17792482704E+03  0.18486398119E+03  0.12700000000E+01 0. -1.
<mgrwt>
<rscale>  1 0.13468737E+03</rscale>
<asrwt>0</asrwt>
<pdfrwt beam="2">  1       21 0.73477063E-01 0.13468737E+03</pdfrwt>
<pdfrwt beam="1">  1        4 0.28892548E-02 0.13468737E+03</pdfrwt>
<totfact> 0.38976938E+04</totfact>
</mgrwt>
</event>
<event>
 6    4  0.6358868E-003  0.1289738E+03  0.7818608E-02  0.1228986E+00
          4   -1    0    0  502    0 -0.00000000000E+00  0.00000000000E+00  0.46531770182E+03  0.46531943493E+03  0.12700000000E+01 0.  1.
         21   -1    0    0  501  502  0.00000000000E+00 -0.00000000000E+00 -0.52016683370E+02  0.52016683370E+02  0.00000000000E+00 0. -1.
         25    2    1    2    0    0 -0.21814587807E+02  0.23124481175E+02  0.45037725858E+03  0.46848042925E+03  0.12499447855E+03 0.  0.
    9000005    1    3    3    0    0 -0.39075746375E+02 -0.35315898830E+02  0.10187365005E+03  0.11468813033E+03  0.10000000000E+01 0.  0.
    9000005    1    3    3    0    0  0.17261158568E+02  0.58440380004E+02  0.34850360853E+03  0.35379229891E+03  0.10000000000E+01 0.  0.
          4    1    1    2  501    0  0.21814587807E+02 -0.23124481175E+02 -0.37076240132E+02  0.48855689056E+02  0.12700000000E+01 0. -1.
<mgrwt>
<rscale>  1 0.12897379E+03</rscale>
<asrwt>0</asrwt>
<pdfrwt beam="2">  1       21 0.80025670E-02 0.12897379E+03</pdfrwt>
<pdfrwt beam="1">  1        4 0.71588662E-01 0.12897379E+03</pdfrwt>
<totfact> 0.88757831E+03</totfact>
</mgrwt>
</event>
<event>
 6    4  0.6358868E-003  0.1281250E+03  0.7818608E-02  0.1230265E+00
         -4   -1    0    0    0  501 -0.00000000000E+00  0.00000000000E+00  0.73227815710E+03  0.73227925839E+03  0.12700000000E+01 0. -1.
         21   -1    0    0  501  502  0.00000000000E+00 -0.00000000000E+00 -0.87390114716E+01  0.87390114716E+01  0.00000000000E+00 0. -1.
         25    2    1    2    0    0 -0.25678959339E+02 -0.11497388408E+02  0.64447764253E+03  0.65709012759E+03  0.12499762062E+03 0.  0.
    9000005    1    3    3    0    0  0.41833268051E+02  0.23195015074E+02  0.33706717433E+03  0.34044575346E+03  0.10000000000E+01 0.  0.
    9000005    1    3    3    0    0 -0.67512227389E+02 -0.34692403482E+02  0.30741046820E+03  0.31664437413E+03  0.10000000000E+01 0.  0.
         -4    1    1    2    0  502  0.25678959339E+02  0.11497388408E+02  0.79061503092E+02  0.83928142265E+02  0.12700000000E+01 0.  1.
<mgrwt>
<rscale>  1 0.12812495E+03</rscale>
<asrwt>0</asrwt>
<pdfrwt beam="2">  1       21 0.13444639E-02 0.12812495E+03</pdfrwt>
<pdfrwt beam="1">  1       -4 0.11266531E+00 0.12812495E+03</pdfrwt>
<totfact> 0.60374928E+04</totfact>
</mgrwt>
</event>
<event>
 6    4  0.6358868E-003  0.1299565E+03  0.7818608E-02  0.1227520E+00
         -4   -1    0    0    0  501 -0.00000000000E+00  0.00000000000E+00  0.31375671053E+02  0.31401363570E+02  0.12700000000E+01 0. -1.
         21   -1    0    0  501  502  0.00000000000E+00 -0.00000000000E+00 -0.31334952369E+03  0.31334952369E+03  0.00000000000E+00 0.  1.
         25    2    1    2    0    0  0.31811327552E+02 -0.15811558033E+02 -0.11342140511E+03  0.17249089076E+03  0.12500690513E+03 0.  0.
    9000005    1    3    3    0    0 -0.16138199666E+02 -0.17726937528E+02  0.19659336823E+02  0.31018951093E+02  0.10000000000E+01 0.  0.
    9000005    1    3    3    0    0  0.47949527217E+02  0.19153794948E+01 -0.13308074194E+03  0.14147193967E+03  0.10000000000E+01 0.  0.
         -4    1    1    2    0  502 -0.31811327552E+02  0.15811558033E+02 -0.16855244753E+03  0.17225999650E+03  0.12700000000E+01 0.  1.
<mgrwt>
<rscale>  1 0.12995650E+03</rscale>
<asrwt>0</asrwt>
<pdfrwt beam="2">  1       21 0.48207618E-01 0.12995650E+03</pdfrwt>
<pdfrwt beam="1">  1       -4 0.48292008E-02 0.12995650E+03</pdfrwt>
<totfact> 0.42163423E+04</totfact>
</mgrwt>
</event>
<event>
 6    4  0.6358868E-003  0.1313083E+03  0.7818608E-02  0.1225527E+00
         -4   -1    0    0    0  501 -0.00000000000E+00  0.00000000000E+00  0.41715575321E+03  0.41715768641E+03  0.12700000000E+01 0. -1.
         21   -1    0    0  501  502  0.00000000000E+00 -0.00000000000E+00 -0.53434040126E+02  0.53434040126E+02  0.00000000000E+00 0.  1.
         25    2    1    2    0    0 -0.31659157460E+02  0.24760667644E+02  0.39715348844E+03  0.41829746857E+03  0.12500594352E+03 0.  0.
    9000005    1    3    3    0    0 -0.58524282071E+02  0.21493848541E+02  0.38241488776E+03  0.38746512553E+03  0.10000000000E+01 0.  0.
    9000005    1    3    3    0    0  0.26865124611E+02  0.32668191031E+01  0.14738600679E+02  0.30832343041E+02  0.10000000000E+01 0.  0.
         -4    1    1    2    0  502  0.31659157460E+02 -0.24760667644E+02 -0.33431775359E+02  0.52294257973E+02  0.12700000000E+01 0.  1.
<mgrwt>
<rscale>  1 0.13130833E+03</rscale>
<asrwt>0</asrwt>
<pdfrwt beam="2">  1       21 0.82206219E-02 0.13130833E+03</pdfrwt>
<pdfrwt beam="1">  1       -4 0.64179116E-01 0.13130833E+03</pdfrwt>
<totfact> 0.10727429E+04</totfact>
</mgrwt>
</event>
<event>
 6    4  0.6358868E-003  0.1272918E+03  0.7818608E-02  0.1231530E+00
         -4   -1    0    0    0  501 -0.00000000000E+00  0.00000000000E+00  0.18319625147E+03  0.18320065352E+03  0.12700000000E+01 0.  1.
         21   -1    0    0  501  502  0.00000000000E+00 -0.00000000000E+00 -0.39599701478E+02  0.39599701478E+02  0.00000000000E+00 0.  1.
         25    2    1    2    0    0  0.19564354903E+02 -0.14013679780E+02  0.15108960214E+03  0.19756335965E+03  0.12499626393E+03 0.  0.
    9000005    1    3    3    0    0  0.41592330514E+01 -0.67013766039E+02  0.10948958453E+03  0.12844108836E+03  0.10000000000E+01 0.  0.
    9000005    1    3    3    0    0  0.15405121852E+02  0.53000086259E+02  0.41600017614E+02  0.69122271289E+02  0.10000000000E+01 0.  0.
         -4    1    1    2    0  502 -0.19564354903E+02  0.14013679780E+02 -0.74930521570E+01  0.25236995352E+02  0.12700000000E+01 0. -1.
<mgrwt>
<rscale>  1 0.12729184E+03</rscale>
<asrwt>0</asrwt>
<pdfrwt beam="2">  1       21 0.60922619E-02 0.12729184E+03</pdfrwt>
<pdfrwt beam="1">  1       -4 0.28185943E-01 0.12729184E+03</pdfrwt>
<totfact> 0.91671644E+04</totfact>
</mgrwt>
</event>
<event>
 6    4  0.6358868E-003  0.1278468E+03  0.7818608E-02  0.1230686E+00
          4   -1    0    0  502    0 -0.00000000000E+00  0.00000000000E+00  0.55242941485E+02  0.55257537802E+02  0.12700000000E+01 0.  1.
         21   -1    0    0  501  502  0.00000000000E+00 -0.00000000000E+00 -0.11625222718E+03  0.11625222718E+03  0.00000000000E+00 0.  1.
         25    2    1    2    0    0  0.18028644132E+02 -0.19834524994E+02 -0.31591939510E+02  0.13169226195E+03  0.12500544318E+03 0.  0.
    9000005    1    3    3    0    0  0.35253739989E+02  0.45399205850E+02 -0.73125155123E+00  0.57493032655E+02  0.10000000000E+01 0.  0.
    9000005    1    3    3    0    0 -0.17225095857E+02 -0.65233730844E+02 -0.30860687959E+02  0.74199229298E+02  0.10000000000E+01 0.  0.
          4    1    1    2  501    0 -0.18028644132E+02  0.19834524994E+02 -0.29417346190E+02  0.39817503033E+02  0.12700000000E+01 0. -1.
<mgrwt>
<rscale>  1 0.12784679E+03</rscale>
<asrwt>0</asrwt>
<pdfrwt beam="2">  1       21 0.17884958E-01 0.12784679E+03</pdfrwt>
<pdfrwt beam="1">  1        4 0.85005705E-02 0.12784679E+03</pdfrwt>
<totfact> 0.11334887E+05</totfact>
</mgrwt>
</event>
<event>
 6    4  0.6358868E-003  0.1278439E+03  0.7818608E-02  0.1230691E+00
          4   -1    0    0  502    0 -0.00000000000E+00  0.00000000000E+00  0.32701881121E+02  0.32726532491E+02  0.12700000000E+01 0. -1.
         21   -1    0    0  501  502  0.00000000000E+00 -0.00000000000E+00 -0.18940841130E+03  0.18940841130E+03  0.00000000000E+00 0. -1.
         25    2    1    2    0    0 -0.38870669472E+01  0.26598181262E+02 -0.11205552501E+03  0.17000148334E+03  0.12498596368E+03 0.  0.
    9000005    1    3    3    0    0  0.57267745399E+01 -0.49777358197E+02 -0.53270234419E+02  0.73138903538E+02  0.10000000000E+01 0.  0.
    9000005    1    3    3    0    0 -0.96138414871E+01  0.76375539459E+02 -0.58785290587E+02  0.96862579799E+02  0.10000000000E+01 0.  0.
          4    1    1    2  501    0  0.38870669472E+01 -0.26598181262E+02 -0.44651005168E+02  0.52133460449E+02  0.12700000000E+01 0.  1.
<mgrwt>
<rscale>  1 0.12784390E+03</rscale>
<asrwt>0</asrwt>
<pdfrwt beam="2">  1       21 0.29139756E-01 0.12784390E+03</pdfrwt>
<pdfrwt beam="1">  1        4 0.50332823E-02 0.12784390E+03</pdfrwt>
<totfact> 0.10688160E+05</totfact>
</mgrwt>
</event>
<event>
 6    4  0.6358868E-003  0.1280140E+03  0.7818608E-02  0.1230433E+00
         -4   -1    0    0    0  501 -0.00000000000E+00  0.00000000000E+00  0.38306902175E+03  0.38307112698E+03  0.12700000000E+01 0.  1.
         21   -1    0    0  501  502  0.00000000000E+00 -0.00000000000E+00 -0.26774372443E+02  0.26774372443E+02  0.00000000000E+00 0. -1.
         25    2    1    2    0    0  0.14562502530E+01  0.27567299066E+02  0.35988820424E+03  0.38197789853E+03  0.12500207506E+03 0.  0.
    9000005    1    3    3    0    0  0.62247740438E+02  0.12778231121E+02  0.21398130976E+03  0.22321976908E+03  0.10000000000E+01 0.  0.
    9000005    1    3    3    0    0 -0.60791490185E+02  0.14789067945E+02  0.14590689448E+03  0.15875812945E+03  0.10000000000E+01 0.  0.
         -4    1    1    2    0  502 -0.14562502530E+01 -0.27567299066E+02 -0.35935549315E+01  0.27867600895E+02  0.12700000000E+01 0. -1.
<mgrwt>
<rscale>  1 0.12801404E+03</rscale>
<asrwt>0</asrwt>
<pdfrwt beam="2">  1       21 0.41191345E-02 0.12801404E+03</pdfrwt>
<pdfrwt beam="1">  1       -4 0.58936171E-01 0.12801404E+03</pdfrwt>
<totfact> 0.41264715E+04</totfact>
</mgrwt>
</event>
<event>
 6    4  0.6358868E-003  0.1266075E+03  0.7818608E-02  0.1232578E+00
         21   -1    0    0  501  502  0.00000000000E+00  0.00000000000E+00  0.19934584637E+03  0.19934584637E+03  0.00000000000E+00 0. -1.
          4   -1    0    0  502    0 -0.00000000000E+00 -0.00000000000E+00 -0.45352146843E+02  0.45369925317E+02  0.12700000000E+01 0. -1.
         25    2    1    2    0    0 -0.52996880095E+01 -0.19348592923E+02  0.45747660759E+02  0.13461912074E+03  0.12500801759E+03 0.  0.
    9000005    1    3    3    0    0 -0.54409743009E+02  0.17761348440E+02  0.45389730205E+02  0.73055549007E+02  0.10000000000E+01 0.  0.
    9000005    1    3    3    0    0  0.49110054999E+02 -0.37109941363E+02  0.35793055428E+00  0.61563571731E+02  0.10000000000E+01 0.  0.
          4    1    1    2  501    0  0.52996880095E+01  0.19348592923E+02  0.10824603876E+03  0.11009665094E+03  0.12700000000E+01 0.  1.
<mgrwt>
<rscale>  1 0.12660750E+03</rscale>
<asrwt>0</asrwt>
<pdfrwt beam="1">  1       21 0.30668591E-01 0.12660750E+03</pdfrwt>
<pdfrwt beam="2">  1        4 0.69789323E-02 0.12660750E+03</pdfrwt>
<totfact> 0.56929154E+04</totfact>
</mgrwt>
</event>
<event>
 6    4  0.6358868E-003  0.1270900E+03  0.7818608E-02  0.1231839E+00
          4   -1    0    0  502    0 -0.00000000000E+00  0.00000000000E+00  0.25528341085E+03  0.25528656987E+03  0.12700000000E+01 0.  1.
         21   -1    0    0  501  502  0.00000000000E+00 -0.00000000000E+00 -0.66892410819E+02  0.66892410819E+02  0.00000000000E+00 0. -1.
         25    2    1    2    0    0  0.15685241574E+02  0.16770901353E+02  0.23670789632E+03  0.26866799768E+03  0.12499829943E+03 0.  0.
    9000005    1    3    3    0    0  0.23490762947E+02  0.60184062858E+02  0.66049097319E+02  0.92398163524E+02  0.10000000000E+01 0.  0.
    9000005    1    3    3    0    0 -0.78055213727E+01 -0.43413161504E+02  0.17065879900E+03  0.17626983415E+03  0.10000000000E+01 0.  0.
          4    1    1    2  501    0 -0.15685241574E+02 -0.16770901353E+02 -0.48316896291E+02  0.53510983010E+02  0.12700000000E+01 0. -1.
<mgrwt>
<rscale>  1 0.12708999E+03</rscale>
<asrwt>0</asrwt>
<pdfrwt beam="2">  1       21 0.10291140E-01 0.12708999E+03</pdfrwt>
<pdfrwt beam="1">  1        4 0.39275541E-01 0.12708999E+03</pdfrwt>
<totfact> 0.19676637E+04</totfact>
</mgrwt>
</event>
<event>
 6    4  0.6358868E-003  0.1570285E+03  0.7818608E-02  0.1192093E+00
         21   -1    0    0  501  502  0.00000000000E+00  0.00000000000E+00  0.71526858253E+02  0.71526858253E+02  0.00000000000E+00 0.  1.
          4   -1    0    0  502    0 -0.00000000000E+00 -0.00000000000E+00 -0.31323499474E+03  0.31323756931E+03  0.12700000000E+01 0. -1.
         25    2    1    2    0    0 -0.13817205093E+02  0.94028707036E+02 -0.24345223279E+03  0.28970146067E+03  0.12500253500E+03 0.  0.
    9000005    1    3    3    0    0 -0.13444162631E+02  0.12473807722E+03 -0.20667855927E+03  0.24177956961E+03  0.10000000000E+01 0.  0.
    9000005    1    3    3    0    0 -0.37304246211E+00 -0.30709370188E+02 -0.36773673522E+02  0.47921891056E+02  0.10000000000E+01 0.  0.
          4    1    1    2  501    0  0.13817205093E+02 -0.94028707036E+02  0.17440963083E+01  0.95062966898E+02  0.12700000000E+01 0.  1.
<mgrwt>
<rscale>  1 0.15702849E+03</rscale>
<asrwt>0</asrwt>
<pdfrwt beam="1">  1       21 0.11004132E-01 0.15702849E+03</pdfrwt>
<pdfrwt beam="2">  1        4 0.48191065E-01 0.15702849E+03</pdfrwt>
<totfact> 0.11864030E+04</totfact>
</mgrwt>
</event>
<event>
 6    4  0.6358868E-003  0.1284273E+03  0.7818608E-02  0.1229808E+00
         -4   -1    0    0    0  501 -0.00000000000E+00  0.00000000000E+00  0.66146361334E+03  0.66146483253E+03  0.12700000000E+01 0. -1.
         21   -1    0    0  501  502  0.00000000000E+00 -0.00000000000E+00 -0.22372572535E+02  0.22372572535E+02  0.00000000000E+00 0.  1.
         25    2    1    2    0    0  0.28105088111E+02  0.88980857869E+01  0.64150253038E+03  0.65423166086E+03  0.12499799067E+03 0.  0.
    9000005    1    3    3    0    0  0.96130242456E+01 -0.82507365652E+01  0.48447537473E+00  0.12716902351E+02  0.10000000000E+01 0.  0.
    9000005    1    3    3    0    0  0.18492063866E+02  0.17148822352E+02  0.64101805501E+03  0.64151475850E+03  0.10000000000E+01 0.  0.
         -4    1    1    2    0  502 -0.28105088111E+02 -0.88980857869E+01 -0.24114895726E+01  0.29605744213E+02  0.12700000000E+01 0.  1.
<mgrwt>
<rscale>  1 0.12842729E+03</rscale>
<asrwt>0</asrwt>
<pdfrwt beam="2">  1       21 0.34419347E-02 0.12842729E+03</pdfrwt>
<pdfrwt beam="1">  1       -4 0.10176648E+00 0.12842729E+03</pdfrwt>
<totfact> 0.16737728E+04</totfact>
</mgrwt>
</event>
<event>
 6    4  0.6358868E-003  0.1269455E+03  0.7818608E-02  0.1232060E+00
          4   -1    0    0  502    0 -0.00000000000E+00  0.00000000000E+00  0.18301771168E+03  0.18302211804E+03  0.12700000000E+01 0. -1.
         21   -1    0    0  501  502  0.00000000000E+00 -0.00000000000E+00 -0.97116134510E+02  0.97116134510E+02  0.00000000000E+00 0.  1.
         25    2    1    2    0    0 -0.21796821220E+02  0.19082516879E+01  0.15920945393E+03  0.20362419806E+03  0.12504567555E+03 0.  0.
    9000005    1    3    3    0    0  0.70248722833E+01  0.46270011554E+02  0.13671739516E+02  0.48766579347E+02  0.10000000000E+01 0.  0.
    9000005    1    3    3    0    0 -0.28821693503E+02 -0.44361759867E+02  0.14553771442E+03  0.15485761871E+03  0.10000000000E+01 0.  0.
          4    1    1    2  501    0  0.21796821220E+02 -0.19082516879E+01 -0.73307876757E+02  0.76514054489E+02  0.12700000000E+01 0.  1.
<mgrwt>
<rscale>  1 0.12694552E+03</rscale>
<asrwt>0</asrwt>
<pdfrwt beam="2">  1       21 0.14940944E-01 0.12694552E+03</pdfrwt>
<pdfrwt beam="1">  1        4 0.28157549E-01 0.12694552E+03</pdfrwt>
<totfact> 0.19188533E+04</totfact>
</mgrwt>
</event>
<event>
 6    4  0.6358868E-003  0.1320789E+03  0.7818608E-02  0.1224403E+00
         21   -1    0    0  501  502  0.00000000000E+00  0.00000000000E+00  0.18700542572E+02  0.18700542572E+02  0.00000000000E+00 0.  1.
         -4   -1    0    0    0  501 -0.00000000000E+00 -0.00000000000E+00 -0.46851261873E+03  0.46851434003E+03  0.12700000000E+01 0.  1.
         25    2    1    2    0    0  0.42401036384E+02  0.46955537775E+01 -0.40191878521E+03  0.42306446303E+03  0.12499973548E+03 0.  0.
    9000005    1    3    3    0    0  0.30474758720E+02  0.43812365953E+02 -0.67031975896E+02  0.85688506359E+02  0.10000000000E+01 0.  0.
    9000005    1    3    3    0    0  0.11926277664E+02 -0.39116812176E+02 -0.33488680931E+03  0.33737595668E+03  0.10000000000E+01 0.  0.
         -4    1    1    2    0  502 -0.42401036384E+02 -0.46955537775E+01 -0.47893290953E+02  0.64150419562E+02  0.12700000000E+01 0. -1.
<mgrwt>
<rscale>  1 0.13207888E+03</rscale>
<asrwt>0</asrwt>
<pdfrwt beam="1">  1       21 0.28770064E-02 0.13207888E+03</pdfrwt>
<pdfrwt beam="2">  1       -4 0.72082317E-01 0.13207888E+03</pdfrwt>
<totfact> 0.48803898E+04</totfact>
</mgrwt>
</event>
<event>
 6    4  0.6358868E-003  0.1276241E+03  0.7818608E-02  0.1231024E+00
         21   -1    0    0  501  502  0.00000000000E+00  0.00000000000E+00  0.15799375367E+02  0.15799375367E+02  0.00000000000E+00 0.  1.
          4   -1    0    0  502    0 -0.00000000000E+00 -0.00000000000E+00 -0.45383434889E+03  0.45383612585E+03  0.12700000000E+01 0.  1.
         25    2    1    2    0    0  0.13637905798E+02  0.21819935370E+02 -0.25878810934E+03  0.28854670180E+03  0.12500324609E+03 0.  0.
    9000005    1    3    3    0    0  0.17769867786E+02 -0.46555651053E+02 -0.16525843073E+03  0.17261096655E+03  0.10000000000E+01 0.  0.
    9000005    1    3    3    0    0 -0.41319619881E+01  0.68375586423E+02 -0.93529678606E+02  0.11593573525E+03  0.10000000000E+01 0.  0.
          4    1    1    2  501    0 -0.13637905798E+02 -0.21819935370E+02 -0.17924686418E+03  0.18108879941E+03  0.12700000000E+01 0. -1.
<mgrwt>
<rscale>  1 0.12762411E+03</rscale>
<asrwt>0</asrwt>
<pdfrwt beam="1">  1       21 0.24306736E-02 0.12762411E+03</pdfrwt>
<pdfrwt beam="2">  1        4 0.69824719E-01 0.12762411E+03</pdfrwt>
<totfact> 0.68501105E+04</totfact>
</mgrwt>
</event>
<event>
 6    4  0.6358868E-003  0.1266482E+03  0.7818608E-02  0.1232516E+00
          4   -1    0    0  502    0 -0.00000000000E+00  0.00000000000E+00  0.15644330059E+04  0.15644335214E+04  0.12700000000E+01 0. -1.
         21   -1    0    0  501  502  0.00000000000E+00 -0.00000000000E+00 -0.39481700053E+01  0.39481700053E+01  0.00000000000E+00 0.  1.
         25    2    1    2    0    0  0.19803362892E+02  0.46924546287E+01  0.14779015620E+04  0.14833181719E+04  0.12500231993E+03 0.  0.
    9000005    1    3    3    0    0  0.35522067085E+02 -0.26005924382E+02  0.19326225287E+03  0.19821559913E+03  0.10000000000E+01 0.  0.
    9000005    1    3    3    0    0 -0.15718704192E+02  0.30698379010E+02  0.12846393091E+04  0.12851025728E+04  0.10000000000E+01 0.  0.
          4    1    1    2  501    0 -0.19803362892E+02 -0.46924546287E+01  0.82583273980E+02  0.85063519523E+02  0.12700000000E+01 0.  1.
<mgrwt>
<rscale>  1 0.12664822E+03</rscale>
<asrwt>0</asrwt>
<pdfrwt beam="2">  1       21 0.60741202E-03 0.12664822E+03</pdfrwt>
<pdfrwt beam="1">  1        4 0.24069726E+00 0.12664822E+03</pdfrwt>
<totfact> 0.27567073E+04</totfact>
</mgrwt>
</event>
<event>
 6    4  0.6358868E-003  0.1276941E+03  0.7818608E-02  0.1230918E+00
         21   -1    0    0  501  502  0.00000000000E+00  0.00000000000E+00  0.22857971951E+03  0.22857971951E+03  0.00000000000E+00 0.  1.
         -4   -1    0    0    0  501 -0.00000000000E+00 -0.00000000000E+00 -0.36158497727E+02  0.36180794047E+02  0.12700000000E+01 0. -1.
         25    2    1    2    0    0  0.25707137928E+02  0.38525024873E+01  0.83026730441E+02  0.15231289752E+03  0.12502032662E+03 0.  0.
    9000005    1    3    3    0    0 -0.45417547153E+02  0.20839516488E+02  0.14374672124E+02  0.52006444173E+02  0.10000000000E+01 0.  0.
    9000005    1    3    3    0    0  0.71124685081E+02 -0.16987014001E+02  0.68652058317E+02  0.10030645335E+03  0.10000000000E+01 0.  0.
         -4    1    1    2    0  502 -0.25707137928E+02 -0.38525024873E+01  0.10939449134E+03  0.11244761603E+03  0.12700000000E+01 0.  1.
<mgrwt>
<rscale>  1 0.12769409E+03</rscale>
<asrwt>0</asrwt>
<pdfrwt beam="1">  1       21 0.35166110E-01 0.12769409E+03</pdfrwt>
<pdfrwt beam="2">  1       -4 0.55648324E-02 0.12769409E+03</pdfrwt>
<totfact> 0.63090963E+04</totfact>
</mgrwt>
</event>
<event>
 6    4  0.6358868E-003  0.1407296E+03  0.7818608E-02  0.1212351E+00
         21   -1    0    0  501  502  0.00000000000E+00  0.00000000000E+00  0.12651104482E+03  0.12651104482E+03  0.00000000000E+00 0.  1.
         -4   -1    0    0    0  501 -0.00000000000E+00 -0.00000000000E+00 -0.17706023720E+03  0.17706479181E+03  0.12700000000E+01 0. -1.
         25    2    1    2    0    0  0.50487222552E+02  0.40371478026E+02 -0.13647831310E+03  0.19603866833E+03  0.12500405457E+03 0.  0.
    9000005    1    3    3    0    0 -0.21754687340E+02  0.96704801777E+01 -0.11096640752E+03  0.11349593916E+03  0.10000000000E+01 0.  0.
    9000005    1    3    3    0    0  0.72241909893E+02  0.30700997848E+02 -0.25511905580E+02  0.82542729178E+02  0.10000000000E+01 0.  0.
         -4    1    1    2    0  502 -0.50487222552E+02 -0.40371478026E+02  0.85929120715E+02  0.10753716830E+03  0.12700000000E+01 0.  1.
<mgrwt>
<rscale>  1 0.14072963E+03</rscale>
<asrwt>0</asrwt>
<pdfrwt beam="1">  1       21 0.19463238E-01 0.14072963E+03</pdfrwt>
<pdfrwt beam="2">  1       -4 0.27240877E-01 0.14072963E+03</pdfrwt>
<totfact> 0.12725216E+04</totfact>
</mgrwt>
</event>
<event>
 6    4  0.6358868E-003  0.1285267E+03  0.7818608E-02  0.1229658E+00
         21   -1    0    0  501  502  0.00000000000E+00  0.00000000000E+00  0.13793001123E+04  0.13793001123E+04  0.00000000000E+00 0. -1.
         -4   -1    0    0    0  501 -0.00000000000E+00 -0.00000000000E+00 -0.11446964396E+02  0.11517199915E+02  0.12700000000E+01 0.  1.
         25    2    1    2    0    0  0.32409281028E+01 -0.29736069618E+02  0.35547899104E+03  0.37800055493E+03  0.12499747600E+03 0.  0.
    9000005    1    3    3    0    0  0.40203967463E+02 -0.10057957790E+02  0.33473687453E+02  0.53282354174E+02  0.10000000000E+01 0.  0.
    9000005    1    3    3    0    0 -0.36963039360E+02 -0.19678111828E+02  0.32200530359E+03  0.32471820076E+03  0.10000000000E+01 0.  0.
         -4    1    1    2    0  502 -0.32409281028E+01  0.29736069618E+02  0.10123741569E+04  0.10128167573E+04  0.12700000000E+01 0. -1.
<mgrwt>
<rscale>  1 0.12852668E+03</rscale>
<asrwt>0</asrwt>
<pdfrwt beam="1">  1       21 0.21219989E+00 0.12852668E+03</pdfrwt>
<pdfrwt beam="2">  1       -4 0.17665202E-02 0.12852668E+03</pdfrwt>
<totfact> 0.58464347E+03</totfact>
</mgrwt>
</event>
<event>
 6    4  0.6358868E-003  0.1290886E+03  0.7818608E-02  0.1228814E+00
         21   -1    0    0  501  502  0.00000000000E+00  0.00000000000E+00  0.82084506642E+02  0.82084506642E+02  0.00000000000E+00 0. -1.
          4   -1    0    0  502    0 -0.00000000000E+00 -0.00000000000E+00 -0.10303463750E+03  0.10304246418E+03  0.12700000000E+01 0. -1.
         25    2    1    2    0    0  0.30629311790E+02 -0.10025534947E+02 -0.53103448851E+02  0.13958451974E+03  0.12500078312E+03 0.  0.
    9000005    1    3    3    0    0 -0.22767986962E+02  0.30517754152E+02 -0.61159384396E+02  0.72049877504E+02  0.10000000000E+01 0.  0.
    9000005    1    3    3    0    0  0.53397298752E+02 -0.40543289099E+02  0.80559355440E+01  0.67534642240E+02  0.10000000000E+01 0.  0.
          4    1    1    2  501    0 -0.30629311790E+02  0.10025534947E+02  0.32153317998E+02  0.45542451076E+02  0.12700000000E+01 0.  1.
<mgrwt>
<rscale>  1 0.12908858E+03</rscale>
<asrwt>0</asrwt>
<pdfrwt beam="1">  1       21 0.12628386E-01 0.12908858E+03</pdfrwt>
<pdfrwt beam="2">  1        4 0.15852840E-01 0.12908858E+03</pdfrwt>
<totfact> 0.73455888E+04</totfact>
</mgrwt>
</event>
<event>
 6    4  0.6358868E-003  0.1284833E+03  0.7818608E-02  0.1229724E+00
          4   -1    0    0  502    0 -0.00000000000E+00  0.00000000000E+00  0.81202461459E+03  0.81202560772E+03  0.12700000000E+01 0.  1.
         21   -1    0    0  501  502  0.00000000000E+00 -0.00000000000E+00 -0.31857094021E+02  0.31857094021E+02  0.00000000000E+00 0. -1.
         25    2    1    2    0    0 -0.24683512448E+02  0.16557123363E+02  0.79861073932E+03  0.80888013986E+03  0.12499821426E+03 0.  0.
    9000005    1    3    3    0    0 -0.24077086131E+02 -0.52603882657E+02  0.42494098428E+03  0.42886211615E+03  0.10000000000E+01 0.  0.
    9000005    1    3    3    0    0 -0.60642631644E+00  0.69161006020E+02  0.37366975505E+03  0.38001802371E+03  0.10000000000E+01 0.  0.
          4    1    1    2  501    0  0.24683512448E+02 -0.16557123363E+02 -0.18443218755E+02  0.35002561890E+02  0.12700000000E+01 0. -1.
<mgrwt>
<rscale>  1 0.12848334E+03</rscale>
<asrwt>0</asrwt>
<pdfrwt beam="2">  1       21 0.49010920E-02 0.12848334E+03</pdfrwt>
<pdfrwt beam="1">  1        4 0.12492887E+00 0.12848334E+03</pdfrwt>
<totfact> 0.57217518E+03</totfact>
</mgrwt>
</event>
<event>
 6    4  0.6358868E-003  0.1267298E+03  0.7818608E-02  0.1232390E+00
         21   -1    0    0  501  502  0.00000000000E+00  0.00000000000E+00  0.31691790947E+02  0.31691790947E+02  0.00000000000E+00 0.  1.
          4   -1    0    0  502    0 -0.00000000000E+00 -0.00000000000E+00 -0.30676800292E+03  0.30677063177E+03  0.12700000000E+01 0. -1.
         25    2    1    2    0    0 -0.20863641424E+02  0.25989460709E+00 -0.28746714052E+03  0.31416207110E+03  0.12500036385E+03 0.  0.
    9000005    1    3    3    0    0 -0.26401922814E+02 -0.56014187819E+02 -0.20511072380E+03  0.21425699471E+03  0.10000000000E+01 0.  0.
    9000005    1    3    3    0    0  0.55382813892E+01  0.56274082426E+02 -0.82356416718E+02  0.99905076389E+02  0.10000000000E+01 0.  0.
          4    1    1    2  501    0  0.20863641424E+02 -0.25989460709E+00  0.12390928540E+02  0.24300351619E+02  0.12700000000E+01 0.  1.
<mgrwt>
<rscale>  1 0.12672983E+03</rscale>
<asrwt>0</asrwt>
<pdfrwt beam="1">  1       21 0.48756600E-02 0.12672983E+03</pdfrwt>
<pdfrwt beam="2">  1        4 0.47197239E-01 0.12672983E+03</pdfrwt>
<totfact> 0.49056647E+04</totfact>
</mgrwt>
</event>
<event>
 6    4  0.6358868E-003  0.1282875E+03  0.7818608E-02  0.1230019E+00
          4   -1    0    0  502    0 -0.00000000000E+00  0.00000000000E+00  0.47768074211E+03  0.47768243037E+03  0.12700000000E+01 0.  1.
         21   -1    0    0  501  502  0.00000000000E+00 -0.00000000000E+00 -0.21628085389E+02  0.21628085389E+02  0.00000000000E+00 0. -1.
         25    2    1    2    0    0 -0.28433425517E+02  0.48692848348E+01  0.45236107490E+03  0.47020020319E+03  0.12500207747E+03 0.  0.
    9000005    1    3    3    0    0 -0.10118417458E+02 -0.55104240207E+02  0.12644376367E+03  0.13830359732E+03  0.10000000000E+01 0.  0.
    9000005    1    3    3    0    0 -0.18315008058E+02  0.59973525042E+02  0.32591731123E+03  0.33189660587E+03  0.10000000000E+01 0.  0.
          4    1    1    2  501    0  0.28433425517E+02 -0.48692848348E+01  0.36915818161E+01  0.29110312567E+02  0.12700000000E+01 0. -1.
<mgrwt>
<rscale>  1 0.12828752E+03</rscale>
<asrwt>0</asrwt>
<pdfrwt beam="2">  1       21 0.33273981E-02 0.12828752E+03</pdfrwt>
<pdfrwt beam="1">  1        4 0.73492335E-01 0.12828752E+03</pdfrwt>
<totfact> 0.36709172E+04</totfact>
</mgrwt>
</event>
<event>
 6    4  0.6358868E-003  0.1298294E+03  0.7818608E-02  0.1227709E+00
         -4   -1    0    0    0  501 -0.00000000000E+00  0.00000000000E+00  0.29890697087E+02  0.29917664888E+02  0.12700000000E+01 0. -1.
         21   -1    0    0  501  502  0.00000000000E+00 -0.00000000000E+00 -0.27712521937E+03  0.27712521937E+03  0.00000000000E+00 0. -1.
         25    2    1    2    0    0 -0.77830861045E+01  0.34201972132E+02 -0.23741667665E+03  0.27059628881E+03  0.12500128735E+03 0.  0.
    9000005    1    3    3    0    0  0.53988395788E+02 -0.83085107471E+01 -0.92636315527E+02  0.10754657217E+03  0.10000000000E+01 0.  0.
    9000005    1    3    3    0    0 -0.61771481892E+02  0.42510482879E+02 -0.14478036112E+03  0.16304971664E+03  0.10000000000E+01 0.  0.
         -4    1    1    2    0  502  0.77830861045E+01 -0.34201972132E+02 -0.98178456348E+01  0.36446595450E+02  0.12700000000E+01 0.  1.
<mgrwt>
<rscale>  1 0.12982940E+03</rscale>
<asrwt>0</asrwt>
<pdfrwt beam="2">  1       21 0.42634648E-01 0.12982940E+03</pdfrwt>
<pdfrwt beam="1">  1       -4 0.46008672E-02 0.12982940E+03</pdfrwt>
<totfact> 0.58494865E+04</totfact>
</mgrwt>
</event>
<event>
 6    4  0.6358868E-003  0.1997886E+03  0.7818608E-02  0.1149917E+00
          4   -1    0    0  502    0 -0.00000000000E+00  0.00000000000E+00  0.77809859862E+03  0.77809963506E+03  0.12700000000E+01 0.  1.
         21   -1    0    0  501  502  0.00000000000E+00 -0.00000000000E+00 -0.81777071672E+02  0.81777071672E+02  0.00000000000E+00 0. -1.
         25    2    1    2    0    0 -0.50618470782E+02  0.14740249937E+03  0.67331525596E+03  0.70233106950E+03  0.12500308346E+03 0.  0.
    9000005    1    3    3    0    0 -0.91324915645E+02  0.83201598948E+02  0.40074407136E+03  0.41935612194E+03  0.10000000000E+01 0.  0.
    9000005    1    3    3    0    0  0.40706444864E+02  0.64200900426E+02  0.27257118460E+03  0.28297494756E+03  0.10000000000E+01 0.  0.
          4    1    1    2  501    0  0.50618470782E+02 -0.14740249937E+03  0.23006270994E+02  0.15754563723E+03  0.12700000000E+01 0. -1.
<mgrwt>
<rscale>  1 0.19978863E+03</rscale>
<asrwt>0</asrwt>
<pdfrwt beam="2">  1       21 0.12581088E-01 0.19978863E+03</pdfrwt>
<pdfrwt beam="1">  1        4 0.11970831E+00 0.19978863E+03</pdfrwt>
<totfact> 0.12648803E+03</totfact>
</mgrwt>
</event>
<event>
 6    4  0.6358868E-003  0.1338108E+03  0.7818608E-02  0.1221908E+00
          4   -1    0    0  502    0 -0.00000000000E+00  0.00000000000E+00  0.35303946362E+03  0.35304174792E+03  0.12700000000E+01 0.  1.
         21   -1    0    0  501  502  0.00000000000E+00 -0.00000000000E+00 -0.44948306304E+02  0.44948306304E+02  0.00000000000E+00 0. -1.
         25    2    1    2    0    0 -0.45864415830E+02 -0.13749621949E+02  0.32151317200E+03  0.34824711380E+03  0.12495093342E+03 0.  0.
    9000005    1    3    3    0    0 -0.59753829253E+02 -0.57956984731E+02  0.24535715779E+03  0.25909586463E+03  0.10000000000E+01 0.  0.
    9000005    1    3    3    0    0  0.13889413423E+02  0.44207362782E+02  0.76156014203E+02  0.89151249171E+02  0.10000000000E+01 0.  0.
          4    1    1    2  501    0  0.45864415830E+02  0.13749621949E+02 -0.13422014683E+02  0.49742940417E+02  0.12700000000E+01 0. -1.
<mgrwt>
<rscale>  1 0.13381081E+03</rscale>
<asrwt>0</asrwt>
<pdfrwt beam="2">  1       21 0.69151243E-02 0.13381081E+03</pdfrwt>
<pdfrwt beam="1">  1        4 0.54315318E-01 0.13381081E+03</pdfrwt>
<totfact> 0.20518065E+04</totfact>
</mgrwt>
</event>
<event>
 6    4  0.6358868E-003  0.1660036E+03  0.7818608E-02  0.1182081E+00
          4   -1    0    0  502    0 -0.00000000000E+00  0.00000000000E+00  0.21900170932E+03  0.21900539168E+03  0.12700000000E+01 0.  1.
         21   -1    0    0  501  502  0.00000000000E+00 -0.00000000000E+00 -0.16449665445E+03  0.16449665445E+03  0.00000000000E+00 0. -1.
         25    2    1    2    0    0  0.74115659503E+02  0.80242740302E+02  0.16077589350E+03  0.23109754358E+03  0.12500063346E+03 0.  0.
    9000005    1    3    3    0    0  0.66983144612E+02  0.95203614638E+02  0.63873518396E+02  0.13278289142E+03  0.10000000000E+01 0.  0.
    9000005    1    3    3    0    0  0.71325148914E+01 -0.14960874337E+02  0.96902375099E+02  0.98314652161E+02  0.10000000000E+01 0.  0.
          4    1    1    2  501    0 -0.74115659503E+02 -0.80242740302E+02 -0.10627083863E+03  0.15240450255E+03  0.12700000000E+01 0. -1.
<mgrwt>
<rscale>  1 0.16600357E+03</rscale>
<asrwt>0</asrwt>
<pdfrwt beam="2">  1       21 0.25307178E-01 0.16600357E+03</pdfrwt>
<pdfrwt beam="1">  1        4 0.33693231E-01 0.16600357E+03</pdfrwt>
<totfact> 0.52562242E+03</totfact>
</mgrwt>
</event>
<event>
 6    4  0.6358868E-003  0.1328187E+03  0.7818608E-02  0.1223332E+00
         21   -1    0    0  501  502  0.00000000000E+00  0.00000000000E+00  0.28675201935E+03  0.28675201935E+03  0.00000000000E+00 0. -1.
         -4   -1    0    0    0  501 -0.00000000000E+00 -0.00000000000E+00 -0.46175459616E+02  0.46192921219E+02  0.12700000000E+01 0.  1.
         25    2    1    2    0    0  0.23390452051E+02 -0.38327657416E+02  0.58011387890E+02  0.14493489445E+03  0.12499871973E+03 0.  0.
    9000005    1    3    3    0    0  0.33473151310E+02  0.40721104788E+02  0.17625107228E+02  0.55590508529E+02  0.10000000000E+01 0.  0.
    9000005    1    3    3    0    0 -0.10082699259E+02 -0.79048762204E+02  0.40386280662E+02  0.89344385923E+02  0.10000000000E+01 0.  0.
         -4    1    1    2    0  502 -0.23390452051E+02  0.38327657416E+02  0.18256517185E+03  0.18801004612E+03  0.12700000000E+01 0. -1.
<mgrwt>
<rscale>  1 0.13281868E+03</rscale>
<asrwt>0</asrwt>
<pdfrwt beam="1">  1       21 0.44115694E-01 0.13281868E+03</pdfrwt>
<pdfrwt beam="2">  1       -4 0.71054766E-02 0.13281868E+03</pdfrwt>
<totfact> 0.27067821E+04</totfact>
</mgrwt>
</event>
<event>
 6    4  0.6358868E-003  0.1283258E+03  0.7818608E-02  0.1229961E+00
         21   -1    0    0  501  502  0.00000000000E+00  0.00000000000E+00  0.10895704269E+03  0.10895704269E+03  0.00000000000E+00 0.  1.
         -4   -1    0    0    0  501 -0.00000000000E+00 -0.00000000000E+00 -0.44285064109E+03  0.44285246213E+03  0.12700000000E+01 0. -1.
         25    2    1    2    0    0  0.22610154499E+02 -0.18203796681E+02 -0.43139193048E+03  0.45007389178E+03  0.12499965230E+03 0.  0.
    9000005    1    3    3    0    0  0.23889256272E+02 -0.65892647945E+02 -0.16239442963E+03  0.17687704315E+03  0.10000000000E+01 0.  0.
    9000005    1    3    3    0    0 -0.12791017730E+01  0.47688851264E+02 -0.26899750086E+03  0.27319684864E+03  0.10000000000E+01 0.  0.
         -4    1    1    2    0  502 -0.22610154499E+02  0.18203796681E+02  0.97498332087E+02  0.10173561304E+03  0.12700000000E+01 0.  1.
<mgrwt>
<rscale>  1 0.12832580E+03</rscale>
<asrwt>0</asrwt>
<pdfrwt beam="1">  1       21 0.16762622E-01 0.12832580E+03</pdfrwt>
<pdfrwt beam="2">  1       -4 0.68131578E-01 0.12832580E+03</pdfrwt>
<totfact> 0.26693804E+03</totfact>
</mgrwt>
</event>
<event>
 6    4  0.6358868E-003  0.1298884E+03  0.7818608E-02  0.1227621E+00
         -4   -1    0    0    0  501 -0.00000000000E+00  0.00000000000E+00  0.67530956908E+03  0.67531076328E+03  0.12700000000E+01 0. -1.
         21   -1    0    0  501  502  0.00000000000E+00 -0.00000000000E+00 -0.17460510422E+02  0.17460510422E+02  0.00000000000E+00 0.  1.
         25    2    1    2    0    0 -0.12020658341E+02  0.33163288419E+02  0.64031958359E+03  0.65336067459E+03  0.12500680801E+03 0.  0.
    9000005    1    3    3    0    0 -0.52079644431E+02 -0.12825885179E+02  0.45748217417E+03  0.46061668704E+03  0.10000000000E+01 0.  0.
    9000005    1    3    3    0    0  0.40058986090E+02  0.45989173599E+02  0.18283740942E+03  0.19274398755E+03  0.10000000000E+01 0.  0.
         -4    1    1    2    0  502  0.12020658341E+02 -0.33163288419E+02  0.17529475076E+02  0.39410599110E+02  0.12700000000E+01 0.  1.
<mgrwt>
<rscale>  1 0.12988842E+03</rscale>
<asrwt>0</asrwt>
<pdfrwt beam="2">  1       21 0.26862329E-02 0.12988842E+03</pdfrwt>
<pdfrwt beam="1">  1       -4 0.10389740E+00 0.12988842E+03</pdfrwt>
<totfact> 0.23987175E+04</totfact>
</mgrwt>
</event>
<event>
 6    4  0.6358868E-003  0.1273789E+03  0.7818608E-02  0.1231398E+00
          4   -1    0    0  502    0 -0.00000000000E+00  0.00000000000E+00  0.79516729708E+01  0.80524532308E+01  0.12700000000E+01 0. -1.
         21   -1    0    0  501  502  0.00000000000E+00 -0.00000000000E+00 -0.12738690296E+04  0.12738690296E+04  0.00000000000E+00 0.  1.
         25    2    1    2    0    0 -0.16975088878E+02  0.17691476375E+02 -0.51209445972E+03  0.52769889315E+03  0.12499697668E+03 0.  0.
    9000005    1    3    3    0    0 -0.10402660199E+02  0.53979201864E+02 -0.10136731862E+03  0.11531826766E+03  0.10000000000E+01 0.  0.
    9000005    1    3    3    0    0 -0.65724286785E+01 -0.36287725488E+02 -0.41072714110E+03  0.41238062549E+03  0.10000000000E+01 0.  0.
          4    1    1    2  501    0  0.16975088878E+02 -0.17691476375E+02 -0.75382289695E+03  0.75422258973E+03  0.12700000000E+01 0.  1.
<mgrwt>
<rscale>  1 0.12737891E+03</rscale>
<asrwt>0</asrwt>
<pdfrwt beam="2">  1       21 0.19597978E+00 0.12737891E+03</pdfrwt>
<pdfrwt beam="1">  1        4 0.12311358E-02 0.12737891E+03</pdfrwt>
<totfact> 0.12775690E+04</totfact>
</mgrwt>
</event>
<event>
 6    4  0.6358868E-003  0.1280321E+03  0.7818608E-02  0.1230405E+00
         -4   -1    0    0    0  501 -0.00000000000E+00  0.00000000000E+00  0.46299435036E+02  0.46316849900E+02  0.12700000000E+01 0. -1.
         21   -1    0    0  501  502  0.00000000000E+00 -0.00000000000E+00 -0.21147796745E+03  0.21147796745E+03  0.00000000000E+00 0.  1.
         25    2    1    2    0    0  0.17864028251E+02  0.21169111728E+02 -0.46967232436E+02  0.13637497079E+03  0.12499982775E+03 0.  0.
    9000005    1    3    3    0    0 -0.26887085673E+02 -0.13418867349E+02 -0.69312834861E+02  0.75552964557E+02  0.10000000000E+01 0.  0.
    9000005    1    3    3    0    0  0.44751113925E+02  0.34587979077E+02  0.22345602425E+02  0.60822006230E+02  0.10000000000E+01 0.  0.
         -4    1    1    2    0  502 -0.17864028251E+02 -0.21169111728E+02 -0.11821129998E+03  0.12141984657E+03  0.12700000000E+01 0.  1.
<mgrwt>
<rscale>  1 0.12803207E+03</rscale>
<asrwt>0</asrwt>
<pdfrwt beam="2">  1       21 0.32535072E-01 0.12803207E+03</pdfrwt>
<pdfrwt beam="1">  1       -4 0.71246230E-02 0.12803207E+03</pdfrwt>
<totfact> 0.49138765E+04</totfact>
</mgrwt>
</event>
<event>
 6    4  0.6358868E-003  0.1324410E+03  0.7818608E-02  0.1223878E+00
         -4   -1    0    0    0  501 -0.00000000000E+00  0.00000000000E+00  0.48201080551E+03  0.48201247860E+03  0.12700000000E+01 0.  1.
         21   -1    0    0  501  502  0.00000000000E+00 -0.00000000000E+00 -0.20809003809E+02  0.20809003809E+02  0.00000000000E+00 0.  1.
         25    2    1    2    0    0  0.16350181962E+02  0.40599582674E+02  0.42756203521E+03  0.44760462490E+03  0.12499980687E+03 0.  0.
    9000005    1    3    3    0    0 -0.29549933542E+02 -0.48948104018E+01  0.32497673847E+03  0.32635569290E+03  0.10000000000E+01 0.  0.
    9000005    1    3    3    0    0  0.45900115504E+02  0.45494393076E+02  0.10258529674E+03  0.12124893200E+03  0.10000000000E+01 0.  0.
         -4    1    1    2    0  502 -0.16350181962E+02 -0.40599582674E+02  0.33639766491E+02  0.55216857508E+02  0.12700000000E+01 0. -1.
<mgrwt>
<rscale>  1 0.13244095E+03</rscale>
<asrwt>0</asrwt>
<pdfrwt beam="2">  1       21 0.32013856E-02 0.13244095E+03</pdfrwt>
<pdfrwt beam="1">  1       -4 0.74158610E-01 0.13244095E+03</pdfrwt>
<totfact> 0.38514696E+04</totfact>
</mgrwt>
</event>
<event>
 6    4  0.6358868E-003  0.1273112E+03  0.7818608E-02  0.1231501E+00
          4   -1    0    0  502    0 -0.00000000000E+00  0.00000000000E+00  0.36089725226E+03  0.36089948683E+03  0.12700000000E+01 0. -1.
         21   -1    0    0  501  502  0.00000000000E+00 -0.00000000000E+00 -0.17820258717E+02  0.17820258717E+02  0.00000000000E+00 0. -1.
         25    2    1    2    0    0 -0.24773951894E+01  0.24012217320E+02  0.32337904798E+03  0.34753728209E+03  0.12500171880E+03 0.  0.
    9000005    1    3    3    0    0  0.21318001524E+02 -0.47045204922E+02  0.11427692064E+03  0.12541101660E+03  0.10000000000E+01 0.  0.
    9000005    1    3    3    0    0 -0.23795396713E+02  0.71057422241E+02  0.20910212734E+03  0.22212626548E+03  0.10000000000E+01 0.  0.
          4    1    1    2  501    0  0.24773951894E+01 -0.24012217320E+02  0.19697945571E+02  0.31182463457E+02  0.12700000000E+01 0.  1.
<mgrwt>
<rscale>  1 0.12731125E+03</rscale>
<asrwt>0</asrwt>
<pdfrwt beam="2">  1       21 0.27415785E-02 0.12731125E+03</pdfrwt>
<pdfrwt beam="1">  1        4 0.55526301E-01 0.12731125E+03</pdfrwt>
<totfact> 0.91291928E+04</totfact>
</mgrwt>
</event>
<event>
 6    4  0.6358868E-003  0.1333248E+03  0.7818608E-02  0.1222604E+00
         -4   -1    0    0    0  501 -0.00000000000E+00  0.00000000000E+00  0.37121537416E+03  0.37121754662E+03  0.12700000000E+01 0.  1.
         21   -1    0    0  501  502  0.00000000000E+00 -0.00000000000E+00 -0.32269973970E+02  0.32269973970E+02  0.00000000000E+00 0. -1.
         25    2    1    2    0    0 -0.36086907237E+02 -0.29145888722E+02  0.33042280080E+03  0.35630706591E+03  0.12499500080E+03 0.  0.
    9000005    1    3    3    0    0 -0.27524514535E+02 -0.38470451653E+02  0.30888619172E+02  0.56503817084E+02  0.10000000000E+01 0.  0.
    9000005    1    3    3    0    0 -0.85623927025E+01  0.93245629313E+01  0.29953418163E+03  0.29980324882E+03  0.10000000000E+01 0.  0.
         -4    1    1    2    0  502  0.36086907237E+02  0.29145888722E+02  0.85225993972E+01  0.47180454680E+02  0.12700000000E+01 0. -1.
<mgrwt>
<rscale>  1 0.13332478E+03</rscale>
<asrwt>0</asrwt>
<pdfrwt beam="2">  1       21 0.49646117E-02 0.13332478E+03</pdfrwt>
<pdfrwt beam="1">  1       -4 0.57112144E-01 0.13332478E+03</pdfrwt>
<totfact> 0.32413706E+04</totfact>
</mgrwt>
</event>
<event>
 6    4  0.6358868E-003  0.1331606E+03  0.7818608E-02  0.1222840E+00
         21   -1    0    0  501  502  0.00000000000E+00  0.00000000000E+00  0.14688306808E+03  0.14688306808E+03  0.00000000000E+00 0. -1.
         -4   -1    0    0    0  501 -0.00000000000E+00 -0.00000000000E+00 -0.71003391827E+02  0.71014748827E+02  0.12700000000E+01 0.  1.
         25    2    1    2    0    0 -0.15308270397E+02 -0.43274344014E+02  0.47646880881E+01  0.13324578543E+03  0.12499890035E+03 0.  0.
    9000005    1    3    3    0    0 -0.40106174669E+02 -0.51611030525E+02 -0.43372310695E+02  0.78449735840E+02  0.10000000000E+01 0.  0.
    9000005    1    3    3    0    0  0.24797904272E+02  0.83366865111E+01  0.48136998783E+02  0.54796049585E+02  0.10000000000E+01 0.  0.
         -4    1    1    2    0  502  0.15308270397E+02  0.43274344014E+02  0.71114988168E+02  0.84652031485E+02  0.12700000000E+01 0. -1.
<mgrwt>
<rscale>  1 0.13316057E+03</rscale>
<asrwt>0</asrwt>
<pdfrwt beam="1">  1       21 0.22597395E-01 0.13316057E+03</pdfrwt>
<pdfrwt beam="2">  1       -4 0.10924895E-01 0.13316057E+03</pdfrwt>
<totfact> 0.48508806E+04</totfact>
</mgrwt>
</event>
<event>
 6    4  0.6358868E-003  0.1295408E+03  0.7818608E-02  0.1228139E+00
          4   -1    0    0  502    0 -0.00000000000E+00  0.00000000000E+00  0.53188464407E+03  0.53188616028E+03  0.12700000000E+01 0.  1.
         21   -1    0    0  501  502  0.00000000000E+00 -0.00000000000E+00 -0.15088367212E+02  0.15088367212E+02  0.00000000000E+00 0.  1.
         25    2    1    2    0    0 -0.33907130266E+02  0.20969365505E+01  0.47868909316E+03  0.49590730733E+03  0.12500687552E+03 0.  0.
    9000005    1    3    3    0    0  0.56985384303E+01 -0.57194694616E+02  0.24034024417E+03  0.24711968639E+03  0.10000000000E+01 0.  0.
    9000005    1    3    3    0    0 -0.39605668696E+02  0.59291631167E+02  0.23834884899E+03  0.24878762094E+03  0.10000000000E+01 0.  0.
          4    1    1    2  501    0  0.33907130266E+02 -0.20969365505E+01  0.38107183701E+02  0.51067220165E+02  0.12700000000E+01 0. -1.
<mgrwt>
<rscale>  1 0.12954076E+03</rscale>
<asrwt>0</asrwt>
<pdfrwt beam="2">  1       21 0.23212877E-02 0.12954076E+03</pdfrwt>
<pdfrwt beam="1">  1        4 0.81832620E-01 0.12954076E+03</pdfrwt>
<totfact> 0.52295616E+04</totfact>
</mgrwt>
</event>
<event>
 6    4  0.6358868E-003  0.1278404E+03  0.7818608E-02  0.1230696E+00
          4   -1    0    0  502    0 -0.00000000000E+00  0.00000000000E+00  0.16862072180E+03  0.16862550436E+03  0.12700000000E+01 0.  1.
         21   -1    0    0  501  502  0.00000000000E+00 -0.00000000000E+00 -0.50070077686E+02  0.50070077686E+02  0.00000000000E+00 0. -1.
         25    2    1    2    0    0  0.26797232408E+02  0.72502004070E+00  0.13602508948E+03  0.18667080320E+03  0.12499818590E+03 0.  0.
    9000005    1    3    3    0    0  0.18538916465E+02  0.69015942546E+01 -0.21252942073E+02  0.29051866958E+02  0.10000000000E+01 0.  0.
    9000005    1    3    3    0    0  0.82583159429E+01 -0.61765742139E+01  0.15727803156E+03  0.15761893624E+03  0.10000000000E+01 0.  0.
          4    1    1    2  501    0 -0.26797232408E+02 -0.72502004070E+00 -0.17474445374E+02  0.32024778843E+02  0.12700000000E+01 0. -1.
<mgrwt>
<rscale>  1 0.12784038E+03</rscale>
<asrwt>0</asrwt>
<pdfrwt beam="2">  1       21 0.77030890E-02 0.12784038E+03</pdfrwt>
<pdfrwt beam="1">  1        4 0.25943256E-01 0.12784038E+03</pdfrwt>
<totfact> 0.71698143E+04</totfact>
</mgrwt>
</event>
<event>
 6    4  0.6358868E-003  0.1273990E+03  0.7818608E-02  0.1231367E+00
         21   -1    0    0  501  502  0.00000000000E+00  0.00000000000E+00  0.31732751741E+03  0.31732751741E+03  0.00000000000E+00 0. -1.
         -4   -1    0    0    0  501 -0.00000000000E+00 -0.00000000000E+00 -0.22839467073E+02  0.22874749314E+02  0.12700000000E+01 0. -1.
         25    2    1    2    0    0  0.80149171322E+01  0.23250655214E+02  0.16534930182E+03  0.20873644937E+03  0.12500272724E+03 0.  0.
    9000005    1    3    3    0    0  0.38071289455E+02 -0.33394541210E+02  0.11981742884E+03  0.13008395257E+03  0.10000000000E+01 0.  0.
    9000005    1    3    3    0    0 -0.30056372322E+02  0.56645196424E+02  0.45531872984E+02  0.78652496798E+02  0.10000000000E+01 0.  0.
         -4    1    1    2    0  502 -0.80149171322E+01 -0.23250655214E+02  0.12913874852E+03  0.13146581736E+03  0.12700000000E+01 0.  1.
<mgrwt>
<rscale>  1 0.12739903E+03</rscale>
<asrwt>0</asrwt>
<pdfrwt beam="1">  1       21 0.48819615E-01 0.12739903E+03</pdfrwt>
<pdfrwt beam="2">  1       -4 0.35166739E-02 0.12739903E+03</pdfrwt>
<totfact> 0.67859149E+04</totfact>
</mgrwt>
</event>
<event>
 6    4  0.6358868E-003  0.1273177E+03  0.7818608E-02  0.1231491E+00
         21   -1    0    0  501  502  0.00000000000E+00  0.00000000000E+00  0.41111357676E+03  0.41111357676E+03  0.00000000000E+00 0. -1.
          4   -1    0    0  502    0 -0.00000000000E+00 -0.00000000000E+00 -0.18307623963E+02  0.18351621050E+02  0.12700000000E+01 0. -1.
         25    2    1    2    0    0  0.24030589307E+02 -0.27897139985E+01  0.21387831123E+03  0.24890505397E+03  0.12499816859E+03 0.  0.
    9000005    1    3    3    0    0 -0.14502462990E+01 -0.87438181710E+01  0.22146289273E+03  0.22164243824E+03  0.10000000000E+01 0.  0.
    9000005    1    3    3    0    0  0.25480835606E+02  0.59541041725E+01 -0.75845815068E+01  0.27262615728E+02  0.10000000000E+01 0.  0.
          4    1    1    2  501    0 -0.24030589307E+02  0.27897139985E+01  0.17892764157E+03  0.18056014384E+03  0.12700000000E+01 0.  1.
<mgrwt>
<rscale>  1 0.12731769E+03</rscale>
<asrwt>0</asrwt>
<pdfrwt beam="1">  1       21 0.63248236E-01 0.12731769E+03</pdfrwt>
<pdfrwt beam="2">  1        4 0.28200931E-02 0.12731769E+03</pdfrwt>
<totfact> 0.55730314E+04</totfact>
</mgrwt>
</event>
<event>
 6    4  0.6358868E-003  0.2963711E+03  0.7818608E-02  0.1087069E+00
         21   -1    0    0  501  502  0.00000000000E+00  0.00000000000E+00  0.11022670630E+04  0.11022670630E+04  0.00000000000E+00 0. -1.
          4   -1    0    0  502    0 -0.00000000000E+00 -0.00000000000E+00 -0.72798527333E+02  0.72809604324E+02  0.12700000000E+01 0.  1.
         25    2    1    2    0    0 -0.18632977919E+03  0.19362491328E+03  0.49745405554E+03  0.57904779754E+03  0.12500568312E+03 0.  0.
    9000005    1    3    3    0    0 -0.14606389026E+03  0.13325372828E+03  0.23686011879E+03  0.30853675957E+03  0.10000000000E+01 0.  0.
    9000005    1    3    3    0    0 -0.40265888927E+02  0.60371184998E+02  0.26059393676E+03  0.27051103797E+03  0.10000000000E+01 0.  0.
          4    1    1    2  501    0  0.18632977919E+03 -0.19362491328E+03  0.53201448016E+03  0.59602886982E+03  0.12700000000E+01 0. -1.
<mgrwt>
<rscale>  1 0.29637108E+03</rscale>
<asrwt>0</asrwt>
<pdfrwt beam="1">  1       21 0.16957954E+00 0.29637108E+03</pdfrwt>
<pdfrwt beam="2">  1        4 0.11200683E-01 0.29637108E+03</pdfrwt>
<totfact> 0.55353236E+02</totfact>
</mgrwt>
</event>
<event>
 6    4  0.6358868E-003  0.1277112E+03  0.7818608E-02  0.1230892E+00
         21   -1    0    0  501  502  0.00000000000E+00  0.00000000000E+00  0.12759804341E+04  0.12759804341E+04  0.00000000000E+00 0.  1.
          4   -1    0    0  502    0 -0.00000000000E+00 -0.00000000000E+00 -0.90885151314E+01  0.91768190182E+01  0.12700000000E+01 0.  1.
         25    2    1    2    0    0  0.25543631422E+02  0.57345564622E+01  0.44804735431E+03  0.46589331750E+03  0.12499915735E+03 0.  0.
    9000005    1    3    3    0    0 -0.18453750954E+02  0.38801799055E+02  0.59127317495E+02  0.73096923385E+02  0.10000000000E+01 0.  0.
    9000005    1    3    3    0    0  0.43997382376E+02 -0.33067242593E+02  0.38892003682E+03  0.39279639411E+03  0.10000000000E+01 0.  0.
          4    1    1    2  501    0 -0.25543631422E+02 -0.57345564622E+01  0.81884456466E+03  0.81926393563E+03  0.12700000000E+01 0. -1.
<mgrwt>
<rscale>  1 0.12771120E+03</rscale>
<asrwt>0</asrwt>
<pdfrwt beam="1">  1       21 0.19630454E+00 0.12771120E+03</pdfrwt>
<pdfrwt beam="2">  1        4 0.14050753E-02 0.12771120E+03</pdfrwt>
<totfact> 0.10407142E+04</totfact>
</mgrwt>
</event>
<event>
 6    4  0.6358868E-003  0.1289848E+03  0.7818608E-02  0.1228970E+00
          4   -1    0    0  502    0 -0.00000000000E+00  0.00000000000E+00  0.24588347178E+03  0.24588675157E+03  0.12700000000E+01 0.  1.
         21   -1    0    0  501  502  0.00000000000E+00 -0.00000000000E+00 -0.29224204438E+02  0.29224204438E+02  0.00000000000E+00 0.  1.
         25    2    1    2    0    0 -0.31824229288E+02 -0.14607366992E+00  0.20287395417E+03  0.24040575947E+03  0.12499713996E+03 0.  0.
    9000005    1    3    3    0    0  0.36575256529E+02 -0.31497589915E+02  0.47295438040E+02  0.67584806133E+02  0.10000000000E+01 0.  0.
    9000005    1    3    3    0    0 -0.68399485817E+02  0.31351516245E+02  0.15557851613E+03  0.17282095333E+03  0.10000000000E+01 0.  0.
          4    1    1    2  501    0  0.31824229288E+02  0.14607366992E+00  0.13785313176E+02  0.34705196537E+02  0.12700000000E+01 0. -1.
<mgrwt>
<rscale>  1 0.12898484E+03</rscale>
<asrwt>0</asrwt>
<pdfrwt beam="2">  1       21 0.44960316E-02 0.12898484E+03</pdfrwt>
<pdfrwt beam="1">  1        4 0.37830600E-01 0.12898484E+03</pdfrwt>
<totfact> 0.87315272E+04</totfact>
</mgrwt>
</event>
<event>
 6    4  0.6358868E-003  0.1320660E+03  0.7818608E-02  0.1224422E+00
         21   -1    0    0  501  502  0.00000000000E+00  0.00000000000E+00  0.12716950112E+03  0.12716950112E+03  0.00000000000E+00 0. -1.
         -4   -1    0    0    0  501 -0.00000000000E+00 -0.00000000000E+00 -0.96603589929E+02  0.96611937602E+02  0.12700000000E+01 0.  1.
         25    2    1    2    0    0 -0.40646256050E+02 -0.12826277587E+02 -0.42881577677E+02  0.13885336298E+03  0.12499918072E+03 0.  0.
    9000005    1    3    3    0    0  0.42882494924E+02  0.65365831465E+01 -0.28484231435E+02  0.51903629263E+02  0.10000000000E+01 0.  0.
    9000005    1    3    3    0    0 -0.83528750974E+02 -0.19362860734E+02 -0.14397346242E+02  0.86949733720E+02  0.10000000000E+01 0.  0.
         -4    1    1    2    0  502  0.40646256050E+02  0.12826277587E+02  0.73447488868E+02  0.84928075738E+02  0.12700000000E+01 0. -1.
<mgrwt>
<rscale>  1 0.13206599E+03</rscale>
<asrwt>0</asrwt>
<pdfrwt beam="1">  1       21 0.19564539E-01 0.13206599E+03</pdfrwt>
<pdfrwt beam="2">  1       -4 0.14863221E-01 0.13206599E+03</pdfrwt>
<totfact> 0.37319060E+04</totfact>
</mgrwt>
</event>
<event>
 6    4  0.6358868E-003  0.1633585E+03  0.7818608E-02  0.1184956E+00
         21   -1    0    0  501  502  0.00000000000E+00  0.00000000000E+00  0.38613488935E+02  0.38613488935E+02  0.00000000000E+00 0. -1.
         -4   -1    0    0    0  501 -0.00000000000E+00 -0.00000000000E+00 -0.74915307782E+03  0.74915415430E+03  0.12700000000E+01 0.  1.
         25    2    1    2    0    0  0.14844671294E+02 -0.10411817672E+03 -0.64145514222E+03  0.66192952238E+03  0.12500013652E+03 0.  0.
    9000005    1    3    3    0    0  0.59543004439E+02 -0.95604247186E+02 -0.37270284553E+03  0.38935068065E+03  0.10000000000E+01 0.  0.
    9000005    1    3    3    0    0 -0.44698333145E+02 -0.85139295322E+01 -0.26875229669E+03  0.27257884173E+03  0.10000000000E+01 0.  0.
         -4    1    1    2    0  502 -0.14844671294E+02  0.10411817672E+03 -0.69084446659E+02  0.12583812085E+03  0.12700000000E+01 0. -1.
<mgrwt>
<rscale>  1 0.16335848E+03</rscale>
<asrwt>0</asrwt>
<pdfrwt beam="1">  1       21 0.59405362E-02 0.16335848E+03</pdfrwt>
<pdfrwt beam="2">  1       -4 0.11525602E+00 0.16335848E+03</pdfrwt>
<totfact> 0.51056931E+03</totfact>
</mgrwt>
</event>
<event>
 6    4  0.6358868E-003  0.1345901E+03  0.7818608E-02  0.1220799E+00
         -4   -1    0    0    0  501 -0.00000000000E+00  0.00000000000E+00  0.77417714356E+03  0.77417818525E+03  0.12700000000E+01 0. -1.
         21   -1    0    0  501  502  0.00000000000E+00 -0.00000000000E+00 -0.12255090598E+02  0.12255090598E+02  0.00000000000E+00 0. -1.
         25    2    1    2    0    0  0.44196598216E+02  0.23157784038E+02  0.65146647123E+03  0.66522407367E+03  0.12499953120E+03 0.  0.
    9000005    1    3    3    0    0  0.69141927814E+02  0.10819725291E+02  0.18295467039E+03  0.19588538500E+03  0.10000000000E+01 0.  0.
    9000005    1    3    3    0    0 -0.24945329597E+02  0.12338058747E+02  0.46851180083E+03  0.46933868867E+03  0.10000000000E+01 0.  0.
         -4    1    1    2    0  502 -0.44196598216E+02 -0.23157784038E+02  0.11045558174E+03  0.12120920218E+03  0.12700000000E+01 0.  1.
<mgrwt>
<rscale>  1 0.13459014E+03</rscale>
<asrwt>0</asrwt>
<pdfrwt beam="2">  1       21 0.18853992E-02 0.13459014E+03</pdfrwt>
<pdfrwt beam="1">  1       -4 0.11910928E+00 0.13459014E+03</pdfrwt>
<totfact> 0.30981060E+04</totfact>
</mgrwt>
</event>
<event>
 6    4  0.6358868E-003  0.1275216E+03  0.7818608E-02  0.1231180E+00
          4   -1    0    0  502    0 -0.00000000000E+00  0.00000000000E+00  0.28718348559E+02  0.28746416193E+02  0.12700000000E+01 0.  1.
         21   -1    0    0  501  502  0.00000000000E+00 -0.00000000000E+00 -0.41918192074E+03  0.41918192074E+03  0.00000000000E+00 0.  1.
         25    2    1    2    0    0 -0.13121943687E+02 -0.21556759510E+02 -0.11626165240E+03  0.17256460475E+03  0.12499956683E+03 0.  0.
    9000005    1    3    3    0    0  0.70162325680E+01 -0.26654037145E+02  0.20415564165E+02  0.34314143961E+02  0.10000000000E+01 0.  0.
    9000005    1    3    3    0    0 -0.20138176255E+02  0.50972776343E+01 -0.13667721656E+03  0.13825046079E+03  0.10000000000E+01 0.  0.
          4    1    1    2  501    0  0.13121943687E+02  0.21556759510E+02 -0.27420191979E+03  0.27536373218E+03  0.12700000000E+01 0. -1.
<mgrwt>
<rscale>  1 0.12752165E+03</rscale>
<asrwt>0</asrwt>
<pdfrwt beam="2">  1       21 0.64489519E-01 0.12752165E+03</pdfrwt>
<pdfrwt beam="1">  1        4 0.44205150E-02 0.12752165E+03</pdfrwt>
<totfact> 0.26318926E+04</totfact>
</mgrwt>
</event>
<event>
 6    4  0.6358868E-003  0.1270576E+03  0.7818608E-02  0.1231888E+00
         21   -1    0    0  501  502  0.00000000000E+00  0.00000000000E+00  0.11004183167E+02  0.11004183167E+02  0.00000000000E+00 0. -1.
         -4   -1    0    0    0  501 -0.00000000000E+00 -0.00000000000E+00 -0.11354986757E+04  0.11354993859E+04  0.12700000000E+01 0.  1.
         25    2    1    2    0    0 -0.22780070174E+02  0.11008708844E+01 -0.11142477661E+04  0.11214685573E+04  0.12499398872E+03 0.  0.
    9000005    1    3    3    0    0 -0.30640768776E+02  0.56727194483E+02 -0.76685256580E+03  0.76955876252E+03  0.10000000000E+01 0.  0.
    9000005    1    3    3    0    0  0.78606986020E+01 -0.55626323598E+02 -0.34739520028E+03  0.35190979475E+03  0.10000000000E+01 0.  0.
         -4    1    1    2    0  502  0.22780070174E+02 -0.11008708844E+01 -0.10246726463E+02  0.25035011824E+02  0.12700000000E+01 0. -1.
<mgrwt>
<rscale>  1 0.12705763E+03</rscale>
<asrwt>0</asrwt>
<pdfrwt beam="1">  1       21 0.16929520E-02 0.12705763E+03</pdfrwt>
<pdfrwt beam="2">  1       -4 0.17469772E+00 0.12705763E+03</pdfrwt>
<totfact> 0.13919218E+04</totfact>
</mgrwt>
</event>
<event>
 6    4  0.6358868E-003  0.1277835E+03  0.7818608E-02  0.1230782E+00
         21   -1    0    0  501  502  0.00000000000E+00  0.00000000000E+00  0.23826431861E+03  0.23826431861E+03  0.00000000000E+00 0. -1.
          4   -1    0    0  502    0 -0.00000000000E+00 -0.00000000000E+00 -0.29742813642E+02  0.29769915407E+02  0.12700000000E+01 0. -1.
         25    2    1    2    0    0  0.10506118543E+02  0.24365403768E+02  0.11884953529E+03  0.17451029872E+03  0.12499832356E+03 0.  0.
    9000005    1    3    3    0    0  0.61026808565E+02 -0.14206256304E+02  0.45472694401E+02  0.77426449085E+02  0.10000000000E+01 0.  0.
    9000005    1    3    3    0    0 -0.50520690023E+02  0.38571660072E+02  0.73376840888E+02  0.97083849634E+02  0.10000000000E+01 0.  0.
          4    1    1    2  501    0 -0.10506118543E+02 -0.24365403768E+02  0.89671969681E+02  0.93523935301E+02  0.12700000000E+01 0.  1.
<mgrwt>
<rscale>  1 0.12778354E+03</rscale>
<asrwt>0</asrwt>
<pdfrwt beam="1">  1       21 0.36656048E-01 0.12778354E+03</pdfrwt>
<pdfrwt beam="2">  1        4 0.45781627E-02 0.12778354E+03</pdfrwt>
<totfact> 0.79556779E+04</totfact>
</mgrwt>
</event>
<event>
 6    4  0.6358868E-003  0.1269309E+03  0.7818608E-02  0.1232082E+00
         21   -1    0    0  501  502  0.00000000000E+00  0.00000000000E+00  0.90002100506E+02  0.90002100506E+02  0.00000000000E+00 0.  1.
         -4   -1    0    0    0  501 -0.00000000000E+00 -0.00000000000E+00 -0.84114582658E+02  0.84124169629E+02  0.12700000000E+01 0.  1.
         25    2    1    2    0    0  0.18156351933E+02  0.12520484200E+02 -0.31426222288E+02  0.13076333962E+03  0.12500011160E+03 0.  0.
    9000005    1    3    3    0    0  0.75351201241E+00  0.58990318487E+02  0.17017323672E+02  0.61408588654E+02  0.10000000000E+01 0.  0.
    9000005    1    3    3    0    0  0.17402839921E+02 -0.46469834287E+02 -0.48443545960E+02  0.69354750963E+02  0.10000000000E+01 0.  0.
         -4    1    1    2    0  502 -0.18156351933E+02 -0.12520484200E+02  0.37313740136E+02  0.43362930518E+02  0.12700000000E+01 0. -1.
<mgrwt>
<rscale>  1 0.12693086E+03</rscale>
<asrwt>0</asrwt>
<pdfrwt beam="1">  1       21 0.13846477E-01 0.12693086E+03</pdfrwt>
<pdfrwt beam="2">  1       -4 0.12942132E-01 0.12693086E+03</pdfrwt>
<totfact> 0.88438359E+04</totfact>
</mgrwt>
</event>
<event>
 6    4  0.6358868E-003  0.1284141E+03  0.7818608E-02  0.1229828E+00
         -4   -1    0    0    0  501 -0.00000000000E+00  0.00000000000E+00  0.43768913446E+02  0.43787334747E+02  0.12700000000E+01 0. -1.
         21   -1    0    0  501  502  0.00000000000E+00 -0.00000000000E+00 -0.14339417122E+03  0.14339417122E+03  0.00000000000E+00 0. -1.
         25    2    1    2    0    0 -0.11725018147E+02 -0.26981826840E+02 -0.87189301827E+02  0.15521651058E+03  0.12499878308E+03 0.  0.
    9000005    1    3    3    0    0 -0.54642074239E+02 -0.41634025122E+02 -0.85690069258E+02  0.10983139940E+03  0.10000000000E+01 0.  0.
    9000005    1    3    3    0    0  0.42917056092E+02  0.14652198283E+02 -0.14992325689E+01  0.45385111175E+02  0.10000000000E+01 0.  0.
         -4    1    1    2    0  502  0.11725018147E+02  0.26981826840E+02 -0.12435955951E+02  0.31964995395E+02  0.12700000000E+01 0.  1.
<mgrwt>
<rscale>  1 0.12841414E+03</rscale>
<asrwt>0</asrwt>
<pdfrwt beam="2">  1       21 0.22060642E-01 0.12841414E+03</pdfrwt>
<pdfrwt beam="1">  1       -4 0.67355286E-02 0.12841414E+03</pdfrwt>
<totfact> 0.11296349E+05</totfact>
</mgrwt>
</event>
<event>
 6    4  0.6358868E-003  0.1313607E+03  0.7818608E-02  0.1225451E+00
          4   -1    0    0  502    0 -0.00000000000E+00  0.00000000000E+00  0.22404232839E+03  0.22404592791E+03  0.12700000000E+01 0. -1.
         21   -1    0    0  501  502  0.00000000000E+00 -0.00000000000E+00 -0.32999384583E+02  0.32999384583E+02  0.00000000000E+00 0. -1.
         25    2    1    2    0    0  0.23641226374E+02  0.32728471296E+02  0.15148431670E+03  0.20050719882E+03  0.12500231261E+03 0.  0.
    9000005    1    3    3    0    0 -0.12091463928E+02 -0.44539716802E+02  0.56215204099E+02  0.72740216143E+02  0.10000000000E+01 0.  0.
    9000005    1    3    3    0    0  0.35732690302E+02  0.77268188097E+02  0.95269112599E+02  0.12776698268E+03  0.10000000000E+01 0.  0.
          4    1    1    2  501    0 -0.23641226374E+02 -0.32728471296E+02  0.39558627111E+02  0.56538113664E+02  0.12700000000E+01 0.  1.
<mgrwt>
<rscale>  1 0.13136072E+03</rscale>
<asrwt>0</asrwt>
<pdfrwt beam="2">  1       21 0.50768285E-02 0.13136072E+03</pdfrwt>
<pdfrwt beam="1">  1        4 0.34470206E-01 0.13136072E+03</pdfrwt>
<totfact> 0.85515972E+04</totfact>
</mgrwt>
</event>
<event>
 6    4  0.6358868E-003  0.1269608E+03  0.7818608E-02  0.1232036E+00
          4   -1    0    0  502    0 -0.00000000000E+00  0.00000000000E+00  0.13836680172E+03  0.13837262994E+03  0.12700000000E+01 0. -1.
         21   -1    0    0  501  502  0.00000000000E+00 -0.00000000000E+00 -0.26257150089E+03  0.26257150089E+03  0.00000000000E+00 0.  1.
         25    2    1    2    0    0 -0.46744638674E+01 -0.21827231350E+02  0.10859783081E+03  0.16707042665E+03  0.12498303871E+03 0.  0.
    9000005    1    3    3    0    0 -0.33257086031E+02  0.39758278713E+02  0.75357038317E+02  0.91468233400E+02  0.10000000000E+01 0.  0.
    9000005    1    3    3    0    0  0.28582622163E+02 -0.61585510063E+02  0.33240792490E+02  0.75602193254E+02  0.10000000000E+01 0.  0.
          4    1    1    2  501    0  0.46744638674E+01  0.21827231350E+02 -0.23280252999E+03  0.23387370418E+03  0.12700000000E+01 0.  1.
<mgrwt>
<rscale>  1 0.12696078E+03</rscale>
<asrwt>0</asrwt>
<pdfrwt beam="2">  1       21 0.40395616E-01 0.12696078E+03</pdfrwt>
<pdfrwt beam="1">  1        4 0.21287885E-01 0.12696078E+03</pdfrwt>
<totfact> 0.48944923E+03</totfact>
</mgrwt>
</event>
<event>
 6    4  0.6358868E-003  0.1273219E+03  0.7818608E-02  0.1231485E+00
          4   -1    0    0  502    0 -0.00000000000E+00  0.00000000000E+00  0.24715258602E+03  0.24715584896E+03  0.12700000000E+01 0.  1.
         21   -1    0    0  501  502  0.00000000000E+00 -0.00000000000E+00 -0.16950061315E+03  0.16950061315E+03  0.00000000000E+00 0. -1.
         25    2    1    2    0    0  0.43775568583E+01  0.23793024287E+02  0.22973413540E+03  0.26265689047E+03  0.12500239252E+03 0.  0.
    9000005    1    3    3    0    0  0.92008201500E+01 -0.45986871032E+02  0.14705144037E+03  0.15435210887E+03  0.10000000000E+01 0.  0.
    9000005    1    3    3    0    0 -0.48232632918E+01  0.69779895319E+02  0.82682695025E+02  0.10830478159E+03  0.10000000000E+01 0.  0.
          4    1    1    2  501    0 -0.43775568583E+01 -0.23793024287E+02 -0.15208216253E+03  0.15399957165E+03  0.12700000000E+01 0. -1.
<mgrwt>
<rscale>  1 0.12732191E+03</rscale>
<asrwt>0</asrwt>
<pdfrwt beam="2">  1       21 0.26077017E-01 0.12732191E+03</pdfrwt>
<pdfrwt beam="1">  1        4 0.38024092E-01 0.12732191E+03</pdfrwt>
<totfact> 0.38658637E+03</totfact>
</mgrwt>
</event>
<event>
 6    4  0.6358868E-003  0.1396222E+03  0.7818608E-02  0.1213838E+00
          4   -1    0    0  502    0 -0.00000000000E+00  0.00000000000E+00  0.61176978522E+03  0.61177110344E+03  0.12700000000E+01 0.  1.
         21   -1    0    0  501  502  0.00000000000E+00 -0.00000000000E+00 -0.21266900420E+02  0.21266900420E+02  0.00000000000E+00 0. -1.
         25    2    1    2    0    0  0.43963386864E+02 -0.44006009120E+02  0.52265179070E+03  0.54097991299E+03  0.12500025488E+03 0.  0.
    9000005    1    3    3    0    0  0.73291728716E+02  0.91215143276E+01  0.35695467796E+03  0.36451683314E+03  0.10000000000E+01 0.  0.
    9000005    1    3    3    0    0 -0.29328341853E+02 -0.53127523448E+02  0.16569711274E+03  0.17646307986E+03  0.10000000000E+01 0.  0.
          4    1    1    2  501    0 -0.43963386864E+02  0.44006009120E+02  0.67851094099E+02  0.92058090865E+02  0.12700000000E+01 0. -1.
<mgrwt>
<rscale>  1 0.13962225E+03</rscale>
<asrwt>0</asrwt>
<pdfrwt beam="2">  1       21 0.32718313E-02 0.13962225E+03</pdfrwt>
<pdfrwt beam="1">  1        4 0.94121433E-01 0.13962225E+03</pdfrwt>
<totfact> 0.21972652E+04</totfact>
</mgrwt>
</event>
<event>
 6    4  0.6358868E-003  0.1268082E+03  0.7818608E-02  0.1232270E+00
         -4   -1    0    0    0  501 -0.00000000000E+00  0.00000000000E+00  0.15921846758E+03  0.15922353256E+03  0.12700000000E+01 0.  1.
         21   -1    0    0  501  502  0.00000000000E+00 -0.00000000000E+00 -0.17712708375E+03  0.17712708375E+03  0.00000000000E+00 0. -1.
         25    2    1    2    0    0 -0.21276649556E+02  0.20474540874E+01  0.13309691533E+03  0.18383448166E+03  0.12499375941E+03 0.  0.
    9000005    1    3    3    0    0 -0.43367363972E+02 -0.49049738957E+02  0.44410146099E+02  0.79119316390E+02  0.10000000000E+01 0.  0.
    9000005    1    3    3    0    0  0.22090714416E+02  0.51097193044E+02  0.88686769233E+02  0.10471516527E+03  0.10000000000E+01 0.  0.
         -4    1    1    2    0  502  0.21276649556E+02 -0.20474540874E+01 -0.15100553149E+03  0.15251613464E+03  0.12700000000E+01 0. -1.
<mgrwt>
<rscale>  1 0.12680823E+03</rscale>
<asrwt>0</asrwt>
<pdfrwt beam="2">  1       21 0.27250320E-01 0.12680823E+03</pdfrwt>
<pdfrwt beam="1">  1       -4 0.24495889E-01 0.12680823E+03</pdfrwt>
<totfact> 0.81691796E+03</totfact>
</mgrwt>
</event>
<event>
 6    4  0.6358868E-003  0.1664219E+03  0.7818608E-02  0.1181631E+00
         21   -1    0    0  501  502  0.00000000000E+00  0.00000000000E+00  0.30743884417E+02  0.30743884417E+02  0.00000000000E+00 0. -1.
         -4   -1    0    0    0  501 -0.00000000000E+00 -0.00000000000E+00 -0.68849395600E+03  0.68849512732E+03  0.12700000000E+01 0.  1.
         25    2    1    2    0    0 -0.84931370191E+02  0.69697860895E+02 -0.27891843726E+03  0.32479490984E+03  0.12500043745E+03 0.  0.
    9000005    1    3    3    0    0  0.15619390836E+02  0.63792033398E+02 -0.11173055325E+03  0.12960750528E+03  0.10000000000E+01 0.  0.
    9000005    1    3    3    0    0 -0.10055076103E+03  0.59058274970E+01 -0.16718788401E+03  0.19518740456E+03  0.10000000000E+01 0.  0.
         -4    1    1    2    0  502  0.84931370191E+02 -0.69697860895E+02 -0.37883163432E+03  0.39444410189E+03  0.12700000000E+01 0. -1.
<mgrwt>
<rscale>  1 0.16642187E+03</rscale>
<asrwt>0</asrwt>
<pdfrwt beam="1">  1       21 0.47298285E-02 0.16642187E+03</pdfrwt>
<pdfrwt beam="2">  1       -4 0.10592425E+00 0.16642187E+03</pdfrwt>
<totfact> 0.91868229E+03</totfact>
</mgrwt>
</event>
<event>
 6    4  0.6358868E-003  0.1326422E+03  0.7818608E-02  0.1223587E+00
         21   -1    0    0  501  502  0.00000000000E+00  0.00000000000E+00  0.72462102667E+02  0.72462102667E+02  0.00000000000E+00 0.  1.
          4   -1    0    0  502    0 -0.00000000000E+00 -0.00000000000E+00 -0.17187310742E+03  0.17187779948E+03  0.12700000000E+01 0. -1.
         25    2    1    2    0    0  0.13578817793E+02  0.42243927427E+02 -0.13363512938E+03  0.18828780759E+03  0.12500006794E+03 0.  0.
    9000005    1    3    3    0    0  0.76596802793E+01  0.86326634747E+02 -0.74528116258E+02  0.11430834913E+03  0.10000000000E+01 0.  0.
    9000005    1    3    3    0    0  0.59191375137E+01 -0.44082707320E+02 -0.59107013120E+02  0.73979458457E+02  0.10000000000E+01 0.  0.
          4    1    1    2  501    0 -0.13578817793E+02 -0.42243927427E+02  0.34224124630E+02  0.56052094553E+02  0.12700000000E+01 0.  1.
<mgrwt>
<rscale>  1 0.13264219E+03</rscale>
<asrwt>0</asrwt>
<pdfrwt beam="1">  1       21 0.11148016E-01 0.13264219E+03</pdfrwt>
<pdfrwt beam="2">  1        4 0.26443233E-01 0.13264219E+03</pdfrwt>
<totfact> 0.36533506E+04</totfact>
</mgrwt>
</event>
<event>
 6    4  0.6358868E-003  0.1283725E+03  0.7818608E-02  0.1229891E+00
          4   -1    0    0  502    0 -0.00000000000E+00  0.00000000000E+00  0.11065808938E+03  0.11066537690E+03  0.12700000000E+01 0. -1.
         21   -1    0    0  501  502  0.00000000000E+00 -0.00000000000E+00 -0.65362242163E+02  0.65362242163E+02  0.00000000000E+00 0. -1.
         25    2    1    2    0    0  0.41087542858E+01 -0.28928736695E+02  0.61769632074E+02  0.14246048996E+03  0.12500300031E+03 0.  0.
    9000005    1    3    3    0    0  0.24770814635E+02 -0.71449952581E+02  0.57455481374E+02  0.94978004408E+02  0.10000000000E+01 0.  0.
    9000005    1    3    3    0    0 -0.20662060349E+02  0.42521215886E+02  0.43141506999E+01  0.47482485556E+02  0.10000000000E+01 0.  0.
          4    1    1    2  501    0 -0.41087542858E+01  0.28928736695E+02 -0.16473784859E+02  0.33567129101E+02  0.12700000000E+01 0.  1.
<mgrwt>
<rscale>  1 0.12837252E+03</rscale>
<asrwt>0</asrwt>
<pdfrwt beam="2">  1       21 0.10055730E-01 0.12837252E+03</pdfrwt>
<pdfrwt beam="1">  1        4 0.17025831E-01 0.12837252E+03</pdfrwt>
<totfact> 0.96744539E+04</totfact>
</mgrwt>
</event>
<event>
 6    4  0.6358868E-003  0.1275154E+03  0.7818608E-02  0.1231190E+00
          4   -1    0    0  502    0 -0.00000000000E+00  0.00000000000E+00  0.45535145780E+03  0.45535322885E+03  0.12700000000E+01 0.  1.
         21   -1    0    0  501  502  0.00000000000E+00 -0.00000000000E+00 -0.13518286079E+02  0.13518286079E+02  0.00000000000E+00 0. -1.
         25    2    1    2    0    0  0.24308272991E+02  0.66934408978E+01  0.40174829943E+03  0.42149953825E+03  0.12499788146E+03 0.  0.
    9000005    1    3    3    0    0  0.46758442224E+02 -0.47713359151E+02  0.17763258398E+03  0.18978211574E+03  0.10000000000E+01 0.  0.
    9000005    1    3    3    0    0 -0.22450169233E+02  0.54406800049E+02  0.22411571544E+03  0.23171742252E+03  0.10000000000E+01 0.  0.
          4    1    1    2  501    0 -0.24308272991E+02 -0.66934408978E+01  0.40084872299E+02  0.47371976675E+02  0.12700000000E+01 0. -1.
<mgrwt>
<rscale>  1 0.12751535E+03</rscale>
<asrwt>0</asrwt>
<pdfrwt beam="2">  1       21 0.20797367E-02 0.12751535E+03</pdfrwt>
<pdfrwt beam="1">  1        4 0.70058783E-01 0.12751535E+03</pdfrwt>
<totfact> 0.87548905E+04</totfact>
</mgrwt>
</event>
<event>
 6    4  0.6358868E-003  0.1266240E+03  0.7818608E-02  0.1232553E+00
         21   -1    0    0  501  502  0.00000000000E+00  0.00000000000E+00  0.26955948328E+02  0.26955948328E+02  0.00000000000E+00 0.  1.
          4   -1    0    0  502    0 -0.00000000000E+00 -0.00000000000E+00 -0.24049255774E+03  0.24049591105E+03  0.12700000000E+01 0.  1.
         25    2    1    2    0    0 -0.44378660723E+01  0.19709089410E+02 -0.21227187133E+03  0.24716996294E+03  0.12500200142E+03 0.  0.
    9000005    1    3    3    0    0  0.63642698641E+01 -0.39616484503E+02 -0.18435809936E+02  0.44168414770E+02  0.10000000000E+01 0.  0.
    9000005    1    3    3    0    0 -0.10802135936E+02  0.59325573913E+02 -0.19383606140E+03  0.20300154817E+03  0.10000000000E+01 0.  0.
          4    1    1    2  501    0  0.44378660723E+01 -0.19709089410E+02 -0.12647380823E+01  0.20281896436E+02  0.12700000000E+01 0. -1.
<mgrwt>
<rscale>  1 0.12662402E+03</rscale>
<asrwt>0</asrwt>
<pdfrwt beam="1">  1       21 0.41470690E-02 0.12662402E+03</pdfrwt>
<pdfrwt beam="2">  1        4 0.37001414E-01 0.12662402E+03</pdfrwt>
<totfact> 0.10402297E+05</totfact>
</mgrwt>
</event>
<event>
 6    4  0.6358868E-003  0.1267145E+03  0.7818608E-02  0.1232414E+00
          4   -1    0    0  502    0 -0.00000000000E+00  0.00000000000E+00  0.27861083106E+03  0.27861372559E+03  0.12700000000E+01 0.  1.
         21   -1    0    0  501  502  0.00000000000E+00 -0.00000000000E+00 -0.30584422370E+02  0.30584422370E+02  0.00000000000E+00 0.  1.
         25    2    1    2    0    0  0.34916437115E+01 -0.20421187939E+02  0.25703423742E+03  0.28657138568E+03  0.12500937322E+03 0.  0.
    9000005    1    3    3    0    0  0.62613493507E+02 -0.22832473404E+02  0.11920866979E+03  0.13657773744E+03  0.10000000000E+01 0.  0.
    9000005    1    3    3    0    0 -0.59121849796E+02  0.24112854647E+01  0.13782556763E+03  0.14999364824E+03  0.10000000000E+01 0.  0.
          4    1    1    2  501    0 -0.34916437115E+01  0.20421187939E+02 -0.90078287266E+01  0.22626762274E+02  0.12700000000E+01 0. -1.
<mgrwt>
<rscale>  1 0.12671448E+03</rscale>
<asrwt>0</asrwt>
<pdfrwt beam="2">  1       21 0.47052959E-02 0.12671448E+03</pdfrwt>
<pdfrwt beam="1">  1        4 0.42865454E-01 0.12671448E+03</pdfrwt>
<totfact> 0.63124761E+04</totfact>
</mgrwt>
</event>
<event>
 6    4  0.6358868E-003  0.1300121E+03  0.7818608E-02  0.1227438E+00
         -4   -1    0    0    0  501 -0.00000000000E+00  0.00000000000E+00  0.23842471956E+02  0.23876272091E+02  0.12700000000E+01 0.  1.
         21   -1    0    0  501  502  0.00000000000E+00 -0.00000000000E+00 -0.44583105866E+03  0.44583105866E+03  0.00000000000E+00 0.  1.
         25    2    1    2    0    0 -0.35358895334E+02 -0.54634434058E+01 -0.16417368010E+03  0.20941856868E+03  0.12499215566E+03 0.  0.
    9000005    1    3    3    0    0 -0.67653346975E+02 -0.38077162634E+02 -0.13274546560E+03  0.15378297796E+03  0.10000000000E+01 0.  0.
    9000005    1    3    3    0    0  0.32294451640E+02  0.32613719228E+02 -0.31428214497E+02  0.55635590723E+02  0.10000000000E+01 0.  0.
         -4    1    1    2    0  502  0.35358895334E+02  0.54634434058E+01 -0.25781490661E+03  0.26028876207E+03  0.12700000000E+01 0. -1.
<mgrwt>
<rscale>  1 0.13001208E+03</rscale>
<asrwt>0</asrwt>
<pdfrwt beam="2">  1       21 0.68589387E-01 0.13001208E+03</pdfrwt>
<pdfrwt beam="1">  1       -4 0.36708121E-02 0.13001208E+03</pdfrwt>
<totfact> 0.30997139E+04</totfact>
</mgrwt>
</event>
<event>
 6    4  0.6358868E-003  0.1326482E+03  0.7818608E-02  0.1223578E+00
         21   -1    0    0  501  502  0.00000000000E+00  0.00000000000E+00  0.76485410766E+02  0.76485410766E+02  0.00000000000E+00 0.  1.
          4   -1    0    0  502    0 -0.00000000000E+00 -0.00000000000E+00 -0.10850855926E+03  0.10851599114E+03  0.12700000000E+01 0.  1.
         25    2    1    2    0    0 -0.35863580444E+02 -0.26201895937E+02 -0.44804817722E+01  0.13272380495E+03  0.12499119141E+03 0.  0.
    9000005    1    3    3    0    0  0.22920260764E+02  0.24934485971E+02 -0.35300377318E+02  0.48930395287E+02  0.10000000000E+01 0.  0.
    9000005    1    3    3    0    0 -0.58783841208E+02 -0.51136381908E+02  0.30819895546E+02  0.83793409665E+02  0.10000000000E+01 0.  0.
          4    1    1    2  501    0  0.35863580444E+02  0.26201895937E+02 -0.27542666719E+02  0.52277596951E+02  0.12700000000E+01 0. -1.
<mgrwt>
<rscale>  1 0.13264816E+03</rscale>
<asrwt>0</asrwt>
<pdfrwt beam="1">  1       21 0.11766986E-01 0.13264816E+03</pdfrwt>
<pdfrwt beam="2">  1        4 0.16695007E-01 0.13264816E+03</pdfrwt>
<totfact> 0.76299925E+04</totfact>
</mgrwt>
</event>
<event>
 6    4  0.6358868E-003  0.1292130E+03  0.7818608E-02  0.1228628E+00
         21   -1    0    0  501  502  0.00000000000E+00  0.00000000000E+00  0.37648884144E+02  0.37648884144E+02  0.00000000000E+00 0. -1.
          4   -1    0    0  502    0 -0.00000000000E+00 -0.00000000000E+00 -0.20065336654E+03  0.20065738562E+03  0.12700000000E+01 0.  1.
         25    2    1    2    0    0 -0.32348753061E+02  0.50064842451E+01 -0.15963331159E+03  0.20537475899E+03  0.12499796299E+03 0.  0.
    9000005    1    3    3    0    0 -0.34291992966E+02 -0.43066857368E+01 -0.17977873189E+03  0.18307342998E+03  0.10000000000E+01 0.  0.
    9000005    1    3    3    0    0  0.19432399052E+01  0.93131699820E+01  0.20145420304E+02  0.22301329011E+02  0.10000000000E+01 0.  0.
          4    1    1    2  501    0  0.32348753061E+02 -0.50064842451E+01 -0.33711708073E+01  0.32931510772E+02  0.12700000000E+01 0. -1.
<mgrwt>
<rscale>  1 0.12921299E+03</rscale>
<asrwt>0</asrwt>
<pdfrwt beam="1">  1       21 0.57921361E-02 0.12921299E+03</pdfrwt>
<pdfrwt beam="2">  1        4 0.30871705E-01 0.12921299E+03</pdfrwt>
<totfact> 0.84312744E+04</totfact>
</mgrwt>
</event>
<event>
 6    4  0.6358868E-003  0.1290357E+03  0.7818608E-02  0.1228894E+00
          4   -1    0    0  502    0 -0.00000000000E+00  0.00000000000E+00  0.77408346680E+02  0.77418764106E+02  0.12700000000E+01 0.  1.
         21   -1    0    0  501  502  0.00000000000E+00 -0.00000000000E+00 -0.91823928119E+02  0.91823928119E+02  0.00000000000E+00 0. -1.
         25    2    1    2    0    0  0.23208138999E+02 -0.22059089849E+02  0.93100543885E+01  0.12937115029E+03  0.12499998502E+03 0.  0.
    9000005    1    3    3    0    0  0.52887501511E+02  0.29980108073E+02  0.27532484435E+02  0.66745279948E+02  0.10000000000E+01 0.  0.
    9000005    1    3    3    0    0 -0.29679362511E+02 -0.52039197923E+02 -0.18222430046E+02  0.62625870344E+02  0.10000000000E+01 0.  0.
          4    1    1    2  501    0 -0.23208138999E+02  0.22059089849E+02 -0.23725635827E+02  0.39871541934E+02  0.12700000000E+01 0. -1.
<mgrwt>
<rscale>  1 0.12903572E+03</rscale>
<asrwt>0</asrwt>
<pdfrwt beam="2">  1       21 0.14126758E-01 0.12903572E+03</pdfrwt>
<pdfrwt beam="1">  1        4 0.11910453E-01 0.12903572E+03</pdfrwt>
<totfact> 0.98593284E+04</totfact>
</mgrwt>
</event>
<event>
 6    4  0.6358868E-003  0.1267441E+03  0.7818608E-02  0.1232368E+00
         21   -1    0    0  501  502  0.00000000000E+00  0.00000000000E+00  0.20531708080E+03  0.20531708080E+03  0.00000000000E+00 0.  1.
          4   -1    0    0  502    0 -0.00000000000E+00 -0.00000000000E+00 -0.38097430663E+02  0.38118592880E+02  0.12700000000E+01 0. -1.
         25    2    1    2    0    0  0.37739872069E+01 -0.20620028729E+02  0.71668240891E+02  0.14560360699E+03  0.12499858020E+03 0.  0.
    9000005    1    3    3    0    0  0.82058273752E+01  0.28976136533E+02 -0.23485779564E+02  0.38203847097E+02  0.10000000000E+01 0.  0.
    9000005    1    3    3    0    0 -0.44318401683E+01 -0.49596165263E+02  0.95154020455E+02  0.10739975989E+03  0.10000000000E+01 0.  0.
          4    1    1    2  501    0 -0.37739872069E+01  0.20620028729E+02  0.95551409247E+02  0.97832066693E+02  0.12700000000E+01 0.  1.
<mgrwt>
<rscale>  1 0.12674413E+03</rscale>
<asrwt>0</asrwt>
<pdfrwt beam="1">  1       21 0.31587243E-01 0.12674413E+03</pdfrwt>
<pdfrwt beam="2">  1        4 0.58630733E-02 0.12674413E+03</pdfrwt>
<totfact> 0.71429006E+04</totfact>
</mgrwt>
</event>
<event>
 6    4  0.6358868E-003  0.1623839E+03  0.7818608E-02  0.1186031E+00
         -4   -1    0    0    0  501 -0.00000000000E+00  0.00000000000E+00  0.24120590405E+03  0.24120924743E+03  0.12700000000E+01 0. -1.
         21   -1    0    0  501  502  0.00000000000E+00 -0.00000000000E+00 -0.82667591515E+02  0.82667591515E+02  0.00000000000E+00 0.  1.
         25    2    1    2    0    0  0.10348861589E+03  0.58071268966E+01  0.14795319137E+03  0.21967859505E+03  0.12499968779E+03 0.  0.
    9000005    1    3    3    0    0 -0.29312601415E+01  0.25025279286E+01  0.10466317383E+03  0.10473888909E+03  0.10000000000E+01 0.  0.
    9000005    1    3    3    0    0  0.10641987603E+03  0.33045989680E+01  0.43290017544E+02  0.11493970596E+03  0.10000000000E+01 0.  0.
         -4    1    1    2    0  502 -0.10348861589E+03 -0.58071268966E+01  0.10585121160E+02  0.10419824389E+03  0.12700000000E+01 0.  1.
<mgrwt>
<rscale>  1 0.16238392E+03</rscale>
<asrwt>0</asrwt>
<pdfrwt beam="2">  1       21 0.12718091E-01 0.16238392E+03</pdfrwt>
<pdfrwt beam="1">  1       -4 0.37109608E-01 0.16238392E+03</pdfrwt>
<totfact> 0.15473053E+04</totfact>
</mgrwt>
</event>
<event>
 6    4  0.6358868E-003  0.1267383E+03  0.7818608E-02  0.1232377E+00
         21   -1    0    0  501  502  0.00000000000E+00  0.00000000000E+00  0.13000644108E+04  0.13000644108E+04  0.00000000000E+00 0.  1.
          4   -1    0    0  502    0 -0.00000000000E+00 -0.00000000000E+00 -0.42332761685E+01  0.44196750015E+01  0.12700000000E+01 0.  1.
         25    2    1    2    0    0 -0.83867928264E+00 -0.20888293659E+02  0.11788167565E+04  0.11856101955E+04  0.12500226471E+03 0.  0.
    9000005    1    3    3    0    0 -0.32270253229E+02 -0.52492964478E+02  0.97633097056E+03  0.97827401306E+03  0.10000000000E+01 0.  0.
    9000005    1    3    3    0    0  0.31431573947E+02  0.31604670819E+02  0.20248578593E+03  0.20733618248E+03  0.10000000000E+01 0.  0.
          4    1    1    2  501    0  0.83867928264E+00  0.20888293659E+02  0.11701437816E+03  0.11887389028E+03  0.12700000000E+01 0. -1.
<mgrwt>
<rscale>  1 0.12673828E+03</rscale>
<asrwt>0</asrwt>
<pdfrwt beam="1">  1       21 0.20000960E+00 0.12673828E+03</pdfrwt>
<pdfrwt beam="2">  1        4 0.66566038E-03 0.12673828E+03</pdfrwt>
<totfact> 0.30291660E+04</totfact>
</mgrwt>
</event>
<event>
 6    4  0.6358868E-003  0.1291759E+03  0.7818608E-02  0.1228684E+00
         21   -1    0    0  501  502  0.00000000000E+00  0.00000000000E+00  0.16778614417E+02  0.16778614417E+02  0.00000000000E+00 0. -1.
         -4   -1    0    0    0  501 -0.00000000000E+00 -0.00000000000E+00 -0.60091418633E+03  0.60091552837E+03  0.12700000000E+01 0.  1.
         25    2    1    2    0    0  0.31922613579E+02  0.64264036903E+01 -0.56568340478E+03  0.58024487986E+03  0.12500421686E+03 0.  0.
    9000005    1    3    3    0    0  0.42963896252E+02  0.60147160331E+02 -0.30189548028E+03  0.31081418611E+03  0.10000000000E+01 0.  0.
    9000005    1    3    3    0    0 -0.11041282673E+02 -0.53720756641E+02 -0.26378792451E+03  0.26943069375E+03  0.10000000000E+01 0.  0.
         -4    1    1    2    0  502 -0.31922613579E+02 -0.64264036903E+01 -0.18452167135E+02  0.37449262931E+02  0.12700000000E+01 0. -1.
<mgrwt>
<rscale>  1 0.12917587E+03</rscale>
<asrwt>0</asrwt>
<pdfrwt beam="1">  1       21 0.25813252E-02 0.12917587E+03</pdfrwt>
<pdfrwt beam="2">  1       -4 0.92452141E-01 0.12917587E+03</pdfrwt>
<totfact> 0.33455616E+04</totfact>
</mgrwt>
</event>
<event>
 6    4  0.6358868E-003  0.1332182E+03  0.7818608E-02  0.1222757E+00
         21   -1    0    0  501  502  0.00000000000E+00  0.00000000000E+00  0.85493280588E+02  0.85493280588E+02  0.00000000000E+00 0. -1.
         -4   -1    0    0    0  501 -0.00000000000E+00 -0.00000000000E+00 -0.16239345685E+03  0.16239842280E+03  0.12700000000E+01 0.  1.
         25    2    1    2    0    0  0.45396547414E+02 -0.76270177748E+01 -0.12401639919E+03  0.18200870650E+03  0.12501233562E+03 0.  0.
    9000005    1    3    3    0    0  0.48206487401E+02 -0.61303019078E+02 -0.86404762595E+02  0.11639891999E+03  0.10000000000E+01 0.  0.
    9000005    1    3    3    0    0 -0.28099399872E+01  0.53676001304E+02 -0.37611636593E+02  0.65609786510E+02  0.10000000000E+01 0.  0.
         -4    1    1    2    0  502 -0.45396547414E+02  0.76270177748E+01  0.47116222921E+02  0.65882996893E+02  0.12700000000E+01 0. -1.
<mgrwt>
<rscale>  1 0.13321825E+03</rscale>
<asrwt>0</asrwt>
<pdfrwt beam="1">  1       21 0.13152812E-01 0.13321825E+03</pdfrwt>
<pdfrwt beam="2">  1       -4 0.24984716E-01 0.13321825E+03</pdfrwt>
<totfact> 0.30275826E+04</totfact>
</mgrwt>
</event>
<event>
 6    4  0.6358868E-003  0.1361442E+03  0.7818608E-02  0.1218613E+00
         -4   -1    0    0    0  501 -0.00000000000E+00  0.00000000000E+00  0.84441435163E+02  0.84450985030E+02  0.12700000000E+01 0.  1.
         21   -1    0    0  501  502  0.00000000000E+00 -0.00000000000E+00 -0.14006467263E+03  0.14006467263E+03  0.00000000000E+00 0.  1.
         25    2    1    2    0    0 -0.36425799358E+02 -0.39807298669E+02  0.13505477316E+02  0.13681245365E+03  0.12499515859E+03 0.  0.
    9000005    1    3    3    0    0 -0.23852576202E+02 -0.29820532771E+01 -0.53871381400E+02  0.58999692941E+02  0.10000000000E+01 0.  0.
    9000005    1    3    3    0    0 -0.12573223156E+02 -0.36825245392E+02  0.67376858716E+02  0.77812760709E+02  0.10000000000E+01 0.  0.
         -4    1    1    2    0  502  0.36425799358E+02  0.39807298669E+02 -0.69128714784E+02  0.87703204011E+02  0.12700000000E+01 0. -1.
<mgrwt>
<rscale>  1 0.13614422E+03</rscale>
<asrwt>0</asrwt>
<pdfrwt beam="2">  1       21 0.21548411E-01 0.13614422E+03</pdfrwt>
<pdfrwt beam="1">  1       -4 0.12992168E-01 0.13614422E+03</pdfrwt>
<totfact> 0.39519527E+04</totfact>
</mgrwt>
</event>
<event>
 6    4  0.6358868E-003  0.1280317E+03  0.7818608E-02  0.1230406E+00
         21   -1    0    0  501  502  0.00000000000E+00  0.00000000000E+00  0.28159793315E+02  0.28159793315E+02  0.00000000000E+00 0. -1.
          4   -1    0    0  502    0 -0.00000000000E+00 -0.00000000000E+00 -0.69978234513E+03  0.69978349756E+03  0.12700000000E+01 0.  1.
         25    2    1    2    0    0  0.42189778848E+01  0.27303403787E+02 -0.68525244127E+03  0.69711047687E+03  0.12501533129E+03 0.  0.
    9000005    1    3    3    0    0 -0.75346193008E+01  0.44063826046E+02 -0.81095545698E+02  0.92606040763E+02  0.10000000000E+01 0.  0.
    9000005    1    3    3    0    0  0.11753597186E+02 -0.16760422259E+02 -0.60415689557E+03  0.60450443610E+03  0.10000000000E+01 0.  0.
          4    1    1    2  501    0 -0.42189778848E+01 -0.27303403787E+02  0.13629889458E+02  0.30832814004E+02  0.12700000000E+01 0. -1.
<mgrwt>
<rscale>  1 0.12803167E+03</rscale>
<asrwt>0</asrwt>
<pdfrwt beam="1">  1       21 0.43322762E-02 0.12803167E+03</pdfrwt>
<pdfrwt beam="2">  1        4 0.10766111E+00 0.12803167E+03</pdfrwt>
<totfact> 0.10018260E+04</totfact>
</mgrwt>
</event>
<event>
 6    4  0.6358868E-003  0.1295812E+03  0.7818608E-02  0.1228078E+00
         -4   -1    0    0    0  501 -0.00000000000E+00  0.00000000000E+00  0.92119947353E+02  0.92128701284E+02  0.12700000000E+01 0. -1.
         21   -1    0    0  501  502  0.00000000000E+00 -0.00000000000E+00 -0.10788494476E+03  0.10788494476E+03  0.00000000000E+00 0. -1.
         25    2    1    2    0    0  0.33965427795E+02  0.35896463551E+01  0.39119292400E+02  0.13535737014E+03  0.12499905106E+03 0.  0.
    9000005    1    3    3    0    0 -0.40082100765E+02  0.30900840610E+02  0.16726693178E+02  0.53312465866E+02  0.10000000000E+01 0.  0.
    9000005    1    3    3    0    0  0.74047528559E+02 -0.27311194254E+02  0.22392599222E+02  0.82044904273E+02  0.10000000000E+01 0.  0.
         -4    1    1    2    0  502 -0.33965427795E+02 -0.35896463551E+01 -0.54884289802E+02  0.64656275900E+02  0.12700000000E+01 0.  1.
<mgrwt>
<rscale>  1 0.12958124E+03</rscale>
<asrwt>0</asrwt>
<pdfrwt beam="2">  1       21 0.16597684E-01 0.12958124E+03</pdfrwt>
<pdfrwt beam="1">  1       -4 0.14173548E-01 0.12958124E+03</pdfrwt>
<totfact> 0.54656665E+04</totfact>
</mgrwt>
</event>
<event>
 6    4  0.6358868E-003  0.1298118E+03  0.7818608E-02  0.1227735E+00
         -4   -1    0    0    0  501 -0.00000000000E+00  0.00000000000E+00  0.59973288048E+03  0.59973422516E+03  0.12700000000E+01 0.  1.
         21   -1    0    0  501  502  0.00000000000E+00 -0.00000000000E+00 -0.12718797549E+02  0.12718797549E+02  0.00000000000E+00 0.  1.
         25    2    1    2    0    0  0.35000638878E+02  0.11071887799E+01  0.52885233326E+03  0.54455108891E+03  0.12499930980E+03 0.  0.
    9000005    1    3    3    0    0 -0.29056002835E+01  0.33631228098E+02  0.44960568338E+03  0.45087223527E+03  0.10000000000E+01 0.  0.
    9000005    1    3    3    0    0  0.37906239161E+02 -0.32524039318E+02  0.79246649881E+02  0.93678853634E+02  0.10000000000E+01 0.  0.
         -4    1    1    2    0  502 -0.35000638878E+02 -0.11071887799E+01  0.58161749679E+02  0.67901933806E+02  0.12700000000E+01 0. -1.
<mgrwt>
<rscale>  1 0.12981178E+03</rscale>
<asrwt>0</asrwt>
<pdfrwt beam="2">  1       21 0.19567386E-02 0.12981178E+03</pdfrwt>
<pdfrwt beam="1">  1       -4 0.92271556E-01 0.12981178E+03</pdfrwt>
<totfact> 0.52686946E+04</totfact>
</mgrwt>
</event>
<event>
 6    4  0.6358868E-003  0.1328430E+03  0.7818608E-02  0.1223297E+00
         -4   -1    0    0    0  501 -0.00000000000E+00  0.00000000000E+00  0.27609479106E+04  0.27609482027E+04  0.12700000000E+01 0. -1.
         21   -1    0    0  501  502  0.00000000000E+00 -0.00000000000E+00 -0.42195947943E+01  0.42195947943E+01  0.00000000000E+00 0. -1.
         25    2    1    2    0    0 -0.78265749399E+01  0.44279852204E+02  0.25564736663E+04  0.25599228264E+04  0.12500124124E+03 0.  0.
    9000005    1    3    3    0    0  0.53878134684E+02  0.32485112843E+02  0.16916816140E+04  0.16928513872E+04  0.10000000000E+01 0.  0.
    9000005    1    3    3    0    0 -0.61704709624E+02  0.11794739361E+02  0.86479205231E+03  0.86707143928E+03  0.10000000000E+01 0.  0.
         -4    1    1    2    0  502  0.78265749399E+01 -0.44279852204E+02  0.20025464949E+03  0.20524497102E+03  0.12700000000E+01 0.  1.
<mgrwt>
<rscale>  1 0.13284303E+03</rscale>
<asrwt>0</asrwt>
<pdfrwt beam="2">  1       21 0.64917064E-03 0.13284303E+03</pdfrwt>
<pdfrwt beam="1">  1       -4 0.42477450E+00 0.13284303E+03</pdfrwt>
<totfact> 0.19012776E+03</totfact>
</mgrwt>
</event>
<event>
 6    4  0.6358868E-003  0.1427394E+03  0.7818608E-02  0.1209690E+00
          4   -1    0    0  502    0 -0.00000000000E+00  0.00000000000E+00  0.58500704142E+02  0.58514487822E+02  0.12700000000E+01 0.  1.
         21   -1    0    0  501  502  0.00000000000E+00 -0.00000000000E+00 -0.34276530288E+03  0.34276530288E+03  0.00000000000E+00 0. -1.
         25    2    1    2    0    0  0.17299802762E+02 -0.66711075834E+02 -0.41106370382E+02  0.14854042350E+03  0.12499949166E+03 0.  0.
    9000005    1    3    3    0    0 -0.34070076413E+02 -0.78404731146E+02 -0.70151870022E+01  0.85780445450E+02  0.10000000000E+01 0.  0.
    9000005    1    3    3    0    0  0.51369879176E+02  0.11693655313E+02 -0.34091183380E+02  0.62759978054E+02  0.10000000000E+01 0.  0.
          4    1    1    2  501    0 -0.17299802762E+02  0.66711075834E+02 -0.24315822836E+03  0.25273936720E+03  0.12700000000E+01 0. -1.
<mgrwt>
<rscale>  1 0.14273936E+03</rscale>
<asrwt>0</asrwt>
<pdfrwt beam="2">  1       21 0.52733122E-01 0.14273936E+03</pdfrwt>
<pdfrwt beam="1">  1        4 0.90013498E-02 0.14273936E+03</pdfrwt>
<totfact> 0.12750531E+04</totfact>
</mgrwt>
</event>
<event>
 6    4  0.6358868E-003  0.1469426E+03  0.7818608E-02  0.1204281E+00
         -4   -1    0    0    0  501 -0.00000000000E+00  0.00000000000E+00  0.24952827287E+03  0.24953150475E+03  0.12700000000E+01 0.  1.
         21   -1    0    0  501  502  0.00000000000E+00 -0.00000000000E+00 -0.68305129692E+02  0.68305129692E+02  0.00000000000E+00 0. -1.
         25    2    1    2    0    0 -0.76042429256E+02  0.13593518641E+02  0.18987767352E+03  0.24009508447E+03  0.12499953556E+03 0.  0.
    9000005    1    3    3    0    0  0.94554380698E+01  0.50027971253E+02  0.44943450718E+02  0.67919930648E+02  0.10000000000E+01 0.  0.
    9000005    1    3    3    0    0 -0.85497867326E+02 -0.36434452613E+02  0.14493422280E+03  0.17217515382E+03  0.10000000000E+01 0.  0.
         -4    1    1    2    0  502  0.76042429256E+02 -0.13593518641E+02 -0.86545303411E+01  0.77741549969E+02  0.12700000000E+01 0. -1.
<mgrwt>
<rscale>  1 0.14694257E+03</rscale>
<asrwt>0</asrwt>
<pdfrwt beam="2">  1       21 0.10508482E-01 0.14694257E+03</pdfrwt>
<pdfrwt beam="1">  1       -4 0.38390121E-01 0.14694257E+03</pdfrwt>
<totfact> 0.20129337E+04</totfact>
</mgrwt>
</event>
<event>
 6    4  0.6358868E-003  0.1267181E+03  0.7818608E-02  0.1232408E+00
          4   -1    0    0  502    0 -0.00000000000E+00  0.00000000000E+00  0.10551421849E+02  0.10627577477E+02  0.12700000000E+01 0. -1.
         21   -1    0    0  501  502  0.00000000000E+00 -0.00000000000E+00 -0.81561533514E+03  0.81561533514E+03  0.00000000000E+00 0.  1.
         25    2    1    2    0    0 -0.19554383913E+02  0.68726587707E+01 -0.37800441523E+03  0.39867884121E+03  0.12501149200E+03 0.  0.
    9000005    1    3    3    0    0 -0.13353843487E+02 -0.59022830311E+02 -0.18137484280E+03  0.19120631065E+03  0.10000000000E+01 0.  0.
    9000005    1    3    3    0    0 -0.62005404260E+01  0.65895489082E+02 -0.19662957243E+03  0.20747253056E+03  0.10000000000E+01 0.  0.
          4    1    1    2  501    0  0.19554383913E+02 -0.68726587707E+01 -0.42705949806E+03  0.42756407140E+03  0.12700000000E+01 0.  1.
<mgrwt>
<rscale>  1 0.12671811E+03</rscale>
<asrwt>0</asrwt>
<pdfrwt beam="2">  1       21 0.12547929E+00 0.12671811E+03</pdfrwt>
<pdfrwt beam="1">  1        4 0.16292297E-02 0.12671811E+03</pdfrwt>
<totfact> 0.27072744E+04</totfact>
</mgrwt>
</event>
<event>
 6    4  0.6358868E-003  0.1808509E+03  0.7818608E-02  0.1166982E+00
         21   -1    0    0  501  502  0.00000000000E+00  0.00000000000E+00  0.57693807962E+03  0.57693807962E+03  0.00000000000E+00 0.  1.
         -4   -1    0    0    0  501 -0.00000000000E+00 -0.00000000000E+00 -0.63501057084E+02  0.63513755603E+02  0.12700000000E+01 0. -1.
         25    2    1    2    0    0 -0.10967255382E+03  0.71087977976E+02  0.99596183762E+02  0.20646171735E+03  0.12500188493E+03 0.  0.
    9000005    1    3    3    0    0  0.11413486606E+02 -0.10214083818E+02 -0.14629483638E+02  0.21204173558E+02  0.10000000000E+01 0.  0.
    9000005    1    3    3    0    0 -0.12108604043E+03  0.81302061794E+02  0.11422566740E+03  0.18525754379E+03  0.10000000000E+01 0.  0.
         -4    1    1    2    0  502  0.10967255382E+03 -0.71087977976E+02  0.41384083877E+03  0.43399011787E+03  0.12700000000E+01 0.  1.
<mgrwt>
<rscale>  1 0.18085088E+03</rscale>
<asrwt>0</asrwt>
<pdfrwt beam="1">  1       21 0.88759701E-01 0.18085088E+03</pdfrwt>
<pdfrwt beam="2">  1       -4 0.97704781E-02 0.18085088E+03</pdfrwt>
<totfact> 0.35969353E+03</totfact>
</mgrwt>
</event>
<event>
 6    4  0.6358868E-003  0.1391433E+03  0.7818608E-02  0.1214486E+00
         21   -1    0    0  501  502  0.00000000000E+00  0.00000000000E+00  0.10321427795E+03  0.10321427795E+03  0.00000000000E+00 0. -1.
          4   -1    0    0  502    0 -0.00000000000E+00 -0.00000000000E+00 -0.11710710501E+03  0.11711399124E+03  0.12700000000E+01 0. -1.
         25    2    1    2    0    0 -0.58173919541E+02 -0.18716087677E+02 -0.51721998233E+02  0.14844533698E+03  0.12500542435E+03 0.  0.
    9000005    1    3    3    0    0 -0.47662165923E+02  0.43321163724E+02 -0.56022154055E+02  0.85369122239E+02  0.10000000000E+01 0.  0.
    9000005    1    3    3    0    0 -0.10511753617E+02 -0.62037251400E+02  0.43001558221E+01  0.63076214737E+02  0.10000000000E+01 0.  0.
          4    1    1    2  501    0  0.58173919541E+02  0.18716087677E+02  0.37829171173E+02  0.71882932218E+02  0.12700000000E+01 0.  1.
<mgrwt>
<rscale>  1 0.13914328E+03</rscale>
<asrwt>0</asrwt>
<pdfrwt beam="1">  1       21 0.15879120E-01 0.13914328E+03</pdfrwt>
<pdfrwt beam="2">  1        4 0.18017608E-01 0.13914328E+03</pdfrwt>
<totfact> 0.39181416E+04</totfact>
</mgrwt>
</event>
<event>
 6    4  0.6358868E-003  0.1344394E+03  0.7818608E-02  0.1221013E+00
         21   -1    0    0  501  502  0.00000000000E+00  0.00000000000E+00  0.15693581274E+04  0.15693581274E+04  0.00000000000E+00 0.  1.
         -4   -1    0    0    0  501 -0.00000000000E+00 -0.00000000000E+00 -0.56397270578E+01  0.57809533199E+01  0.12700000000E+01 0.  1.
         25    2    1    2    0    0 -0.47230675094E+02 -0.14781536521E+02  0.95585074782E+03  0.96525882495E+03  0.12499886619E+03 0.  0.
    9000005    1    3    3    0    0 -0.83525169957E+02  0.17904029492E+02  0.63028999688E+03  0.63605305475E+03  0.10000000000E+01 0.  0.
    9000005    1    3    3    0    0  0.36294494863E+02 -0.32685566013E+02  0.32556075094E+03  0.32920577020E+03  0.10000000000E+01 0.  0.
         -4    1    1    2    0  502  0.47230675094E+02  0.14781536521E+02  0.60786765250E+03  0.60988025575E+03  0.12700000000E+01 0. -1.
<mgrwt>
<rscale>  1 0.13443938E+03</rscale>
<asrwt>0</asrwt>
<pdfrwt beam="1">  1       21 0.24143937E+00 0.13443938E+03</pdfrwt>
<pdfrwt beam="2">  1       -4 0.87855465E-03 0.13443938E+03</pdfrwt>
<totfact> 0.11294706E+04</totfact>
</mgrwt>
</event>
<event>
 6    4  0.6358868E-003  0.1525094E+03  0.7818608E-02  0.1197423E+00
         21   -1    0    0  501  502  0.00000000000E+00  0.00000000000E+00  0.80426959832E+02  0.80426959832E+02  0.00000000000E+00 0.  1.
          4   -1    0    0  502    0 -0.00000000000E+00 -0.00000000000E+00 -0.18317283582E+03  0.18317723844E+03  0.12700000000E+01 0. -1.
         25    2    1    2    0    0  0.67422552753E+01  0.87112615865E+02 -0.84439467164E+02  0.17432484258E+03  0.12500024511E+03 0.  0.
    9000005    1    3    3    0    0 -0.79225356421E+01  0.63360255110E+00  0.29478389342E+02  0.30547396966E+02  0.10000000000E+01 0.  0.
    9000005    1    3    3    0    0  0.14664790917E+02  0.86479013314E+02 -0.11391785651E+03  0.14377744561E+03  0.10000000000E+01 0.  0.
          4    1    1    2  501    0 -0.67422552753E+01 -0.87112615865E+02 -0.18306408827E+02  0.89279355695E+02  0.12700000000E+01 0.  1.
<mgrwt>
<rscale>  1 0.15250943E+03</rscale>
<asrwt>0</asrwt>
<pdfrwt beam="1">  1       21 0.12373379E-01 0.15250943E+03</pdfrwt>
<pdfrwt beam="2">  1        4 0.28181546E-01 0.15250943E+03</pdfrwt>
<totfact> 0.27368432E+04</totfact>
</mgrwt>
</event>
<event>
 6    4  0.6358868E-003  0.1270255E+03  0.7818608E-02  0.1231937E+00
          4   -1    0    0  502    0 -0.00000000000E+00  0.00000000000E+00  0.35863251280E+03  0.35863476148E+03  0.12700000000E+01 0. -1.
         21   -1    0    0  501  502  0.00000000000E+00 -0.00000000000E+00 -0.18793592507E+02  0.18793592507E+02  0.00000000000E+00 0.  1.
         25    2    1    2    0    0  0.20291944225E+01 -0.22495197705E+02  0.32833275063E+03  0.35204811777E+03  0.12500132215E+03 0.  0.
    9000005    1    3    3    0    0  0.18579354959E+02 -0.11614494385E+02  0.33127412233E+03  0.33199944734E+03  0.10000000000E+01 0.  0.
    9000005    1    3    3    0    0 -0.16550160536E+02 -0.10880703320E+02 -0.29413716989E+01  0.20048670429E+02  0.10000000000E+01 0.  0.
          4    1    1    2  501    0 -0.20291944225E+01  0.22495197705E+02  0.11506169663E+02  0.25380236211E+02  0.12700000000E+01 0.  1.
<mgrwt>
<rscale>  1 0.12702552E+03</rscale>
<asrwt>0</asrwt>
<pdfrwt beam="2">  1       21 0.28913222E-02 0.12702552E+03</pdfrwt>
<pdfrwt beam="1">  1        4 0.55177701E-01 0.12702552E+03</pdfrwt>
<totfact> 0.84759602E+04</totfact>
</mgrwt>
</event>
<event>
 6    4  0.6358868E-003  0.1287853E+03  0.7818608E-02  0.1229269E+00
         -4   -1    0    0    0  501 -0.00000000000E+00  0.00000000000E+00  0.11799096912E+03  0.11799780377E+03  0.12700000000E+01 0.  1.
         21   -1    0    0  501  502  0.00000000000E+00 -0.00000000000E+00 -0.11171252121E+03  0.11171252121E+03  0.00000000000E+00 0. -1.
         25    2    1    2    0    0  0.18930647271E+02 -0.24535276590E+02  0.78698971788E+02  0.15092774833E+03  0.12500123141E+03 0.  0.
    9000005    1    3    3    0    0  0.13599393224E+02 -0.52197223813E+02  0.10131798503E+03  0.11478600856E+03  0.10000000000E+01 0.  0.
    9000005    1    3    3    0    0  0.53312540468E+01  0.27661947223E+02 -0.22619013244E+02  0.36141739775E+02  0.10000000000E+01 0.  0.
         -4    1    1    2    0  502 -0.18930647271E+02  0.24535276590E+02 -0.72420523880E+02  0.78782576643E+02  0.12700000000E+01 0. -1.
<mgrwt>
<rscale>  1 0.12878531E+03</rscale>
<asrwt>0</asrwt>
<pdfrwt beam="2">  1       21 0.17186542E-01 0.12878531E+03</pdfrwt>
<pdfrwt beam="1">  1       -4 0.18153538E-01 0.12878531E+03</pdfrwt>
<totfact> 0.33191700E+04</totfact>
</mgrwt>
</event>
<event>
 6    4  0.6358868E-003  0.1266672E+03  0.7818608E-02  0.1232487E+00
         21   -1    0    0  501  502  0.00000000000E+00  0.00000000000E+00  0.45604423172E+03  0.45604423172E+03  0.00000000000E+00 0. -1.
          4   -1    0    0  502    0 -0.00000000000E+00 -0.00000000000E+00 -0.40279274394E+02  0.40299290883E+02  0.12700000000E+01 0.  1.
         25    2    1    2    0    0  0.14341237947E+02 -0.14573753540E+02  0.60298351673E+02  0.14028708602E+03  0.12500603942E+03 0.  0.
    9000005    1    3    3    0    0  0.16672751582E+02 -0.68422787520E+02  0.20742236686E+02  0.73422740892E+02  0.10000000000E+01 0.  0.
    9000005    1    3    3    0    0 -0.23315136345E+01  0.53849033981E+02  0.39556114987E+02  0.66864345127E+02  0.10000000000E+01 0.  0.
          4    1    1    2  501    0 -0.14341237947E+02  0.14573753540E+02  0.35546660565E+03  0.35605643658E+03  0.12700000000E+01 0. -1.
<mgrwt>
<rscale>  1 0.12666718E+03</rscale>
<asrwt>0</asrwt>
<pdfrwt beam="1">  1       21 0.70160647E-01 0.12666718E+03</pdfrwt>
<pdfrwt beam="2">  1        4 0.61984875E-02 0.12666718E+03</pdfrwt>
<totfact> 0.12718593E+04</totfact>
</mgrwt>
</event>
<event>
 6    4  0.6358868E-003  0.1278288E+03  0.7818608E-02  0.1230713E+00
         21   -1    0    0  501  502  0.00000000000E+00  0.00000000000E+00  0.76395255645E+02  0.76395255645E+02  0.00000000000E+00 0.  1.
         -4   -1    0    0    0  501 -0.00000000000E+00 -0.00000000000E+00 -0.13193342219E+03  0.13193953460E+03  0.12700000000E+01 0. -1.
         25    2    1    2    0    0 -0.12059682426E+02  0.23879307461E+02 -0.95964619112E+02  0.15984181930E+03  0.12499816723E+03 0.  0.
    9000005    1    3    3    0    0  0.28777665858E+02 -0.41503413847E+02 -0.33438918535E+02  0.60579276044E+02  0.10000000000E+01 0.  0.
    9000005    1    3    3    0    0 -0.40837348284E+02  0.65382721307E+02 -0.62525700576E+02  0.99262543253E+02  0.10000000000E+01 0.  0.
         -4    1    1    2    0  502  0.12059682426E+02 -0.23879307461E+02  0.40426452563E+02  0.48492970953E+02  0.12700000000E+01 0.  1.
<mgrwt>
<rscale>  1 0.12782879E+03</rscale>
<asrwt>0</asrwt>
<pdfrwt beam="1">  1       21 0.11753116E-01 0.12782879E+03</pdfrwt>
<pdfrwt beam="2">  1       -4 0.20298731E-01 0.12782879E+03</pdfrwt>
<totfact> 0.53716865E+04</totfact>
</mgrwt>
</event>
<event>
 6    4  0.6358868E-003  0.1269441E+03  0.7818608E-02  0.1232062E+00
         21   -1    0    0  501  502  0.00000000000E+00  0.00000000000E+00  0.35288822811E+02  0.35288822811E+02  0.00000000000E+00 0.  1.
          4   -1    0    0  502    0 -0.00000000000E+00 -0.00000000000E+00 -0.20326931425E+03  0.20327328161E+03  0.12700000000E+01 0.  1.
         25    2    1    2    0    0  0.18503267091E+02  0.12128462430E+02 -0.17419873505E+03  0.21554580699E+03  0.12500130048E+03 0.  0.
    9000005    1    3    3    0    0  0.47727817629E+02 -0.22104216939E+01 -0.10881092788E+02  0.49012536355E+02  0.10000000000E+01 0.  0.
    9000005    1    3    3    0    0 -0.29224550539E+02  0.14338884124E+02 -0.16331764226E+03  0.16653327063E+03  0.10000000000E+01 0.  0.
          4    1    1    2  501    0 -0.18503267091E+02 -0.12128462430E+02  0.62182436128E+01  0.23016297434E+02  0.12700000000E+01 0. -1.
<mgrwt>
<rscale>  1 0.12694406E+03</rscale>
<asrwt>0</asrwt>
<pdfrwt beam="1">  1       21 0.54290497E-02 0.12694406E+03</pdfrwt>
<pdfrwt beam="2">  1        4 0.31274265E-01 0.12694406E+03</pdfrwt>
<totfact> 0.91537799E+04</totfact>
</mgrwt>
</event>
<event>
 6    4  0.6358868E-003  0.1289672E+03  0.7818608E-02  0.1228996E+00
         21   -1    0    0  501  502  0.00000000000E+00  0.00000000000E+00  0.66370837317E+02  0.66370837317E+02  0.00000000000E+00 0. -1.
         -4   -1    0    0    0  501 -0.00000000000E+00 -0.00000000000E+00 -0.17073085236E+03  0.17073557582E+03  0.12700000000E+01 0. -1.
         25    2    1    2    0    0 -0.26441781817E+02  0.17565052367E+02 -0.13933263610E+03  0.18985817492E+03  0.12499937684E+03 0.  0.
    9000005    1    3    3    0    0 -0.12825333168E+02  0.70589269719E+02 -0.60375715800E+02  0.93773990150E+02  0.10000000000E+01 0.  0.
    9000005    1    3    3    0    0 -0.13616448649E+02 -0.53024217352E+02 -0.78956920305E+02  0.96084184774E+02  0.10000000000E+01 0.  0.
         -4    1    1    2    0  502  0.26441781817E+02 -0.17565052367E+02  0.34972621057E+02  0.47248238209E+02  0.12700000000E+01 0.  1.
<mgrwt>
<rscale>  1 0.12896722E+03</rscale>
<asrwt>0</asrwt>
<pdfrwt beam="1">  1       21 0.10210898E-01 0.12896722E+03</pdfrwt>
<pdfrwt beam="2">  1       -4 0.26267583E-01 0.12896722E+03</pdfrwt>
<totfact> 0.43012621E+04</totfact>
</mgrwt>
</event>
<event>
 6    4  0.6358868E-003  0.1380234E+03  0.7818608E-02  0.1216014E+00
         21   -1    0    0  501  502  0.00000000000E+00  0.00000000000E+00  0.19351958396E+03  0.19351958396E+03  0.00000000000E+00 0. -1.
          4   -1    0    0  502    0 -0.00000000000E+00 -0.00000000000E+00 -0.51584256901E+02  0.51599888178E+02  0.12700000000E+01 0. -1.
         25    2    1    2    0    0 -0.55706496917E+02 -0.17943847938E+02  0.78433313453E+02  0.15875215130E+03  0.12500106161E+03 0.  0.
    9000005    1    3    3    0    0 -0.73521774012E+02 -0.12239336842E+02  0.10344473749E+03  0.12750320127E+03  0.10000000000E+01 0.  0.
    9000005    1    3    3    0    0  0.17815277095E+02 -0.57045110959E+01 -0.25011424041E+02  0.31248950020E+02  0.10000000000E+01 0.  0.
          4    1    1    2  501    0  0.55706496917E+02  0.17943847938E+02  0.63502013610E+02  0.86367320846E+02  0.12700000000E+01 0.  1.
<mgrwt>
<rscale>  1 0.13802341E+03</rscale>
<asrwt>0</asrwt>
<pdfrwt beam="1">  1       21 0.29772243E-01 0.13802341E+03</pdfrwt>
<pdfrwt beam="2">  1        4 0.79375626E-02 0.13802341E+03</pdfrwt>
<totfact> 0.49255452E+04</totfact>
</mgrwt>
</event>
<event>
 6    4  0.6358868E-003  0.1273161E+03  0.7818608E-02  0.1231493E+00
         21   -1    0    0  501  502  0.00000000000E+00  0.00000000000E+00  0.75845012808E+02  0.75845012808E+02  0.00000000000E+00 0. -1.
         -4   -1    0    0    0  501 -0.00000000000E+00 -0.00000000000E+00 -0.77949995221E+02  0.77960340270E+02  0.12700000000E+01 0. -1.
         25    2    1    2    0    0  0.23350685961E+02  0.62342909284E+01  0.80252879790E+01  0.12756880993E+03  0.12500110040E+03 0.  0.
    9000005    1    3    3    0    0  0.48690443207E+02  0.39362307127E+02 -0.31502652402E+02  0.70096844368E+02  0.10000000000E+01 0.  0.
    9000005    1    3    3    0    0 -0.25339757246E+02 -0.33128016199E+02  0.39527940381E+02  0.57471965560E+02  0.10000000000E+01 0.  0.
         -4    1    1    2    0  502 -0.23350685961E+02 -0.62342909284E+01 -0.10130270392E+02  0.26236543150E+02  0.12700000000E+01 0.  1.
<mgrwt>
<rscale>  1 0.12731613E+03</rscale>
<asrwt>0</asrwt>
<pdfrwt beam="1">  1       21 0.11668464E-01 0.12731613E+03</pdfrwt>
<pdfrwt beam="2">  1       -4 0.11993921E-01 0.12731613E+03</pdfrwt>
<totfact> 0.13666620E+05</totfact>
</mgrwt>
</event>
<event>
 6    4  0.6358868E-003  0.1567123E+03  0.7818608E-02  0.1192459E+00
          4   -1    0    0  502    0 -0.00000000000E+00  0.00000000000E+00  0.18489032704E+03  0.18489468876E+03  0.12700000000E+01 0.  1.
         21   -1    0    0  501  502  0.00000000000E+00 -0.00000000000E+00 -0.85358543548E+02  0.85358543548E+02  0.00000000000E+00 0.  1.
         25    2    1    2    0    0  0.33483060855E+02  0.88392423293E+02  0.63504888565E+02  0.16909056174E+03  0.12499764533E+03 0.  0.
    9000005    1    3    3    0    0  0.67517916825E+02  0.98850203737E+02  0.58090191375E+02  0.13306202390E+03  0.10000000000E+01 0.  0.
    9000005    1    3    3    0    0 -0.34034855970E+02 -0.10457780445E+02  0.54146971909E+01  0.36028537833E+02  0.10000000000E+01 0.  0.
          4    1    1    2  501    0 -0.33483060855E+02 -0.88392423293E+02  0.36026894927E+02  0.10116267057E+03  0.12700000000E+01 0. -1.
<mgrwt>
<rscale>  1 0.15671231E+03</rscale>
<asrwt>0</asrwt>
<pdfrwt beam="2">  1       21 0.13132084E-01 0.15671231E+03</pdfrwt>
<pdfrwt beam="1">  1        4 0.28445728E-01 0.15671231E+03</pdfrwt>
<totfact> 0.24245376E+04</totfact>
</mgrwt>
</event>
<event>
 6    4  0.6358868E-003  0.1282258E+03  0.7818608E-02  0.1230112E+00
         -4   -1    0    0    0  501 -0.00000000000E+00  0.00000000000E+00  0.32620379000E+02  0.32645091915E+02  0.12700000000E+01 0.  1.
         21   -1    0    0  501  502  0.00000000000E+00 -0.00000000000E+00 -0.40471412672E+03  0.40471412672E+03  0.00000000000E+00 0. -1.
         25    2    1    2    0    0  0.23727818498E+02 -0.15888551402E+02 -0.96993937738E+02  0.16077835562E+03  0.12500560084E+03 0.  0.
    9000005    1    3    3    0    0  0.36370174355E+01 -0.67676222738E+02 -0.74826737901E+02  0.10096207072E+03  0.10000000000E+01 0.  0.
    9000005    1    3    3    0    0  0.20090801062E+02  0.51787671336E+02 -0.22167199837E+02  0.59816284892E+02  0.10000000000E+01 0.  0.
         -4    1    1    2    0  502 -0.23727818498E+02  0.15888551402E+02 -0.27509980998E+03  0.27658086302E+03  0.12700000000E+01 0. -1.
<mgrwt>
<rscale>  1 0.12822580E+03</rscale>
<asrwt>0</asrwt>
<pdfrwt beam="2">  1       21 0.62263717E-01 0.12822580E+03</pdfrwt>
<pdfrwt beam="1">  1       -4 0.50205737E-02 0.12822580E+03</pdfrwt>
<totfact> 0.23158137E+04</totfact>
</mgrwt>
</event>
<event>
 6    4  0.6358868E-003  0.1305105E+03  0.7818608E-02  0.1226700E+00
         -4   -1    0    0    0  501 -0.00000000000E+00  0.00000000000E+00  0.13006254845E+04  0.13006261046E+04  0.12700000000E+01 0.  1.
         21   -1    0    0  501  502  0.00000000000E+00 -0.00000000000E+00 -0.63259693015E+01  0.63259693015E+01  0.00000000000E+00 0. -1.
         25    2    1    2    0    0  0.21023051627E+02 -0.31066442468E+02  0.11658245772E+04  0.11731069576E+04  0.12500358655E+03 0.  0.
    9000005    1    3    3    0    0 -0.26225512981E+02 -0.48159191010E+02  0.94695083413E+03  0.94853780498E+03  0.10000000000E+01 0.  0.
    9000005    1    3    3    0    0  0.47248564608E+02  0.17092748542E+02  0.21887374302E+03  0.22456915259E+03  0.10000000000E+01 0.  0.
         -4    1    1    2    0  502 -0.21023051627E+02  0.31066442468E+02  0.12847493808E+03  0.13384511632E+03  0.12700000000E+01 0. -1.
<mgrwt>
<rscale>  1 0.13051049E+03</rscale>
<asrwt>0</asrwt>
<pdfrwt beam="2">  1       21 0.97322709E-03 0.13051049E+03</pdfrwt>
<pdfrwt beam="1">  1       -4 0.20010587E+00 0.13051049E+03</pdfrwt>
<totfact> 0.23101594E+04</totfact>
</mgrwt>
</event>
<event>
 6    4  0.6358868E-003  0.1404765E+03  0.7818608E-02  0.1212689E+00
          4   -1    0    0  502    0 -0.00000000000E+00  0.00000000000E+00  0.30982275998E+03  0.30982536291E+03  0.12700000000E+01 0. -1.
         21   -1    0    0  501  502  0.00000000000E+00 -0.00000000000E+00 -0.52346269810E+02  0.52346269810E+02  0.00000000000E+00 0.  1.
         25    2    1    2    0    0 -0.36298074540E+02 -0.52830417069E+02  0.26264531595E+03  0.29785263985E+03  0.12500011956E+03 0.  0.
    9000005    1    3    3    0    0  0.35682143801E+01  0.19317433228E+02  0.18017861968E+03  0.18124908378E+03  0.10000000000E+01 0.  0.
    9000005    1    3    3    0    0 -0.39866288920E+02 -0.72147850297E+02  0.82466696275E+02  0.11660355607E+03  0.10000000000E+01 0.  0.
          4    1    1    2  501    0  0.36298074540E+02  0.52830417069E+02 -0.51688257873E+01  0.64318992864E+02  0.12700000000E+01 0.  1.
<mgrwt>
<rscale>  1 0.14047645E+03</rscale>
<asrwt>0</asrwt>
<pdfrwt beam="2">  1       21 0.80532724E-02 0.14047645E+03</pdfrwt>
<pdfrwt beam="1">  1        4 0.47666424E-01 0.14047645E+03</pdfrwt>
<totfact> 0.20719503E+04</totfact>
</mgrwt>
</event>
<event>
 6    4  0.6358868E-003  0.1282118E+03  0.7818608E-02  0.1230133E+00
         21   -1    0    0  501  502  0.00000000000E+00  0.00000000000E+00  0.15487026174E+02  0.15487026174E+02  0.00000000000E+00 0.  1.
          4   -1    0    0  502    0 -0.00000000000E+00 -0.00000000000E+00 -0.44394624744E+03  0.44394806398E+03  0.12700000000E+01 0.  1.
         25    2    1    2    0    0 -0.27614293469E+02  0.71258290657E+01 -0.39585092329E+03  0.41609641643E+03  0.12499979061E+03 0.  0.
    9000005    1    3    3    0    0 -0.66514883184E+02 -0.21057590254E+02 -0.14789929541E+03  0.16353242301E+03  0.10000000000E+01 0.  0.
    9000005    1    3    3    0    0  0.38900589715E+02  0.28183419320E+02 -0.24795162788E+03  0.25256399342E+03  0.10000000000E+01 0.  0.
          4    1    1    2  501    0  0.27614293469E+02 -0.71258290657E+01 -0.32608297974E+02  0.43338673727E+02  0.12700000000E+01 0. -1.
<mgrwt>
<rscale>  1 0.12821183E+03</rscale>
<asrwt>0</asrwt>
<pdfrwt beam="1">  1       21 0.23826194E-02 0.12821183E+03</pdfrwt>
<pdfrwt beam="2">  1        4 0.68303568E-01 0.12821183E+03</pdfrwt>
<totfact> 0.74239829E+04</totfact>
</mgrwt>
</event>
<event>
 6    4  0.6358868E-003  0.1324706E+03  0.7818608E-02  0.1223835E+00
         -4   -1    0    0    0  501 -0.00000000000E+00  0.00000000000E+00  0.44062737660E+02  0.44081036173E+02  0.12700000000E+01 0. -1.
         21   -1    0    0  501  502  0.00000000000E+00 -0.00000000000E+00 -0.18811725319E+03  0.18811725319E+03  0.00000000000E+00 0. -1.
         25    2    1    2    0    0  0.43488376456E+02  0.56831821545E+01 -0.80640931541E+02  0.15508517128E+03  0.12499965226E+03 0.  0.
    9000005    1    3    3    0    0 -0.37007637896E+02 -0.51861981166E+01 -0.60948667240E+02  0.71499663999E+02  0.10000000000E+01 0.  0.
    9000005    1    3    3    0    0  0.80496014353E+02  0.10869380271E+02 -0.19692264301E+02  0.83585507281E+02  0.10000000000E+01 0.  0.
         -4    1    1    2    0  502 -0.43488376456E+02 -0.56831821545E+01 -0.63413583991E+02  0.77113118085E+02  0.12700000000E+01 0.  1.
<mgrwt>
<rscale>  1 0.13247056E+03</rscale>
<asrwt>0</asrwt>
<pdfrwt beam="2">  1       21 0.28941116E-01 0.13247056E+03</pdfrwt>
<pdfrwt beam="1">  1       -4 0.67806201E-02 0.13247056E+03</pdfrwt>
<totfact> 0.67108876E+04</totfact>
</mgrwt>
</event>
<event>
 6    4  0.6358868E-003  0.1269976E+03  0.7818608E-02  0.1231980E+00
         21   -1    0    0  501  502  0.00000000000E+00  0.00000000000E+00  0.31384443877E+03  0.31384443877E+03  0.00000000000E+00 0.  1.
          4   -1    0    0  502    0 -0.00000000000E+00 -0.00000000000E+00 -0.20451195344E+02  0.20490590304E+02  0.12700000000E+01 0.  1.
         25    2    1    2    0    0 -0.20910794956E+02  0.82183761140E+01  0.28163542542E+03  0.30894482947E+03  0.12499436689E+03 0.  0.
    9000005    1    3    3    0    0  0.49696898569E+02  0.11392139413E+02  0.16358807232E+03  0.17135232701E+03  0.10000000000E+01 0.  0.
    9000005    1    3    3    0    0 -0.70607693525E+02 -0.31737632991E+01  0.11804735310E+03  0.13759250246E+03  0.10000000000E+01 0.  0.
          4    1    1    2  501    0  0.20910794956E+02 -0.82183761140E+01  0.11757818006E+02  0.25390199603E+02  0.12700000000E+01 0. -1.
<mgrwt>
<rscale>  1 0.12699762E+03</rscale>
<asrwt>0</asrwt>
<pdfrwt beam="1">  1       21 0.48283756E-01 0.12699762E+03</pdfrwt>
<pdfrwt beam="2">  1        4 0.31495660E-02 0.12699762E+03</pdfrwt>
<totfact> 0.82518636E+04</totfact>
</mgrwt>
</event>
<event>
 6    4  0.6358868E-003  0.1276593E+03  0.7818608E-02  0.1230971E+00
         -4   -1    0    0    0  501 -0.00000000000E+00  0.00000000000E+00  0.62455055931E+02  0.62467967082E+02  0.12700000000E+01 0.  1.
         21   -1    0    0  501  502  0.00000000000E+00 -0.00000000000E+00 -0.14898705955E+03  0.14898705955E+03  0.00000000000E+00 0. -1.
         25    2    1    2    0    0  0.21595068055E+01  0.25630033240E+02 -0.69926382742E+01  0.12785068696E+03  0.12504134953E+03 0.  0.
    9000005    1    3    3    0    0  0.47130979589E+02 -0.29040686520E+02  0.65975555697E+01  0.55760366301E+02  0.10000000000E+01 0.  0.
    9000005    1    3    3    0    0 -0.44971472783E+02  0.54670719760E+02 -0.13590193844E+02  0.72090320654E+02  0.10000000000E+01 0.  0.
         -4    1    1    2    0  502 -0.21595068055E+01 -0.25630033240E+02 -0.79539365349E+02  0.83604339682E+02  0.12700000000E+01 0. -1.
<mgrwt>
<rscale>  1 0.12765932E+03</rscale>
<asrwt>0</asrwt>
<pdfrwt beam="2">  1       21 0.22921086E-01 0.12765932E+03</pdfrwt>
<pdfrwt beam="1">  1       -4 0.96098797E-02 0.12765932E+03</pdfrwt>
<totfact> 0.58343045E+04</totfact>
</mgrwt>
</event>
<event>
 6    4  0.6358868E-003  0.1908564E+03  0.7818608E-02  0.1157691E+00
          4   -1    0    0  502    0 -0.00000000000E+00  0.00000000000E+00  0.94340638420E+03  0.94340723903E+03  0.12700000000E+01 0. -1.
         21   -1    0    0  501  502  0.00000000000E+00 -0.00000000000E+00 -0.37180162019E+02  0.37180162019E+02  0.00000000000E+00 0.  1.
         25    2    1    2    0    0  0.11871717762E+03 -0.81894062877E+02  0.72098515199E+03  0.74581884953E+03  0.12500304447E+03 0.  0.
    9000005    1    3    3    0    0  0.95803042989E+02 -0.86928930675E+02  0.70646060339E+03  0.71820780153E+03  0.10000000000E+01 0.  0.
    9000005    1    3    3    0    0  0.22914134631E+02  0.50348677980E+01  0.14524548599E+02  0.27611047999E+02  0.10000000000E+01 0.  0.
          4    1    1    2  501    0 -0.11871717762E+03  0.81894062877E+02  0.18524107020E+03  0.23476855152E+03  0.12700000000E+01 0.  1.
<mgrwt>
<rscale>  1 0.19085640E+03</rscale>
<asrwt>0</asrwt>
<pdfrwt beam="2">  1       21 0.57200256E-02 0.19085640E+03</pdfrwt>
<pdfrwt beam="1">  1        4 0.14514116E+00 0.19085640E+03</pdfrwt>
<totfact> 0.31078305E+03</totfact>
</mgrwt>
</event>
<event>
 6    4  0.6358868E-003  0.1269166E+03  0.7818608E-02  0.1232104E+00
          4   -1    0    0  502    0 -0.00000000000E+00  0.00000000000E+00  0.39287252291E+02  0.39307773945E+02  0.12700000000E+01 0. -1.
         21   -1    0    0  501  502  0.00000000000E+00 -0.00000000000E+00 -0.17738952729E+03  0.17738952729E+03  0.00000000000E+00 0.  1.
         25    2    1    2    0    0 -0.52140728856E+01 -0.21325140271E+02 -0.69591511966E+02  0.14474394332E+03  0.12500352966E+03 0.  0.
    9000005    1    3    3    0    0 -0.21631499555E+02 -0.23904793962E+01 -0.10169626643E+03  0.10400368633E+03  0.10000000000E+01 0.  0.
    9000005    1    3    3    0    0  0.16417426669E+02 -0.18934660875E+02  0.32104754461E+02  0.40740256993E+02  0.10000000000E+01 0.  0.
          4    1    1    2  501    0  0.52140728856E+01  0.21325140271E+02 -0.68510763030E+02  0.71953357910E+02  0.12700000000E+01 0.  1.
<mgrwt>
<rscale>  1 0.12691663E+03</rscale>
<asrwt>0</asrwt>
<pdfrwt beam="2">  1       21 0.27290696E-01 0.12691663E+03</pdfrwt>
<pdfrwt beam="1">  1        4 0.60461210E-02 0.12691663E+03</pdfrwt>
<totfact> 0.90038227E+04</totfact>
</mgrwt>
</event>
<event>
 6    4  0.6358868E-003  0.1278392E+03  0.7818608E-02  0.1230698E+00
         21   -1    0    0  501  502  0.00000000000E+00  0.00000000000E+00  0.11952340141E+02  0.11952340141E+02  0.00000000000E+00 0.  1.
         -4   -1    0    0    0  501 -0.00000000000E+00 -0.00000000000E+00 -0.50203046089E+03  0.50203206726E+03  0.12700000000E+01 0.  1.
         25    2    1    2    0    0 -0.58769540709E+01  0.26136357555E+02 -0.39299063120E+03  0.41326081880E+03  0.12500088146E+03 0.  0.
    9000005    1    3    3    0    0 -0.32684980167E+01 -0.30791196177E+02 -0.31575822083E+03  0.31727438419E+03  0.10000000000E+01 0.  0.
    9000005    1    3    3    0    0 -0.26084560542E+01  0.56927553732E+02 -0.77232410377E+02  0.95986434612E+02  0.10000000000E+01 0.  0.
         -4    1    1    2    0  502  0.58769540709E+01 -0.26136357555E+02 -0.97087489543E+02  0.10072358860E+03  0.12700000000E+01 0. -1.
<mgrwt>
<rscale>  1 0.12783923E+03</rscale>
<asrwt>0</asrwt>
<pdfrwt beam="1">  1       21 0.18388222E-02 0.12783923E+03</pdfrwt>
<pdfrwt beam="2">  1       -4 0.77240742E-01 0.12783923E+03</pdfrwt>
<totfact> 0.86385662E+04</totfact>
</mgrwt>
</event>
<event>
 6    4  0.6358868E-003  0.1365943E+03  0.7818608E-02  0.1217986E+00
         -4   -1    0    0    0  501 -0.00000000000E+00  0.00000000000E+00  0.43329153672E+03  0.43329339793E+03  0.12700000000E+01 0.  1.
         21   -1    0    0  501  502  0.00000000000E+00 -0.00000000000E+00 -0.28263623910E+02  0.28263623910E+02  0.00000000000E+00 0.  1.
         25    2    1    2    0    0 -0.31816069346E+00  0.55051710700E+02  0.15980683301E+03  0.21022898331E+03  0.12500883756E+03 0.  0.
    9000005    1    3    3    0    0 -0.25538736919E+02 -0.28324437334E+02  0.14506855456E+02  0.40816046954E+02  0.10000000000E+01 0.  0.
    9000005    1    3    3    0    0  0.25220576225E+02  0.83376148035E+02  0.14529997756E+03  0.16941293636E+03  0.10000000000E+01 0.  0.
         -4    1    1    2    0  502  0.31816069346E+00 -0.55051710700E+02  0.24522107979E+03  0.25132803853E+03  0.12700000000E+01 0. -1.
<mgrwt>
<rscale>  1 0.13659430E+03</rscale>
<asrwt>0</asrwt>
<pdfrwt beam="2">  1       21 0.43482501E-02 0.13659430E+03</pdfrwt>
<pdfrwt beam="1">  1       -4 0.66662570E-01 0.13659430E+03</pdfrwt>
<totfact> 0.29287290E+04</totfact>
</mgrwt>
</event>
<event>
 6    4  0.6358868E-003  0.1318299E+03  0.7818608E-02  0.1224765E+00
         -4   -1    0    0    0  501 -0.00000000000E+00  0.00000000000E+00  0.14421689682E+02  0.14477500934E+02  0.12700000000E+01 0. -1.
         21   -1    0    0  501  502  0.00000000000E+00 -0.00000000000E+00 -0.74563049393E+03  0.74563049393E+03  0.00000000000E+00 0.  1.
         25    2    1    2    0    0 -0.22635482203E+01 -0.41815013633E+02 -0.31061423401E+03  0.33743196712E+03  0.12500204418E+03 0.  0.
    9000005    1    3    3    0    0 -0.30797389252E+02  0.12172943002E+02 -0.24712799120E+03  0.24933893350E+03  0.10000000000E+01 0.  0.
    9000005    1    3    3    0    0  0.28533841031E+02 -0.53987956635E+02 -0.63486242810E+02  0.88093033617E+02  0.10000000000E+01 0.  0.
         -4    1    1    2    0  502  0.22635482203E+01  0.41815013633E+02 -0.42059457024E+03  0.42267602774E+03  0.12700000000E+01 0.  1.
<mgrwt>
<rscale>  1 0.13182993E+03</rscale>
<asrwt>0</asrwt>
<pdfrwt beam="2">  1       21 0.11471239E+00 0.13182993E+03</pdfrwt>
<pdfrwt beam="1">  1       -4 0.22230976E-02 0.13182993E+03</pdfrwt>
<totfact> 0.20966038E+04</totfact>
</mgrwt>
</event>
<event>
 6    4  0.6358868E-003  0.1298822E+03  0.7818608E-02  0.1227631E+00
         21   -1    0    0  501  502  0.00000000000E+00  0.00000000000E+00  0.73214580865E+03  0.73214580865E+03  0.00000000000E+00 0. -1.
          4   -1    0    0  502    0 -0.00000000000E+00 -0.00000000000E+00 -0.10619404303E+02  0.10695075864E+02  0.12700000000E+01 0. -1.
         25    2    1    2    0    0 -0.25374240437E+02  0.24492434114E+02  0.43003195027E+03  0.44921806342E+03  0.12500263536E+03 0.  0.
    9000005    1    3    3    0    0 -0.65403614840E+02  0.17499984225E+02  0.37350934867E+03  0.37959730745E+03  0.10000000000E+01 0.  0.
    9000005    1    3    3    0    0  0.40029374403E+02  0.69924498889E+01  0.56522601602E+02  0.69620755974E+02  0.10000000000E+01 0.  0.
          4    1    1    2  501    0  0.25374240437E+02 -0.24492434114E+02  0.29149445408E+03  0.29362282109E+03  0.12700000000E+01 0.  1.
<mgrwt>
<rscale>  1 0.12988222E+03</rscale>
<asrwt>0</asrwt>
<pdfrwt beam="1">  1       21 0.11263778E+00 0.12988222E+03</pdfrwt>
<pdfrwt beam="2">  1        4 0.16396607E-02 0.12988222E+03</pdfrwt>
<totfact> 0.34930537E+04</totfact>
</mgrwt>
</event>
<event>
 6    4  0.6358868E-003  0.1305628E+03  0.7818608E-02  0.1226623E+00
          4   -1    0    0  502    0 -0.00000000000E+00  0.00000000000E+00  0.12990141219E+02  0.13052075271E+02  0.12700000000E+01 0. -1.
         21   -1    0    0  501  502  0.00000000000E+00 -0.00000000000E+00 -0.12690999007E+04  0.12690999007E+04  0.00000000000E+00 0.  1.
         25    2    1    2    0    0 -0.18441131965E+01  0.37679861338E+02 -0.32454707537E+03  0.34982487670E+03  0.12499386995E+03 0.  0.
    9000005    1    3    3    0    0  0.14186556095E+02 -0.14107620397E+02 -0.27695842388E+03  0.27768192574E+03  0.10000000000E+01 0.  0.
    9000005    1    3    3    0    0 -0.16030669291E+02  0.51787481735E+02 -0.47588651495E+02  0.72142950962E+02  0.10000000000E+01 0.  0.
          4    1    1    2  501    0  0.18441131965E+01 -0.37679861338E+02 -0.93156268413E+03  0.93232709929E+03  0.12700000000E+01 0.  1.
<mgrwt>
<rscale>  1 0.13056278E+03</rscale>
<asrwt>0</asrwt>
<pdfrwt beam="2">  1       21 0.19524616E+00 0.13056278E+03</pdfrwt>
<pdfrwt beam="1">  1        4 0.20032961E-02 0.13056278E+03</pdfrwt>
<totfact> 0.61475685E+03</totfact>
</mgrwt>
</event>
<event>
 6    4  0.6358868E-003  0.1426869E+03  0.7818608E-02  0.1209759E+00
          4   -1    0    0  502    0 -0.00000000000E+00  0.00000000000E+00  0.54681714947E+03  0.54681862428E+03  0.12700000000E+01 0. -1.
         21   -1    0    0  501  502  0.00000000000E+00 -0.00000000000E+00 -0.21425935179E+02  0.21425935179E+02  0.00000000000E+00 0.  1.
         25    2    1    2    0    0 -0.30962884065E+02 -0.61448341615E+02  0.40721412140E+03  0.43148916811E+03  0.12499985062E+03 0.  0.
    9000005    1    3    3    0    0  0.22025416382E+02  0.83222374126E+01  0.25322138406E+03  0.25431564629E+03  0.10000000000E+01 0.  0.
    9000005    1    3    3    0    0 -0.52988300447E+02 -0.69770579028E+02  0.15399273734E+03  0.17717352183E+03  0.10000000000E+01 0.  0.
          4    1    1    2  501    0  0.30962884065E+02  0.61448341615E+02  0.11817709289E+03  0.13675539134E+03  0.12700000000E+01 0.  1.
<mgrwt>
<rscale>  1 0.14268694E+03</rscale>
<asrwt>0</asrwt>
<pdfrwt beam="2">  1       21 0.32962981E-02 0.14268694E+03</pdfrwt>
<pdfrwt beam="1">  1        4 0.84128713E-01 0.14268694E+03</pdfrwt>
<totfact> 0.28027680E+04</totfact>
</mgrwt>
</event>
<event>
 6    4  0.6358868E-003  0.1707809E+03  0.7818608E-02  0.1177036E+00
         -4   -1    0    0    0  501 -0.00000000000E+00  0.00000000000E+00  0.16228902201E+04  0.16228907170E+04  0.12700000000E+01 0. -1.
         21   -1    0    0  501  502  0.00000000000E+00 -0.00000000000E+00 -0.13586748433E+02  0.13586748433E+02  0.00000000000E+00 0.  1.
         25    2    1    2    0    0  0.26519144572E+02 -0.11329538867E+03  0.11525530748E+04  0.11651371977E+04  0.12500795567E+03 0.  0.
    9000005    1    3    3    0    0 -0.42571848242E+02 -0.66373381051E+01  0.33629582839E+03  0.33904616310E+03  0.10000000000E+01 0.  0.
    9000005    1    3    3    0    0  0.69090992814E+02 -0.10665805056E+03  0.81625724644E+03  0.82609103458E+03  0.10000000000E+01 0.  0.
         -4    1    1    2    0  502 -0.26519144572E+02  0.11329538867E+03  0.45675039680E+03  0.47134026774E+03  0.12700000000E+01 0.  1.
<mgrwt>
<rscale>  1 0.17078085E+03</rscale>
<asrwt>0</asrwt>
<pdfrwt beam="2">  1       21 0.20902703E-02 0.17078085E+03</pdfrwt>
<pdfrwt beam="1">  1       -4 0.24967987E+00 0.17078085E+03</pdfrwt>
<totfact> 0.35008418E+03</totfact>
</mgrwt>
</event>
<event>
 6    4  0.6358868E-003  0.1272255E+03  0.7818608E-02  0.1231632E+00
         21   -1    0    0  501  502  0.00000000000E+00  0.00000000000E+00  0.51822862537E+01  0.51822862537E+01  0.00000000000E+00 0. -1.
          4   -1    0    0  502    0 -0.00000000000E+00 -0.00000000000E+00 -0.10989500853E+04  0.10989508191E+04  0.12700000000E+01 0. -1.
         25    2    1    2    0    0 -0.19092399408E+02  0.14001895931E+02 -0.92059447853E+03  0.92934413364E+03  0.12500300811E+03 0.  0.
    9000005    1    3    3    0    0 -0.29369611566E+02 -0.30137178727E+02 -0.11476853253E+03  0.12224418058E+03  0.10000000000E+01 0.  0.
    9000005    1    3    3    0    0  0.10277212158E+02  0.44139074658E+02 -0.80582594600E+03  0.80709995307E+03  0.10000000000E+01 0.  0.
          4    1    1    2  501    0  0.19092399408E+02 -0.14001895931E+02 -0.17317332049E+03  0.17478897172E+03  0.12700000000E+01 0.  1.
<mgrwt>
<rscale>  1 0.12722549E+03</rscale>
<asrwt>0</asrwt>
<pdfrwt beam="1">  1       21 0.79727429E-03 0.12722549E+03</pdfrwt>
<pdfrwt beam="2">  1        4 0.16908138E+00 0.12722549E+03</pdfrwt>
<totfact> 0.50030055E+04</totfact>
</mgrwt>
</event>
<event>
 6    4  0.6358868E-003  0.1284379E+03  0.7818608E-02  0.1229792E+00
         21   -1    0    0  501  502  0.00000000000E+00  0.00000000000E+00  0.12423427357E+02  0.12423427357E+02  0.00000000000E+00 0. -1.
          4   -1    0    0  502    0 -0.00000000000E+00 -0.00000000000E+00 -0.80727778997E+03  0.80727878894E+03  0.12700000000E+01 0. -1.
         25    2    1    2    0    0 -0.29520984116E+02  0.94643850170E-01 -0.77128264210E+03  0.78190358711E+03  0.12499923228E+03 0.  0.
    9000005    1    3    3    0    0 -0.54534203856E+02 -0.38998276549E+02 -0.62113808961E+03  0.62474664572E+03  0.10000000000E+01 0.  0.
    9000005    1    3    3    0    0  0.25013219740E+02  0.39092920399E+02 -0.15014455249E+03  0.15715694139E+03  0.10000000000E+01 0.  0.
          4    1    1    2  501    0  0.29520984116E+02 -0.94643850170E-01 -0.23571720510E+02  0.37798629187E+02  0.12700000000E+01 0.  1.
<mgrwt>
<rscale>  1 0.12843794E+03</rscale>
<asrwt>0</asrwt>
<pdfrwt beam="1">  1       21 0.19112966E-02 0.12843794E+03</pdfrwt>
<pdfrwt beam="2">  1        4 0.12420165E+00 0.12843794E+03</pdfrwt>
<totfact> 0.27243317E+04</totfact>
</mgrwt>
</event>
<event>
 6    4  0.6358868E-003  0.1311077E+03  0.7818608E-02  0.1225821E+00
         21   -1    0    0  501  502  0.00000000000E+00  0.00000000000E+00  0.96638908784E+02  0.96638908784E+02  0.00000000000E+00 0. -1.
          4   -1    0    0  502    0 -0.00000000000E+00 -0.00000000000E+00 -0.76508596639E+02  0.76519136558E+02  0.12700000000E+01 0.  1.
         25    2    1    2    0    0 -0.76523125530E+01  0.38797578420E+02  0.63495489843E+01  0.13126135917E+03  0.12500167063E+03 0.  0.
    9000005    1    3    3    0    0  0.18303093002E+02  0.30153067125E+02  0.60810415221E+02  0.70307305949E+02  0.10000000000E+01 0.  0.
    9000005    1    3    3    0    0 -0.25955405555E+02  0.86445112959E+01 -0.54460866237E+02  0.60954053223E+02  0.10000000000E+01 0.  0.
          4    1    1    2  501    0  0.76523125530E+01 -0.38797578420E+02  0.13780763160E+02  0.41896686169E+02  0.12700000000E+01 0. -1.
<mgrwt>
<rscale>  1 0.13110769E+03</rscale>
<asrwt>0</asrwt>
<pdfrwt beam="1">  1       21 0.14867524E-01 0.13110769E+03</pdfrwt>
<pdfrwt beam="2">  1        4 0.11772006E-01 0.13110769E+03</pdfrwt>
<totfact> 0.91951971E+04</totfact>
</mgrwt>
</event>
<event>
 6    4  0.6358868E-003  0.1267341E+03  0.7818608E-02  0.1232384E+00
         21   -1    0    0  501  502  0.00000000000E+00  0.00000000000E+00  0.90697305646E+01  0.90697305646E+01  0.00000000000E+00 0.  1.
          4   -1    0    0  502    0 -0.00000000000E+00 -0.00000000000E+00 -0.63927764030E+03  0.63927890180E+03  0.12700000000E+01 0.  1.
         25    2    1    2    0    0  0.19023167907E+02 -0.81579885019E+01 -0.58558890228E+03  0.59914596557E+03  0.12503236337E+03 0.  0.
    9000005    1    3    3    0    0  0.59425343135E+02  0.21322462085E+02 -0.18572755297E+03  0.19616763935E+03  0.10000000000E+01 0.  0.
    9000005    1    3    3    0    0 -0.40402175229E+02 -0.29480450587E+02 -0.39986134930E+03  0.40297832621E+03  0.10000000000E+01 0.  0.
          4    1    1    2  501    0 -0.19023167907E+02  0.81579885019E+01 -0.44619007462E+02  0.49202666803E+02  0.12700000000E+01 0. -1.
<mgrwt>
<rscale>  1 0.12673407E+03</rscale>
<asrwt>0</asrwt>
<pdfrwt beam="1">  1       21 0.13953429E-02 0.12673407E+03</pdfrwt>
<pdfrwt beam="2">  1        4 0.98357360E-01 0.12673407E+03</pdfrwt>
<totfact> 0.78019270E+04</totfact>
</mgrwt>
</event>
<event>
 6    4  0.6358868E-003  0.2029076E+03  0.7818608E-02  0.1147309E+00
          4   -1    0    0  502    0 -0.00000000000E+00  0.00000000000E+00  0.28668649945E+03  0.28668931244E+03  0.12700000000E+01 0.  1.
         21   -1    0    0  501  502  0.00000000000E+00 -0.00000000000E+00 -0.14768233411E+03  0.14768233411E+03  0.00000000000E+00 0. -1.
         25    2    1    2    0    0 -0.16116009062E+02 -0.15902032599E+03  0.17791746829E+03  0.26986314259E+03  0.12499720149E+03 0.  0.
    9000005    1    3    3    0    0  0.34074398506E+02 -0.45922411908E+02  0.52451159702E+01  0.57432079803E+02  0.10000000000E+01 0.  0.
    9000005    1    3    3    0    0 -0.50190407568E+02 -0.11309791408E+03  0.17267235232E+03  0.21243106279E+03  0.10000000000E+01 0.  0.
          4    1    1    2  501    0  0.16116009062E+02  0.15902032599E+03 -0.38913302955E+02  0.16450850395E+03  0.12700000000E+01 0. -1.
<mgrwt>
<rscale>  1 0.20290759E+03</rscale>
<asrwt>0</asrwt>
<pdfrwt beam="2">  1       21 0.22720359E-01 0.20290759E+03</pdfrwt>
<pdfrwt beam="1">  1        4 0.44106252E-01 0.20290759E+03</pdfrwt>
<totfact> 0.38285545E+03</totfact>
</mgrwt>
</event>
<event>
 6    4  0.6358868E-003  0.1284784E+03  0.7818608E-02  0.1229731E+00
         21   -1    0    0  501  502  0.00000000000E+00  0.00000000000E+00  0.32596422267E+02  0.32596422267E+02  0.00000000000E+00 0.  1.
          4   -1    0    0  502    0 -0.00000000000E+00 -0.00000000000E+00 -0.55985592889E+03  0.55985736935E+03  0.12700000000E+01 0. -1.
         25    2    1    2    0    0 -0.23351601852E+02 -0.18341352906E+02 -0.54357310110E+03  0.55855026968E+03  0.12499993992E+03 0.  0.
    9000005    1    3    3    0    0 -0.50147756889E+02 -0.46962147941E+02 -0.17674162679E+03  0.18962817170E+03  0.10000000000E+01 0.  0.
    9000005    1    3    3    0    0  0.26796155037E+02  0.28620795035E+02 -0.36683147431E+03  0.36892209798E+03  0.10000000000E+01 0.  0.
          4    1    1    2  501    0  0.23351601852E+02  0.18341352906E+02  0.16313594474E+02  0.33903521943E+02  0.12700000000E+01 0.  1.
<mgrwt>
<rscale>  1 0.12847835E+03</rscale>
<asrwt>0</asrwt>
<pdfrwt beam="1">  1       21 0.50148344E-02 0.12847835E+03</pdfrwt>
<pdfrwt beam="2">  1        4 0.86133693E-01 0.12847835E+03</pdfrwt>
<totfact> 0.13078219E+04</totfact>
</mgrwt>
</event>
<event>
 6    4  0.6358868E-003  0.1305780E+03  0.7818608E-02  0.1226601E+00
         21   -1    0    0  501  502  0.00000000000E+00  0.00000000000E+00  0.13623285601E+02  0.13623285601E+02  0.00000000000E+00 0.  1.
          4   -1    0    0  502    0 -0.00000000000E+00 -0.00000000000E+00 -0.14051044447E+04  0.14051050186E+04  0.12700000000E+01 0. -1.
         25    2    1    2    0    0 -0.82516331795E+01  0.36796383232E+02 -0.13681474480E+04  0.13743646001E+04  0.12501420470E+03 0.  0.
    9000005    1    3    3    0    0  0.23345772433E+02  0.76389081483E+02 -0.85134305433E+03  0.85508263520E+03  0.10000000000E+01 0.  0.
    9000005    1    3    3    0    0 -0.31597405613E+02 -0.39592698251E+02 -0.51680439363E+03  0.51928196490E+03  0.10000000000E+01 0.  0.
          4    1    1    2  501    0  0.82516331795E+01 -0.36796383232E+02 -0.23333711117E+02  0.44363704124E+02  0.12700000000E+01 0.  1.
<mgrwt>
<rscale>  1 0.13057800E+03</rscale>
<asrwt>0</asrwt>
<pdfrwt beam="1">  1       21 0.20958911E-02 0.13057800E+03</pdfrwt>
<pdfrwt beam="2">  1        4 0.21617441E+00 0.13057800E+03</pdfrwt>
<totfact> 0.54252832E+03</totfact>
</mgrwt>
</event>
<event>
 6    4  0.6358868E-003  0.1273021E+03  0.7818608E-02  0.1231515E+00
          4   -1    0    0  502    0 -0.00000000000E+00  0.00000000000E+00  0.13094384979E+03  0.13095000839E+03  0.12700000000E+01 0. -1.
         21   -1    0    0  501  502  0.00000000000E+00 -0.00000000000E+00 -0.10336289753E+03  0.10336289753E+03  0.00000000000E+00 0. -1.
         25    2    1    2    0    0 -0.84097655332E+01  0.22441030019E+02  0.97525768525E+02  0.16036553135E+03  0.12502601383E+03 0.  0.
    9000005    1    3    3    0    0  0.17491248227E+02 -0.39880575059E+02  0.22677160859E+01  0.43618190790E+02  0.10000000000E+01 0.  0.
    9000005    1    3    3    0    0 -0.25901013760E+02  0.62321605077E+02  0.95258052439E+02  0.11674734056E+03  0.10000000000E+01 0.  0.
          4    1    1    2  501    0  0.84097655332E+01 -0.22441030019E+02 -0.69944816257E+02  0.73947374571E+02  0.12700000000E+01 0.  1.
<mgrwt>
<rscale>  1 0.12730211E+03</rscale>
<asrwt>0</asrwt>
<pdfrwt beam="2">  1       21 0.15901984E-01 0.12730211E+03</pdfrwt>
<pdfrwt beam="1">  1        4 0.20146282E-01 0.12730211E+03</pdfrwt>
<totfact> 0.31686184E+04</totfact>
</mgrwt>
</event>
<event>
 6    4  0.6358868E-003  0.1311951E+03  0.7818608E-02  0.1225693E+00
         -4   -1    0    0    0  501 -0.00000000000E+00  0.00000000000E+00  0.31569168535E+02  0.31594703702E+02  0.12700000000E+01 0. -1.
         21   -1    0    0  501  502  0.00000000000E+00 -0.00000000000E+00 -0.46759633168E+03  0.46759633168E+03  0.00000000000E+00 0.  1.
         25    2    1    2    0    0  0.26845318765E+02  0.29432669459E+02 -0.11135503664E+03  0.17208164114E+03  0.12500077545E+03 0.  0.
    9000005    1    3    3    0    0 -0.36062129963E+02  0.50767612312E+02 -0.70591446088E+02  0.94138089731E+02  0.10000000000E+01 0.  0.
    9000005    1    3    3    0    0  0.62907448728E+02 -0.21334942854E+02 -0.40763590554E+02  0.77943551413E+02  0.10000000000E+01 0.  0.
         -4    1    1    2    0  502 -0.26845318765E+02 -0.29432669459E+02 -0.32467212650E+03  0.32710939423E+03  0.12700000000E+01 0.  1.
<mgrwt>
<rscale>  1 0.13119507E+03</rscale>
<asrwt>0</asrwt>
<pdfrwt beam="2">  1       21 0.71937892E-01 0.13119507E+03</pdfrwt>
<pdfrwt beam="1">  1       -4 0.48588924E-02 0.13119507E+03</pdfrwt>
<totfact> 0.17892235E+04</totfact>
</mgrwt>
</event>
<event>
 6    4  0.6358868E-003  0.1341376E+03  0.7818608E-02  0.1221442E+00
         21   -1    0    0  501  502  0.00000000000E+00  0.00000000000E+00  0.34681566387E+02  0.34681566387E+02  0.00000000000E+00 0.  1.
          4   -1    0    0  502    0 -0.00000000000E+00 -0.00000000000E+00 -0.24794421403E+03  0.24794746655E+03  0.12700000000E+01 0. -1.
         25    2    1    2    0    0  0.50412700858E+01 -0.48400466747E+02 -0.17619191328E+03  0.22144184612E+03  0.12499952528E+03 0.  0.
    9000005    1    3    3    0    0  0.18006336592E+02  0.26717014821E+02 -0.31942813575E+01  0.32391827238E+02  0.10000000000E+01 0.  0.
    9000005    1    3    3    0    0 -0.12965066506E+02 -0.75117481569E+02 -0.17299763192E+03  0.18905001888E+03  0.10000000000E+01 0.  0.
          4    1    1    2  501    0 -0.50412700858E+01  0.48400466747E+02 -0.37070734361E+02  0.61187186825E+02  0.12700000000E+01 0.  1.
<mgrwt>
<rscale>  1 0.13413762E+03</rscale>
<asrwt>0</asrwt>
<pdfrwt beam="1">  1       21 0.53356254E-02 0.13413762E+03</pdfrwt>
<pdfrwt beam="2">  1        4 0.38147304E-01 0.13413762E+03</pdfrwt>
<totfact> 0.64798659E+04</totfact>
</mgrwt>
</event>
<event>
 6    4  0.6358868E-003  0.1279240E+03  0.7818608E-02  0.1230569E+00
         -4   -1    0    0    0  501 -0.00000000000E+00  0.00000000000E+00  0.13719463118E+04  0.13719468996E+04  0.12700000000E+01 0.  1.
         21   -1    0    0  501  502  0.00000000000E+00 -0.00000000000E+00 -0.44341261217E+02  0.44341261217E+02  0.00000000000E+00 0. -1.
         25    2    1    2    0    0 -0.21372985892E+02  0.17209055925E+02  0.13643925334E+04  0.13703764203E+04  0.12494635728E+03 0.  0.
    9000005    1    3    3    0    0 -0.16051716538E+02 -0.53953651863E+02  0.55897997531E+03  0.56180803389E+03  0.10000000000E+01 0.  0.
    9000005    1    3    3    0    0 -0.53212693539E+01  0.71162707788E+02  0.80541255805E+03  0.80856838644E+03  0.10000000000E+01 0.  0.
         -4    1    1    2    0  502  0.21372985892E+02 -0.17209055925E+02 -0.36787482743E+02  0.45911740528E+02  0.12700000000E+01 0. -1.
<mgrwt>
<rscale>  1 0.12792399E+03</rscale>
<asrwt>0</asrwt>
<pdfrwt beam="2">  1       21 0.68217335E-02 0.12792399E+03</pdfrwt>
<pdfrwt beam="1">  1       -4 0.21107008E+00 0.12792399E+03</pdfrwt>
<totfact> 0.82154241E+02</totfact>
</mgrwt>
</event>
<event>
 6    4  0.6358868E-003  0.1312250E+03  0.7818608E-02  0.1225649E+00
          4   -1    0    0  502    0 -0.00000000000E+00  0.00000000000E+00  0.25765598634E+03  0.25765911627E+03  0.12700000000E+01 0. -1.
         21   -1    0    0  501  502  0.00000000000E+00 -0.00000000000E+00 -0.57502862813E+02  0.57502862813E+02  0.00000000000E+00 0. -1.
         25    2    1    2    0    0  0.17495090238E+02  0.35938908231E+02  0.23031244892E+03  0.26507324667E+03  0.12498927419E+03 0.  0.
    9000005    1    3    3    0    0  0.38684116875E+02 -0.36472709277E-01  0.88353609492E+01  0.39692893971E+02  0.10000000000E+01 0.  0.
    9000005    1    3    3    0    0 -0.21189026637E+02  0.35975380940E+02  0.22147708797E+03  0.22538035270E+03  0.10000000000E+01 0.  0.
          4    1    1    2  501    0 -0.17495090238E+02 -0.35938908231E+02 -0.30159325393E+02  0.50088732420E+02  0.12700000000E+01 0.  1.
<mgrwt>
<rscale>  1 0.13122501E+03</rscale>
<asrwt>0</asrwt>
<pdfrwt beam="2">  1       21 0.88465944E-02 0.13122501E+03</pdfrwt>
<pdfrwt beam="1">  1        4 0.39640701E-01 0.13122501E+03</pdfrwt>
<totfact> 0.25245193E+04</totfact>
</mgrwt>
</event>
<event>
 6    4  0.6358868E-003  0.1389825E+03  0.7818608E-02  0.1214705E+00
         21   -1    0    0  501  502  0.00000000000E+00  0.00000000000E+00  0.23322464460E+02  0.23322464460E+02  0.00000000000E+00 0.  1.
         -4   -1    0    0    0  501 -0.00000000000E+00 -0.00000000000E+00 -0.44434218609E+03  0.44434400101E+03  0.12700000000E+01 0.  1.
         25    2    1    2    0    0 -0.60407791310E+02  0.65172708775E+01 -0.33162671408E+03  0.35957253054E+03  0.12499820462E+03 0.  0.
    9000005    1    3    3    0    0  0.23133357238E+02 -0.37122320457E+02 -0.12576217614E+03  0.13315533726E+03  0.10000000000E+01 0.  0.
    9000005    1    3    3    0    0 -0.83541148548E+02  0.43639591335E+02 -0.20586453794E+03  0.22641719328E+03  0.10000000000E+01 0.  0.
         -4    1    1    2    0  502  0.60407791310E+02 -0.65172708775E+01 -0.89393007546E+02  0.10809393493E+03  0.12700000000E+01 0. -1.
<mgrwt>
<rscale>  1 0.13898247E+03</rscale>
<asrwt>0</asrwt>
<pdfrwt beam="1">  1       21 0.35880713E-02 0.13898247E+03</pdfrwt>
<pdfrwt beam="2">  1       -4 0.68363139E-01 0.13898247E+03</pdfrwt>
<totfact> 0.38269787E+04</totfact>
</mgrwt>
</event>
<event>
 6    4  0.6358868E-003  0.1345422E+03  0.7818608E-02  0.1220867E+00
          4   -1    0    0  502    0 -0.00000000000E+00  0.00000000000E+00  0.12092092319E+04  0.12092098988E+04  0.12700000000E+01 0. -1.
         21   -1    0    0  501  502  0.00000000000E+00 -0.00000000000E+00 -0.10127946487E+02  0.10127946487E+02  0.00000000000E+00 0.  1.
         25    2    1    2    0    0 -0.21677044784E+02 -0.44794975761E+02  0.11025310549E+04  0.11107098377E+04  0.12500052968E+03 0.  0.
    9000005    1    3    3    0    0 -0.12664274176E+02  0.65177820214E+01  0.11229592020E+02  0.18165050504E+02  0.10000000000E+01 0.  0.
    9000005    1    3    3    0    0 -0.90127706081E+01 -0.51312757783E+02  0.10913014629E+04  0.10925447872E+04  0.10000000000E+01 0.  0.
          4    1    1    2  501    0  0.21677044784E+02  0.44794975761E+02  0.96550230473E+02  0.10862800757E+03  0.12700000000E+01 0.  1.
<mgrwt>
<rscale>  1 0.13454225E+03</rscale>
<asrwt>0</asrwt>
<pdfrwt beam="2">  1       21 0.15581466E-02 0.13454225E+03</pdfrwt>
<pdfrwt beam="1">  1        4 0.18603825E+00 0.13454225E+03</pdfrwt>
<totfact> 0.13467222E+04</totfact>
</mgrwt>
</event>
<event>
 6    4  0.6358868E-003  0.1330074E+03  0.7818608E-02  0.1223060E+00
         21   -1    0    0  501  502  0.00000000000E+00  0.00000000000E+00  0.61256901089E+03  0.61256901089E+03  0.00000000000E+00 0. -1.
         -4   -1    0    0    0  501 -0.00000000000E+00 -0.00000000000E+00 -0.63800262352E+02  0.63812901330E+02  0.12700000000E+01 0.  1.
         25    2    1    2    0    0 -0.30772690360E+02 -0.33394580736E+02  0.75091603703E+01  0.13321921912E+03  0.12501526450E+03 0.  0.
    9000005    1    3    3    0    0  0.45516190624E+01  0.43601672409E+02  0.18878526978E+02  0.47741196611E+02  0.10000000000E+01 0.  0.
    9000005    1    3    3    0    0 -0.35324309422E+02 -0.76996253145E+02 -0.11369366608E+02  0.85478022506E+02  0.10000000000E+01 0.  0.
         -4    1    1    2    0  502  0.30772690360E+02  0.33394580736E+02  0.54125958817E+03  0.54316269310E+03  0.12700000000E+01 0. -1.
<mgrwt>
<rscale>  1 0.13300742E+03</rscale>
<asrwt>0</asrwt>
<pdfrwt beam="1">  1       21 0.94241382E-01 0.13300742E+03</pdfrwt>
<pdfrwt beam="2">  1       -4 0.98164989E-02 0.13300742E+03</pdfrwt>
<totfact> 0.30778140E+03</totfact>
</mgrwt>
</event>
<event>
 6    4  0.6358868E-003  0.1303740E+03  0.7818608E-02  0.1226902E+00
          4   -1    0    0  502    0 -0.00000000000E+00  0.00000000000E+00  0.26610972046E+02  0.26641259979E+02  0.12700000000E+01 0.  1.
         21   -1    0    0  501  502  0.00000000000E+00 -0.00000000000E+00 -0.31949325570E+03  0.31949325570E+03  0.00000000000E+00 0. -1.
         25    2    1    2    0    0  0.39770989840E+01  0.36819830601E+02 -0.15101051209E+03  0.19950324443E+03  0.12500341009E+03 0.  0.
    9000005    1    3    3    0    0 -0.55890661477E+02 -0.37862472524E+01 -0.83467242514E+02  0.10052801740E+03  0.10000000000E+01 0.  0.
    9000005    1    3    3    0    0  0.59867760461E+02  0.40606077853E+02 -0.67543269576E+02  0.98975227033E+02  0.10000000000E+01 0.  0.
          4    1    1    2  501    0 -0.39770989840E+01 -0.36819830601E+02 -0.14187177157E+03  0.14663127125E+03  0.12700000000E+01 0. -1.
<mgrwt>
<rscale>  1 0.13037396E+03</rscale>
<asrwt>0</asrwt>
<pdfrwt beam="2">  1       21 0.49152808E-01 0.13037396E+03</pdfrwt>
<pdfrwt beam="1">  1        4 0.40965198E-02 0.13037396E+03</pdfrwt>
<totfact> 0.52699224E+04</totfact>
</mgrwt>
</event>
<event>
 6    4  0.6358868E-003  0.1499000E+03  0.7818608E-02  0.1200596E+00
          4   -1    0    0  502    0 -0.00000000000E+00  0.00000000000E+00  0.44923247575E+02  0.44941195719E+02  0.12700000000E+01 0.  1.
         21   -1    0    0  501  502  0.00000000000E+00 -0.00000000000E+00 -0.58026046865E+03  0.58026046865E+03  0.00000000000E+00 0. -1.
         25    2    1    2    0    0 -0.85373614910E+01 -0.82292723235E+02 -0.95696466463E+02  0.17784209439E+03  0.12500007202E+03 0.  0.
    9000005    1    3    3    0    0 -0.56138569061E+02 -0.21131399145E+02 -0.75508074142E+01  0.60465607237E+02  0.10000000000E+01 0.  0.
    9000005    1    3    3    0    0  0.47601207570E+02 -0.61161324091E+02 -0.88145659049E+02  0.11737648715E+03  0.10000000000E+01 0.  0.
          4    1    1    2  501    0  0.85373614910E+01  0.82292723235E+02 -0.43964075461E+03  0.44735956998E+03  0.12700000000E+01 0. -1.
<mgrwt>
<rscale>  1 0.14989996E+03</rscale>
<asrwt>0</asrwt>
<pdfrwt beam="2">  1       21 0.89270831E-01 0.14989996E+03</pdfrwt>
<pdfrwt beam="1">  1        4 0.69127572E-02 0.14989996E+03</pdfrwt>
<totfact> 0.62772407E+03</totfact>
</mgrwt>
</event>
<event>
 6    4  0.6358868E-003  0.1281655E+03  0.7818608E-02  0.1230203E+00
         -4   -1    0    0    0  501 -0.00000000000E+00  0.00000000000E+00  0.23500383271E+03  0.23500726433E+03  0.12700000000E+01 0. -1.
         21   -1    0    0  501  502  0.00000000000E+00 -0.00000000000E+00 -0.30922488930E+02  0.30922488930E+02  0.00000000000E+00 0. -1.
         25    2    1    2    0    0 -0.28122433326E+02  0.29878239519E+01  0.19969072042E+03  0.23728208631E+03  0.12500642510E+03 0.  0.
    9000005    1    3    3    0    0 -0.38734194250E+02  0.56555397962E+02  0.14287632128E+03  0.15847237623E+03  0.10000000000E+01 0.  0.
    9000005    1    3    3    0    0  0.10611760925E+02 -0.53567574010E+02  0.56814399132E+02  0.78809710087E+02  0.10000000000E+01 0.  0.
         -4    1    1    2    0  502  0.28122433326E+02 -0.29878239519E+01  0.43906233640E+01  0.28647666950E+02  0.12700000000E+01 0.  1.
<mgrwt>
<rscale>  1 0.12816554E+03</rscale>
<asrwt>0</asrwt>
<pdfrwt beam="2">  1       21 0.47573062E-02 0.12816554E+03</pdfrwt>
<pdfrwt beam="1">  1       -4 0.36156705E-01 0.12816554E+03</pdfrwt>
<totfact> 0.86663250E+04</totfact>
</mgrwt>
</event>
<event>
 6    4  0.6358868E-003  0.1279002E+03  0.7818608E-02  0.1230605E+00
          4   -1    0    0  502    0 -0.00000000000E+00  0.00000000000E+00  0.82769125413E+02  0.82778868207E+02  0.12700000000E+01 0.  1.
         21   -1    0    0  501  502  0.00000000000E+00 -0.00000000000E+00 -0.11434436322E+03  0.11434436322E+03  0.00000000000E+00 0.  1.
         25    2    1    2    0    0  0.26493123818E+02 -0.56722556905E+01  0.28652039354E+02  0.13107023824E+03  0.12499763158E+03 0.  0.
    9000005    1    3    3    0    0 -0.30975373340E+02 -0.44167995849E+02 -0.49132040817E+01  0.54179564277E+02  0.10000000000E+01 0.  0.
    9000005    1    3    3    0    0  0.57468497158E+02  0.38495740159E+02  0.33565243436E+02  0.76890673966E+02  0.10000000000E+01 0.  0.
          4    1    1    2  501    0 -0.26493123818E+02  0.56722556905E+01 -0.60227277160E+02  0.66052993183E+02  0.12700000000E+01 0. -1.
<mgrwt>
<rscale>  1 0.12790023E+03</rscale>
<asrwt>0</asrwt>
<pdfrwt beam="2">  1       21 0.17591440E-01 0.12790023E+03</pdfrwt>
<pdfrwt beam="1">  1        4 0.12735004E-01 0.12790023E+03</pdfrwt>
<totfact> 0.59039524E+04</totfact>
</mgrwt>
</event>
<event>
 6    4  0.6358868E-003  0.1295230E+03  0.7818608E-02  0.1228165E+00
         -4   -1    0    0    0  501 -0.00000000000E+00  0.00000000000E+00  0.62326463105E+03  0.62326592496E+03  0.12700000000E+01 0. -1.
         21   -1    0    0  501  502  0.00000000000E+00 -0.00000000000E+00 -0.11482131439E+02  0.11482131439E+02  0.00000000000E+00 0. -1.
         25    2    1    2    0    0  0.22027729755E+02  0.25817115785E+02  0.54030338112E+03  0.55561132898E+03  0.12499784359E+03 0.  0.
    9000005    1    3    3    0    0 -0.47165377741E+02  0.57649848733E+01  0.11809335291E+03  0.12729826357E+03  0.10000000000E+01 0.  0.
    9000005    1    3    3    0    0  0.69193107496E+02  0.20052130912E+02  0.42221002821E+03  0.42831306541E+03  0.10000000000E+01 0.  0.
         -4    1    1    2    0  502 -0.22027729755E+02 -0.25817115785E+02  0.71479118495E+02  0.79136727418E+02  0.12700000000E+01 0.  1.
<mgrwt>
<rscale>  1 0.12952299E+03</rscale>
<asrwt>0</asrwt>
<pdfrwt beam="2">  1       21 0.17664823E-02 0.12952299E+03</pdfrwt>
<pdfrwt beam="1">  1       -4 0.95892342E-01 0.12952299E+03</pdfrwt>
<totfact> 0.56883808E+04</totfact>
</mgrwt>
</event>
<event>
 6    4  0.6358868E-003  0.1271168E+03  0.7818608E-02  0.1231798E+00
         21   -1    0    0  501  502  0.00000000000E+00  0.00000000000E+00  0.10656893880E+02  0.10656893880E+02  0.00000000000E+00 0. -1.
          4   -1    0    0  502    0 -0.00000000000E+00 -0.00000000000E+00 -0.76895429461E+03  0.76895534337E+03  0.12700000000E+01 0. -1.
         25    2    1    2    0    0  0.22103840032E+02 -0.67346830721E+01 -0.73788499384E+03  0.74875425684E+03  0.12499894917E+03 0.  0.
    9000005    1    3    3    0    0  0.41514428367E+02  0.93829729728E+01 -0.82086843695E+02  0.92470199807E+02  0.10000000000E+01 0.  0.
    9000005    1    3    3    0    0 -0.19410588334E+02 -0.16117656045E+02 -0.65579815015E+03  0.65628405703E+03  0.10000000000E+01 0.  0.
          4    1    1    2  501    0 -0.22103840032E+02  0.67346830721E+01 -0.20412406885E+02  0.30857980412E+02  0.12700000000E+01 0.  1.
<mgrwt>
<rscale>  1 0.12711677E+03</rscale>
<asrwt>0</asrwt>
<pdfrwt beam="1">  1       21 0.16395226E-02 0.12711677E+03</pdfrwt>
<pdfrwt beam="2">  1        4 0.11830653E+00 0.12711677E+03</pdfrwt>
<totfact> 0.39135947E+04</totfact>
</mgrwt>
</event>
<event>
 6    4  0.6358868E-003  0.1279447E+03  0.7818608E-02  0.1230538E+00
         21   -1    0    0  501  502  0.00000000000E+00  0.00000000000E+00  0.71692905369E+03  0.71692905369E+03  0.00000000000E+00 0. -1.
         -4   -1    0    0    0  501 -0.00000000000E+00 -0.00000000000E+00 -0.22484736079E+02  0.22520574072E+02  0.12700000000E+01 0.  1.
         25    2    1    2    0    0 -0.25574910775E+02  0.95594883147E+01  0.16259533272E+03  0.20689877056E+03  0.12499759661E+03 0.  0.
    9000005    1    3    3    0    0  0.18557145272E+02  0.32147023398E+02  0.23273639008E+00  0.37132908858E+02  0.10000000000E+01 0.  0.
    9000005    1    3    3    0    0 -0.44132056047E+02 -0.22587535083E+02  0.16236259633E+03  0.16976586170E+03  0.10000000000E+01 0.  0.
         -4    1    1    2    0  502  0.25574910775E+02 -0.95594883147E+01  0.53184898490E+03  0.53255085721E+03  0.12700000000E+01 0. -1.
<mgrwt>
<rscale>  1 0.12794475E+03</rscale>
<asrwt>0</asrwt>
<pdfrwt beam="1">  1       21 0.11029676E+00 0.12794475E+03</pdfrwt>
<pdfrwt beam="2">  1       -4 0.34620340E-02 0.12794475E+03</pdfrwt>
<totfact> 0.11519217E+04</totfact>
</mgrwt>
</event>
<event>
 6    4  0.6358868E-003  0.1316018E+03  0.7818608E-02  0.1225098E+00
         -4   -1    0    0    0  501 -0.00000000000E+00  0.00000000000E+00  0.81588379429E+03  0.81588478272E+03  0.12700000000E+01 0. -1.
         21   -1    0    0  501  502  0.00000000000E+00 -0.00000000000E+00 -0.95612130079E+01  0.95612130079E+01  0.00000000000E+00 0. -1.
         25    2    1    2    0    0 -0.38875951865E+02 -0.13525616471E+02  0.53123465769E+03  0.54729269171E+03  0.12499898773E+03 0.  0.
    9000005    1    3    3    0    0 -0.59963026559E+02 -0.50504079483E+02  0.22847412899E+03  0.24155259100E+03  0.10000000000E+01 0.  0.
    9000005    1    3    3    0    0  0.21087074694E+02  0.36978463012E+02  0.30276052870E+03  0.30574010071E+03  0.10000000000E+01 0.  0.
         -4    1    1    2    0  502  0.38875951865E+02  0.13525616471E+02  0.27508792358E+03  0.27815330402E+03  0.12700000000E+01 0.  1.
<mgrwt>
<rscale>  1 0.13160178E+03</rscale>
<asrwt>0</asrwt>
<pdfrwt beam="2">  1       21 0.14709565E-02 0.13160178E+03</pdfrwt>
<pdfrwt beam="1">  1       -4 0.12552709E+00 0.13160178E+03</pdfrwt>
<totfact> 0.40527520E+04</totfact>
</mgrwt>
</event>
<event>
 6    4  0.6358868E-003  0.1284974E+03  0.7818608E-02  0.1229703E+00
         21   -1    0    0  501  502  0.00000000000E+00  0.00000000000E+00  0.15398574667E+03  0.15398574667E+03  0.00000000000E+00 0. -1.
         -4   -1    0    0    0  501 -0.00000000000E+00 -0.00000000000E+00 -0.43257266404E+02  0.43275905499E+02  0.12700000000E+01 0. -1.
         25    2    1    2    0    0  0.19986322432E+02 -0.22053739896E+02  0.68593268507E+02  0.14565923461E+03  0.12500302243E+03 0.  0.
    9000005    1    3    3    0    0 -0.18520729204E+02 -0.66369338604E+02  0.45424880169E+02  0.82536817575E+02  0.10000000000E+01 0.  0.
    9000005    1    3    3    0    0  0.38507051635E+02  0.44315598708E+02  0.23168388338E+02  0.63122417038E+02  0.10000000000E+01 0.  0.
         -4    1    1    2    0  502 -0.19986322432E+02  0.22053739896E+02  0.42135211763E+02  0.51602417560E+02  0.12700000000E+01 0.  1.
<mgrwt>
<rscale>  1 0.12849738E+03</rscale>
<asrwt>0</asrwt>
<pdfrwt beam="1">  1       21 0.23690115E-01 0.12849738E+03</pdfrwt>
<pdfrwt beam="2">  1       -4 0.66568008E-02 0.12849738E+03</pdfrwt>
<totfact> 0.10077903E+05</totfact>
</mgrwt>
</event>
<event>
 6    4  0.6358868E-003  0.1336421E+03  0.7818608E-02  0.1222149E+00
         -4   -1    0    0    0  501 -0.00000000000E+00  0.00000000000E+00  0.64004387086E+02  0.64016985764E+02  0.12700000000E+01 0. -1.
         21   -1    0    0  501  502  0.00000000000E+00 -0.00000000000E+00 -0.14426223105E+03  0.14426223105E+03  0.00000000000E+00 0. -1.
         25    2    1    2    0    0  0.47257946588E+02 -0.17009402593E+01 -0.25739219512E+02  0.13609819420E+03  0.12499601726E+03 0.  0.
    9000005    1    3    3    0    0 -0.41877394113E+02  0.10843276441E+02 -0.37501466391E+01  0.43432204429E+02  0.10000000000E+01 0.  0.
    9000005    1    3    3    0    0  0.89135340701E+02 -0.12544216701E+02 -0.21989072873E+02  0.92665989771E+02  0.10000000000E+01 0.  0.
         -4    1    1    2    0  502 -0.47257946588E+02  0.17009402593E+01 -0.54518624452E+02  0.72181022614E+02  0.12700000000E+01 0.  1.
<mgrwt>
<rscale>  1 0.13364210E+03</rscale>
<asrwt>0</asrwt>
<pdfrwt beam="2">  1       21 0.22194189E-01 0.13364210E+03</pdfrwt>
<pdfrwt beam="1">  1       -4 0.98482279E-02 0.13364210E+03</pdfrwt>
<totfact> 0.59805988E+04</totfact>
</mgrwt>
</event>
<event>
 6    4  0.6358868E-003  0.1269804E+03  0.7818608E-02  0.1232006E+00
         21   -1    0    0  501  502  0.00000000000E+00  0.00000000000E+00  0.45415931799E+02  0.45415931799E+02  0.00000000000E+00 0.  1.
         -4   -1    0    0    0  501 -0.00000000000E+00 -0.00000000000E+00 -0.12273095095E+03  0.12273752165E+03  0.12700000000E+01 0.  1.
         25    2    1    2    0    0  0.49802437881E+01  0.21632066225E+02 -0.63450179755E+02  0.14195048055E+03  0.12502505549E+03 0.  0.
    9000005    1    3    3    0    0  0.57339006292E+02  0.26202999715E+02 -0.63355803795E+02  0.89382977748E+02  0.10000000000E+01 0.  0.
    9000005    1    3    3    0    0 -0.52358762504E+02 -0.45709334908E+01 -0.94375960136E-01  0.52567502801E+02  0.10000000000E+01 0.  0.
         -4    1    1    2    0  502 -0.49802437881E+01 -0.21632066225E+02 -0.13864839396E+02  0.26202972900E+02  0.12700000000E+01 0. -1.
<mgrwt>
<rscale>  1 0.12698037E+03</rscale>
<asrwt>0</asrwt>
<pdfrwt beam="1">  1       21 0.69870666E-02 0.12698037E+03</pdfrwt>
<pdfrwt beam="2">  1       -4 0.18883556E-01 0.12698037E+03</pdfrwt>
<totfact> 0.15082620E+05</totfact>
</mgrwt>
</event>
<event>
 6    4  0.6358868E-003  0.1370371E+03  0.7818608E-02  0.1217372E+00
          4   -1    0    0  502    0 -0.00000000000E+00  0.00000000000E+00  0.68477951800E+02  0.68489727570E+02  0.12700000000E+01 0.  1.
         21   -1    0    0  501  502  0.00000000000E+00 -0.00000000000E+00 -0.14127367700E+03  0.14127367700E+03  0.00000000000E+00 0. -1.
         25    2    1    2    0    0  0.52732173320E+02  0.19344805006E+02 -0.33117447117E+02  0.14098199549E+03  0.12499701662E+03 0.  0.
    9000005    1    3    3    0    0  0.65951037581E+02  0.65076476461E+01 -0.72049461466E+02  0.97897976146E+02  0.10000000000E+01 0.  0.
    9000005    1    3    3    0    0 -0.13218864261E+02  0.12837157360E+02  0.38932014349E+02  0.43084019342E+02  0.10000000000E+01 0.  0.
          4    1    1    2  501    0 -0.52732173320E+02 -0.19344805006E+02 -0.39678278085E+02  0.68781409084E+02  0.12700000000E+01 0. -1.
<mgrwt>
<rscale>  1 0.13703707E+03</rscale>
<asrwt>0</asrwt>
<pdfrwt beam="2">  1       21 0.21734412E-01 0.13703707E+03</pdfrwt>
<pdfrwt beam="1">  1        4 0.10536415E-01 0.13703707E+03</pdfrwt>
<totfact> 0.55653638E+04</totfact>
</mgrwt>
</event>
<event>
 6    4  0.6358868E-003  0.1268745E+03  0.7818608E-02  0.1232168E+00
         21   -1    0    0  501  502  0.00000000000E+00  0.00000000000E+00  0.48716613173E+02  0.48716613173E+02  0.00000000000E+00 0. -1.
          4   -1    0    0  502    0 -0.00000000000E+00 -0.00000000000E+00 -0.12307875618E+03  0.12308530832E+03  0.12700000000E+01 0. -1.
         25    2    1    2    0    0 -0.21592707285E+02  0.19215639080E+01 -0.79185283966E+02  0.14955752884E+03  0.12500883097E+03 0.  0.
    9000005    1    3    3    0    0 -0.32299012469E+02  0.25724421098E+02  0.20780173657E+02  0.46236215940E+02  0.10000000000E+01 0.  0.
    9000005    1    3    3    0    0  0.10706305184E+02 -0.23802857190E+02 -0.99965457623E+02  0.10332131290E+03  0.10000000000E+01 0.  0.
          4    1    1    2  501    0  0.21592707285E+02 -0.19215639080E+01  0.48231409566E+01  0.22244392652E+02  0.12700000000E+01 0.  1.
<mgrwt>
<rscale>  1 0.12687453E+03</rscale>
<asrwt>0</asrwt>
<pdfrwt beam="1">  1       21 0.74948637E-02 0.12687453E+03</pdfrwt>
<pdfrwt beam="2">  1        4 0.18936970E-01 0.12687453E+03</pdfrwt>
<totfact> 0.13305480E+05</totfact>
</mgrwt>
</event>
<event>
 6    4  0.6358868E-003  0.1335496E+03  0.7818608E-02  0.1222282E+00
         21   -1    0    0  501  502  0.00000000000E+00  0.00000000000E+00  0.65993946975E+02  0.65993946975E+02  0.00000000000E+00 0.  1.
          4   -1    0    0  502    0 -0.00000000000E+00 -0.00000000000E+00 -0.14323745334E+03  0.14324308339E+03  0.12700000000E+01 0. -1.
         25    2    1    2    0    0 -0.43124960143E+02 -0.18710872546E+02 -0.89343463087E+02  0.16067901567E+03  0.12500253094E+03 0.  0.
    9000005    1    3    3    0    0  0.89744960709E+01  0.30239288181E+02  0.14397900578E+02  0.34687975877E+02  0.10000000000E+01 0.  0.
    9000005    1    3    3    0    0 -0.52099456214E+02 -0.48950160727E+02 -0.10374136366E+03  0.12599103979E+03  0.10000000000E+01 0.  0.
          4    1    1    2  501    0  0.43124960143E+02  0.18710872546E+02  0.12099956721E+02  0.48558014698E+02  0.12700000000E+01 0.  1.
<mgrwt>
<rscale>  1 0.13354959E+03</rscale>
<asrwt>0</asrwt>
<pdfrwt beam="1">  1       21 0.10152915E-01 0.13354959E+03</pdfrwt>
<pdfrwt beam="2">  1        4 0.22037904E-01 0.13354959E+03</pdfrwt>
<totfact> 0.60239087E+04</totfact>
</mgrwt>
</event>
<event>
 6    4  0.6358868E-003  0.1273580E+03  0.7818608E-02  0.1231429E+00
          4   -1    0    0  502    0 -0.00000000000E+00  0.00000000000E+00  0.25611860913E+02  0.25643328946E+02  0.12700000000E+01 0. -1.
         21   -1    0    0  501  502  0.00000000000E+00 -0.00000000000E+00 -0.22468587699E+03  0.22468587699E+03  0.00000000000E+00 0. -1.
         25    2    1    2    0    0 -0.10805512469E+02 -0.21853621658E+02 -0.16721200638E+03  0.21019019198E+03  0.12500288736E+03 0.  0.
    9000005    1    3    3    0    0  0.86517829494E+01  0.35759788710E+02 -0.13780496671E+03  0.14263528556E+03  0.10000000000E+01 0.  0.
    9000005    1    3    3    0    0 -0.19457295419E+02 -0.57613410368E+02 -0.29407039664E+02  0.67554906417E+02  0.10000000000E+01 0.  0.
          4    1    1    2  501    0  0.10805512469E+02  0.21853621658E+02 -0.31862009704E+02  0.40139013960E+02  0.12700000000E+01 0.  1.
<mgrwt>
<rscale>  1 0.12735801E+03</rscale>
<asrwt>0</asrwt>
<pdfrwt beam="2">  1       21 0.34567059E-01 0.12735801E+03</pdfrwt>
<pdfrwt beam="1">  1        4 0.39429829E-02 0.12735801E+03</pdfrwt>
<totfact> 0.11320351E+05</totfact>
</mgrwt>
</event>
<event>
 6    4  0.6358868E-003  0.1283307E+03  0.7818608E-02  0.1229954E+00
         21   -1    0    0  501  502  0.00000000000E+00  0.00000000000E+00  0.43184343576E+02  0.43184343576E+02  0.00000000000E+00 0. -1.
          4   -1    0    0  502    0 -0.00000000000E+00 -0.00000000000E+00 -0.20729650836E+03  0.20730039864E+03  0.12700000000E+01 0. -1.
         25    2    1    2    0    0  0.23488591935E+02 -0.17090149761E+02 -0.17704418151E+03  0.21866278240E+03  0.12499993213E+03 0.  0.
    9000005    1    3    3    0    0  0.13317996501E+01 -0.65616386573E+02 -0.13713382411E+03  0.15203279118E+03  0.10000000000E+01 0.  0.
    9000005    1    3    3    0    0  0.22156792285E+02  0.48526236812E+02 -0.39910357396E+02  0.66629991227E+02  0.10000000000E+01 0.  0.
          4    1    1    2  501    0 -0.23488591935E+02  0.17090149761E+02  0.12932016725E+02  0.31821959816E+02  0.12700000000E+01 0.  1.
<mgrwt>
<rscale>  1 0.12833071E+03</rscale>
<asrwt>0</asrwt>
<pdfrwt beam="1">  1       21 0.66437452E-02 0.12833071E+03</pdfrwt>
<pdfrwt beam="2">  1        4 0.31893506E-01 0.12833071E+03</pdfrwt>
<totfact> 0.62721030E+04</totfact>
</mgrwt>
</event>
<event>
 6    4  0.6358868E-003  0.1280869E+03  0.7818608E-02  0.1230322E+00
         21   -1    0    0  501  502  0.00000000000E+00  0.00000000000E+00  0.42846864909E+02  0.42846864909E+02  0.00000000000E+00 0.  1.
          4   -1    0    0  502    0 -0.00000000000E+00 -0.00000000000E+00 -0.29300189424E+03  0.29300464660E+03  0.12700000000E+01 0. -1.
         25    2    1    2    0    0  0.22262556620E+01 -0.27871402628E+02 -0.27180045753E+03  0.30046918880E+03  0.12499789360E+03 0.  0.
    9000005    1    3    3    0    0 -0.39561239541E+01 -0.66582757434E+01 -0.27751480965E+03  0.27762466232E+03  0.10000000000E+01 0.  0.
    9000005    1    3    3    0    0  0.61823796161E+01 -0.21213126884E+02  0.57143521176E+01  0.22844526479E+02  0.10000000000E+01 0.  0.
          4    1    1    2  501    0 -0.22262556620E+01  0.27871402628E+02  0.21645428198E+02  0.35382322713E+02  0.12700000000E+01 0.  1.
<mgrwt>
<rscale>  1 0.12808686E+03</rscale>
<asrwt>0</asrwt>
<pdfrwt beam="1">  1       21 0.65918255E-02 0.12808686E+03</pdfrwt>
<pdfrwt beam="2">  1        4 0.45078873E-01 0.12808686E+03</pdfrwt>
<totfact> 0.32357842E+04</totfact>
</mgrwt>
</event>
<event>
 6    4  0.6358868E-003  0.1290418E+03  0.7818608E-02  0.1228884E+00
         -4   -1    0    0    0  501 -0.00000000000E+00  0.00000000000E+00  0.15956001804E+03  0.15956507217E+03  0.12700000000E+01 0. -1.
         21   -1    0    0  501  502  0.00000000000E+00 -0.00000000000E+00 -0.41946953448E+02  0.41946953448E+02  0.00000000000E+00 0. -1.
         25    2    1    2    0    0  0.31819908247E+02 -0.29720513786E+01  0.10754465744E+03  0.16798106422E+03  0.12502177787E+03 0.  0.
    9000005    1    3    3    0    0 -0.20399694888E+02  0.60003411860E+01  0.11274058892E+03  0.11473269820E+03  0.10000000000E+01 0.  0.
    9000005    1    3    3    0    0  0.52219603135E+02 -0.89723925647E+01 -0.51959314761E+01  0.53248366020E+02  0.10000000000E+01 0.  0.
         -4    1    1    2    0  502 -0.31819908247E+02  0.29720513786E+01  0.10068407156E+02  0.33530961407E+02  0.12700000000E+01 0.  1.
<mgrwt>
<rscale>  1 0.12904179E+03</rscale>
<asrwt>0</asrwt>
<pdfrwt beam="2">  1       21 0.64533776E-02 0.12904179E+03</pdfrwt>
<pdfrwt beam="1">  1       -4 0.24549562E-01 0.12904179E+03</pdfrwt>
<totfact> 0.10762562E+05</totfact>
</mgrwt>
</event>
<event>
 6    4  0.6358868E-003  0.1281227E+03  0.7818608E-02  0.1230268E+00
         21   -1    0    0  501  502  0.00000000000E+00  0.00000000000E+00  0.13259195379E+02  0.13259195379E+02  0.00000000000E+00 0.  1.
          4   -1    0    0  502    0 -0.00000000000E+00 -0.00000000000E+00 -0.46208999537E+03  0.46209174059E+03  0.12700000000E+01 0.  1.
         25    2    1    2    0    0  0.19118553814E+02  0.20613255406E+02 -0.35636066902E+03  0.37869296464E+03  0.12500003860E+03 0.  0.
    9000005    1    3    3    0    0 -0.30908532921E+02  0.47287287878E+02 -0.26660645731E+03  0.27252784827E+03  0.10000000000E+01 0.  0.
    9000005    1    3    3    0    0  0.50027086735E+02 -0.26674032473E+02 -0.89754211704E+02  0.10616511637E+03  0.10000000000E+01 0.  0.
          4    1    1    2  501    0 -0.19118553814E+02 -0.20613255406E+02 -0.92470130976E+02  0.96657971327E+02  0.12700000000E+01 0. -1.
<mgrwt>
<rscale>  1 0.12812273E+03</rscale>
<asrwt>0</asrwt>
<pdfrwt beam="1">  1       21 0.20398766E-02 0.12812273E+03</pdfrwt>
<pdfrwt beam="2">  1        4 0.71095567E-01 0.12812273E+03</pdfrwt>
<totfact> 0.87571865E+04</totfact>
</mgrwt>
</event>
<event>
 6    4  0.6358868E-003  0.1304626E+03  0.7818608E-02  0.1226771E+00
          4   -1    0    0  502    0 -0.00000000000E+00  0.00000000000E+00  0.59096118055E+03  0.59096254519E+03  0.12700000000E+01 0.  1.
         21   -1    0    0  501  502  0.00000000000E+00 -0.00000000000E+00 -0.12163062536E+02  0.12163062536E+02  0.00000000000E+00 0.  1.
         25    2    1    2    0    0  0.27708259294E+02  0.25081925079E+02  0.48233463334E+03  0.49966707799E+03  0.12499455874E+03 0.  0.
    9000005    1    3    3    0    0 -0.11902052502E+01  0.29493294377E+02  0.18369610355E+02  0.34780937111E+02  0.10000000000E+01 0.  0.
    9000005    1    3    3    0    0  0.28898464544E+02 -0.44113692980E+01  0.46396502298E+03  0.46488614088E+03  0.10000000000E+01 0.  0.
          4    1    1    2  501    0 -0.27708259294E+02 -0.25081925079E+02  0.96463484672E+02  0.10345852973E+03  0.12700000000E+01 0. -1.
<mgrwt>
<rscale>  1 0.13046260E+03</rscale>
<asrwt>0</asrwt>
<pdfrwt beam="2">  1       21 0.18712409E-02 0.13046260E+03</pdfrwt>
<pdfrwt beam="1">  1        4 0.90922287E-01 0.13046260E+03</pdfrwt>
<totfact> 0.58580684E+04</totfact>
</mgrwt>
</event>
<event>
 6    4  0.6358868E-003  0.1266050E+03  0.7818608E-02  0.1232582E+00
          4   -1    0    0  502    0 -0.00000000000E+00  0.00000000000E+00  0.49196392655E+02  0.49212782387E+02  0.12700000000E+01 0.  1.
         21   -1    0    0  501  502  0.00000000000E+00 -0.00000000000E+00 -0.15185813069E+03  0.15185813069E+03  0.00000000000E+00 0.  1.
         25    2    1    2    0    0  0.20063220488E+02 -0.87883708528E+00 -0.36271705620E+02  0.13169833582E+03  0.12500203942E+03 0.  0.
    9000005    1    3    3    0    0  0.65575301699E+01 -0.26214650319E+02  0.41081740888E+02  0.49182502251E+02  0.10000000000E+01 0.  0.
    9000005    1    3    3    0    0  0.13505690318E+02  0.25335813234E+02 -0.77353446508E+02  0.82515833571E+02  0.10000000000E+01 0.  0.
          4    1    1    2  501    0 -0.20063220488E+02  0.87883708528E+00 -0.66390032420E+02  0.69372577260E+02  0.12700000000E+01 0. -1.
<mgrwt>
<rscale>  1 0.12660496E+03</rscale>
<asrwt>0</asrwt>
<pdfrwt beam="2">  1       21 0.23362789E-01 0.12660496E+03</pdfrwt>
<pdfrwt beam="1">  1        4 0.75703451E-02 0.12660496E+03</pdfrwt>
<totfact> 0.83599731E+04</totfact>
</mgrwt>
</event>
<event>
 6    4  0.6358868E-003  0.1282775E+03  0.7818608E-02  0.1230034E+00
         -4   -1    0    0    0  501 -0.00000000000E+00  0.00000000000E+00  0.64424096743E+02  0.64436613359E+02  0.12700000000E+01 0. -1.
         21   -1    0    0  501  502  0.00000000000E+00 -0.00000000000E+00 -0.19068944561E+03  0.19068944561E+03  0.00000000000E+00 0.  1.
         25    2    1    2    0    0 -0.22269012234E+02  0.18300024572E+02 -0.27722005967E+01  0.12830740744E+03  0.12499722358E+03 0.  0.
    9000005    1    3    3    0    0  0.26265145273E+02  0.29140634381E+02  0.44746489730E+02  0.59517079662E+02  0.10000000000E+01 0.  0.
    9000005    1    3    3    0    0 -0.48534157506E+02 -0.10840609809E+02 -0.47518690327E+02  0.68790327781E+02  0.10000000000E+01 0.  0.
         -4    1    1    2    0  502  0.22269012234E+02 -0.18300024572E+02 -0.12349314827E+03  0.12681865152E+03  0.12700000000E+01 0.  1.
<mgrwt>
<rscale>  1 0.12827746E+03</rscale>
<asrwt>0</asrwt>
<pdfrwt beam="2">  1       21 0.29336837E-01 0.12827746E+03</pdfrwt>
<pdfrwt beam="1">  1       -4 0.99126879E-02 0.12827746E+03</pdfrwt>
<totfact> 0.34694270E+04</totfact>
</mgrwt>
</event>
<event>
 6    4  0.6358868E-003  0.1266879E+03  0.7818608E-02  0.1232455E+00
         21   -1    0    0  501  502  0.00000000000E+00  0.00000000000E+00  0.54669572836E+02  0.54669572836E+02  0.00000000000E+00 0.  1.
          4   -1    0    0  502    0 -0.00000000000E+00 -0.00000000000E+00 -0.14749371093E+03  0.14749917852E+03  0.12700000000E+01 0.  1.
         25    2    1    2    0    0  0.15755653323E+02 -0.13296128157E+02 -0.11554274404E+03  0.17146410037E+03  0.12499913752E+03 0.  0.
    9000005    1    3    3    0    0  0.45857013327E+01  0.14019125409E+02 -0.13519076077E+03  0.13599671442E+03  0.10000000000E+01 0.  0.
    9000005    1    3    3    0    0  0.11169951990E+02 -0.27315253565E+02  0.19648016735E+02  0.35467385954E+02  0.10000000000E+01 0.  0.
          4    1    1    2  501    0 -0.15755653323E+02  0.13296128157E+02  0.22718605948E+02  0.30704650980E+02  0.12700000000E+01 0. -1.
<mgrwt>
<rscale>  1 0.12668785E+03</rscale>
<asrwt>0</asrwt>
<pdfrwt beam="1">  1       21 0.84107035E-02 0.12668785E+03</pdfrwt>
<pdfrwt beam="2">  1        4 0.22692895E-01 0.12668785E+03</pdfrwt>
<totfact> 0.78696158E+04</totfact>
</mgrwt>
</event>
<event>
 6    4  0.6358868E-003  0.1324872E+03  0.7818608E-02  0.1223811E+00
         -4   -1    0    0    0  501 -0.00000000000E+00  0.00000000000E+00  0.99659649492E+02  0.99667741205E+02  0.12700000000E+01 0.  1.
         21   -1    0    0  501  502  0.00000000000E+00 -0.00000000000E+00 -0.82852031603E+02  0.82852031603E+02  0.00000000000E+00 0. -1.
         25    2    1    2    0    0  0.38172758835E+02  0.21698191360E+02  0.31536991351E+02  0.13618902311E+03  0.12499958866E+03 0.  0.
    9000005    1    3    3    0    0 -0.13559235896E+02  0.59186852671E+02 -0.76899773585E+01  0.61213333180E+02  0.10000000000E+01 0.  0.
    9000005    1    3    3    0    0  0.51731994731E+02 -0.37488661312E+02  0.39226968709E+02  0.74975689926E+02  0.10000000000E+01 0.  0.
         -4    1    1    2    0  502 -0.38172758835E+02 -0.21698191360E+02 -0.14729373461E+02  0.46330749702E+02  0.12700000000E+01 0. -1.
<mgrwt>
<rscale>  1 0.13248724E+03</rscale>
<asrwt>0</asrwt>
<pdfrwt beam="2">  1       21 0.12746466E-01 0.13248724E+03</pdfrwt>
<pdfrwt beam="1">  1       -4 0.15333625E-01 0.13248724E+03</pdfrwt>
<totfact> 0.76856900E+04</totfact>
</mgrwt>
</event>
<event>
 6    4  0.6358868E-003  0.1341730E+03  0.7818608E-02  0.1221392E+00
         -4   -1    0    0    0  501 -0.00000000000E+00  0.00000000000E+00  0.12044613266E+02  0.12111383436E+02  0.12700000000E+01 0. -1.
         21   -1    0    0  501  502  0.00000000000E+00 -0.00000000000E+00 -0.19339526906E+04  0.19339526906E+04  0.00000000000E+00 0.  1.
         25    2    1    2    0    0  0.65994918724E+01 -0.48303196902E+02 -0.37316370063E+03  0.39655205105E+03  0.12500251836E+03 0.  0.
    9000005    1    3    3    0    0  0.80563232731E+01  0.32338724962E+02 -0.32836791628E+02  0.46796926836E+02  0.10000000000E+01 0.  0.
    9000005    1    3    3    0    0 -0.14568314007E+01 -0.80641921864E+02 -0.34032690900E+03  0.34975512421E+03  0.10000000000E+01 0.  0.
         -4    1    1    2    0  502 -0.65994918724E+01  0.48303196902E+02 -0.15487443767E+04  0.15495120230E+04  0.12700000000E+01 0.  1.
<mgrwt>
<rscale>  1 0.13417295E+03</rscale>
<asrwt>0</asrwt>
<pdfrwt beam="2">  1       21 0.29753111E+00 0.13417295E+03</pdfrwt>
<pdfrwt beam="1">  1       -4 0.18581861E-02 0.13417295E+03</pdfrwt>
<totfact> 0.17399351E+03</totfact>
</mgrwt>
</event>
<event>
 6    4  0.6358868E-003  0.1340373E+03  0.7818608E-02  0.1221585E+00
         21   -1    0    0  501  502  0.00000000000E+00  0.00000000000E+00  0.14324413251E+03  0.14324413251E+03  0.00000000000E+00 0. -1.
         -4   -1    0    0    0  501 -0.00000000000E+00 -0.00000000000E+00 -0.67950702606E+02  0.67962569732E+02  0.12700000000E+01 0.  1.
         25    2    1    2    0    0  0.65748616608E+01  0.47925123634E+02  0.16483212843E+02  0.13504699628E+03  0.12500379441E+03 0.  0.
    9000005    1    3    3    0    0  0.66767868020E+01  0.53519554705E+02  0.65980010524E+02  0.85224902503E+02  0.10000000000E+01 0.  0.
    9000005    1    3    3    0    0 -0.10192514117E+00 -0.55944310712E+01 -0.49496797682E+02  0.49822093778E+02  0.10000000000E+01 0.  0.
         -4    1    1    2    0  502 -0.65748616608E+01 -0.47925123634E+02  0.58810217062E+02  0.76159705961E+02  0.12700000000E+01 0. -1.
<mgrwt>
<rscale>  1 0.13403729E+03</rscale>
<asrwt>0</asrwt>
<pdfrwt beam="1">  1       21 0.22037559E-01 0.13403729E+03</pdfrwt>
<pdfrwt beam="2">  1       -4 0.10455300E-01 0.13403729E+03</pdfrwt>
<totfact> 0.54806303E+04</totfact>
</mgrwt>
</event>
<event>
 6    4  0.6358868E-003  0.1343221E+03  0.7818608E-02  0.1221180E+00
         21   -1    0    0  501  502  0.00000000000E+00  0.00000000000E+00  0.27481141248E+02  0.27481141248E+02  0.00000000000E+00 0.  1.
          4   -1    0    0  502    0 -0.00000000000E+00 -0.00000000000E+00 -0.42641024534E+03  0.42641213659E+03  0.12700000000E+01 0.  1.
         25    2    1    2    0    0 -0.22880373083E+02  0.43486212645E+02 -0.37672708628E+03  0.39995716139E+03  0.12501148446E+03 0.  0.
    9000005    1    3    3    0    0 -0.73514869860E+02  0.12094116947E+02 -0.22082878599E+03  0.23306019926E+03  0.10000000000E+01 0.  0.
    9000005    1    3    3    0    0  0.50634496777E+02  0.31392095698E+02 -0.15589830030E+03  0.16689696214E+03  0.10000000000E+01 0.  0.
          4    1    1    2  501    0  0.22880373083E+02 -0.43486212645E+02 -0.22202017811E+02  0.53936116448E+02  0.12700000000E+01 0. -1.
<mgrwt>
<rscale>  1 0.13432213E+03</rscale>
<asrwt>0</asrwt>
<pdfrwt beam="1">  1       21 0.42278678E-02 0.13432213E+03</pdfrwt>
<pdfrwt beam="2">  1        4 0.65603980E-01 0.13432213E+03</pdfrwt>
<totfact> 0.31699413E+04</totfact>
</mgrwt>
</event>
<event>
 6    4  0.6358868E-003  0.1268775E+03  0.7818608E-02  0.1232164E+00
         -4   -1    0    0    0  501 -0.00000000000E+00  0.00000000000E+00  0.21021680504E+03  0.21022064129E+03  0.12700000000E+01 0. -1.
         21   -1    0    0  501  502  0.00000000000E+00 -0.00000000000E+00 -0.29328866495E+02  0.29328866495E+02  0.00000000000E+00 0. -1.
         25    2    1    2    0    0 -0.20527526258E+02 -0.71665832116E+01  0.11903786961E+03  0.17397677582E+03  0.12500065949E+03 0.  0.
    9000005    1    3    3    0    0 -0.36344274571E+02 -0.56848554479E+02  0.95068578503E+02  0.11658344247E+03  0.10000000000E+01 0.  0.
    9000005    1    3    3    0    0  0.15816748314E+02  0.49681971267E+02  0.23969291105E+02  0.57393333344E+02  0.10000000000E+01 0.  0.
         -4    1    1    2    0  502  0.20527526258E+02  0.71665832116E+01  0.61850068939E+02  0.65572731962E+02  0.12700000000E+01 0.  1.
<mgrwt>
<rscale>  1 0.12687752E+03</rscale>
<asrwt>0</asrwt>
<pdfrwt beam="2">  1       21 0.45121335E-02 0.12687752E+03</pdfrwt>
<pdfrwt beam="1">  1       -4 0.32343456E-01 0.12687752E+03</pdfrwt>
<totfact> 0.11711649E+05</totfact>
</mgrwt>
</event>
<event>
 6    4  0.6358868E-003  0.1301105E+03  0.7818608E-02  0.1227292E+00
         21   -1    0    0  501  502  0.00000000000E+00  0.00000000000E+00  0.21118606024E+02  0.21118606024E+02  0.00000000000E+00 0. -1.
         -4   -1    0    0    0  501 -0.00000000000E+00 -0.00000000000E+00 -0.32727417919E+03  0.32727664332E+03  0.12700000000E+01 0. -1.
         25    2    1    2    0    0  0.15126875301E+02 -0.32801560209E+02 -0.24194178083E+03  0.27470814915E+03  0.12499590870E+03 0.  0.
    9000005    1    3    3    0    0  0.38769119309E+02  0.25861974066E+02 -0.34935492937E+02  0.58252682182E+02  0.10000000000E+01 0.  0.
    9000005    1    3    3    0    0 -0.23642244008E+02 -0.58663534275E+02 -0.20700628789E+03  0.21645546697E+03  0.10000000000E+01 0.  0.
         -4    1    1    2    0  502 -0.15126875301E+02  0.32801560209E+02 -0.64213792340E+02  0.73687100195E+02  0.12700000000E+01 0.  1.
<mgrwt>
<rscale>  1 0.13011050E+03</rscale>
<asrwt>0</asrwt>
<pdfrwt beam="1">  1       21 0.32490163E-02 0.13011050E+03</pdfrwt>
<pdfrwt beam="2">  1       -4 0.50353001E-01 0.13011050E+03</pdfrwt>
<totfact> 0.84745903E+04</totfact>
</mgrwt>
</event>
<event>
 6    4  0.6358868E-003  0.1287435E+03  0.7818608E-02  0.1229332E+00
          4   -1    0    0  502    0 -0.00000000000E+00  0.00000000000E+00  0.12024392792E+03  0.12025063451E+03  0.12700000000E+01 0.  1.
         21   -1    0    0  501  502  0.00000000000E+00 -0.00000000000E+00 -0.13220412124E+03  0.13220412124E+03  0.00000000000E+00 0.  1.
         25    2    1    2    0    0  0.21605139302E+02  0.21971383157E+02  0.82619745075E+02  0.15297359488E+03  0.12500149892E+03 0.  0.
    9000005    1    3    3    0    0  0.58860326969E+02 -0.25980899840E+02  0.24324976743E+02  0.68791349318E+02  0.10000000000E+01 0.  0.
    9000005    1    3    3    0    0 -0.37255187667E+02  0.47952282997E+02  0.58294768332E+02  0.84182245560E+02  0.10000000000E+01 0.  0.
          4    1    1    2  501    0 -0.21605139302E+02 -0.21971383157E+02 -0.94579938402E+02  0.99481160881E+02  0.12700000000E+01 0. -1.
<mgrwt>
<rscale>  1 0.12874354E+03</rscale>
<asrwt>0</asrwt>
<pdfrwt beam="2">  1       21 0.20339096E-01 0.12874354E+03</pdfrwt>
<pdfrwt beam="1">  1        4 0.18500051E-01 0.12874354E+03</pdfrwt>
<totfact> 0.23551980E+04</totfact>
</mgrwt>
</event>
<event>
 6    4  0.6358868E-003  0.1271268E+03  0.7818608E-02  0.1231782E+00
          4   -1    0    0  502    0 -0.00000000000E+00  0.00000000000E+00  0.12286616599E+03  0.12287272946E+03  0.12700000000E+01 0.  1.
         21   -1    0    0  501  502  0.00000000000E+00 -0.00000000000E+00 -0.57107727928E+02  0.57107727928E+02  0.00000000000E+00 0.  1.
         25    2    1    2    0    0 -0.22025315660E+02 -0.71301322474E+01  0.82351227982E+02  0.15146928602E+03  0.12500106616E+03 0.  0.
    9000005    1    3    3    0    0 -0.36001673880E+02 -0.98559875116E+01 -0.23854120146E+02  0.44308916257E+02  0.10000000000E+01 0.  0.
    9000005    1    3    3    0    0  0.13976358219E+02  0.27258552642E+01  0.10620534813E+03  0.10716036976E+03  0.10000000000E+01 0.  0.
          4    1    1    2  501    0  0.22025315660E+02  0.71301322474E+01 -0.16592789918E+02  0.28511171373E+02  0.12700000000E+01 0. -1.
<mgrwt>
<rscale>  1 0.12712679E+03</rscale>
<asrwt>0</asrwt>
<pdfrwt beam="2">  1       21 0.87858043E-02 0.12712679E+03</pdfrwt>
<pdfrwt beam="1">  1        4 0.18904078E-01 0.12712679E+03</pdfrwt>
<totfact> 0.10149800E+05</totfact>
</mgrwt>
</event>
<event>
 6    4  0.6358868E-003  0.1273867E+03  0.7818608E-02  0.1231386E+00
         -4   -1    0    0    0  501 -0.00000000000E+00  0.00000000000E+00  0.11027258788E+03  0.11027990088E+03  0.12700000000E+01 0. -1.
         21   -1    0    0  501  502  0.00000000000E+00 -0.00000000000E+00 -0.90202554563E+02  0.90202554563E+02  0.00000000000E+00 0. -1.
         25    2    1    2    0    0  0.15898569365E+02  0.18756744238E+02  0.69607368562E+02  0.14516391926E+03  0.12499119063E+03 0.  0.
    9000005    1    3    3    0    0 -0.22250092474E+02  0.21395480439E+02  0.94570899990E+02  0.99486121259E+02  0.10000000000E+01 0.  0.
    9000005    1    3    3    0    0  0.38148661839E+02 -0.26387362006E+01 -0.24963531427E+02  0.45677798001E+02  0.10000000000E+01 0.  0.
         -4    1    1    2    0  502 -0.15898569365E+02 -0.18756744238E+02 -0.49537335245E+02  0.55318536183E+02  0.12700000000E+01 0.  1.
<mgrwt>
<rscale>  1 0.12738672E+03</rscale>
<asrwt>0</asrwt>
<pdfrwt beam="2">  1       21 0.13877316E-01 0.12738672E+03</pdfrwt>
<pdfrwt beam="1">  1       -4 0.16966264E-01 0.12738672E+03</pdfrwt>
<totfact> 0.54992986E+04</totfact>
</mgrwt>
</event>
<event>
 6    4  0.6358868E-003  0.1289858E+03  0.7818608E-02  0.1228968E+00
          4   -1    0    0  502    0 -0.00000000000E+00  0.00000000000E+00  0.79513787074E+01  0.80521626504E+01  0.12700000000E+01 0.  1.
         21   -1    0    0  501  502  0.00000000000E+00 -0.00000000000E+00 -0.81480618367E+03  0.81480618367E+03  0.00000000000E+00 0.  1.
         25    2    1    2    0    0 -0.31720478441E+02 -0.27342794169E+01 -0.61566715868E+03  0.62903369869E+03  0.12499471501E+03 0.  0.
    9000005    1    3    3    0    0  0.17531242457E+02 -0.53521836766E+02 -0.32740705136E+03  0.33221726137E+03  0.10000000000E+01 0.  0.
    9000005    1    3    3    0    0 -0.49251720898E+02  0.50787557349E+02 -0.28826010732E+03  0.29681643733E+03  0.10000000000E+01 0.  0.
          4    1    1    2  501    0  0.31720478441E+02  0.27342794169E+01 -0.19118764629E+03  0.19382464763E+03  0.12700000000E+01 0. -1.
<mgrwt>
<rscale>  1 0.12898583E+03</rscale>
<asrwt>0</asrwt>
<pdfrwt beam="2">  1       21 0.12535474E+00 0.12898583E+03</pdfrwt>
<pdfrwt beam="1">  1        4 0.12311184E-02 0.12898583E+03</pdfrwt>
<totfact> 0.41608693E+04</totfact>
</mgrwt>
</event>
<event>
 6    4  0.6358868E-003  0.1287215E+03  0.7818608E-02  0.1229365E+00
         21   -1    0    0  501  502  0.00000000000E+00  0.00000000000E+00  0.23863063680E+03  0.23863063680E+03  0.00000000000E+00 0. -1.
          4   -1    0    0  502    0 -0.00000000000E+00 -0.00000000000E+00 -0.32403394632E+02  0.32428272906E+02  0.12700000000E+01 0. -1.
         25    2    1    2    0    0  0.16243798088E+02  0.26092103067E+02  0.10767942366E+03  0.16782158966E+03  0.12499827541E+03 0.  0.
    9000005    1    3    3    0    0  0.32705214382E+02 -0.19843044062E+02  0.11245017226E+03  0.11878307408E+03  0.10000000000E+01 0.  0.
    9000005    1    3    3    0    0 -0.16461416294E+02  0.45935147130E+02 -0.47707485977E+01  0.49038515581E+02  0.10000000000E+01 0.  0.
          4    1    1    2  501    0 -0.16243798088E+02 -0.26092103067E+02  0.98547818505E+02  0.10323732005E+03  0.12700000000E+01 0.  1.
<mgrwt>
<rscale>  1 0.12872151E+03</rscale>
<asrwt>0</asrwt>
<pdfrwt beam="1">  1       21 0.36712405E-01 0.12872151E+03</pdfrwt>
<pdfrwt beam="2">  1        4 0.49873115E-02 0.12872151E+03</pdfrwt>
<totfact> 0.69216077E+04</totfact>
</mgrwt>
</event>
<event>
 6    4  0.6358868E-003  0.1823815E+03  0.7818608E-02  0.1165518E+00
         21   -1    0    0  501  502  0.00000000000E+00  0.00000000000E+00  0.88101955535E+02  0.88101955535E+02  0.00000000000E+00 0.  1.
          4   -1    0    0  502    0 -0.00000000000E+00 -0.00000000000E+00 -0.31531927735E+03  0.31532183490E+03  0.12700000000E+01 0. -1.
         25    2    1    2    0    0  0.11093298693E+03  0.73023369330E+02 -0.19450810611E+03  0.26663912116E+03  0.12499791012E+03 0.  0.
    9000005    1    3    3    0    0  0.10534108209E+03 -0.28875290863E+01 -0.12564314432E+03  0.16398866154E+03  0.10000000000E+01 0.  0.
    9000005    1    3    3    0    0  0.55919048433E+01  0.75910898416E+02 -0.68864961790E+02  0.10265045962E+03  0.10000000000E+01 0.  0.
          4    1    1    2  501    0 -0.11093298693E+03 -0.73023369330E+02 -0.32709215704E+02  0.13678466928E+03  0.12700000000E+01 0.  1.
<mgrwt>
<rscale>  1 0.18238152E+03</rscale>
<asrwt>0</asrwt>
<pdfrwt beam="1">  1       21 0.13554147E-01 0.18238152E+03</pdfrwt>
<pdfrwt beam="2">  1        4 0.48511558E-01 0.18238152E+03</pdfrwt>
<totfact> 0.81515015E+03</totfact>
</mgrwt>
</event>
<event>
 6    4  0.6358868E-003  0.1295911E+03  0.7818608E-02  0.1228064E+00
          4   -1    0    0  502    0 -0.00000000000E+00  0.00000000000E+00  0.77289037431E+02  0.77299470936E+02  0.12700000000E+01 0.  1.
         21   -1    0    0  501  502  0.00000000000E+00 -0.00000000000E+00 -0.87694195151E+02  0.87694195151E+02  0.00000000000E+00 0.  1.
         25    2    1    2    0    0  0.34057232788E+02 -0.29055300443E+01 -0.15102091329E+02  0.13046814950E+03  0.12500211063E+03 0.  0.
    9000005    1    3    3    0    0 -0.14077109437E+02  0.46098952234E+02  0.21317817055E+02  0.52713638948E+02  0.10000000000E+01 0.  0.
    9000005    1    3    3    0    0  0.48134342225E+02 -0.49004482278E+02 -0.36419908384E+02  0.77754510555E+02  0.10000000000E+01 0.  0.
          4    1    1    2  501    0 -0.34057232788E+02  0.29055300443E+01  0.46969336092E+01  0.34525516584E+02  0.12700000000E+01 0. -1.
<mgrwt>
<rscale>  1 0.12959115E+03</rscale>
<asrwt>0</asrwt>
<pdfrwt beam="2">  1       21 0.13491415E-01 0.12959115E+03</pdfrwt>
<pdfrwt beam="1">  1        4 0.11892131E-01 0.12959115E+03</pdfrwt>
<totfact> 0.10741088E+05</totfact>
</mgrwt>
</event>
<event>
 6    4  0.6358868E-003  0.1276896E+03  0.7818608E-02  0.1230925E+00
          4   -1    0    0  502    0 -0.00000000000E+00  0.00000000000E+00  0.21654913825E+03  0.21655286232E+03  0.12700000000E+01 0.  1.
         21   -1    0    0  501  502  0.00000000000E+00 -0.00000000000E+00 -0.53591198006E+02  0.53591198006E+02  0.00000000000E+00 0. -1.
         25    2    1    2    0    0 -0.26064319542E+02  0.11624199205E+00  0.19232751877E+03  0.23085605569E+03  0.12500112682E+03 0.  0.
    9000005    1    3    3    0    0  0.37148140519E+01 -0.55318728973E+02  0.47763581051E+02  0.73186892908E+02  0.10000000000E+01 0.  0.
    9000005    1    3    3    0    0 -0.29779133594E+02  0.55434970965E+02  0.14456393772E+03  0.15766916278E+03  0.10000000000E+01 0.  0.
          4    1    1    2  501    0  0.26064319542E+02 -0.11624199205E+00 -0.29369578524E+02  0.39288004633E+02  0.12700000000E+01 0. -1.
<mgrwt>
<rscale>  1 0.12768964E+03</rscale>
<asrwt>0</asrwt>
<pdfrwt beam="2">  1       21 0.82447998E-02 0.12768964E+03</pdfrwt>
<pdfrwt beam="1">  1        4 0.33316696E-01 0.12768964E+03</pdfrwt>
<totfact> 0.39814757E+04</totfact>
</mgrwt>
</event>
<event>
 6    4  0.6358868E-003  0.1295556E+03  0.7818608E-02  0.1228117E+00
         -4   -1    0    0    0  501 -0.00000000000E+00  0.00000000000E+00  0.17456133717E+03  0.17456595698E+03  0.12700000000E+01 0.  1.
         21   -1    0    0  501  502  0.00000000000E+00 -0.00000000000E+00 -0.62657340274E+02  0.62657340274E+02  0.00000000000E+00 0. -1.
         25    2    1    2    0    0  0.20211839935E+02 -0.27400711930E+02  0.14167246355E+03  0.19197849651E+03  0.12500135481E+03 0.  0.
    9000005    1    3    3    0    0 -0.33986821080E+01  0.27533941942E+02  0.12754403301E+03  0.13053026222E+03  0.10000000000E+01 0.  0.
    9000005    1    3    3    0    0  0.23610522043E+02 -0.54934653872E+02  0.14128430541E+02  0.61448234285E+02  0.10000000000E+01 0.  0.
         -4    1    1    2    0  502 -0.20211839935E+02  0.27400711930E+02 -0.29768466651E+02  0.45244800746E+02  0.12700000000E+01 0. -1.
<mgrwt>
<rscale>  1 0.12955561E+03</rscale>
<asrwt>0</asrwt>
<pdfrwt beam="2">  1       21 0.96395909E-02 0.12955561E+03</pdfrwt>
<pdfrwt beam="1">  1       -4 0.26856936E-01 0.12955561E+03</pdfrwt>
<totfact> 0.45673382E+04</totfact>
</mgrwt>
</event>
<event>
 6    4  0.6358868E-003  0.1283722E+03  0.7818608E-02  0.1229891E+00
         21   -1    0    0  501  502  0.00000000000E+00  0.00000000000E+00  0.39522503508E+02  0.39522503508E+02  0.00000000000E+00 0. -1.
         -4   -1    0    0    0  501 -0.00000000000E+00 -0.00000000000E+00 -0.54033824507E+03  0.54033973756E+03  0.12700000000E+01 0.  1.
         25    2    1    2    0    0 -0.27729775847E+02 -0.92518096108E+01 -0.52588805326E+03  0.54132952557E+03  0.12499949698E+03 0.  0.
    9000005    1    3    3    0    0 -0.33057700449E+02 -0.77542917841E+01 -0.29737467377E+02  0.45147065974E+02  0.10000000000E+01 0.  0.
    9000005    1    3    3    0    0  0.53279246019E+01 -0.14975178267E+01 -0.49615058588E+03  0.49618245959E+03  0.10000000000E+01 0.  0.
         -4    1    1    2    0  502  0.27729775847E+02  0.92518096108E+01  0.25072311698E+02  0.38532715496E+02  0.12700000000E+01 0. -1.
<mgrwt>
<rscale>  1 0.12837216E+03</rscale>
<asrwt>0</asrwt>
<pdfrwt beam="1">  1       21 0.60803856E-02 0.12837216E+03</pdfrwt>
<pdfrwt beam="2">  1       -4 0.83130639E-01 0.12837216E+03</pdfrwt>
<totfact> 0.10224625E+04</totfact>
</mgrwt>
</event>
<event>
 6    4  0.6358868E-003  0.1302688E+03  0.7818608E-02  0.1227057E+00
         21   -1    0    0  501  502  0.00000000000E+00  0.00000000000E+00  0.54019777877E+02  0.54019777877E+02  0.00000000000E+00 0. -1.
          4   -1    0    0  502    0 -0.00000000000E+00 -0.00000000000E+00 -0.12939159290E+03  0.12939782538E+03  0.12700000000E+01 0. -1.
         25    2    1    2    0    0 -0.29931283969E+02 -0.21188602350E+02 -0.62921971521E+02  0.14466905319E+03  0.12500048728E+03 0.  0.
    9000005    1    3    3    0    0 -0.92125692543E+01 -0.19090038752E+01  0.38356344809E+02  0.39506011127E+02  0.10000000000E+01 0.  0.
    9000005    1    3    3    0    0 -0.20718714714E+02 -0.19279598475E+02 -0.10127831633E+03  0.10516304206E+03  0.10000000000E+01 0.  0.
          4    1    1    2  501    0  0.29931283969E+02  0.21188602350E+02 -0.12449843507E+02  0.38748550075E+02  0.12700000000E+01 0.  1.
<mgrwt>
<rscale>  1 0.13026880E+03</rscale>
<asrwt>0</asrwt>
<pdfrwt beam="1">  1       21 0.83107350E-02 0.13026880E+03</pdfrwt>
<pdfrwt beam="2">  1        4 0.19908027E-01 0.13026880E+03</pdfrwt>
<totfact> 0.10221856E+05</totfact>
</mgrwt>
</event>
<event>
 6    4  0.6358868E-003  0.1275371E+03  0.7818608E-02  0.1231157E+00
          4   -1    0    0  502    0 -0.00000000000E+00  0.00000000000E+00  0.32491696094E+03  0.32491944295E+03  0.12700000000E+01 0. -1.
         21   -1    0    0  501  502  0.00000000000E+00 -0.00000000000E+00 -0.18008244095E+02  0.18008244095E+02  0.00000000000E+00 0. -1.
         25    2    1    2    0    0 -0.13717741460E+02 -0.21281580053E+02  0.26056348098E+03  0.29010178556E+03  0.12499854513E+03 0.  0.
    9000005    1    3    3    0    0 -0.13626720925E+02 -0.73579385042E+02  0.16441691878E+03  0.18064754803E+03  0.10000000000E+01 0.  0.
    9000005    1    3    3    0    0 -0.91020535578E-01  0.52297804989E+02  0.96146562191E+02  0.10945423753E+03  0.10000000000E+01 0.  0.
          4    1    1    2  501    0  0.13717741460E+02  0.21281580053E+02  0.46345235874E+02  0.52825901492E+02  0.12700000000E+01 0.  1.
<mgrwt>
<rscale>  1 0.12753713E+03</rscale>
<asrwt>0</asrwt>
<pdfrwt beam="2">  1       21 0.27704994E-02 0.12753713E+03</pdfrwt>
<pdfrwt beam="1">  1        4 0.49990856E-01 0.12753713E+03</pdfrwt>
<totfact> 0.11134764E+05</totfact>
</mgrwt>
</event>
<event>
 6    4  0.6358868E-003  0.1495429E+03  0.7818608E-02  0.1201036E+00
         21   -1    0    0  501  502  0.00000000000E+00  0.00000000000E+00  0.14546508456E+04  0.14546508456E+04  0.00000000000E+00 0.  1.
         -4   -1    0    0    0  501 -0.00000000000E+00 -0.00000000000E+00 -0.11420778096E+02  0.11491173671E+02  0.12700000000E+01 0. -1.
         25    2    1    2    0    0 -0.35511595187E+02 -0.74010975374E+02  0.57823075136E+03  0.59725530185E+03  0.12499758361E+03 0.  0.
    9000005    1    3    3    0    0 -0.63211064405E+02  0.56953972613E+01  0.20494250249E+03  0.21454721051E+03  0.10000000000E+01 0.  0.
    9000005    1    3    3    0    0  0.27699469218E+02 -0.79706372636E+02  0.37328824887E+03  0.38270809134E+03  0.10000000000E+01 0.  0.
         -4    1    1    2    0  502  0.35511595187E+02  0.74010975374E+02  0.86499931612E+03  0.86888671739E+03  0.12700000000E+01 0.  1.
<mgrwt>
<rscale>  1 0.14954295E+03</rscale>
<asrwt>0</asrwt>
<pdfrwt beam="1">  1       21 0.22379229E+00 0.14954295E+03</pdfrwt>
<pdfrwt beam="2">  1       -4 0.17625016E-02 0.14954295E+03</pdfrwt>
<totfact> 0.49925347E+03</totfact>
</mgrwt>
</event>
<event>
 6    4  0.6358868E-003  0.1277302E+03  0.7818608E-02  0.1230863E+00
         -4   -1    0    0    0  501 -0.00000000000E+00  0.00000000000E+00  0.31283887277E+03  0.31284145060E+03  0.12700000000E+01 0.  1.
         21   -1    0    0  501  502  0.00000000000E+00 -0.00000000000E+00 -0.11100223109E+03  0.11100223109E+03  0.00000000000E+00 0. -1.
         25    2    1    2    0    0  0.24107633367E+02 -0.10427868473E+02  0.29796227707E+03  0.32418592179E+03  0.12500029962E+03 0.  0.
    9000005    1    3    3    0    0  0.17333712617E+02  0.33193827757E+02  0.19476194890E+02  0.42220965901E+02  0.10000000000E+01 0.  0.
    9000005    1    3    3    0    0  0.67739207500E+01 -0.43621696230E+02  0.27848608218E+03  0.28196495589E+03  0.10000000000E+01 0.  0.
         -4    1    1    2    0  502 -0.24107633367E+02  0.10427868473E+02 -0.96125635393E+02  0.99657759895E+02  0.12700000000E+01 0. -1.
<mgrwt>
<rscale>  1 0.12773016E+03</rscale>
<asrwt>0</asrwt>
<pdfrwt beam="2">  1       21 0.17077266E-01 0.12773016E+03</pdfrwt>
<pdfrwt beam="1">  1       -4 0.48129814E-01 0.12773016E+03</pdfrwt>
<totfact> 0.53178746E+03</totfact>
</mgrwt>
</event>
<event>
 6    4  0.6358868E-003  0.1285064E+03  0.7818608E-02  0.1229689E+00
          4   -1    0    0  502    0 -0.00000000000E+00  0.00000000000E+00  0.24567681570E+02  0.24600485315E+02  0.12700000000E+01 0.  1.
         21   -1    0    0  501  502  0.00000000000E+00 -0.00000000000E+00 -0.51600204143E+03  0.51600204143E+03  0.00000000000E+00 0.  1.
         25    2    1    2    0    0  0.25022751077E+02 -0.16229701919E+02 -0.14854718752E+03  0.19641832148E+03  0.12499739517E+03 0.  0.
    9000005    1    3    3    0    0  0.72887229233E+02 -0.14916251994E+02 -0.59347275004E+02  0.95174270731E+02  0.10000000000E+01 0.  0.
    9000005    1    3    3    0    0 -0.47864478157E+02 -0.13134499251E+01 -0.89199912513E+02  0.10124405075E+03  0.10000000000E+01 0.  0.
          4    1    1    2  501    0 -0.25022751077E+02  0.16229701919E+02 -0.34288717234E+03  0.34418420526E+03  0.12700000000E+01 0. -1.
<mgrwt>
<rscale>  1 0.12850638E+03</rscale>
<asrwt>0</asrwt>
<pdfrwt beam="2">  1       21 0.79384924E-01 0.12850638E+03</pdfrwt>
<pdfrwt beam="1">  1        4 0.37822872E-02 0.12850638E+03</pdfrwt>
<totfact> 0.21408238E+04</totfact>
</mgrwt>
</event>
<event>
 6    4  0.6358868E-003  0.1332842E+03  0.7818608E-02  0.1222662E+00
          4   -1    0    0  502    0 -0.00000000000E+00  0.00000000000E+00  0.28012165358E+03  0.28012453250E+03  0.12700000000E+01 0.  1.
         21   -1    0    0  501  502  0.00000000000E+00 -0.00000000000E+00 -0.15117456661E+03  0.15117456661E+03  0.00000000000E+00 0. -1.
         25    2    1    2    0    0  0.44927085924E+02  0.11018619469E+02  0.26007831971E+03  0.29224203843E+03  0.12499929448E+03 0.  0.
    9000005    1    3    3    0    0 -0.15402996090E+02 -0.41872322294E+02  0.48237428201E+02  0.65714481983E+02  0.10000000000E+01 0.  0.
    9000005    1    3    3    0    0  0.60330082014E+02  0.52890941763E+02  0.21184089151E+03  0.22652755645E+03  0.10000000000E+01 0.  0.
          4    1    1    2  501    0 -0.44927085924E+02 -0.11018619469E+02 -0.13113123274E+03  0.13905706067E+03  0.12700000000E+01 0. -1.
<mgrwt>
<rscale>  1 0.13328420E+03</rscale>
<asrwt>0</asrwt>
<pdfrwt beam="2">  1       21 0.23257626E-01 0.13328420E+03</pdfrwt>
<pdfrwt beam="1">  1        4 0.43096271E-01 0.13328420E+03</pdfrwt>
<totfact> 0.37600940E+03</totfact>
</mgrwt>
</event>
<event>
 6    4  0.6358868E-003  0.1280363E+03  0.7818608E-02  0.1230399E+00
         21   -1    0    0  501  502  0.00000000000E+00  0.00000000000E+00  0.41125554302E+03  0.41125554302E+03  0.00000000000E+00 0.  1.
         -4   -1    0    0    0  501 -0.00000000000E+00 -0.00000000000E+00 -0.15540145328E+02  0.15591953592E+02  0.12700000000E+01 0.  1.
         25    2    1    2    0    0 -0.19431241049E+02 -0.19775824685E+02  0.28055559672E+03  0.30839054649E+03  0.12499851978E+03 0.  0.
    9000005    1    3    3    0    0  0.57697305641E+00  0.40900284482E+02  0.32546536573E+02  0.52282341297E+02  0.10000000000E+01 0.  0.
    9000005    1    3    3    0    0 -0.20008214105E+02 -0.60676109167E+02  0.24800906014E+03  0.25610820520E+03  0.10000000000E+01 0.  0.
         -4    1    1    2    0  502  0.19431241049E+02  0.19775824685E+02  0.11515980097E+03  0.11845695012E+03  0.12700000000E+01 0. -1.
<mgrwt>
<rscale>  1 0.12803627E+03</rscale>
<asrwt>0</asrwt>
<pdfrwt beam="1">  1       21 0.63270075E-01 0.12803627E+03</pdfrwt>
<pdfrwt beam="2">  1       -4 0.23949280E-02 0.12803627E+03</pdfrwt>
<totfact> 0.71842278E+04</totfact>
</mgrwt>
</event>
<event>
 6    4  0.6358868E-003  0.1370505E+03  0.7818608E-02  0.1217354E+00
         21   -1    0    0  501  502  0.00000000000E+00  0.00000000000E+00  0.27099139104E+03  0.27099139104E+03  0.00000000000E+00 0. -1.
         -4   -1    0    0    0  501 -0.00000000000E+00 -0.00000000000E+00 -0.46334621831E+02  0.46352023475E+02  0.12700000000E+01 0. -1.
         25    2    1    2    0    0  0.48115656629E+02 -0.29031689485E+02  0.22221647996E+03  0.26108043096E+03  0.12499948823E+03 0.  0.
    9000005    1    3    3    0    0  0.29985013960E+02 -0.48781900873E+02  0.22675072812E+03  0.23387104912E+03  0.10000000000E+01 0.  0.
    9000005    1    3    3    0    0  0.18130642670E+02  0.19750211387E+02 -0.45342481609E+01  0.27209381835E+02  0.10000000000E+01 0.  0.
         -4    1    1    2    0  502 -0.48115656629E+02  0.29031689485E+02  0.24402892510E+01  0.56262983558E+02  0.12700000000E+01 0.  1.
<mgrwt>
<rscale>  1 0.13705046E+03</rscale>
<asrwt>0</asrwt>
<pdfrwt beam="1">  1       21 0.41690982E-01 0.13705046E+03</pdfrwt>
<pdfrwt beam="2">  1       -4 0.71299711E-02 0.13705046E+03</pdfrwt>
<totfact> 0.30262686E+04</totfact>
</mgrwt>
</event>
<event>
 6    4  0.6358868E-003  0.1285160E+03  0.7818608E-02  0.1229674E+00
         21   -1    0    0  501  502  0.00000000000E+00  0.00000000000E+00  0.81571057109E+03  0.81571057109E+03  0.00000000000E+00 0. -1.
         -4   -1    0    0    0  501 -0.00000000000E+00 -0.00000000000E+00 -0.20274493123E+02  0.20314230761E+02  0.12700000000E+01 0.  1.
         25    2    1    2    0    0  0.22353625368E+02 -0.19773803499E+02  0.18727501125E+03  0.22713057143E+03  0.12500271504E+03 0.  0.
    9000005    1    3    3    0    0  0.34633525645E+02 -0.68981626565E+02  0.10215090608E+03  0.12803809400E+03  0.10000000000E+01 0.  0.
    9000005    1    3    3    0    0 -0.12279900277E+02  0.49207823066E+02  0.85124105173E+02  0.99092477430E+02  0.10000000000E+01 0.  0.
         -4    1    1    2    0  502 -0.22353625368E+02  0.19773803499E+02  0.60816106672E+03  0.60889423043E+03  0.12700000000E+01 0. -1.
<mgrwt>
<rscale>  1 0.12851602E+03</rscale>
<asrwt>0</asrwt>
<pdfrwt beam="1">  1       21 0.12549391E+00 0.12851602E+03</pdfrwt>
<pdfrwt beam="2">  1       -4 0.31222862E-02 0.12851602E+03</pdfrwt>
<totfact> 0.99090948E+03</totfact>
</mgrwt>
</event>
<event>
 6    4  0.6358868E-003  0.1321615E+03  0.7818608E-02  0.1224283E+00
         21   -1    0    0  501  502  0.00000000000E+00  0.00000000000E+00  0.38555881315E+02  0.38555881315E+02  0.00000000000E+00 0.  1.
         -4   -1    0    0    0  501 -0.00000000000E+00 -0.00000000000E+00 -0.36833272410E+03  0.36833491355E+03  0.12700000000E+01 0. -1.
         25    2    1    2    0    0  0.32610229942E+02  0.27942835881E+02 -0.33820329097E+03  0.36310898240E+03  0.12498975118E+03 0.  0.
    9000005    1    3    3    0    0  0.25080452573E+02 -0.21309582820E+02 -0.29594037132E+03  0.29776640308E+03  0.10000000000E+01 0.  0.
    9000005    1    3    3    0    0  0.75297773690E+01  0.49252418701E+02 -0.42262919647E+02  0.65342579320E+02  0.10000000000E+01 0.  0.
         -4    1    1    2    0  502 -0.32610229942E+02 -0.27942835881E+02  0.84264481901E+01  0.43781812469E+02  0.12700000000E+01 0.  1.
<mgrwt>
<rscale>  1 0.13216152E+03</rscale>
<asrwt>0</asrwt>
<pdfrwt beam="1">  1       21 0.59316739E-02 0.13216152E+03</pdfrwt>
<pdfrwt beam="2">  1       -4 0.56668351E-01 0.13216152E+03</pdfrwt>
<totfact> 0.24371997E+04</totfact>
</mgrwt>
</event>
<event>
 6    4  0.6358868E-003  0.1288832E+03  0.7818608E-02  0.1229122E+00
         -4   -1    0    0    0  501 -0.00000000000E+00  0.00000000000E+00  0.14971998008E+03  0.14972536637E+03  0.12700000000E+01 0.  1.
         21   -1    0    0  501  502  0.00000000000E+00 -0.00000000000E+00 -0.51398793019E+02  0.51398793019E+02  0.00000000000E+00 0.  1.
         25    2    1    2    0    0 -0.13427867916E+02  0.28382660152E+02  0.10809756638E+03  0.16821407695E+03  0.12500003516E+03 0.  0.
    9000005    1    3    3    0    0  0.48483904595E+02  0.37733872858E+02  0.76349610726E+02  0.98004067383E+02  0.10000000000E+01 0.  0.
    9000005    1    3    3    0    0 -0.61911772510E+02 -0.93512127068E+01  0.31747955657E+02  0.70210009563E+02  0.10000000000E+01 0.  0.
         -4    1    1    2    0  502  0.13427867916E+02 -0.28382660152E+02 -0.97763793191E+01  0.32910082446E+02  0.12700000000E+01 0. -1.
<mgrwt>
<rscale>  1 0.12888325E+03</rscale>
<asrwt>0</asrwt>
<pdfrwt beam="2">  1       21 0.79075067E-02 0.12888325E+03</pdfrwt>
<pdfrwt beam="1">  1       -4 0.23035464E-01 0.12888325E+03</pdfrwt>
<totfact> 0.85381996E+04</totfact>
</mgrwt>
</event>
<event>
 6    4  0.6358868E-003  0.1270628E+03  0.7818608E-02  0.1231880E+00
         -4   -1    0    0    0  501 -0.00000000000E+00  0.00000000000E+00  0.65251612671E+03  0.65251736262E+03  0.12700000000E+01 0. -1.
         21   -1    0    0  501  502  0.00000000000E+00 -0.00000000000E+00 -0.12338303110E+02  0.12338303110E+02  0.00000000000E+00 0. -1.
         25    2    1    2    0    0 -0.52513540150E+01 -0.22171200082E+02  0.62419231437E+03  0.63699371609E+03  0.12500324073E+03 0.  0.
    9000005    1    3    3    0    0  0.26841382594E+02  0.44184586312E+02  0.30895283554E+03  0.31325004721E+03  0.10000000000E+01 0.  0.
    9000005    1    3    3    0    0 -0.32092736609E+02 -0.66355786394E+02  0.31523947882E+03  0.32374366888E+03  0.10000000000E+01 0.  0.
         -4    1    1    2    0  502  0.52513540150E+01  0.22171200082E+02  0.15985509231E+02  0.27861949635E+02  0.12700000000E+01 0.  1.
<mgrwt>
<rscale>  1 0.12706278E+03</rscale>
<asrwt>0</asrwt>
<pdfrwt beam="2">  1       21 0.18982010E-02 0.12706278E+03</pdfrwt>
<pdfrwt beam="1">  1       -4 0.10039219E+00 0.12706278E+03</pdfrwt>
<totfact> 0.45486535E+04</totfact>
</mgrwt>
</event>
<event>
 6    4  0.6358868E-003  0.1315144E+03  0.7818608E-02  0.1225226E+00
         -4   -1    0    0    0  501 -0.00000000000E+00  0.00000000000E+00  0.51539418968E+02  0.51555063840E+02  0.12700000000E+01 0. -1.
         21   -1    0    0  501  502  0.00000000000E+00 -0.00000000000E+00 -0.19086958950E+03  0.19086958950E+03  0.00000000000E+00 0.  1.
         25    2    1    2    0    0  0.22290623095E+01  0.40820352496E+02 -0.43981466518E+02  0.13867371044E+03  0.12499903468E+03 0.  0.
    9000005    1    3    3    0    0  0.36037780425E+02 -0.78964875072E+01  0.27329372632E+02  0.45923531455E+02  0.10000000000E+01 0.  0.
    9000005    1    3    3    0    0 -0.33808718115E+02  0.48716840004E+02 -0.71310839150E+02  0.92750178980E+02  0.10000000000E+01 0.  0.
         -4    1    1    2    0  502 -0.22290623095E+01 -0.40820352496E+02 -0.95348704017E+02  0.10375094291E+03  0.12700000000E+01 0.  1.
<mgrwt>
<rscale>  1 0.13151437E+03</rscale>
<asrwt>0</asrwt>
<pdfrwt beam="2">  1       21 0.29364553E-01 0.13151437E+03</pdfrwt>
<pdfrwt beam="1">  1       -4 0.79306698E-02 0.13151437E+03</pdfrwt>
<totfact> 0.50383060E+04</totfact>
</mgrwt>
</event>
<event>
 6    4  0.6358868E-003  0.1312381E+03  0.7818608E-02  0.1225630E+00
         -4   -1    0    0    0  501 -0.00000000000E+00  0.00000000000E+00  0.44379488571E+03  0.44379670287E+03  0.12700000000E+01 0. -1.
         21   -1    0    0  501  502  0.00000000000E+00 -0.00000000000E+00 -0.16572896108E+02  0.16572896108E+02  0.00000000000E+00 0. -1.
         25    2    1    2    0    0 -0.33548631114E+02  0.21777545970E+02  0.33800033169E+03  0.36258468553E+03  0.12499463109E+03 0.  0.
    9000005    1    3    3    0    0 -0.56790683039E+02  0.53309094249E+02  0.13521773713E+03  0.15605088159E+03  0.10000000000E+01 0.  0.
    9000005    1    3    3    0    0  0.23242051925E+02 -0.31531548280E+02  0.20278259456E+03  0.20653380394E+03  0.10000000000E+01 0.  0.
         -4    1    1    2    0  502  0.33548631114E+02 -0.21777545970E+02  0.89221657908E+02  0.97784913448E+02  0.12700000000E+01 0.  1.
<mgrwt>
<rscale>  1 0.13123807E+03</rscale>
<asrwt>0</asrwt>
<pdfrwt beam="2">  1       21 0.25496767E-02 0.13123807E+03</pdfrwt>
<pdfrwt beam="1">  1       -4 0.68280010E-01 0.13123807E+03</pdfrwt>
<totfact> 0.66761781E+04</totfact>
</mgrwt>
</event>
<event>
 6    4  0.6358868E-003  0.1268672E+03  0.7818608E-02  0.1232180E+00
         -4   -1    0    0    0  501 -0.00000000000E+00  0.00000000000E+00  0.14563713774E+03  0.14564267503E+03  0.12700000000E+01 0. -1.
         21   -1    0    0  501  502  0.00000000000E+00 -0.00000000000E+00 -0.64640094582E+02  0.64640094582E+02  0.00000000000E+00 0.  1.
         25    2    1    2    0    0  0.17324463254E+02 -0.13056873504E+02  0.11413707054E+03  0.17065331986E+03  0.12499866293E+03 0.  0.
    9000005    1    3    3    0    0 -0.39905254880E+02 -0.18380030095E+01 -0.27155649163E+01  0.40052239823E+02  0.10000000000E+01 0.  0.
    9000005    1    3    3    0    0  0.57229718134E+02 -0.11218870494E+02  0.11685263546E+03  0.13060108004E+03  0.10000000000E+01 0.  0.
         -4    1    1    2    0  502 -0.17324463254E+02  0.13056873504E+02 -0.33140027382E+02  0.39629449752E+02  0.12700000000E+01 0.  1.
<mgrwt>
<rscale>  1 0.12686719E+03</rscale>
<asrwt>0</asrwt>
<pdfrwt beam="2">  1       21 0.99446300E-02 0.12686719E+03</pdfrwt>
<pdfrwt beam="1">  1       -4 0.22407099E-01 0.12686719E+03</pdfrwt>
<totfact> 0.60199531E+04</totfact>
</mgrwt>
</event>
<event>
 6    4  0.6358868E-003  0.1271908E+03  0.7818608E-02  0.1231685E+00
         21   -1    0    0  501  502  0.00000000000E+00  0.00000000000E+00  0.12010864180E+02  0.12010864180E+02  0.00000000000E+00 0. -1.
         -4   -1    0    0    0  501 -0.00000000000E+00 -0.00000000000E+00 -0.19837012696E+04  0.19837016761E+04  0.12700000000E+01 0.  1.
         25    2    1    2    0    0 -0.19689948344E+02 -0.12858546468E+02 -0.19677233404E+04  0.19718297685E+04  0.12499782181E+03 0.  0.
    9000005    1    3    3    0    0 -0.71490448634E+02 -0.15119973398E+02 -0.13272324645E+04  0.13292428344E+04  0.10000000000E+01 0.  0.
    9000005    1    3    3    0    0  0.51800500291E+02  0.22614269294E+01 -0.64049087581E+03  0.64258693410E+03  0.10000000000E+01 0.  0.
         -4    1    1    2    0  502  0.19689948344E+02  0.12858546468E+02 -0.39670650223E+01  0.23882771781E+02  0.12700000000E+01 0. -1.
<mgrwt>
<rscale>  1 0.12719077E+03</rscale>
<asrwt>0</asrwt>
<pdfrwt beam="1">  1       21 0.18478267E-02 0.12719077E+03</pdfrwt>
<pdfrwt beam="2">  1       -4 0.30518977E+00 0.12719077E+03</pdfrwt>
<totfact> 0.20288688E+03</totfact>
</mgrwt>
</event>
<event>
 6    4  0.6358868E-003  0.1267845E+03  0.7818608E-02  0.1232306E+00
          4   -1    0    0  502    0 -0.00000000000E+00  0.00000000000E+00  0.41948085998E+02  0.41967306548E+02  0.12700000000E+01 0.  1.
         21   -1    0    0  501  502  0.00000000000E+00 -0.00000000000E+00 -0.25523034385E+03  0.25523034385E+03  0.00000000000E+00 0.  1.
         25    2    1    2    0    0 -0.14499379381E+02  0.15472570386E+02 -0.56194231395E+02  0.13867984890E+03  0.12499870564E+03 0.  0.
    9000005    1    3    3    0    0 -0.22302332756E+00  0.23685324339E+01 -0.95136175423E+02  0.95171169791E+02  0.10000000000E+01 0.  0.
    9000005    1    3    3    0    0 -0.14276356053E+02  0.13104037952E+02  0.38941944028E+02  0.43508679106E+02  0.10000000000E+01 0.  0.
          4    1    1    2  501    0  0.14499379381E+02 -0.15472570386E+02 -0.15708802646E+03  0.15851780151E+03  0.12700000000E+01 0. -1.
<mgrwt>
<rscale>  1 0.12678450E+03</rscale>
<asrwt>0</asrwt>
<pdfrwt beam="2">  1       21 0.39266208E-01 0.12678450E+03</pdfrwt>
<pdfrwt beam="1">  1        4 0.64552731E-02 0.12678450E+03</pdfrwt>
<totfact> 0.39832378E+04</totfact>
</mgrwt>
</event>
<event>
 6    4  0.6358868E-003  0.1370837E+03  0.7818608E-02  0.1217308E+00
         21   -1    0    0  501  502  0.00000000000E+00  0.00000000000E+00  0.98746197888E+02  0.98746197888E+02  0.00000000000E+00 0. -1.
         -4   -1    0    0    0  501 -0.00000000000E+00 -0.00000000000E+00 -0.11375109216E+03  0.11375818154E+03  0.12700000000E+01 0.  1.
         25    2    1    2    0    0  0.46320793466E+02  0.31951008627E+02 -0.50353637962E+02  0.14603912956E+03  0.12500182257E+03 0.  0.
    9000005    1    3    3    0    0 -0.31316421510E+02  0.47526773280E+01 -0.55174861747E+02  0.63628386486E+02  0.10000000000E+01 0.  0.
    9000005    1    3    3    0    0  0.77637214976E+02  0.27198331299E+02  0.48212237854E+01  0.82410743071E+02  0.10000000000E+01 0.  0.
         -4    1    1    2    0  502 -0.46320793466E+02 -0.31951008627E+02  0.35348743693E+02  0.66465249870E+02  0.12700000000E+01 0. -1.
<mgrwt>
<rscale>  1 0.13708369E+03</rscale>
<asrwt>0</asrwt>
<pdfrwt beam="1">  1       21 0.15191723E-01 0.13708369E+03</pdfrwt>
<pdfrwt beam="2">  1       -4 0.17501341E-01 0.13708369E+03</pdfrwt>
<totfact> 0.44626224E+04</totfact>
</mgrwt>
</event>
<event>
 6    4  0.6358868E-003  0.1271851E+03  0.7818608E-02  0.1231693E+00
         21   -1    0    0  501  502  0.00000000000E+00  0.00000000000E+00  0.26414502282E+03  0.26414502282E+03  0.00000000000E+00 0.  1.
         -4   -1    0    0    0  501 -0.00000000000E+00 -0.00000000000E+00 -0.64416219439E+02  0.64428737585E+02  0.12700000000E+01 0. -1.
         25    2    1    2    0    0 -0.23261181468E+02 -0.32300481038E+01 -0.28157707291E+00  0.12718537702E+03  0.12499810026E+03 0.  0.
    9000005    1    3    3    0    0  0.28350211957E+02  0.44717752968E+02 -0.15353624816E+02  0.55137516661E+02  0.10000000000E+01 0.  0.
    9000005    1    3    3    0    0 -0.51611393424E+02 -0.47947801072E+02  0.15072047743E+02  0.72047860357E+02  0.10000000000E+01 0.  0.
         -4    1    1    2    0  502  0.23261181468E+02  0.32300481038E+01  0.20001038045E+03  0.20138838339E+03  0.12700000000E+01 0.  1.
<mgrwt>
<rscale>  1 0.12718507E+03</rscale>
<asrwt>0</asrwt>
<pdfrwt beam="1">  1       21 0.40637695E-01 0.12718507E+03</pdfrwt>
<pdfrwt beam="2">  1       -4 0.99113856E-02 0.12718507E+03</pdfrwt>
<totfact> 0.18298269E+04</totfact>
</mgrwt>
</event>
<event>
 6    4  0.6358868E-003  0.2554089E+03  0.7818608E-02  0.1109933E+00
          4   -1    0    0  502    0 -0.00000000000E+00  0.00000000000E+00  0.36351118957E+03  0.36351340806E+03  0.12700000000E+01 0.  1.
         21   -1    0    0  501  502  0.00000000000E+00 -0.00000000000E+00 -0.16421441319E+03  0.16421441319E+03  0.00000000000E+00 0. -1.
         25    2    1    2    0    0 -0.45733770014E+02  0.21798353324E+03  0.16046965924E+03  0.30163590100E+03  0.12500122700E+03 0.  0.
    9000005    1    3    3    0    0  0.15669231892E+02 -0.77343698862E+01 -0.78126086937E+00  0.17520150518E+02  0.10000000000E+01 0.  0.
    9000005    1    3    3    0    0 -0.61403001906E+02  0.22571790312E+03  0.16125092011E+03  0.28411575048E+03  0.10000000000E+01 0.  0.
          4    1    1    2  501    0  0.45733770014E+02 -0.21798353324E+03  0.38827117133E+02  0.22609192026E+03  0.12700000000E+01 0. -1.
<mgrwt>
<rscale>  1 0.25540890E+03</rscale>
<asrwt>0</asrwt>
<pdfrwt beam="2">  1       21 0.25263756E-01 0.25540890E+03</pdfrwt>
<pdfrwt beam="1">  1        4 0.55925346E-01 0.25540890E+03</pdfrwt>
<totfact> 0.19287118E+03</totfact>
</mgrwt>
</event>
<event>
 6    4  0.6358868E-003  0.1284494E+03  0.7818608E-02  0.1229775E+00
         21   -1    0    0  501  502  0.00000000000E+00  0.00000000000E+00  0.10714166553E+03  0.10714166553E+03  0.00000000000E+00 0. -1.
         -4   -1    0    0    0  501 -0.00000000000E+00 -0.00000000000E+00 -0.75456665864E+02  0.75467352698E+02  0.12700000000E+01 0. -1.
         25    2    1    2    0    0 -0.27103583068E+02  0.11834810531E+02 -0.12895906442E+02  0.12909512242E+03  0.12499831708E+03 0.  0.
    9000005    1    3    3    0    0  0.43592232676E+02  0.31744387715E+02 -0.13662093605E+02  0.55638491198E+02  0.10000000000E+01 0.  0.
    9000005    1    3    3    0    0 -0.70695815744E+02 -0.19909577184E+02  0.76618716364E+00  0.73456631220E+02  0.10000000000E+01 0.  0.
         -4    1    1    2    0  502  0.27103583068E+02 -0.11834810531E+02  0.44580906107E+02  0.53513895810E+02  0.12700000000E+01 0.  1.
<mgrwt>
<rscale>  1 0.12844939E+03</rscale>
<asrwt>0</asrwt>
<pdfrwt beam="1">  1       21 0.16483333E-01 0.12844939E+03</pdfrwt>
<pdfrwt beam="2">  1       -4 0.11610119E-01 0.12844939E+03</pdfrwt>
<totfact> 0.77900525E+04</totfact>
</mgrwt>
</event>
<event>
 6    4  0.6358868E-003  0.1523947E+03  0.7818608E-02  0.1197561E+00
         21   -1    0    0  501  502  0.00000000000E+00  0.00000000000E+00  0.39258361533E+02  0.39258361533E+02  0.00000000000E+00 0. -1.
         -4   -1    0    0    0  501 -0.00000000000E+00 -0.00000000000E+00 -0.49284725943E+03  0.49284889574E+03  0.12700000000E+01 0.  1.
         25    2    1    2    0    0  0.46306128182E+02 -0.73852916942E+02 -0.40405576762E+03  0.43183934245E+03  0.12500257393E+03 0.  0.
    9000005    1    3    3    0    0  0.86151737303E+02 -0.48212589114E+02 -0.32500681516E+03  0.33967190859E+03  0.10000000000E+01 0.  0.
    9000005    1    3    3    0    0 -0.39845609122E+02 -0.25640327828E+02 -0.79048952464E+02  0.92167433853E+02  0.10000000000E+01 0.  0.
         -4    1    1    2    0  502 -0.46306128182E+02  0.73852916942E+02 -0.49533130279E+02  0.10026791482E+03  0.12700000000E+01 0. -1.
<mgrwt>
<rscale>  1 0.15239473E+03</rscale>
<asrwt>0</asrwt>
<pdfrwt beam="1">  1       21 0.60397480E-02 0.15239473E+03</pdfrwt>
<pdfrwt beam="2">  1       -4 0.75824360E-01 0.15239473E+03</pdfrwt>
<totfact> 0.12874271E+04</totfact>
</mgrwt>
</event>
<event>
 6    4  0.6358868E-003  0.1373124E+03  0.7818608E-02  0.1216992E+00
         -4   -1    0    0    0  501 -0.00000000000E+00  0.00000000000E+00  0.10557801408E+03  0.10558565223E+03  0.12700000000E+01 0. -1.
         21   -1    0    0  501  502  0.00000000000E+00 -0.00000000000E+00 -0.10446907346E+03  0.10446907346E+03  0.00000000000E+00 0. -1.
         25    2    1    2    0    0 -0.55684240253E+02  0.11357261517E+02  0.37771114456E+02  0.14241265378E+03  0.12499993947E+03 0.  0.
    9000005    1    3    3    0    0  0.27664379711E+02 -0.99963891619E+01 -0.22762076806E+02  0.37206959585E+02  0.10000000000E+01 0.  0.
    9000005    1    3    3    0    0 -0.83348619964E+02  0.21353650679E+02  0.60533191261E+02  0.10520569420E+03  0.10000000000E+01 0.  0.
         -4    1    1    2    0  502  0.55684240253E+02 -0.11357261517E+02 -0.36662173835E+02  0.67642071908E+02  0.12700000000E+01 0.  1.
<mgrwt>
<rscale>  1 0.13731244E+03</rscale>
<asrwt>0</asrwt>
<pdfrwt beam="2">  1       21 0.16072165E-01 0.13731244E+03</pdfrwt>
<pdfrwt beam="1">  1       -4 0.16243953E-01 0.13731244E+03</pdfrwt>
<totfact> 0.45978256E+04</totfact>
</mgrwt>
</event>
<event>
 6    4  0.6358868E-003  0.1273438E+03  0.7818608E-02  0.1231451E+00
         -4   -1    0    0    0  501 -0.00000000000E+00  0.00000000000E+00  0.30881877465E+03  0.30882138604E+03  0.12700000000E+01 0. -1.
         21   -1    0    0  501  502  0.00000000000E+00 -0.00000000000E+00 -0.19181386618E+02  0.19181386618E+02  0.00000000000E+00 0. -1.
         25    2    1    2    0    0  0.17143936049E+01  0.24263883713E+02  0.21961018761E+03  0.25386036308E+03  0.12499909698E+03 0.  0.
    9000005    1    3    3    0    0 -0.12151345739E+01 -0.32879034168E+02  0.69598482033E+01  0.33644418955E+02  0.10000000000E+01 0.  0.
    9000005    1    3    3    0    0  0.29295281788E+01  0.57142917881E+02  0.21265033940E+03  0.22021594413E+03  0.10000000000E+01 0.  0.
         -4    1    1    2    0  502 -0.17143936049E+01 -0.24263883713E+02  0.70027200420E+02  0.74142409571E+02  0.12700000000E+01 0.  1.
<mgrwt>
<rscale>  1 0.12734382E+03</rscale>
<asrwt>0</asrwt>
<pdfrwt beam="2">  1       21 0.29509828E-02 0.12734382E+03</pdfrwt>
<pdfrwt beam="1">  1       -4 0.47514012E-01 0.12734382E+03</pdfrwt>
<totfact> 0.11128849E+05</totfact>
</mgrwt>
</event>
<event>
 6    4  0.6358868E-003  0.1552905E+03  0.7818608E-02  0.1194119E+00
         21   -1    0    0  501  502  0.00000000000E+00  0.00000000000E+00  0.17396782616E+03  0.17396782616E+03  0.00000000000E+00 0. -1.
         -4   -1    0    0    0  501 -0.00000000000E+00 -0.00000000000E+00 -0.11961310337E+03  0.11961984534E+03  0.12700000000E+01 0.  1.
         25    2    1    2    0    0 -0.60758500365E+02 -0.69274239110E+02 -0.41377746731E+02  0.16070865062E+03  0.12499854754E+03 0.  0.
    9000005    1    3    3    0    0 -0.53966901781E+01  0.32193793041E+01 -0.65933998768E+02  0.66240326551E+02  0.10000000000E+01 0.  0.
    9000005    1    3    3    0    0 -0.55361810187E+02 -0.72493618414E+02  0.24556252038E+02  0.94468324067E+02  0.10000000000E+01 0.  0.
         -4    1    1    2    0  502  0.60758500365E+02  0.69274239110E+02  0.95732469519E+02  0.13287902088E+03  0.12700000000E+01 0. -1.
<mgrwt>
<rscale>  1 0.15529054E+03</rscale>
<asrwt>0</asrwt>
<pdfrwt beam="1">  1       21 0.26764281E-01 0.15529054E+03</pdfrwt>
<pdfrwt beam="2">  1       -4 0.18402891E-01 0.15529054E+03</pdfrwt>
<totfact> 0.14430705E+04</totfact>
</mgrwt>
</event>
<event>
 6    4  0.6358868E-003  0.1288046E+03  0.7818608E-02  0.1229240E+00
         21   -1    0    0  501  502  0.00000000000E+00  0.00000000000E+00  0.18589237633E+02  0.18589237633E+02  0.00000000000E+00 0.  1.
         -4   -1    0    0    0  501 -0.00000000000E+00 -0.00000000000E+00 -0.36542476300E+03  0.36542696988E+03  0.12700000000E+01 0.  1.
         25    2    1    2    0    0 -0.24868287268E+01 -0.30976257744E+02 -0.31069028948E+03  0.33633178827E+03  0.12499961186E+03 0.  0.
    9000005    1    3    3    0    0 -0.62400844629E+02 -0.13217046169E+02 -0.12382205971E+03  0.13928911728E+03  0.10000000000E+01 0.  0.
    9000005    1    3    3    0    0  0.59914015903E+02 -0.17759211574E+02 -0.18686822976E+03  0.19704267099E+03  0.10000000000E+01 0.  0.
         -4    1    1    2    0  502  0.24868287268E+01  0.30976257744E+02 -0.36145235894E+02  0.47684419245E+02  0.12700000000E+01 0. -1.
<mgrwt>
<rscale>  1 0.12880456E+03</rscale>
<asrwt>0</asrwt>
<pdfrwt beam="1">  1       21 0.28598826E-02 0.12880456E+03</pdfrwt>
<pdfrwt beam="2">  1       -4 0.56222703E-01 0.12880456E+03</pdfrwt>
<totfact> 0.83170938E+04</totfact>
</mgrwt>
</event>
<event>
 6    4  0.6358868E-003  0.1291344E+03  0.7818608E-02  0.1228746E+00
         21   -1    0    0  501  502  0.00000000000E+00  0.00000000000E+00  0.74998584178E+02  0.74998584178E+02  0.00000000000E+00 0. -1.
         -4   -1    0    0    0  501 -0.00000000000E+00 -0.00000000000E+00 -0.13871613402E+03  0.13872194757E+03  0.12700000000E+01 0.  1.
         25    2    1    2    0    0 -0.29278229488E+02  0.13920967595E+02 -0.10125997463E+03  0.16410143643E+03  0.12499876366E+03 0.  0.
    9000005    1    3    3    0    0  0.12408701835E+02 -0.50711080005E+02 -0.41330020026E+02  0.66593994262E+02  0.10000000000E+01 0.  0.
    9000005    1    3    3    0    0 -0.41686931323E+02  0.64632047600E+02 -0.59929954603E+02  0.97507442171E+02  0.10000000000E+01 0.  0.
         -4    1    1    2    0  502  0.29278229488E+02 -0.13920967595E+02  0.37542424788E+02  0.49619095313E+02  0.12700000000E+01 0. -1.
<mgrwt>
<rscale>  1 0.12913442E+03</rscale>
<asrwt>0</asrwt>
<pdfrwt beam="1">  1       21 0.11538244E-01 0.12913442E+03</pdfrwt>
<pdfrwt beam="2">  1       -4 0.21342218E-01 0.12913442E+03</pdfrwt>
<totfact> 0.50762672E+04</totfact>
</mgrwt>
</event>
<event>
 6    4  0.6358868E-003  0.1278751E+03  0.7818608E-02  0.1230643E+00
         21   -1    0    0  501  502  0.00000000000E+00  0.00000000000E+00  0.78762479612E+02  0.78762479612E+02  0.00000000000E+00 0. -1.
         -4   -1    0    0    0  501 -0.00000000000E+00 -0.00000000000E+00 -0.13206306947E+03  0.13206917588E+03  0.12700000000E+01 0. -1.
         25    2    1    2    0    0  0.11755150795E+02 -0.24283724793E+02 -0.96281273250E+02  0.16006912103E+03  0.12499662823E+03 0.  0.
    9000005    1    3    3    0    0  0.49949257226E+02 -0.54659333506E+02 -0.35516350508E+02  0.82127840530E+02  0.10000000000E+01 0.  0.
    9000005    1    3    3    0    0 -0.38194106431E+02  0.30375608713E+02 -0.60764922742E+02  0.77941280504E+02  0.10000000000E+01 0.  0.
         -4    1    1    2    0  502 -0.11755150795E+02  0.24283724793E+02  0.42980683391E+02  0.50762534460E+02  0.12700000000E+01 0.  1.
<mgrwt>
<rscale>  1 0.12787510E+03</rscale>
<asrwt>0</asrwt>
<pdfrwt beam="1">  1       21 0.12117305E-01 0.12787510E+03</pdfrwt>
<pdfrwt beam="2">  1       -4 0.20318652E-01 0.12787510E+03</pdfrwt>
<totfact> 0.50804404E+04</totfact>
</mgrwt>
</event>
<event>
 6    4  0.6358868E-003  0.1301072E+03  0.7818608E-02  0.1227297E+00
          4   -1    0    0  502    0 -0.00000000000E+00  0.00000000000E+00  0.70925808173E+02  0.70937177594E+02  0.12700000000E+01 0. -1.
         21   -1    0    0  501  502  0.00000000000E+00 -0.00000000000E+00 -0.14805352387E+03  0.14805352387E+03  0.00000000000E+00 0.  1.
         25    2    1    2    0    0 -0.31378185291E+02 -0.17877013542E+02  0.40110254268E+01  0.13016904680E+03  0.12499485708E+03 0.  0.
    9000005    1    3    3    0    0  0.22974893150E+02 -0.27641437276E+02  0.47708645963E+02  0.59741189054E+02  0.10000000000E+01 0.  0.
    9000005    1    3    3    0    0 -0.54353078440E+02  0.97644237334E+01 -0.43697620536E+02  0.70427857751E+02  0.10000000000E+01 0.  0.
          4    1    1    2  501    0  0.31378185291E+02  0.17877013542E+02 -0.81138741121E+02  0.88821654657E+02  0.12700000000E+01 0.  1.
<mgrwt>
<rscale>  1 0.13010723E+03</rscale>
<asrwt>0</asrwt>
<pdfrwt beam="2">  1       21 0.22777465E-01 0.13010723E+03</pdfrwt>
<pdfrwt beam="1">  1        4 0.10912956E-01 0.13010723E+03</pdfrwt>
<totfact> 0.47750767E+04</totfact>
</mgrwt>
</event>
<event>
 6    4  0.6358868E-003  0.1284729E+03  0.7818608E-02  0.1229739E+00
          4   -1    0    0  502    0 -0.00000000000E+00  0.00000000000E+00  0.21728552504E+02  0.21765635620E+02  0.12700000000E+01 0. -1.
         21   -1    0    0  501  502  0.00000000000E+00 -0.00000000000E+00 -0.33241579330E+03  0.33241579330E+03  0.00000000000E+00 0. -1.
         25    2    1    2    0    0  0.25196136861E+02  0.15654570935E+02 -0.18632033613E+03  0.22631958637E+03  0.12500150645E+03 0.  0.
    9000005    1    3    3    0    0  0.55260053862E+02  0.55032018358E+02 -0.12686054844E+03  0.14891875419E+03  0.10000000000E+01 0.  0.
    9000005    1    3    3    0    0 -0.30063917001E+02 -0.39377447423E+02 -0.59459787686E+02  0.77400832183E+02  0.10000000000E+01 0.  0.
          4    1    1    2  501    0 -0.25196136861E+02 -0.15654570935E+02 -0.12436690467E+03  0.12786184255E+03  0.12700000000E+01 0.  1.
<mgrwt>
<rscale>  1 0.12847291E+03</rscale>
<asrwt>0</asrwt>
<pdfrwt beam="2">  1       21 0.51140886E-01 0.12847291E+03</pdfrwt>
<pdfrwt beam="1">  1        4 0.33458938E-02 0.12847291E+03</pdfrwt>
<totfact> 0.66752626E+04</totfact>
</mgrwt>
</event>
<event>
 6    4  0.6358868E-003  0.1303769E+03  0.7818608E-02  0.1226898E+00
          4   -1    0    0  502    0 -0.00000000000E+00  0.00000000000E+00  0.11623345043E+04  0.11623351981E+04  0.12700000000E+01 0. -1.
         21   -1    0    0  501  502  0.00000000000E+00 -0.00000000000E+00 -0.64474874353E+01  0.64474874353E+01  0.00000000000E+00 0.  1.
         25    2    1    2    0    0  0.10391819502E+02  0.35566644520E+02  0.10043100369E+04  0.10127372759E+04  0.12500065476E+03 0.  0.
    9000005    1    3    3    0    0  0.37658184487E+02 -0.14467980557E+02  0.12021662454E+03  0.12680890401E+03  0.10000000000E+01 0.  0.
    9000005    1    3    3    0    0 -0.27266364985E+02  0.50034625077E+02  0.88409341232E+03  0.88592837186E+03  0.10000000000E+01 0.  0.
          4    1    1    2  501    0 -0.10391819502E+02 -0.35566644520E+02  0.15157697999E+03  0.15604540966E+03  0.12700000000E+01 0.  1.
<mgrwt>
<rscale>  1 0.13037691E+03</rscale>
<asrwt>0</asrwt>
<pdfrwt beam="2">  1       21 0.99192207E-03 0.13037691E+03</pdfrwt>
<pdfrwt beam="1">  1        4 0.17883020E+00 0.13037691E+03</pdfrwt>
<totfact> 0.30641998E+04</totfact>
</mgrwt>
</event>
<event>
 6    4  0.6358868E-003  0.1300138E+03  0.7818608E-02  0.1227435E+00
          4   -1    0    0  502    0 -0.00000000000E+00  0.00000000000E+00  0.33029219863E+02  0.33053627104E+02  0.12700000000E+01 0. -1.
         21   -1    0    0  501  502  0.00000000000E+00 -0.00000000000E+00 -0.28381191165E+03  0.28381191165E+03  0.00000000000E+00 0.  1.
         25    2    1    2    0    0 -0.58689034016E+00 -0.35765494456E+02 -0.10607223251E+03  0.16779426400E+03  0.12499632589E+03 0.  0.
    9000005    1    3    3    0    0 -0.30998609550E+01  0.10411895506E+02  0.25817661888E+02  0.28027992638E+02  0.10000000000E+01 0.  0.
    9000005    1    3    3    0    0  0.25129706149E+01 -0.46177389962E+02 -0.13188989440E+03  0.13976627136E+03  0.10000000000E+01 0.  0.
          4    1    1    2  501    0  0.58689034016E+00  0.35765494456E+02 -0.14471045927E+03  0.14907127476E+03  0.12700000000E+01 0.  1.
<mgrwt>
<rscale>  1 0.13001383E+03</rscale>
<asrwt>0</asrwt>
<pdfrwt beam="2">  1       21 0.43663371E-01 0.13001383E+03</pdfrwt>
<pdfrwt beam="1">  1        4 0.50835145E-02 0.13001383E+03</pdfrwt>
<totfact> 0.47512321E+04</totfact>
</mgrwt>
</event>
<event>
 6    4  0.6358868E-003  0.1804753E+03  0.7818608E-02  0.1167344E+00
          4   -1    0    0  502    0 -0.00000000000E+00  0.00000000000E+00  0.12306911921E+03  0.12307567186E+03  0.12700000000E+01 0.  1.
         21   -1    0    0  501  502  0.00000000000E+00 -0.00000000000E+00 -0.93695976859E+03  0.93695976859E+03  0.00000000000E+00 0. -1.
         25    2    1    2    0    0 -0.69233351099E+02  0.11024199838E+03  0.49296053921E+02  0.18708672903E+03  0.12499915255E+03 0.  0.
    9000005    1    3    3    0    0  0.25556106992E+02  0.74625708987E+02  0.16039360282E+02  0.80500758534E+02  0.10000000000E+01 0.  0.
    9000005    1    3    3    0    0 -0.94789458091E+02  0.35616289390E+02  0.33256693640E+02  0.10658597050E+03  0.10000000000E+01 0.  0.
          4    1    1    2  501    0  0.69233351099E+02 -0.11024199838E+03 -0.86318670330E+03  0.87294871141E+03  0.12700000000E+01 0. -1.
<mgrwt>
<rscale>  1 0.18047533E+03</rscale>
<asrwt>0</asrwt>
<pdfrwt beam="2">  1       21 0.14414766E+00 0.18047533E+03</pdfrwt>
<pdfrwt beam="1">  1        4 0.18934280E-01 0.18047533E+03</pdfrwt>
<totfact> 0.34834549E+02</totfact>
</mgrwt>
</event>
<event>
 6    4  0.6358868E-003  0.1451648E+03  0.7818608E-02  0.1206544E+00
         21   -1    0    0  501  502  0.00000000000E+00  0.00000000000E+00  0.69583710175E+02  0.69583710175E+02  0.00000000000E+00 0. -1.
          4   -1    0    0  502    0 -0.00000000000E+00 -0.00000000000E+00 -0.24351532766E+03  0.24351863934E+03  0.12700000000E+01 0.  1.
         25    2    1    2    0    0 -0.48052238256E+02  0.56026802216E+02 -0.18843784196E+03  0.23786895523E+03  0.12499919764E+03 0.  0.
    9000005    1    3    3    0    0  0.16500386306E+02 -0.31542744044E+02 -0.36488459529E+02  0.50986421024E+02  0.10000000000E+01 0.  0.
    9000005    1    3    3    0    0 -0.64552624562E+02  0.87569546260E+02 -0.15194938243E+03  0.18688253420E+03  0.10000000000E+01 0.  0.
          4    1    1    2  501    0  0.48052238256E+02 -0.56026802216E+02  0.14506224468E+02  0.75233394289E+02  0.12700000000E+01 0. -1.
<mgrwt>
<rscale>  1 0.14516480E+03</rscale>
<asrwt>0</asrwt>
<pdfrwt beam="1">  1       21 0.10705186E-01 0.14516480E+03</pdfrwt>
<pdfrwt beam="2">  1        4 0.37465043E-01 0.14516480E+03</pdfrwt>
<totfact> 0.20409310E+04</totfact>
</mgrwt>
</event>
<event>
 6    4  0.6358868E-003  0.1266827E+03  0.7818608E-02  0.1232463E+00
         21   -1    0    0  501  502  0.00000000000E+00  0.00000000000E+00  0.53225956091E+03  0.53225956091E+03  0.00000000000E+00 0. -1.
          4   -1    0    0  502    0 -0.00000000000E+00 -0.00000000000E+00 -0.38475107278E+02  0.38496061877E+02  0.12700000000E+01 0.  1.
         25    2    1    2    0    0  0.30716117992E+01  0.20128735481E+02  0.66671744580E+02  0.14315595028E+03  0.12503561007E+03 0.  0.
    9000005    1    3    3    0    0  0.47039680653E+02  0.45332383260E+02  0.83219830265E+01  0.65863585762E+02  0.10000000000E+01 0.  0.
    9000005    1    3    3    0    0 -0.43968068854E+02 -0.25203647778E+02  0.58349761553E+02  0.77292364522E+02  0.10000000000E+01 0.  0.
          4    1    1    2  501    0 -0.30716117992E+01 -0.20128735481E+02  0.42711270905E+03  0.42759967251E+03  0.12700000000E+01 0. -1.
<mgrwt>
<rscale>  1 0.12668269E+03</rscale>
<asrwt>0</asrwt>
<pdfrwt beam="1">  1       21 0.81886081E-01 0.12668269E+03</pdfrwt>
<pdfrwt beam="2">  1        4 0.59209761E-02 0.12668269E+03</pdfrwt>
<totfact> 0.97355122E+03</totfact>
</mgrwt>
</event>
<event>
 6    4  0.6358868E-003  0.1555143E+03  0.7818608E-02  0.1193856E+00
          4   -1    0    0  502    0 -0.00000000000E+00  0.00000000000E+00  0.23179447439E+03  0.23179795352E+03  0.12700000000E+01 0. -1.
         21   -1    0    0  501  502  0.00000000000E+00 -0.00000000000E+00 -0.99034711095E+02  0.99034711095E+02  0.00000000000E+00 0.  1.
         25    2    1    2    0    0 -0.90948718603E+02 -0.17004887416E+02  0.17061500203E+03  0.23085532913E+03  0.12499547375E+03 0.  0.
    9000005    1    3    3    0    0 -0.11105970626E+03 -0.30179844647E+02  0.17177156144E+03  0.20676448123E+03  0.10000000000E+01 0.  0.
    9000005    1    3    3    0    0  0.20110987659E+02  0.13174957231E+02 -0.11565594144E+01  0.24090847896E+02  0.10000000000E+01 0.  0.
          4    1    1    2  501    0  0.90948718603E+02  0.17004887416E+02 -0.37855238737E+02  0.99977335489E+02  0.12700000000E+01 0.  1.
<mgrwt>
<rscale>  1 0.15551432E+03</rscale>
<asrwt>0</asrwt>
<pdfrwt beam="2">  1       21 0.15236110E-01 0.15551432E+03</pdfrwt>
<pdfrwt beam="1">  1        4 0.35661582E-01 0.15551432E+03</pdfrwt>
<totfact> 0.12031483E+04</totfact>
</mgrwt>
</event>
<event>
 6    4  0.6358868E-003  0.1321895E+03  0.7818608E-02  0.1224243E+00
          4   -1    0    0  502    0 -0.00000000000E+00  0.00000000000E+00  0.75028882537E+03  0.75028990022E+03  0.12700000000E+01 0.  1.
         21   -1    0    0  501  502  0.00000000000E+00 -0.00000000000E+00 -0.26126785116E+02  0.26126785116E+02  0.00000000000E+00 0. -1.
         25    2    1    2    0    0  0.41733052333E+02 -0.10400878950E+02  0.72127862950E+03  0.73329183290E+03  0.12499689951E+03 0.  0.
    9000005    1    3    3    0    0 -0.24954647878E+02 -0.29266764494E+02  0.85641744533E+02  0.93887093689E+02  0.10000000000E+01 0.  0.
    9000005    1    3    3    0    0  0.66687700211E+02  0.18865885544E+02  0.63563688497E+03  0.63940473921E+03  0.10000000000E+01 0.  0.
          4    1    1    2  501    0 -0.41733052333E+02  0.10400878950E+02  0.28834107514E+01  0.43124852435E+02  0.12700000000E+01 0. -1.
<mgrwt>
<rscale>  1 0.13218945E+03</rscale>
<asrwt>0</asrwt>
<pdfrwt beam="2">  1       21 0.40195060E-02 0.13218945E+03</pdfrwt>
<pdfrwt beam="1">  1        4 0.11543149E+00 0.13218945E+03</pdfrwt>
<totfact> 0.96587856E+03</totfact>
</mgrwt>
</event>
<event>
 6    4  0.6358868E-003  0.1364053E+03  0.7818608E-02  0.1218249E+00
         21   -1    0    0  501  502  0.00000000000E+00  0.00000000000E+00  0.70397607337E+03  0.70397607337E+03  0.00000000000E+00 0. -1.
         -4   -1    0    0    0  501 -0.00000000000E+00 -0.00000000000E+00 -0.17453081459E+03  0.17453543520E+03  0.12700000000E+01 0.  1.
         25    2    1    2    0    0 -0.78335520812E+01  0.54035706800E+02 -0.14661098633E+03  0.20025279569E+03  0.12500071488E+03 0.  0.
    9000005    1    3    3    0    0 -0.91116683775E+01  0.50647726427E+02 -0.16945629915E+03  0.17710068326E+03  0.10000000000E+01 0.  0.
    9000005    1    3    3    0    0  0.12781162963E+01  0.33879803729E+01  0.22845312812E+02  0.23152112425E+02  0.10000000000E+01 0.  0.
         -4    1    1    2    0  502  0.78335520812E+01 -0.54035706800E+02  0.67605624511E+03  0.67825871288E+03  0.12700000000E+01 0. -1.
<mgrwt>
<rscale>  1 0.13640528E+03</rscale>
<asrwt>0</asrwt>
<pdfrwt beam="1">  1       21 0.10830401E+00 0.13640528E+03</pdfrwt>
<pdfrwt beam="2">  1       -4 0.26851339E-01 0.13640528E+03</pdfrwt>
<totfact> 0.37638357E+02</totfact>
</mgrwt>
</event>
<event>
 6    4  0.6358868E-003  0.1268845E+03  0.7818608E-02  0.1232153E+00
          4   -1    0    0  502    0 -0.00000000000E+00  0.00000000000E+00  0.25147931154E+03  0.25148251835E+03  0.12700000000E+01 0. -1.
         21   -1    0    0  501  502  0.00000000000E+00 -0.00000000000E+00 -0.26329287850E+02  0.26329287850E+02  0.00000000000E+00 0. -1.
         25    2    1    2    0    0  0.16738555222E+02 -0.13892653784E+02  0.22212790646E+03  0.25581337096E+03  0.12500595536E+03 0.  0.
    9000005    1    3    3    0    0  0.24507916754E+02 -0.37978710845E+02  0.15732855633E+02  0.47870065881E+02  0.10000000000E+01 0.  0.
    9000005    1    3    3    0    0 -0.77693615321E+01  0.24086057061E+02  0.20639505083E+03  0.20794330508E+03  0.10000000000E+01 0.  0.
          4    1    1    2  501    0 -0.16738555222E+02  0.13892653784E+02  0.30221172331E+01  0.21998435232E+02  0.12700000000E+01 0.  1.
<mgrwt>
<rscale>  1 0.12688449E+03</rscale>
<asrwt>0</asrwt>
<pdfrwt beam="2">  1       21 0.40506599E-02 0.12688449E+03</pdfrwt>
<pdfrwt beam="1">  1        4 0.38691726E-01 0.12688449E+03</pdfrwt>
<totfact> 0.99182843E+04</totfact>
</mgrwt>
</event>
<event>
 6    4  0.6358868E-003  0.1279126E+03  0.7818608E-02  0.1230586E+00
         21   -1    0    0  501  502  0.00000000000E+00  0.00000000000E+00  0.62701983263E+03  0.62701983263E+03  0.00000000000E+00 0.  1.
         -4   -1    0    0    0  501 -0.00000000000E+00 -0.00000000000E+00 -0.24497939822E+02  0.24530836828E+02  0.12700000000E+01 0. -1.
         25    2    1    2    0    0  0.27180526228E+02  0.34436106034E+01  0.14560085569E+03  0.19380719706E+03  0.12494391140E+03 0.  0.
    9000005    1    3    3    0    0 -0.44864555033E+02  0.19136738036E+02  0.31907294430E+02  0.58293382805E+02  0.10000000000E+01 0.  0.
    9000005    1    3    3    0    0  0.72045081261E+02 -0.15693127433E+02  0.11369356126E+03  0.13551381426E+03  0.10000000000E+01 0.  0.
         -4    1    1    2    0  502 -0.27180526228E+02 -0.34436106034E+01  0.45692103712E+03  0.45774347239E+03  0.12700000000E+01 0.  1.
<mgrwt>
<rscale>  1 0.12791255E+03</rscale>
<asrwt>0</asrwt>
<pdfrwt beam="1">  1       21 0.96464578E-01 0.12791255E+03</pdfrwt>
<pdfrwt beam="2">  1       -4 0.37715438E-02 0.12791255E+03</pdfrwt>
<totfact> 0.13802236E+04</totfact>
</mgrwt>
</event>
<event>
 6    4  0.6358868E-003  0.1402170E+03  0.7818608E-02  0.1213037E+00
          4   -1    0    0  502    0 -0.00000000000E+00  0.00000000000E+00  0.18896144195E+02  0.18938774127E+02  0.12700000000E+01 0. -1.
         21   -1    0    0  501  502  0.00000000000E+00 -0.00000000000E+00 -0.62280977444E+03  0.62280977444E+03  0.00000000000E+00 0. -1.
         25    2    1    2    0    0 -0.59179553402E+02 -0.23101810508E+02 -0.29846507366E+03  0.32976081354E+03  0.12499952304E+03 0.  0.
    9000005    1    3    3    0    0  0.16497609449E+02  0.25724447063E+02 -0.18668109741E+02  0.35824804473E+02  0.10000000000E+01 0.  0.
    9000005    1    3    3    0    0 -0.75677162852E+02 -0.48826257570E+02 -0.27979696392E+03  0.29393600907E+03  0.10000000000E+01 0.  0.
          4    1    1    2  501    0  0.59179553402E+02  0.23101810508E+02 -0.30544855658E+03  0.31198773503E+03  0.12700000000E+01 0.  1.
<mgrwt>
<rscale>  1 0.14021695E+03</rscale>
<asrwt>0</asrwt>
<pdfrwt beam="2">  1       21 0.95816871E-01 0.14021695E+03</pdfrwt>
<pdfrwt beam="1">  1        4 0.29104785E-02 0.14021695E+03</pdfrwt>
<totfact> 0.21220005E+04</totfact>
</mgrwt>
</event>
<event>
 6    4  0.6358868E-003  0.1297445E+03  0.7818608E-02  0.1227835E+00
          4   -1    0    0  502    0 -0.00000000000E+00  0.00000000000E+00  0.18127953187E+03  0.18128398047E+03  0.12700000000E+01 0.  1.
         21   -1    0    0  501  502  0.00000000000E+00 -0.00000000000E+00 -0.43769425786E+02  0.43769425786E+02  0.00000000000E+00 0.  1.
         25    2    1    2    0    0  0.27847869902E+02 -0.20820831755E+02  0.13910803872E+03  0.19022271316E+03  0.12499849307E+03 0.  0.
    9000005    1    3    3    0    0 -0.17023149686E+02  0.37859789239E+02  0.96224525431E+02  0.10480129084E+03  0.10000000000E+01 0.  0.
    9000005    1    3    3    0    0  0.44871019589E+02 -0.58680620995E+02  0.42883513292E+02  0.85421422322E+02  0.10000000000E+01 0.  0.
          4    1    1    2  501    0 -0.27847869902E+02  0.20820831755E+02 -0.15979326374E+01  0.34830693100E+02  0.12700000000E+01 0. -1.
<mgrwt>
<rscale>  1 0.12974450E+03</rscale>
<asrwt>0</asrwt>
<pdfrwt beam="2">  1       21 0.67337579E-02 0.12974450E+03</pdfrwt>
<pdfrwt beam="1">  1        4 0.27890918E-01 0.12974450E+03</pdfrwt>
<totfact> 0.79062477E+04</totfact>
</mgrwt>
</event>
<event>
 6    4  0.6358868E-003  0.1284908E+03  0.7818608E-02  0.1229712E+00
         21   -1    0    0  501  502  0.00000000000E+00  0.00000000000E+00  0.20944440570E+03  0.20944440570E+03  0.00000000000E+00 0.  1.
          4   -1    0    0  502    0 -0.00000000000E+00 -0.00000000000E+00 -0.30039822909E+02  0.30066656954E+02  0.12700000000E+01 0.  1.
         25    2    1    2    0    0 -0.16553670374E+02  0.24804254028E+02  0.15150150092E+03  0.19865191559E+03  0.12498241383E+03 0.  0.
    9000005    1    3    3    0    0  0.83464755266E+01 -0.49112682699E+02  0.69027647120E+02  0.85132457515E+02  0.10000000000E+01 0.  0.
    9000005    1    3    3    0    0 -0.24900145900E+02  0.73916936728E+02  0.82473853800E+02  0.11351945808E+03  0.10000000000E+01 0.  0.
          4    1    1    2  501    0  0.16553670374E+02 -0.24804254028E+02  0.27903081868E+02  0.40859147060E+02  0.12700000000E+01 0. -1.
<mgrwt>
<rscale>  1 0.12849077E+03</rscale>
<asrwt>0</asrwt>
<pdfrwt beam="1">  1       21 0.32222215E-01 0.12849077E+03</pdfrwt>
<pdfrwt beam="2">  1        4 0.46238717E-02 0.12849077E+03</pdfrwt>
<totfact> 0.10088235E+05</totfact>
</mgrwt>
</event>
<event>
 6    4  0.6358868E-003  0.1270824E+03  0.7818608E-02  0.1231850E+00
         21   -1    0    0  501  502  0.00000000000E+00  0.00000000000E+00  0.23318191221E+03  0.23318191221E+03  0.00000000000E+00 0.  1.
         -4   -1    0    0    0  501 -0.00000000000E+00 -0.00000000000E+00 -0.36094543914E+02  0.36116879716E+02  0.12700000000E+01 0. -1.
         25    2    1    2    0    0 -0.29038592382E+01  0.22731703256E+02  0.80409377326E+02  0.15038483476E+03  0.12499907133E+03 0.  0.
    9000005    1    3    3    0    0  0.31486686824E+02  0.46279962343E+02  0.91477020699E+02  0.10724873742E+03  0.10000000000E+01 0.  0.
    9000005    1    3    3    0    0 -0.34390546062E+02 -0.23548259086E+02 -0.11067643373E+02  0.43136097346E+02  0.10000000000E+01 0.  0.
         -4    1    1    2    0  502  0.29038592382E+01 -0.22731703256E+02  0.11667799097E+03  0.11891395716E+03  0.12700000000E+01 0.  1.
<mgrwt>
<rscale>  1 0.12708238E+03</rscale>
<asrwt>0</asrwt>
<pdfrwt beam="1">  1       21 0.35874139E-01 0.12708238E+03</pdfrwt>
<pdfrwt beam="2">  1       -4 0.55549911E-02 0.12708238E+03</pdfrwt>
<totfact> 0.60803266E+04</totfact>
</mgrwt>
</event>
<event>
 6    4  0.6358868E-003  0.1287671E+03  0.7818608E-02  0.1229297E+00
         -4   -1    0    0    0  501 -0.00000000000E+00  0.00000000000E+00  0.11671896343E+03  0.11672587256E+03  0.12700000000E+01 0.  1.
         21   -1    0    0  501  502  0.00000000000E+00 -0.00000000000E+00 -0.12024337960E+03  0.12024337960E+03  0.00000000000E+00 0. -1.
         25    2    1    2    0    0  0.24095641874E+02 -0.19342821458E+02  0.77467795710E+02  0.15027383138E+03  0.12500488120E+03 0.  0.
    9000005    1    3    3    0    0 -0.44694735906E+02 -0.27486608091E+02  0.58198822775E+02  0.78366038655E+02  0.10000000000E+01 0.  0.
    9000005    1    3    3    0    0  0.68790377781E+02  0.81437866329E+01  0.19268972934E+02  0.71907792720E+02  0.10000000000E+01 0.  0.
         -4    1    1    2    0  502 -0.24095641874E+02  0.19342821458E+02 -0.80992211875E+02  0.86695420777E+02  0.12700000000E+01 0. -1.
<mgrwt>
<rscale>  1 0.12876710E+03</rscale>
<asrwt>0</asrwt>
<pdfrwt beam="2">  1       21 0.18498982E-01 0.12876710E+03</pdfrwt>
<pdfrwt beam="1">  1       -4 0.17957811E-01 0.12876710E+03</pdfrwt>
<totfact> 0.29576041E+04</totfact>
</mgrwt>
</event>
<event>
 6    4  0.6358868E-003  0.1267480E+03  0.7818608E-02  0.1232362E+00
         -4   -1    0    0    0  501 -0.00000000000E+00  0.00000000000E+00  0.47464234826E+03  0.47464404733E+03  0.12700000000E+01 0.  1.
         21   -1    0    0  501  502  0.00000000000E+00 -0.00000000000E+00 -0.48138360424E+02  0.48138360424E+02  0.00000000000E+00 0. -1.
         25    2    1    2    0    0 -0.21042720657E+00 -0.20907158491E+02  0.46336387540E+03  0.48038644371E+03  0.12501160233E+03 0.  0.
    9000005    1    3    3    0    0 -0.26090315265E+02  0.23812746532E+02  0.37988099699E+02  0.51883014241E+02  0.10000000000E+01 0.  0.
    9000005    1    3    3    0    0  0.25879888059E+02 -0.44719905022E+02  0.42537577570E+03  0.42850342947E+03  0.10000000000E+01 0.  0.
         -4    1    1    2    0  502  0.21042720657E+00  0.20907158491E+02 -0.36859887564E+02  0.42395964041E+02  0.12700000000E+01 0. -1.
<mgrwt>
<rscale>  1 0.12674800E+03</rscale>
<asrwt>0</asrwt>
<pdfrwt beam="2">  1       21 0.74059019E-02 0.12674800E+03</pdfrwt>
<pdfrwt beam="1">  1       -4 0.73023316E-01 0.12674800E+03</pdfrwt>
<totfact> 0.96981963E+03</totfact>
</mgrwt>
</event>
<event>
 6    4  0.6358868E-003  0.1274174E+03  0.7818608E-02  0.1231339E+00
          4   -1    0    0  502    0 -0.00000000000E+00  0.00000000000E+00  0.28561411700E+03  0.28561694056E+03  0.12700000000E+01 0. -1.
         21   -1    0    0  501  502  0.00000000000E+00 -0.00000000000E+00 -0.20302674784E+02  0.20302674784E+02  0.00000000000E+00 0. -1.
         25    2    1    2    0    0  0.24684050057E+02 -0.49940744827E+00  0.22726683100E+03  0.26054829094E+03  0.12500259079E+03 0.  0.
    9000005    1    3    3    0    0  0.65732912643E+02  0.32428536406E+02  0.15139283297E+03  0.16820587283E+03  0.10000000000E+01 0.  0.
    9000005    1    3    3    0    0 -0.41048862586E+02 -0.32927943855E+02  0.75873998032E+02  0.92342418116E+02  0.10000000000E+01 0.  0.
          4    1    1    2  501    0 -0.24684050057E+02  0.49940744827E+00  0.38044611218E+02  0.45371324400E+02  0.12700000000E+01 0.  1.
<mgrwt>
<rscale>  1 0.12741742E+03</rscale>
<asrwt>0</asrwt>
<pdfrwt beam="2">  1       21 0.31234886E-02 0.12741742E+03</pdfrwt>
<pdfrwt beam="1">  1        4 0.43943903E-01 0.12741742E+03</pdfrwt>
<totfact> 0.11858851E+05</totfact>
</mgrwt>
</event>
<event>
 6    4  0.6358868E-003  0.1335869E+03  0.7818608E-02  0.1222228E+00
         -4   -1    0    0    0  501 -0.00000000000E+00  0.00000000000E+00  0.11576223014E+03  0.11576919637E+03  0.12700000000E+01 0. -1.
         21   -1    0    0  501  502  0.00000000000E+00 -0.00000000000E+00 -0.82970199263E+02  0.82970199263E+02  0.00000000000E+00 0. -1.
         25    2    1    2    0    0 -0.46750538667E+02 -0.58809411992E+01 -0.11471082914E+02  0.13407847639E+03  0.12500101500E+03 0.  0.
    9000005    1    3    3    0    0  0.21067219828E+02  0.24670915706E+02 -0.42501193290E+02  0.53477408914E+02  0.10000000000E+01 0.  0.
    9000005    1    3    3    0    0 -0.67817758495E+02 -0.30551856905E+02  0.31030110376E+02  0.80601067471E+02  0.10000000000E+01 0.  0.
         -4    1    1    2    0  502  0.46750538667E+02  0.58809411992E+01  0.44263113793E+02  0.64660919245E+02  0.12700000000E+01 0.  1.
<mgrwt>
<rscale>  1 0.13358687E+03</rscale>
<asrwt>0</asrwt>
<pdfrwt beam="2">  1       21 0.12764646E-01 0.13358687E+03</pdfrwt>
<pdfrwt beam="1">  1       -4 0.17810857E-01 0.13358687E+03</pdfrwt>
<totfact> 0.58941852E+04</totfact>
</mgrwt>
</event>
<event>
 6    4  0.6358868E-003  0.1289950E+03  0.7818608E-02  0.1228955E+00
         -4   -1    0    0    0  501 -0.00000000000E+00  0.00000000000E+00  0.11241697275E+02  0.11313207221E+02  0.12700000000E+01 0. -1.
         21   -1    0    0  501  502  0.00000000000E+00 -0.00000000000E+00 -0.86614536871E+03  0.86614536871E+03  0.00000000000E+00 0.  1.
         25    2    1    2    0    0  0.24519470649E+02  0.20368745985E+02 -0.37635365171E+03  0.39784641540E+03  0.12499443522E+03 0.  0.
    9000005    1    3    3    0    0 -0.28650223045E+02  0.44707559655E+02 -0.81700521836E+02  0.97445248417E+02  0.10000000000E+01 0.  0.
    9000005    1    3    3    0    0  0.53169693694E+02 -0.24338813670E+02 -0.29465312987E+03  0.30040116698E+03  0.10000000000E+01 0.  0.
         -4    1    1    2    0  502 -0.24519470649E+02 -0.20368745985E+02 -0.47855001973E+03  0.47961216054E+03  0.12700000000E+01 0.  1.
<mgrwt>
<rscale>  1 0.12899496E+03</rscale>
<asrwt>0</asrwt>
<pdfrwt beam="2">  1       21 0.13325312E+00 0.12899496E+03</pdfrwt>
<pdfrwt beam="1">  1       -4 0.17350645E-02 0.12899496E+03</pdfrwt>
<totfact> 0.21207230E+04</totfact>
</mgrwt>
</event>
<event>
 6    4  0.6358868E-003  0.1268786E+03  0.7818608E-02  0.1232162E+00
         21   -1    0    0  501  502  0.00000000000E+00  0.00000000000E+00  0.84214048959E+03  0.84214048959E+03  0.00000000000E+00 0. -1.
         -4   -1    0    0    0  501 -0.00000000000E+00 -0.00000000000E+00 -0.66995983718E+01  0.68189088822E+01  0.12700000000E+01 0. -1.
         25    2    1    2    0    0 -0.90965401336E+01 -0.19859008273E+02  0.75542294903E+03  0.76600392111E+03  0.12498419095E+03 0.  0.
    9000005    1    3    3    0    0  0.36313708511E+02 -0.47809651032E+02  0.56725106481E+03  0.57042021237E+03  0.10000000000E+01 0.  0.
    9000005    1    3    3    0    0 -0.45410248645E+02  0.27950642760E+02  0.18817188422E+03  0.19558370874E+03  0.10000000000E+01 0.  0.
         -4    1    1    2    0  502  0.90965401336E+01  0.19859008273E+02  0.80017942193E+02  0.82955477365E+02  0.12700000000E+01 0.  1.
<mgrwt>
<rscale>  1 0.12687858E+03</rscale>
<asrwt>0</asrwt>
<pdfrwt beam="1">  1       21 0.12955999E+00 0.12687858E+03</pdfrwt>
<pdfrwt beam="2">  1       -4 0.10399595E-02 0.12687858E+03</pdfrwt>
<totfact> 0.49397094E+04</totfact>
</mgrwt>
</event>
<event>
 6    4  0.6358868E-003  0.1285631E+03  0.7818608E-02  0.1229603E+00
         21   -1    0    0  501  502  0.00000000000E+00  0.00000000000E+00  0.25743000738E+03  0.25743000738E+03  0.00000000000E+00 0. -1.
         -4   -1    0    0    0  501 -0.00000000000E+00 -0.00000000000E+00 -0.24425440749E+02  0.24458435268E+02  0.12700000000E+01 0. -1.
         25    2    1    2    0    0 -0.29409627608E+02 -0.61123838584E+01  0.18696643163E+03  0.22690289721E+03  0.12500476301E+03 0.  0.
    9000005    1    3    3    0    0 -0.11152316307E+02 -0.61433423643E+02  0.57314376840E+02  0.84760707241E+02  0.10000000000E+01 0.  0.
    9000005    1    3    3    0    0 -0.18257311300E+02  0.55321039785E+02  0.12965205479E+03  0.14214218997E+03  0.10000000000E+01 0.  0.
         -4    1    1    2    0  502  0.29409627608E+02  0.61123838584E+01  0.46038135007E+02  0.54985545441E+02  0.12700000000E+01 0.  1.
<mgrwt>
<rscale>  1 0.12856313E+03</rscale>
<asrwt>0</asrwt>
<pdfrwt beam="1">  1       21 0.39604615E-01 0.12856313E+03</pdfrwt>
<pdfrwt beam="2">  1       -4 0.37605393E-02 0.12856313E+03</pdfrwt>
<totfact> 0.93350623E+04</totfact>
</mgrwt>
</event>
<event>
 6    4  0.6358868E-003  0.1266238E+03  0.7818608E-02  0.1232553E+00
         21   -1    0    0  501  502  0.00000000000E+00  0.00000000000E+00  0.18368847008E+02  0.18368847008E+02  0.00000000000E+00 0.  1.
         -4   -1    0    0    0  501 -0.00000000000E+00 -0.00000000000E+00 -0.29589871572E+03  0.29590144114E+03  0.12700000000E+01 0. -1.
         25    2    1    2    0    0  0.10774493392E+02 -0.17119676957E+02 -0.24797581325E+03  0.27843415915E+03  0.12499761588E+03 0.  0.
    9000005    1    3    3    0    0  0.57606915253E+02  0.24489395862E+02 -0.10355254076E+03  0.12100585066E+03  0.10000000000E+01 0.  0.
    9000005    1    3    3    0    0 -0.46832421861E+02 -0.41609072819E+02 -0.14442327249E+03  0.15742830849E+03  0.10000000000E+01 0.  0.
         -4    1    1    2    0  502 -0.10774493392E+02  0.17119676957E+02 -0.29554055462E+02  0.35836128993E+02  0.12700000000E+01 0. -1.
<mgrwt>
<rscale>  1 0.12662376E+03</rscale>
<asrwt>0</asrwt>
<pdfrwt beam="1">  1       21 0.28259766E-02 0.12662376E+03</pdfrwt>
<pdfrwt beam="2">  1       -4 0.45526463E-01 0.12662376E+03</pdfrwt>
<totfact> 0.13006225E+05</totfact>
</mgrwt>
</event>
<event>
 6    4  0.6358868E-003  0.1267701E+03  0.7818608E-02  0.1232329E+00
         21   -1    0    0  501  502  0.00000000000E+00  0.00000000000E+00  0.39268330568E+02  0.39268330568E+02  0.00000000000E+00 0.  1.
          4   -1    0    0  502    0 -0.00000000000E+00 -0.00000000000E+00 -0.14171603417E+03  0.14172172466E+03  0.12700000000E+01 0.  1.
         25    2    1    2    0    0  0.13152287082E+02  0.16590581592E+02 -0.95343848562E+02  0.15862249592E+03  0.12498966637E+03 0.  0.
    9000005    1    3    3    0    0  0.24714159606E+02 -0.35474341359E+02  0.64253882258E+01  0.43720752438E+02  0.10000000000E+01 0.  0.
    9000005    1    3    3    0    0 -0.11561872524E+02  0.52064922951E+02 -0.10176923679E+03  0.11490174348E+03  0.10000000000E+01 0.  0.
          4    1    1    2  501    0 -0.13152287082E+02 -0.16590581592E+02 -0.71038550369E+01  0.22367559308E+02  0.12700000000E+01 0. -1.
<mgrwt>
<rscale>  1 0.12677005E+03</rscale>
<asrwt>0</asrwt>
<pdfrwt beam="1">  1       21 0.60412816E-02 0.12677005E+03</pdfrwt>
<pdfrwt beam="2">  1        4 0.21804484E-01 0.12677005E+03</pdfrwt>
<totfact> 0.14911600E+05</totfact>
</mgrwt>
</event>
<event>
 6    4  0.6358868E-003  0.1363662E+03  0.7818608E-02  0.1218304E+00
          4   -1    0    0  502    0 -0.00000000000E+00  0.00000000000E+00  0.18003202203E+03  0.18003650146E+03  0.12700000000E+01 0. -1.
         21   -1    0    0  501  502  0.00000000000E+00 -0.00000000000E+00 -0.10543380428E+03  0.10543380428E+03  0.00000000000E+00 0.  1.
         25    2    1    2    0    0 -0.48344572436E+02  0.25099781345E+02  0.14328023227E+03  0.19780030674E+03  0.12501415791E+03 0.  0.
    9000005    1    3    3    0    0 -0.58087961207E+02 -0.33277131437E+02  0.11291781942E+03  0.13127456973E+03  0.10000000000E+01 0.  0.
    9000005    1    3    3    0    0  0.97433887706E+01  0.58376912782E+02  0.30362412846E+02  0.66525737009E+02  0.10000000000E+01 0.  0.
          4    1    1    2  501    0  0.48344572436E+02 -0.25099781345E+02 -0.68682014511E+02  0.87669999001E+02  0.12700000000E+01 0.  1.
<mgrwt>
<rscale>  1 0.13636618E+03</rscale>
<asrwt>0</asrwt>
<pdfrwt beam="2">  1       21 0.16220585E-01 0.13636618E+03</pdfrwt>
<pdfrwt beam="1">  1        4 0.27698167E-01 0.13636618E+03</pdfrwt>
<totfact> 0.17176776E+04</totfact>
</mgrwt>
</event>
<event>
 6    4  0.6358868E-003  0.2026576E+03  0.7818608E-02  0.1147516E+00
         -4   -1    0    0    0  501 -0.00000000000E+00  0.00000000000E+00  0.54687181935E+03  0.54687329401E+03  0.12700000000E+01 0. -1.
         21   -1    0    0  501  502  0.00000000000E+00 -0.00000000000E+00 -0.67715083782E+02  0.67715083782E+02  0.00000000000E+00 0.  1.
         25    2    1    2    0    0  0.97052315391E+02 -0.12659260653E+03  0.36815859186E+03  0.42025093735E+03  0.12500104652E+03 0.  0.
    9000005    1    3    3    0    0  0.10422170189E+03 -0.14730504064E+03  0.32114325161E+03  0.36836792232E+03  0.10000000000E+01 0.  0.
    9000005    1    3    3    0    0 -0.71693864973E+01  0.20712434106E+02  0.47015340248E+02  0.51883015024E+02  0.10000000000E+01 0.  0.
         -4    1    1    2    0  502 -0.97052315391E+02  0.12659260653E+03  0.11099814372E+03  0.19433744045E+03  0.12700000000E+01 0.  1.
<mgrwt>
<rscale>  1 0.20265760E+03</rscale>
<asrwt>0</asrwt>
<pdfrwt beam="2">  1       21 0.10417706E-01 0.20265760E+03</pdfrwt>
<pdfrwt beam="1">  1       -4 0.84135153E-01 0.20265760E+03</pdfrwt>
<totfact> 0.40366726E+03</totfact>
</mgrwt>
</event>
<event>
 6    4  0.6358868E-003  0.1334645E+03  0.7818608E-02  0.1222404E+00
         21   -1    0    0  501  502  0.00000000000E+00  0.00000000000E+00  0.35633945680E+03  0.35633945680E+03  0.00000000000E+00 0. -1.
         -4   -1    0    0    0  501 -0.00000000000E+00 -0.00000000000E+00 -0.29906202536E+02  0.29933156368E+02  0.12700000000E+01 0.  1.
         25    2    1    2    0    0 -0.38546337357E+02  0.26697989482E+02  0.13757285313E+03  0.19167439431E+03  0.12495671551E+03 0.  0.
    9000005    1    3    3    0    0  0.33929280626E+02 -0.26707218720E+02  0.50079504483E+02  0.66131901416E+02  0.10000000000E+01 0.  0.
    9000005    1    3    3    0    0 -0.72475617983E+02  0.53405208201E+02  0.87493348649E+02  0.12554249290E+03  0.10000000000E+01 0.  0.
         -4    1    1    2    0  502  0.38546337357E+02 -0.26697989482E+02  0.18886040113E+03  0.19459821885E+03  0.12700000000E+01 0. -1.
<mgrwt>
<rscale>  1 0.13346454E+03</rscale>
<asrwt>0</asrwt>
<pdfrwt beam="1">  1       21 0.54821452E-01 0.13346454E+03</pdfrwt>
<pdfrwt beam="2">  1       -4 0.46032019E-02 0.13346454E+03</pdfrwt>
<totfact> 0.34972307E+04</totfact>
</mgrwt>
</event>
<event>
 6    4  0.6358868E-003  0.1281012E+03  0.7818608E-02  0.1230301E+00
         21   -1    0    0  501  502  0.00000000000E+00  0.00000000000E+00  0.23239366350E+02  0.23239366350E+02  0.00000000000E+00 0.  1.
         -4   -1    0    0    0  501 -0.00000000000E+00 -0.00000000000E+00 -0.29689255714E+03  0.29689527343E+03  0.12700000000E+01 0.  1.
         25    2    1    2    0    0  0.26700488297E+01  0.27893905050E+02 -0.25790307178E+03  0.28796511618E+03  0.12499885841E+03 0.  0.
    9000005    1    3    3    0    0  0.35659863381E+02 -0.39122884820E+02 -0.11904126544E+03  0.13028449198E+03  0.10000000000E+01 0.  0.
    9000005    1    3    3    0    0 -0.32989814551E+02  0.67016789871E+02 -0.13886180634E+03  0.15768062420E+03  0.10000000000E+01 0.  0.
         -4    1    1    2    0  502 -0.26700488297E+01 -0.27893905050E+02 -0.15750119013E+02  0.32169523600E+02  0.12700000000E+01 0. -1.
<mgrwt>
<rscale>  1 0.12810119E+03</rscale>
<asrwt>0</asrwt>
<pdfrwt beam="1">  1       21 0.35752873E-02 0.12810119E+03</pdfrwt>
<pdfrwt beam="2">  1       -4 0.45678654E-01 0.12810119E+03</pdfrwt>
<totfact> 0.87926108E+04</totfact>
</mgrwt>
</event>
<event>
 6    4  0.6358868E-003  0.1272764E+03  0.7818608E-02  0.1231554E+00
         -4   -1    0    0    0  501 -0.00000000000E+00  0.00000000000E+00  0.55937862584E+03  0.55938006752E+03  0.12700000000E+01 0. -1.
         21   -1    0    0  501  502  0.00000000000E+00 -0.00000000000E+00 -0.10488273428E+02  0.10488273428E+02  0.00000000000E+00 0. -1.
         25    2    1    2    0    0  0.54861923442E+01  0.23292391475E+02  0.42363869718E+03  0.44234491626E+03  0.12500658138E+03 0.  0.
    9000005    1    3    3    0    0  0.29967620307E+02 -0.20623526112E+02  0.35084996596E+02  0.50550421188E+02  0.10000000000E+01 0.  0.
    9000005    1    3    3    0    0 -0.24481427963E+02  0.43915917588E+02  0.38855370058E+03  0.39179449507E+03  0.10000000000E+01 0.  0.
         -4    1    1    2    0  502 -0.54861923442E+01 -0.23292391475E+02  0.12525165523E+03  0.12752342469E+03  0.12700000000E+01 0.  1.
<mgrwt>
<rscale>  1 0.12727639E+03</rscale>
<asrwt>0</asrwt>
<pdfrwt beam="2">  1       21 0.16135810E-02 0.12727639E+03</pdfrwt>
<pdfrwt beam="1">  1       -4 0.86064252E-01 0.12727639E+03</pdfrwt>
<totfact> 0.83778824E+04</totfact>
</mgrwt>
</event>
<event>
 6    4  0.6358868E-003  0.1321803E+03  0.7818608E-02  0.1224256E+00
         21   -1    0    0  501  502  0.00000000000E+00  0.00000000000E+00  0.54120631317E+01  0.54120631317E+01  0.00000000000E+00 0. -1.
          4   -1    0    0  502    0 -0.00000000000E+00 -0.00000000000E+00 -0.15887082863E+04  0.15887087939E+04  0.12700000000E+01 0. -1.
         25    2    1    2    0    0  0.40157610112E+02  0.15306366029E+02 -0.13807060463E+04  0.13870186815E+04  0.12499887115E+03 0.  0.
    9000005    1    3    3    0    0  0.28768199344E+02  0.15887063947E+02 -0.13725945507E+04  0.13729882770E+04  0.10000000000E+01 0.  0.
    9000005    1    3    3    0    0  0.11389410768E+02 -0.58069791774E+00 -0.81114956040E+01  0.14030404437E+02  0.10000000000E+01 0.  0.
          4    1    1    2  501    0 -0.40157610112E+02 -0.15306366029E+02 -0.20259017685E+03  0.20710217562E+03  0.12700000000E+01 0.  1.
<mgrwt>
<rscale>  1 0.13218032E+03</rscale>
<asrwt>0</asrwt>
<pdfrwt beam="1">  1       21 0.83262407E-03 0.13218032E+03</pdfrwt>
<pdfrwt beam="2">  1        4 0.24442846E+00 0.13218032E+03</pdfrwt>
<totfact> 0.16098089E+04</totfact>
</mgrwt>
</event>
<event>
 6    4  0.6358868E-003  0.1342356E+03  0.7818608E-02  0.1221303E+00
          4   -1    0    0  502    0 -0.00000000000E+00  0.00000000000E+00  0.45445195367E+02  0.45462937454E+02  0.12700000000E+01 0.  1.
         21   -1    0    0  501  502  0.00000000000E+00 -0.00000000000E+00 -0.63736784723E+03  0.63736784723E+03  0.00000000000E+00 0. -1.
         25    2    1    2    0    0 -0.48357340404E+02  0.75471030956E+01 -0.57271344366E+02  0.14594250520E+03  0.12499526712E+03 0.  0.
    9000005    1    3    3    0    0  0.24425257988E+02  0.44756617856E+02 -0.11596785648E+02  0.52299459912E+02  0.10000000000E+01 0.  0.
    9000005    1    3    3    0    0 -0.72782598392E+02 -0.37209514761E+02 -0.45674558718E+02  0.93643045292E+02  0.10000000000E+01 0.  0.
          4    1    1    2  501    0  0.48357340404E+02 -0.75471030956E+01 -0.53465130750E+03  0.53688827949E+03  0.12700000000E+01 0. -1.
<mgrwt>
<rscale>  1 0.13423564E+03</rscale>
<asrwt>0</asrwt>
<pdfrwt beam="2">  1       21 0.98056584E-01 0.13423564E+03</pdfrwt>
<pdfrwt beam="1">  1        4 0.69930312E-02 0.13423564E+03</pdfrwt>
<totfact> 0.49318455E+03</totfact>
</mgrwt>
</event>
<event>
 6    4  0.6358868E-003  0.1279396E+03  0.7818608E-02  0.1230545E+00
         21   -1    0    0  501  502  0.00000000000E+00  0.00000000000E+00  0.31937168977E+02  0.31937168977E+02  0.00000000000E+00 0. -1.
         -4   -1    0    0    0  501 -0.00000000000E+00 -0.00000000000E+00 -0.39990283035E+03  0.39990484696E+03  0.12700000000E+01 0.  1.
         25    2    1    2    0    0 -0.23267086516E+02 -0.14187556700E+02 -0.38078178896E+03  0.40170051454E+03  0.12500355392E+03 0.  0.
    9000005    1    3    3    0    0  0.36510329603E+02 -0.23678150802E+02 -0.28561338701E+03  0.28891117291E+03  0.10000000000E+01 0.  0.
    9000005    1    3    3    0    0 -0.59777416118E+02  0.94905941014E+01 -0.95168401948E+02  0.11278934162E+03  0.10000000000E+01 0.  0.
         -4    1    1    2    0  502  0.23267086516E+02  0.14187556700E+02  0.12816127592E+02  0.30141501398E+02  0.12700000000E+01 0. -1.
<mgrwt>
<rscale>  1 0.12793957E+03</rscale>
<asrwt>0</asrwt>
<pdfrwt beam="1">  1       21 0.49134104E-02 0.12793957E+03</pdfrwt>
<pdfrwt beam="2">  1       -4 0.61525612E-01 0.12793957E+03</pdfrwt>
<totfact> 0.28082643E+04</totfact>
</mgrwt>
</event>
<event>
 6    4  0.6358868E-003  0.1320450E+03  0.7818608E-02  0.1224452E+00
          4   -1    0    0  502    0 -0.00000000000E+00  0.00000000000E+00  0.18274850919E+04  0.18274855332E+04  0.12700000000E+01 0. -1.
         21   -1    0    0  501  502  0.00000000000E+00 -0.00000000000E+00 -0.14887728687E+02  0.14887728687E+02  0.00000000000E+00 0.  1.
         25    2    1    2    0    0 -0.13055688997E+02  0.40501788290E+02  0.17886693543E+04  0.17935367143E+04  0.12500016232E+03 0.  0.
    9000005    1    3    3    0    0 -0.61093042105E+02  0.19970414668E+02  0.13862201340E+04  0.13877097813E+04  0.10000000000E+01 0.  0.
    9000005    1    3    3    0    0  0.48037353108E+02  0.20531373622E+02  0.40244922029E+03  0.40582693295E+03  0.10000000000E+01 0.  0.
          4    1    1    2  501    0  0.13055688997E+02 -0.40501788290E+02  0.23928008893E+02  0.48836547579E+02  0.12700000000E+01 0.  1.
<mgrwt>
<rscale>  1 0.13204502E+03</rscale>
<asrwt>0</asrwt>
<pdfrwt beam="2">  1       21 0.22904212E-02 0.13204502E+03</pdfrwt>
<pdfrwt beam="1">  1        4 0.28115558E+00 0.13204502E+03</pdfrwt>
<totfact> 0.19737432E+03</totfact>
</mgrwt>
</event>
<event>
 6    4  0.6358868E-003  0.1274297E+03  0.7818608E-02  0.1231320E+00
         -4   -1    0    0    0  501 -0.00000000000E+00  0.00000000000E+00  0.42135101125E+03  0.42135292520E+03  0.12700000000E+01 0.  1.
         21   -1    0    0  501  502  0.00000000000E+00 -0.00000000000E+00 -0.16152352974E+02  0.16152352974E+02  0.00000000000E+00 0.  1.
         25    2    1    2    0    0  0.19269566034E+02 -0.15275017692E+02  0.25248834565E+03  0.28282271671E+03  0.12503472341E+03 0.  0.
    9000005    1    3    3    0    0  0.44861610664E+02 -0.47233141841E+02  0.22309164144E+03  0.23241001329E+03  0.10000000000E+01 0.  0.
    9000005    1    3    3    0    0 -0.25592044630E+02  0.31958124149E+02  0.29396704213E+02  0.50412703419E+02  0.10000000000E+01 0.  0.
         -4    1    1    2    0  502 -0.19269566034E+02  0.15275017692E+02  0.15271031262E+03  0.15468256146E+03  0.12700000000E+01 0. -1.
<mgrwt>
<rscale>  1 0.12742968E+03</rscale>
<asrwt>0</asrwt>
<pdfrwt beam="2">  1       21 0.24849777E-02 0.12742968E+03</pdfrwt>
<pdfrwt beam="1">  1       -4 0.64827212E-01 0.12742968E+03</pdfrwt>
<totfact> 0.77446312E+04</totfact>
</mgrwt>
</event>
<event>
 6    4  0.6358868E-003  0.1274555E+03  0.7818608E-02  0.1231281E+00
          4   -1    0    0  502    0 -0.00000000000E+00  0.00000000000E+00  0.78278403548E+03  0.78278506571E+03  0.12700000000E+01 0. -1.
         21   -1    0    0  501  502  0.00000000000E+00 -0.00000000000E+00 -0.28448101163E+02  0.28448101163E+02  0.00000000000E+00 0.  1.
         25    2    1    2    0    0  0.42738873130E+01 -0.24521306965E+02  0.77086250357E+03  0.78132830106E+03  0.12500141608E+03 0.  0.
    9000005    1    3    3    0    0  0.48339985433E+02 -0.43867413330E+02  0.60817252816E+03  0.61166651711E+03  0.10000000000E+01 0.  0.
    9000005    1    3    3    0    0 -0.44066098120E+02  0.19346106365E+02  0.16268997540E+03  0.16966178394E+03  0.10000000000E+01 0.  0.
          4    1    1    2  501    0 -0.42738873130E+01  0.24521306965E+02 -0.16526569254E+02  0.29904865814E+02  0.12700000000E+01 0.  1.
<mgrwt>
<rscale>  1 0.12745554E+03</rscale>
<asrwt>0</asrwt>
<pdfrwt beam="2">  1       21 0.43766315E-02 0.12745554E+03</pdfrwt>
<pdfrwt beam="1">  1        4 0.12043056E+00 0.12745554E+03</pdfrwt>
<totfact> 0.75498926E+03</totfact>
</mgrwt>
</event>
<event>
 6    4  0.6358868E-003  0.1270849E+03  0.7818608E-02  0.1231846E+00
         21   -1    0    0  501  502  0.00000000000E+00  0.00000000000E+00  0.22205882800E+04  0.22205882800E+04  0.00000000000E+00 0.  1.
          4   -1    0    0  502    0 -0.00000000000E+00 -0.00000000000E+00 -0.54921024724E+01  0.56370284341E+01  0.12700000000E+01 0. -1.
         25    2    1    2    0    0 -0.22878942518E+02 -0.15738101476E+01  0.73190595324E+03  0.74285725660E+03  0.12499862560E+03 0.  0.
    9000005    1    3    3    0    0  0.31592910101E+01 -0.61466730857E+02  0.37663850459E+03  0.38163556341E+03  0.10000000000E+01 0.  0.
    9000005    1    3    3    0    0 -0.26038233528E+02  0.59892920709E+02  0.35526744865E+03  0.36122169319E+03  0.10000000000E+01 0.  0.
          4    1    1    2  501    0  0.22878942518E+02  0.15738101476E+01  0.14831902243E+04  0.14833680518E+04  0.12700000000E+01 0.  1.
<mgrwt>
<rscale>  1 0.12708493E+03</rscale>
<asrwt>0</asrwt>
<pdfrwt beam="1">  1       21 0.34162826E+00 0.12708493E+03</pdfrwt>
<pdfrwt beam="2">  1        4 0.85611670E-03 0.12708493E+03</pdfrwt>
<totfact> 0.31822516E+03</totfact>
</mgrwt>
</event>
<event>
 6    4  0.6358868E-003  0.1265919E+03  0.7818608E-02  0.1232602E+00
         21   -1    0    0  501  502  0.00000000000E+00  0.00000000000E+00  0.38050503899E+01  0.38050503899E+01  0.00000000000E+00 0. -1.
         -4   -1    0    0    0  501 -0.00000000000E+00 -0.00000000000E+00 -0.15588024332E+04  0.15588029505E+04  0.12700000000E+01 0. -1.
         25    2    1    2    0    0 -0.43268304125E+01 -0.19559188754E+02 -0.14619285813E+04  0.14673992932E+04  0.12499690143E+03 0.  0.
    9000005    1    3    3    0    0  0.78701469120E+01  0.44795300906E+02 -0.97794641275E+03  0.97900395525E+03  0.10000000000E+01 0.  0.
    9000005    1    3    3    0    0 -0.12196977324E+02 -0.64354489660E+02 -0.48398216860E+03  0.48839533793E+03  0.10000000000E+01 0.  0.
         -4    1    1    2    0  502  0.43268304125E+01  0.19559188754E+02 -0.93068801451E+02  0.95208707741E+02  0.12700000000E+01 0.  1.
<mgrwt>
<rscale>  1 0.12659190E+03</rscale>
<asrwt>0</asrwt>
<pdfrwt beam="1">  1       21 0.58539197E-03 0.12659190E+03</pdfrwt>
<pdfrwt beam="2">  1       -4 0.23983227E+00 0.12659190E+03</pdfrwt>
<totfact> 0.29529956E+04</totfact>
</mgrwt>
</event>
<event>
 6    4  0.6358868E-003  0.1344025E+03  0.7818608E-02  0.1221066E+00
          4   -1    0    0  502    0 -0.00000000000E+00  0.00000000000E+00  0.15496315371E+03  0.15496835777E+03  0.12700000000E+01 0.  1.
         21   -1    0    0  501  502  0.00000000000E+00 -0.00000000000E+00 -0.56813101751E+02  0.56813101751E+02  0.00000000000E+00 0.  1.
         25    2    1    2    0    0 -0.47641898409E+02 -0.13068748369E+02  0.89853906381E+02  0.16167176385E+03  0.12499396812E+03 0.  0.
    9000005    1    3    3    0    0 -0.22666333852E+02 -0.19693819592E+02  0.11898499515E+03  0.12271934767E+03  0.10000000000E+01 0.  0.
    9000005    1    3    3    0    0 -0.24975564557E+02  0.66250712225E+01 -0.29131088772E+02  0.38952416185E+02  0.10000000000E+01 0.  0.
          4    1    1    2  501    0  0.47641898409E+02  0.13068748369E+02  0.82961455809E+01  0.50109695664E+02  0.12700000000E+01 0. -1.
<mgrwt>
<rscale>  1 0.13440251E+03</rscale>
<asrwt>0</asrwt>
<pdfrwt beam="2">  1       21 0.87404773E-02 0.13440251E+03</pdfrwt>
<pdfrwt beam="1">  1        4 0.23841977E-01 0.13440251E+03</pdfrwt>
<totfact> 0.67806394E+04</totfact>
</mgrwt>
</event>
<event>
 6    4  0.6358868E-003  0.1379471E+03  0.7818608E-02  0.1216118E+00
         21   -1    0    0  501  502  0.00000000000E+00  0.00000000000E+00  0.17947793806E+03  0.17947793806E+03  0.00000000000E+00 0. -1.
         -4   -1    0    0    0  501 -0.00000000000E+00 -0.00000000000E+00 -0.11922828363E+03  0.11923504735E+03  0.12700000000E+01 0.  1.
         25    2    1    2    0    0  0.58344552520E+02  0.67838630805E+00 -0.70946007089E+02  0.15512168512E+03  0.12499941702E+03 0.  0.
    9000005    1    3    3    0    0 -0.20122869972E+02  0.39628960706E+02 -0.35673610706E+01  0.44599444924E+02  0.10000000000E+01 0.  0.
    9000005    1    3    3    0    0  0.78467422492E+02 -0.38950574398E+02 -0.67378646019E+02  0.11052224020E+03  0.10000000000E+01 0.  0.
         -4    1    1    2    0  502 -0.58344552520E+02 -0.67838630805E+00  0.13119566152E+03  0.14359130029E+03  0.12700000000E+01 0. -1.
<mgrwt>
<rscale>  1 0.13794710E+03</rscale>
<asrwt>0</asrwt>
<pdfrwt beam="1">  1       21 0.27611990E-01 0.13794710E+03</pdfrwt>
<pdfrwt beam="2">  1       -4 0.18343679E-01 0.13794710E+03</pdfrwt>
<totfact> 0.13539304E+04</totfact>
</mgrwt>
</event>
<event>
 6    4  0.6358868E-003  0.1298725E+03  0.7818608E-02  0.1227645E+00
         21   -1    0    0  501  502  0.00000000000E+00  0.00000000000E+00  0.71593263928E+01  0.71593263928E+01  0.00000000000E+00 0. -1.
          4   -1    0    0  502    0 -0.00000000000E+00 -0.00000000000E+00 -0.95911533250E+03  0.95911617333E+03  0.12700000000E+01 0. -1.
         25    2    1    2    0    0  0.79391948477E+01 -0.34333768596E+02 -0.78042828960E+03  0.79116065480E+03  0.12500011206E+03 0.  0.
    9000005    1    3    3    0    0 -0.49680220761E+02 -0.53755585409E+01 -0.53743385037E+03  0.53975287354E+03  0.10000000000E+01 0.  0.
    9000005    1    3    3    0    0  0.57619415609E+02 -0.28958210055E+02 -0.24299443923E+03  0.25140778126E+03  0.10000000000E+01 0.  0.
          4    1    1    2  501    0 -0.79391948477E+01  0.34333768596E+02 -0.17152771651E+03  0.17511484492E+03  0.12700000000E+01 0.  1.
<mgrwt>
<rscale>  1 0.12987250E+03</rscale>
<asrwt>0</asrwt>
<pdfrwt beam="1">  1       21 0.11014356E-02 0.12987250E+03</pdfrwt>
<pdfrwt beam="2">  1        4 0.14756483E+00 0.12987250E+03</pdfrwt>
<totfact> 0.42917134E+04</totfact>
</mgrwt>
</event>
<event>
 6    4  0.6358868E-003  0.1511914E+03  0.7818608E-02  0.1199017E+00
          4   -1    0    0  502    0 -0.00000000000E+00  0.00000000000E+00  0.10589403907E+02  0.10665288327E+02  0.12700000000E+01 0.  1.
         21   -1    0    0  501  502  0.00000000000E+00 -0.00000000000E+00 -0.22395231707E+04  0.22395231707E+04  0.00000000000E+00 0. -1.
         25    2    1    2    0    0  0.48867570747E+02 -0.69612793825E+02 -0.59050569905E+03  0.60955378714E+03  0.12499943308E+03 0.  0.
    9000005    1    3    3    0    0 -0.13996495348E+02 -0.18754830517E+02 -0.42198891551E+03  0.42263848661E+03  0.10000000000E+01 0.  0.
    9000005    1    3    3    0    0  0.62864066095E+02 -0.50857963307E+02 -0.16851678354E+03  0.18691530053E+03  0.10000000000E+01 0.  0.
          4    1    1    2  501    0 -0.48867570747E+02  0.69612793825E+02 -0.16384280678E+04  0.16406346719E+04  0.12700000000E+01 0. -1.
<mgrwt>
<rscale>  1 0.15119140E+03</rscale>
<asrwt>0</asrwt>
<pdfrwt beam="2">  1       21 0.34454231E+00 0.15119140E+03</pdfrwt>
<pdfrwt beam="1">  1        4 0.16350027E-02 0.15119140E+03</pdfrwt>
<totfact> 0.11318093E+03</totfact>
</mgrwt>
</event>
<event>
 6    4  0.6358868E-003  0.1297873E+03  0.7818608E-02  0.1227772E+00
         21   -1    0    0  501  502  0.00000000000E+00  0.00000000000E+00  0.17344562976E+03  0.17344562976E+03  0.00000000000E+00 0. -1.
         -4   -1    0    0    0  501 -0.00000000000E+00 -0.00000000000E+00 -0.10383082149E+03  0.10383858816E+03  0.12700000000E+01 0.  1.
         25    2    1    2    0    0  0.26946634016E+02  0.22209174985E+02 -0.60041060962E+02  0.14300232836E+03  0.12500147350E+03 0.  0.
    9000005    1    3    3    0    0  0.45759046966E+02 -0.14609377001E+02 -0.82848895323E+02  0.95771936035E+02  0.10000000000E+01 0.  0.
    9000005    1    3    3    0    0 -0.18812412950E+02  0.36818551987E+02  0.22807834361E+02  0.47230392329E+02  0.10000000000E+01 0.  0.
         -4    1    1    2    0  502 -0.26946634016E+02 -0.22209174985E+02  0.12965586923E+03  0.13428188956E+03  0.12700000000E+01 0. -1.
<mgrwt>
<rscale>  1 0.12978728E+03</rscale>
<asrwt>0</asrwt>
<pdfrwt beam="1">  1       21 0.26683943E-01 0.12978728E+03</pdfrwt>
<pdfrwt beam="2">  1       -4 0.15974928E-01 0.12978728E+03</pdfrwt>
<totfact> 0.18355600E+04</totfact>
</mgrwt>
</event>
<event>
 6    4  0.6358868E-003  0.1268492E+03  0.7818608E-02  0.1232207E+00
         -4   -1    0    0    0  501 -0.00000000000E+00  0.00000000000E+00  0.14238519220E+02  0.14295045630E+02  0.12700000000E+01 0.  1.
         21   -1    0    0  501  502  0.00000000000E+00 -0.00000000000E+00 -0.44992471787E+03  0.44992471787E+03  0.00000000000E+00 0.  1.
         25    2    1    2    0    0 -0.11526260606E+02  0.17885122297E+02 -0.28397525484E+03  0.31101873330E+03  0.12505188850E+03 0.  0.
    9000005    1    3    3    0    0 -0.11731854539E+02 -0.44661584117E+02 -0.20568203700E+03  0.21080415994E+03  0.10000000000E+01 0.  0.
    9000005    1    3    3    0    0  0.20559393252E+00  0.62546706414E+02 -0.78293217842E+02  0.10021457335E+03  0.10000000000E+01 0.  0.
         -4    1    1    2    0  502  0.11526260606E+02 -0.17885122297E+02 -0.15171094381E+03  0.15320103021E+03  0.12700000000E+01 0. -1.
<mgrwt>
<rscale>  1 0.12684915E+03</rscale>
<asrwt>0</asrwt>
<pdfrwt beam="2">  1       21 0.69219171E-01 0.12684915E+03</pdfrwt>
<pdfrwt beam="1">  1       -4 0.21950280E-02 0.12684915E+03</pdfrwt>
<totfact> 0.67643651E+04</totfact>
</mgrwt>
</event>
<event>
 6    4  0.6358868E-003  0.1494414E+03  0.7818608E-02  0.1201161E+00
         21   -1    0    0  501  502  0.00000000000E+00  0.00000000000E+00  0.35123753239E+03  0.35123753239E+03  0.00000000000E+00 0. -1.
         -4   -1    0    0    0  501 -0.00000000000E+00 -0.00000000000E+00 -0.49610178846E+02  0.49626431920E+02  0.12700000000E+01 0.  1.
         25    2    1    2    0    0  0.65112609989E+02  0.49689356028E+02  0.91242557781E+02  0.17509403879E+03  0.12499613589E+03 0.  0.
    9000005    1    3    3    0    0  0.10237890411E+03  0.39326178668E+02  0.57927477005E+02  0.12403459569E+03  0.10000000000E+01 0.  0.
    9000005    1    3    3    0    0 -0.37266294121E+02  0.10363177360E+02  0.33315080777E+02  0.51059443100E+02  0.10000000000E+01 0.  0.
         -4    1    1    2    0  502 -0.65112609989E+02 -0.49689356028E+02  0.21038479576E+03  0.22576992552E+03  0.12700000000E+01 0. -1.
<mgrwt>
<rscale>  1 0.14944135E+03</rscale>
<asrwt>0</asrwt>
<pdfrwt beam="1">  1       21 0.54036542E-01 0.14944135E+03</pdfrwt>
<pdfrwt beam="2">  1       -4 0.76337623E-02 0.14944135E+03</pdfrwt>
<totfact> 0.15992915E+04</totfact>
</mgrwt>
</event>
<event>
 6    4  0.6358868E-003  0.1290474E+03  0.7818608E-02  0.1228876E+00
         -4   -1    0    0    0  501 -0.00000000000E+00  0.00000000000E+00  0.12562984870E+04  0.12562991289E+04  0.12700000000E+01 0. -1.
         21   -1    0    0  501  502  0.00000000000E+00 -0.00000000000E+00 -0.56750851349E+01  0.56750851349E+01  0.00000000000E+00 0. -1.
         25    2    1    2    0    0 -0.25192527318E+02 -0.19826749215E+02  0.11225509223E+04  0.11299441556E+04  0.12500183271E+03 0.  0.
    9000005    1    3    3    0    0 -0.83933141636E+01  0.10639899959E+01  0.10773393490E+04  0.10773730332E+04  0.10000000000E+01 0.  0.
    9000005    1    3    3    0    0 -0.16799213154E+02 -0.20890739211E+02  0.45211573295E+02  0.52571122369E+02  0.10000000000E+01 0.  0.
         -4    1    1    2    0  502  0.25192527318E+02  0.19826749215E+02  0.12807247950E+03  0.13203005841E+03  0.12700000000E+01 0.  1.
<mgrwt>
<rscale>  1 0.12904736E+03</rscale>
<asrwt>0</asrwt>
<pdfrwt beam="2">  1       21 0.87309103E-03 0.12904736E+03</pdfrwt>
<pdfrwt beam="1">  1       -4 0.19328745E+00 0.12904736E+03</pdfrwt>
<totfact> 0.30191868E+04</totfact>
</mgrwt>
</event>
<event>
 6    4  0.6358868E-003  0.1268380E+03  0.7818608E-02  0.1232224E+00
         21   -1    0    0  501  502  0.00000000000E+00  0.00000000000E+00  0.24687233278E+03  0.24687233278E+03  0.00000000000E+00 0.  1.
         -4   -1    0    0    0  501 -0.00000000000E+00 -0.00000000000E+00 -0.24975462428E+02  0.25007731274E+02  0.12700000000E+01 0.  1.
         25    2    1    2    0    0 -0.17430041324E-01 -0.21529738715E+02  0.14807372125E+03  0.19497102559E+03  0.12499737575E+03 0.  0.
    9000005    1    3    3    0    0  0.20271741925E+02 -0.69475413323E+02  0.10424900230E+03  0.12691190274E+03  0.10000000000E+01 0.  0.
    9000005    1    3    3    0    0 -0.20289171966E+02  0.47945674607E+02  0.43824718948E+02  0.68059122853E+02  0.10000000000E+01 0.  0.
         -4    1    1    2    0  502  0.17430041324E-01  0.21529738715E+02  0.73823149112E+02  0.76909038466E+02  0.12700000000E+01 0. -1.
<mgrwt>
<rscale>  1 0.12683798E+03</rscale>
<asrwt>0</asrwt>
<pdfrwt beam="1">  1       21 0.37980357E-01 0.12683798E+03</pdfrwt>
<pdfrwt beam="2">  1       -4 0.38451125E-02 0.12683798E+03</pdfrwt>
<totfact> 0.97783382E+04</totfact>
</mgrwt>
</event>
<event>
 6    4  0.6358868E-003  0.1340605E+03  0.7818608E-02  0.1221552E+00
         21   -1    0    0  501  502  0.00000000000E+00  0.00000000000E+00  0.57797101374E+02  0.57797101374E+02  0.00000000000E+00 0. -1.
         -4   -1    0    0    0  501 -0.00000000000E+00 -0.00000000000E+00 -0.21248833913E+03  0.21249213436E+03  0.12700000000E+01 0.  1.
         25    2    1    2    0    0  0.34725802757E+02 -0.33809778679E+02 -0.17265015930E+03  0.21858702810E+03  0.12499291513E+03 0.  0.
    9000005    1    3    3    0    0  0.19438112135E+02 -0.77833082185E+02 -0.14105407729E+03  0.16227471031E+03  0.10000000000E+01 0.  0.
    9000005    1    3    3    0    0  0.15287690622E+02  0.44023303507E+02 -0.31596082018E+02  0.56312317792E+02  0.10000000000E+01 0.  0.
         -4    1    1    2    0  502 -0.34725802757E+02  0.33809778679E+02  0.17958921550E+02  0.51702207638E+02  0.12700000000E+01 0. -1.
<mgrwt>
<rscale>  1 0.13406048E+03</rscale>
<asrwt>0</asrwt>
<pdfrwt beam="1">  1       21 0.88918618E-02 0.13406048E+03</pdfrwt>
<pdfrwt beam="2">  1       -4 0.32691879E-01 0.13406048E+03</pdfrwt>
<totfact> 0.36434713E+04</totfact>
</mgrwt>
</event>
<event>
 6    4  0.6358868E-003  0.1294822E+03  0.7818608E-02  0.1228226E+00
          4   -1    0    0  502    0 -0.00000000000E+00  0.00000000000E+00  0.55148020872E+03  0.55148167106E+03  0.12700000000E+01 0.  1.
         21   -1    0    0  501  502  0.00000000000E+00 -0.00000000000E+00 -0.12434136280E+02  0.12434136280E+02  0.00000000000E+00 0.  1.
         25    2    1    2    0    0 -0.45776191268E+01  0.33456223423E+02  0.38443019403E+03  0.40565034604E+03  0.12500142270E+03 0.  0.
    9000005    1    3    3    0    0 -0.36057144015E+02  0.71385264374E+02  0.22673480334E+03  0.24042804464E+03  0.10000000000E+01 0.  0.
    9000005    1    3    3    0    0  0.31479524888E+02 -0.37929040951E+02  0.15769539069E+03  0.16522230140E+03  0.10000000000E+01 0.  0.
          4    1    1    2  501    0  0.45776191268E+01 -0.33456223423E+02  0.15461587841E+03  0.15826546130E+03  0.12700000000E+01 0. -1.
<mgrwt>
<rscale>  1 0.12948216E+03</rscale>
<asrwt>0</asrwt>
<pdfrwt beam="2">  1       21 0.19129445E-02 0.12948216E+03</pdfrwt>
<pdfrwt beam="1">  1        4 0.84848191E-01 0.12948216E+03</pdfrwt>
<totfact> 0.65970017E+04</totfact>
</mgrwt>
</event>
<event>
 6    4  0.6358868E-003  0.1418256E+03  0.7818608E-02  0.1210893E+00
          4   -1    0    0  502    0 -0.00000000000E+00  0.00000000000E+00  0.42709918287E+02  0.42728796146E+02  0.12700000000E+01 0.  1.
         21   -1    0    0  501  502  0.00000000000E+00 -0.00000000000E+00 -0.12414208794E+04  0.12414208794E+04  0.00000000000E+00 0. -1.
         25    2    1    2    0    0  0.65100461043E+02  0.15815771233E+02 -0.78820688740E+02  0.16225661304E+03  0.12500519531E+03 0.  0.
    9000005    1    3    3    0    0  0.98612734783E+02  0.43642443082E+01 -0.32472286249E+02  0.10391808054E+03  0.10000000000E+01 0.  0.
    9000005    1    3    3    0    0 -0.33512273740E+02  0.11451526925E+02 -0.46348402491E+02  0.58338532494E+02  0.10000000000E+01 0.  0.
          4    1    1    2  501    0 -0.65100461043E+02 -0.15815771233E+02 -0.11198902723E+04  0.11218930625E+04  0.12700000000E+01 0. -1.
<mgrwt>
<rscale>  1 0.14182562E+03</rscale>
<asrwt>0</asrwt>
<pdfrwt beam="2">  1       21 0.19098782E+00 0.14182562E+03</pdfrwt>
<pdfrwt beam="1">  1        4 0.65722590E-02 0.14182562E+03</pdfrwt>
<totfact> 0.99821992E+02</totfact>
</mgrwt>
</event>
<event>
 6    4  0.6358868E-003  0.1293530E+03  0.7818608E-02  0.1228419E+00
          4   -1    0    0  502    0 -0.00000000000E+00  0.00000000000E+00  0.33365662334E+02  0.33389823644E+02  0.12700000000E+01 0.  1.
         21   -1    0    0  501  502  0.00000000000E+00 -0.00000000000E+00 -0.19911481067E+03  0.19911481067E+03  0.00000000000E+00 0. -1.
         25    2    1    2    0    0  0.52012957712E+01  0.32854703495E+02 -0.13823555560E+03  0.18931788050E+03  0.12500282408E+03 0.  0.
    9000005    1    3    3    0    0 -0.22168504351E+01  0.70835274725E+02 -0.13238875853E+03  0.15016768612E+03  0.10000000000E+01 0.  0.
    9000005    1    3    3    0    0  0.74181462063E+01 -0.37980571229E+02 -0.58467970705E+01  0.39150194381E+02  0.10000000000E+01 0.  0.
          4    1    1    2  501    0 -0.52012957712E+01 -0.32854703495E+02 -0.27513592741E+02  0.43186753814E+02  0.12700000000E+01 0. -1.
<mgrwt>
<rscale>  1 0.12935297E+03</rscale>
<asrwt>0</asrwt>
<pdfrwt beam="2">  1       21 0.30633048E-01 0.12935297E+03</pdfrwt>
<pdfrwt beam="1">  1        4 0.51353489E-02 0.12935297E+03</pdfrwt>
<totfact> 0.94128540E+04</totfact>
</mgrwt>
</event>
<event>
 6    4  0.6358868E-003  0.1368890E+03  0.7818608E-02  0.1217577E+00
         21   -1    0    0  501  502  0.00000000000E+00  0.00000000000E+00  0.90970246927E+03  0.90970246927E+03  0.00000000000E+00 0. -1.
         -4   -1    0    0    0  501 -0.00000000000E+00 -0.00000000000E+00 -0.32856132422E+02  0.32880668146E+02  0.12700000000E+01 0.  1.
         25    2    1    2    0    0  0.16657217828E+02 -0.53254190912E+02  0.11525031174E+03  0.17894474779E+03  0.12500046659E+03 0.  0.
    9000005    1    3    3    0    0  0.56628633844E+02 -0.69793309140E+02  0.96233464008E+02  0.13168062791E+03  0.10000000000E+01 0.  0.
    9000005    1    3    3    0    0 -0.39971416016E+02  0.16539118229E+02  0.19016847733E+02  0.47264119878E+02  0.10000000000E+01 0.  0.
         -4    1    1    2    0  502 -0.16657217828E+02  0.53254190912E+02  0.76159602510E+03  0.76363838962E+03  0.12700000000E+01 0. -1.
<mgrwt>
<rscale>  1 0.13688896E+03</rscale>
<asrwt>0</asrwt>
<pdfrwt beam="1">  1       21 0.13995421E+00 0.13688896E+03</pdfrwt>
<pdfrwt beam="2">  1       -4 0.50567459E-02 0.13688896E+03</pdfrwt>
<totfact> 0.35170547E+03</totfact>
</mgrwt>
</event>
<event>
 6    4  0.6358868E-003  0.1325076E+03  0.7818608E-02  0.1223782E+00
         21   -1    0    0  501  502  0.00000000000E+00  0.00000000000E+00  0.26053078867E+03  0.26053078867E+03  0.00000000000E+00 0. -1.
         -4   -1    0    0    0  501 -0.00000000000E+00 -0.00000000000E+00 -0.94857414903E+02  0.94865916229E+02  0.12700000000E+01 0.  1.
         25    2    1    2    0    0  0.33485227731E+02 -0.28517917705E+02 -0.45182215720E+02  0.13999887616E+03  0.12499488231E+03 0.  0.
    9000005    1    3    3    0    0  0.77199409873E+02 -0.93925744951E+01 -0.55670195514E+01  0.77974104977E+02  0.10000000000E+01 0.  0.
    9000005    1    3    3    0    0 -0.43714182141E+02 -0.19125343209E+02 -0.39615196168E+02  0.62024771186E+02  0.10000000000E+01 0.  0.
         -4    1    1    2    0  502 -0.33485227731E+02  0.28517917705E+02  0.21085558948E+03  0.21539782873E+03  0.12700000000E+01 0. -1.
<mgrwt>
<rscale>  1 0.13250756E+03</rscale>
<asrwt>0</asrwt>
<pdfrwt beam="1">  1       21 0.40081660E-01 0.13250756E+03</pdfrwt>
<pdfrwt beam="2">  1       -4 0.14594341E-01 0.13250756E+03</pdfrwt>
<totfact> 0.97404690E+03</totfact>
</mgrwt>
</event>
<event>
 6    4  0.6358868E-003  0.1296591E+03  0.7818608E-02  0.1227962E+00
         21   -1    0    0  501  502  0.00000000000E+00  0.00000000000E+00  0.68981273654E+02  0.68981273654E+02  0.00000000000E+00 0. -1.
          4   -1    0    0  502    0 -0.00000000000E+00 -0.00000000000E+00 -0.97668229063E+02  0.97676485749E+02  0.12700000000E+01 0. -1.
         25    2    1    2    0    0 -0.17508909358E+02  0.29677978704E+02 -0.21362272993E+02  0.13140711119E+03  0.12499655130E+03 0.  0.
    9000005    1    3    3    0    0  0.71786719736E+01  0.44854054136E+02 -0.64823270415E+02  0.79161075605E+02  0.10000000000E+01 0.  0.
    9000005    1    3    3    0    0 -0.24687581332E+02 -0.15176075432E+02  0.43460997422E+02  0.52246035586E+02  0.10000000000E+01 0.  0.
          4    1    1    2  501    0  0.17508909358E+02 -0.29677978704E+02 -0.73246824163E+01  0.35250648212E+02  0.12700000000E+01 0.  1.
<mgrwt>
<rscale>  1 0.12965910E+03</rscale>
<asrwt>0</asrwt>
<pdfrwt beam="1">  1       21 0.10612504E-01 0.12965910E+03</pdfrwt>
<pdfrwt beam="2">  1        4 0.15027416E-01 0.12965910E+03</pdfrwt>
<totfact> 0.10974577E+05</totfact>
</mgrwt>
</event>
<event>
 6    4  0.6358868E-003  0.1266881E+03  0.7818608E-02  0.1232454E+00
         21   -1    0    0  501  502  0.00000000000E+00  0.00000000000E+00  0.10004026351E+03  0.10004026351E+03  0.00000000000E+00 0. -1.
         -4   -1    0    0    0  501 -0.00000000000E+00 -0.00000000000E+00 -0.13435980003E+03  0.13436580206E+03  0.12700000000E+01 0. -1.
         25    2    1    2    0    0  0.67351043097E+01 -0.19463265616E+02 -0.10263298631E+03  0.16304416634E+03  0.12500275981E+03 0.  0.
    9000005    1    3    3    0    0  0.21876628976E+02 -0.26235436493E+01 -0.12750125841E+03  0.12939490242E+03  0.10000000000E+01 0.  0.
    9000005    1    3    3    0    0 -0.15141524666E+02 -0.16839721967E+02  0.24868272097E+02  0.33649263918E+02  0.10000000000E+01 0.  0.
         -4    1    1    2    0  502 -0.67351043097E+01  0.19463265616E+02  0.68313449792E+02  0.71361899225E+02  0.12700000000E+01 0.  1.
<mgrwt>
<rscale>  1 0.12668808E+03</rscale>
<asrwt>0</asrwt>
<pdfrwt beam="1">  1       21 0.15390810E-01 0.12668808E+03</pdfrwt>
<pdfrwt beam="2">  1       -4 0.20671820E-01 0.12668808E+03</pdfrwt>
<totfact> 0.32073652E+04</totfact>
</mgrwt>
</event>
<event>
 6    4  0.6358868E-003  0.1383084E+03  0.7818608E-02  0.1215623E+00
          4   -1    0    0  502    0 -0.00000000000E+00  0.00000000000E+00  0.30451451089E+02  0.30477922722E+02  0.12700000000E+01 0.  1.
         21   -1    0    0  501  502  0.00000000000E+00 -0.00000000000E+00 -0.35458589431E+03  0.35458589431E+03  0.00000000000E+00 0. -1.
         25    2    1    2    0    0  0.56885604317E+02  0.16380634090E+02 -0.27615494270E+03  0.30885395860E+03  0.12499967285E+03 0.  0.
    9000005    1    3    3    0    0 -0.12924322949E+02 -0.10527868736E+02 -0.20474021675E+03  0.20542013167E+03  0.10000000000E+01 0.  0.
    9000005    1    3    3    0    0  0.69809927267E+02  0.26908502826E+02 -0.71414725958E+02  0.10343382693E+03  0.10000000000E+01 0.  0.
          4    1    1    2  501    0 -0.56885604317E+02 -0.16380634090E+02 -0.47979500513E+02  0.76209858426E+02  0.12700000000E+01 0. -1.
<mgrwt>
<rscale>  1 0.13830841E+03</rscale>
<asrwt>0</asrwt>
<pdfrwt beam="2">  1       21 0.54551679E-01 0.13830841E+03</pdfrwt>
<pdfrwt beam="1">  1        4 0.46870496E-02 0.13830841E+03</pdfrwt>
<totfact> 0.34446549E+04</totfact>
</mgrwt>
</event>
<event>
 6    4  0.6358868E-003  0.1324435E+03  0.7818608E-02  0.1223874E+00
         -4   -1    0    0    0  501 -0.00000000000E+00  0.00000000000E+00  0.61078835977E+02  0.61092037978E+02  0.12700000000E+01 0. -1.
         21   -1    0    0  501  502  0.00000000000E+00 -0.00000000000E+00 -0.20854262098E+03  0.20854262098E+03  0.00000000000E+00 0. -1.
         25    2    1    2    0    0 -0.41435819509E+02 -0.14151011177E+02 -0.18865099624E+02  0.13378027722E+03  0.12499636928E+03 0.  0.
    9000005    1    3    3    0    0  0.26066974664E+02 -0.44710638415E+02  0.12594399171E+02  0.53274264388E+02  0.10000000000E+01 0.  0.
    9000005    1    3    3    0    0 -0.67502794173E+02  0.30559627239E+02 -0.31459498796E+02  0.80506012835E+02  0.10000000000E+01 0.  0.
         -4    1    1    2    0  502  0.41435819509E+02  0.14151011177E+02 -0.12859868538E+03  0.13585438174E+03  0.12700000000E+01 0.  1.
<mgrwt>
<rscale>  1 0.13244346E+03</rscale>
<asrwt>0</asrwt>
<pdfrwt beam="2">  1       21 0.32083480E-01 0.13244346E+03</pdfrwt>
<pdfrwt beam="1">  1       -4 0.93980571E-02 0.13244346E+03</pdfrwt>
<totfact> 0.32021899E+04</totfact>
</mgrwt>
</event>
<event>
 6    4  0.6358868E-003  0.1766803E+03  0.7818608E-02  0.1171055E+00
         -4   -1    0    0    0  501 -0.00000000000E+00  0.00000000000E+00  0.80530760458E+02  0.80540774021E+02  0.12700000000E+01 0. -1.
         21   -1    0    0  501  502  0.00000000000E+00 -0.00000000000E+00 -0.28755631642E+03  0.28755631642E+03  0.00000000000E+00 0.  1.
         25    2    1    2    0    0 -0.10632642149E+03 -0.65441910677E+02 -0.96330330742E+02  0.20123487972E+03  0.12501196988E+03 0.  0.
    9000005    1    3    3    0    0 -0.11396668064E+03 -0.86802925435E+02 -0.10425730570E+03  0.17718278120E+03  0.10000000000E+01 0.  0.
    9000005    1    3    3    0    0  0.76402591503E+01  0.21361014757E+02  0.79269749555E+01  0.24052098522E+02  0.10000000000E+01 0.  0.
         -4    1    1    2    0  502  0.10632642149E+03  0.65441910677E+02 -0.11069522522E+03  0.16686221072E+03  0.12700000000E+01 0.  1.
<mgrwt>
<rscale>  1 0.17668034E+03</rscale>
<asrwt>0</asrwt>
<pdfrwt beam="2">  1       21 0.44239432E-01 0.17668034E+03</pdfrwt>
<pdfrwt beam="1">  1       -4 0.12390334E-01 0.17668034E+03</pdfrwt>
<totfact> 0.10801219E+04</totfact>
</mgrwt>
</event>
<event>
 6    4  0.6358868E-003  0.1276565E+03  0.7818608E-02  0.1230975E+00
         21   -1    0    0  501  502  0.00000000000E+00  0.00000000000E+00  0.42989826510E+02  0.42989826510E+02  0.00000000000E+00 0.  1.
         -4   -1    0    0    0  501 -0.00000000000E+00 -0.00000000000E+00 -0.18931271193E+03  0.18931697177E+03  0.12700000000E+01 0. -1.
         25    2    1    2    0    0 -0.40932701397E+01  0.25595478583E+02 -0.15860363955E+03  0.20359594308E+03  0.12499724067E+03 0.  0.
    9000005    1    3    3    0    0  0.14851345227E+02  0.61683829883E+02 -0.32962351804E+02  0.71505062482E+02  0.10000000000E+01 0.  0.
    9000005    1    3    3    0    0 -0.18944615367E+02 -0.36088351300E+02 -0.12564128774E+03  0.13209088060E+03  0.10000000000E+01 0.  0.
         -4    1    1    2    0  502  0.40932701397E+01 -0.25595478583E+02  0.12280754126E+02  0.28710855199E+02  0.12700000000E+01 0.  1.
<mgrwt>
<rscale>  1 0.12765655E+03</rscale>
<asrwt>0</asrwt>
<pdfrwt beam="1">  1       21 0.66138195E-02 0.12765655E+03</pdfrwt>
<pdfrwt beam="2">  1       -4 0.29126803E-01 0.12765655E+03</pdfrwt>
<totfact> 0.74987023E+04</totfact>
</mgrwt>
</event>
<event>
 6    4  0.6358868E-003  0.1274565E+03  0.7818608E-02  0.1231279E+00
         -4   -1    0    0    0  501 -0.00000000000E+00  0.00000000000E+00  0.55657437575E+01  0.57088005373E+01  0.12700000000E+01 0.  1.
         21   -1    0    0  501  502  0.00000000000E+00 -0.00000000000E+00 -0.10349581013E+04  0.10349581013E+04  0.00000000000E+00 0.  1.
         25    2    1    2    0    0 -0.49265951120E+01 -0.24397753373E+02 -0.88686537838E+03  0.89597732240E+03  0.12500256467E+03 0.  0.
    9000005    1    3    3    0    0  0.54979723267E+02 -0.35395755123E+02 -0.39900665034E+03  0.40433023195E+03  0.10000000000E+01 0.  0.
    9000005    1    3    3    0    0 -0.59906318379E+02  0.10998001750E+02 -0.48785872804E+03  0.49164709045E+03  0.10000000000E+01 0.  0.
         -4    1    1    2    0  502  0.49265951120E+01  0.24397753373E+02 -0.14252697919E+03  0.14468957946E+03  0.12700000000E+01 0. -1.
<mgrwt>
<rscale>  1 0.12745651E+03</rscale>
<asrwt>0</asrwt>
<pdfrwt beam="2">  1       21 0.15922421E+00 0.12745651E+03</pdfrwt>
<pdfrwt beam="1">  1       -4 0.86733317E-03 0.12745651E+03</pdfrwt>
<totfact> 0.38295921E+04</totfact>
</mgrwt>
</event>
<event>
 6    4  0.6358868E-003  0.1285550E+03  0.7818608E-02  0.1229616E+00
         -4   -1    0    0    0  501 -0.00000000000E+00  0.00000000000E+00  0.32897708284E+03  0.32897953421E+03  0.12700000000E+01 0.  1.
         21   -1    0    0  501  502  0.00000000000E+00 -0.00000000000E+00 -0.20520652033E+02  0.20520652033E+02  0.00000000000E+00 0. -1.
         25    2    1    2    0    0  0.95850922024E+01  0.28446893315E+02  0.28007579019E+03  0.30817013189E+03  0.12500112882E+03 0.  0.
    9000005    1    3    3    0    0  0.13780137711E+02 -0.28593730082E+02  0.11823389714E+02  0.33886371002E+02  0.10000000000E+01 0.  0.
    9000005    1    3    3    0    0 -0.41950455090E+01  0.57040623397E+02  0.26825240048E+03  0.27428376088E+03  0.10000000000E+01 0.  0.
         -4    1    1    2    0  502 -0.95850922024E+01 -0.28446893315E+02  0.28380640614E+02  0.41330054361E+02  0.12700000000E+01 0. -1.
<mgrwt>
<rscale>  1 0.12855498E+03</rscale>
<asrwt>0</asrwt>
<pdfrwt beam="2">  1       21 0.31570237E-02 0.12855498E+03</pdfrwt>
<pdfrwt beam="1">  1       -4 0.50615066E-01 0.12855498E+03</pdfrwt>
<totfact> 0.87755775E+04</totfact>
</mgrwt>
</event>
<event>
 6    4  0.6358868E-003  0.1277299E+03  0.7818608E-02  0.1230864E+00
         -4   -1    0    0    0  501 -0.00000000000E+00  0.00000000000E+00  0.92696897831E+02  0.92705597282E+02  0.12700000000E+01 0. -1.
         21   -1    0    0  501  502  0.00000000000E+00 -0.00000000000E+00 -0.13255973054E+03  0.13255973054E+03  0.00000000000E+00 0. -1.
         25    2    1    2    0    0 -0.52363032624E+01 -0.25743926976E+02  0.45771153411E+02  0.13568318046E+03  0.12499903330E+03 0.  0.
    9000005    1    3    3    0    0  0.52039814262E+02  0.14200635007E+02  0.36721065884E+02  0.65262830024E+02  0.10000000000E+01 0.  0.
    9000005    1    3    3    0    0 -0.57276117524E+02 -0.39944561983E+02  0.90500875266E+01  0.70420350432E+02  0.10000000000E+01 0.  0.
         -4    1    1    2    0  502  0.52363032624E+01  0.25743926976E+02 -0.85633986123E+02  0.89582147369E+02  0.12700000000E+01 0.  1.
<mgrwt>
<rscale>  1 0.12772990E+03</rscale>
<asrwt>0</asrwt>
<pdfrwt beam="2">  1       21 0.20393805E-01 0.12772990E+03</pdfrwt>
<pdfrwt beam="1">  1       -4 0.14262198E-01 0.12772990E+03</pdfrwt>
<totfact> 0.36991203E+04</totfact>
</mgrwt>
</event>
<event>
 6    4  0.6358868E-003  0.1312348E+03  0.7818608E-02  0.1225635E+00
         21   -1    0    0  501  502  0.00000000000E+00  0.00000000000E+00  0.15838204047E+03  0.15838204047E+03  0.00000000000E+00 0. -1.
         -4   -1    0    0    0  501 -0.00000000000E+00 -0.00000000000E+00 -0.52520942997E+02  0.52536295580E+02  0.12700000000E+01 0.  1.
         25    2    1    2    0    0  0.34215154469E+00 -0.39972859593E+02  0.46274994853E+02  0.13915439596E+03  0.12499849677E+03 0.  0.
    9000005    1    3    3    0    0  0.23215199987E+02 -0.67756643465E+02  0.66602855229E+02  0.97810268218E+02  0.10000000000E+01 0.  0.
    9000005    1    3    3    0    0 -0.22873048443E+02  0.27783783872E+02 -0.20327860376E+02  0.41344127742E+02  0.10000000000E+01 0.  0.
         -4    1    1    2    0  502 -0.34215154469E+00  0.39972859593E+02  0.59586102621E+02  0.71763940090E+02  0.12700000000E+01 0. -1.
<mgrwt>
<rscale>  1 0.13123479E+03</rscale>
<asrwt>0</asrwt>
<pdfrwt beam="1">  1       21 0.24366468E-01 0.13123479E+03</pdfrwt>
<pdfrwt beam="2">  1       -4 0.80817178E-02 0.13123479E+03</pdfrwt>
<totfact> 0.69656595E+04</totfact>
</mgrwt>
</event>
<event>
 6    4  0.6358868E-003  0.1379929E+03  0.7818608E-02  0.1216056E+00
         -4   -1    0    0    0  501 -0.00000000000E+00  0.00000000000E+00  0.78808808638E+03  0.78808910968E+03  0.12700000000E+01 0.  1.
         21   -1    0    0  501  502  0.00000000000E+00 -0.00000000000E+00 -0.38298747770E+02  0.38298747770E+02  0.00000000000E+00 0. -1.
         25    2    1    2    0    0 -0.33030564398E+02 -0.48232367406E+02  0.75516480082E+03  0.76766913859E+03  0.12499860197E+03 0.  0.
    9000005    1    3    3    0    0 -0.43682806748E+02 -0.64280835665E+02  0.24271327961E+03  0.25485476165E+03  0.10000000000E+01 0.  0.
    9000005    1    3    3    0    0  0.10652242350E+02  0.16048468259E+02  0.51245152121E+03  0.51281437694E+03  0.10000000000E+01 0.  0.
         -4    1    1    2    0  502  0.33030564398E+02  0.48232367406E+02 -0.53754622130E+01  0.58718718855E+02  0.12700000000E+01 0. -1.
<mgrwt>
<rscale>  1 0.13799286E+03</rscale>
<asrwt>0</asrwt>
<pdfrwt beam="2">  1       21 0.58921156E-02 0.13799286E+03</pdfrwt>
<pdfrwt beam="1">  1       -4 0.12124601E+00 0.13799286E+03</pdfrwt>
<totfact> 0.45328367E+03</totfact>
</mgrwt>
</event>
<event>
 6    4  0.6358868E-003  0.1272676E+03  0.7818608E-02  0.1231567E+00
         -4   -1    0    0    0  501 -0.00000000000E+00  0.00000000000E+00  0.66631737957E+01  0.67831250196E+01  0.12700000000E+01 0.  1.
         21   -1    0    0  501  502  0.00000000000E+00 -0.00000000000E+00 -0.10483212613E+04  0.10483212613E+04  0.00000000000E+00 0.  1.
         25    2    1    2    0    0 -0.76356940139E+01 -0.22681715168E+02 -0.62873330755E+03  0.64148469285E+03  0.12499710041E+03 0.  0.
    9000005    1    3    3    0    0  0.47666422694E+02  0.55866104101E+01 -0.44400779696E+03  0.44659514309E+03  0.10000000000E+01 0.  0.
    9000005    1    3    3    0    0 -0.55302116708E+02 -0.28268325579E+02 -0.18472551058E+03  0.19488954975E+03  0.10000000000E+01 0.  0.
         -4    1    1    2    0  502  0.76356940139E+01  0.22681715168E+02 -0.41292477997E+03  0.41361969348E+03  0.12700000000E+01 0. -1.
<mgrwt>
<rscale>  1 0.12726759E+03</rscale>
<asrwt>0</asrwt>
<pdfrwt beam="2">  1       21 0.16128021E+00 0.12726759E+03</pdfrwt>
<pdfrwt beam="1">  1       -4 0.10343897E-02 0.12726759E+03</pdfrwt>
<totfact> 0.28411037E+04</totfact>
</mgrwt>
</event>
<event>
 6    4  0.6358868E-003  0.1289041E+03  0.7818608E-02  0.1229091E+00
          4   -1    0    0  502    0 -0.00000000000E+00  0.00000000000E+00  0.73689216872E+02  0.73700159994E+02  0.12700000000E+01 0. -1.
         21   -1    0    0  501  502  0.00000000000E+00 -0.00000000000E+00 -0.61641956318E+03  0.61641956318E+03  0.00000000000E+00 0.  1.
         25    2    1    2    0    0  0.36341770671E+01 -0.31303565346E+02  0.16539873421E+02  0.12996089568E+03  0.12499258597E+03 0.  0.
    9000005    1    3    3    0    0  0.12222274075E+02  0.30179737636E+02  0.49812887074E+02  0.59519108411E+02  0.10000000000E+01 0.  0.
    9000005    1    3    3    0    0 -0.85880970079E+01 -0.61483302982E+02 -0.33273013653E+02  0.70441787267E+02  0.10000000000E+01 0.  0.
          4    1    1    2  501    0 -0.36341770671E+01  0.31303565346E+02 -0.55927021973E+03  0.56015882749E+03  0.12700000000E+01 0.  1.
<mgrwt>
<rscale>  1 0.12890410E+03</rscale>
<asrwt>0</asrwt>
<pdfrwt beam="2">  1       21 0.94833775E-01 0.12890410E+03</pdfrwt>
<pdfrwt beam="1">  1        4 0.11337746E-01 0.12890410E+03</pdfrwt>
<totfact> 0.23749573E+03</totfact>
</mgrwt>
</event>
<event>
 6    4  0.6358868E-003  0.1380069E+03  0.7818608E-02  0.1216036E+00
         21   -1    0    0  501  502  0.00000000000E+00  0.00000000000E+00  0.22045250826E+03  0.22045250826E+03  0.00000000000E+00 0. -1.
         -4   -1    0    0    0  501 -0.00000000000E+00 -0.00000000000E+00 -0.73695097547E+02  0.73706039796E+02  0.12700000000E+01 0.  1.
         25    2    1    2    0    0 -0.35870623768E+02 -0.46182246175E+02  0.19894948183E+01  0.13802122425E+03  0.12500559485E+03 0.  0.
    9000005    1    3    3    0    0 -0.26203583872E+02 -0.61541269188E+01  0.60639038794E+02  0.66352046778E+02  0.10000000000E+01 0.  0.
    9000005    1    3    3    0    0 -0.96670398961E+01 -0.40028119257E+02 -0.58649543975E+02  0.71669177476E+02  0.10000000000E+01 0.  0.
         -4    1    1    2    0  502  0.35870623768E+02  0.46182246175E+02  0.14476791590E+03  0.15613732381E+03  0.12700000000E+01 0. -1.
<mgrwt>
<rscale>  1 0.13800688E+03</rscale>
<asrwt>0</asrwt>
<pdfrwt beam="1">  1       21 0.33915770E-01 0.13800688E+03</pdfrwt>
<pdfrwt beam="2">  1       -4 0.11338831E-01 0.13800688E+03</pdfrwt>
<totfact> 0.21005532E+04</totfact>
</mgrwt>
</event>
<event>
 6    4  0.6358868E-003  0.1320190E+03  0.7818608E-02  0.1224490E+00
         21   -1    0    0  501  502  0.00000000000E+00  0.00000000000E+00  0.57977694191E+02  0.57977694191E+02  0.00000000000E+00 0. -1.
         -4   -1    0    0    0  501 -0.00000000000E+00 -0.00000000000E+00 -0.14690812934E+03  0.14691361872E+03  0.12700000000E+01 0.  1.
         25    2    1    2    0    0  0.40095083916E+02  0.13997779775E+02 -0.94054102309E+02  0.16209623775E+03  0.12500185015E+03 0.  0.
    9000005    1    3    3    0    0  0.23571969166E+02  0.60621770374E+02 -0.11805296287E+02  0.66113552272E+02  0.10000000000E+01 0.  0.
    9000005    1    3    3    0    0  0.16523114750E+02 -0.46623990599E+02 -0.82248806022E+02  0.95982685482E+02  0.10000000000E+01 0.  0.
         -4    1    1    2    0  502 -0.40095083916E+02 -0.13997779775E+02  0.51236671587E+01  0.42795075161E+02  0.12700000000E+01 0. -1.
<mgrwt>
<rscale>  1 0.13201900E+03</rscale>
<asrwt>0</asrwt>
<pdfrwt beam="1">  1       21 0.89196455E-02 0.13201900E+03</pdfrwt>
<pdfrwt beam="2">  1       -4 0.22602742E-01 0.13201900E+03</pdfrwt>
<totfact> 0.72006087E+04</totfact>
</mgrwt>
</event>
<event>
 6    4  0.6358868E-003  0.1293452E+03  0.7818608E-02  0.1228431E+00
          4   -1    0    0  502    0 -0.00000000000E+00  0.00000000000E+00  0.43393221241E+03  0.43393407087E+03  0.12700000000E+01 0. -1.
         21   -1    0    0  501  502  0.00000000000E+00 -0.00000000000E+00 -0.15500462971E+02  0.15500462971E+02  0.00000000000E+00 0. -1.
         25    2    1    2    0    0  0.74423413800E+01  0.32477045681E+02  0.35392941618E+03  0.37682385394E+03  0.12498015169E+03 0.  0.
    9000005    1    3    3    0    0 -0.17830495507E+02 -0.28543658191E+02  0.25896983233E+03  0.26114946113E+03  0.10000000000E+01 0.  0.
    9000005    1    3    3    0    0  0.25272836887E+02  0.61020703872E+02  0.94959583851E+02  0.11567439280E+03  0.10000000000E+01 0.  0.
          4    1    1    2  501    0 -0.74423413800E+01 -0.32477045681E+02  0.64502333257E+02  0.72610679910E+02  0.12700000000E+01 0.  1.
<mgrwt>
<rscale>  1 0.12934522E+03</rscale>
<asrwt>0</asrwt>
<pdfrwt beam="2">  1       21 0.23846869E-02 0.12934522E+03</pdfrwt>
<pdfrwt beam="1">  1        4 0.66762938E-01 0.12934522E+03</pdfrwt>
<totfact> 0.77946200E+04</totfact>
</mgrwt>
</event>
<event>
 6    4  0.6358868E-003  0.1275840E+03  0.7818608E-02  0.1231085E+00
         21   -1    0    0  501  502  0.00000000000E+00  0.00000000000E+00  0.49568009661E+03  0.49568009661E+03  0.00000000000E+00 0.  1.
         -4   -1    0    0    0  501 -0.00000000000E+00 -0.00000000000E+00 -0.15464099528E+02  0.15516161710E+02  0.12700000000E+01 0. -1.
         25    2    1    2    0    0  0.11850123342E+02 -0.22629598194E+02  0.26122344676E+03  0.29071525203E+03  0.12500057795E+03 0.  0.
    9000005    1    3    3    0    0 -0.39129368615E+02  0.28462455222E+02  0.60928690424E+02  0.77810822912E+02  0.10000000000E+01 0.  0.
    9000005    1    3    3    0    0  0.50979491957E+02 -0.51092053417E+02  0.20029475633E+03  0.21290442911E+03  0.10000000000E+01 0.  0.
         -4    1    1    2    0  502 -0.11850123342E+02  0.22629598194E+02  0.21899255033E+03  0.22048100630E+03  0.12700000000E+01 0.  1.
<mgrwt>
<rscale>  1 0.12758397E+03</rscale>
<asrwt>0</asrwt>
<pdfrwt beam="1">  1       21 0.76258464E-01 0.12758397E+03</pdfrwt>
<pdfrwt beam="2">  1       -4 0.23832225E-02 0.12758397E+03</pdfrwt>
<totfact> 0.48191118E+04</totfact>
</mgrwt>
</event>
<event>
 6    4  0.6358868E-003  0.1282192E+03  0.7818608E-02  0.1230122E+00
         21   -1    0    0  501  502  0.00000000000E+00  0.00000000000E+00  0.11359781480E+02  0.11359781480E+02  0.00000000000E+00 0.  1.
         -4   -1    0    0    0  501 -0.00000000000E+00 -0.00000000000E+00 -0.54539788715E+03  0.54539936579E+03  0.12700000000E+01 0.  1.
         25    2    1    2    0    0  0.27790828453E+02 -0.65385585060E+01 -0.41604425934E+03  0.43535386088E+03  0.12500030223E+03 0.  0.
    9000005    1    3    3    0    0  0.69376601926E+02  0.20650920708E+02 -0.30854392936E+03  0.31692259270E+03  0.10000000000E+01 0.  0.
    9000005    1    3    3    0    0 -0.41585773473E+02 -0.27189479214E+02 -0.10750032998E+03  0.11843126817E+03  0.10000000000E+01 0.  0.
         -4    1    1    2    0  502 -0.27790828453E+02  0.65385585060E+01 -0.11799384633E+03  0.12140528640E+03  0.12700000000E+01 0. -1.
<mgrwt>
<rscale>  1 0.12821918E+03</rscale>
<asrwt>0</asrwt>
<pdfrwt beam="1">  1       21 0.17476587E-02 0.12821918E+03</pdfrwt>
<pdfrwt beam="2">  1       -4 0.83912941E-01 0.12821918E+03</pdfrwt>
<totfact> 0.78085886E+04</totfact>
</mgrwt>
</event>
<event>
 6    4  0.6358868E-003  0.1285273E+03  0.7818608E-02  0.1229657E+00
         21   -1    0    0  501  502  0.00000000000E+00  0.00000000000E+00  0.49769359556E+02  0.49769359556E+02  0.00000000000E+00 0.  1.
          4   -1    0    0  502    0 -0.00000000000E+00 -0.00000000000E+00 -0.12646578919E+03  0.12647216586E+03  0.12700000000E+01 0.  1.
         25    2    1    2    0    0  0.14813083499E+02 -0.25975430111E+02 -0.65789885737E+02  0.14438691802E+03  0.12500049047E+03 0.  0.
    9000005    1    3    3    0    0 -0.54527915723E+02 -0.20706033005E+02 -0.37228243105E+02  0.69202423950E+02  0.10000000000E+01 0.  0.
    9000005    1    3    3    0    0  0.69340999221E+02 -0.52693971059E+01 -0.28561642632E+02  0.75184494071E+02  0.10000000000E+01 0.  0.
          4    1    1    2  501    0 -0.14813083499E+02  0.25975430111E+02 -0.10906543899E+02  0.31854607390E+02  0.12700000000E+01 0. -1.
<mgrwt>
<rscale>  1 0.12852732E+03</rscale>
<asrwt>0</asrwt>
<pdfrwt beam="1">  1       21 0.76568245E-02 0.12852732E+03</pdfrwt>
<pdfrwt beam="2">  1        4 0.19458012E-01 0.12852732E+03</pdfrwt>
<totfact> 0.12241640E+05</totfact>
</mgrwt>
</event>
<event>
 6    4  0.6358868E-003  0.1400981E+03  0.7818608E-02  0.1213197E+00
          4   -1    0    0  502    0 -0.00000000000E+00  0.00000000000E+00  0.31028586857E+03  0.31028846761E+03  0.12700000000E+01 0. -1.
         21   -1    0    0  501  502  0.00000000000E+00 -0.00000000000E+00 -0.62115251974E+02  0.62115251974E+02  0.00000000000E+00 0.  1.
         25    2    1    2    0    0 -0.93639743422E+01  0.62568490013E+02  0.27105060326E+03  0.30511622708E+03  0.12499993018E+03 0.  0.
    9000005    1    3    3    0    0  0.13219656801E+01 -0.36002505674E+02  0.11232981479E+03  0.11796997626E+03  0.10000000000E+01 0.  0.
    9000005    1    3    3    0    0 -0.10685940022E+02  0.98570995687E+02  0.15872078847E+03  0.18714625083E+03  0.10000000000E+01 0.  0.
          4    1    1    2  501    0  0.93639743422E+01 -0.62568490013E+02 -0.22879986662E+02  0.67287492506E+02  0.12700000000E+01 0.  1.
<mgrwt>
<rscale>  1 0.14009812E+03</rscale>
<asrwt>0</asrwt>
<pdfrwt beam="2">  1       21 0.95561928E-02 0.14009812E+03</pdfrwt>
<pdfrwt beam="1">  1        4 0.47737485E-01 0.14009812E+03</pdfrwt>
<totfact> 0.15339464E+04</totfact>
</mgrwt>
</event>
<event>
 6    4  0.6358868E-003  0.1633901E+03  0.7818608E-02  0.1184922E+00
         -4   -1    0    0    0  501 -0.00000000000E+00  0.00000000000E+00  0.75060811875E+02  0.75071555062E+02  0.12700000000E+01 0. -1.
         21   -1    0    0  501  502  0.00000000000E+00 -0.00000000000E+00 -0.39054130276E+03  0.39054130276E+03  0.00000000000E+00 0.  1.
         25    2    1    2    0    0  0.10436343947E+03  0.13430629901E+02 -0.36460939233E+02  0.16740884641E+03  0.12499684976E+03 0.  0.
    9000005    1    3    3    0    0  0.23827693938E+02  0.58662537615E+02  0.98329491846E+01  0.64083845136E+02  0.10000000000E+01 0.  0.
    9000005    1    3    3    0    0  0.80535745531E+02 -0.45231907714E+02 -0.46293888418E+02  0.10332500128E+03  0.10000000000E+01 0.  0.
         -4    1    1    2    0  502 -0.10436343947E+03 -0.13430629901E+02 -0.27901955165E+03  0.29820401141E+03  0.12700000000E+01 0.  1.
<mgrwt>
<rscale>  1 0.16339009E+03</rscale>
<asrwt>0</asrwt>
<pdfrwt beam="2">  1       21 0.60083279E-01 0.16339009E+03</pdfrwt>
<pdfrwt beam="1">  1       -4 0.11548802E-01 0.16339009E+03</pdfrwt>
<totfact> 0.64044634E+03</totfact>
</mgrwt>
</event>
<event>
 6    4  0.6358868E-003  0.1271094E+03  0.7818608E-02  0.1231809E+00
         -4   -1    0    0    0  501 -0.00000000000E+00  0.00000000000E+00  0.32803884895E+02  0.32828459669E+02  0.12700000000E+01 0. -1.
         21   -1    0    0  501  502  0.00000000000E+00 -0.00000000000E+00 -0.25033963918E+03  0.25033963918E+03  0.00000000000E+00 0.  1.
         25    2    1    2    0    0  0.16414891510E+02  0.16187716079E+02 -0.95552946928E+02  0.15901936142E+03  0.12500120329E+03 0.  0.
    9000005    1    3    3    0    0  0.28769726497E+02  0.22350956351E+02  0.20721184094E+02  0.41924096684E+02  0.10000000000E+01 0.  0.
    9000005    1    3    3    0    0 -0.12354834987E+02 -0.61632402715E+01 -0.11627413102E+03  0.11709526473E+03  0.10000000000E+01 0.  0.
         -4    1    1    2    0  502 -0.16414891510E+02 -0.16187716079E+02 -0.12198280735E+03  0.12414873743E+03  0.12700000000E+01 0.  1.
<mgrwt>
<rscale>  1 0.12710937E+03</rscale>
<asrwt>0</asrwt>
<pdfrwt beam="2">  1       21 0.38513791E-01 0.12710937E+03</pdfrwt>
<pdfrwt beam="1">  1       -4 0.50488896E-02 0.12710937E+03</pdfrwt>
<totfact> 0.61625765E+04</totfact>
</mgrwt>
</event>
<event>
 6    4  0.6358868E-003  0.1293161E+03  0.7818608E-02  0.1228474E+00
         21   -1    0    0  501  502  0.00000000000E+00  0.00000000000E+00  0.22194041311E+03  0.22194041311E+03  0.00000000000E+00 0.  1.
         -4   -1    0    0    0  501 -0.00000000000E+00 -0.00000000000E+00 -0.20831135851E+03  0.20831522984E+03  0.12700000000E+01 0. -1.
         25    2    1    2    0    0 -0.27566827292E+02  0.18369851209E+02 -0.18675021245E+03  0.22715260269E+03  0.12500112663E+03 0.  0.
    9000005    1    3    3    0    0  0.67008404230E+01 -0.38782677683E+02 -0.13655630503E+02  0.41671016247E+02  0.10000000000E+01 0.  0.
    9000005    1    3    3    0    0 -0.34267667715E+02  0.57152528892E+02 -0.17309458195E+03  0.18548158644E+03  0.10000000000E+01 0.  0.
         -4    1    1    2    0  502  0.27566827292E+02 -0.18369851209E+02  0.20037926705E+03  0.20310304026E+03  0.12700000000E+01 0.  1.
<mgrwt>
<rscale>  1 0.12931614E+03</rscale>
<asrwt>0</asrwt>
<pdfrwt beam="1">  1       21 0.34144679E-01 0.12931614E+03</pdfrwt>
<pdfrwt beam="2">  1       -4 0.32048478E-01 0.12931614E+03</pdfrwt>
<totfact> 0.31996133E+03</totfact>
</mgrwt>
</event>
<event>
 6    4  0.6358868E-003  0.1353741E+03  0.7818608E-02  0.1219693E+00
         21   -1    0    0  501  502  0.00000000000E+00  0.00000000000E+00  0.12895664136E+03  0.12895664136E+03  0.00000000000E+00 0.  1.
         -4   -1    0    0    0  501 -0.00000000000E+00 -0.00000000000E+00 -0.91777972823E+02  0.91786759369E+02  0.12700000000E+01 0. -1.
         25    2    1    2    0    0 -0.51915691906E+02 -0.24456165802E+01 -0.27112264053E+02  0.13806234474E+03  0.12499966426E+03 0.  0.
    9000005    1    3    3    0    0 -0.17745973684E+02 -0.51301995691E+02 -0.50368532403E+02  0.74059458547E+02  0.10000000000E+01 0.  0.
    9000005    1    3    3    0    0 -0.34169718222E+02  0.48856379110E+02  0.23256268350E+02  0.64002886191E+02  0.10000000000E+01 0.  0.
         -4    1    1    2    0  502  0.51915691906E+02  0.24456165802E+01  0.64290932593E+02  0.82681055994E+02  0.12700000000E+01 0.  1.
<mgrwt>
<rscale>  1 0.13537406E+03</rscale>
<asrwt>0</asrwt>
<pdfrwt beam="1">  1       21 0.19839483E-01 0.13537406E+03</pdfrwt>
<pdfrwt beam="2">  1       -4 0.14120845E-01 0.13537406E+03</pdfrwt>
<totfact> 0.39867805E+04</totfact>
</mgrwt>
</event>
<event>
 6    4  0.6358868E-003  0.1275269E+03  0.7818608E-02  0.1231172E+00
          4   -1    0    0  502    0 -0.00000000000E+00  0.00000000000E+00  0.34479747303E+02  0.34503128468E+02  0.12700000000E+01 0.  1.
         21   -1    0    0  501  502  0.00000000000E+00 -0.00000000000E+00 -0.17094574157E+03  0.17094574157E+03  0.00000000000E+00 0.  1.
         25    2    1    2    0    0 -0.96852245828E+01  0.23341873470E+02 -0.12098556422E+03  0.17578570691E+03  0.12499784547E+03 0.  0.
    9000005    1    3    3    0    0 -0.40332203992E+02  0.63872845118E+02 -0.83698949411E+02  0.11275167917E+03  0.10000000000E+01 0.  0.
    9000005    1    3    3    0    0  0.30646979409E+02 -0.40530971648E+02 -0.37286614810E+02  0.63034027744E+02  0.10000000000E+01 0.  0.
          4    1    1    2  501    0  0.96852245828E+01 -0.23341873470E+02 -0.15480430044E+02  0.29663163126E+02  0.12700000000E+01 0. -1.
<mgrwt>
<rscale>  1 0.12752689E+03</rscale>
<asrwt>0</asrwt>
<pdfrwt beam="2">  1       21 0.26299345E-01 0.12752689E+03</pdfrwt>
<pdfrwt beam="1">  1        4 0.53067380E-02 0.12752689E+03</pdfrwt>
<totfact> 0.11937157E+05</totfact>
</mgrwt>
</event>
<event>
 6    4  0.6358868E-003  0.1274769E+03  0.7818608E-02  0.1231248E+00
         -4   -1    0    0    0  501 -0.00000000000E+00  0.00000000000E+00  0.15553830930E+03  0.15554349411E+03  0.12700000000E+01 0. -1.
         21   -1    0    0  501  502  0.00000000000E+00 -0.00000000000E+00 -0.60723576226E+02  0.60723576226E+02  0.00000000000E+00 0.  1.
         25    2    1    2    0    0 -0.23550676342E+02 -0.84886790805E+01  0.12397056414E+03  0.17781752660E+03  0.12499471975E+03 0.  0.
    9000005    1    3    3    0    0  0.28110834912E+01 -0.60866970408E+02  0.93820216244E+02  0.11187458716E+03  0.10000000000E+01 0.  0.
    9000005    1    3    3    0    0 -0.26361759833E+02  0.52378291327E+02  0.30150347892E+02  0.65942939439E+02  0.10000000000E+01 0.  0.
         -4    1    1    2    0  502  0.23550676342E+02  0.84886790805E+01 -0.29155831059E+02  0.38449543735E+02  0.12700000000E+01 0.  1.
<mgrwt>
<rscale>  1 0.12747695E+03</rscale>
<asrwt>0</asrwt>
<pdfrwt beam="2">  1       21 0.93420887E-02 0.12747695E+03</pdfrwt>
<pdfrwt beam="1">  1       -4 0.23930391E-01 0.12747695E+03</pdfrwt>
<totfact> 0.59572053E+04</totfact>
</mgrwt>
</event>
