<event>
 6    4  0.7919556E-003  0.1457841E+03  0.7818608E-02  0.1205751E+00
         -4   -1    0    0    0  501 -0.00000000000E+00  0.00000000000E+00  0.83951565162E+01  0.84906744686E+01  0.12700000000E+01 0. -1.
         21   -1    0    0  501  502  0.00000000000E+00 -0.00000000000E+00 -0.18464268590E+04  0.18464268590E+04  0.00000000000E+00 0.  1.
         25    2    1    2    0    0 -0.48145285301E+02  0.57532840851E+02 -0.73389925757E+03  0.74823868887E+03  0.12500007594E+03 0.  0.
    9000005    1    3    3    0    0  0.23197518599E+02 -0.22069375894E+02 -0.90108962534E+02  0.95633714508E+02  0.10000000000E+01 0.  0.
    9000005    1    3    3    0    0 -0.71342803901E+02  0.79602216745E+02 -0.64379029504E+03  0.65260497437E+03  0.10000000000E+01 0.  0.
         -4    1    1    2    0  502  0.48145285301E+02 -0.57532840851E+02 -0.11041324450E+04  0.11066788446E+04  0.12700000000E+01 0.  1.
<mgrwt>
<rscale>  1 0.14578414E+03</rscale>
<asrwt>0</asrwt>
<pdfrwt beam="2">  1       21 0.28406569E+00 0.14578414E+03</pdfrwt>
<pdfrwt beam="1">  1       -4 0.12989436E-02 0.14578414E+03</pdfrwt>
<totfact> 0.35662615E+03</totfact>
</mgrwt>
</event>
<event>
 6    4  0.7919556E-003  0.1277728E+03  0.7818608E-02  0.1230798E+00
         21   -1    0    0  501  502  0.00000000000E+00  0.00000000000E+00  0.24062009374E+03  0.24062009374E+03  0.00000000000E+00 0. -1.
          4   -1    0    0  502    0 -0.00000000000E+00 -0.00000000000E+00 -0.25787165142E+02  0.25818419511E+02  0.12700000000E+01 0. -1.
         25    2    1    2    0    0 -0.16196889853E+01 -0.26433630488E+02  0.15417677454E+03  0.20024076300E+03  0.12499810057E+03 0.  0.
    9000005    1    3    3    0    0  0.55797411200E+02  0.12062419775E+02  0.85353250175E+02  0.10268899835E+03  0.10000000000E+01 0.  0.
    9000005    1    3    3    0    0 -0.57417100185E+02 -0.38496050263E+02  0.68823524366E+02  0.97551764647E+02  0.10000000000E+01 0.  0.
          4    1    1    2  501    0  0.16196889853E+01  0.26433630488E+02  0.60656154053E+02  0.66197750247E+02  0.12700000000E+01 0.  1.
<mgrwt>
<rscale>  1 0.12777279E+03</rscale>
<asrwt>0</asrwt>
<pdfrwt beam="1">  1       21 0.37018474E-01 0.12777279E+03</pdfrwt>
<pdfrwt beam="2">  1        4 0.39699183E-02 0.12777279E+03</pdfrwt>
<totfact> 0.97896419E+04</totfact>
</mgrwt>
</event>
<event>
 6    4  0.7919556E-003  0.1298919E+03  0.7818608E-02  0.1227616E+00
         21   -1    0    0  501  502  0.00000000000E+00  0.00000000000E+00  0.49542167864E+03  0.49542167864E+03  0.00000000000E+00 0.  1.
          4   -1    0    0  502    0 -0.00000000000E+00 -0.00000000000E+00 -0.25118574949E+02  0.25150660179E+02  0.12700000000E+01 0. -1.
         25    2    1    2    0    0  0.17632162791E+02 -0.30604915685E+02  0.15041429493E+03  0.19873695093E+03  0.12499744604E+03 0.  0.
    9000005    1    3    3    0    0  0.20853692640E+02 -0.12971837000E+01  0.16465504042E+03  0.16597843691E+03  0.10000000000E+01 0.  0.
    9000005    1    3    3    0    0 -0.32215298493E+01 -0.29307731985E+02 -0.14240745491E+02  0.32758514020E+02  0.10000000000E+01 0.  0.
          4    1    1    2  501    0 -0.17632162791E+02  0.30604915685E+02  0.31988880876E+03  0.32183538789E+03  0.12700000000E+01 0.  1.
<mgrwt>
<rscale>  1 0.12989194E+03</rscale>
<asrwt>0</asrwt>
<pdfrwt beam="1">  1       21 0.76218712E-01 0.12989194E+03</pdfrwt>
<pdfrwt beam="2">  1        4 0.38669898E-02 0.12989194E+03</pdfrwt>
<totfact> 0.22648624E+04</totfact>
</mgrwt>
</event>
<event>
 6    4  0.7919556E-003  0.1310845E+03  0.7818608E-02  0.1225855E+00
         -4   -1    0    0    0  501 -0.00000000000E+00  0.00000000000E+00  0.70363920329E+01  0.71500848135E+01  0.12700000000E+01 0. -1.
         21   -1    0    0  501  502  0.00000000000E+00 -0.00000000000E+00 -0.10356348095E+04  0.10356348095E+04  0.00000000000E+00 0. -1.
         25    2    1    2    0    0 -0.12744164287E+02 -0.37355073202E+02 -0.74395086563E+03  0.75541117094E+03  0.12500132597E+03 0.  0.
    9000005    1    3    3    0    0 -0.29185165972E+02  0.41020546855E+02 -0.25160986773E+03  0.25659887902E+03  0.10000000000E+01 0.  0.
    9000005    1    3    3    0    0  0.16441001685E+02 -0.78375620057E+02 -0.49234099790E+03  0.49881229192E+03  0.10000000000E+01 0.  0.
         -4    1    1    2    0  502  0.12744164287E+02  0.37355073202E+02 -0.28464755182E+03  0.28737372335E+03  0.12700000000E+01 0.  1.
<mgrwt>
<rscale>  1 0.13108450E+03</rscale>
<asrwt>0</asrwt>
<pdfrwt beam="2">  1       21 0.15932829E+00 0.13108450E+03</pdfrwt>
<pdfrwt beam="1">  1       -4 0.10913283E-02 0.13108450E+03</pdfrwt>
<totfact> 0.27117584E+04</totfact>
</mgrwt>
</event>
<event>
 6    4  0.7919556E-003  0.1300428E+03  0.7818608E-02  0.1227392E+00
         -4   -1    0    0    0  501 -0.00000000000E+00  0.00000000000E+00  0.83914596814E+03  0.83914692918E+03  0.12700000000E+01 0. -1.
         21   -1    0    0  501  502  0.00000000000E+00 -0.00000000000E+00 -0.13091759832E+02  0.13091759832E+02  0.00000000000E+00 0. -1.
         25    2    1    2    0    0  0.33976627100E+02 -0.11523495007E+02  0.79250155900E+03  0.80310015727E+03  0.12499575775E+03 0.  0.
    9000005    1    3    3    0    0 -0.62476205998E+01 -0.61029617843E+02  0.49816869064E+03  0.50193295504E+03  0.10000000000E+01 0.  0.
    9000005    1    3    3    0    0  0.40224247699E+02  0.49506122837E+02  0.29433286836E+03  0.30116720223E+03  0.10000000000E+01 0.  0.
         -4    1    1    2    0  502 -0.33976627100E+02  0.11523495007E+02  0.33552649304E+02  0.49138531740E+02  0.12700000000E+01 0.  1.
<mgrwt>
<rscale>  1 0.13004285E+03</rscale>
<asrwt>0</asrwt>
<pdfrwt beam="2">  1       21 0.20141176E-02 0.13004285E+03</pdfrwt>
<pdfrwt beam="1">  1       -4 0.12910415E+00 0.13004285E+03</pdfrwt>
<totfact> 0.22820147E+04</totfact>
</mgrwt>
</event>
<event>
 6    4  0.7919556E-003  0.1311615E+03  0.7818608E-02  0.1225742E+00
         21   -1    0    0  501  502  0.00000000000E+00  0.00000000000E+00  0.65741055960E+02  0.65741055960E+02  0.00000000000E+00 0.  1.
         -4   -1    0    0    0  501 -0.00000000000E+00 -0.00000000000E+00 -0.18175172836E+03  0.18175616540E+03  0.12700000000E+01 0. -1.
         25    2    1    2    0    0  0.73818356849E+01 -0.39036263769E+02 -0.14706438484E+03  0.19705649037E+03  0.12500002289E+03 0.  0.
    9000005    1    3    3    0    0 -0.77160041550E+01 -0.81577656895E+02 -0.11687407739E+03  0.14274102700E+03  0.10000000000E+01 0.  0.
    9000005    1    3    3    0    0  0.15097839840E+02  0.42541393126E+02 -0.30190307452E+02  0.54315463369E+02  0.10000000000E+01 0.  0.
         -4    1    1    2    0  502 -0.73818356849E+01  0.39036263769E+02  0.31053712436E+02  0.50440730994E+02  0.12700000000E+01 0.  1.
<mgrwt>
<rscale>  1 0.13116145E+03</rscale>
<asrwt>0</asrwt>
<pdfrwt beam="1">  1       21 0.10114009E-01 0.13116145E+03</pdfrwt>
<pdfrwt beam="2">  1       -4 0.27963089E-01 0.13116145E+03</pdfrwt>
<totfact> 0.39006782E+04</totfact>
</mgrwt>
</event>
<event>
 6    4  0.7919556E-003  0.1485282E+03  0.7818608E-02  0.1202293E+00
         21   -1    0    0  501  502  0.00000000000E+00  0.00000000000E+00  0.18697668282E+03  0.18697668282E+03  0.00000000000E+00 0.  1.
          4   -1    0    0  502    0 -0.00000000000E+00 -0.00000000000E+00 -0.13850626415E+03  0.13851208651E+03  0.12700000000E+01 0. -1.
         25    2    1    2    0    0 -0.20441650640E+02 -0.77570771350E+02 -0.83986288166E+02  0.17062922737E+03  0.12500220392E+03 0.  0.
    9000005    1    3    3    0    0 -0.93747370208E+01  0.33553992374E+02 -0.86344507145E+01  0.35906960851E+02  0.10000000000E+01 0.  0.
    9000005    1    3    3    0    0 -0.11066913619E+02 -0.11112476372E+03 -0.75351837452E+02  0.13472226652E+03  0.10000000000E+01 0.  0.
          4    1    1    2  501    0  0.20441650640E+02  0.77570771350E+02  0.13245670684E+03  0.15485954195E+03  0.12700000000E+01 0.  1.
<mgrwt>
<rscale>  1 0.14852824E+03</rscale>
<asrwt>0</asrwt>
<pdfrwt beam="1">  1       21 0.28765643E-01 0.14852824E+03</pdfrwt>
<pdfrwt beam="2">  1        4 0.21309436E-01 0.14852824E+03</pdfrwt>
<totfact> 0.96140789E+03</totfact>
</mgrwt>
</event>
<event>
 6    4  0.7919556E-003  0.1309381E+03  0.7818608E-02  0.1226070E+00
         21   -1    0    0  501  502  0.00000000000E+00  0.00000000000E+00  0.15413043477E+02  0.15413043477E+02  0.00000000000E+00 0. -1.
         -4   -1    0    0    0  501 -0.00000000000E+00 -0.00000000000E+00 -0.11142568557E+04  0.11142575794E+04  0.12700000000E+01 0. -1.
         25    2    1    2    0    0 -0.17356572982E+02  0.34856152897E+02 -0.10771490542E+04  0.10850782755E+04  0.12501430745E+03 0.  0.
    9000005    1    3    3    0    0  0.40335034955E+02  0.17932416443E+02 -0.16059913541E+03  0.16655800461E+03  0.10000000000E+01 0.  0.
    9000005    1    3    3    0    0 -0.57691607938E+02  0.16923736454E+02 -0.91654991877E+03  0.91852027092E+03  0.10000000000E+01 0.  0.
         -4    1    1    2    0  502  0.17356572982E+02 -0.34856152897E+02 -0.21694758028E+02  0.44592347397E+02  0.12700000000E+01 0.  1.
<mgrwt>
<rscale>  1 0.13093807E+03</rscale>
<asrwt>0</asrwt>
<pdfrwt beam="1">  1       21 0.23712369E-02 0.13093807E+03</pdfrwt>
<pdfrwt beam="2">  1       -4 0.17142825E+00 0.13093807E+03</pdfrwt>
<totfact> 0.85230782E+03</totfact>
</mgrwt>
</event>
<event>
 6    4  0.7919556E-003  0.1693071E+03  0.7818608E-02  0.1178572E+00
          4   -1    0    0  502    0 -0.00000000000E+00  0.00000000000E+00  0.32284647442E+03  0.32284897235E+03  0.12700000000E+01 0. -1.
         21   -1    0    0  501  502  0.00000000000E+00 -0.00000000000E+00 -0.62406870313E+02  0.62406870313E+02  0.00000000000E+00 0.  1.
         25    2    1    2    0    0 -0.66456065869E+02  0.92894780167E+02  0.14598059548E+03  0.22355140107E+03  0.12497618090E+03 0.  0.
    9000005    1    3    3    0    0 -0.69194952722E+02  0.53921911613E+01  0.24083983182E+02  0.73471460130E+02  0.10000000000E+01 0.  0.
    9000005    1    3    3    0    0  0.27388868522E+01  0.87502589006E+02  0.12189661230E+03  0.15007994094E+03  0.10000000000E+01 0.  0.
          4    1    1    2  501    0  0.66456065869E+02 -0.92894780167E+02  0.11445900863E+03  0.16170444159E+03  0.12700000000E+01 0.  1.
<mgrwt>
<rscale>  1 0.16930710E+03</rscale>
<asrwt>0</asrwt>
<pdfrwt beam="2">  1       21 0.96010572E-02 0.16930710E+03</pdfrwt>
<pdfrwt beam="1">  1        4 0.49669874E-01 0.16930710E+03</pdfrwt>
<totfact> 0.14271872E+04</totfact>
</mgrwt>
</event>
<event>
 6    4  0.7919556E-003  0.1339559E+03  0.7818608E-02  0.1221701E+00
         21   -1    0    0  501  502  0.00000000000E+00  0.00000000000E+00  0.27444361385E+03  0.27444361385E+03  0.00000000000E+00 0.  1.
         -4   -1    0    0    0  501 -0.00000000000E+00 -0.00000000000E+00 -0.32307734204E+02  0.32332686084E+02  0.12700000000E+01 0.  1.
         25    2    1    2    0    0  0.27554158750E+02  0.39496848634E+02  0.13953109918E+03  0.19342469390E+03  0.12499980742E+03 0.  0.
    9000005    1    3    3    0    0  0.31045513179E+02 -0.42073859229E+02  0.53524773633E+02  0.74832712843E+02  0.10000000000E+01 0.  0.
    9000005    1    3    3    0    0 -0.34913544292E+01  0.81570707863E+02  0.86006325550E+02  0.11859198106E+03  0.10000000000E+01 0.  0.
         -4    1    1    2    0  502 -0.27554158750E+02 -0.39496848634E+02  0.10260478047E+03  0.11335160604E+03  0.12700000000E+01 0. -1.
<mgrwt>
<rscale>  1 0.13395591E+03</rscale>
<asrwt>0</asrwt>
<pdfrwt beam="1">  1       21 0.42222093E-01 0.13395591E+03</pdfrwt>
<pdfrwt beam="2">  1       -4 0.49725662E-02 0.13395591E+03</pdfrwt>
<totfact> 0.52855968E+04</totfact>
</mgrwt>
</event>
<event>
 6    4  0.7919556E-003  0.1302691E+03  0.7818608E-02  0.1227057E+00
         21   -1    0    0  501  502  0.00000000000E+00  0.00000000000E+00  0.14411294100E+02  0.14411294100E+02  0.00000000000E+00 0.  1.
         -4   -1    0    0    0  501 -0.00000000000E+00 -0.00000000000E+00 -0.48354179997E+03  0.48354346776E+03  0.12700000000E+01 0.  1.
         25    2    1    2    0    0  0.36537307832E+02  0.30957305300E+01 -0.36642711710E+03  0.38889442363E+03  0.12500192867E+03 0.  0.
    9000005    1    3    3    0    0  0.12758242353E+02 -0.22864367833E+02 -0.34830018596E+03  0.34928437068E+03  0.10000000000E+01 0.  0.
    9000005    1    3    3    0    0  0.23779065479E+02  0.25960098363E+02 -0.18126931148E+02  0.39610052952E+02  0.10000000000E+01 0.  0.
         -4    1    1    2    0  502 -0.36537307832E+02 -0.30957305300E+01 -0.10270338876E+03  0.10906033823E+03  0.12700000000E+01 0. -1.
<mgrwt>
<rscale>  1 0.13026911E+03</rscale>
<asrwt>0</asrwt>
<pdfrwt beam="1">  1       21 0.22171224E-02 0.13026911E+03</pdfrwt>
<pdfrwt beam="2">  1       -4 0.74395471E-01 0.13026911E+03</pdfrwt>
<totfact> 0.69521857E+04</totfact>
</mgrwt>
</event>
<event>
 6    4  0.7919556E-003  0.1273155E+03  0.7818608E-02  0.1231494E+00
         21   -1    0    0  501  502  0.00000000000E+00  0.00000000000E+00  0.38332850970E+03  0.38332850970E+03  0.00000000000E+00 0. -1.
         -4   -1    0    0    0  501 -0.00000000000E+00 -0.00000000000E+00 -0.39906096086E+02  0.39926299663E+02  0.12700000000E+01 0.  1.
         25    2    1    2    0    0  0.24182448448E+02 -0.46095696342E+00  0.63474633303E+02  0.14226125802E+03  0.12499693263E+03 0.  0.
    9000005    1    3    3    0    0 -0.19298598201E+02 -0.22396382865E+02 -0.26649889658E+02  0.39815204090E+02  0.10000000000E+01 0.  0.
    9000005    1    3    3    0    0  0.43481046649E+02  0.21935425902E+02  0.90124522961E+02  0.10244605393E+03  0.10000000000E+01 0.  0.
         -4    1    1    2    0  502 -0.24182448448E+02  0.46095696342E+00  0.27994778031E+03  0.28099355134E+03  0.12700000000E+01 0. -1.
<mgrwt>
<rscale>  1 0.12731550E+03</rscale>
<asrwt>0</asrwt>
<pdfrwt beam="1">  1       21 0.58973614E-01 0.12731550E+03</pdfrwt>
<pdfrwt beam="2">  1       -4 0.61411156E-02 0.12731550E+03</pdfrwt>
<totfact> 0.18759635E+04</totfact>
</mgrwt>
</event>
<event>
 6    4  0.7919556E-003  0.1291790E+03  0.7818608E-02  0.1228679E+00
         21   -1    0    0  501  502  0.00000000000E+00  0.00000000000E+00  0.35523989992E+02  0.35523989992E+02  0.00000000000E+00 0.  1.
         -4   -1    0    0    0  501 -0.00000000000E+00 -0.00000000000E+00 -0.71501666713E+03  0.71501779501E+03  0.12700000000E+01 0. -1.
         25    2    1    2    0    0 -0.31271706935E+02  0.92599162161E+01 -0.70011585259E+03  0.71193357384E+03  0.12499416313E+03 0.  0.
    9000005    1    3    3    0    0  0.21215471832E+02  0.29750559060E+02 -0.55586540730E+03  0.55706601318E+03  0.10000000000E+01 0.  0.
    9000005    1    3    3    0    0 -0.52487178767E+02 -0.20490642844E+02 -0.14425044529E+03  0.15486756066E+03  0.10000000000E+01 0.  0.
         -4    1    1    2    0  502  0.31271706935E+02 -0.92599162161E+01  0.20623175450E+02  0.38608211155E+02  0.12700000000E+01 0.  1.
<mgrwt>
<rscale>  1 0.12917897E+03</rscale>
<asrwt>0</asrwt>
<pdfrwt beam="1">  1       21 0.54652297E-02 0.12917897E+03</pdfrwt>
<pdfrwt beam="2">  1       -4 0.11000439E+00 0.12917897E+03</pdfrwt>
<totfact> 0.64559234E+03</totfact>
</mgrwt>
</event>
<event>
 6    4  0.7919556E-003  0.1308557E+03  0.7818608E-02  0.1226192E+00
         21   -1    0    0  501  502  0.00000000000E+00  0.00000000000E+00  0.66073343647E+03  0.66073343647E+03  0.00000000000E+00 0.  1.
          4   -1    0    0  502    0 -0.00000000000E+00 -0.00000000000E+00 -0.11117623769E+02  0.11189926643E+02  0.12700000000E+01 0.  1.
         25    2    1    2    0    0 -0.38224486714E+02 -0.60911085462E+01  0.54130437016E+03  0.55689643378E+03  0.12500001523E+03 0.  0.
    9000005    1    3    3    0    0 -0.81514411330E+02 -0.37920450831E+01  0.42515751658E+03  0.43291903720E+03  0.10000000000E+01 0.  0.
    9000005    1    3    3    0    0  0.43289924617E+02 -0.22990634632E+01  0.11614685358E+03  0.12397739658E+03  0.10000000000E+01 0.  0.
          4    1    1    2  501    0  0.38224486714E+02  0.60911085462E+01  0.10831144253E+03  0.11502692933E+03  0.12700000000E+01 0. -1.
<mgrwt>
<rscale>  1 0.13085571E+03</rscale>
<asrwt>0</asrwt>
<pdfrwt beam="1">  1       21 0.10165127E+00 0.13085571E+03</pdfrwt>
<pdfrwt beam="2">  1        4 0.17160598E-02 0.13085571E+03</pdfrwt>
<totfact> 0.41614495E+04</totfact>
</mgrwt>
</event>
<event>
 6    4  0.7919556E-003  0.1320347E+03  0.7818608E-02  0.1224468E+00
         21   -1    0    0  501  502  0.00000000000E+00  0.00000000000E+00  0.31505526560E+03  0.31505526560E+03  0.00000000000E+00 0. -1.
          4   -1    0    0  502    0 -0.00000000000E+00 -0.00000000000E+00 -0.24307128655E+02  0.24340283553E+02  0.12700000000E+01 0.  1.
         25    2    1    2    0    0  0.28628150148E+02  0.31391401766E+02  0.23099257344E+03  0.26606525967E+03  0.12501264870E+03 0.  0.
    9000005    1    3    3    0    0  0.60835000795E+02 -0.18649925051E+02  0.16679465195E+03  0.17852219175E+03  0.10000000000E+01 0.  0.
    9000005    1    3    3    0    0 -0.32206850647E+02  0.50041326817E+02  0.64197921485E+02  0.87543067922E+02  0.10000000000E+01 0.  0.
          4    1    1    2  501    0 -0.28628150148E+02 -0.31391401766E+02  0.59755563506E+02  0.73330289483E+02  0.12700000000E+01 0. -1.
<mgrwt>
<rscale>  1 0.13203467E+03</rscale>
<asrwt>0</asrwt>
<pdfrwt beam="1">  1       21 0.48470038E-01 0.13203467E+03</pdfrwt>
<pdfrwt beam="2">  1        4 0.37423058E-02 0.13203467E+03</pdfrwt>
<totfact> 0.62688836E+04</totfact>
</mgrwt>
</event>
<event>
 6    4  0.7919556E-003  0.1386168E+03  0.7818608E-02  0.1215202E+00
         -4   -1    0    0    0  501 -0.00000000000E+00  0.00000000000E+00  0.14316471414E+02  0.14372691250E+02  0.12700000000E+01 0.  1.
         21   -1    0    0  501  502  0.00000000000E+00 -0.00000000000E+00 -0.94891566909E+03  0.94891566909E+03  0.00000000000E+00 0.  1.
         25    2    1    2    0    0  0.42751036938E+02  0.41980753416E+02 -0.83959571214E+03  0.85096156041E+03  0.12499833059E+03 0.  0.
    9000005    1    3    3    0    0  0.74288074106E+02 -0.82131551921E+01 -0.57288301567E+03  0.57773880216E+03  0.10000000000E+01 0.  0.
    9000005    1    3    3    0    0 -0.31537037168E+02  0.50193908609E+02 -0.26671269646E+03  0.27322275826E+03  0.10000000000E+01 0.  0.
         -4    1    1    2    0  502 -0.42751036938E+02 -0.41980753416E+02 -0.95003485540E+02  0.11232679993E+03  0.12700000000E+01 0. -1.
<mgrwt>
<rscale>  1 0.13861680E+03</rscale>
<asrwt>0</asrwt>
<pdfrwt beam="2">  1       21 0.14598705E+00 0.13861680E+03</pdfrwt>
<pdfrwt beam="1">  1       -4 0.22069237E-02 0.13861680E+03</pdfrwt>
<totfact> 0.11663092E+04</totfact>
</mgrwt>
</event>
<event>
 6    4  0.7919556E-003  0.1268789E+03  0.7818608E-02  0.1232162E+00
         -4   -1    0    0    0  501 -0.00000000000E+00  0.00000000000E+00  0.20890098109E+02  0.20928666919E+02  0.12700000000E+01 0.  1.
         21   -1    0    0  501  502  0.00000000000E+00 -0.00000000000E+00 -0.45194292494E+03  0.45194292494E+03  0.00000000000E+00 0. -1.
         25    2    1    2    0    0 -0.53882757945E+01  0.21067981708E+02 -0.17640994241E+03  0.21729869647E+03  0.12500144935E+03 0.  0.
    9000005    1    3    3    0    0  0.12702930948E+01 -0.38087447796E+02 -0.14511239000E+03  0.15003623914E+03  0.10000000000E+01 0.  0.
    9000005    1    3    3    0    0 -0.66585688894E+01  0.59155429504E+02 -0.31297552411E+02  0.67262457332E+02  0.10000000000E+01 0.  0.
         -4    1    1    2    0  502  0.53882757945E+01 -0.21067981708E+02 -0.25464288442E+03  0.25557289538E+03  0.12700000000E+01 0. -1.
<mgrwt>
<rscale>  1 0.12687890E+03</rscale>
<asrwt>0</asrwt>
<pdfrwt beam="2">  1       21 0.69529677E-01 0.12687890E+03</pdfrwt>
<pdfrwt beam="1">  1       -4 0.32169655E-02 0.12687890E+03</pdfrwt>
<totfact> 0.36955435E+04</totfact>
</mgrwt>
</event>
<event>
 6    4  0.7919556E-003  0.1275215E+03  0.7818608E-02  0.1231180E+00
          4   -1    0    0  502    0 -0.00000000000E+00  0.00000000000E+00  0.18417558545E+04  0.18417562924E+04  0.12700000000E+01 0.  1.
         21   -1    0    0  501  502  0.00000000000E+00 -0.00000000000E+00 -0.22153647673E+02  0.22153647673E+02  0.00000000000E+00 0. -1.
         25    2    1    2    0    0 -0.96848839544E+01 -0.23317876285E+02  0.18315245894E+04  0.18359586174E+04  0.12499681036E+03 0.  0.
    9000005    1    3    3    0    0  0.27815549493E+02 -0.65406136356E+02  0.99347674905E+03  0.99601642474E+03  0.10000000000E+01 0.  0.
    9000005    1    3    3    0    0 -0.37500433447E+02  0.42088260071E+02  0.83804784039E+03  0.83994219262E+03  0.10000000000E+01 0.  0.
          4    1    1    2  501    0  0.96848839544E+01  0.23317876285E+02 -0.11922382625E+02  0.27951322672E+02  0.12700000000E+01 0. -1.
<mgrwt>
<rscale>  1 0.12752146E+03</rscale>
<asrwt>0</asrwt>
<pdfrwt beam="2">  1       21 0.34082549E-02 0.12752146E+03</pdfrwt>
<pdfrwt beam="1">  1        4 0.28334977E+00 0.12752146E+03</pdfrwt>
<totfact> 0.10004119E+03</totfact>
</mgrwt>
</event>
<event>
 6    4  0.7919556E-003  0.1289720E+03  0.7818608E-02  0.1228989E+00
         21   -1    0    0  501  502  0.00000000000E+00  0.00000000000E+00  0.11011602249E+03  0.11011602249E+03  0.00000000000E+00 0. -1.
         -4   -1    0    0    0  501 -0.00000000000E+00 -0.00000000000E+00 -0.67845099854E+02  0.67856985448E+02  0.12700000000E+01 0. -1.
         25    2    1    2    0    0  0.17313962653E+02  0.26650099900E+02  0.51292377529E+01  0.12907394063E+03  0.12499508768E+03 0.  0.
    9000005    1    3    3    0    0  0.63127159253E+02  0.35054881964E+02 -0.21583344087E+02  0.75370576001E+02  0.10000000000E+01 0.  0.
    9000005    1    3    3    0    0 -0.45813196599E+02 -0.84047820639E+01  0.26712581840E+02  0.53703364631E+02  0.10000000000E+01 0.  0.
         -4    1    1    2    0  502 -0.17313962653E+02 -0.26650099900E+02  0.37141684886E+02  0.48899067308E+02  0.12700000000E+01 0.  1.
<mgrwt>
<rscale>  1 0.12897199E+03</rscale>
<asrwt>0</asrwt>
<pdfrwt beam="1">  1       21 0.16940927E-01 0.12897199E+03</pdfrwt>
<pdfrwt beam="2">  1       -4 0.10439185E-01 0.12897199E+03</pdfrwt>
<totfact> 0.88810225E+04</totfact>
</mgrwt>
</event>
<event>
 6    4  0.7919556E-003  0.1267927E+03  0.7818608E-02  0.1232294E+00
         21   -1    0    0  501  502  0.00000000000E+00  0.00000000000E+00  0.10240016095E+03  0.10240016095E+03  0.00000000000E+00 0. -1.
          4   -1    0    0  502    0 -0.00000000000E+00 -0.00000000000E+00 -0.55683263042E+02  0.55697743967E+02  0.12700000000E+01 0. -1.
         25    2    1    2    0    0 -0.11108679660E+02 -0.18112343468E+02  0.28212501534E+02  0.12989355534E+03  0.12499972291E+03 0.  0.
    9000005    1    3    3    0    0  0.21849666679E+02  0.22991195057E+02  0.60340984499E+02  0.68176516444E+02  0.10000000000E+01 0.  0.
    9000005    1    3    3    0    0 -0.32958346340E+02 -0.41103538526E+02 -0.32128482965E+02  0.61717038898E+02  0.10000000000E+01 0.  0.
          4    1    1    2  501    0  0.11108679660E+02  0.18112343468E+02  0.18504396371E+02  0.28204349572E+02  0.12700000000E+01 0.  1.
<mgrwt>
<rscale>  1 0.12679271E+03</rscale>
<asrwt>0</asrwt>
<pdfrwt beam="1">  1       21 0.15753871E-01 0.12679271E+03</pdfrwt>
<pdfrwt beam="2">  1        4 0.85683756E-02 0.12679271E+03</pdfrwt>
<totfact> 0.14072971E+05</totfact>
</mgrwt>
</event>
<event>
 6    4  0.7919556E-003  0.1329487E+03  0.7818608E-02  0.1223145E+00
         21   -1    0    0  501  502  0.00000000000E+00  0.00000000000E+00  0.43407948514E+02  0.43407948514E+02  0.00000000000E+00 0. -1.
          4   -1    0    0  502    0 -0.00000000000E+00 -0.00000000000E+00 -0.23491101423E+03  0.23491444721E+03  0.12700000000E+01 0.  1.
         25    2    1    2    0    0 -0.14354093114E+02 -0.42945361833E+02 -0.19137575301E+03  0.23302368492E+03  0.12500005919E+03 0.  0.
    9000005    1    3    3    0    0  0.22357091758E+02 -0.30134906082E+02  0.20294442533E+00  0.37536559550E+02  0.10000000000E+01 0.  0.
    9000005    1    3    3    0    0 -0.36711184872E+02 -0.12810455752E+02 -0.19157869744E+03  0.19548712537E+03  0.10000000000E+01 0.  0.
          4    1    1    2  501    0  0.14354093114E+02  0.42945361833E+02 -0.12731270257E+00  0.45298710805E+02  0.12700000000E+01 0. -1.
<mgrwt>
<rscale>  1 0.13294871E+03</rscale>
<asrwt>0</asrwt>
<pdfrwt beam="1">  1       21 0.66781458E-02 0.13294871E+03</pdfrwt>
<pdfrwt beam="2">  1        4 0.36141850E-01 0.13294871E+03</pdfrwt>
<totfact> 0.49128111E+04</totfact>
</mgrwt>
</event>
<event>
 6    4  0.7919556E-003  0.1267102E+03  0.7818608E-02  0.1232420E+00
          4   -1    0    0  502    0 -0.00000000000E+00  0.00000000000E+00  0.16682435225E+03  0.16682918631E+03  0.12700000000E+01 0.  1.
         21   -1    0    0  501  502  0.00000000000E+00 -0.00000000000E+00 -0.42511973725E+02  0.42511973725E+02  0.00000000000E+00 0.  1.
         25    2    1    2    0    0 -0.84284212375E+01 -0.18967311434E+02  0.13567677060E+03  0.18564391347E+03  0.12499871736E+03 0.  0.
    9000005    1    3    3    0    0  0.52636036686E+02 -0.75630721947E+01  0.10185735134E+03  0.11490723407E+03  0.10000000000E+01 0.  0.
    9000005    1    3    3    0    0 -0.61064457924E+02 -0.11404239239E+02  0.33819419254E+02  0.70736679402E+02  0.10000000000E+01 0.  0.
          4    1    1    2  501    0  0.84284212375E+01  0.18967311434E+02 -0.11364392068E+02  0.23697246563E+02  0.12700000000E+01 0. -1.
<mgrwt>
<rscale>  1 0.12671021E+03</rscale>
<asrwt>0</asrwt>
<pdfrwt beam="2">  1       21 0.65403037E-02 0.12671021E+03</pdfrwt>
<pdfrwt beam="1">  1        4 0.25667116E-01 0.12671021E+03</pdfrwt>
<totfact> 0.96647967E+04</totfact>
</mgrwt>
</event>
<event>
 6    4  0.7919556E-003  0.1313189E+03  0.7818608E-02  0.1225512E+00
         21   -1    0    0  501  502  0.00000000000E+00  0.00000000000E+00  0.50839578916E+01  0.50839578916E+01  0.00000000000E+00 0. -1.
          4   -1    0    0  502    0 -0.00000000000E+00 -0.00000000000E+00 -0.17419573337E+04  0.17419577966E+04  0.12700000000E+01 0.  1.
         25    2    1    2    0    0  0.38326673365E+02 -0.12382752571E+02 -0.15653357513E+04  0.15708343882E+04  0.12498957647E+03 0.  0.
    9000005    1    3    3    0    0  0.63259513253E+01 -0.32710652485E+01 -0.14669936934E+04  0.14670113203E+04  0.10000000000E+01 0.  0.
    9000005    1    3    3    0    0  0.32000722040E+02 -0.91116873228E+01 -0.98342057954E+02  0.10382306786E+03  0.10000000000E+01 0.  0.
          4    1    1    2  501    0 -0.38326673365E+02  0.12382752571E+02 -0.17153762445E+03  0.17620736634E+03  0.12700000000E+01 0. -1.
<mgrwt>
<rscale>  1 0.13131893E+03</rscale>
<asrwt>0</asrwt>
<pdfrwt beam="1">  1       21 0.78214742E-03 0.13131893E+03</pdfrwt>
<pdfrwt beam="2">  1        4 0.26800565E+00 0.13131893E+03</pdfrwt>
<totfact> 0.12986736E+04</totfact>
</mgrwt>
</event>
<event>
 6    4  0.7919556E-003  0.1274530E+03  0.7818608E-02  0.1231285E+00
         -4   -1    0    0    0  501 -0.00000000000E+00  0.00000000000E+00  0.15232574596E+02  0.15285425372E+02  0.12700000000E+01 0.  1.
         21   -1    0    0  501  502  0.00000000000E+00 -0.00000000000E+00 -0.65902163219E+03  0.65902163219E+03  0.00000000000E+00 0. -1.
         25    2    1    2    0    0 -0.13016442884E+02  0.21227968555E+02 -0.25850522410E+03  0.28821730156E+03  0.12499683036E+03 0.  0.
    9000005    1    3    3    0    0  0.28459895313E+02  0.15346095975E+02 -0.24040535501E+03  0.24257205738E+03  0.10000000000E+01 0.  0.
    9000005    1    3    3    0    0 -0.41476338197E+02  0.58818725803E+01 -0.18099869080E+02  0.45645244177E+02  0.10000000000E+01 0.  0.
         -4    1    1    2    0  502  0.13016442884E+02 -0.21227968555E+02 -0.38528383350E+03  0.38608975600E+03  0.12700000000E+01 0. -1.
<mgrwt>
<rscale>  1 0.12745298E+03</rscale>
<asrwt>0</asrwt>
<pdfrwt beam="2">  1       21 0.10138794E+00 0.12745298E+03</pdfrwt>
<pdfrwt beam="1">  1       -4 0.23476327E-02 0.12745298E+03</pdfrwt>
<totfact> 0.25788053E+04</totfact>
</mgrwt>
</event>
<event>
 6    4  0.7919556E-003  0.1269523E+03  0.7818608E-02  0.1232049E+00
          4   -1    0    0  502    0 -0.00000000000E+00  0.00000000000E+00  0.24726096001E+03  0.24726422152E+03  0.12700000000E+01 0. -1.
         21   -1    0    0  501  502  0.00000000000E+00 -0.00000000000E+00 -0.39813116297E+02  0.39813116297E+02  0.00000000000E+00 0.  1.
         25    2    1    2    0    0  0.12463678198E+02 -0.18328847537E+02  0.22528857351E+03  0.25859586197E+03  0.12500235417E+03 0.  0.
    9000005    1    3    3    0    0  0.56531847717E+02 -0.18574303721E+02  0.49632899207E+02  0.77493736836E+02  0.10000000000E+01 0.  0.
    9000005    1    3    3    0    0 -0.44068169519E+02  0.24545618456E+00  0.17565567431E+03  0.18110212514E+03  0.10000000000E+01 0.  0.
          4    1    1    2  501    0 -0.12463678198E+02  0.18328847537E+02 -0.17840729804E+02  0.28481475843E+02  0.12700000000E+01 0.  1.
<mgrwt>
<rscale>  1 0.12695227E+03</rscale>
<asrwt>0</asrwt>
<pdfrwt beam="2">  1       21 0.61250949E-02 0.12695227E+03</pdfrwt>
<pdfrwt beam="1">  1        4 0.38041956E-01 0.12695227E+03</pdfrwt>
<totfact> 0.51209970E+04</totfact>
</mgrwt>
</event>
<event>
 6    4  0.7919556E-003  0.1305975E+03  0.7818608E-02  0.1226572E+00
         21   -1    0    0  501  502  0.00000000000E+00  0.00000000000E+00  0.34286626103E+03  0.34286626103E+03  0.00000000000E+00 0. -1.
          4   -1    0    0  502    0 -0.00000000000E+00 -0.00000000000E+00 -0.34238517331E+02  0.34262063117E+02  0.12700000000E+01 0.  1.
         25    2    1    2    0    0 -0.13381382752E+02 -0.35354497096E+02  0.98382458328E+02  0.16350787852E+03  0.12500686526E+03 0.  0.
    9000005    1    3    3    0    0 -0.86379015909E+01 -0.24568436846E+02  0.12851868207E+03  0.13113456095E+03  0.10000000000E+01 0.  0.
    9000005    1    3    3    0    0 -0.47434811612E+01 -0.10786060250E+02 -0.30136223744E+02  0.32373317575E+02  0.10000000000E+01 0.  0.
          4    1    1    2  501    0  0.13381382752E+02  0.35354497096E+02  0.21024528537E+03  0.21362044563E+03  0.12700000000E+01 0. -1.
<mgrwt>
<rscale>  1 0.13059754E+03</rscale>
<asrwt>0</asrwt>
<pdfrwt beam="1">  1       21 0.52748653E-01 0.13059754E+03</pdfrwt>
<pdfrwt beam="2">  1        4 0.52694566E-02 0.13059754E+03</pdfrwt>
<totfact> 0.30442485E+04</totfact>
</mgrwt>
</event>
<event>
 6    4  0.7919556E-003  0.1755488E+03  0.7818608E-02  0.1172182E+00
         21   -1    0    0  501  502  0.00000000000E+00  0.00000000000E+00  0.59091263647E+02  0.59091263647E+02  0.00000000000E+00 0. -1.
         -4   -1    0    0    0  501 -0.00000000000E+00 -0.00000000000E+00 -0.70485819062E+03  0.70485933475E+03  0.12700000000E+01 0.  1.
         25    2    1    2    0    0  0.39785837685E+02  0.11665115833E+03 -0.61124094128E+03  0.63595035539E+03  0.12500784219E+03 0.  0.
    9000005    1    3    3    0    0  0.38509183715E+01  0.13178580520E+03 -0.40090996369E+03  0.42203332453E+03  0.10000000000E+01 0.  0.
    9000005    1    3    3    0    0  0.35934919313E+02 -0.15134646867E+02 -0.21033097759E+03  0.21391703087E+03  0.10000000000E+01 0.  0.
         -4    1    1    2    0  502 -0.39785837685E+02 -0.11665115833E+03 -0.34525985694E+02  0.12800024300E+03  0.12700000000E+01 0. -1.
<mgrwt>
<rscale>  1 0.17554876E+03</rscale>
<asrwt>0</asrwt>
<pdfrwt beam="1">  1       21 0.90909635E-02 0.17554876E+03</pdfrwt>
<pdfrwt beam="2">  1       -4 0.10844086E+00 0.17554876E+03</pdfrwt>
<totfact> 0.28400101E+03</totfact>
</mgrwt>
</event>
<event>
 6    4  0.7919556E-003  0.1275091E+03  0.7818608E-02  0.1231199E+00
         -4   -1    0    0    0  501 -0.00000000000E+00  0.00000000000E+00  0.32374800143E+02  0.32399700374E+02  0.12700000000E+01 0.  1.
         21   -1    0    0  501  502  0.00000000000E+00 -0.00000000000E+00 -0.36001672201E+03  0.36001672201E+03  0.00000000000E+00 0.  1.
         25    2    1    2    0    0  0.22241974323E+02 -0.11775095915E+02 -0.96509681955E+02  0.15991462985E+03  0.12500084729E+03 0.  0.
    9000005    1    3    3    0    0 -0.11812786083E+02  0.43858018083E+02 -0.80982489487E+02  0.92855970560E+02  0.10000000000E+01 0.  0.
    9000005    1    3    3    0    0  0.34054760406E+02 -0.55633113998E+02 -0.15527192468E+02  0.67058659287E+02  0.10000000000E+01 0.  0.
         -4    1    1    2    0  502 -0.22241974323E+02  0.11775095915E+02 -0.23113223991E+03  0.23250179254E+03  0.12700000000E+01 0. -1.
<mgrwt>
<rscale>  1 0.12750910E+03</rscale>
<asrwt>0</asrwt>
<pdfrwt beam="2">  1       21 0.55387186E-01 0.12750910E+03</pdfrwt>
<pdfrwt beam="1">  1       -4 0.49828264E-02 0.12750910E+03</pdfrwt>
<totfact> 0.30009864E+04</totfact>
</mgrwt>
</event>
<event>
 6    4  0.7919556E-003  0.1276920E+03  0.7818608E-02  0.1230921E+00
         21   -1    0    0  501  502  0.00000000000E+00  0.00000000000E+00  0.77330421042E+02  0.77330421042E+02  0.00000000000E+00 0. -1.
         -4   -1    0    0    0  501 -0.00000000000E+00 -0.00000000000E+00 -0.43215121586E+03  0.43215308199E+03  0.12700000000E+01 0.  1.
         25    2    1    2    0    0 -0.24486431407E+02 -0.88738360341E+01 -0.42015900844E+03  0.43913419353E+03  0.12500766881E+03 0.  0.
    9000005    1    3    3    0    0  0.41788535464E+02  0.27685793671E+02 -0.20520329878E+03  0.21123962388E+03  0.10000000000E+01 0.  0.
    9000005    1    3    3    0    0 -0.66274966871E+02 -0.36559629705E+02 -0.21495570966E+03  0.22789456965E+03  0.10000000000E+01 0.  0.
         -4    1    1    2    0  502  0.24486431407E+02  0.88738360341E+01  0.65338213619E+02  0.70349309505E+02  0.12700000000E+01 0. -1.
<mgrwt>
<rscale>  1 0.12769200E+03</rscale>
<asrwt>0</asrwt>
<pdfrwt beam="1">  1       21 0.11896988E-01 0.12769200E+03</pdfrwt>
<pdfrwt beam="2">  1       -4 0.66485748E-01 0.12769200E+03</pdfrwt>
<totfact> 0.52013050E+03</totfact>
</mgrwt>
</event>
<event>
 6    4  0.7919556E-003  0.1289091E+03  0.7818608E-02  0.1229083E+00
          4   -1    0    0  502    0 -0.00000000000E+00  0.00000000000E+00  0.46875186999E+03  0.46875359041E+03  0.12700000000E+01 0.  1.
         21   -1    0    0  501  502  0.00000000000E+00 -0.00000000000E+00 -0.16441577310E+02  0.16441577310E+02  0.00000000000E+00 0.  1.
         25    2    1    2    0    0  0.31393445724E+02  0.26544754843E+01  0.42277657638E+03  0.44199276069E+03  0.12499988916E+03 0.  0.
    9000005    1    3    3    0    0  0.72565900994E+02  0.14481244358E+01  0.35754269272E+03  0.36483651705E+03  0.10000000000E+01 0.  0.
    9000005    1    3    3    0    0 -0.41172455270E+02  0.12063510485E+01  0.65233883659E+02  0.77156243643E+02  0.10000000000E+01 0.  0.
          4    1    1    2  501    0 -0.31393445724E+02 -0.26544754843E+01  0.29533716298E+02  0.43202407026E+02  0.12700000000E+01 0. -1.
<mgrwt>
<rscale>  1 0.12890914E+03</rscale>
<asrwt>0</asrwt>
<pdfrwt beam="2">  1       21 0.25294738E-02 0.12890914E+03</pdfrwt>
<pdfrwt beam="1">  1        4 0.72119567E-01 0.12890914E+03</pdfrwt>
<totfact> 0.59954734E+04</totfact>
</mgrwt>
</event>
<event>
 6    4  0.7919556E-003  0.1277496E+03  0.7818608E-02  0.1230834E+00
         -4   -1    0    0    0  501 -0.00000000000E+00  0.00000000000E+00  0.67206691692E+02  0.67218690170E+02  0.12700000000E+01 0.  1.
         21   -1    0    0  501  502  0.00000000000E+00 -0.00000000000E+00 -0.14846246223E+03  0.14846246223E+03  0.00000000000E+00 0. -1.
         25    2    1    2    0    0 -0.64175404054E+01  0.25633364490E+02  0.25745948239E+01  0.12777553678E+03  0.12498681955E+03 0.  0.
    9000005    1    3    3    0    0  0.27856459291E+02 -0.42607328227E+02 -0.42965767145E+01  0.51096255385E+02  0.10000000000E+01 0.  0.
    9000005    1    3    3    0    0 -0.34273999696E+02  0.68240692717E+02  0.68711715385E+01  0.76679281400E+02  0.10000000000E+01 0.  0.
         -4    1    1    2    0  502  0.64175404054E+01 -0.25633364490E+02 -0.83830365360E+02  0.87905615613E+02  0.12700000000E+01 0. -1.
<mgrwt>
<rscale>  1 0.12774960E+03</rscale>
<asrwt>0</asrwt>
<pdfrwt beam="2">  1       21 0.22840378E-01 0.12774960E+03</pdfrwt>
<pdfrwt beam="1">  1       -4 0.10340832E-01 0.12774960E+03</pdfrwt>
<totfact> 0.51919749E+04</totfact>
</mgrwt>
</event>
<event>
 6    4  0.7919556E-003  0.1363076E+03  0.7818608E-02  0.1218385E+00
          4   -1    0    0  502    0 -0.00000000000E+00  0.00000000000E+00  0.94365008034E+02  0.94373553717E+02  0.12700000000E+01 0. -1.
         21   -1    0    0  501  502  0.00000000000E+00 -0.00000000000E+00 -0.10602701918E+03  0.10602701918E+03  0.00000000000E+00 0. -1.
         25    2    1    2    0    0 -0.31914683087E+02  0.44000598909E+02 -0.35772394554E+02  0.14092349170E+03  0.12500066639E+03 0.  0.
    9000005    1    3    3    0    0 -0.52130758568E+01  0.74555292418E+02 -0.58034520547E+02  0.94629135908E+02  0.10000000000E+01 0.  0.
    9000005    1    3    3    0    0 -0.26701607230E+02 -0.30554693509E+02  0.22262125994E+02  0.46294355788E+02  0.10000000000E+01 0.  0.
          4    1    1    2  501    0  0.31914683087E+02 -0.44000598909E+02  0.24110383403E+02  0.59477081206E+02  0.12700000000E+01 0.  1.
<mgrwt>
<rscale>  1 0.13630762E+03</rscale>
<asrwt>0</asrwt>
<pdfrwt beam="2">  1       21 0.16311849E-01 0.13630762E+03</pdfrwt>
<pdfrwt beam="1">  1        4 0.14518936E-01 0.13630762E+03</pdfrwt>
<totfact> 0.54431067E+04</totfact>
</mgrwt>
</event>
<event>
 6    4  0.7919556E-003  0.1287138E+03  0.7818608E-02  0.1229377E+00
          4   -1    0    0  502    0 -0.00000000000E+00  0.00000000000E+00  0.36702656117E+03  0.36702875842E+03  0.12700000000E+01 0.  1.
         21   -1    0    0  501  502  0.00000000000E+00 -0.00000000000E+00 -0.32537618755E+02  0.32537618755E+02  0.00000000000E+00 0. -1.
         25    2    1    2    0    0 -0.23660167514E+02 -0.19551487824E+02  0.34409450593E+03  0.36738029394E+03  0.12500074866E+03 0.  0.
    9000005    1    3    3    0    0  0.47818277457E+02 -0.79791706877E+01  0.80099557384E+02  0.93633294917E+02  0.10000000000E+01 0.  0.
    9000005    1    3    3    0    0 -0.71478444971E+02 -0.11572317136E+02  0.26399494855E+03  0.27374699903E+03  0.10000000000E+01 0.  0.
          4    1    1    2  501    0  0.23660167514E+02  0.19551487824E+02 -0.96055635149E+01  0.32186083225E+02  0.12700000000E+01 0. -1.
<mgrwt>
<rscale>  1 0.12871384E+03</rscale>
<asrwt>0</asrwt>
<pdfrwt beam="2">  1       21 0.50057878E-02 0.12871384E+03</pdfrwt>
<pdfrwt beam="1">  1        4 0.56467697E-01 0.12871384E+03</pdfrwt>
<totfact> 0.32589763E+04</totfact>
</mgrwt>
</event>
<event>
 6    4  0.7919556E-003  0.1298505E+03  0.7818608E-02  0.1227678E+00
         21   -1    0    0  501  502  0.00000000000E+00  0.00000000000E+00  0.25696404859E+03  0.25696404859E+03  0.00000000000E+00 0. -1.
          4   -1    0    0  502    0 -0.00000000000E+00 -0.00000000000E+00 -0.33765743307E+02  0.33789618540E+02  0.12700000000E+01 0.  1.
         25    2    1    2    0    0 -0.25500939392E+02  0.24170535130E+02  0.10365999815E+03  0.16615217255E+03  0.12500654603E+03 0.  0.
    9000005    1    3    3    0    0  0.31348819683E+02  0.46151577475E+02  0.86300462454E+02  0.10276909272E+03  0.10000000000E+01 0.  0.
    9000005    1    3    3    0    0 -0.56849759075E+02 -0.21981042345E+02  0.17359535697E+02  0.63383079833E+02  0.10000000000E+01 0.  0.
          4    1    1    2  501    0  0.25500939392E+02 -0.24170535130E+02  0.11953830713E+03  0.12460149457E+03  0.12700000000E+01 0. -1.
<mgrwt>
<rscale>  1 0.12985049E+03</rscale>
<asrwt>0</asrwt>
<pdfrwt beam="1">  1       21 0.39532929E-01 0.12985049E+03</pdfrwt>
<pdfrwt beam="2">  1        4 0.51968079E-02 0.12985049E+03</pdfrwt>
<totfact> 0.55988800E+04</totfact>
</mgrwt>
</event>
<event>
 6    4  0.7919556E-003  0.1369423E+03  0.7818608E-02  0.1217504E+00
         -4   -1    0    0    0  501 -0.00000000000E+00  0.00000000000E+00  0.39590988624E+03  0.39591192319E+03  0.12700000000E+01 0.  1.
         21   -1    0    0  501  502  0.00000000000E+00 -0.00000000000E+00 -0.29732358387E+02  0.29732358387E+02  0.00000000000E+00 0. -1.
         25    2    1    2    0    0 -0.19349738226E+02  0.52478489505E+02  0.33428160647E+03  0.36124422777E+03  0.12499918175E+03 0.  0.
    9000005    1    3    3    0    0  0.53447783158E+01  0.91141630788E+01 -0.92665870843E+01  0.14089153987E+02  0.10000000000E+01 0.  0.
    9000005    1    3    3    0    0 -0.24694516542E+02  0.43364326426E+02  0.34354819356E+03  0.34715507378E+03  0.10000000000E+01 0.  0.
         -4    1    1    2    0  502  0.19349738226E+02 -0.52478489505E+02  0.31895921382E+02  0.64400053812E+02  0.12700000000E+01 0. -1.
<mgrwt>
<rscale>  1 0.13694232E+03</rscale>
<asrwt>0</asrwt>
<pdfrwt beam="2">  1       21 0.45742093E-02 0.13694232E+03</pdfrwt>
<pdfrwt beam="1">  1       -4 0.60911453E-01 0.13694232E+03</pdfrwt>
<totfact> 0.32596095E+04</totfact>
</mgrwt>
</event>
<event>
 6    4  0.7919556E-003  0.1286892E+03  0.7818608E-02  0.1229414E+00
         21   -1    0    0  501  502  0.00000000000E+00  0.00000000000E+00  0.31379991468E+03  0.31379991468E+03  0.00000000000E+00 0.  1.
         -4   -1    0    0    0  501 -0.00000000000E+00 -0.00000000000E+00 -0.83882297220E+02  0.83891910735E+02  0.12700000000E+01 0. -1.
         25    2    1    2    0    0 -0.27344784964E+02 -0.13729057489E+02 -0.33115723316E+02  0.13288175094E+03  0.12499873726E+03 0.  0.
    9000005    1    3    3    0    0 -0.32230062456E+02 -0.51941224590E+02 -0.60183866721E+02  0.85789075944E+02  0.10000000000E+01 0.  0.
    9000005    1    3    3    0    0  0.48852774921E+01  0.38212167101E+02  0.27068143406E+02  0.47092674995E+02  0.10000000000E+01 0.  0.
         -4    1    1    2    0  502  0.27344784964E+02  0.13729057489E+02  0.26303334077E+03  0.26481007447E+03  0.12700000000E+01 0.  1.
<mgrwt>
<rscale>  1 0.12868919E+03</rscale>
<asrwt>0</asrwt>
<pdfrwt beam="1">  1       21 0.48276909E-01 0.12868919E+03</pdfrwt>
<pdfrwt beam="2">  1       -4 0.12905906E-01 0.12868919E+03</pdfrwt>
<totfact> 0.82465165E+03</totfact>
</mgrwt>
</event>
<event>
 6    4  0.7919556E-003  0.1407284E+03  0.7818608E-02  0.1212352E+00
          4   -1    0    0  502    0 -0.00000000000E+00  0.00000000000E+00  0.50685586222E+02  0.50701494560E+02  0.12700000000E+01 0. -1.
         21   -1    0    0  501  502  0.00000000000E+00 -0.00000000000E+00 -0.22714236663E+03  0.22714236663E+03  0.00000000000E+00 0. -1.
         25    2    1    2    0    0 -0.51345198013E+02 -0.39282627368E+02 -0.15583509236E+03  0.20997397766E+03  0.12500016445E+03 0.  0.
    9000005    1    3    3    0    0 -0.32409059503E+02 -0.47189511647E+02 -0.46991951038E+01  0.57448059862E+02  0.10000000000E+01 0.  0.
    9000005    1    3    3    0    0 -0.18936138510E+02  0.79068842781E+01 -0.15113589726E+03  0.15252591780E+03  0.10000000000E+01 0.  0.
          4    1    1    2  501    0  0.51345198013E+02  0.39282627368E+02 -0.20621688043E+02  0.67869883525E+02  0.12700000000E+01 0.  1.
<mgrwt>
<rscale>  1 0.14072845E+03</rscale>
<asrwt>0</asrwt>
<pdfrwt beam="2">  1       21 0.34944980E-01 0.14072845E+03</pdfrwt>
<pdfrwt beam="1">  1        4 0.77992792E-02 0.14072845E+03</pdfrwt>
<totfact> 0.37184330E+04</totfact>
</mgrwt>
</event>
<event>
 6    4  0.7919556E-003  0.1267611E+03  0.7818608E-02  0.1232342E+00
         21   -1    0    0  501  502  0.00000000000E+00  0.00000000000E+00  0.33769691690E+02  0.33769691690E+02  0.00000000000E+00 0.  1.
         -4   -1    0    0    0  501 -0.00000000000E+00 -0.00000000000E+00 -0.46679425551E+03  0.46679598314E+03  0.12700000000E+01 0. -1.
         25    2    1    2    0    0 -0.19419371950E+02 -0.81449501531E+01 -0.45367082260E+03  0.47104732255E+03  0.12499965033E+03 0.  0.
    9000005    1    3    3    0    0 -0.61652385454E+02 -0.40295238491E+02 -0.26712077475E+03  0.27709065517E+03  0.10000000000E+01 0.  0.
    9000005    1    3    3    0    0  0.42233013503E+02  0.32150288338E+02 -0.18655004785E+03  0.19395666738E+03  0.10000000000E+01 0.  0.
         -4    1    1    2    0  502  0.19419371950E+02  0.81449501531E+01  0.20646258779E+02  0.29518352283E+02  0.12700000000E+01 0.  1.
<mgrwt>
<rscale>  1 0.12676105E+03</rscale>
<asrwt>0</asrwt>
<pdfrwt beam="1">  1       21 0.51953378E-02 0.12676105E+03</pdfrwt>
<pdfrwt beam="2">  1       -4 0.71816462E-01 0.12676105E+03</pdfrwt>
<totfact> 0.18359710E+04</totfact>
</mgrwt>
</event>
<event>
 6    4  0.7919556E-003  0.1284633E+03  0.7818608E-02  0.1229754E+00
         -4   -1    0    0    0  501 -0.00000000000E+00  0.00000000000E+00  0.23884415853E+03  0.23884753497E+03  0.12700000000E+01 0.  1.
         21   -1    0    0  501  502  0.00000000000E+00 -0.00000000000E+00 -0.26493552796E+02  0.26493552796E+02  0.00000000000E+00 0.  1.
         25    2    1    2    0    0 -0.26969348191E+02  0.12164377347E+02  0.18349715150E+03  0.22399556154E+03  0.12500995625E+03 0.  0.
    9000005    1    3    3    0    0 -0.37102405997E+02  0.57483333227E+02  0.15517953913E+03  0.16959543476E+03  0.10000000000E+01 0.  0.
    9000005    1    3    3    0    0  0.10133057806E+02 -0.45318955880E+02  0.28317612377E+02  0.54400126776E+02  0.10000000000E+01 0.  0.
         -4    1    1    2    0  502  0.26969348191E+02 -0.12164377347E+02  0.28853454226E+02  0.41345526226E+02  0.12700000000E+01 0. -1.
<mgrwt>
<rscale>  1 0.12846325E+03</rscale>
<asrwt>0</asrwt>
<pdfrwt beam="2">  1       21 0.40759314E-02 0.12846325E+03</pdfrwt>
<pdfrwt beam="1">  1       -4 0.36747855E-01 0.12846325E+03</pdfrwt>
<totfact> 0.10873343E+05</totfact>
</mgrwt>
</event>
<event>
 6    4  0.7919556E-003  0.1293727E+03  0.7818608E-02  0.1228389E+00
         -4   -1    0    0    0  501 -0.00000000000E+00  0.00000000000E+00  0.14874987607E+03  0.14875529749E+03  0.12700000000E+01 0.  1.
         21   -1    0    0  501  502  0.00000000000E+00 -0.00000000000E+00 -0.16286957852E+03  0.16286957852E+03  0.00000000000E+00 0. -1.
         25    2    1    2    0    0  0.30192574290E+02 -0.14167169050E+02  0.11815278983E+03  0.17520667585E+03  0.12499998919E+03 0.  0.
    9000005    1    3    3    0    0 -0.27598298487E+02 -0.26959520334E+01  0.11265728203E+03  0.11602412435E+03  0.10000000000E+01 0.  0.
    9000005    1    3    3    0    0  0.57790872777E+02 -0.11471217016E+02  0.54955078007E+01  0.59182551501E+02  0.10000000000E+01 0.  0.
         -4    1    1    2    0  502 -0.30192574290E+02  0.14167169050E+02 -0.13227249228E+03  0.13641820016E+03  0.12700000000E+01 0. -1.
<mgrwt>
<rscale>  1 0.12937271E+03</rscale>
<asrwt>0</asrwt>
<pdfrwt beam="2">  1       21 0.25056858E-01 0.12937271E+03</pdfrwt>
<pdfrwt beam="1">  1       -4 0.22885394E-01 0.12937271E+03</pdfrwt>
<totfact> 0.10869009E+04</totfact>
</mgrwt>
</event>
<event>
 6    4  0.7919556E-003  0.1279193E+03  0.7818608E-02  0.1230576E+00
         21   -1    0    0  501  502  0.00000000000E+00  0.00000000000E+00  0.77825497431E+01  0.77825497431E+01  0.00000000000E+00 0. -1.
         -4   -1    0    0    0  501 -0.00000000000E+00 -0.00000000000E+00 -0.11759653113E+04  0.11759659971E+04  0.12700000000E+01 0.  1.
         25    2    1    2    0    0 -0.15031406393E+02  0.22465260939E+02 -0.11284447912E+04  0.11356720420E+04  0.12503083241E+03 0.  0.
    9000005    1    3    3    0    0 -0.16746936581E+02  0.99760023624E+01 -0.23046233891E+02  0.30201149060E+02  0.10000000000E+01 0.  0.
    9000005    1    3    3    0    0  0.17155301874E+01  0.12489258577E+02 -0.11053985574E+04  0.11054708930E+04  0.10000000000E+01 0.  0.
         -4    1    1    2    0  502  0.15031406393E+02 -0.22465260939E+02 -0.39737970297E+02  0.48076504766E+02  0.12700000000E+01 0. -1.
<mgrwt>
<rscale>  1 0.12791927E+03</rscale>
<asrwt>0</asrwt>
<pdfrwt beam="1">  1       21 0.11973150E-02 0.12791927E+03</pdfrwt>
<pdfrwt beam="2">  1       -4 0.18092581E+00 0.12791927E+03</pdfrwt>
<totfact> 0.22004322E+04</totfact>
</mgrwt>
</event>
<event>
 6    4  0.7919556E-003  0.1301553E+03  0.7818608E-02  0.1227225E+00
         -4   -1    0    0    0  501 -0.00000000000E+00  0.00000000000E+00  0.17625285532E+03  0.17625743079E+03  0.12700000000E+01 0.  1.
         21   -1    0    0  501  502  0.00000000000E+00 -0.00000000000E+00 -0.44850325566E+02  0.44850325566E+02  0.00000000000E+00 0.  1.
         25    2    1    2    0    0 -0.97851755316E+01  0.34924805777E+02  0.13121088603E+03  0.18481531436E+03  0.12499964836E+03 0.  0.
    9000005    1    3    3    0    0  0.53894296329E+02  0.49250725346E+01  0.84427051395E+02  0.10028847652E+03  0.10000000000E+01 0.  0.
    9000005    1    3    3    0    0 -0.63679471861E+02  0.29999733242E+02  0.46783834637E+02  0.84526837835E+02  0.10000000000E+01 0.  0.
         -4    1    1    2    0  502  0.97851755316E+01 -0.34924805777E+02  0.19164372119E+00  0.36292441996E+02  0.12700000000E+01 0. -1.
<mgrwt>
<rscale>  1 0.13015531E+03</rscale>
<asrwt>0</asrwt>
<pdfrwt beam="2">  1       21 0.69000502E-02 0.13015531E+03</pdfrwt>
<pdfrwt beam="1">  1       -4 0.27117559E-01 0.13015531E+03</pdfrwt>
<totfact> 0.79958207E+04</totfact>
</mgrwt>
</event>
<event>
 6    4  0.7919556E-003  0.1273881E+03  0.7818608E-02  0.1231384E+00
          4   -1    0    0  502    0 -0.00000000000E+00  0.00000000000E+00  0.21719088328E+03  0.21719459634E+03  0.12700000000E+01 0. -1.
         21   -1    0    0  501  502  0.00000000000E+00 -0.00000000000E+00 -0.26707025911E+02  0.26707025911E+02  0.00000000000E+00 0. -1.
         25    2    1    2    0    0  0.14915338476E+02 -0.19516303227E+02  0.16541272929E+03  0.20878000816E+03  0.12499746950E+03 0.  0.
    9000005    1    3    3    0    0 -0.38531626049E+02 -0.21375587867E+02  0.11087571937E+02  0.45448170635E+02  0.10000000000E+01 0.  0.
    9000005    1    3    3    0    0  0.53446964525E+02  0.18592846409E+01  0.15432515735E+03  0.16333183752E+03  0.10000000000E+01 0.  0.
          4    1    1    2  501    0 -0.14915338476E+02  0.19516303227E+02  0.25071128077E+02  0.35121614094E+02  0.12700000000E+01 0.  1.
<mgrwt>
<rscale>  1 0.12738807E+03</rscale>
<asrwt>0</asrwt>
<pdfrwt beam="2">  1       21 0.41087734E-02 0.12738807E+03</pdfrwt>
<pdfrwt beam="1">  1        4 0.33416589E-01 0.12738807E+03</pdfrwt>
<totfact> 0.12870031E+05</totfact>
</mgrwt>
</event>
<event>
 6    4  0.7919556E-003  0.1281986E+03  0.7818608E-02  0.1230153E+00
         -4   -1    0    0    0  501 -0.00000000000E+00  0.00000000000E+00  0.14925824389E+03  0.14926364685E+03  0.12700000000E+01 0. -1.
         21   -1    0    0  501  502  0.00000000000E+00 -0.00000000000E+00 -0.81583318984E+02  0.81583318984E+02  0.00000000000E+00 0.  1.
         25    2    1    2    0    0  0.23485275755E+02  0.16110860866E+02  0.11720356802E+03  0.17369963516E+03  0.12499507543E+03 0.  0.
    9000005    1    3    3    0    0  0.44286285748E+02 -0.45046218592E+02  0.50966596981E+02  0.81172845969E+02  0.10000000000E+01 0.  0.
    9000005    1    3    3    0    0 -0.20801009992E+02  0.61157079458E+02  0.66236971040E+02  0.92526789187E+02  0.10000000000E+01 0.  0.
         -4    1    1    2    0  502 -0.23485275755E+02 -0.16110860866E+02 -0.49528643111E+02  0.57147330678E+02  0.12700000000E+01 0.  1.
<mgrwt>
<rscale>  1 0.12819862E+03</rscale>
<asrwt>0</asrwt>
<pdfrwt beam="2">  1       21 0.12551280E-01 0.12819862E+03</pdfrwt>
<pdfrwt beam="1">  1       -4 0.22963983E-01 0.12819862E+03</pdfrwt>
<totfact> 0.38245508E+04</totfact>
</mgrwt>
</event>
<event>
 6    4  0.7919556E-003  0.1278673E+03  0.7818608E-02  0.1230655E+00
         21   -1    0    0  501  502  0.00000000000E+00  0.00000000000E+00  0.24519649642E+04  0.24519649642E+04  0.00000000000E+00 0.  1.
          4   -1    0    0  502    0 -0.00000000000E+00 -0.00000000000E+00 -0.22799997859E+01  0.26098465517E+01  0.12700000000E+01 0.  1.
         25    2    1    2    0    0 -0.21787107162E+02  0.15806148524E+02  0.20006018619E+04  0.20046839815E+04  0.12500217409E+03 0.  0.
    9000005    1    3    3    0    0 -0.59988201298E+02 -0.30893795199E+02  0.10306511923E+04  0.10328581175E+04  0.10000000000E+01 0.  0.
    9000005    1    3    3    0    0  0.38201094135E+02  0.46699943723E+02  0.96995066964E+03  0.97182586396E+03  0.10000000000E+01 0.  0.
          4    1    1    2  501    0  0.21787107162E+02 -0.15806148524E+02  0.44908310254E+03  0.44989082927E+03  0.12700000000E+01 0. -1.
<mgrwt>
<rscale>  1 0.12786734E+03</rscale>
<asrwt>0</asrwt>
<pdfrwt beam="1">  1       21 0.37722341E+00 0.12786734E+03</pdfrwt>
<pdfrwt beam="2">  1        4 0.37616929E-03 0.12786734E+03</pdfrwt>
<totfact> 0.66733282E+03</totfact>
</mgrwt>
</event>
<event>
 6    4  0.7919556E-003  0.1271428E+03  0.7818608E-02  0.1231758E+00
         21   -1    0    0  501  502  0.00000000000E+00  0.00000000000E+00  0.19305071117E+04  0.19305071117E+04  0.00000000000E+00 0.  1.
          4   -1    0    0  502    0 -0.00000000000E+00 -0.00000000000E+00 -0.28091983934E+01  0.30829362000E+01  0.12700000000E+01 0.  1.
         25    2    1    2    0    0  0.57711968874E+01  0.22521642517E+02  0.15741689781E+04  0.15792951820E+04  0.12499907636E+03 0.  0.
    9000005    1    3    3    0    0 -0.36820470088E+02 -0.10595355515E+02  0.17780908816E+03  0.18189304662E+03  0.10000000000E+01 0.  0.
    9000005    1    3    3    0    0  0.42591666975E+02  0.33116998032E+02  0.13963598899E+04  0.13974021353E+04  0.10000000000E+01 0.  0.
          4    1    1    2  501    0 -0.57711968874E+01 -0.22521642517E+02  0.35352893522E+03  0.35429486594E+03  0.12700000000E+01 0. -1.
<mgrwt>
<rscale>  1 0.12714283E+03</rscale>
<asrwt>0</asrwt>
<pdfrwt beam="1">  1       21 0.29700008E+00 0.12714283E+03</pdfrwt>
<pdfrwt beam="2">  1        4 0.45327480E-03 0.12714283E+03</pdfrwt>
<totfact> 0.14620067E+04</totfact>
</mgrwt>
</event>
<event>
 6    4  0.7919556E-003  0.1288549E+03  0.7818608E-02  0.1229165E+00
         -4   -1    0    0    0  501 -0.00000000000E+00  0.00000000000E+00  0.11067802278E+03  0.11068530899E+03  0.12700000000E+01 0.  1.
         21   -1    0    0  501  502  0.00000000000E+00 -0.00000000000E+00 -0.73241413253E+02  0.73241413253E+02  0.00000000000E+00 0.  1.
         25    2    1    2    0    0 -0.18718086888E+02  0.25059871296E+02  0.63073754460E+02  0.14346389948E+03  0.12500091210E+03 0.  0.
    9000005    1    3    3    0    0 -0.36818628032E+02 -0.30103972535E+02  0.70371224456E+02  0.84940978120E+02  0.10000000000E+01 0.  0.
    9000005    1    3    3    0    0  0.18100541144E+02  0.55163843832E+02 -0.72974699958E+01  0.58522921358E+02  0.10000000000E+01 0.  0.
         -4    1    1    2    0  502  0.18718086888E+02 -0.25059871296E+02 -0.25637144931E+02  0.40462822768E+02  0.12700000000E+01 0. -1.
<mgrwt>
<rscale>  1 0.12885493E+03</rscale>
<asrwt>0</asrwt>
<pdfrwt beam="2">  1       21 0.11267910E-01 0.12885493E+03</pdfrwt>
<pdfrwt beam="1">  1       -4 0.17028796E-01 0.12885493E+03</pdfrwt>
<totfact> 0.79230275E+04</totfact>
</mgrwt>
</event>
<event>
 6    4  0.7919556E-003  0.1396531E+03  0.7818608E-02  0.1213796E+00
          4   -1    0    0  502    0 -0.00000000000E+00  0.00000000000E+00  0.82251002312E+03  0.82251100360E+03  0.12700000000E+01 0.  1.
         21   -1    0    0  501  502  0.00000000000E+00 -0.00000000000E+00 -0.14374481328E+02  0.14374481328E+02  0.00000000000E+00 0. -1.
         25    2    1    2    0    0 -0.56468341338E+02 -0.26264097023E+02  0.39241911587E+03  0.41652821301E+03  0.12499805346E+03 0.  0.
    9000005    1    3    3    0    0  0.13785589336E+02  0.22617350429E+01  0.28330774850E+03  0.28365372953E+03  0.10000000000E+01 0.  0.
    9000005    1    3    3    0    0 -0.70253930675E+02 -0.28525832066E+02  0.10911136738E+03  0.13287448348E+03  0.10000000000E+01 0.  0.
          4    1    1    2  501    0  0.56468341338E+02  0.26264097023E+02  0.41571642593E+03  0.42035727191E+03  0.12700000000E+01 0. -1.
<mgrwt>
<rscale>  1 0.13965310E+03</rscale>
<asrwt>0</asrwt>
<pdfrwt beam="2">  1       21 0.22114593E-02 0.13965310E+03</pdfrwt>
<pdfrwt beam="1">  1        4 0.12654436E+00 0.13965310E+03</pdfrwt>
<totfact> 0.20755509E+04</totfact>
</mgrwt>
</event>
<event>
 6    4  0.7919556E-003  0.1270404E+03  0.7818608E-02  0.1231914E+00
         -4   -1    0    0    0  501 -0.00000000000E+00  0.00000000000E+00  0.18782615504E+02  0.18825502521E+02  0.12700000000E+01 0.  1.
         21   -1    0    0  501  502  0.00000000000E+00 -0.00000000000E+00 -0.30202443933E+03  0.30202443933E+03  0.00000000000E+00 0.  1.
         25    2    1    2    0    0 -0.17925841506E+02  0.13898709602E+02 -0.22590385366E+03  0.25917526597E+03  0.12499902988E+03 0.  0.
    9000005    1    3    3    0    0 -0.34542177240E+02  0.30397849317E+02 -0.17158534363E+02  0.49118291430E+02  0.10000000000E+01 0.  0.
    9000005    1    3    3    0    0  0.16616335734E+02 -0.16499139715E+02 -0.20874531929E+03  0.21005697454E+03  0.10000000000E+01 0.  0.
         -4    1    1    2    0  502  0.17925841506E+02 -0.13898709602E+02 -0.57337970173E+02  0.61674675887E+02  0.12700000000E+01 0. -1.
<mgrwt>
<rscale>  1 0.12704042E+03</rscale>
<asrwt>0</asrwt>
<pdfrwt beam="2">  1       21 0.46465299E-01 0.12704042E+03</pdfrwt>
<pdfrwt beam="1">  1       -4 0.28931375E-02 0.12704042E+03</pdfrwt>
<totfact> 0.10195184E+05</totfact>
</mgrwt>
</event>
<event>
 6    4  0.7919556E-003  0.1311122E+03  0.7818608E-02  0.1225815E+00
          4   -1    0    0  502    0 -0.00000000000E+00  0.00000000000E+00  0.25362285647E+02  0.25394062953E+02  0.12700000000E+01 0. -1.
         21   -1    0    0  501  502  0.00000000000E+00 -0.00000000000E+00 -0.31054611308E+03  0.31054611308E+03  0.00000000000E+00 0.  1.
         25    2    1    2    0    0 -0.38539616254E+02 -0.88689294799E+01 -0.17359851508E+03  0.21754737741E+03  0.12500582807E+03 0.  0.
    9000005    1    3    3    0    0 -0.71197574103E+02 -0.10808563324E+02 -0.45169021162E+02  0.85012705356E+02  0.10000000000E+01 0.  0.
    9000005    1    3    3    0    0  0.32657957849E+02  0.19396338437E+01 -0.12842949391E+03  0.13253467206E+03  0.10000000000E+01 0.  0.
          4    1    1    2  501    0  0.38539616254E+02  0.88689294799E+01 -0.11158531236E+03  0.11839279862E+03  0.12700000000E+01 0.  1.
<mgrwt>
<rscale>  1 0.13111223E+03</rscale>
<asrwt>0</asrwt>
<pdfrwt beam="2">  1       21 0.47776327E-01 0.13111223E+03</pdfrwt>
<pdfrwt beam="1">  1        4 0.39045341E-02 0.13111223E+03</pdfrwt>
<totfact> 0.60326125E+04</totfact>
</mgrwt>
</event>
<event>
 6    4  0.7919556E-003  0.1400814E+03  0.7818608E-02  0.1213219E+00
         21   -1    0    0  501  502  0.00000000000E+00  0.00000000000E+00  0.18377428748E+03  0.18377428748E+03  0.00000000000E+00 0.  1.
         -4   -1    0    0    0  501 -0.00000000000E+00 -0.00000000000E+00 -0.94860193575E+02  0.94868694653E+02  0.12700000000E+01 0. -1.
         25    2    1    2    0    0  0.41682679651E+02 -0.47543008758E+02 -0.30639721585E+02  0.14339317192E+03  0.12500010300E+03 0.  0.
    9000005    1    3    3    0    0 -0.18828041104E+02 -0.46727736283E+02  0.29236411643E+02  0.58255851514E+02  0.10000000000E+01 0.  0.
    9000005    1    3    3    0    0  0.60510720755E+02 -0.81527247506E+00 -0.59876133228E+02  0.85137320405E+02  0.10000000000E+01 0.  0.
         -4    1    1    2    0  502 -0.41682679651E+02  0.47543008758E+02  0.11955381549E+03  0.13524981021E+03  0.12700000000E+01 0.  1.
<mgrwt>
<rscale>  1 0.14008144E+03</rscale>
<asrwt>0</asrwt>
<pdfrwt beam="1">  1       21 0.28272967E-01 0.14008144E+03</pdfrwt>
<pdfrwt beam="2">  1       -4 0.14594867E-01 0.14008144E+03</pdfrwt>
<totfact> 0.19383141E+04</totfact>
</mgrwt>
</event>
<event>
 6    4  0.7919556E-003  0.1269581E+03  0.7818608E-02  0.1232040E+00
         21   -1    0    0  501  502  0.00000000000E+00  0.00000000000E+00  0.48377861068E+01  0.48377861068E+01  0.00000000000E+00 0. -1.
         -4   -1    0    0    0  501 -0.00000000000E+00 -0.00000000000E+00 -0.17573918385E+04  0.17573922974E+04  0.12700000000E+01 0. -1.
         25    2    1    2    0    0  0.18548208145E+02  0.12221308489E+02 -0.17050919107E+04  0.17098119168E+04  0.12499988188E+03 0.  0.
    9000005    1    3    3    0    0 -0.13311901540E+02 -0.33540320310E+02 -0.17402955130E+03  0.17773419631E+03  0.10000000000E+01 0.  0.
    9000005    1    3    3    0    0  0.31860109686E+02  0.45761628799E+02 -0.15310623594E+04  0.15320777205E+04  0.10000000000E+01 0.  0.
         -4    1    1    2    0  502 -0.18548208145E+02 -0.12221308489E+02 -0.47462141712E+02  0.52418166721E+02  0.12700000000E+01 0. -1.
<mgrwt>
<rscale>  1 0.12695813E+03</rscale>
<asrwt>0</asrwt>
<pdfrwt beam="1">  1       21 0.74427494E-03 0.12695813E+03</pdfrwt>
<pdfrwt beam="2">  1       -4 0.27038078E+00 0.12695813E+03</pdfrwt>
<totfact> 0.13569404E+04</totfact>
</mgrwt>
</event>
<event>
 6    4  0.7919556E-003  0.1267038E+03  0.7818608E-02  0.1232430E+00
         -4   -1    0    0    0  501 -0.00000000000E+00  0.00000000000E+00  0.73871798757E+03  0.73871907926E+03  0.12700000000E+01 0. -1.
         21   -1    0    0  501  502  0.00000000000E+00 -0.00000000000E+00 -0.12849502853E+02  0.12849502853E+02  0.00000000000E+00 0.  1.
         25    2    1    2    0    0  0.45658850750E+01 -0.20222690394E+02  0.71841283183E+03  0.72950041107E+03  0.12499619315E+03 0.  0.
    9000005    1    3    3    0    0  0.22195575088E+00 -0.19079000090E+02  0.10948400006E+02  0.22021012045E+02  0.10000000000E+01 0.  0.
    9000005    1    3    3    0    0  0.43439293242E+01 -0.11436903034E+01  0.70746443182E+03  0.70747939902E+03  0.10000000000E+01 0.  0.
         -4    1    1    2    0  502 -0.45658850750E+01  0.20222690394E+02  0.74556528931E+01  0.22068171047E+02  0.12700000000E+01 0.  1.
<mgrwt>
<rscale>  1 0.12670380E+03</rscale>
<asrwt>0</asrwt>
<pdfrwt beam="2">  1       21 0.19768472E-02 0.12670380E+03</pdfrwt>
<pdfrwt beam="1">  1       -4 0.11365380E+00 0.12670380E+03</pdfrwt>
<totfact> 0.31854784E+04</totfact>
</mgrwt>
</event>
<event>
 6    4  0.7919556E-003  0.1451535E+03  0.7818608E-02  0.1206558E+00
         21   -1    0    0  501  502  0.00000000000E+00  0.00000000000E+00  0.86559098926E+02  0.86559098926E+02  0.00000000000E+00 0. -1.
         -4   -1    0    0    0  501 -0.00000000000E+00 -0.00000000000E+00 -0.11234424689E+04  0.11234431868E+04  0.12700000000E+01 0.  1.
         25    2    1    2    0    0 -0.50347258680E+02  0.53976697312E+02 -0.11020274138E+04  0.11115457488E+04  0.12498480101E+03 0.  0.
    9000005    1    3    3    0    0  0.31850268560E+02  0.23287178507E+02 -0.64280512928E+03  0.64401565704E+03  0.10000000000E+01 0.  0.
    9000005    1    3    3    0    0 -0.82197527240E+02  0.30689518805E+02 -0.45922228456E+03  0.46753009175E+03  0.10000000000E+01 0.  0.
         -4    1    1    2    0  502  0.50347258680E+02 -0.53976697312E+02  0.65144043845E+02  0.98456536897E+02  0.12700000000E+01 0. -1.
<mgrwt>
<rscale>  1 0.14515347E+03</rscale>
<asrwt>0</asrwt>
<pdfrwt beam="1">  1       21 0.13316786E-01 0.14515347E+03</pdfrwt>
<pdfrwt beam="2">  1       -4 0.17283806E+00 0.14515347E+03</pdfrwt>
<totfact> 0.44756496E+02</totfact>
</mgrwt>
</event>
<event>
 6    4  0.7919556E-003  0.1291605E+03  0.7818608E-02  0.1228707E+00
          4   -1    0    0  502    0 -0.00000000000E+00  0.00000000000E+00  0.16113209180E+03  0.16113709662E+03  0.12700000000E+01 0. -1.
         21   -1    0    0  501  502  0.00000000000E+00 -0.00000000000E+00 -0.40856556686E+02  0.40856556686E+02  0.00000000000E+00 0. -1.
         25    2    1    2    0    0  0.30805292237E+02  0.10412336804E+02  0.88968413184E+02  0.15683690884E+03  0.12500021857E+03 0.  0.
    9000005    1    3    3    0    0  0.20887390310E+02 -0.21642185745E+02  0.11210057777E+03  0.11606983594E+03  0.10000000000E+01 0.  0.
    9000005    1    3    3    0    0  0.99179019271E+01  0.32054522549E+02 -0.23132164588E+02  0.40767072902E+02  0.10000000000E+01 0.  0.
          4    1    1    2  501    0 -0.30805292237E+02 -0.10412336804E+02  0.31307121932E+02  0.45156744471E+02  0.12700000000E+01 0.  1.
<mgrwt>
<rscale>  1 0.12916051E+03</rscale>
<asrwt>0</asrwt>
<pdfrwt beam="2">  1       21 0.62856242E-02 0.12916051E+03</pdfrwt>
<pdfrwt beam="1">  1        4 0.24791456E-01 0.12916051E+03</pdfrwt>
<totfact> 0.11056031E+05</totfact>
</mgrwt>
</event>
<event>
 6    4  0.7919556E-003  0.1290645E+03  0.7818608E-02  0.1228850E+00
         -4   -1    0    0    0  501 -0.00000000000E+00  0.00000000000E+00  0.84260254791E+02  0.84269825190E+02  0.12700000000E+01 0.  1.
         21   -1    0    0  501  502  0.00000000000E+00 -0.00000000000E+00 -0.10759852098E+03  0.10759852098E+03  0.00000000000E+00 0. -1.
         25    2    1    2    0    0  0.20023153651E+02 -0.25123067680E+02  0.27267000656E+02  0.13191335352E+03  0.12500219318E+03 0.  0.
    9000005    1    3    3    0    0  0.32345330172E+02  0.43896618314E+02 -0.49267921328E+01  0.54757709632E+02  0.10000000000E+01 0.  0.
    9000005    1    3    3    0    0 -0.12322176522E+02 -0.69019685995E+02  0.32193792789E+02  0.77155643884E+02  0.10000000000E+01 0.  0.
         -4    1    1    2    0  502 -0.20023153651E+02  0.25123067680E+02 -0.50605266848E+02  0.59954992658E+02  0.12700000000E+01 0. -1.
<mgrwt>
<rscale>  1 0.12906449E+03</rscale>
<asrwt>0</asrwt>
<pdfrwt beam="2">  1       21 0.16553619E-01 0.12906449E+03</pdfrwt>
<pdfrwt beam="1">  1       -4 0.12964429E-01 0.12906449E+03</pdfrwt>
<totfact> 0.64036873E+04</totfact>
</mgrwt>
</event>
<event>
 6    4  0.7919556E-003  0.2301696E+03  0.7818608E-02  0.1126520E+00
         21   -1    0    0  501  502  0.00000000000E+00  0.00000000000E+00  0.20842432522E+03  0.20842432522E+03  0.00000000000E+00 0. -1.
         -4   -1    0    0    0  501 -0.00000000000E+00 -0.00000000000E+00 -0.68245363294E+03  0.68245481463E+03  0.12700000000E+01 0.  1.
         25    2    1    2    0    0 -0.18641331621E+03  0.51020086581E+02 -0.61171026124E+03  0.65358052722E+03  0.12500035263E+03 0.  0.
    9000005    1    3    3    0    0 -0.13499439585E+03  0.71399317601E+02 -0.29614280935E+03  0.33320100989E+03  0.10000000000E+01 0.  0.
    9000005    1    3    3    0    0 -0.51418920356E+02 -0.20379231020E+02 -0.31556745189E+03  0.32037951732E+03  0.10000000000E+01 0.  0.
         -4    1    1    2    0  502  0.18641331621E+03 -0.51020086581E+02  0.13768095352E+03  0.23729861263E+03  0.12700000000E+01 0. -1.
<mgrwt>
<rscale>  1 0.23016964E+03</rscale>
<asrwt>0</asrwt>
<pdfrwt beam="1">  1       21 0.32065281E-01 0.23016964E+03</pdfrwt>
<pdfrwt beam="2">  1       -4 0.10499326E+00 0.23016964E+03</pdfrwt>
<totfact> 0.29875681E+02</totfact>
</mgrwt>
</event>
<event>
 6    4  0.7919556E-003  0.1279188E+03  0.7818608E-02  0.1230577E+00
          4   -1    0    0  502    0 -0.00000000000E+00  0.00000000000E+00  0.18154565567E+03  0.18155009775E+03  0.12700000000E+01 0.  1.
         21   -1    0    0  501  502  0.00000000000E+00 -0.00000000000E+00 -0.21511044162E+03  0.21511044162E+03  0.00000000000E+00 0. -1.
         25    2    1    2    0    0 -0.18460931922E+01  0.27118786755E+02  0.15793310379E+03  0.20323900146E+03  0.12499755911E+03 0.  0.
    9000005    1    3    3    0    0 -0.38155430226E+02 -0.27993116588E+02  0.22142931821E+02  0.52256682459E+02  0.10000000000E+01 0.  0.
    9000005    1    3    3    0    0  0.36309337033E+02  0.55111903343E+02  0.13579017197E+03  0.15098231900E+03  0.10000000000E+01 0.  0.
          4    1    1    2  501    0  0.18460931922E+01 -0.27118786755E+02 -0.19149788974E+03  0.19342153792E+03  0.12700000000E+01 0. -1.
<mgrwt>
<rscale>  1 0.12791883E+03</rscale>
<asrwt>0</asrwt>
<pdfrwt beam="2">  1       21 0.33093914E-01 0.12791883E+03</pdfrwt>
<pdfrwt beam="1">  1        4 0.27930731E-01 0.12791883E+03</pdfrwt>
<totfact> 0.44061036E+03</totfact>
</mgrwt>
</event>
<event>
 6    4  0.7919556E-003  0.2249826E+03  0.7818608E-02  0.1130222E+00
         21   -1    0    0  501  502  0.00000000000E+00  0.00000000000E+00  0.54206683491E+03  0.54206683491E+03  0.00000000000E+00 0.  1.
         -4   -1    0    0    0  501 -0.00000000000E+00 -0.00000000000E+00 -0.92918491133E+02  0.92927169839E+02  0.12700000000E+01 0. -1.
         25    2    1    2    0    0 -0.15292317189E+03  0.10773358095E+03  0.11650390918E+03  0.25335811318E+03  0.12500060678E+03 0.  0.
    9000005    1    3    3    0    0 -0.50052892626E+02  0.17849924197E+02 -0.23172684964E+02  0.57981765949E+02  0.10000000000E+01 0.  0.
    9000005    1    3    3    0    0 -0.10287027926E+03  0.89883656751E+02  0.13967659414E+03  0.19537634723E+03  0.10000000000E+01 0.  0.
         -4    1    1    2    0  502  0.15292317189E+03 -0.10773358095E+03  0.33264443460E+03  0.38163589157E+03  0.12700000000E+01 0.  1.
<mgrwt>
<rscale>  1 0.22498261E+03</rscale>
<asrwt>0</asrwt>
<pdfrwt beam="1">  1       21 0.83394895E-01 0.22498261E+03</pdfrwt>
<pdfrwt beam="2">  1       -4 0.14295935E-01 0.22498261E+03</pdfrwt>
<totfact> 0.21605521E+03</totfact>
</mgrwt>
</event>
<event>
 6    4  0.7919556E-003  0.1318234E+03  0.7818608E-02  0.1224775E+00
         21   -1    0    0  501  502  0.00000000000E+00  0.00000000000E+00  0.16202585189E+03  0.16202585189E+03  0.00000000000E+00 0. -1.
         -4   -1    0    0    0  501 -0.00000000000E+00 -0.00000000000E+00 -0.10436254939E+03  0.10437027650E+03  0.12700000000E+01 0.  1.
         25    2    1    2    0    0  0.41113101531E+02 -0.78783510651E+01 -0.57526834426E+02  0.14382885674E+03  0.12500019128E+03 0.  0.
    9000005    1    3    3    0    0 -0.13829031726E+02 -0.11677054523E+02  0.33121342488E+02  0.37757370790E+02  0.10000000000E+01 0.  0.
    9000005    1    3    3    0    0  0.54942133256E+02  0.37987034575E+01 -0.90648176914E+02  0.10607148595E+03  0.10000000000E+01 0.  0.
         -4    1    1    2    0  502 -0.41113101531E+02  0.78783510651E+01  0.11519013692E+03  0.12256727164E+03  0.12700000000E+01 0. -1.
<mgrwt>
<rscale>  1 0.13182338E+03</rscale>
<asrwt>0</asrwt>
<pdfrwt beam="1">  1       21 0.24927054E-01 0.13182338E+03</pdfrwt>
<pdfrwt beam="2">  1       -4 0.16056754E-01 0.13182338E+03</pdfrwt>
<totfact> 0.20732032E+04</totfact>
</mgrwt>
</event>
<event>
 6    4  0.7919556E-003  0.1327561E+03  0.7818608E-02  0.1223422E+00
          4   -1    0    0  502    0 -0.00000000000E+00  0.00000000000E+00  0.15358535649E+02  0.15410954457E+02  0.12700000000E+01 0. -1.
         21   -1    0    0  501  502  0.00000000000E+00 -0.00000000000E+00 -0.10042704334E+04  0.10042704334E+04  0.00000000000E+00 0.  1.
         25    2    1    2    0    0  0.34449010363E+02 -0.28503568349E+02 -0.28558237885E+03  0.31493092650E+03  0.12500002253E+03 0.  0.
    9000005    1    3    3    0    0  0.46411195828E+02  0.22455691634E+02 -0.24011354866E+03  0.24558862644E+03  0.10000000000E+01 0.  0.
    9000005    1    3    3    0    0 -0.11962185465E+02 -0.50959259983E+02 -0.45468830186E+02  0.69342300060E+02  0.10000000000E+01 0.  0.
          4    1    1    2  501    0 -0.34449010363E+02  0.28503568349E+02 -0.70332951891E+03  0.70475046137E+03  0.12700000000E+01 0.  1.
<mgrwt>
<rscale>  1 0.13275614E+03</rscale>
<asrwt>0</asrwt>
<pdfrwt beam="2">  1       21 0.15450315E+00 0.13275614E+03</pdfrwt>
<pdfrwt beam="1">  1        4 0.23669456E-02 0.13275614E+03</pdfrwt>
<totfact> 0.90150692E+03</totfact>
</mgrwt>
</event>
<event>
 6    4  0.7919556E-003  0.1279242E+03  0.7818608E-02  0.1230569E+00
         21   -1    0    0  501  502  0.00000000000E+00  0.00000000000E+00  0.45257890394E+03  0.45257890394E+03  0.00000000000E+00 0. -1.
          4   -1    0    0  502    0 -0.00000000000E+00 -0.00000000000E+00 -0.16980631951E+02  0.17028058064E+02  0.12700000000E+01 0. -1.
         25    2    1    2    0    0 -0.16148451099E+02  0.21890348860E+02  0.23854771678E+03  0.27068362488E+03  0.12499860699E+03 0.  0.
    9000005    1    3    3    0    0  0.10982093709E+02  0.12495195454E+02 -0.10687619112E+02  0.19798017425E+02  0.10000000000E+01 0.  0.
    9000005    1    3    3    0    0 -0.27130544809E+02  0.93951534057E+01  0.24923533589E+03  0.25088560745E+03  0.10000000000E+01 0.  0.
          4    1    1    2  501    0  0.16148451099E+02 -0.21890348860E+02  0.19705055521E+03  0.19892333713E+03  0.12700000000E+01 0.  1.
<mgrwt>
<rscale>  1 0.12792424E+03</rscale>
<asrwt>0</asrwt>
<pdfrwt beam="1">  1       21 0.69627515E-01 0.12792424E+03</pdfrwt>
<pdfrwt beam="2">  1        4 0.26161905E-02 0.12792424E+03</pdfrwt>
<totfact> 0.50927941E+04</totfact>
</mgrwt>
</event>
<event>
 6    4  0.7919556E-003  0.1301053E+03  0.7818608E-02  0.1227300E+00
         -4   -1    0    0    0  501 -0.00000000000E+00  0.00000000000E+00  0.91423182498E+02  0.91432003139E+02  0.12700000000E+01 0.  1.
         21   -1    0    0  501  502  0.00000000000E+00 -0.00000000000E+00 -0.86828184459E+02  0.86828184459E+02  0.00000000000E+00 0. -1.
         25    2    1    2    0    0 -0.66738941893E+01  0.35479270511E+02  0.30715694021E+02  0.13368190636E+03  0.12499631486E+03 0.  0.
    9000005    1    3    3    0    0  0.31170051576E+02  0.38054124049E+02 -0.33198050061E+02  0.59353171779E+02  0.10000000000E+01 0.  0.
    9000005    1    3    3    0    0 -0.37843945765E+02 -0.25748535386E+01  0.63913744081E+02  0.74328734580E+02  0.10000000000E+01 0.  0.
         -4    1    1    2    0  502  0.66738941893E+01 -0.35479270511E+02 -0.26120695982E+02  0.44578281239E+02  0.12700000000E+01 0. -1.
<mgrwt>
<rscale>  1 0.13010534E+03</rscale>
<asrwt>0</asrwt>
<pdfrwt beam="2">  1       21 0.13358182E-01 0.13010534E+03</pdfrwt>
<pdfrwt beam="1">  1       -4 0.14066498E-01 0.13010534E+03</pdfrwt>
<totfact> 0.81945680E+04</totfact>
</mgrwt>
</event>
<event>
 6    4  0.7919556E-003  0.1421359E+03  0.7818608E-02  0.1210484E+00
         21   -1    0    0  501  502  0.00000000000E+00  0.00000000000E+00  0.18356963901E+02  0.18356963901E+02  0.00000000000E+00 0.  1.
          4   -1    0    0  502    0 -0.00000000000E+00 -0.00000000000E+00 -0.71932499817E+03  0.71932611929E+03  0.12700000000E+01 0. -1.
         25    2    1    2    0    0  0.67280629791E+02 -0.73077569767E+01 -0.59651932723E+03  0.61321930629E+03  0.12499009319E+03 0.  0.
    9000005    1    3    3    0    0  0.61222424263E+01 -0.59170884485E+02 -0.19953437323E+03  0.20821537293E+03  0.10000000000E+01 0.  0.
    9000005    1    3    3    0    0  0.61158387365E+02  0.51863127509E+02 -0.39698495400E+03  0.40500393336E+03  0.10000000000E+01 0.  0.
          4    1    1    2  501    0 -0.67280629791E+02  0.73077569767E+01 -0.10444870704E+03  0.12446377689E+03  0.12700000000E+01 0.  1.
<mgrwt>
<rscale>  1 0.14213589E+03</rscale>
<asrwt>0</asrwt>
<pdfrwt beam="1">  1       21 0.28241485E-02 0.14213589E+03</pdfrwt>
<pdfrwt beam="2">  1        4 0.11066884E+00 0.14213589E+03</pdfrwt>
<totfact> 0.19242495E+04</totfact>
</mgrwt>
</event>
<event>
 6    4  0.7919556E-003  0.1512659E+03  0.7818608E-02  0.1198926E+00
         -4   -1    0    0    0  501 -0.00000000000E+00  0.00000000000E+00  0.10491998938E+03  0.10492767543E+03  0.12700000000E+01 0. -1.
         21   -1    0    0  501  502  0.00000000000E+00 -0.00000000000E+00 -0.13775657095E+03  0.13775657095E+03  0.00000000000E+00 0. -1.
         25    2    1    2    0    0 -0.72676665606E+02 -0.44450696590E+02  0.29779855871E+00  0.15126618363E+03  0.12499442977E+03 0.  0.
    9000005    1    3    3    0    0 -0.10857090748E+03 -0.33941185057E+02  0.25305156109E+01  0.11378510229E+03  0.10000000000E+01 0.  0.
    9000005    1    3    3    0    0  0.35894241876E+02 -0.10509511532E+02 -0.22327170522E+01  0.37481081334E+02  0.10000000000E+01 0.  0.
         -4    1    1    2    0  502  0.72676665606E+02  0.44450696590E+02 -0.33134380125E+02  0.91418062751E+02  0.12700000000E+01 0.  1.
<mgrwt>
<rscale>  1 0.15126589E+03</rscale>
<asrwt>0</asrwt>
<pdfrwt beam="2">  1       21 0.21193319E-01 0.15126589E+03</pdfrwt>
<pdfrwt beam="1">  1       -4 0.16142578E-01 0.15126589E+03</pdfrwt>
<totfact> 0.28231277E+04</totfact>
</mgrwt>
</event>
<event>
 6    4  0.7919556E-003  0.1325953E+03  0.7818608E-02  0.1223655E+00
         21   -1    0    0  501  502  0.00000000000E+00  0.00000000000E+00  0.49990841922E+03  0.49990841922E+03  0.00000000000E+00 0.  1.
         -4   -1    0    0    0  501 -0.00000000000E+00 -0.00000000000E+00 -0.23461096531E+02  0.23495445313E+02  0.12700000000E+01 0.  1.
         25    2    1    2    0    0 -0.38258431370E+02 -0.22195346571E+02  0.17942007706E+03  0.22309878878E+03  0.12500065808E+03 0.  0.
    9000005    1    3    3    0    0  0.36792868776E+02 -0.41044021147E+02  0.78400222360E+02  0.95843214318E+02  0.10000000000E+01 0.  0.
    9000005    1    3    3    0    0 -0.75051300146E+02  0.18848674575E+02  0.10101985470E+03  0.12725557446E+03  0.10000000000E+01 0.  0.
         -4    1    1    2    0  502  0.38258431370E+02  0.22195346571E+02  0.29702724563E+03  0.30030507576E+03  0.12700000000E+01 0. -1.
<mgrwt>
<rscale>  1 0.13259527E+03</rscale>
<asrwt>0</asrwt>
<pdfrwt beam="1">  1       21 0.76908979E-01 0.13259527E+03</pdfrwt>
<pdfrwt beam="2">  1       -4 0.36121662E-02 0.13259527E+03</pdfrwt>
<totfact> 0.24772443E+04</totfact>
</mgrwt>
</event>
<event>
 6    4  0.7919556E-003  0.1281648E+03  0.7818608E-02  0.1230205E+00
         -4   -1    0    0    0  501 -0.00000000000E+00  0.00000000000E+00  0.23614431959E+03  0.23614773464E+03  0.12700000000E+01 0.  1.
         21   -1    0    0  501  502  0.00000000000E+00 -0.00000000000E+00 -0.29158585977E+02  0.29158585977E+02  0.00000000000E+00 0.  1.
         25    2    1    2    0    0 -0.27064688562E+02  0.82997621194E+01  0.19746667130E+03  0.23541302930E+03  0.12499929869E+03 0.  0.
    9000005    1    3    3    0    0 -0.73594461944E+02 -0.53379284893E+01  0.15185766272E+03  0.16883834883E+03  0.10000000000E+01 0.  0.
    9000005    1    3    3    0    0  0.46529773382E+02  0.13637690609E+02  0.45609008589E+02  0.66574680476E+02  0.10000000000E+01 0.  0.
         -4    1    1    2    0  502  0.27064688562E+02 -0.82997621194E+01  0.95190623101E+01  0.29893291312E+02  0.12700000000E+01 0. -1.
<mgrwt>
<rscale>  1 0.12816477E+03</rscale>
<asrwt>0</asrwt>
<pdfrwt beam="2">  1       21 0.44859365E-02 0.12816477E+03</pdfrwt>
<pdfrwt beam="1">  1       -4 0.36332284E-01 0.12816477E+03</pdfrwt>
<totfact> 0.94716950E+04</totfact>
</mgrwt>
</event>
<event>
 6    4  0.7919556E-003  0.1309285E+03  0.7818608E-02  0.1226084E+00
         -4   -1    0    0    0  501 -0.00000000000E+00  0.00000000000E+00  0.80687554704E+02  0.80697548811E+02  0.12700000000E+01 0. -1.
         21   -1    0    0  501  502  0.00000000000E+00 -0.00000000000E+00 -0.24769941009E+03  0.24769941009E+03  0.00000000000E+00 0.  1.
         25    2    1    2    0    0 -0.18395240639E+02 -0.34330657202E+02  0.24293215273E+02  0.13316319681E+03  0.12500119109E+03 0.  0.
    9000005    1    3    3    0    0  0.65340781849E+01  0.16882973807E+02 -0.42005482435E+02  0.45751388360E+02  0.10000000000E+01 0.  0.
    9000005    1    3    3    0    0 -0.24929318824E+02 -0.51213631009E+02  0.66298697707E+02  0.87411808446E+02  0.10000000000E+01 0.  0.
         -4    1    1    2    0  502  0.18395240639E+02  0.34330657202E+02 -0.19130507066E+03  0.19523376209E+03  0.12700000000E+01 0.  1.
<mgrwt>
<rscale>  1 0.13092852E+03</rscale>
<asrwt>0</asrwt>
<pdfrwt beam="2">  1       21 0.38107601E-01 0.13092852E+03</pdfrwt>
<pdfrwt beam="1">  1       -4 0.12414489E-01 0.13092852E+03</pdfrwt>
<totfact> 0.14230718E+04</totfact>
</mgrwt>
</event>
<event>
 6    4  0.7919556E-003  0.1282536E+03  0.7818608E-02  0.1230070E+00
         21   -1    0    0  501  502  0.00000000000E+00  0.00000000000E+00  0.37810595539E+03  0.37810595539E+03  0.00000000000E+00 0.  1.
          4   -1    0    0  502    0 -0.00000000000E+00 -0.00000000000E+00 -0.16884098322E+02  0.16931794830E+02  0.12700000000E+01 0. -1.
         25    2    1    2    0    0 -0.22708062562E+02 -0.17575971077E+02  0.26153074114E+03  0.29128563044E+03  0.12499767627E+03 0.  0.
    9000005    1    3    3    0    0  0.24170197015E+02  0.46172581301E+01  0.22841937674E+03  0.22974318089E+03  0.10000000000E+01 0.  0.
    9000005    1    3    3    0    0 -0.46878259576E+02 -0.22193229207E+02  0.33111364402E+02  0.61542449546E+02  0.10000000000E+01 0.  0.
          4    1    1    2  501    0  0.22708062562E+02  0.17575971077E+02  0.99691115928E+02  0.10375211978E+03  0.12700000000E+01 0.  1.
<mgrwt>
<rscale>  1 0.12825362E+03</rscale>
<asrwt>0</asrwt>
<pdfrwt beam="1">  1       21 0.58170141E-01 0.12825362E+03</pdfrwt>
<pdfrwt beam="2">  1        4 0.26013869E-02 0.12825362E+03</pdfrwt>
<totfact> 0.75573843E+04</totfact>
</mgrwt>
</event>
<event>
 6    4  0.7919556E-003  0.1274470E+03  0.7818608E-02  0.1231294E+00
         21   -1    0    0  501  502  0.00000000000E+00  0.00000000000E+00  0.24888080108E+01  0.24888080108E+01  0.00000000000E+00 0.  1.
         -4   -1    0    0    0  501 -0.00000000000E+00 -0.00000000000E+00 -0.24741471901E+04  0.24741475160E+04  0.12700000000E+01 0. -1.
         25    2    1    2    0    0 -0.11637794268E+02 -0.21962194932E+02 -0.22452425158E+04  0.22488567515E+04  0.12499983128E+03 0.  0.
    9000005    1    3    3    0    0 -0.43718587034E+02 -0.21777377286E+00 -0.29450521512E+03  0.29773425066E+03  0.10000000000E+01 0.  0.
    9000005    1    3    3    0    0  0.32080792766E+02 -0.21744421160E+02 -0.19507373007E+04  0.19511225009E+04  0.10000000000E+01 0.  0.
         -4    1    1    2    0  502  0.11637794268E+02  0.21962194932E+02 -0.22641586624E+03  0.22777957249E+03  0.12700000000E+01 0.  1.
<mgrwt>
<rscale>  1 0.12744699E+03</rscale>
<asrwt>0</asrwt>
<pdfrwt beam="1">  1       21 0.38289241E-03 0.12744699E+03</pdfrwt>
<pdfrwt beam="2">  1       -4 0.38066410E+00 0.12744699E+03</pdfrwt>
<totfact> 0.83928936E+03</totfact>
</mgrwt>
</event>
<event>
 6    4  0.7919556E-003  0.1295827E+03  0.7818608E-02  0.1228076E+00
         21   -1    0    0  501  502  0.00000000000E+00  0.00000000000E+00  0.44536980700E+02  0.44536980700E+02  0.00000000000E+00 0.  1.
          4   -1    0    0  502    0 -0.00000000000E+00 -0.00000000000E+00 -0.15091542089E+03  0.15092076452E+03  0.12700000000E+01 0.  1.
         25    2    1    2    0    0  0.23383307289E+02  0.24959497047E+02 -0.87662469433E+02  0.15644933569E+03  0.12498772155E+03 0.  0.
    9000005    1    3    3    0    0 -0.11865668132E+02  0.10212814164E+02  0.29389797196E+02  0.33314498834E+02  0.10000000000E+01 0.  0.
    9000005    1    3    3    0    0  0.35248975422E+02  0.14746682883E+02 -0.11705226663E+03  0.12313483685E+03  0.10000000000E+01 0.  0.
          4    1    1    2  501    0 -0.23383307289E+02 -0.24959497047E+02 -0.18715970759E+02  0.39008409530E+02  0.12700000000E+01 0. -1.
<mgrwt>
<rscale>  1 0.12958274E+03</rscale>
<asrwt>0</asrwt>
<pdfrwt beam="1">  1       21 0.68518431E-02 0.12958274E+03</pdfrwt>
<pdfrwt beam="2">  1        4 0.23219561E-01 0.12958274E+03</pdfrwt>
<totfact> 0.10768691E+05</totfact>
</mgrwt>
</event>
<event>
 6    4  0.7919556E-003  0.1268104E+03  0.7818608E-02  0.1232267E+00
         -4   -1    0    0    0  501 -0.00000000000E+00  0.00000000000E+00  0.28731154492E+02  0.28759209628E+02  0.12700000000E+01 0.  1.
         21   -1    0    0  501  502  0.00000000000E+00 -0.00000000000E+00 -0.19887023392E+03  0.19887023392E+03  0.00000000000E+00 0.  1.
         25    2    1    2    0    0 -0.21257764967E+02 -0.20899479318E+01 -0.12697937638E+03  0.17945649138E+03  0.12499843926E+03 0.  0.
    9000005    1    3    3    0    0  0.41016203672E+02 -0.32286030343E+02 -0.80975017295E+02  0.96346614600E+02  0.10000000000E+01 0.  0.
    9000005    1    3    3    0    0 -0.62273968639E+02  0.30196082411E+02 -0.46004359089E+02  0.83109876780E+02  0.10000000000E+01 0.  0.
         -4    1    1    2    0  502  0.21257764967E+02  0.20899479318E+01 -0.43159703040E+02  0.48172952165E+02  0.12700000000E+01 0. -1.
<mgrwt>
<rscale>  1 0.12681037E+03</rscale>
<asrwt>0</asrwt>
<pdfrwt beam="2">  1       21 0.30595422E-01 0.12681037E+03</pdfrwt>
<pdfrwt beam="1">  1       -4 0.44226475E-02 0.12681037E+03</pdfrwt>
<totfact> 0.11954132E+05</totfact>
</mgrwt>
</event>
<event>
 6    4  0.7919556E-003  0.1267273E+03  0.7818608E-02  0.1232394E+00
         21   -1    0    0  501  502  0.00000000000E+00  0.00000000000E+00  0.57356321747E+02  0.57356321747E+02  0.00000000000E+00 0. -1.
         -4   -1    0    0    0  501 -0.00000000000E+00 -0.00000000000E+00 -0.10056789732E+03  0.10057591597E+03  0.12700000000E+01 0. -1.
         25    2    1    2    0    0  0.40494636326E+00  0.20849117914E+02 -0.49596175412E+02  0.13608674128E+03  0.12499988335E+03 0.  0.
    9000005    1    3    3    0    0  0.26945540263E+02 -0.46726561630E+02 -0.24649189986E+02  0.59312867649E+02  0.10000000000E+01 0.  0.
    9000005    1    3    3    0    0 -0.26540593900E+02  0.67575679544E+02 -0.24946985426E+02  0.76773873630E+02  0.10000000000E+01 0.  0.
         -4    1    1    2    0  502 -0.40494636326E+00 -0.20849117914E+02  0.63845998342E+01  0.21845496433E+02  0.12700000000E+01 0.  1.
<mgrwt>
<rscale>  1 0.12672735E+03</rscale>
<asrwt>0</asrwt>
<pdfrwt beam="1">  1       21 0.88240496E-02 0.12672735E+03</pdfrwt>
<pdfrwt beam="2">  1       -4 0.15473682E-01 0.12672735E+03</pdfrwt>
<totfact> 0.14341827E+05</totfact>
</mgrwt>
</event>
<event>
 6    4  0.7919556E-003  0.1267356E+03  0.7818608E-02  0.1232382E+00
         -4   -1    0    0    0  501 -0.00000000000E+00  0.00000000000E+00  0.69668895880E+02  0.69680470386E+02  0.12700000000E+01 0. -1.
         21   -1    0    0  501  502  0.00000000000E+00 -0.00000000000E+00 -0.82070937374E+02  0.82070937374E+02  0.00000000000E+00 0. -1.
         25    2    1    2    0    0  0.15922738823E+02  0.13443423748E+02  0.13657706091E+01  0.12674291313E+03  0.12501056533E+03 0.  0.
    9000005    1    3    3    0    0 -0.54913743595E+02  0.48974191919E+01 -0.32514814447E+01  0.55236546615E+02  0.10000000000E+01 0.  0.
    9000005    1    3    3    0    0  0.70836482418E+02  0.85460045565E+01  0.46172520538E+01  0.71506366512E+02  0.10000000000E+01 0.  0.
         -4    1    1    2    0  502 -0.15922738823E+02 -0.13443423748E+02 -0.13767812102E+02  0.25008494633E+02  0.12700000000E+01 0.  1.
<mgrwt>
<rscale>  1 0.12673555E+03</rscale>
<asrwt>0</asrwt>
<pdfrwt beam="2">  1       21 0.12626298E-01 0.12673555E+03</pdfrwt>
<pdfrwt beam="1">  1       -4 0.10719938E-01 0.12673555E+03</pdfrwt>
<totfact> 0.14372895E+05</totfact>
</mgrwt>
</event>
<event>
 6    4  0.7919556E-003  0.1269533E+03  0.7818608E-02  0.1232048E+00
          4   -1    0    0  502    0 -0.00000000000E+00  0.00000000000E+00  0.39135066405E+03  0.39135272472E+03  0.12700000000E+01 0.  1.
         21   -1    0    0  501  502  0.00000000000E+00 -0.00000000000E+00 -0.16094848853E+02  0.16094848853E+02  0.00000000000E+00 0. -1.
         25    2    1    2    0    0  0.27999909243E+01  0.21975882222E+02  0.35637381016E+03  0.37831130129E+03  0.12500547496E+03 0.  0.
    9000005    1    3    3    0    0 -0.46083344769E+02 -0.28429486560E+02  0.11850199791E+03  0.13029057479E+03  0.10000000000E+01 0.  0.
    9000005    1    3    3    0    0  0.48883335693E+02  0.50405368782E+02  0.23787181225E+03  0.24802072650E+03  0.10000000000E+01 0.  0.
          4    1    1    2  501    0 -0.27999909243E+01 -0.21975882222E+02  0.18882005035E+02  0.29136272286E+02  0.12700000000E+01 0. -1.
<mgrwt>
<rscale>  1 0.12695333E+03</rscale>
<asrwt>0</asrwt>
<pdfrwt beam="2">  1       21 0.24761309E-02 0.12695333E+03</pdfrwt>
<pdfrwt beam="1">  1        4 0.60211800E-01 0.12695333E+03</pdfrwt>
<totfact> 0.90994290E+04</totfact>
</mgrwt>
</event>
<event>
 6    4  0.7919556E-003  0.1678743E+03  0.7818608E-02  0.1180083E+00
          4   -1    0    0  502    0 -0.00000000000E+00  0.00000000000E+00  0.62468446728E+02  0.62481355112E+02  0.12700000000E+01 0.  1.
         21   -1    0    0  501  502  0.00000000000E+00 -0.00000000000E+00 -0.66779733107E+03  0.66779733107E+03  0.00000000000E+00 0. -1.
         25    2    1    2    0    0 -0.64884365624E+02 -0.91362344401E+02 -0.67562750586E+02  0.18095993865E+03  0.12499886100E+03 0.  0.
    9000005    1    3    3    0    0 -0.64850629079E+02 -0.68263025785E+02  0.14885502581E+02  0.95331122769E+02  0.10000000000E+01 0.  0.
    9000005    1    3    3    0    0 -0.33736545139E-01 -0.23099318616E+02 -0.82448253167E+02  0.85628815880E+02  0.10000000000E+01 0.  0.
          4    1    1    2  501    0  0.64884365624E+02  0.91362344401E+02 -0.53776613376E+03  0.54931874754E+03  0.12700000000E+01 0. -1.
<mgrwt>
<rscale>  1 0.16787428E+03</rscale>
<asrwt>0</asrwt>
<pdfrwt beam="2">  1       21 0.10273805E+00 0.16787428E+03</pdfrwt>
<pdfrwt beam="1">  1        4 0.96116165E-02 0.16787428E+03</pdfrwt>
<totfact> 0.26226314E+03</totfact>
</mgrwt>
</event>
<event>
 6    4  0.7919556E-003  0.1275789E+03  0.7818608E-02  0.1231093E+00
         21   -1    0    0  501  502  0.00000000000E+00  0.00000000000E+00  0.16003858165E+03  0.16003858165E+03  0.00000000000E+00 0.  1.
          4   -1    0    0  502    0 -0.00000000000E+00 -0.00000000000E+00 -0.11430230645E+03  0.11430936165E+03  0.12700000000E+01 0. -1.
         25    2    1    2    0    0 -0.13475619479E+02 -0.21670955597E+02 -0.76977066426E+02  0.14900282073E+03  0.12500059678E+03 0.  0.
    9000005    1    3    3    0    0  0.22588363179E+02  0.33750695837E+02 -0.72019790442E+02  0.82687325728E+02  0.10000000000E+01 0.  0.
    9000005    1    3    3    0    0 -0.36063982658E+02 -0.55421651434E+02 -0.49572759832E+01  0.66315495007E+02  0.10000000000E+01 0.  0.
          4    1    1    2  501    0  0.13475619479E+02  0.21670955597E+02  0.12271334162E+03  0.12534512256E+03  0.12700000000E+01 0.  1.
<mgrwt>
<rscale>  1 0.12757888E+03</rscale>
<asrwt>0</asrwt>
<pdfrwt beam="1">  1       21 0.24621320E-01 0.12757888E+03</pdfrwt>
<pdfrwt beam="2">  1        4 0.17585901E-01 0.12757888E+03</pdfrwt>
<totfact> 0.18015959E+04</totfact>
</mgrwt>
</event>
<event>
 6    4  0.7919556E-003  0.1266961E+03  0.7818608E-02  0.1232442E+00
         21   -1    0    0  501  502  0.00000000000E+00  0.00000000000E+00  0.80992015254E+02  0.80992015254E+02  0.00000000000E+00 0.  1.
          4   -1    0    0  502    0 -0.00000000000E+00 -0.00000000000E+00 -0.71848713831E+02  0.71859937234E+02  0.12700000000E+01 0.  1.
         25    2    1    2    0    0 -0.19408488366E+02 -0.69742162455E+01  0.21891034091E+02  0.12857342903E+03  0.12500632051E+03 0.  0.
    9000005    1    3    3    0    0  0.20086808482E+02  0.40695012018E+02  0.43623444484E+02  0.62956880376E+02  0.10000000000E+01 0.  0.
    9000005    1    3    3    0    0 -0.39495296848E+02 -0.47669228263E+02 -0.21732410392E+02  0.65616548658E+02  0.10000000000E+01 0.  0.
          4    1    1    2  501    0  0.19408488366E+02  0.69742162455E+01 -0.12747732668E+02  0.24278523454E+02  0.12700000000E+01 0. -1.
<mgrwt>
<rscale>  1 0.12669613E+03</rscale>
<asrwt>0</asrwt>
<pdfrwt beam="1">  1       21 0.12460310E-01 0.12669613E+03</pdfrwt>
<pdfrwt beam="2">  1        4 0.11055278E-01 0.12669613E+03</pdfrwt>
<totfact> 0.13965990E+05</totfact>
</mgrwt>
</event>
<event>
 6    4  0.7919556E-003  0.1596597E+03  0.7818608E-02  0.1189081E+00
         21   -1    0    0  501  502  0.00000000000E+00  0.00000000000E+00  0.50305845509E+03  0.50305845509E+03  0.00000000000E+00 0. -1.
         -4   -1    0    0    0  501 -0.00000000000E+00 -0.00000000000E+00 -0.34351734277E+02  0.34375202514E+02  0.12700000000E+01 0.  1.
         25    2    1    2    0    0  0.58252235336E+02 -0.80449768267E+02  0.24203502712E+03  0.28995202646E+03  0.12500294059E+03 0.  0.
    9000005    1    3    3    0    0  0.25677912657E+02 -0.69751414481E+02  0.38816429755E+02  0.83858990212E+02  0.10000000000E+01 0.  0.
    9000005    1    3    3    0    0  0.32574322679E+02 -0.10698353786E+02  0.20321859737E+03  0.20609303624E+03  0.10000000000E+01 0.  0.
         -4    1    1    2    0  502 -0.58252235336E+02  0.80449768267E+02  0.22667169369E+03  0.24748163115E+03  0.12700000000E+01 0. -1.
<mgrwt>
<rscale>  1 0.15965971E+03</rscale>
<asrwt>0</asrwt>
<pdfrwt beam="1">  1       21 0.77393603E-01 0.15965971E+03</pdfrwt>
<pdfrwt beam="2">  1       -4 0.52868111E-02 0.15965971E+03</pdfrwt>
<totfact> 0.13476621E+04</totfact>
</mgrwt>
</event>
<event>
 6    4  0.7919556E-003  0.1497441E+03  0.7818608E-02  0.1200788E+00
         -4   -1    0    0    0  501 -0.00000000000E+00  0.00000000000E+00  0.40770339224E+02  0.40790114740E+02  0.12700000000E+01 0.  1.
         21   -1    0    0  501  502  0.00000000000E+00 -0.00000000000E+00 -0.33555772251E+03  0.33555772251E+03  0.00000000000E+00 0.  1.
         25    2    1    2    0    0  0.79623029571E+02  0.21411385535E+02 -0.16742200434E+03  0.22461838420E+03  0.12500006686E+03 0.  0.
    9000005    1    3    3    0    0  0.96983488796E+02  0.54617894049E+02 -0.11373082652E+03  0.15913708666E+03  0.10000000000E+01 0.  0.
    9000005    1    3    3    0    0 -0.17360459225E+02 -0.33206508514E+02 -0.53691177816E+02  0.65481297539E+02  0.10000000000E+01 0.  0.
         -4    1    1    2    0  502 -0.79623029571E+02 -0.21411385535E+02 -0.12736537895E+03  0.15172945305E+03  0.12700000000E+01 0. -1.
<mgrwt>
<rscale>  1 0.14974408E+03</rscale>
<asrwt>0</asrwt>
<pdfrwt beam="2">  1       21 0.51624264E-01 0.14974408E+03</pdfrwt>
<pdfrwt beam="1">  1       -4 0.62740660E-02 0.14974408E+03</pdfrwt>
<totfact> 0.24291489E+04</totfact>
</mgrwt>
</event>
<event>
 6    4  0.7919556E-003  0.1271876E+03  0.7818608E-02  0.1231690E+00
          4   -1    0    0  502    0 -0.00000000000E+00  0.00000000000E+00  0.21856970570E+02  0.21893836176E+02  0.12700000000E+01 0.  1.
         21   -1    0    0  501  502  0.00000000000E+00 -0.00000000000E+00 -0.27399627315E+03  0.27399627315E+03  0.00000000000E+00 0.  1.
         25    2    1    2    0    0 -0.18935406349E+02  0.13903850119E+02 -0.18300176331E+03  0.22285943839E+03  0.12499926896E+03 0.  0.
    9000005    1    3    3    0    0  0.25307165949E+02  0.58807049524E+02 -0.87506227514E+02  0.10842998467E+03  0.10000000000E+01 0.  0.
    9000005    1    3    3    0    0 -0.44242572298E+02 -0.44903199405E+02 -0.95495535799E+02  0.11442945372E+03  0.10000000000E+01 0.  0.
          4    1    1    2  501    0  0.18935406349E+02 -0.13903850119E+02 -0.69137539269E+02  0.73030670940E+02  0.12700000000E+01 0. -1.
<mgrwt>
<rscale>  1 0.12718759E+03</rscale>
<asrwt>0</asrwt>
<pdfrwt beam="2">  1       21 0.42153271E-01 0.12718759E+03</pdfrwt>
<pdfrwt beam="1">  1        4 0.33656732E-02 0.12718759E+03</pdfrwt>
<totfact> 0.97994437E+04</totfact>
</mgrwt>
</event>
<event>
 6    4  0.7919556E-003  0.1287978E+03  0.7818608E-02  0.1229251E+00
         -4   -1    0    0    0  501 -0.00000000000E+00  0.00000000000E+00  0.83467424969E+03  0.83467521588E+03  0.12700000000E+01 0. -1.
         21   -1    0    0  501  502  0.00000000000E+00 -0.00000000000E+00 -0.82080385030E+01  0.82080385030E+01  0.00000000000E+00 0.  1.
         25    2    1    2    0    0 -0.10971699225E+02  0.29024394749E+02  0.73726722854E+03  0.74843292309E+03  0.12500432159E+03 0.  0.
    9000005    1    3    3    0    0  0.48522227650E+02 -0.50897766855E+01  0.46918035748E+03  0.47171126789E+03  0.10000000000E+01 0.  0.
    9000005    1    3    3    0    0 -0.59493926875E+02  0.34114171435E+02  0.26808687105E+03  0.27672165520E+03  0.10000000000E+01 0.  0.
         -4    1    1    2    0  502  0.10971699225E+02 -0.29024394749E+02  0.89198982652E+02  0.94450331289E+02  0.12700000000E+01 0.  1.
<mgrwt>
<rscale>  1 0.12879780E+03</rscale>
<asrwt>0</asrwt>
<pdfrwt beam="2">  1       21 0.12627758E-02 0.12879780E+03</pdfrwt>
<pdfrwt beam="1">  1       -4 0.12841899E+00 0.12879780E+03</pdfrwt>
<totfact> 0.48749316E+04</totfact>
</mgrwt>
</event>
<event>
 6    4  0.7919556E-003  0.1274312E+03  0.7818608E-02  0.1231318E+00
         21   -1    0    0  501  502  0.00000000000E+00  0.00000000000E+00  0.10843907070E+03  0.10843907070E+03  0.00000000000E+00 0. -1.
         -4   -1    0    0    0  501 -0.00000000000E+00 -0.00000000000E+00 -0.66962880888E+02  0.66974923045E+02  0.12700000000E+01 0.  1.
         25    2    1    2    0    0  0.24706799123E+02 -0.49898200692E+00  0.36649787718E+00  0.12743176186E+03  0.12501217822E+03 0.  0.
    9000005    1    3    3    0    0  0.27282034252E+01 -0.84305128855E+00 -0.61600100632E+02  0.61674356318E+02  0.10000000000E+01 0.  0.
    9000005    1    3    3    0    0  0.21978595698E+02  0.34406928163E+00  0.61966598509E+02  0.65757405540E+02  0.10000000000E+01 0.  0.
         -4    1    1    2    0  502 -0.24706799123E+02  0.49898200692E+00  0.41109691936E+02  0.47982231889E+02  0.12700000000E+01 0. -1.
<mgrwt>
<rscale>  1 0.12743123E+03</rscale>
<asrwt>0</asrwt>
<pdfrwt beam="1">  1       21 0.16682934E-01 0.12743123E+03</pdfrwt>
<pdfrwt beam="2">  1       -4 0.10303480E-01 0.12743123E+03</pdfrwt>
<totfact> 0.93210777E+04</totfact>
</mgrwt>
</event>
<event>
 6    4  0.7919556E-003  0.1286688E+03  0.7818608E-02  0.1229444E+00
         21   -1    0    0  501  502  0.00000000000E+00  0.00000000000E+00  0.34326531068E+03  0.34326531068E+03  0.00000000000E+00 0. -1.
         -4   -1    0    0    0  501 -0.00000000000E+00 -0.00000000000E+00 -0.29816583868E+02  0.29843618640E+02  0.12700000000E+01 0.  1.
         25    2    1    2    0    0  0.66033329736E+00  0.30508000939E+02  0.11577014204E+03  0.17308490592E+03  0.12499793881E+03 0.  0.
    9000005    1    3    3    0    0 -0.35611547866E+02  0.58289481250E+02  0.27413333099E+02  0.73609352650E+02  0.10000000000E+01 0.  0.
    9000005    1    3    3    0    0  0.36271881164E+02 -0.27781480311E+02  0.88356808942E+02  0.99475553268E+02  0.10000000000E+01 0.  0.
         -4    1    1    2    0  502 -0.66033329736E+00 -0.30508000939E+02  0.19767858477E+03  0.20002402341E+03  0.12700000000E+01 0. -1.
<mgrwt>
<rscale>  1 0.12866880E+03</rscale>
<asrwt>0</asrwt>
<pdfrwt beam="1">  1       21 0.52810045E-01 0.12866880E+03</pdfrwt>
<pdfrwt beam="2">  1       -4 0.45894273E-02 0.12866880E+03</pdfrwt>
<totfact> 0.37849846E+04</totfact>
</mgrwt>
</event>
<event>
 6    4  0.7919556E-003  0.1405354E+03  0.7818608E-02  0.1212610E+00
         -4   -1    0    0    0  501 -0.00000000000E+00  0.00000000000E+00  0.18717789121E+03  0.18718219963E+03  0.12700000000E+01 0. -1.
         21   -1    0    0  501  502  0.00000000000E+00 -0.00000000000E+00 -0.21791128968E+03  0.21791128968E+03  0.00000000000E+00 0.  1.
         25    2    1    2    0    0 -0.62586241149E+02  0.14457210151E+02  0.15460659537E+03  0.20893392487E+03  0.12499654844E+03 0.  0.
    9000005    1    3    3    0    0 -0.64317198062E+02  0.56298071227E+02  0.57067810432E+02  0.10278088236E+03  0.10000000000E+01 0.  0.
    9000005    1    3    3    0    0  0.17309569134E+01 -0.41840861075E+02  0.97538784937E+02  0.10615304251E+03  0.10000000000E+01 0.  0.
         -4    1    1    2    0  502  0.62586241149E+02 -0.14457210151E+02 -0.18533999384E+03  0.19615956445E+03  0.12700000000E+01 0.  1.
<mgrwt>
<rscale>  1 0.14053535E+03</rscale>
<asrwt>0</asrwt>
<pdfrwt beam="2">  1       21 0.33524814E-01 0.14053535E+03</pdfrwt>
<pdfrwt beam="1">  1       -4 0.28797215E-01 0.14053535E+03</pdfrwt>
<totfact> 0.40796134E+03</totfact>
</mgrwt>
</event>
<event>
 6    4  0.7919556E-003  0.1266430E+03  0.7818608E-02  0.1232524E+00
         -4   -1    0    0    0  501 -0.00000000000E+00  0.00000000000E+00  0.31571534926E+03  0.31571790360E+03  0.12700000000E+01 0. -1.
         21   -1    0    0  501  502  0.00000000000E+00 -0.00000000000E+00 -0.22656899046E+02  0.22656899046E+02  0.00000000000E+00 0.  1.
         25    2    1    2    0    0 -0.96632066549E+01 -0.17852927824E+02  0.29168141887E+03  0.31798819651E+03  0.12500535353E+03 0.  0.
    9000005    1    3    3    0    0  0.46388367236E+02 -0.26926711834E+02  0.64887468875E+02  0.84192113894E+02  0.10000000000E+01 0.  0.
    9000005    1    3    3    0    0 -0.56051573891E+02  0.90737840103E+01  0.22679394999E+03  0.23379608261E+03  0.10000000000E+01 0.  0.
         -4    1    1    2    0  502  0.96632066549E+01  0.17852927824E+02  0.13770313432E+01  0.20386606143E+02  0.12700000000E+01 0.  1.
<mgrwt>
<rscale>  1 0.12664297E+03</rscale>
<asrwt>0</asrwt>
<pdfrwt beam="2">  1       21 0.34856770E-02 0.12664297E+03</pdfrwt>
<pdfrwt beam="1">  1       -4 0.48574523E-01 0.12664297E+03</pdfrwt>
<totfact> 0.80872900E+04</totfact>
</mgrwt>
</event>
<event>
 6    4  0.7919556E-003  0.1340622E+03  0.7818608E-02  0.1221550E+00
         -4   -1    0    0    0  501 -0.00000000000E+00  0.00000000000E+00  0.49995933311E+02  0.50012061022E+02  0.12700000000E+01 0.  1.
         21   -1    0    0  501  502  0.00000000000E+00 -0.00000000000E+00 -0.19027173735E+03  0.19027173735E+03  0.00000000000E+00 0.  1.
         25    2    1    2    0    0  0.45316326607E+02  0.17154234468E+02 -0.60826769667E+02  0.14721608550E+03  0.12499937081E+03 0.  0.
    9000005    1    3    3    0    0  0.39435540708E+02 -0.51649990443E+02 -0.30317774482E+02  0.71715066989E+02  0.10000000000E+01 0.  0.
    9000005    1    3    3    0    0  0.58807858991E+01  0.68804224911E+02 -0.30508995185E+02  0.75501018507E+02  0.10000000000E+01 0.  0.
         -4    1    1    2    0  502 -0.45316326607E+02 -0.17154234468E+02 -0.79449034373E+02  0.93067712877E+02  0.12700000000E+01 0. -1.
<mgrwt>
<rscale>  1 0.13406222E+03</rscale>
<asrwt>0</asrwt>
<pdfrwt beam="2">  1       21 0.29272575E-01 0.13406222E+03</pdfrwt>
<pdfrwt beam="1">  1       -4 0.76932486E-02 0.13406222E+03</pdfrwt>
<totfact> 0.53417283E+04</totfact>
</mgrwt>
</event>
<event>
 6    4  0.7919556E-003  0.1289540E+03  0.7818608E-02  0.1229016E+00
         21   -1    0    0  501  502  0.00000000000E+00  0.00000000000E+00  0.43702600917E+02  0.43702600917E+02  0.00000000000E+00 0.  1.
          4   -1    0    0  502    0 -0.00000000000E+00 -0.00000000000E+00 -0.16089049827E+03  0.16089551061E+03  0.12700000000E+01 0.  1.
         25    2    1    2    0    0  0.11327502066E+01 -0.31659744800E+02 -0.67225653920E+02  0.14542496531E+03  0.12500203769E+03 0.  0.
    9000005    1    3    3    0    0  0.32808136293E+02 -0.29465411166E+02  0.23017864357E+02  0.49753455577E+02  0.10000000000E+01 0.  0.
    9000005    1    3    3    0    0 -0.31675386087E+02 -0.21943336339E+01 -0.90243518277E+02  0.95671509735E+02  0.10000000000E+01 0.  0.
          4    1    1    2  501    0 -0.11327502066E+01  0.31659744800E+02 -0.49962243433E+02  0.59173146213E+02  0.12700000000E+01 0. -1.
<mgrwt>
<rscale>  1 0.12895399E+03</rscale>
<asrwt>0</asrwt>
<pdfrwt beam="1">  1       21 0.67234770E-02 0.12895399E+03</pdfrwt>
<pdfrwt beam="2">  1        4 0.24754190E-01 0.12895399E+03</pdfrwt>
<totfact> 0.98827561E+04</totfact>
</mgrwt>
</event>
<event>
 6    4  0.7919556E-003  0.1274272E+03  0.7818608E-02  0.1231324E+00
          4   -1    0    0  502    0 -0.00000000000E+00  0.00000000000E+00  0.23502133914E+02  0.23536422806E+02  0.12700000000E+01 0.  1.
         21   -1    0    0  501  502  0.00000000000E+00 -0.00000000000E+00 -0.39481927732E+03  0.39481927732E+03  0.00000000000E+00 0.  1.
         25    2    1    2    0    0 -0.12061549565E+02 -0.21817919455E+02 -0.15523852577E+03  0.20083998923E+03  0.12496479025E+03 0.  0.
    9000005    1    3    3    0    0  0.94996121507E+01  0.13178604701E+02  0.17133314529E+02  0.23631942782E+02  0.10000000000E+01 0.  0.
    9000005    1    3    3    0    0 -0.21561161716E+02 -0.34996524156E+02 -0.17237184030E+03  0.17720804645E+03  0.10000000000E+01 0.  0.
          4    1    1    2  501    0  0.12061549565E+02  0.21817919455E+02 -0.21607861764E+03  0.21751571090E+03  0.12700000000E+01 0. -1.
<mgrwt>
<rscale>  1 0.12742724E+03</rscale>
<asrwt>0</asrwt>
<pdfrwt beam="2">  1       21 0.60741424E-01 0.12742724E+03</pdfrwt>
<pdfrwt beam="1">  1        4 0.36185078E-02 0.12742724E+03</pdfrwt>
<totfact> 0.41091302E+04</totfact>
</mgrwt>
</event>
<event>
 6    4  0.7919556E-003  0.1366188E+03  0.7818608E-02  0.1217952E+00
         21   -1    0    0  501  502  0.00000000000E+00  0.00000000000E+00  0.61615552288E+03  0.61615552288E+03  0.00000000000E+00 0. -1.
         -4   -1    0    0    0  501 -0.00000000000E+00 -0.00000000000E+00 -0.15340370313E+02  0.15392850981E+02  0.12700000000E+01 0. -1.
         25    2    1    2    0    0 -0.54573489129E+02 -0.68843626315E+01  0.37450980520E+03  0.39865057801E+03  0.12505610338E+03 0.  0.
    9000005    1    3    3    0    0  0.24687664620E+02  0.40982269629E+01  0.12671147703E+02  0.28068384933E+02  0.10000000000E+01 0.  0.
    9000005    1    3    3    0    0 -0.79261153749E+02 -0.10982589594E+02  0.36183865749E+03  0.37058219308E+03  0.10000000000E+01 0.  0.
         -4    1    1    2    0  502  0.54573489129E+02  0.68843626315E+01  0.22630534737E+03  0.23289779586E+03  0.12700000000E+01 0.  1.
<mgrwt>
<rscale>  1 0.13661877E+03</rscale>
<asrwt>0</asrwt>
<pdfrwt beam="1">  1       21 0.94793138E-01 0.13661877E+03</pdfrwt>
<pdfrwt beam="2">  1       -4 0.23641951E-02 0.13661877E+03</pdfrwt>
<totfact> 0.30013395E+04</totfact>
</mgrwt>
</event>
<event>
 6    4  0.7919556E-003  0.1350097E+03  0.7818608E-02  0.1220206E+00
         21   -1    0    0  501  502  0.00000000000E+00  0.00000000000E+00  0.17312636390E+03  0.17312636390E+03  0.00000000000E+00 0.  1.
          4   -1    0    0  502    0 -0.00000000000E+00 -0.00000000000E+00 -0.68527534657E+02  0.68539301909E+02  0.12700000000E+01 0. -1.
         25    2    1    2    0    0  0.50806574539E+02  0.46816672722E+01  0.11504715305E+02  0.13549903746E+03  0.12499761859E+03 0.  0.
    9000005    1    3    3    0    0  0.51619694387E+02  0.55221947720E+02  0.30462589699E+02  0.81504758939E+02  0.10000000000E+01 0.  0.
    9000005    1    3    3    0    0 -0.81311984764E+00 -0.50540280448E+02 -0.18957874394E+02  0.53994278522E+02  0.10000000000E+01 0.  0.
          4    1    1    2  501    0 -0.50806574539E+02 -0.46816672722E+01  0.93094113941E+02  0.10616662835E+03  0.12700000000E+01 0.  1.
<mgrwt>
<rscale>  1 0.13500974E+03</rscale>
<asrwt>0</asrwt>
<pdfrwt beam="1">  1       21 0.26634825E-01 0.13500974E+03</pdfrwt>
<pdfrwt beam="2">  1        4 0.10543961E-01 0.13500974E+03</pdfrwt>
<totfact> 0.37825747E+04</totfact>
</mgrwt>
</event>
<event>
 6    4  0.7919556E-003  0.1284665E+03  0.7818608E-02  0.1229749E+00
         21   -1    0    0  501  502  0.00000000000E+00  0.00000000000E+00  0.42358733252E+02  0.42358733252E+02  0.00000000000E+00 0.  1.
          4   -1    0    0  502    0 -0.00000000000E+00 -0.00000000000E+00 -0.22098625340E+03  0.22098990269E+03  0.12700000000E+01 0.  1.
         25    2    1    2    0    0  0.21414638211E+02 -0.20472667465E+02 -0.19184276767E+03  0.23088369315E+03  0.12500366160E+03 0.  0.
    9000005    1    3    3    0    0 -0.26282279421E+02 -0.57730370029E+02 -0.12827872564E+03  0.14310829915E+03  0.10000000000E+01 0.  0.
    9000005    1    3    3    0    0  0.47696917632E+02  0.37257702564E+02 -0.63564042039E+02  0.87775394002E+02  0.10000000000E+01 0.  0.
          4    1    1    2  501    0 -0.21414638211E+02  0.20472667465E+02  0.13215247530E+02  0.32464942786E+02  0.12700000000E+01 0. -1.
<mgrwt>
<rscale>  1 0.12846646E+03</rscale>
<asrwt>0</asrwt>
<pdfrwt beam="1">  1       21 0.65167282E-02 0.12846646E+03</pdfrwt>
<pdfrwt beam="2">  1        4 0.33999631E-01 0.12846646E+03</pdfrwt>
<totfact> 0.57369107E+04</totfact>
</mgrwt>
</event>
<event>
 6    4  0.7919556E-003  0.1472209E+03  0.7818608E-02  0.1203930E+00
          4   -1    0    0  502    0 -0.00000000000E+00  0.00000000000E+00  0.36176928273E+03  0.36177151190E+03  0.12700000000E+01 0.  1.
         21   -1    0    0  501  502  0.00000000000E+00 -0.00000000000E+00 -0.35519163055E+02  0.35519163055E+02  0.00000000000E+00 0. -1.
         25    2    1    2    0    0 -0.73848319058E+02  0.24386909825E+02  0.23592643882E+03  0.27809220256E+03  0.12500277195E+03 0.  0.
    9000005    1    3    3    0    0 -0.69578779494E+02  0.71574907069E+02  0.16091673767E+03  0.18936570529E+03  0.10000000000E+01 0.  0.
    9000005    1    3    3    0    0 -0.42695395632E+01 -0.47187997244E+02  0.75009701147E+02  0.88726497272E+02  0.10000000000E+01 0.  0.
          4    1    1    2  501    0  0.73848319058E+02 -0.24386909825E+02  0.90323680855E+02  0.11919847240E+03  0.12700000000E+01 0. -1.
<mgrwt>
<rscale>  1 0.14722088E+03</rscale>
<asrwt>0</asrwt>
<pdfrwt beam="2">  1       21 0.54644869E-02 0.14722088E+03</pdfrwt>
<pdfrwt beam="1">  1        4 0.55658728E-01 0.14722088E+03</pdfrwt>
<totfact> 0.29416137E+04</totfact>
</mgrwt>
</event>
<event>
 6    4  0.7919556E-003  0.1273338E+03  0.7818608E-02  0.1231466E+00
         21   -1    0    0  501  502  0.00000000000E+00  0.00000000000E+00  0.64623200634E+02  0.64623200634E+02  0.00000000000E+00 0.  1.
          4   -1    0    0  502    0 -0.00000000000E+00 -0.00000000000E+00 -0.91609646347E+02  0.91618449036E+02  0.12700000000E+01 0.  1.
         25    2    1    2    0    0 -0.61995659981E+01 -0.23429261734E+02 -0.12422786200E+02  0.12793832827E+03  0.12500610105E+03 0.  0.
    9000005    1    3    3    0    0  0.54494123872E+02 -0.34886036960E+02  0.10151467482E+01  0.64719978633E+02  0.10000000000E+01 0.  0.
    9000005    1    3    3    0    0 -0.60693689871E+02  0.11456775226E+02 -0.13437932948E+02  0.63218349635E+02  0.10000000000E+01 0.  0.
          4    1    1    2  501    0  0.61995659981E+01  0.23429261734E+02 -0.14563659512E+02  0.28303321402E+02  0.12700000000E+01 0. -1.
<mgrwt>
<rscale>  1 0.12733377E+03</rscale>
<asrwt>0</asrwt>
<pdfrwt beam="1">  1       21 0.99420309E-02 0.12733377E+03</pdfrwt>
<pdfrwt beam="2">  1        4 0.14095429E-01 0.12733377E+03</pdfrwt>
<totfact> 0.13716757E+05</totfact>
</mgrwt>
</event>
<event>
 6    4  0.7919556E-003  0.1283266E+03  0.7818608E-02  0.1229960E+00
         -4   -1    0    0    0  501 -0.00000000000E+00  0.00000000000E+00  0.25722011140E+03  0.25722324663E+03  0.12700000000E+01 0. -1.
         21   -1    0    0  501  502  0.00000000000E+00 -0.00000000000E+00 -0.12182332103E+03  0.12182332103E+03  0.00000000000E+00 0.  1.
         25    2    1    2    0    0  0.27464214057E+02 -0.93956862843E+01  0.23909434650E+03  0.27135553730E+03  0.12500063648E+03 0.  0.
    9000005    1    3    3    0    0  0.11970946315E+02 -0.73105762886E+01  0.25117817299E+03  0.25157150607E+03  0.10000000000E+01 0.  0.
    9000005    1    3    3    0    0  0.15493267742E+02 -0.20851099957E+01 -0.12083826487E+02  0.19784031227E+02  0.10000000000E+01 0.  0.
         -4    1    1    2    0  502 -0.27464214057E+02  0.93956862843E+01 -0.10369755612E+03  0.10769103036E+03  0.12700000000E+01 0.  1.
<mgrwt>
<rscale>  1 0.12832662E+03</rscale>
<asrwt>0</asrwt>
<pdfrwt beam="2">  1       21 0.18742049E-01 0.12832662E+03</pdfrwt>
<pdfrwt beam="1">  1       -4 0.39573075E-01 0.12832662E+03</pdfrwt>
<totfact> 0.66271150E+03</totfact>
</mgrwt>
</event>
<event>
 6    4  0.7919556E-003  0.1355489E+03  0.7818608E-02  0.1219447E+00
         21   -1    0    0  501  502  0.00000000000E+00  0.00000000000E+00  0.61504660114E+03  0.61504660114E+03  0.00000000000E+00 0.  1.
          4   -1    0    0  502    0 -0.00000000000E+00 -0.00000000000E+00 -0.18737961701E+02  0.18780950687E+02  0.12700000000E+01 0. -1.
         25    2    1    2    0    0  0.52353990974E+02 -0.81210173861E+00  0.25753251655E+03  0.29102662677E+03  0.12502759907E+03 0.  0.
    9000005    1    3    3    0    0 -0.86920279614E+01 -0.21022865199E+02 -0.27317549575E+01  0.22934138231E+02  0.10000000000E+01 0.  0.
    9000005    1    3    3    0    0  0.61046018935E+02  0.20210763461E+02  0.26026427150E+03  0.26809248853E+03  0.10000000000E+01 0.  0.
          4    1    1    2  501    0 -0.52353990974E+02  0.81210173861E+00  0.33877612290E+03  0.34280092506E+03  0.12700000000E+01 0.  1.
<mgrwt>
<rscale>  1 0.13554889E+03</rscale>
<asrwt>0</asrwt>
<pdfrwt beam="1">  1       21 0.94622538E-01 0.13554889E+03</pdfrwt>
<pdfrwt beam="2">  1        4 0.28861715E-02 0.13554889E+03</pdfrwt>
<totfact> 0.22077444E+04</totfact>
</mgrwt>
</event>
<event>
 6    4  0.7919556E-003  0.1267476E+03  0.7818608E-02  0.1232363E+00
         21   -1    0    0  501  502  0.00000000000E+00  0.00000000000E+00  0.10774381433E+03  0.10774381433E+03  0.00000000000E+00 0. -1.
          4   -1    0    0  502    0 -0.00000000000E+00 -0.00000000000E+00 -0.53438794965E+02  0.53453883931E+02  0.12700000000E+01 0. -1.
         25    2    1    2    0    0 -0.14395142200E+02  0.15018112974E+02  0.32111220088E+02  0.13075198489E+03  0.12502874574E+03 0.  0.
    9000005    1    3    3    0    0 -0.42934848368E+02 -0.41026771417E+02  0.32796996425E+02  0.67847182342E+02  0.10000000000E+01 0.  0.
    9000005    1    3    3    0    0  0.28539706168E+02  0.56044884390E+02 -0.68577633756E+00  0.62904802549E+02  0.10000000000E+01 0.  0.
          4    1    1    2  501    0  0.14395142200E+02 -0.15018112974E+02  0.22193799280E+02  0.30445713372E+02  0.12700000000E+01 0.  1.
<mgrwt>
<rscale>  1 0.12674759E+03</rscale>
<asrwt>0</asrwt>
<pdfrwt beam="1">  1       21 0.16575971E-01 0.12674759E+03</pdfrwt>
<pdfrwt beam="2">  1        4 0.82230896E-02 0.12674759E+03</pdfrwt>
<totfact> 0.13739341E+05</totfact>
</mgrwt>
</event>
<event>
 6    4  0.7919556E-003  0.2266896E+03  0.7818608E-02  0.1128992E+00
         -4   -1    0    0    0  501 -0.00000000000E+00  0.00000000000E+00  0.68796598952E+03  0.68796716174E+03  0.12700000000E+01 0.  1.
         21   -1    0    0  501  502  0.00000000000E+00 -0.00000000000E+00 -0.10602378562E+03  0.10602378562E+03  0.00000000000E+00 0. -1.
         25    2    1    2    0    0 -0.75424913234E+02  0.17341924011E+03  0.55933819189E+03  0.60352912800E+03  0.12500018020E+03 0.  0.
    9000005    1    3    3    0    0  0.30024065608E+02  0.81053630416E+02  0.22029015397E+03  0.23664295353E+03  0.10000000000E+01 0.  0.
    9000005    1    3    3    0    0 -0.10544897884E+03  0.92365609697E+02  0.33904803792E+03  0.36688617446E+03  0.10000000000E+01 0.  0.
         -4    1    1    2    0  502  0.75424913234E+02 -0.17341924011E+03  0.22604012006E+02  0.19046181937E+03  0.12700000000E+01 0. -1.
<mgrwt>
<rscale>  1 0.22668965E+03</rscale>
<asrwt>0</asrwt>
<pdfrwt beam="2">  1       21 0.16311352E-01 0.22668965E+03</pdfrwt>
<pdfrwt beam="1">  1       -4 0.10584159E+00 0.22668965E+03</pdfrwt>
<totfact> 0.10602662E+03</totfact>
</mgrwt>
</event>
<event>
 6    4  0.7919556E-003  0.1280988E+03  0.7818608E-02  0.1230304E+00
          4   -1    0    0  502    0 -0.00000000000E+00  0.00000000000E+00  0.44241063642E+03  0.44241245927E+03  0.12700000000E+01 0. -1.
         21   -1    0    0  501  502  0.00000000000E+00 -0.00000000000E+00 -0.14717749717E+02  0.14717749717E+02  0.00000000000E+00 0.  1.
         25    2    1    2    0    0  0.25889241911E+02 -0.10674990083E+02  0.38752185555E+03  0.40814518164E+03  0.12500037004E+03 0.  0.
    9000005    1    3    3    0    0  0.14822407960E+01 -0.13249879442E+02 -0.54269558259E+01  0.14429421074E+02  0.10000000000E+01 0.  0.
    9000005    1    3    3    0    0  0.24407001115E+02  0.25748893589E+01  0.39294881137E+03  0.39371576057E+03  0.10000000000E+01 0.  0.
          4    1    1    2  501    0 -0.25889241911E+02  0.10674990083E+02  0.40171031152E+02  0.48985027343E+02  0.12700000000E+01 0.  1.
<mgrwt>
<rscale>  1 0.12809879E+03</rscale>
<asrwt>0</asrwt>
<pdfrwt beam="2">  1       21 0.22642695E-02 0.12809879E+03</pdfrwt>
<pdfrwt beam="1">  1        4 0.68067520E-01 0.12809879E+03</pdfrwt>
<totfact> 0.81228844E+04</totfact>
</mgrwt>
</event>
<event>
 6    4  0.7919556E-003  0.1285402E+03  0.7818608E-02  0.1229638E+00
         21   -1    0    0  501  502  0.00000000000E+00  0.00000000000E+00  0.79128366334E+02  0.79128366334E+02  0.00000000000E+00 0.  1.
         -4   -1    0    0    0  501 -0.00000000000E+00 -0.00000000000E+00 -0.23386403776E+03  0.23386748610E+03  0.12700000000E+01 0. -1.
         25    2    1    2    0    0  0.21029287964E+02  0.21338341948E+02 -0.21224746066E+03  0.24813619941E+03  0.12500013245E+03 0.  0.
    9000005    1    3    3    0    0 -0.44580988563E+02  0.12239054207E+02 -0.15097804056E+03  0.15790068943E+03  0.10000000000E+01 0.  0.
    9000005    1    3    3    0    0  0.65610276527E+02  0.90992877409E+01 -0.61269420101E+02  0.90235509988E+02  0.10000000000E+01 0.  0.
         -4    1    1    2    0  502 -0.21029287964E+02 -0.21338341948E+02  0.57511789238E+02  0.64859653026E+02  0.12700000000E+01 0.  1.
<mgrwt>
<rscale>  1 0.12854022E+03</rscale>
<asrwt>0</asrwt>
<pdfrwt beam="1">  1       21 0.12173595E-01 0.12854022E+03</pdfrwt>
<pdfrwt beam="2">  1       -4 0.35980132E-01 0.12854022E+03</pdfrwt>
<totfact> 0.17378366E+04</totfact>
</mgrwt>
</event>
<event>
 6    4  0.7919556E-003  0.1272869E+03  0.7818608E-02  0.1231538E+00
          4   -1    0    0  502    0 -0.00000000000E+00  0.00000000000E+00  0.23589355669E+03  0.23589697536E+03  0.12700000000E+01 0.  1.
         21   -1    0    0  501  502  0.00000000000E+00 -0.00000000000E+00 -0.24286079095E+02  0.24286079095E+02  0.00000000000E+00 0.  1.
         25    2    1    2    0    0 -0.21035420870E+02 -0.11612786801E+02  0.18002778972E+03  0.22048122409E+03  0.12499847742E+03 0.  0.
    9000005    1    3    3    0    0 -0.55063778882E+01 -0.66773440634E+02  0.12029939667E+03  0.13770242340E+03  0.10000000000E+01 0.  0.
    9000005    1    3    3    0    0 -0.15529042982E+02  0.55160653833E+02  0.59728393043E+02  0.82778800684E+02  0.10000000000E+01 0.  0.
          4    1    1    2  501    0  0.21035420870E+02  0.11612786801E+02  0.31579687875E+02  0.39701830370E+02  0.12700000000E+01 0. -1.
<mgrwt>
<rscale>  1 0.12728694E+03</rscale>
<asrwt>0</asrwt>
<pdfrwt beam="2">  1       21 0.37363200E-02 0.12728694E+03</pdfrwt>
<pdfrwt beam="1">  1        4 0.36294132E-01 0.12728694E+03</pdfrwt>
<totfact> 0.12849609E+05</totfact>
</mgrwt>
</event>
<event>
 6    4  0.7919556E-003  0.1275768E+03  0.7818608E-02  0.1231096E+00
         -4   -1    0    0    0  501 -0.00000000000E+00  0.00000000000E+00  0.10421161341E+03  0.10421935171E+03  0.12700000000E+01 0.  1.
         21   -1    0    0  501  502  0.00000000000E+00 -0.00000000000E+00 -0.10571299081E+03  0.10571299081E+03  0.00000000000E+00 0.  1.
         25    2    1    2    0    0 -0.25490826811E+02 -0.18112811372E+00  0.61742840966E+02  0.14173220237E+03  0.12500409481E+03 0.  0.
    9000005    1    3    3    0    0 -0.28873106856E+02  0.43746925616E+02  0.78658056909E+02  0.94527983778E+02  0.10000000000E+01 0.  0.
    9000005    1    3    3    0    0  0.33822800456E+01 -0.43928053730E+02 -0.16915215944E+02  0.47204218595E+02  0.10000000000E+01 0.  0.
         -4    1    1    2    0  502  0.25490826811E+02  0.18112811372E+00 -0.63244218366E+02  0.68200140144E+02  0.12700000000E+01 0. -1.
<mgrwt>
<rscale>  1 0.12757680E+03</rscale>
<asrwt>0</asrwt>
<pdfrwt beam="2">  1       21 0.16263537E-01 0.12757680E+03</pdfrwt>
<pdfrwt beam="1">  1       -4 0.16033738E-01 0.12757680E+03</pdfrwt>
<totfact> 0.45644778E+04</totfact>
</mgrwt>
</event>
<event>
 6    4  0.7919556E-003  0.1280106E+03  0.7818608E-02  0.1230438E+00
          4   -1    0    0  502    0 -0.00000000000E+00  0.00000000000E+00  0.78633825353E+03  0.78633927910E+03  0.12700000000E+01 0.  1.
         21   -1    0    0  501  502  0.00000000000E+00 -0.00000000000E+00 -0.17614043124E+02  0.17614043124E+02  0.00000000000E+00 0. -1.
         25    2    1    2    0    0  0.53078644983E+01  0.27078084938E+02  0.76551573651E+03  0.77614499049E+03  0.12500122922E+03 0.  0.
    9000005    1    3    3    0    0  0.53902380581E+02 -0.58304579001E+00  0.17832502043E+03  0.18629712688E+03  0.10000000000E+01 0.  0.
    9000005    1    3    3    0    0 -0.48594516083E+02  0.27661130728E+02  0.58719071608E+03  0.58984786360E+03  0.10000000000E+01 0.  0.
          4    1    1    2  501    0 -0.53078644983E+01 -0.27078084938E+02  0.32084738959E+01  0.27808331740E+02  0.12700000000E+01 0. -1.
<mgrwt>
<rscale>  1 0.12801056E+03</rscale>
<asrwt>0</asrwt>
<pdfrwt beam="2">  1       21 0.27098534E-02 0.12801056E+03</pdfrwt>
<pdfrwt beam="1">  1        4 0.12097869E+00 0.12801056E+03</pdfrwt>
<totfact> 0.16475633E+04</totfact>
</mgrwt>
</event>
<event>
 6    4  0.7919556E-003  0.1587475E+03  0.7818608E-02  0.1190118E+00
         21   -1    0    0  501  502  0.00000000000E+00  0.00000000000E+00  0.32961345880E+03  0.32961345880E+03  0.00000000000E+00 0. -1.
         -4   -1    0    0    0  501 -0.00000000000E+00 -0.00000000000E+00 -0.10360548909E+03  0.10361327265E+03  0.12700000000E+01 0.  1.
         25    2    1    2    0    0  0.86880478872E+02  0.45031987342E+02 -0.27837094105E+02  0.16116970284E+03  0.12499868725E+03 0.  0.
    9000005    1    3    3    0    0  0.37867963193E+02  0.33052907943E+02  0.48372152647E+02  0.69766342255E+02  0.10000000000E+01 0.  0.
    9000005    1    3    3    0    0  0.49012515678E+02  0.11979079399E+02 -0.76209246752E+02  0.91403360589E+02  0.10000000000E+01 0.  0.
         -4    1    1    2    0  502 -0.86880478872E+02 -0.45031987342E+02  0.25384506381E+03  0.27205702861E+03  0.12700000000E+01 0. -1.
<mgrwt>
<rscale>  1 0.15874750E+03</rscale>
<asrwt>0</asrwt>
<pdfrwt beam="1">  1       21 0.50709762E-01 0.15874750E+03</pdfrwt>
<pdfrwt beam="2">  1       -4 0.15940093E-01 0.15874750E+03</pdfrwt>
<totfact> 0.52261253E+03</totfact>
</mgrwt>
</event>
<event>
 6    4  0.7919556E-003  0.1271573E+03  0.7818608E-02  0.1231736E+00
          4   -1    0    0  502    0 -0.00000000000E+00  0.00000000000E+00  0.10928373903E+03  0.10929111819E+03  0.12700000000E+01 0.  1.
         21   -1    0    0  501  502  0.00000000000E+00 -0.00000000000E+00 -0.76268812181E+02  0.76268812181E+02  0.00000000000E+00 0.  1.
         25    2    1    2    0    0 -0.22712026818E+02 -0.53325258282E+01  0.67455854613E+02  0.14394187661E+03  0.12499879810E+03 0.  0.
    9000005    1    3    3    0    0 -0.49236528056E+02  0.29749881215E+02 -0.64893350937E+01  0.57899936074E+02  0.10000000000E+01 0.  0.
    9000005    1    3    3    0    0  0.26524501238E+02 -0.35082407043E+02  0.73945189707E+02  0.86041940533E+02  0.10000000000E+01 0.  0.
          4    1    1    2  501    0  0.22712026818E+02  0.53325258282E+01 -0.34440927767E+02  0.41618053767E+02  0.12700000000E+01 0. -1.
<mgrwt>
<rscale>  1 0.12715727E+03</rscale>
<asrwt>0</asrwt>
<pdfrwt beam="2">  1       21 0.11733663E-01 0.12715727E+03</pdfrwt>
<pdfrwt beam="1">  1        4 0.16814264E-01 0.12715727E+03</pdfrwt>
<totfact> 0.75294061E+04</totfact>
</mgrwt>
</event>
<event>
 6    4  0.7919556E-003  0.1329538E+03  0.7818608E-02  0.1223137E+00
         -4   -1    0    0    0  501 -0.00000000000E+00  0.00000000000E+00  0.58521456611E+02  0.58535235405E+02  0.12700000000E+01 0. -1.
         21   -1    0    0  501  502  0.00000000000E+00 -0.00000000000E+00 -0.30002239490E+03  0.30002239490E+03  0.00000000000E+00 0. -1.
         25    2    1    2    0    0  0.44059688314E+02  0.10525211001E+02 -0.22410265451E+02  0.13482928604E+03  0.12499872070E+03 0.  0.
    9000005    1    3    3    0    0  0.55815233801E+01 -0.51218020686E+02  0.14098572226E+02  0.53424795601E+02  0.10000000000E+01 0.  0.
    9000005    1    3    3    0    0  0.38478164934E+02  0.61743231687E+02 -0.36508837677E+02  0.81404490444E+02  0.10000000000E+01 0.  0.
         -4    1    1    2    0  502 -0.44059688314E+02 -0.10525211001E+02 -0.21909067283E+03  0.22372834426E+03  0.12700000000E+01 0.  1.
<mgrwt>
<rscale>  1 0.13295381E+03</rscale>
<asrwt>0</asrwt>
<pdfrwt beam="2">  1       21 0.46157292E-01 0.13295381E+03</pdfrwt>
<pdfrwt beam="1">  1       -4 0.90045677E-02 0.13295381E+03</pdfrwt>
<totfact> 0.16678789E+04</totfact>
</mgrwt>
</event>
<event>
 6    4  0.7919556E-003  0.1284688E+03  0.7818608E-02  0.1229746E+00
          4   -1    0    0  502    0 -0.00000000000E+00  0.00000000000E+00  0.61778589836E+03  0.61778720375E+03  0.12700000000E+01 0. -1.
         21   -1    0    0  501  502  0.00000000000E+00 -0.00000000000E+00 -0.84882790868E+02  0.84882790868E+02  0.00000000000E+00 0.  1.
         25    2    1    2    0    0  0.59535283013E+01 -0.29051755304E+02  0.60825954736E+03  0.62167829803E+03  0.12499912120E+03 0.  0.
    9000005    1    3    3    0    0  0.41257688584E+02  0.22337249786E+00  0.52498171163E+03  0.52660140933E+03  0.10000000000E+01 0.  0.
    9000005    1    3    3    0    0 -0.35304160283E+02 -0.29275127802E+02  0.83277835733E+02  0.95076888703E+02  0.10000000000E+01 0.  0.
          4    1    1    2  501    0 -0.59535283013E+01  0.29051755304E+02 -0.75356439869E+02  0.80991696582E+02  0.12700000000E+01 0.  1.
<mgrwt>
<rscale>  1 0.12846879E+03</rscale>
<asrwt>0</asrwt>
<pdfrwt beam="2">  1       21 0.13058891E-01 0.12846879E+03</pdfrwt>
<pdfrwt beam="1">  1        4 0.95044813E-01 0.12846879E+03</pdfrwt>
<totfact> 0.20046197E+03</totfact>
</mgrwt>
</event>
<event>
 6    4  0.7919556E-003  0.1271307E+03  0.7818608E-02  0.1231776E+00
         21   -1    0    0  501  502  0.00000000000E+00  0.00000000000E+00  0.20909641131E+02  0.20909641131E+02  0.00000000000E+00 0. -1.
         -4   -1    0    0    0  501 -0.00000000000E+00 -0.00000000000E+00 -0.52712084461E+03  0.52712237452E+03  0.12700000000E+01 0. -1.
         25    2    1    2    0    0 -0.14969122870E+02 -0.17700509389E+02 -0.50901154303E+03  0.52464745934E+03  0.12499929195E+03 0.  0.
    9000005    1    3    3    0    0  0.99944955036E+01 -0.35714396234E+02 -0.39739724380E+02  0.54365924370E+02  0.10000000000E+01 0.  0.
    9000005    1    3    3    0    0 -0.24963618373E+02  0.18013886845E+02 -0.46927181865E+03  0.47028153497E+03  0.10000000000E+01 0.  0.
         -4    1    1    2    0  502  0.14969122870E+02  0.17700509389E+02  0.28003395490E+01  0.23384556308E+02  0.12700000000E+01 0.  1.
<mgrwt>
<rscale>  1 0.12713066E+03</rscale>
<asrwt>0</asrwt>
<pdfrwt beam="1">  1       21 0.32168679E-02 0.12713066E+03</pdfrwt>
<pdfrwt beam="2">  1       -4 0.81098597E-01 0.12713066E+03</pdfrwt>
<totfact> 0.31232485E+04</totfact>
</mgrwt>
</event>
<event>
 6    4  0.7919556E-003  0.1337679E+03  0.7818608E-02  0.1221970E+00
         21   -1    0    0  501  502  0.00000000000E+00  0.00000000000E+00  0.42307613018E+03  0.42307613018E+03  0.00000000000E+00 0.  1.
          4   -1    0    0  502    0 -0.00000000000E+00 -0.00000000000E+00 -0.34504161251E+02  0.34527525884E+02  0.12700000000E+01 0. -1.
         25    2    1    2    0    0  0.45782813606E+02  0.12950706838E+02  0.10497399686E+03  0.17003938588E+03  0.12502026197E+03 0.  0.
    9000005    1    3    3    0    0 -0.10507203824E+02 -0.42125238879E+02  0.73200289203E+02  0.85112980339E+02  0.10000000000E+01 0.  0.
    9000005    1    3    3    0    0  0.56290017429E+02  0.55075945717E+02  0.31773707660E+02  0.84926405536E+02  0.10000000000E+01 0.  0.
          4    1    1    2  501    0 -0.45782813606E+02 -0.12950706838E+02  0.28359797207E+03  0.28756427019E+03  0.12700000000E+01 0.  1.
<mgrwt>
<rscale>  1 0.13376791E+03</rscale>
<asrwt>0</asrwt>
<pdfrwt beam="1">  1       21 0.65088632E-01 0.13376791E+03</pdfrwt>
<pdfrwt beam="2">  1        4 0.53102767E-02 0.13376791E+03</pdfrwt>
<totfact> 0.19308668E+04</totfact>
</mgrwt>
</event>
<event>
 6    4  0.7919556E-003  0.1300939E+03  0.7818608E-02  0.1227317E+00
         -4   -1    0    0    0  501 -0.00000000000E+00  0.00000000000E+00  0.92962201059E+02  0.92970875685E+02  0.12700000000E+01 0.  1.
         21   -1    0    0  501  502  0.00000000000E+00 -0.00000000000E+00 -0.20994546803E+03  0.20994546803E+03  0.00000000000E+00 0.  1.
         25    2    1    2    0    0 -0.32665677608E+02  0.15238358502E+02  0.44469223210E+02  0.13748426234E+03  0.12500062605E+03 0.  0.
    9000005    1    3    3    0    0 -0.19939451203E+02 -0.43529957523E+02 -0.17635566508E+02  0.51033833113E+02  0.10000000000E+01 0.  0.
    9000005    1    3    3    0    0 -0.12726226405E+02  0.58768316025E+02  0.62104789719E+02  0.86450429223E+02  0.10000000000E+01 0.  0.
         -4    1    1    2    0  502  0.32665677608E+02 -0.15238358502E+02 -0.16145249018E+03  0.16543208138E+03  0.12700000000E+01 0. -1.
<mgrwt>
<rscale>  1 0.13009385E+03</rscale>
<asrwt>0</asrwt>
<pdfrwt beam="2">  1       21 0.32299302E-01 0.13009385E+03</pdfrwt>
<pdfrwt beam="1">  1       -4 0.14302840E-01 0.13009385E+03</pdfrwt>
<totfact> 0.15419017E+04</totfact>
</mgrwt>
</event>
<event>
 6    4  0.7919556E-003  0.1343043E+03  0.7818608E-02  0.1221205E+00
         -4   -1    0    0    0  501 -0.00000000000E+00  0.00000000000E+00  0.61193479056E+03  0.61193610843E+03  0.12700000000E+01 0.  1.
         21   -1    0    0  501  502  0.00000000000E+00 -0.00000000000E+00 -0.15511510191E+02  0.15511510191E+02  0.00000000000E+00 0. -1.
         25    2    1    2    0    0  0.37156099510E+02  0.32123947984E+02  0.51609699422E+03  0.53328579562E+03  0.12500043439E+03 0.  0.
    9000005    1    3    3    0    0 -0.27095017323E+02  0.45683053134E+02  0.36055493687E+03  0.36444745000E+03  0.10000000000E+01 0.  0.
    9000005    1    3    3    0    0  0.64251116832E+02 -0.13559105151E+02  0.15554205735E+03  0.16883834562E+03  0.10000000000E+01 0.  0.
         -4    1    1    2    0  502 -0.37156099510E+02 -0.32123947984E+02  0.80326286146E+02  0.94161823001E+02  0.12700000000E+01 0. -1.
<mgrwt>
<rscale>  1 0.13430425E+03</rscale>
<asrwt>0</asrwt>
<pdfrwt beam="2">  1       21 0.23863867E-02 0.13430425E+03</pdfrwt>
<pdfrwt beam="1">  1       -4 0.94147895E-01 0.13430425E+03</pdfrwt>
<totfact> 0.36654023E+04</totfact>
</mgrwt>
</event>
<event>
 6    4  0.7919556E-003  0.1315272E+03  0.7818608E-02  0.1225207E+00
         -4   -1    0    0    0  501 -0.00000000000E+00  0.00000000000E+00  0.17643296517E+03  0.17643753596E+03  0.12700000000E+01 0. -1.
         21   -1    0    0  501  502  0.00000000000E+00 -0.00000000000E+00 -0.47155351504E+02  0.47155351504E+02  0.00000000000E+00 0. -1.
         25    2    1    2    0    0 -0.22324193817E+02 -0.34263088712E+02  0.12665527877E+03  0.18259510194E+03  0.12500833067E+03 0.  0.
    9000005    1    3    3    0    0 -0.65167262446E+02 -0.44318500094E+02  0.11045159304E+03  0.13568882029E+03  0.10000000000E+01 0.  0.
    9000005    1    3    3    0    0  0.42843068629E+02  0.10055411382E+02  0.16203685726E+02  0.46906281655E+02  0.10000000000E+01 0.  0.
         -4    1    1    2    0  502  0.22324193817E+02  0.34263088712E+02  0.26223348931E+01  0.40997785525E+02  0.12700000000E+01 0.  1.
<mgrwt>
<rscale>  1 0.13152723E+03</rscale>
<asrwt>0</asrwt>
<pdfrwt beam="2">  1       21 0.72546695E-02 0.13152723E+03</pdfrwt>
<pdfrwt beam="1">  1       -4 0.27145200E-01 0.13152723E+03</pdfrwt>
<totfact> 0.73350870E+04</totfact>
</mgrwt>
</event>
<event>
 6    4  0.7919556E-003  0.1273757E+03  0.7818608E-02  0.1231403E+00
         -4   -1    0    0    0  501 -0.00000000000E+00  0.00000000000E+00  0.17917719699E+03  0.17918169778E+03  0.12700000000E+01 0. -1.
         21   -1    0    0  501  502  0.00000000000E+00 -0.00000000000E+00 -0.45715819268E+02  0.45715819268E+02  0.00000000000E+00 0. -1.
         25    2    1    2    0    0  0.65683666120E+00 -0.24495479512E+02  0.14886830122E+03  0.19592432008E+03  0.12499643252E+03 0.  0.
    9000005    1    3    3    0    0 -0.10957091592E+02 -0.14252528188E+02 -0.19673843041E+02  0.26669317875E+02  0.10000000000E+01 0.  0.
    9000005    1    3    3    0    0  0.11613928254E+02 -0.10242951324E+02  0.16854214426E+03  0.16925500221E+03  0.10000000000E+01 0.  0.
         -4    1    1    2    0  502 -0.65683666120E+00  0.24495479512E+02 -0.15406923497E+02  0.28973196968E+02  0.12700000000E+01 0.  1.
<mgrwt>
<rscale>  1 0.12737570E+03</rscale>
<asrwt>0</asrwt>
<pdfrwt beam="2">  1       21 0.70332031E-02 0.12737570E+03</pdfrwt>
<pdfrwt beam="1">  1       -4 0.27567425E-01 0.12737570E+03</pdfrwt>
<totfact> 0.74821229E+04</totfact>
</mgrwt>
</event>
<event>
 6    4  0.7919556E-003  0.1523173E+03  0.7818608E-02  0.1197654E+00
          4   -1    0    0  502    0 -0.00000000000E+00  0.00000000000E+00  0.44248278708E+03  0.44248460963E+03  0.12700000000E+01 0. -1.
         21   -1    0    0  501  502  0.00000000000E+00 -0.00000000000E+00 -0.38181464077E+02  0.38181464077E+02  0.00000000000E+00 0.  1.
         25    2    1    2    0    0  0.54771751960E+02 -0.67647377691E+02  0.33963062708E+03  0.37222242783E+03  0.12499784160E+03 0.  0.
    9000005    1    3    3    0    0  0.49122962904E+02 -0.86405188837E+02  0.33825718297E+03  0.35255899360E+03  0.10000000000E+01 0.  0.
    9000005    1    3    3    0    0  0.56487890563E+01  0.18757811146E+02  0.13734441160E+01  0.19663434225E+02  0.10000000000E+01 0.  0.
          4    1    1    2  501    0 -0.54771751960E+02  0.67647377691E+02  0.64670695920E+02  0.10844364588E+03  0.12700000000E+01 0.  1.
<mgrwt>
<rscale>  1 0.15231734E+03</rscale>
<asrwt>0</asrwt>
<pdfrwt beam="2">  1       21 0.58740717E-02 0.15231734E+03</pdfrwt>
<pdfrwt beam="1">  1        4 0.68076036E-01 0.15231734E+03</pdfrwt>
<totfact> 0.17060795E+04</totfact>
</mgrwt>
</event>
<event>
 6    4  0.7919556E-003  0.1266873E+03  0.7818608E-02  0.1232456E+00
         21   -1    0    0  501  502  0.00000000000E+00  0.00000000000E+00  0.52535910715E+03  0.52535910715E+03  0.00000000000E+00 0. -1.
         -4   -1    0    0    0  501 -0.00000000000E+00 -0.00000000000E+00 -0.10554172522E+02  0.10630308444E+02  0.12700000000E+01 0. -1.
         25    2    1    2    0    0 -0.19202779518E+02  0.75164241008E+01  0.40843758681E+03  0.42763412521E+03  0.12499775739E+03 0.  0.
    9000005    1    3    3    0    0  0.21934080641E+02 -0.28791775883E+02  0.32956823804E+03  0.33155134410E+03  0.10000000000E+01 0.  0.
    9000005    1    3    3    0    0 -0.41136860159E+02  0.36308199984E+02  0.78869348774E+02  0.96082781110E+02  0.10000000000E+01 0.  0.
         -4    1    1    2    0  502  0.19202779518E+02 -0.75164241008E+01  0.10636734782E+03  0.10835529038E+03  0.12700000000E+01 0.  1.
<mgrwt>
<rscale>  1 0.12668734E+03</rscale>
<asrwt>0</asrwt>
<pdfrwt beam="1">  1       21 0.80824458E-01 0.12668734E+03</pdfrwt>
<pdfrwt beam="2">  1       -4 0.16296939E-02 0.12668734E+03</pdfrwt>
<totfact> 0.75900674E+04</totfact>
</mgrwt>
</event>
<event>
 6    4  0.7919556E-003  0.1280800E+03  0.7818608E-02  0.1230333E+00
         -4   -1    0    0    0  501 -0.00000000000E+00  0.00000000000E+00  0.54045032952E+02  0.54059952708E+02  0.12700000000E+01 0.  1.
         21   -1    0    0  501  502  0.00000000000E+00 -0.00000000000E+00 -0.12872178535E+03  0.12872178535E+03  0.00000000000E+00 0.  1.
         25    2    1    2    0    0  0.24918296861E+02  0.12605585329E+02 -0.32426616302E+02  0.13212101165E+03  0.12499861589E+03 0.  0.
    9000005    1    3    3    0    0  0.23185280333E+02 -0.30828740547E+02 -0.66497180093E+02  0.76882009782E+02  0.10000000000E+01 0.  0.
    9000005    1    3    3    0    0  0.17330165276E+01  0.43434325875E+02  0.34070563791E+02  0.55239001870E+02  0.10000000000E+01 0.  0.
         -4    1    1    2    0  502 -0.24918296861E+02 -0.12605585329E+02 -0.42250136094E+02  0.50660726405E+02  0.12700000000E+01 0. -1.
<mgrwt>
<rscale>  1 0.12807996E+03</rscale>
<asrwt>0</asrwt>
<pdfrwt beam="2">  1       21 0.19803352E-01 0.12807996E+03</pdfrwt>
<pdfrwt beam="1">  1       -4 0.83162500E-02 0.12807996E+03</pdfrwt>
<totfact> 0.97500669E+04</totfact>
</mgrwt>
</event>
<event>
 6    4  0.7919556E-003  0.1298781E+03  0.7818608E-02  0.1227637E+00
         -4   -1    0    0    0  501 -0.00000000000E+00  0.00000000000E+00  0.64599735943E+02  0.64612218534E+02  0.12700000000E+01 0.  1.
         21   -1    0    0  501  502  0.00000000000E+00 -0.00000000000E+00 -0.12692804453E+03  0.12692804453E+03  0.00000000000E+00 0.  1.
         25    2    1    2    0    0  0.31100609971E+02  0.16617835203E+02 -0.12492107996E+02  0.13047750701E+03  0.12499970675E+03 0.  0.
    9000005    1    3    3    0    0 -0.38728526979E+01  0.67159050644E+02 -0.15101779242E+02  0.68952163183E+02  0.10000000000E+01 0.  0.
    9000005    1    3    3    0    0  0.34973462669E+02 -0.50541215441E+02  0.26096712452E+01  0.61525343829E+02  0.10000000000E+01 0.  0.
         -4    1    1    2    0  502 -0.31100609971E+02 -0.16617835203E+02 -0.49836200595E+02  0.61062756056E+02  0.12700000000E+01 0. -1.
<mgrwt>
<rscale>  1 0.12987812E+03</rscale>
<asrwt>0</asrwt>
<pdfrwt beam="2">  1       21 0.19527392E-01 0.12987812E+03</pdfrwt>
<pdfrwt beam="1">  1       -4 0.99398698E-02 0.12987812E+03</pdfrwt>
<totfact> 0.74415725E+04</totfact>
</mgrwt>
</event>
<event>
 6    4  0.7919556E-003  0.1269098E+03  0.7818608E-02  0.1232114E+00
         -4   -1    0    0    0  501 -0.00000000000E+00  0.00000000000E+00  0.44194271126E+02  0.44212515200E+02  0.12700000000E+01 0.  1.
         21   -1    0    0  501  502  0.00000000000E+00 -0.00000000000E+00 -0.12581385036E+03  0.12581385036E+03  0.00000000000E+00 0.  1.
         25    2    1    2    0    0 -0.43454364488E+01 -0.21495107980E+02 -0.65779365669E+02  0.14294412505E+03  0.12500070182E+03 0.  0.
    9000005    1    3    3    0    0  0.47046675866E+01  0.45322489836E+02 -0.59879102815E+02  0.75251371655E+02  0.10000000000E+01 0.  0.
    9000005    1    3    3    0    0 -0.90501040354E+01 -0.66817597816E+02 -0.59002628540E+01  0.67692753398E+02  0.10000000000E+01 0.  0.
         -4    1    1    2    0  502  0.43454364488E+01  0.21495107980E+02 -0.15840213561E+02  0.27082240503E+02  0.12700000000E+01 0. -1.
<mgrwt>
<rscale>  1 0.12690980E+03</rscale>
<asrwt>0</asrwt>
<pdfrwt beam="2">  1       21 0.19355977E-01 0.12690980E+03</pdfrwt>
<pdfrwt beam="1">  1       -4 0.68010151E-02 0.12690980E+03</pdfrwt>
<totfact> 0.14146964E+05</totfact>
</mgrwt>
</event>
<event>
 6    4  0.7919556E-003  0.1267625E+03  0.7818608E-02  0.1232340E+00
          4   -1    0    0  502    0 -0.00000000000E+00  0.00000000000E+00  0.22749682417E+02  0.22785103688E+02  0.12700000000E+01 0. -1.
         21   -1    0    0  501  502  0.00000000000E+00 -0.00000000000E+00 -0.25106745645E+03  0.25106745645E+03  0.00000000000E+00 0. -1.
         25    2    1    2    0    0 -0.19090877905E+02 -0.89426177488E+01 -0.17169713921E+03  0.21342126677E+03  0.12499718982E+03 0.  0.
    9000005    1    3    3    0    0 -0.66866110421E+02 -0.27457325391E+02 -0.12332111239E+03  0.14294781636E+03  0.10000000000E+01 0.  0.
    9000005    1    3    3    0    0  0.47775232516E+02  0.18514707642E+02 -0.48376026820E+02  0.70473450405E+02  0.10000000000E+01 0.  0.
          4    1    1    2  501    0  0.19090877905E+02  0.89426177488E+01 -0.56620634825E+02  0.60431293378E+02  0.12700000000E+01 0.  1.
<mgrwt>
<rscale>  1 0.12676249E+03</rscale>
<asrwt>0</asrwt>
<pdfrwt beam="2">  1       21 0.38625764E-01 0.12676249E+03</pdfrwt>
<pdfrwt beam="1">  1        4 0.35029228E-02 0.12676249E+03</pdfrwt>
<totfact> 0.10955227E+05</totfact>
</mgrwt>
</event>
<event>
 6    4  0.7919556E-003  0.1270116E+03  0.7818608E-02  0.1231959E+00
         -4   -1    0    0    0  501 -0.00000000000E+00  0.00000000000E+00  0.13232858448E+02  0.13293661750E+02  0.12700000000E+01 0.  1.
         21   -1    0    0  501  502  0.00000000000E+00 -0.00000000000E+00 -0.59459306030E+03  0.59459306030E+03  0.00000000000E+00 0. -1.
         25    2    1    2    0    0 -0.55368339343E+01 -0.21798698311E+02 -0.30202543071E+03  0.32764509944E+03  0.12500444236E+03 0.  0.
    9000005    1    3    3    0    0 -0.45189273330E+02 -0.57786527910E+02 -0.18061178197E+03  0.19494350212E+03  0.10000000000E+01 0.  0.
    9000005    1    3    3    0    0  0.39652439396E+02  0.35987829599E+02 -0.12141364874E+03  0.13270159731E+03  0.10000000000E+01 0.  0.
         -4    1    1    2    0  502  0.55368339343E+01  0.21798698311E+02 -0.27933477114E+03  0.28024162262E+03  0.12700000000E+01 0. -1.
<mgrwt>
<rscale>  1 0.12701162E+03</rscale>
<asrwt>0</asrwt>
<pdfrwt beam="2">  1       21 0.91475836E-01 0.12701162E+03</pdfrwt>
<pdfrwt beam="1">  1       -4 0.20406063E-02 0.12701162E+03</pdfrwt>
<totfact> 0.40634421E+04</totfact>
</mgrwt>
</event>
<event>
 6    4  0.7919556E-003  0.1278545E+03  0.7818608E-02  0.1230674E+00
          4   -1    0    0  502    0 -0.00000000000E+00  0.00000000000E+00  0.42579111187E+04  0.42579113081E+04  0.12700000000E+01 0. -1.
         21   -1    0    0  501  502  0.00000000000E+00 -0.00000000000E+00 -0.15480440424E+01  0.15480440424E+01  0.00000000000E+00 0. -1.
         25    2    1    2    0    0 -0.23928924752E+02 -0.12197431908E+02  0.38947458952E+04  0.38968438972E+04  0.12500160070E+03 0.  0.
    9000005    1    3    3    0    0  0.39336809046E+02  0.10582358550E+02  0.26266782758E+04  0.26269943158E+04  0.10000000000E+01 0.  0.
    9000005    1    3    3    0    0 -0.63265733798E+02 -0.22779790458E+02  0.12680676194E+04  0.12698495814E+04  0.10000000000E+01 0.  0.
          4    1    1    2  501    0  0.23928924752E+02  0.12197431908E+02  0.36161717945E+03  0.36261545493E+03  0.12700000000E+01 0.  1.
<mgrwt>
<rscale>  1 0.12785449E+03</rscale>
<asrwt>0</asrwt>
<pdfrwt beam="2">  1       21 0.23816403E-03 0.12785449E+03</pdfrwt>
<pdfrwt beam="1">  1        4 0.65509396E+00 0.12785449E+03</pdfrwt>
<totfact> 0.11822420E+02</totfact>
</mgrwt>
</event>
<event>
 6    4  0.7919556E-003  0.1298086E+03  0.7818608E-02  0.1227740E+00
          4   -1    0    0  502    0 -0.00000000000E+00  0.00000000000E+00  0.51334583691E+02  0.51350290970E+02  0.12700000000E+01 0. -1.
         21   -1    0    0  501  502  0.00000000000E+00 -0.00000000000E+00 -0.13249738129E+03  0.13249738129E+03  0.00000000000E+00 0. -1.
         25    2    1    2    0    0  0.26677001633E+02  0.22669023113E+02 -0.60975755333E+02  0.14341653821E+03  0.12499885467E+03 0.  0.
    9000005    1    3    3    0    0  0.49835896077E+02  0.21558323208E+02  0.20994113424E+02  0.58224828345E+02  0.10000000000E+01 0.  0.
    9000005    1    3    3    0    0 -0.23158894445E+02  0.11106999052E+01 -0.81969868757E+02  0.85191709868E+02  0.10000000000E+01 0.  0.
          4    1    1    2  501    0 -0.26677001633E+02 -0.22669023113E+02 -0.20187042267E+02  0.40431134049E+02  0.12700000000E+01 0.  1.
<mgrwt>
<rscale>  1 0.12980855E+03</rscale>
<asrwt>0</asrwt>
<pdfrwt beam="2">  1       21 0.20384212E-01 0.12980855E+03</pdfrwt>
<pdfrwt beam="1">  1        4 0.78993048E-02 0.12980855E+03</pdfrwt>
<totfact> 0.10082768E+05</totfact>
</mgrwt>
</event>
<event>
 6    4  0.7919556E-003  0.1266762E+03  0.7818608E-02  0.1232473E+00
         -4   -1    0    0    0  501 -0.00000000000E+00  0.00000000000E+00  0.12924773527E+03  0.12925397469E+03  0.12700000000E+01 0. -1.
         21   -1    0    0  501  502  0.00000000000E+00 -0.00000000000E+00 -0.43358187507E+02  0.43358187507E+02  0.00000000000E+00 0. -1.
         25    2    1    2    0    0 -0.18719697979E+01  0.20439982308E+02  0.83922703750E+02  0.15195354358E+03  0.12500224819E+03 0.  0.
    9000005    1    3    3    0    0 -0.60732869187E+02  0.11791142866E+02  0.20971943618E+02  0.65332494740E+02  0.10000000000E+01 0.  0.
    9000005    1    3    3    0    0  0.58860899390E+02  0.86488394426E+01  0.62950760132E+02  0.86621048838E+02  0.10000000000E+01 0.  0.
         -4    1    1    2    0  502  0.18719697979E+01 -0.20439982308E+02  0.19668440122E+01  0.20658618615E+02  0.12700000000E+01 0.  1.
<mgrwt>
<rscale>  1 0.12667620E+03</rscale>
<asrwt>0</asrwt>
<pdfrwt beam="2">  1       21 0.66704905E-02 0.12667620E+03</pdfrwt>
<pdfrwt beam="1">  1       -4 0.19886177E-01 0.12667620E+03</pdfrwt>
<totfact> 0.14875693E+05</totfact>
</mgrwt>
</event>
<event>
 6    4  0.7919556E-003  0.1271510E+03  0.7818608E-02  0.1231745E+00
         21   -1    0    0  501  502  0.00000000000E+00  0.00000000000E+00  0.21138764241E+03  0.21138764241E+03  0.00000000000E+00 0.  1.
         -4   -1    0    0    0  501 -0.00000000000E+00 -0.00000000000E+00 -0.43928135846E+02  0.43946490405E+02  0.12700000000E+01 0.  1.
         25    2    1    2    0    0 -0.20850097179E+02 -0.10410590091E+02  0.51724215753E+02  0.13726899242E+03  0.12499709935E+03 0.  0.
    9000005    1    3    3    0    0  0.29007125940E+02  0.42356297041E+02  0.36738572367E+02  0.63136296644E+02  0.10000000000E+01 0.  0.
    9000005    1    3    3    0    0 -0.49857223119E+02 -0.52766887132E+02  0.14985643386E+02  0.74132695772E+02  0.10000000000E+01 0.  0.
         -4    1    1    2    0  502  0.20850097179E+02  0.10410590091E+02  0.11573529081E+03  0.11806514040E+03  0.12700000000E+01 0. -1.
<mgrwt>
<rscale>  1 0.12715102E+03</rscale>
<asrwt>0</asrwt>
<pdfrwt beam="1">  1       21 0.32521175E-01 0.12715102E+03</pdfrwt>
<pdfrwt beam="2">  1       -4 0.67598802E-02 0.12715102E+03</pdfrwt>
<totfact> 0.53558467E+04</totfact>
</mgrwt>
</event>
<event>
 6    4  0.7919556E-003  0.1287980E+03  0.7818608E-02  0.1229250E+00
         -4   -1    0    0    0  501 -0.00000000000E+00  0.00000000000E+00  0.84035891552E+02  0.84045487499E+02  0.12700000000E+01 0. -1.
         21   -1    0    0  501  502  0.00000000000E+00 -0.00000000000E+00 -0.76270992863E+02  0.76270992863E+02  0.00000000000E+00 0. -1.
         25    2    1    2    0    0  0.29921072740E+02 -0.81955865959E+01  0.10008690877E+02  0.12918633843E+03  0.12500599149E+03 0.  0.
    9000005    1    3    3    0    0  0.73952118552E+02 -0.28249055841E+02  0.14853366035E+02  0.80551520636E+02  0.10000000000E+01 0.  0.
    9000005    1    3    3    0    0 -0.44031045812E+02  0.20053469245E+02 -0.48446751575E+01  0.48634817790E+02  0.10000000000E+01 0.  0.
         -4    1    1    2    0  502 -0.29921072740E+02  0.81955865959E+01 -0.22437921880E+01  0.31130141935E+02  0.12700000000E+01 0.  1.
<mgrwt>
<rscale>  1 0.12879804E+03</rscale>
<asrwt>0</asrwt>
<pdfrwt beam="2">  1       21 0.11733999E-01 0.12879804E+03</pdfrwt>
<pdfrwt beam="1">  1       -4 0.12930150E-01 0.12879804E+03</pdfrwt>
<totfact> 0.11916725E+05</totfact>
</mgrwt>
</event>
<event>
 6    4  0.7919556E-003  0.1812488E+03  0.7818608E-02  0.1166600E+00
          4   -1    0    0  502    0 -0.00000000000E+00  0.00000000000E+00  0.19878251513E+03  0.19878657204E+03  0.12700000000E+01 0.  1.
         21   -1    0    0  501  502  0.00000000000E+00 -0.00000000000E+00 -0.21576613325E+03  0.21576613325E+03  0.00000000000E+00 0. -1.
         25    2    1    2    0    0 -0.86164286763E+01  0.13096547546E+03  0.12578376082E+03  0.22061886091E+03  0.12499971480E+03 0.  0.
    9000005    1    3    3    0    0  0.36468892517E+01  0.14455295819E+03  0.67614032155E+02  0.15962930454E+03  0.10000000000E+01 0.  0.
    9000005    1    3    3    0    0 -0.12263317928E+02 -0.13587482734E+02  0.58169728667E+02  0.60989556375E+02  0.10000000000E+01 0.  0.
          4    1    1    2  501    0  0.86164286763E+01 -0.13096547546E+03 -0.14276737894E+03  0.19393384438E+03  0.12700000000E+01 0. -1.
<mgrwt>
<rscale>  1 0.18124880E+03</rscale>
<asrwt>0</asrwt>
<pdfrwt beam="2">  1       21 0.33194790E-01 0.18124880E+03</pdfrwt>
<pdfrwt beam="1">  1        4 0.30582525E-01 0.18124880E+03</pdfrwt>
<totfact> 0.37573058E+03</totfact>
</mgrwt>
</event>
<event>
 6    4  0.7919556E-003  0.1280623E+03  0.7818608E-02  0.1230360E+00
         21   -1    0    0  501  502  0.00000000000E+00  0.00000000000E+00  0.13538765409E+02  0.13538765409E+02  0.00000000000E+00 0.  1.
          4   -1    0    0  502    0 -0.00000000000E+00 -0.00000000000E+00 -0.54553584648E+03  0.54553732475E+03  0.12700000000E+01 0.  1.
         25    2    1    2    0    0 -0.11089356083E+02  0.25520395734E+02 -0.50226743137E+03  0.51833631367E+03  0.12500278814E+03 0.  0.
    9000005    1    3    3    0    0  0.56227453046E+02  0.17009008125E+02 -0.19468500710E+03  0.20335703780E+03  0.10000000000E+01 0.  0.
    9000005    1    3    3    0    0 -0.67316809129E+02  0.85113876085E+01 -0.30758242427E+03  0.31497927588E+03  0.10000000000E+01 0.  0.
          4    1    1    2  501    0  0.11089356083E+02 -0.25520395734E+02 -0.29729649708E+02  0.40739776491E+02  0.12700000000E+01 0. -1.
<mgrwt>
<rscale>  1 0.12806233E+03</rscale>
<asrwt>0</asrwt>
<pdfrwt beam="1">  1       21 0.20828874E-02 0.12806233E+03</pdfrwt>
<pdfrwt beam="2">  1        4 0.83933272E-01 0.12806233E+03</pdfrwt>
<totfact> 0.58821220E+04</totfact>
</mgrwt>
</event>
<event>
 6    4  0.7919556E-003  0.1271756E+03  0.7818608E-02  0.1231708E+00
         21   -1    0    0  501  502  0.00000000000E+00  0.00000000000E+00  0.17104267907E+03  0.17104267907E+03  0.00000000000E+00 0.  1.
         -4   -1    0    0    0  501 -0.00000000000E+00 -0.00000000000E+00 -0.34216316599E+02  0.34239877652E+02  0.12700000000E+01 0.  1.
         25    2    1    2    0    0  0.16644749396E+02 -0.16412131817E+02  0.12750104115E+03  0.18008374185E+03  0.12500893100E+03 0.  0.
    9000005    1    3    3    0    0  0.28369847214E+02  0.43118629335E+01  0.14669807142E+03  0.14948165289E+03  0.10000000000E+01 0.  0.
    9000005    1    3    3    0    0 -0.11725097818E+02 -0.20723994750E+02 -0.19197030272E+02  0.30602088957E+02  0.10000000000E+01 0.  0.
         -4    1    1    2    0  502 -0.16644749396E+02  0.16412131817E+02  0.93253213233E+01  0.25198814873E+02  0.12700000000E+01 0. -1.
<mgrwt>
<rscale>  1 0.12717562E+03</rscale>
<asrwt>0</asrwt>
<pdfrwt beam="1">  1       21 0.26314258E-01 0.12717562E+03</pdfrwt>
<pdfrwt beam="2">  1       -4 0.52662239E-02 0.12717562E+03</pdfrwt>
<totfact> 0.12067815E+05</totfact>
</mgrwt>
</event>
<event>
 6    4  0.7919556E-003  0.1324312E+03  0.7818608E-02  0.1223892E+00
         21   -1    0    0  501  502  0.00000000000E+00  0.00000000000E+00  0.18517538349E+03  0.18517538349E+03  0.00000000000E+00 0.  1.
         -4   -1    0    0    0  501 -0.00000000000E+00 -0.00000000000E+00 -0.69847130265E+02  0.69858675240E+02  0.12700000000E+01 0.  1.
         25    2    1    2    0    0 -0.95895736612E+00 -0.43747097072E+02  0.80968249996E+00  0.13243371598E+03  0.12499322158E+03 0.  0.
    9000005    1    3    3    0    0  0.39462265515E+02  0.73902933934E+01  0.39743140887E+02  0.56501363555E+02  0.10000000000E+01 0.  0.
    9000005    1    3    3    0    0 -0.40421222881E+02 -0.51137390465E+02 -0.38933458387E+02  0.75932352425E+02  0.10000000000E+01 0.  0.
         -4    1    1    2    0  502  0.95895736612E+00  0.43747097072E+02  0.11451857073E+03  0.12260034275E+03  0.12700000000E+01 0. -1.
<mgrwt>
<rscale>  1 0.13243124E+03</rscale>
<asrwt>0</asrwt>
<pdfrwt beam="1">  1       21 0.28488520E-01 0.13243124E+03</pdfrwt>
<pdfrwt beam="2">  1       -4 0.10746935E-01 0.13243124E+03</pdfrwt>
<totfact> 0.32138656E+04</totfact>
</mgrwt>
</event>
<event>
 6    4  0.7919556E-003  0.1268456E+03  0.7818608E-02  0.1232213E+00
         -4   -1    0    0    0  501 -0.00000000000E+00  0.00000000000E+00  0.27662191698E+02  0.27691329863E+02  0.12700000000E+01 0. -1.
         21   -1    0    0  501  502  0.00000000000E+00 -0.00000000000E+00 -0.31258842262E+03  0.31258842262E+03  0.00000000000E+00 0.  1.
         25    2    1    2    0    0  0.16029204787E+02 -0.14418905500E+02 -0.12221985725E+03  0.17614621790E+03  0.12499982533E+03 0.  0.
    9000005    1    3    3    0    0  0.24165077332E+02 -0.67200617012E+02 -0.85108502174E+02  0.11110504503E+03  0.10000000000E+01 0.  0.
    9000005    1    3    3    0    0 -0.81358725452E+01  0.52781711511E+02 -0.37111355076E+02  0.65041172866E+02  0.10000000000E+01 0.  0.
         -4    1    1    2    0  502 -0.16029204787E+02  0.14418905500E+02 -0.16270637367E+03  0.16413353459E+03  0.12700000000E+01 0.  1.
<mgrwt>
<rscale>  1 0.12684556E+03</rscale>
<asrwt>0</asrwt>
<pdfrwt beam="2">  1       21 0.48090528E-01 0.12684556E+03</pdfrwt>
<pdfrwt beam="1">  1       -4 0.42581615E-02 0.12684556E+03</pdfrwt>
<totfact> 0.51669655E+04</totfact>
</mgrwt>
</event>
<event>
 6    4  0.7919556E-003  0.1289964E+03  0.7818608E-02  0.1228952E+00
         21   -1    0    0  501  502  0.00000000000E+00  0.00000000000E+00  0.26159786730E+03  0.26159786730E+03  0.00000000000E+00 0.  1.
          4   -1    0    0  502    0 -0.00000000000E+00 -0.00000000000E+00 -0.99916286592E+02  0.99924357522E+02  0.12700000000E+01 0. -1.
         25    2    1    2    0    0 -0.27205375477E+02  0.16597177759E+02 -0.56639849541E+02  0.14088347353E+03  0.12499792716E+03 0.  0.
    9000005    1    3    3    0    0 -0.39593495042E+01 -0.10488905025E+02 -0.90783604207E+02  0.91478720858E+02  0.10000000000E+01 0.  0.
    9000005    1    3    3    0    0 -0.23246025973E+02  0.27086082785E+02  0.34143754666E+02  0.49404752675E+02  0.10000000000E+01 0.  0.
          4    1    1    2  501    0  0.27205375477E+02 -0.16597177759E+02  0.21832143025E+03  0.22063875129E+03  0.12700000000E+01 0.  1.
<mgrwt>
<rscale>  1 0.12899644E+03</rscale>
<asrwt>0</asrwt>
<pdfrwt beam="1">  1       21 0.40245825E-01 0.12899644E+03</pdfrwt>
<pdfrwt beam="2">  1        4 0.15372594E-01 0.12899644E+03</pdfrwt>
<totfact> 0.88055929E+03</totfact>
</mgrwt>
</event>
<event>
 6    4  0.7919556E-003  0.1282149E+03  0.7818608E-02  0.1230129E+00
         -4   -1    0    0    0  501 -0.00000000000E+00  0.00000000000E+00  0.13022612005E+02  0.13084392360E+02  0.12700000000E+01 0.  1.
         21   -1    0    0  501  502  0.00000000000E+00 -0.00000000000E+00 -0.64682260123E+03  0.64682260123E+03  0.00000000000E+00 0.  1.
         25    2    1    2    0    0 -0.28279319801E+02  0.37593132478E+01 -0.31882232189E+03  0.34363749430E+03  0.12500080874E+03 0.  0.
    9000005    1    3    3    0    0 -0.12495872877E+02  0.61338324752E+02 -0.21434103165E+03  0.22329714457E+03  0.10000000000E+01 0.  0.
    9000005    1    3    3    0    0 -0.15783446924E+02 -0.57579011505E+02 -0.10448129024E+03  0.12034034973E+03  0.10000000000E+01 0.  0.
         -4    1    1    2    0  502  0.28279319801E+02 -0.37593132478E+01 -0.31497766734E+03  0.31626949930E+03  0.12700000000E+01 0. -1.
<mgrwt>
<rscale>  1 0.12821488E+03</rscale>
<asrwt>0</asrwt>
<pdfrwt beam="2">  1       21 0.99511139E-01 0.12821488E+03</pdfrwt>
<pdfrwt beam="1">  1       -4 0.20083276E-02 0.12821488E+03</pdfrwt>
<totfact> 0.34302812E+04</totfact>
</mgrwt>
</event>
<event>
 6    4  0.7919556E-003  0.1278936E+03  0.7818608E-02  0.1230615E+00
         21   -1    0    0  501  502  0.00000000000E+00  0.00000000000E+00  0.30231392678E+02  0.30231392678E+02  0.00000000000E+00 0.  1.
         -4   -1    0    0    0  501 -0.00000000000E+00 -0.00000000000E+00 -0.26937050152E+03  0.26937349534E+03  0.12700000000E+01 0.  1.
         25    2    1    2    0    0  0.26893395091E+02  0.30877982239E+01 -0.24058512226E+03  0.27246648253E+03  0.12499597534E+03 0.  0.
    9000005    1    3    3    0    0  0.40821406929E+02  0.50899565788E+02 -0.19239915084E+03  0.20316393948E+03  0.10000000000E+01 0.  0.
    9000005    1    3    3    0    0 -0.13928011838E+02 -0.47811767564E+02 -0.48185971418E+02  0.69302543047E+02  0.10000000000E+01 0.  0.
         -4    1    1    2    0  502 -0.26893395091E+02 -0.30877982239E+01  0.14460134197E+01  0.27138405484E+02  0.12700000000E+01 0. -1.
<mgrwt>
<rscale>  1 0.12789364E+03</rscale>
<asrwt>0</asrwt>
<pdfrwt beam="1">  1       21 0.46509834E-02 0.12789364E+03</pdfrwt>
<pdfrwt beam="2">  1       -4 0.41443899E-01 0.12789364E+03</pdfrwt>
<totfact> 0.68898334E+04</totfact>
</mgrwt>
</event>
<event>
 6    4  0.7919556E-003  0.1269727E+03  0.7818608E-02  0.1232018E+00
         21   -1    0    0  501  502  0.00000000000E+00  0.00000000000E+00  0.61024798083E+02  0.61024798083E+02  0.00000000000E+00 0.  1.
         -4   -1    0    0    0  501 -0.00000000000E+00 -0.00000000000E+00 -0.10543926826E+03  0.10544691646E+03  0.12700000000E+01 0. -1.
         25    2    1    2    0    0  0.14827414613E+01 -0.22209550745E+02 -0.58812015567E+02  0.13993184115E+03  0.12500641714E+03 0.  0.
    9000005    1    3    3    0    0 -0.12905285284E+02 -0.29231363917E+02  0.33459133487E+02  0.46276696494E+02  0.10000000000E+01 0.  0.
    9000005    1    3    3    0    0  0.14388026745E+02  0.70218131723E+01 -0.92271149053E+02  0.93655144661E+02  0.10000000000E+01 0.  0.
         -4    1    1    2    0  502 -0.14827414613E+01  0.22209550745E+02  0.14397545387E+02  0.26539873393E+02  0.12700000000E+01 0.  1.
<mgrwt>
<rscale>  1 0.12697270E+03</rscale>
<asrwt>0</asrwt>
<pdfrwt beam="1">  1       21 0.93884306E-02 0.12697270E+03</pdfrwt>
<pdfrwt beam="2">  1       -4 0.16223031E-01 0.12697270E+03</pdfrwt>
<totfact> 0.11856032E+05</totfact>
</mgrwt>
</event>
<event>
 6    4  0.7919556E-003  0.1292055E+03  0.7818608E-02  0.1228639E+00
         21   -1    0    0  501  502  0.00000000000E+00  0.00000000000E+00  0.53405179743E+03  0.53405179743E+03  0.00000000000E+00 0.  1.
         -4   -1    0    0    0  501 -0.00000000000E+00 -0.00000000000E+00 -0.27701986694E+02  0.27731083044E+02  0.12700000000E+01 0.  1.
         25    2    1    2    0    0 -0.30332462037E+02  0.12203732470E+02  0.12749831056E+03  0.18152104775E+03  0.12500032897E+03 0.  0.
    9000005    1    3    3    0    0 -0.42128359250E+02 -0.49095267599E+02  0.48658436805E+02  0.80955465696E+02  0.10000000000E+01 0.  0.
    9000005    1    3    3    0    0  0.11795897213E+02  0.61299000069E+02  0.78839873756E+02  0.10056558206E+03  0.10000000000E+01 0.  0.
         -4    1    1    2    0  502  0.30332462037E+02 -0.12203732470E+02  0.37885150017E+03  0.38026183272E+03  0.12700000000E+01 0. -1.
<mgrwt>
<rscale>  1 0.12920554E+03</rscale>
<asrwt>0</asrwt>
<pdfrwt beam="1">  1       21 0.82161807E-01 0.12920554E+03</pdfrwt>
<pdfrwt beam="2">  1       -4 0.42641988E-02 0.12920554E+03</pdfrwt>
<totfact> 0.16394843E+04</totfact>
</mgrwt>
</event>
<event>
 6    4  0.7919556E-003  0.1287223E+03  0.7818608E-02  0.1229364E+00
         -4   -1    0    0    0  501 -0.00000000000E+00  0.00000000000E+00  0.88879706759E+02  0.88888779795E+02  0.12700000000E+01 0.  1.
         21   -1    0    0  501  502  0.00000000000E+00 -0.00000000000E+00 -0.10302037411E+03  0.10302037411E+03  0.00000000000E+00 0. -1.
         25    2    1    2    0    0  0.30610753115E+02  0.26613216308E+01  0.35488250843E+02  0.13352471026E+03  0.12500132584E+03 0.  0.
    9000005    1    3    3    0    0 -0.29009227390E+02  0.13387832252E+02 -0.30331926652E+02  0.44065804209E+02  0.10000000000E+01 0.  0.
    9000005    1    3    3    0    0  0.59619980506E+02 -0.10726510621E+02  0.65820177495E+02  0.89458906047E+02  0.10000000000E+01 0.  0.
         -4    1    1    2    0  502 -0.30610753115E+02 -0.26613216308E+01 -0.49628918193E+02  0.58384443648E+02  0.12700000000E+01 0. -1.
<mgrwt>
<rscale>  1 0.12872231E+03</rscale>
<asrwt>0</asrwt>
<pdfrwt beam="2">  1       21 0.15849288E-01 0.12872231E+03</pdfrwt>
<pdfrwt beam="1">  1       -4 0.13675101E-01 0.12872231E+03</pdfrwt>
<totfact> 0.63176864E+04</totfact>
</mgrwt>
</event>
<event>
 6    4  0.7919556E-003  0.1296944E+03  0.7818608E-02  0.1227910E+00
         21   -1    0    0  501  502  0.00000000000E+00  0.00000000000E+00  0.10305810621E+02  0.10305810621E+02  0.00000000000E+00 0.  1.
         -4   -1    0    0    0  501 -0.00000000000E+00 -0.00000000000E+00 -0.76361468259E+03  0.76361573869E+03  0.12700000000E+01 0.  1.
         25    2    1    2    0    0 -0.11604246408E+02  0.32568981788E+02 -0.68694165947E+03  0.69907759895E+03  0.12500099494E+03 0.  0.
    9000005    1    3    3    0    0  0.41407856755E+02 -0.26625506664E+02 -0.30586311454E+03  0.30980118309E+03  0.10000000000E+01 0.  0.
    9000005    1    3    3    0    0 -0.53012103163E+02  0.59194488451E+02 -0.38107854493E+03  0.38927641586E+03  0.10000000000E+01 0.  0.
         -4    1    1    2    0  502  0.11604246408E+02 -0.32568981788E+02 -0.66367212504E+02  0.74843950356E+02  0.12700000000E+01 0. -1.
<mgrwt>
<rscale>  1 0.12969443E+03</rscale>
<asrwt>0</asrwt>
<pdfrwt beam="1">  1       21 0.15855090E-02 0.12969443E+03</pdfrwt>
<pdfrwt beam="2">  1       -4 0.11748530E+00 0.12969443E+03</pdfrwt>
<totfact> 0.42091039E+04</totfact>
</mgrwt>
</event>
<event>
 6    4  0.7919556E-003  0.1317840E+03  0.7818608E-02  0.1224832E+00
         -4   -1    0    0    0  501 -0.00000000000E+00  0.00000000000E+00  0.85548641375E+03  0.85548735643E+03  0.12700000000E+01 0.  1.
         21   -1    0    0  501  502  0.00000000000E+00 -0.00000000000E+00 -0.11474932554E+02  0.11474932554E+02  0.00000000000E+00 0.  1.
         25    2    1    2    0    0 -0.33481823617E+02  0.24917833149E+02  0.77633562163E+03  0.78744143769E+03  0.12500035786E+03 0.  0.
    9000005    1    3    3    0    0 -0.18868663592E+02 -0.22125298580E+02  0.40018211228E+02  0.49477394160E+02  0.10000000000E+01 0.  0.
    9000005    1    3    3    0    0 -0.14613160025E+02  0.47043131729E+02  0.73631741040E+03  0.73796404353E+03  0.10000000000E+01 0.  0.
         -4    1    1    2    0  502  0.33481823617E+02 -0.24917833149E+02  0.67675859570E+02  0.79520851292E+02  0.12700000000E+01 0. -1.
<mgrwt>
<rscale>  1 0.13178399E+03</rscale>
<asrwt>0</asrwt>
<pdfrwt beam="2">  1       21 0.17653749E-02 0.13178399E+03</pdfrwt>
<pdfrwt beam="1">  1       -4 0.13161872E+00 0.13178399E+03</pdfrwt>
<totfact> 0.26958415E+04</totfact>
</mgrwt>
</event>
<event>
 6    4  0.7919556E-003  0.1279138E+03  0.7818608E-02  0.1230585E+00
         21   -1    0    0  501  502  0.00000000000E+00  0.00000000000E+00  0.20731187285E+04  0.20731187285E+04  0.00000000000E+00 0. -1.
         -4   -1    0    0    0  501 -0.00000000000E+00 -0.00000000000E+00 -0.12401998136E+02  0.12466854365E+02  0.12700000000E+01 0.  1.
         25    2    1    2    0    0 -0.20000404300E+02 -0.18348120002E+02  0.31946410027E+03  0.34412096813E+03  0.12500103865E+03 0.  0.
    9000005    1    3    3    0    0 -0.47318950536E+02 -0.50814514324E+02  0.27073918399E+03  0.27950295829E+03  0.10000000000E+01 0.  0.
    9000005    1    3    3    0    0  0.27318546236E+02  0.32466394322E+02  0.48724916289E+02  0.64618009843E+02  0.10000000000E+01 0.  0.
         -4    1    1    2    0  502  0.20000404300E+02  0.18348120002E+02  0.17412526301E+04  0.17414646148E+04  0.12700000000E+01 0. -1.
<mgrwt>
<rscale>  1 0.12791376E+03</rscale>
<asrwt>0</asrwt>
<pdfrwt beam="1">  1       21 0.31894107E+00 0.12791376E+03</pdfrwt>
<pdfrwt beam="2">  1       -4 0.19130202E-02 0.12791376E+03</pdfrwt>
<totfact> 0.12651876E+03</totfact>
</mgrwt>
</event>
<event>
 6    4  0.7919556E-003  0.1384278E+03  0.7818608E-02  0.1215460E+00
          4   -1    0    0  502    0 -0.00000000000E+00  0.00000000000E+00  0.10418438580E+03  0.10419212612E+03  0.12700000000E+01 0. -1.
         21   -1    0    0  501  502  0.00000000000E+00 -0.00000000000E+00 -0.17891357776E+03  0.17891357776E+03  0.00000000000E+00 0.  1.
         25    2    1    2    0    0 -0.47505723051E+01 -0.59285602596E+02  0.48166944030E+02  0.14656844247E+03  0.12499961287E+03 0.  0.
    9000005    1    3    3    0    0 -0.54357746407E+02 -0.26641817454E+01 -0.46096436949E+01  0.54627019631E+02  0.10000000000E+01 0.  0.
    9000005    1    3    3    0    0  0.49607174102E+02 -0.56621420850E+02  0.52776587725E+02  0.91941422838E+02  0.10000000000E+01 0.  0.
          4    1    1    2  501    0  0.47505723051E+01  0.59285602596E+02 -0.12289613599E+03  0.13653726141E+03  0.12700000000E+01 0.  1.
<mgrwt>
<rscale>  1 0.13842779E+03</rscale>
<asrwt>0</asrwt>
<pdfrwt beam="2">  1       21 0.27525166E-01 0.13842779E+03</pdfrwt>
<pdfrwt beam="1">  1        4 0.16029309E-01 0.13842779E+03</pdfrwt>
<totfact> 0.17298921E+04</totfact>
</mgrwt>
</event>
<event>
 6    4  0.7919556E-003  0.1428887E+03  0.7818608E-02  0.1209494E+00
          4   -1    0    0  502    0 -0.00000000000E+00  0.00000000000E+00  0.80778644913E+02  0.80788627752E+02  0.12700000000E+01 0.  1.
         21   -1    0    0  501  502  0.00000000000E+00 -0.00000000000E+00 -0.14303118104E+03  0.14303118104E+03  0.00000000000E+00 0.  1.
         25    2    1    2    0    0  0.17237872869E+02  0.67053250935E+02 -0.58722596965E+02  0.15448470879E+03  0.12499559646E+03 0.  0.
    9000005    1    3    3    0    0 -0.24514103218E+02  0.54678458889E+02 -0.84707343438E+02  0.10376419978E+03  0.10000000000E+01 0.  0.
    9000005    1    3    3    0    0  0.41751976087E+02  0.12374792046E+02  0.25984746473E+02  0.50720509014E+02  0.10000000000E+01 0.  0.
          4    1    1    2  501    0 -0.17237872869E+02 -0.67053250935E+02 -0.35299391647E+01  0.69335100003E+02  0.12700000000E+01 0. -1.
<mgrwt>
<rscale>  1 0.14288870E+03</rscale>
<asrwt>0</asrwt>
<pdfrwt beam="2">  1       21 0.22004797E-01 0.14288870E+03</pdfrwt>
<pdfrwt beam="1">  1        4 0.12428686E-01 0.14288870E+03</pdfrwt>
<totfact> 0.41229057E+04</totfact>
</mgrwt>
</event>
<event>
 6    4  0.7919556E-003  0.1321297E+03  0.7818608E-02  0.1224329E+00
          4   -1    0    0  502    0 -0.00000000000E+00  0.00000000000E+00  0.29314239762E+02  0.29341737386E+02  0.12700000000E+01 0.  1.
         21   -1    0    0  501  502  0.00000000000E+00 -0.00000000000E+00 -0.35409225235E+03  0.35409225235E+03  0.00000000000E+00 0. -1.
         25    2    1    2    0    0  0.27705415410E+02 -0.32643186670E+02 -0.13506948904E+03  0.18894978861E+03  0.12500035228E+03 0.  0.
    9000005    1    3    3    0    0 -0.35398912021E+02  0.10521891255E+02 -0.96461346582E+02  0.10329368109E+03  0.10000000000E+01 0.  0.
    9000005    1    3    3    0    0  0.63104327431E+02 -0.43165077925E+02 -0.38608142456E+02  0.85656107527E+02  0.10000000000E+01 0.  0.
          4    1    1    2  501    0 -0.27705415410E+02  0.32643186670E+02 -0.18970852355E+03  0.19448420112E+03  0.12700000000E+01 0. -1.
<mgrwt>
<rscale>  1 0.13212969E+03</rscale>
<asrwt>0</asrwt>
<pdfrwt beam="2">  1       21 0.54475729E-01 0.13212969E+03</pdfrwt>
<pdfrwt beam="1">  1        4 0.45121736E-02 0.13212969E+03</pdfrwt>
<totfact> 0.36551946E+04</totfact>
</mgrwt>
</event>
<event>
 6    4  0.7919556E-003  0.1341427E+03  0.7818608E-02  0.1221435E+00
         -4   -1    0    0    0  501 -0.00000000000E+00  0.00000000000E+00  0.13116547597E+02  0.13177887572E+02  0.12700000000E+01 0.  1.
         21   -1    0    0  501  502  0.00000000000E+00 -0.00000000000E+00 -0.97115883911E+03  0.97115883911E+03  0.00000000000E+00 0.  1.
         25    2    1    2    0    0  0.43787656322E+02  0.21261900963E+02 -0.89335888316E+03  0.90337387412E+03  0.12499934018E+03 0.  0.
    9000005    1    3    3    0    0  0.23359036666E+02  0.46799024263E+02 -0.83363858767E+03  0.83527844945E+03  0.10000000000E+01 0.  0.
    9000005    1    3    3    0    0  0.20428619655E+02 -0.25537123300E+02 -0.59720295486E+02  0.68095424666E+02  0.10000000000E+01 0.  0.
         -4    1    1    2    0  502 -0.43787656322E+02 -0.21261900963E+02 -0.64683408357E+02  0.80962852564E+02  0.12700000000E+01 0. -1.
<mgrwt>
<rscale>  1 0.13414269E+03</rscale>
<asrwt>0</asrwt>
<pdfrwt beam="2">  1       21 0.14940911E+00 0.13414269E+03</pdfrwt>
<pdfrwt beam="1">  1       -4 0.20227120E-02 0.13414269E+03</pdfrwt>
<totfact> 0.12547038E+04</totfact>
</mgrwt>
</event>
<event>
 6    4  0.7919556E-003  0.1279272E+03  0.7818608E-02  0.1230564E+00
          4   -1    0    0  502    0 -0.00000000000E+00  0.00000000000E+00  0.89155873083E+02  0.89164918018E+02  0.12700000000E+01 0.  1.
         21   -1    0    0  501  502  0.00000000000E+00 -0.00000000000E+00 -0.25288351001E+03  0.25288351001E+03  0.00000000000E+00 0. -1.
         25    2    1    2    0    0 -0.49204587034E+01 -0.26786985145E+02  0.41905345714E+02  0.13461581262E+03  0.12499442195E+03 0.  0.
    9000005    1    3    3    0    0  0.21485239215E+02  0.40827645095E+02 -0.75718428757E+01  0.46763713632E+02  0.10000000000E+01 0.  0.
    9000005    1    3    3    0    0 -0.26405697918E+02 -0.67614630240E+02  0.49477188590E+02  0.87852098984E+02  0.10000000000E+01 0.  0.
          4    1    1    2  501    0  0.49204587034E+01  0.26786985145E+02 -0.20563298264E+03  0.20743261541E+03  0.12700000000E+01 0. -1.
<mgrwt>
<rscale>  1 0.12792716E+03</rscale>
<asrwt>0</asrwt>
<pdfrwt beam="2">  1       21 0.38905156E-01 0.12792716E+03</pdfrwt>
<pdfrwt beam="1">  1        4 0.13717229E-01 0.12792716E+03</pdfrwt>
<totfact> 0.11477994E+04</totfact>
</mgrwt>
</event>
<event>
 6    4  0.7919556E-003  0.1323358E+03  0.7818608E-02  0.1224030E+00
         21   -1    0    0  501  502  0.00000000000E+00  0.00000000000E+00  0.40840308342E+01  0.40840308342E+01  0.00000000000E+00 0.  1.
         -4   -1    0    0    0  501 -0.00000000000E+00 -0.00000000000E+00 -0.18937082070E+04  0.18937086328E+04  0.12700000000E+01 0.  1.
         25    2    1    2    0    0  0.30320241770E+02  0.31113440842E+02 -0.14484794705E+04  0.14545121345E+04  0.12500163954E+03 0.  0.
    9000005    1    3    3    0    0  0.48282156048E+02 -0.32343891164E+02 -0.43164613960E+03  0.43554182775E+03  0.10000000000E+01 0.  0.
    9000005    1    3    3    0    0 -0.17961914279E+02  0.63457332006E+02 -0.10168333309E+04  0.10189703068E+04  0.10000000000E+01 0.  0.
         -4    1    1    2    0  502 -0.30320241770E+02 -0.31113440842E+02 -0.44114470565E+03  0.44328052911E+03  0.12700000000E+01 0. -1.
<mgrwt>
<rscale>  1 0.13233583E+03</rscale>
<asrwt>0</asrwt>
<pdfrwt beam="1">  1       21 0.62831193E-03 0.13233583E+03</pdfrwt>
<pdfrwt beam="2">  1       -4 0.29135518E+00 0.13233583E+03</pdfrwt>
<totfact> 0.13432635E+04</totfact>
</mgrwt>
</event>
<event>
 6    4  0.7919556E-003  0.1268324E+03  0.7818608E-02  0.1232233E+00
         21   -1    0    0  501  502  0.00000000000E+00  0.00000000000E+00  0.15814824594E+03  0.15814824594E+03  0.00000000000E+00 0.  1.
         -4   -1    0    0    0  501 -0.00000000000E+00 -0.00000000000E+00 -0.37745915538E+02  0.37767274721E+02  0.12700000000E+01 0.  1.
         25    2    1    2    0    0 -0.21347819117E+02  0.20857022216E+01  0.79431969758E+02  0.14965254533E+03  0.12500546776E+03 0.  0.
    9000005    1    3    3    0    0 -0.29789157692E+02  0.59126845707E+02  0.58328278161E+02  0.88241519890E+02  0.10000000000E+01 0.  0.
    9000005    1    3    3    0    0  0.84413385752E+01 -0.57041143486E+02  0.21103691596E+02  0.61411025444E+02  0.10000000000E+01 0.  0.
         -4    1    1    2    0  502  0.21347819117E+02 -0.20857022216E+01  0.40970360647E+02  0.46262975330E+02  0.12700000000E+01 0. -1.
<mgrwt>
<rscale>  1 0.12683236E+03</rscale>
<asrwt>0</asrwt>
<pdfrwt beam="1">  1       21 0.24330499E-01 0.12683236E+03</pdfrwt>
<pdfrwt beam="2">  1       -4 0.58090993E-02 0.12683236E+03</pdfrwt>
<totfact> 0.11940937E+05</totfact>
</mgrwt>
</event>
<event>
 6    4  0.7919556E-003  0.1395676E+03  0.7818608E-02  0.1213912E+00
          4   -1    0    0  502    0 -0.00000000000E+00  0.00000000000E+00  0.28741651825E+02  0.28769696725E+02  0.12700000000E+01 0. -1.
         21   -1    0    0  501  502  0.00000000000E+00 -0.00000000000E+00 -0.50123039225E+03  0.50123039225E+03  0.00000000000E+00 0.  1.
         25    2    1    2    0    0  0.21681806317E+02  0.58176151428E+02 -0.16411676168E+03  0.21543776527E+03  0.12499821567E+03 0.  0.
    9000005    1    3    3    0    0  0.11637211411E+01  0.32563973941E+01  0.20974285807E+02  0.21280954772E+02  0.10000000000E+01 0.  0.
    9000005    1    3    3    0    0  0.20518085175E+02  0.54919754034E+02 -0.18509104749E+03  0.19415681050E+03  0.10000000000E+01 0.  0.
          4    1    1    2  501    0 -0.21681806317E+02 -0.58176151428E+02 -0.30837197875E+03  0.31456232371E+03  0.12700000000E+01 0.  1.
<mgrwt>
<rscale>  1 0.13956762E+03</rscale>
<asrwt>0</asrwt>
<pdfrwt beam="2">  1       21 0.77112366E-01 0.13956762E+03</pdfrwt>
<pdfrwt beam="1">  1        4 0.44240737E-02 0.13956762E+03</pdfrwt>
<totfact> 0.17920484E+04</totfact>
</mgrwt>
</event>
<event>
 6    4  0.7919556E-003  0.1269686E+03  0.7818608E-02  0.1232024E+00
         -4   -1    0    0    0  501 -0.00000000000E+00  0.00000000000E+00  0.31034087038E+03  0.31034346896E+03  0.12700000000E+01 0. -1.
         21   -1    0    0  501  502  0.00000000000E+00 -0.00000000000E+00 -0.78170242698E+02  0.78170242698E+02  0.00000000000E+00 0.  1.
         25    2    1    2    0    0  0.72339170902E+01  0.21063344704E+02  0.29536442172E+03  0.32149832126E+03  0.12500013963E+03 0.  0.
    9000005    1    3    3    0    0 -0.40523587484E+02  0.23892875892E+01  0.24922179798E+03  0.25250816705E+03  0.10000000000E+01 0.  0.
    9000005    1    3    3    0    0  0.47757504575E+02  0.18674057115E+02  0.46142623739E+02  0.68990154209E+02  0.10000000000E+01 0.  0.
         -4    1    1    2    0  502 -0.72339170902E+01 -0.21063344704E+02 -0.63193794036E+02  0.67015390406E+02  0.12700000000E+01 0.  1.
<mgrwt>
<rscale>  1 0.12696861E+03</rscale>
<asrwt>0</asrwt>
<pdfrwt beam="2">  1       21 0.12026191E-01 0.12696861E+03</pdfrwt>
<pdfrwt beam="1">  1       -4 0.47745742E-01 0.12696861E+03</pdfrwt>
<totfact> 0.10139931E+04</totfact>
</mgrwt>
</event>
<event>
 6    4  0.7919556E-003  0.1291604E+03  0.7818608E-02  0.1228707E+00
          4   -1    0    0  502    0 -0.00000000000E+00  0.00000000000E+00  0.35977655772E+03  0.35977879924E+03  0.12700000000E+01 0. -1.
         21   -1    0    0  501  502  0.00000000000E+00 -0.00000000000E+00 -0.21776438489E+02  0.21776438489E+02  0.00000000000E+00 0. -1.
         25    2    1    2    0    0  0.32516806615E+02 -0.60730010138E+00  0.31830715577E+03  0.34351398071E+03  0.12499879201E+03 0.  0.
    9000005    1    3    3    0    0  0.16218573315E+02  0.57500107205E+02  0.95298484110E+02  0.11248157859E+03  0.10000000000E+01 0.  0.
    9000005    1    3    3    0    0  0.16298233300E+02 -0.58107407307E+02  0.22300867166E+03  0.23103240212E+03  0.10000000000E+01 0.  0.
          4    1    1    2  501    0 -0.32516806615E+02  0.60730010138E+00  0.19692963458E+02  0.38041257019E+02  0.12700000000E+01 0.  1.
<mgrwt>
<rscale>  1 0.12916040E+03</rscale>
<asrwt>0</asrwt>
<pdfrwt beam="2">  1       21 0.33502216E-02 0.12916040E+03</pdfrwt>
<pdfrwt beam="1">  1        4 0.55353256E-01 0.12916040E+03</pdfrwt>
<totfact> 0.66267082E+04</totfact>
</mgrwt>
</event>
<event>
 6    4  0.7919556E-003  0.1275210E+03  0.7818608E-02  0.1231181E+00
         21   -1    0    0  501  502  0.00000000000E+00  0.00000000000E+00  0.22375197386E+03  0.22375197386E+03  0.00000000000E+00 0.  1.
          4   -1    0    0  502    0 -0.00000000000E+00 -0.00000000000E+00 -0.33039891059E+02  0.33064290423E+02  0.12700000000E+01 0. -1.
         25    2    1    2    0    0  0.21133561598E+02 -0.13733112934E+02  0.98272776421E+02  0.16099422047E+03  0.12500549837E+03 0.  0.
    9000005    1    3    3    0    0  0.36163440639E+02 -0.40782781834E+02  0.11392843219E+03  0.12630010845E+03  0.10000000000E+01 0.  0.
    9000005    1    3    3    0    0 -0.15029879042E+02  0.27049668900E+02 -0.15655655765E+02  0.34694112023E+02  0.10000000000E+01 0.  0.
          4    1    1    2  501    0 -0.21133561598E+02  0.13733112934E+02  0.92439306378E+02  0.95822043812E+02  0.12700000000E+01 0.  1.
<mgrwt>
<rscale>  1 0.12752098E+03</rscale>
<asrwt>0</asrwt>
<pdfrwt beam="1">  1       21 0.34423380E-01 0.12752098E+03</pdfrwt>
<pdfrwt beam="2">  1        4 0.50852144E-02 0.12752098E+03</pdfrwt>
<totfact> 0.76060458E+04</totfact>
</mgrwt>
</event>
<event>
 6    4  0.7919556E-003  0.1337948E+03  0.7818608E-02  0.1221931E+00
         21   -1    0    0  501  502  0.00000000000E+00  0.00000000000E+00  0.20311852187E+03  0.20311852187E+03  0.00000000000E+00 0.  1.
         -4   -1    0    0    0  501 -0.00000000000E+00 -0.00000000000E+00 -0.49757264832E+02  0.49773469877E+02  0.12700000000E+01 0. -1.
         25    2    1    2    0    0  0.30898926460E+01  0.47612751951E+02  0.57144673170E+02  0.14548731077E+03  0.12499808934E+03 0.  0.
    9000005    1    3    3    0    0  0.41397353633E+02 -0.18197143229E+02  0.52348409960E+02  0.69182605725E+02  0.10000000000E+01 0.  0.
    9000005    1    3    3    0    0 -0.38307460987E+02  0.65809895180E+02  0.47962632097E+01  0.76304705043E+02  0.10000000000E+01 0.  0.
         -4    1    1    2    0  502 -0.30898926460E+01 -0.47612751951E+02  0.96216583868E+02  0.10740468098E+03  0.12700000000E+01 0.  1.
<mgrwt>
<rscale>  1 0.13379478E+03</rscale>
<asrwt>0</asrwt>
<pdfrwt beam="1">  1       21 0.31249003E-01 0.13379478E+03</pdfrwt>
<pdfrwt beam="2">  1       -4 0.76565159E-02 0.13379478E+03</pdfrwt>
<totfact> 0.47443601E+04</totfact>
</mgrwt>
</event>
<event>
 6    4  0.7919556E-003  0.1383870E+03  0.7818608E-02  0.1215516E+00
         21   -1    0    0  501  502  0.00000000000E+00  0.00000000000E+00  0.74288613679E+02  0.74288613679E+02  0.00000000000E+00 0.  1.
         -4   -1    0    0    0  501 -0.00000000000E+00 -0.00000000000E+00 -0.22241007056E+03  0.22241369649E+03  0.12700000000E+01 0. -1.
         25    2    1    2    0    0 -0.35009624629E+02  0.47950415498E+02 -0.18176467356E+03  0.22844987364E+03  0.12500412812E+03 0.  0.
    9000005    1    3    3    0    0 -0.21997556513E+02  0.75144880304E+02 -0.18216660693E+03  0.19828342898E+03  0.10000000000E+01 0.  0.
    9000005    1    3    3    0    0 -0.13012068116E+02 -0.27194464807E+02  0.40193336634E+00  0.30166444656E+02  0.10000000000E+01 0.  0.
         -4    1    1    2    0  502  0.35009624629E+02 -0.47950415498E+02  0.33643216685E+02  0.68252436528E+02  0.12700000000E+01 0.  1.
<mgrwt>
<rscale>  1 0.13838695E+03</rscale>
<asrwt>0</asrwt>
<pdfrwt beam="1">  1       21 0.11429018E-01 0.13838695E+03</pdfrwt>
<pdfrwt beam="2">  1       -4 0.34218047E-01 0.13838695E+03</pdfrwt>
<totfact> 0.21572062E+04</totfact>
</mgrwt>
</event>
<event>
 6    4  0.7919556E-003  0.1292794E+03  0.7818608E-02  0.1228529E+00
         21   -1    0    0  501  502  0.00000000000E+00  0.00000000000E+00  0.11698010268E+03  0.11698010268E+03  0.00000000000E+00 0. -1.
          4   -1    0    0  502    0 -0.00000000000E+00 -0.00000000000E+00 -0.17027828666E+03  0.17028302267E+03  0.12700000000E+01 0.  1.
         25    2    1    2    0    0  0.25569732591E+02 -0.20850460624E+02 -0.14234650371E+03  0.19229066050E+03  0.12499847225E+03 0.  0.
    9000005    1    3    3    0    0  0.59044546003E+02  0.28362281544E+02 -0.98759303188E+02  0.11851192933E+03  0.10000000000E+01 0.  0.
    9000005    1    3    3    0    0 -0.33474813412E+02 -0.49212742168E+02 -0.43587200518E+02  0.73778731173E+02  0.10000000000E+01 0.  0.
          4    1    1    2  501    0 -0.25569732591E+02  0.20850460624E+02  0.89048319726E+02  0.94972464847E+02  0.12700000000E+01 0. -1.
<mgrwt>
<rscale>  1 0.12927943E+03</rscale>
<asrwt>0</asrwt>
<pdfrwt beam="1">  1       21 0.17996939E-01 0.12927943E+03</pdfrwt>
<pdfrwt beam="2">  1        4 0.26197554E-01 0.12927943E+03</pdfrwt>
<totfact> 0.15684958E+04</totfact>
</mgrwt>
</event>
<event>
 6    4  0.7919556E-003  0.1309217E+03  0.7818608E-02  0.1226094E+00
         21   -1    0    0  501  502  0.00000000000E+00  0.00000000000E+00  0.14048874839E+03  0.14048874839E+03  0.00000000000E+00 0.  1.
         -4   -1    0    0    0  501 -0.00000000000E+00 -0.00000000000E+00 -0.76776175123E+02  0.76786678314E+02  0.12700000000E+01 0.  1.
         25    2    1    2    0    0  0.38908201799E+02 -0.13260653885E+01 -0.12671106002E+02  0.13153345346E+03  0.12499954334E+03 0.  0.
    9000005    1    3    3    0    0  0.73015805648E+02 -0.35452882845E+02 -0.17481102326E+02  0.83034954778E+02  0.10000000000E+01 0.  0.
    9000005    1    3    3    0    0 -0.34107603850E+02  0.34126817457E+02  0.48099963242E+01  0.48498498685E+02  0.10000000000E+01 0.  0.
         -4    1    1    2    0  502 -0.38908201799E+02  0.13260653885E+01  0.76383679274E+02  0.85741973245E+02  0.12700000000E+01 0. -1.
<mgrwt>
<rscale>  1 0.13092170E+03</rscale>
<asrwt>0</asrwt>
<pdfrwt beam="1">  1       21 0.21613654E-01 0.13092170E+03</pdfrwt>
<pdfrwt beam="2">  1       -4 0.11812969E-01 0.13092170E+03</pdfrwt>
<totfact> 0.46058187E+04</totfact>
</mgrwt>
</event>
<event>
 6    4  0.7919556E-003  0.1300116E+03  0.7818608E-02  0.1227439E+00
          4   -1    0    0  502    0 -0.00000000000E+00  0.00000000000E+00  0.16422597771E+04  0.16422602681E+04  0.12700000000E+01 0. -1.
         21   -1    0    0  501  502  0.00000000000E+00 -0.00000000000E+00 -0.83365542603E+01  0.83365542603E+01  0.00000000000E+00 0.  1.
         25    2    1    2    0    0 -0.32595667772E+01 -0.35589104600E+02  0.15832320295E+04  0.15885611945E+04  0.12500320189E+03 0.  0.
    9000005    1    3    3    0    0  0.60735132123E+02 -0.14283182170E+02  0.79972508274E+03  0.80215582871E+03  0.10000000000E+01 0.  0.
    9000005    1    3    3    0    0 -0.63994698901E+02 -0.21305922430E+02  0.78350694673E+03  0.78640536582E+03  0.10000000000E+01 0.  0.
          4    1    1    2  501    0  0.32595667772E+01  0.35589104600E+02  0.50691193328E+02  0.62035627851E+02  0.12700000000E+01 0.  1.
<mgrwt>
<rscale>  1 0.13001157E+03</rscale>
<asrwt>0</asrwt>
<pdfrwt beam="2">  1       21 0.12825481E-02 0.13001157E+03</pdfrwt>
<pdfrwt beam="1">  1        4 0.25266257E+00 0.13001157E+03</pdfrwt>
<totfact> 0.72889101E+03</totfact>
</mgrwt>
</event>
<event>
 6    4  0.7919556E-003  0.1296817E+03  0.7818608E-02  0.1227929E+00
         21   -1    0    0  501  502  0.00000000000E+00  0.00000000000E+00  0.19809179646E+03  0.19809179646E+03  0.00000000000E+00 0. -1.
         -4   -1    0    0    0  501 -0.00000000000E+00 -0.00000000000E+00 -0.41133902062E+02  0.41153502874E+02  0.12700000000E+01 0.  1.
         25    2    1    2    0    0 -0.85366245462E+01 -0.33447144130E+02  0.73828171008E+02  0.14922447274E+03  0.12500303605E+03 0.  0.
    9000005    1    3    3    0    0  0.78450395452E+01  0.24820091022E+02  0.83906088929E+02  0.87856777332E+02  0.10000000000E+01 0.  0.
    9000005    1    3    3    0    0 -0.16381664091E+02 -0.58267235151E+02 -0.10077917921E+02  0.61367695412E+02  0.10000000000E+01 0.  0.
         -4    1    1    2    0  502  0.85366245462E+01  0.33447144130E+02  0.83129723390E+02  0.90020826590E+02  0.12700000000E+01 0. -1.
<mgrwt>
<rscale>  1 0.12968170E+03</rscale>
<asrwt>0</asrwt>
<pdfrwt beam="1">  1       21 0.30475660E-01 0.12968170E+03</pdfrwt>
<pdfrwt beam="2">  1       -4 0.63301137E-02 0.12968170E+03</pdfrwt>
<totfact> 0.67787948E+04</totfact>
</mgrwt>
</event>
<event>
 6    4  0.7919556E-003  0.1357279E+03  0.7818608E-02  0.1219196E+00
          4   -1    0    0  502    0 -0.00000000000E+00  0.00000000000E+00  0.14586141478E+03  0.14586694356E+03  0.12700000000E+01 0.  1.
         21   -1    0    0  501  502  0.00000000000E+00 -0.00000000000E+00 -0.35655059128E+03  0.35655059128E+03  0.00000000000E+00 0. -1.
         25    2    1    2    0    0  0.46244184019E+02 -0.25661649934E+02  0.11166035026E+03  0.17575582123E+03  0.12500012017E+03 0.  0.
    9000005    1    3    3    0    0  0.79153205291E+02  0.15514974860E+02  0.83029988561E+02  0.11576235724E+03  0.10000000000E+01 0.  0.
    9000005    1    3    3    0    0 -0.32909021272E+02 -0.41176624794E+02  0.28630361703E+02  0.59993463992E+02  0.10000000000E+01 0.  0.
          4    1    1    2  501    0 -0.46244184019E+02  0.25661649934E+02 -0.32234952676E+03  0.32666171360E+03  0.12700000000E+01 0. -1.
<mgrwt>
<rscale>  1 0.13572794E+03</rscale>
<asrwt>0</asrwt>
<pdfrwt beam="2">  1       21 0.54853937E-01 0.13572794E+03</pdfrwt>
<pdfrwt beam="1">  1        4 0.22440817E-01 0.13572794E+03</pdfrwt>
<totfact> 0.23861055E+03</totfact>
</mgrwt>
</event>
<event>
 6    4  0.7919556E-003  0.1479453E+03  0.7818608E-02  0.1203021E+00
         21   -1    0    0  501  502  0.00000000000E+00  0.00000000000E+00  0.59055490298E+03  0.59055490298E+03  0.00000000000E+00 0.  1.
         -4   -1    0    0    0  501 -0.00000000000E+00 -0.00000000000E+00 -0.24777996493E+02  0.24810522168E+02  0.12700000000E+01 0. -1.
         25    2    1    2    0    0 -0.23046624881E+02  0.75732828306E+02  0.25642716325E+03  0.29604507700E+03  0.12498475651E+03 0.  0.
    9000005    1    3    3    0    0  0.40571039993E+02  0.63425945144E+02  0.89393090428E+02  0.11688021398E+03  0.10000000000E+01 0.  0.
    9000005    1    3    3    0    0 -0.63617664874E+02  0.12306883162E+02  0.16703407283E+03  0.17916486302E+03  0.10000000000E+01 0.  0.
         -4    1    1    2    0  502  0.23046624881E+02 -0.75732828306E+02  0.30934974323E+03  0.31932034815E+03  0.12700000000E+01 0.  1.
<mgrwt>
<rscale>  1 0.14794525E+03</rscale>
<asrwt>0</asrwt>
<pdfrwt beam="1">  1       21 0.90854590E-01 0.14794525E+03</pdfrwt>
<pdfrwt beam="2">  1       -4 0.38146069E-02 0.14794525E+03</pdfrwt>
<totfact> 0.15726215E+04</totfact>
</mgrwt>
</event>
<event>
 6    4  0.7919556E-003  0.1352495E+03  0.7818608E-02  0.1219868E+00
         21   -1    0    0  501  502  0.00000000000E+00  0.00000000000E+00  0.26737590731E+02  0.26737590731E+02  0.00000000000E+00 0. -1.
          4   -1    0    0  502    0 -0.00000000000E+00 -0.00000000000E+00 -0.54050022787E+03  0.54050171991E+03  0.12700000000E+01 0.  1.
         25    2    1    2    0    0 -0.23070376784E+02 -0.46286524380E+02 -0.49346973799E+03  0.51166864140E+03  0.12497092324E+03 0.  0.
    9000005    1    3    3    0    0  0.17336258507E+02 -0.26266593844E+02 -0.44245147654E+03  0.44357050049E+03  0.10000000000E+01 0.  0.
    9000005    1    3    3    0    0 -0.40406635291E+02 -0.20019930536E+02 -0.51018261453E+02  0.68098140914E+02  0.10000000000E+01 0.  0.
          4    1    1    2  501    0  0.23070376784E+02  0.46286524380E+02 -0.20292899147E+02  0.55570669241E+02  0.12700000000E+01 0. -1.
<mgrwt>
<rscale>  1 0.13524946E+03</rscale>
<asrwt>0</asrwt>
<pdfrwt beam="1">  1       21 0.41134759E-02 0.13524946E+03</pdfrwt>
<pdfrwt beam="2">  1        4 0.83156309E-01 0.13524946E+03</pdfrwt>
<totfact> 0.19810174E+04</totfact>
</mgrwt>
</event>
<event>
 6    4  0.7919556E-003  0.1289500E+03  0.7818608E-02  0.1229022E+00
         -4   -1    0    0    0  501 -0.00000000000E+00  0.00000000000E+00  0.22251654373E+02  0.22287867155E+02  0.12700000000E+01 0.  1.
         21   -1    0    0  501  502  0.00000000000E+00 -0.00000000000E+00 -0.30413703148E+03  0.30413703148E+03  0.00000000000E+00 0.  1.
         25    2    1    2    0    0  0.11598910924E+02  0.29473662072E+02 -0.25089960779E+03  0.28209700346E+03  0.12499949872E+03 0.  0.
    9000005    1    3    3    0    0 -0.29500816845E+02  0.39184496576E+02 -0.22960978734E+03  0.23479220049E+03  0.10000000000E+01 0.  0.
    9000005    1    3    3    0    0  0.41099727768E+02 -0.97108345039E+01 -0.21289820444E+02  0.47304802969E+02  0.10000000000E+01 0.  0.
         -4    1    1    2    0  502 -0.11598910924E+02 -0.29473662072E+02 -0.30985769320E+02  0.44327895178E+02  0.12700000000E+01 0. -1.
<mgrwt>
<rscale>  1 0.12895001E+03</rscale>
<asrwt>0</asrwt>
<pdfrwt beam="2">  1       21 0.46790309E-01 0.12895001E+03</pdfrwt>
<pdfrwt beam="1">  1       -4 0.34263213E-02 0.12895001E+03</pdfrwt>
<totfact> 0.77237223E+04</totfact>
</mgrwt>
</event>
<event>
 6    4  0.7919556E-003  0.1371153E+03  0.7818608E-02  0.1217264E+00
          4   -1    0    0  502    0 -0.00000000000E+00  0.00000000000E+00  0.25868175494E+02  0.25899332104E+02  0.12700000000E+01 0.  1.
         21   -1    0    0  501  502  0.00000000000E+00 -0.00000000000E+00 -0.40670644517E+03  0.40670644517E+03  0.00000000000E+00 0. -1.
         25    2    1    2    0    0  0.55833426066E+02  0.77021068073E+01 -0.19483330266E+03  0.23824488982E+03  0.12499567107E+03 0.  0.
    9000005    1    3    3    0    0 -0.29540212913E+02  0.79265672292E+01 -0.12274516087E+03  0.12650228917E+03  0.10000000000E+01 0.  0.
    9000005    1    3    3    0    0  0.85373638979E+02 -0.22446042192E+00 -0.72088141785E+02  0.11174260065E+03  0.10000000000E+01 0.  0.
          4    1    1    2  501    0 -0.55833426066E+02 -0.77021068073E+01 -0.18600496702E+03  0.19436088745E+03  0.12700000000E+01 0. -1.
<mgrwt>
<rscale>  1 0.13711532E+03</rscale>
<asrwt>0</asrwt>
<pdfrwt beam="2">  1       21 0.62570224E-01 0.13711532E+03</pdfrwt>
<pdfrwt beam="1">  1        4 0.39822684E-02 0.13711532E+03</pdfrwt>
<totfact> 0.33383325E+04</totfact>
</mgrwt>
</event>
<event>
 6    4  0.7919556E-003  0.1377417E+03  0.7818608E-02  0.1216400E+00
          4   -1    0    0  502    0 -0.00000000000E+00  0.00000000000E+00  0.20007315040E+03  0.20007718113E+03  0.12700000000E+01 0.  1.
         21   -1    0    0  501  502  0.00000000000E+00 -0.00000000000E+00 -0.66843467564E+02  0.66843467564E+02  0.00000000000E+00 0. -1.
         25    2    1    2    0    0  0.40562270404E+02  0.41404208190E+02  0.15281023915E+03  0.20572737029E+03  0.12495269290E+03 0.  0.
    9000005    1    3    3    0    0 -0.82538403533E+00 -0.37533466811E+02  0.87521219830E+02  0.95238680746E+02  0.10000000000E+01 0.  0.
    9000005    1    3    3    0    0  0.41387654439E+02  0.78937675000E+02  0.65289019320E+02  0.11048868955E+03  0.10000000000E+01 0.  0.
          4    1    1    2  501    0 -0.40562270404E+02 -0.41404208190E+02 -0.19580556316E+02  0.61193278404E+02  0.12700000000E+01 0. -1.
<mgrwt>
<rscale>  1 0.13774172E+03</rscale>
<asrwt>0</asrwt>
<pdfrwt beam="2">  1       21 0.10283610E-01 0.13774172E+03</pdfrwt>
<pdfrwt beam="1">  1        4 0.30781723E-01 0.13774172E+03</pdfrwt>
<totfact> 0.31791402E+04</totfact>
</mgrwt>
</event>
<event>
 6    4  0.7919556E-003  0.1492893E+03  0.7818608E-02  0.1201349E+00
         21   -1    0    0  501  502  0.00000000000E+00  0.00000000000E+00  0.13180884556E+03  0.13180884556E+03  0.00000000000E+00 0.  1.
         -4   -1    0    0    0  501 -0.00000000000E+00 -0.00000000000E+00 -0.38149286816E+03  0.38149498209E+03  0.12700000000E+01 0. -1.
         25    2    1    2    0    0  0.14182917776E+02 -0.80381822880E+02 -0.35203683534E+03  0.38238360850E+03  0.12499959204E+03 0.  0.
    9000005    1    3    3    0    0 -0.27445827555E+02  0.60801210417E+01 -0.20421081833E+03  0.20613902989E+03  0.10000000000E+01 0.  0.
    9000005    1    3    3    0    0  0.41628745331E+02 -0.86461943922E+02 -0.14782601701E+03  0.17624457861E+03  0.10000000000E+01 0.  0.
         -4    1    1    2    0  502 -0.14182917776E+02  0.80381822880E+02  0.10235281274E+03  0.13092021915E+03  0.12700000000E+01 0.  1.
<mgrwt>
<rscale>  1 0.14928928E+03</rscale>
<asrwt>0</asrwt>
<pdfrwt beam="1">  1       21 0.20278284E-01 0.14928928E+03</pdfrwt>
<pdfrwt beam="2">  1       -4 0.58691842E-01 0.14928928E+03</pdfrwt>
<totfact> 0.26017588E+03</totfact>
</mgrwt>
</event>
<event>
 6    4  0.7919556E-003  0.1346792E+03  0.7818608E-02  0.1220673E+00
          4   -1    0    0  502    0 -0.00000000000E+00  0.00000000000E+00  0.11991509294E+03  0.11992181793E+03  0.12700000000E+01 0.  1.
         21   -1    0    0  501  502  0.00000000000E+00 -0.00000000000E+00 -0.74651354092E+02  0.74651354092E+02  0.00000000000E+00 0.  1.
         25    2    1    2    0    0  0.36391219796E+02 -0.34497296487E+02  0.51158455802E+02  0.14406827195E+03  0.12499638010E+03 0.  0.
    9000005    1    3    3    0    0  0.24031757730E+02 -0.27797336474E+02 -0.38545847941E+02  0.53263493015E+02  0.10000000000E+01 0.  0.
    9000005    1    3    3    0    0  0.12359462065E+02 -0.66999600125E+01  0.89704303744E+02  0.90804778932E+02  0.10000000000E+01 0.  0.
          4    1    1    2  501    0 -0.36391219796E+02  0.34497296487E+02 -0.58947169562E+01  0.50504900070E+02  0.12700000000E+01 0. -1.
<mgrwt>
<rscale>  1 0.13467917E+03</rscale>
<asrwt>0</asrwt>
<pdfrwt beam="2">  1       21 0.11484824E-01 0.13467917E+03</pdfrwt>
<pdfrwt beam="1">  1        4 0.18449824E-01 0.13467917E+03</pdfrwt>
<totfact> 0.66841121E+04</totfact>
</mgrwt>
</event>
<event>
 6    4  0.7919556E-003  0.1274271E+03  0.7818608E-02  0.1231324E+00
         21   -1    0    0  501  502  0.00000000000E+00  0.00000000000E+00  0.48883311947E+01  0.48883311947E+01  0.00000000000E+00 0.  1.
          4   -1    0    0  502    0 -0.00000000000E+00 -0.00000000000E+00 -0.15790611743E+04  0.15790616850E+04  0.12700000000E+01 0.  1.
         25    2    1    2    0    0  0.21172043806E+02  0.12867674403E+02 -0.15063897305E+04  0.15117697160E+04  0.12499528623E+03 0.  0.
    9000005    1    3    3    0    0  0.31650392836E+02  0.47577332756E+02 -0.13507906947E+04  0.13519992052E+04  0.10000000000E+01 0.  0.
    9000005    1    3    3    0    0 -0.10478349030E+02 -0.34709658353E+02 -0.15559903578E+03  0.15977051078E+03  0.10000000000E+01 0.  0.
          4    1    1    2  501    0 -0.21172043806E+02 -0.12867674403E+02 -0.67783112580E+02  0.72180300183E+02  0.12700000000E+01 0. -1.
<mgrwt>
<rscale>  1 0.12742705E+03</rscale>
<asrwt>0</asrwt>
<pdfrwt beam="1">  1       21 0.75204917E-03 0.12742705E+03</pdfrwt>
<pdfrwt beam="2">  1        4 0.24294579E+00 0.12742705E+03</pdfrwt>
<totfact> 0.19194887E+04</totfact>
</mgrwt>
</event>
<event>
 6    4  0.7919556E-003  0.1299592E+03  0.7818608E-02  0.1227516E+00
         -4   -1    0    0    0  501 -0.00000000000E+00  0.00000000000E+00  0.13012740189E+03  0.13013359913E+03  0.12700000000E+01 0.  1.
         21   -1    0    0  501  502  0.00000000000E+00 -0.00000000000E+00 -0.66819812832E+02  0.66819812832E+02  0.00000000000E+00 0. -1.
         25    2    1    2    0    0 -0.35059807560E+02 -0.60024769974E+01  0.84984337749E+02  0.15527950921E+03  0.12499667389E+03 0.  0.
    9000005    1    3    3    0    0 -0.44996554013E+02 -0.58820039612E+02  0.62888090901E+02  0.97161715249E+02  0.10000000000E+01 0.  0.
    9000005    1    3    3    0    0  0.99367464526E+01  0.52817562614E+02  0.22096246848E+02  0.58117793965E+02  0.10000000000E+01 0.  0.
         -4    1    1    2    0  502  0.35059807560E+02  0.60024769974E+01 -0.21676748693E+02  0.41673902747E+02  0.12700000000E+01 0. -1.
<mgrwt>
<rscale>  1 0.12995918E+03</rscale>
<asrwt>0</asrwt>
<pdfrwt beam="2">  1       21 0.10279971E-01 0.12995918E+03</pdfrwt>
<pdfrwt beam="1">  1       -4 0.20021005E-01 0.12995918E+03</pdfrwt>
<totfact> 0.69858182E+04</totfact>
</mgrwt>
</event>
<event>
 6    4  0.7919556E-003  0.1282107E+03  0.7818608E-02  0.1230135E+00
         -4   -1    0    0    0  501 -0.00000000000E+00  0.00000000000E+00  0.97935835690E+03  0.97935918035E+03  0.12700000000E+01 0. -1.
         21   -1    0    0  501  502  0.00000000000E+00 -0.00000000000E+00 -0.34935696327E+02  0.34935696327E+02  0.00000000000E+00 0.  1.
         25    2    1    2    0    0 -0.27872245944E+02  0.59595833911E+01  0.96850794402E+03  0.97695732846E+03  0.12500242105E+03 0.  0.
    9000005    1    3    3    0    0  0.26424541055E+02  0.51135741792E+02  0.43771953930E+03  0.44148897557E+03  0.10000000000E+01 0.  0.
    9000005    1    3    3    0    0 -0.54296786999E+02 -0.45176158401E+02  0.53078840472E+03  0.53546835289E+03  0.10000000000E+01 0.  0.
         -4    1    1    2    0  502  0.27872245944E+02 -0.59595833911E+01 -0.24085283447E+02  0.37337548217E+02  0.12700000000E+01 0.  1.
<mgrwt>
<rscale>  1 0.12821070E+03</rscale>
<asrwt>0</asrwt>
<pdfrwt beam="2">  1       21 0.53747233E-02 0.12821070E+03</pdfrwt>
<pdfrwt beam="1">  1       -4 0.15067233E+00 0.12821070E+03</pdfrwt>
<totfact> 0.30776564E+03</totfact>
</mgrwt>
</event>
<event>
 6    4  0.7919556E-003  0.1331598E+03  0.7818608E-02  0.1222841E+00
         21   -1    0    0  501  502  0.00000000000E+00  0.00000000000E+00  0.69150134487E+03  0.69150134487E+03  0.00000000000E+00 0.  1.
          4   -1    0    0  502    0 -0.00000000000E+00 -0.00000000000E+00 -0.14989744952E+02  0.15043448864E+02  0.12700000000E+01 0. -1.
         25    2    1    2    0    0  0.41643059028E+02 -0.19306535912E+02  0.31304643445E+03  0.34019055791E+03  0.12499863551E+03 0.  0.
    9000005    1    3    3    0    0  0.50694502658E+02  0.40201072182E+02  0.22040652886E+03  0.22970872157E+03  0.10000000000E+01 0.  0.
    9000005    1    3    3    0    0 -0.90514436303E+01 -0.59507608095E+02  0.92639905590E+02  0.11048183634E+03  0.10000000000E+01 0.  0.
          4    1    1    2  501    0 -0.41643059028E+02  0.19306535912E+02  0.36346516548E+03  0.36635423583E+03  0.12700000000E+01 0.  1.
<mgrwt>
<rscale>  1 0.13315985E+03</rscale>
<asrwt>0</asrwt>
<pdfrwt beam="1">  1       21 0.10638480E+00 0.13315985E+03</pdfrwt>
<pdfrwt beam="2">  1        4 0.23103359E-02 0.13315985E+03</pdfrwt>
<totfact> 0.23674521E+04</totfact>
</mgrwt>
</event>
<event>
 6    4  0.7919556E-003  0.1272274E+03  0.7818608E-02  0.1231629E+00
         -4   -1    0    0    0  501 -0.00000000000E+00  0.00000000000E+00  0.12847468970E+03  0.12848096666E+03  0.12700000000E+01 0.  1.
         21   -1    0    0  501  502  0.00000000000E+00 -0.00000000000E+00 -0.81930240206E+02  0.81930240206E+02  0.00000000000E+00 0. -1.
         25    2    1    2    0    0  0.58170401509E+00  0.23698408147E+02  0.93436889820E+02  0.15785203271E+03  0.12499943570E+03 0.  0.
    9000005    1    3    3    0    0 -0.40237879068E+02 -0.36242369999E+02  0.32829340782E+02  0.63335313303E+02  0.10000000000E+01 0.  0.
    9000005    1    3    3    0    0  0.40819583084E+02  0.59940778145E+02  0.60607549038E+02  0.94516719411E+02  0.10000000000E+01 0.  0.
         -4    1    1    2    0  502 -0.58170401509E+00 -0.23698408147E+02 -0.46892440323E+02  0.52559174153E+02  0.12700000000E+01 0. -1.
<mgrwt>
<rscale>  1 0.12722740E+03</rscale>
<asrwt>0</asrwt>
<pdfrwt beam="2">  1       21 0.12604652E-01 0.12722740E+03</pdfrwt>
<pdfrwt beam="1">  1       -4 0.19766577E-01 0.12722740E+03</pdfrwt>
<totfact> 0.49742622E+04</totfact>
</mgrwt>
</event>
<event>
 6    4  0.7919556E-003  0.1288699E+03  0.7818608E-02  0.1229142E+00
         -4   -1    0    0    0  501 -0.00000000000E+00  0.00000000000E+00  0.81206084966E+01  0.82193176332E+01  0.12700000000E+01 0.  1.
         21   -1    0    0  501  502  0.00000000000E+00 -0.00000000000E+00 -0.86141018682E+03  0.86141018682E+03  0.00000000000E+00 0. -1.
         25    2    1    2    0    0  0.22356685996E+02 -0.21969268523E+02 -0.55848064531E+03  0.57315625093E+03  0.12499994652E+03 0.  0.
    9000005    1    3    3    0    0  0.44100208473E+02 -0.65665609566E+02 -0.31069778203E+03  0.32061021884E+03  0.10000000000E+01 0.  0.
    9000005    1    3    3    0    0 -0.21743522476E+02  0.43696341043E+02 -0.24778286328E+03  0.25254603209E+03  0.10000000000E+01 0.  0.
         -4    1    1    2    0  502 -0.22356685996E+02  0.21969268523E+02 -0.29480893302E+03  0.29647325352E+03  0.12700000000E+01 0. -1.
<mgrwt>
<rscale>  1 0.12886992E+03</rscale>
<asrwt>0</asrwt>
<pdfrwt beam="2">  1       21 0.13252463E+00 0.12886992E+03</pdfrwt>
<pdfrwt beam="1">  1       -4 0.12569896E-02 0.12886992E+03</pdfrwt>
<totfact> 0.35117177E+04</totfact>
</mgrwt>
</event>
<event>
 6    4  0.7919556E-003  0.1295586E+03  0.7818608E-02  0.1228112E+00
         21   -1    0    0  501  502  0.00000000000E+00  0.00000000000E+00  0.28665858871E+02  0.28665858871E+02  0.00000000000E+00 0.  1.
          4   -1    0    0  502    0 -0.00000000000E+00 -0.00000000000E+00 -0.28406118677E+03  0.28406402576E+03  0.12700000000E+01 0.  1.
         25    2    1    2    0    0  0.25758261635E+02 -0.22306599601E+02 -0.24489062812E+03  0.27705028197E+03  0.12499746627E+03 0.  0.
    9000005    1    3    3    0    0  0.31553508709E+02 -0.61350079161E+02 -0.21954505285E+03  0.23013145451E+03  0.10000000000E+01 0.  0.
    9000005    1    3    3    0    0 -0.57952470731E+01  0.39043479560E+02 -0.25345575266E+02  0.46918827461E+02  0.10000000000E+01 0.  0.
          4    1    1    2  501    0 -0.25758261635E+02  0.22306599601E+02 -0.10504699785E+02  0.35679602658E+02  0.12700000000E+01 0. -1.
<mgrwt>
<rscale>  1 0.12955863E+03</rscale>
<asrwt>0</asrwt>
<pdfrwt beam="1">  1       21 0.44101322E-02 0.12955863E+03</pdfrwt>
<pdfrwt beam="2">  1        4 0.43704103E-01 0.12955863E+03</pdfrwt>
<totfact> 0.67894953E+04</totfact>
</mgrwt>
</event>
<event>
 6    4  0.7919556E-003  0.1278340E+03  0.7818608E-02  0.1230706E+00
          4   -1    0    0  502    0 -0.00000000000E+00  0.00000000000E+00  0.47869371075E+02  0.47886215001E+02  0.12700000000E+01 0. -1.
         21   -1    0    0  501  502  0.00000000000E+00 -0.00000000000E+00 -0.43938367625E+03  0.43938367625E+03  0.00000000000E+00 0.  1.
         25    2    1    2    0    0 -0.11143737285E+02 -0.24332145178E+02 -0.38875184422E+02  0.13361441122E+03  0.12500117901E+03 0.  0.
    9000005    1    3    3    0    0 -0.35035713925E+02  0.42159143920E+02 -0.29719892195E+02  0.62363183517E+02  0.10000000000E+01 0.  0.
    9000005    1    3    3    0    0  0.23891976639E+02 -0.66491289098E+02 -0.91552922273E+01  0.71251227705E+02  0.10000000000E+01 0.  0.
          4    1    1    2  501    0  0.11143737285E+02  0.24332145178E+02 -0.35263912075E+03  0.35365548003E+03  0.12700000000E+01 0.  1.
<mgrwt>
<rscale>  1 0.12783400E+03</rscale>
<asrwt>0</asrwt>
<pdfrwt beam="2">  1       21 0.67597491E-01 0.12783400E+03</pdfrwt>
<pdfrwt beam="1">  1        4 0.73659552E-02 0.12783400E+03</pdfrwt>
<totfact> 0.10406061E+04</totfact>
</mgrwt>
</event>
<event>
 6    4  0.7919556E-003  0.1327192E+03  0.7818608E-02  0.1223476E+00
         -4   -1    0    0    0  501 -0.00000000000E+00  0.00000000000E+00  0.63714718061E+02  0.63727374005E+02  0.12700000000E+01 0. -1.
         21   -1    0    0  501  502  0.00000000000E+00 -0.00000000000E+00 -0.12501516001E+03  0.12501516001E+03  0.00000000000E+00 0.  1.
         25    2    1    2    0    0  0.44416484465E+02 -0.40700822958E+01 -0.55062048311E+02  0.14368789921E+03  0.12499997421E+03 0.  0.
    9000005    1    3    3    0    0  0.72850463828E+02 -0.42363416785E+02 -0.27818755606E+02  0.88750956756E+02  0.10000000000E+01 0.  0.
    9000005    1    3    3    0    0 -0.28433979362E+02  0.38293334489E+02 -0.27243292706E+02  0.54936942453E+02  0.10000000000E+01 0.  0.
         -4    1    1    2    0  502 -0.44416484465E+02  0.40700822958E+01 -0.62383936346E+01  0.45054634804E+02  0.12700000000E+01 0.  1.
<mgrwt>
<rscale>  1 0.13271919E+03</rscale>
<asrwt>0</asrwt>
<pdfrwt beam="2">  1       21 0.19233102E-01 0.13271919E+03</pdfrwt>
<pdfrwt beam="1">  1       -4 0.98037340E-02 0.13271919E+03</pdfrwt>
<totfact> 0.78547467E+04</totfact>
</mgrwt>
</event>
<event>
 6    4  0.7919556E-003  0.1283482E+03  0.7818608E-02  0.1229928E+00
         21   -1    0    0  501  502  0.00000000000E+00  0.00000000000E+00  0.26562735441E+02  0.26562735441E+02  0.00000000000E+00 0. -1.
         -4   -1    0    0    0  501 -0.00000000000E+00 -0.00000000000E+00 -0.27108178121E+03  0.27108475613E+03  0.12700000000E+01 0. -1.
         25    2    1    2    0    0  0.25584295363E+02 -0.14046576164E+02 -0.23345097426E+03  0.26640685172E+03  0.12498556232E+03 0.  0.
    9000005    1    3    3    0    0  0.31421623923E+02 -0.44243718203E+02 -0.32814181543E+02  0.63423935235E+02  0.10000000000E+01 0.  0.
    9000005    1    3    3    0    0 -0.58373285600E+01  0.30197142038E+02 -0.20063679272E+03  0.20298291649E+03  0.10000000000E+01 0.  0.
         -4    1    1    2    0  502 -0.25584295363E+02  0.14046576164E+02 -0.11068071506E+02  0.31240639847E+02  0.12700000000E+01 0.  1.
<mgrwt>
<rscale>  1 0.12834817E+03</rscale>
<asrwt>0</asrwt>
<pdfrwt beam="1">  1       21 0.40865748E-02 0.12834817E+03</pdfrwt>
<pdfrwt beam="2">  1       -4 0.41707452E-01 0.12834817E+03</pdfrwt>
<totfact> 0.84469444E+04</totfact>
</mgrwt>
</event>
<event>
 6    4  0.7919556E-003  0.1272947E+03  0.7818608E-02  0.1231526E+00
          4   -1    0    0  502    0 -0.00000000000E+00  0.00000000000E+00  0.43154507482E+02  0.43173190941E+02  0.12700000000E+01 0. -1.
         21   -1    0    0  501  502  0.00000000000E+00 -0.00000000000E+00 -0.13373538835E+03  0.13373538835E+03  0.00000000000E+00 0. -1.
         25    2    1    2    0    0 -0.43227668883E+01 -0.23677191295E+02 -0.70348290701E+02  0.14544008225E+03  0.12499855927E+03 0.  0.
    9000005    1    3    3    0    0  0.47640969009E+02  0.10208524297E+02 -0.67600849298E+02  0.83335170980E+02  0.10000000000E+01 0.  0.
    9000005    1    3    3    0    0 -0.51963735897E+02 -0.33885715592E+02 -0.27474414024E+01  0.62104911270E+02  0.10000000000E+01 0.  0.
          4    1    1    2  501    0  0.43227668883E+01  0.23677191295E+02 -0.20232590170E+02  0.31468497043E+02  0.12700000000E+01 0.  1.
<mgrwt>
<rscale>  1 0.12729468E+03</rscale>
<asrwt>0</asrwt>
<pdfrwt beam="2">  1       21 0.20574675E-01 0.12729468E+03</pdfrwt>
<pdfrwt beam="1">  1        4 0.66410561E-02 0.12729468E+03</pdfrwt>
<totfact> 0.13144657E+05</totfact>
</mgrwt>
</event>
<event>
 6    4  0.7919556E-003  0.1302152E+03  0.7818608E-02  0.1227137E+00
         -4   -1    0    0    0  501 -0.00000000000E+00  0.00000000000E+00  0.75327080167E+02  0.75337785383E+02  0.12700000000E+01 0.  1.
         21   -1    0    0  501  502  0.00000000000E+00 -0.00000000000E+00 -0.30736555412E+03  0.30736555412E+03  0.00000000000E+00 0. -1.
         25    2    1    2    0    0  0.26098817840E+02  0.25444227268E+02  0.16721041605E+02  0.13128443314E+03  0.12500980826E+03 0.  0.
    9000005    1    3    3    0    0  0.12708400362E+02  0.39162272533E+02  0.66338461477E+02  0.78083151197E+02  0.10000000000E+01 0.  0.
    9000005    1    3    3    0    0  0.13390417477E+02 -0.13718045265E+02 -0.49617419872E+02  0.53201281948E+02  0.10000000000E+01 0.  0.
         -4    1    1    2    0  502 -0.26098817840E+02 -0.25444227268E+02 -0.24875951556E+03  0.25141890636E+03  0.12700000000E+01 0. -1.
<mgrwt>
<rscale>  1 0.13021524E+03</rscale>
<asrwt>0</asrwt>
<pdfrwt beam="2">  1       21 0.47287009E-01 0.13021524E+03</pdfrwt>
<pdfrwt beam="1">  1       -4 0.11589807E-01 0.13021524E+03</pdfrwt>
<totfact> 0.10352609E+04</totfact>
</mgrwt>
</event>
<event>
 6    4  0.7919556E-003  0.1401903E+03  0.7818608E-02  0.1213073E+00
         -4   -1    0    0    0  501 -0.00000000000E+00  0.00000000000E+00  0.42108985847E+02  0.42128132988E+02  0.12700000000E+01 0. -1.
         21   -1    0    0  501  502  0.00000000000E+00 -0.00000000000E+00 -0.37493161621E+03  0.37493161621E+03  0.00000000000E+00 0.  1.
         25    2    1    2    0    0 -0.52394742168E+02 -0.35816981657E+02 -0.91216961745E+02  0.16725387018E+03  0.12500103119E+03 0.  0.
    9000005    1    3    3    0    0 -0.23529354967E+02  0.19353332668E+02  0.22306168281E+02  0.37772306971E+02  0.10000000000E+01 0.  0.
    9000005    1    3    3    0    0 -0.28865387201E+02 -0.55170314326E+02 -0.11352313003E+03  0.12948156321E+03  0.10000000000E+01 0.  0.
         -4    1    1    2    0  502  0.52394742168E+02  0.35816981657E+02 -0.24160566862E+03  0.24980587902E+03  0.12700000000E+01 0.  1.
<mgrwt>
<rscale>  1 0.14019031E+03</rscale>
<asrwt>0</asrwt>
<pdfrwt beam="2">  1       21 0.57681787E-01 0.14019031E+03</pdfrwt>
<pdfrwt beam="1">  1       -4 0.64799438E-02 0.14019031E+03</pdfrwt>
<totfact> 0.18158598E+04</totfact>
</mgrwt>
</event>
<event>
 6    4  0.7919556E-003  0.1283856E+03  0.7818608E-02  0.1229871E+00
         21   -1    0    0  501  502  0.00000000000E+00  0.00000000000E+00  0.47809691234E+02  0.47809691234E+02  0.00000000000E+00 0.  1.
          4   -1    0    0  502    0 -0.00000000000E+00 -0.00000000000E+00 -0.13017458503E+03  0.13018078002E+03  0.12700000000E+01 0.  1.
         25    2    1    2    0    0 -0.23800122475E+02 -0.17144927423E+02 -0.68603843946E+02  0.14556557713E+03  0.12498982149E+03 0.  0.
    9000005    1    3    3    0    0 -0.35685230463E+02 -0.22248202795E+02  0.26411448976E+02  0.49668730987E+02  0.10000000000E+01 0.  0.
    9000005    1    3    3    0    0  0.11885107988E+02  0.51032753727E+01 -0.95015292922E+02  0.95896846145E+02  0.10000000000E+01 0.  0.
          4    1    1    2  501    0  0.23800122475E+02  0.17144927423E+02 -0.13761049850E+02  0.32424894127E+02  0.12700000000E+01 0. -1.
<mgrwt>
<rscale>  1 0.12838555E+03</rscale>
<asrwt>0</asrwt>
<pdfrwt beam="1">  1       21 0.73553372E-02 0.12838555E+03</pdfrwt>
<pdfrwt beam="2">  1        4 0.20028633E-01 0.12838555E+03</pdfrwt>
<totfact> 0.12451010E+05</totfact>
</mgrwt>
</event>
<event>
 6    4  0.7919556E-003  0.1274893E+03  0.7818608E-02  0.1231229E+00
         -4   -1    0    0    0  501 -0.00000000000E+00  0.00000000000E+00  0.29484162485E+02  0.29511501783E+02  0.12700000000E+01 0.  1.
         21   -1    0    0  501  502  0.00000000000E+00 -0.00000000000E+00 -0.26874735045E+03  0.26874735045E+03  0.00000000000E+00 0.  1.
         25    2    1    2    0    0  0.22928231322E+02  0.10151688404E+02 -0.11567431888E+03  0.17214548248E+03  0.12499903408E+03 0.  0.
    9000005    1    3    3    0    0 -0.29878433174E+02  0.48471665961E+02 -0.29748508330E+02  0.64251046045E+02  0.10000000000E+01 0.  0.
    9000005    1    3    3    0    0  0.52806664496E+02 -0.38319977557E+02 -0.85925810554E+02  0.10789443644E+03  0.10000000000E+01 0.  0.
         -4    1    1    2    0  502 -0.22928231322E+02 -0.10151688404E+02 -0.12358886908E+03  0.12611336975E+03  0.12700000000E+01 0. -1.
<mgrwt>
<rscale>  1 0.12748929E+03</rscale>
<asrwt>0</asrwt>
<pdfrwt beam="2">  1       21 0.41345745E-01 0.12748929E+03</pdfrwt>
<pdfrwt beam="1">  1       -4 0.45383589E-02 0.12748929E+03</pdfrwt>
<totfact> 0.63461540E+04</totfact>
</mgrwt>
</event>
<event>
 6    4  0.7919556E-003  0.1271741E+03  0.7818608E-02  0.1231710E+00
         21   -1    0    0  501  502  0.00000000000E+00  0.00000000000E+00  0.82423748710E+01  0.82423748710E+01  0.00000000000E+00 0. -1.
          4   -1    0    0  502    0 -0.00000000000E+00 -0.00000000000E+00 -0.69072268100E+03  0.69072384855E+03  0.12700000000E+01 0. -1.
         25    2    1    2    0    0  0.17997352363E+02 -0.14997404163E+02 -0.59068296731E+03  0.60421818313E+03  0.12499767250E+03 0.  0.
    9000005    1    3    3    0    0  0.45116978751E+02  0.32831342197E+02 -0.14870034052E+03  0.15882767414E+03  0.10000000000E+01 0.  0.
    9000005    1    3    3    0    0 -0.27119626388E+02 -0.47828746360E+02 -0.44198262679E+03  0.44539050899E+03  0.10000000000E+01 0.  0.
          4    1    1    2  501    0 -0.17997352363E+02  0.14997404163E+02 -0.91797338822E+02  0.94748040288E+02  0.12700000000E+01 0.  1.
<mgrwt>
<rscale>  1 0.12717407E+03</rscale>
<asrwt>0</asrwt>
<pdfrwt beam="1">  1       21 0.12680577E-02 0.12717407E+03</pdfrwt>
<pdfrwt beam="2">  1        4 0.10627264E+00 0.12717407E+03</pdfrwt>
<totfact> 0.75928768E+04</totfact>
</mgrwt>
</event>
<event>
 6    4  0.7919556E-003  0.1593117E+03  0.7818608E-02  0.1189476E+00
          4   -1    0    0  502    0 -0.00000000000E+00  0.00000000000E+00  0.62495296492E+03  0.62495425534E+03  0.12700000000E+01 0.  1.
         21   -1    0    0  501  502  0.00000000000E+00 -0.00000000000E+00 -0.28918770924E+02  0.28918770924E+02  0.00000000000E+00 0. -1.
         25    2    1    2    0    0 -0.36811699758E+02 -0.91638998598E+02  0.45179638907E+03  0.47906180073E+03  0.12500969736E+03 0.  0.
    9000005    1    3    3    0    0  0.18581028595E+02  0.21255349165E+02  0.43761015330E+02  0.52087147690E+02  0.10000000000E+01 0.  0.
    9000005    1    3    3    0    0 -0.55392728354E+02 -0.11289434776E+03  0.40803537374E+03  0.42697465304E+03  0.10000000000E+01 0.  0.
          4    1    1    2  501    0  0.36811699758E+02  0.91638998598E+02  0.14423780492E+03  0.17481122553E+03  0.12700000000E+01 0. -1.
<mgrwt>
<rscale>  1 0.15931174E+03</rscale>
<asrwt>0</asrwt>
<pdfrwt beam="2">  1       21 0.44490421E-02 0.15931174E+03</pdfrwt>
<pdfrwt beam="1">  1        4 0.96148844E-01 0.15931174E+03</pdfrwt>
<totfact> 0.12716014E+04</totfact>
</mgrwt>
</event>
<event>
 6    4  0.7919556E-003  0.1269276E+03  0.7818608E-02  0.1232087E+00
         21   -1    0    0  501  502  0.00000000000E+00  0.00000000000E+00  0.64267407174E+02  0.64267407174E+02  0.00000000000E+00 0.  1.
          4   -1    0    0  502    0 -0.00000000000E+00 -0.00000000000E+00 -0.24004001085E+03  0.24004337047E+03  0.12700000000E+01 0. -1.
         25    2    1    2    0    0  0.22016955611E+02  0.56610283237E+00 -0.22050914466E+03  0.25443054302E+03  0.12500220614E+03 0.  0.
    9000005    1    3    3    0    0  0.42704231115E+02  0.20014089798E+02 -0.22103705748E+03  0.22601459228E+03  0.10000000000E+01 0.  0.
    9000005    1    3    3    0    0 -0.20687275504E+02 -0.19447986966E+02  0.52791281944E+00  0.28415950745E+02  0.10000000000E+01 0.  0.
          4    1    1    2  501    0 -0.22016955611E+02 -0.56610283237E+00  0.44736540983E+02  0.49880234622E+02  0.12700000000E+01 0.  1.
<mgrwt>
<rscale>  1 0.12692761E+03</rscale>
<asrwt>0</asrwt>
<pdfrwt beam="1">  1       21 0.98872936E-02 0.12692761E+03</pdfrwt>
<pdfrwt beam="2">  1        4 0.36930455E-01 0.12692761E+03</pdfrwt>
<totfact> 0.23793990E+04</totfact>
</mgrwt>
</event>
<event>
 6    4  0.7919556E-003  0.1293872E+03  0.7818608E-02  0.1228368E+00
         21   -1    0    0  501  502  0.00000000000E+00  0.00000000000E+00  0.76370380488E+01  0.76370380488E+01  0.00000000000E+00 0.  1.
          4   -1    0    0  502    0 -0.00000000000E+00 -0.00000000000E+00 -0.12655724126E+04  0.12655730498E+04  0.12700000000E+01 0. -1.
         25    2    1    2    0    0 -0.33395547724E+02 -0.10167456658E+01 -0.11946415467E+04  0.12016278420E+04  0.12499899680E+03 0.  0.
    9000005    1    3    3    0    0 -0.29483877818E+01 -0.60907250202E+02 -0.48714312834E+03  0.49094583572E+03  0.10000000000E+01 0.  0.
    9000005    1    3    3    0    0 -0.30447159943E+02  0.59890504537E+02 -0.70749841832E+03  0.71068200625E+03  0.10000000000E+01 0.  0.
          4    1    1    2  501    0  0.33395547724E+02  0.10167456658E+01 -0.63293827889E+02  0.71582245903E+02  0.12700000000E+01 0.  1.
<mgrwt>
<rscale>  1 0.12938719E+03</rscale>
<asrwt>0</asrwt>
<pdfrwt beam="1">  1       21 0.11749288E-02 0.12938719E+03</pdfrwt>
<pdfrwt beam="2">  1        4 0.19471164E+00 0.12938719E+03</pdfrwt>
<totfact> 0.18524282E+04</totfact>
</mgrwt>
</event>
<event>
 6    4  0.7919556E-003  0.1296151E+03  0.7818608E-02  0.1228028E+00
         -4   -1    0    0    0  501 -0.00000000000E+00  0.00000000000E+00  0.30244659821E+03  0.30244926462E+03  0.12700000000E+01 0. -1.
         21   -1    0    0  501  502  0.00000000000E+00 -0.00000000000E+00 -0.23374886288E+02  0.23374886288E+02  0.00000000000E+00 0. -1.
         25    2    1    2    0    0 -0.34165622574E+02  0.27361613916E+01  0.18662586236E+03  0.22722078207E+03  0.12500117982E+03 0.  0.
    9000005    1    3    3    0    0  0.31405320634E+02  0.92828760559E+01  0.39267078725E+01  0.32998257328E+02  0.10000000000E+01 0.  0.
    9000005    1    3    3    0    0 -0.65570943209E+02 -0.65467146643E+01  0.18269915448E+03  0.19422252474E+03  0.10000000000E+01 0.  0.
         -4    1    1    2    0  502  0.34165622574E+02 -0.27361613916E+01  0.92445849563E+02  0.98603368839E+02  0.12700000000E+01 0.  1.
<mgrwt>
<rscale>  1 0.12961509E+03</rscale>
<asrwt>0</asrwt>
<pdfrwt beam="2">  1       21 0.35961366E-02 0.12961509E+03</pdfrwt>
<pdfrwt beam="1">  1       -4 0.46533102E-01 0.12961509E+03</pdfrwt>
<totfact> 0.84047084E+04</totfact>
</mgrwt>
</event>
<event>
 6    4  0.7919556E-003  0.1750195E+03  0.7818608E-02  0.1172712E+00
         -4   -1    0    0    0  501 -0.00000000000E+00  0.00000000000E+00  0.29494055492E+03  0.29494328919E+03  0.12700000000E+01 0. -1.
         21   -1    0    0  501  502  0.00000000000E+00 -0.00000000000E+00 -0.20063665493E+03  0.20063665493E+03  0.00000000000E+00 0.  1.
         25    2    1    2    0    0  0.94706750256E+02  0.77695954179E+02  0.24517526533E+03  0.30123537481E+03  0.12500324182E+03 0.  0.
    9000005    1    3    3    0    0  0.10763979333E+03  0.79541663252E+02  0.13436337019E+03  0.18965156617E+03  0.10000000000E+01 0.  0.
    9000005    1    3    3    0    0 -0.12933043078E+02 -0.18457090727E+01  0.11081189514E+03  0.11158380864E+03  0.10000000000E+01 0.  0.
         -4    1    1    2    0  502 -0.94706750256E+02 -0.77695954179E+02 -0.15087136534E+03  0.19434456931E+03  0.12700000000E+01 0.  1.
<mgrwt>
<rscale>  1 0.17501954E+03</rscale>
<asrwt>0</asrwt>
<pdfrwt beam="2">  1       21 0.30867177E-01 0.17501954E+03</pdfrwt>
<pdfrwt beam="1">  1       -4 0.45375990E-01 0.17501954E+03</pdfrwt>
<totfact> 0.19976864E+03</totfact>
</mgrwt>
</event>
<event>
 6    4  0.7919556E-003  0.1271214E+03  0.7818608E-02  0.1231791E+00
         21   -1    0    0  501  502  0.00000000000E+00  0.00000000000E+00  0.31309408686E+02  0.31309408686E+02  0.00000000000E+00 0.  1.
          4   -1    0    0  502    0 -0.00000000000E+00 -0.00000000000E+00 -0.18864458373E+03  0.18864885865E+03  0.12700000000E+01 0. -1.
         25    2    1    2    0    0 -0.18833361347E+02  0.13411401951E+02 -0.14771614029E+03  0.19488437790E+03  0.12500120577E+03 0.  0.
    9000005    1    3    3    0    0 -0.65396860174E+02  0.27089915876E+02 -0.11905674926E+03  0.13851397910E+03  0.10000000000E+01 0.  0.
    9000005    1    3    3    0    0  0.46563498827E+02 -0.13678513925E+02 -0.28659391038E+02  0.56370398800E+02  0.10000000000E+01 0.  0.
          4    1    1    2  501    0  0.18833361347E+02 -0.13411401951E+02 -0.96190347493E+01  0.25073889436E+02  0.12700000000E+01 0.  1.
<mgrwt>
<rscale>  1 0.12712145E+03</rscale>
<asrwt>0</asrwt>
<pdfrwt beam="1">  1       21 0.48168321E-02 0.12712145E+03</pdfrwt>
<pdfrwt beam="2">  1        4 0.29024554E-01 0.12712145E+03</pdfrwt>
<totfact> 0.12890041E+05</totfact>
</mgrwt>
</event>
<event>
 6    4  0.7919556E-003  0.1280165E+03  0.7818608E-02  0.1230429E+00
         21   -1    0    0  501  502  0.00000000000E+00  0.00000000000E+00  0.31058008024E+02  0.31058008024E+02  0.00000000000E+00 0.  1.
          4   -1    0    0  502    0 -0.00000000000E+00 -0.00000000000E+00 -0.25962500015E+03  0.25962810635E+03  0.12700000000E+01 0.  1.
         25    2    1    2    0    0 -0.13478670810E+02  0.24105787393E+02 -0.22975580680E+03  0.26301320825E+03  0.12500181361E+03 0.  0.
    9000005    1    3    3    0    0 -0.63710294509E+02  0.35519280844E+02 -0.16387520855E+03  0.17937866349E+03  0.10000000000E+01 0.  0.
    9000005    1    3    3    0    0  0.50231623699E+02 -0.11413493451E+02 -0.65880598245E+02  0.83634544761E+02  0.10000000000E+01 0.  0.
          4    1    1    2  501    0  0.13478670810E+02 -0.24105787393E+02  0.11888146675E+01  0.27672906117E+02  0.12700000000E+01 0. -1.
<mgrwt>
<rscale>  1 0.12801647E+03</rscale>
<asrwt>0</asrwt>
<pdfrwt beam="1">  1       21 0.47781553E-02 0.12801647E+03</pdfrwt>
<pdfrwt beam="2">  1        4 0.39944542E-01 0.12801647E+03</pdfrwt>
<totfact> 0.70824539E+04</totfact>
</mgrwt>
</event>
<event>
 6    4  0.7919556E-003  0.1446611E+03  0.7818608E-02  0.1207191E+00
          4   -1    0    0  502    0 -0.00000000000E+00  0.00000000000E+00  0.70528762491E+02  0.70540195907E+02  0.12700000000E+01 0. -1.
         21   -1    0    0  501  502  0.00000000000E+00 -0.00000000000E+00 -0.56650544328E+03  0.56650544328E+03  0.00000000000E+00 0.  1.
         25    2    1    2    0    0 -0.51396049944E+02 -0.51586792964E+02 -0.93110212714E+01  0.14496045529E+03  0.12499634924E+03 0.  0.
    9000005    1    3    3    0    0  0.35845767753E+02  0.34173577790E+01 -0.20114282392E+02  0.41257505452E+02  0.10000000000E+01 0.  0.
    9000005    1    3    3    0    0 -0.87241817697E+02 -0.55004150743E+02  0.10803261120E+02  0.10370294984E+03  0.10000000000E+01 0.  0.
          4    1    1    2  501    0  0.51396049944E+02  0.51586792964E+02 -0.48666565952E+03  0.49208518390E+03  0.12700000000E+01 0.  1.
<mgrwt>
<rscale>  1 0.14466112E+03</rscale>
<asrwt>0</asrwt>
<pdfrwt beam="2">  1       21 0.87154687E-01 0.14466112E+03</pdfrwt>
<pdfrwt beam="1">  1        4 0.10851567E-01 0.14466112E+03</pdfrwt>
<totfact> 0.31182784E+03</totfact>
</mgrwt>
</event>
<event>
 6    4  0.7919556E-003  0.1268477E+03  0.7818608E-02  0.1232210E+00
         21   -1    0    0  501  502  0.00000000000E+00  0.00000000000E+00  0.19284964130E+03  0.19284964130E+03  0.00000000000E+00 0. -1.
         -4   -1    0    0    0  501 -0.00000000000E+00 -0.00000000000E+00 -0.10853637920E+03  0.10854380918E+03  0.12700000000E+01 0.  1.
         25    2    1    2    0    0 -0.50252803323E+01  0.20948850008E+02 -0.70473344017E+02  0.14510968903E+03  0.12500488740E+03 0.  0.
    9000005    1    3    3    0    0  0.75281341865E+01  0.21655733821E+02 -0.10545525577E+03  0.10792337366E+03  0.10000000000E+01 0.  0.
    9000005    1    3    3    0    0 -0.12553414519E+02 -0.70688381279E+00  0.34981911756E+02  0.37186315371E+02  0.10000000000E+01 0.  0.
         -4    1    1    2    0  502  0.50252803323E+01 -0.20948850008E+02  0.15478660611E+03  0.15628376144E+03  0.12700000000E+01 0. -1.
<mgrwt>
<rscale>  1 0.12684766E+03</rscale>
<asrwt>0</asrwt>
<pdfrwt beam="1">  1       21 0.29669176E-01 0.12684766E+03</pdfrwt>
<pdfrwt beam="2">  1       -4 0.16698798E-01 0.12684766E+03</pdfrwt>
<totfact> 0.13829545E+04</totfact>
</mgrwt>
</event>
<event>
 6    4  0.7919556E-003  0.1280852E+03  0.7818608E-02  0.1230325E+00
         21   -1    0    0  501  502  0.00000000000E+00  0.00000000000E+00  0.39777241334E+02  0.39777241334E+02  0.00000000000E+00 0. -1.
         -4   -1    0    0    0  501 -0.00000000000E+00 -0.00000000000E+00 -0.15312657677E+03  0.15313184324E+03  0.12700000000E+01 0. -1.
         25    2    1    2    0    0 -0.26919801247E+02  0.75203989207E+01 -0.94489316844E+02  0.15916674766E+03  0.12499836184E+03 0.  0.
    9000005    1    3    3    0    0 -0.82288751066E+01 -0.41864914553E+02 -0.97331350808E+02  0.10627688980E+03  0.10000000000E+01 0.  0.
    9000005    1    3    3    0    0 -0.18690926140E+02  0.49385313474E+02  0.28420339641E+01  0.52889857855E+02  0.10000000000E+01 0.  0.
         -4    1    1    2    0  502  0.26919801247E+02 -0.75203989207E+01 -0.18860018595E+02  0.33742336915E+02  0.12700000000E+01 0.  1.
<mgrwt>
<rscale>  1 0.12808522E+03</rscale>
<asrwt>0</asrwt>
<pdfrwt beam="1">  1       21 0.61195757E-02 0.12808522E+03</pdfrwt>
<pdfrwt beam="2">  1       -4 0.23559899E-01 0.12808522E+03</pdfrwt>
<totfact> 0.12689591E+05</totfact>
</mgrwt>
</event>
<event>
 6    4  0.7919556E-003  0.1300292E+03  0.7818608E-02  0.1227412E+00
          4   -1    0    0  502    0 -0.00000000000E+00  0.00000000000E+00  0.55575940260E+03  0.55576085368E+03  0.12700000000E+01 0. -1.
         21   -1    0    0  501  502  0.00000000000E+00 -0.00000000000E+00 -0.28201538306E+02  0.28201538306E+02  0.00000000000E+00 0.  1.
         25    2    1    2    0    0 -0.32095534505E+02 -0.15995069768E+02  0.53213277419E+03  0.54778908287E+03  0.12498649666E+03 0.  0.
    9000005    1    3    3    0    0 -0.71205476617E+02  0.89768807740E+01  0.42523656677E+03  0.43125159943E+03  0.10000000000E+01 0.  0.
    9000005    1    3    3    0    0  0.39109942112E+02 -0.24971950542E+02  0.10689620742E+03  0.11653748344E+03  0.10000000000E+01 0.  0.
          4    1    1    2  501    0  0.32095534505E+02  0.15995069768E+02 -0.45749098939E+01  0.36173309119E+02  0.12700000000E+01 0.  1.
<mgrwt>
<rscale>  1 0.13002919E+03</rscale>
<asrwt>0</asrwt>
<pdfrwt beam="2">  1       21 0.43386986E-02 0.13002919E+03</pdfrwt>
<pdfrwt beam="1">  1        4 0.85503749E-01 0.13002919E+03</pdfrwt>
<totfact> 0.16963571E+04</totfact>
</mgrwt>
</event>
<event>
 6    4  0.7919556E-003  0.1270122E+03  0.7818608E-02  0.1231958E+00
          4   -1    0    0  502    0 -0.00000000000E+00  0.00000000000E+00  0.27603094018E+02  0.27632294501E+02  0.12700000000E+01 0.  1.
         21   -1    0    0  501  502  0.00000000000E+00 -0.00000000000E+00 -0.45162213704E+03  0.45162213704E+03  0.00000000000E+00 0. -1.
         25    2    1    2    0    0  0.22515358282E+02  0.47532158627E-02 -0.12108204747E+03  0.17547922262E+03  0.12500061588E+03 0.  0.
    9000005    1    3    3    0    0  0.58338183766E+02  0.40932129552E+02 -0.55900460755E+02  0.90579492312E+02  0.10000000000E+01 0.  0.
    9000005    1    3    3    0    0 -0.35822825485E+02 -0.40927376336E+02 -0.65181586711E+02  0.84899730304E+02  0.10000000000E+01 0.  0.
          4    1    1    2  501    0 -0.22515358282E+02 -0.47532158627E-02 -0.30293699556E+03  0.30377520892E+03  0.12700000000E+01 0. -1.
<mgrwt>
<rscale>  1 0.12701219E+03</rscale>
<asrwt>0</asrwt>
<pdfrwt beam="2">  1       21 0.69480326E-01 0.12701219E+03</pdfrwt>
<pdfrwt beam="1">  1        4 0.42490136E-02 0.12701219E+03</pdfrwt>
<totfact> 0.23849315E+04</totfact>
</mgrwt>
</event>
<event>
 6    4  0.7919556E-003  0.1298168E+03  0.7818608E-02  0.1227728E+00
         -4   -1    0    0    0  501 -0.00000000000E+00  0.00000000000E+00  0.15922511904E+02  0.15973080020E+02  0.12700000000E+01 0. -1.
         21   -1    0    0  501  502  0.00000000000E+00 -0.00000000000E+00 -0.45111200900E+03  0.45111200900E+03  0.00000000000E+00 0.  1.
         25    2    1    2    0    0 -0.16039018254E+02 -0.31151353374E+02 -0.29013203215E+03  0.31785058242E+03  0.12499895896E+03 0.  0.
    9000005    1    3    3    0    0  0.37726063409E+02 -0.45289409671E+02 -0.73629578316E+02  0.94322326581E+02  0.10000000000E+01 0.  0.
    9000005    1    3    3    0    0 -0.53765081663E+02  0.14138056298E+02 -0.21650245384E+03  0.22352825584E+03  0.10000000000E+01 0.  0.
         -4    1    1    2    0  502  0.16039018254E+02  0.31151353374E+02 -0.14505746494E+03  0.14923450660E+03  0.12700000000E+01 0.  1.
<mgrwt>
<rscale>  1 0.12981678E+03</rscale>
<asrwt>0</asrwt>
<pdfrwt beam="2">  1       21 0.69401843E-01 0.12981678E+03</pdfrwt>
<pdfrwt beam="1">  1       -4 0.24536448E-02 0.12981678E+03</pdfrwt>
<totfact> 0.56751750E+04</totfact>
</mgrwt>
</event>
<event>
 6    4  0.7919556E-003  0.1270690E+03  0.7818608E-02  0.1231871E+00
         -4   -1    0    0    0  501 -0.00000000000E+00  0.00000000000E+00  0.24684017813E+02  0.24716667158E+02  0.12700000000E+01 0.  1.
         21   -1    0    0  501  502  0.00000000000E+00 -0.00000000000E+00 -0.22785750440E+03  0.22785750440E+03  0.00000000000E+00 0.  1.
         25    2    1    2    0    0 -0.13885880518E+02 -0.18149214142E+02 -0.16890842757E+03  0.21136836103E+03  0.12499726193E+03 0.  0.
    9000005    1    3    3    0    0  0.39626198652E+02 -0.41333732981E+02 -0.39931170382E+02  0.69815553209E+02  0.10000000000E+01 0.  0.
    9000005    1    3    3    0    0 -0.53512079171E+02  0.23184518840E+02 -0.12897725719E+03  0.14155280782E+03  0.10000000000E+01 0.  0.
         -4    1    1    2    0  502  0.13885880518E+02  0.18149214142E+02 -0.34265059022E+02  0.41205810531E+02  0.12700000000E+01 0. -1.
<mgrwt>
<rscale>  1 0.12706899E+03</rscale>
<asrwt>0</asrwt>
<pdfrwt beam="2">  1       21 0.35055001E-01 0.12706899E+03</pdfrwt>
<pdfrwt beam="1">  1       -4 0.38003249E-02 0.12706899E+03</pdfrwt>
<totfact> 0.11671414E+05</totfact>
</mgrwt>
</event>
<event>
 6    4  0.7919556E-003  0.1268324E+03  0.7818608E-02  0.1232233E+00
         21   -1    0    0  501  502  0.00000000000E+00  0.00000000000E+00  0.15131319942E+03  0.15131319942E+03  0.00000000000E+00 0.  1.
         -4   -1    0    0    0  501 -0.00000000000E+00 -0.00000000000E+00 -0.37000373951E+02  0.37022163261E+02  0.12700000000E+01 0.  1.
         25    2    1    2    0    0  0.18414699188E+02 -0.11077698345E+02  0.10586946379E+03  0.16521135345E+03  0.12499852558E+03 0.  0.
    9000005    1    3    3    0    0  0.28923790929E+02 -0.50424094833E+02  0.10984250500E+03  0.12428013086E+03  0.10000000000E+01 0.  0.
    9000005    1    3    3    0    0 -0.10509091740E+02  0.39346396488E+02 -0.39730412123E+01  0.40931222585E+02  0.10000000000E+01 0.  0.
         -4    1    1    2    0  502 -0.18414699188E+02  0.11077698345E+02  0.84433616824E+01  0.23124009239E+02  0.12700000000E+01 0. -1.
<mgrwt>
<rscale>  1 0.12683236E+03</rscale>
<asrwt>0</asrwt>
<pdfrwt beam="1">  1       21 0.23278953E-01 0.12683236E+03</pdfrwt>
<pdfrwt beam="2">  1       -4 0.56944514E-02 0.12683236E+03</pdfrwt>
<totfact> 0.13400207E+05</totfact>
</mgrwt>
</event>
<event>
 6    4  0.7919556E-003  0.1268686E+03  0.7818608E-02  0.1232177E+00
          4   -1    0    0  502    0 -0.00000000000E+00  0.00000000000E+00  0.40284933536E+03  0.40285133722E+03  0.12700000000E+01 0.  1.
         21   -1    0    0  501  502  0.00000000000E+00 -0.00000000000E+00 -0.16105072780E+02  0.16105072780E+02  0.00000000000E+00 0.  1.
         25    2    1    2    0    0  0.19177815344E+02  0.10110827212E+02  0.37111099531E+03  0.39219768481E+03  0.12500254278E+03 0.  0.
    9000005    1    3    3    0    0 -0.47210618110E+02 -0.13462503906E+02  0.91459042012E+02  0.10380673311E+03  0.10000000000E+01 0.  0.
    9000005    1    3    3    0    0  0.66388433454E+02  0.23573331119E+02  0.27965195330E+03  0.28839095170E+03  0.10000000000E+01 0.  0.
          4    1    1    2  501    0 -0.19177815344E+02 -0.10110827212E+02  0.15633267267E+02  0.26758725188E+02  0.12700000000E+01 0. -1.
<mgrwt>
<rscale>  1 0.12686865E+03</rscale>
<asrwt>0</asrwt>
<pdfrwt beam="2">  1       21 0.24777038E-02 0.12686865E+03</pdfrwt>
<pdfrwt beam="1">  1        4 0.61980819E-01 0.12686865E+03</pdfrwt>
<totfact> 0.85520777E+04</totfact>
</mgrwt>
</event>
<event>
 6    4  0.7919556E-003  0.1295540E+03  0.7818608E-02  0.1228119E+00
         21   -1    0    0  501  502  0.00000000000E+00  0.00000000000E+00  0.19828381902E+03  0.19828381902E+03  0.00000000000E+00 0.  1.
          4   -1    0    0  502    0 -0.00000000000E+00 -0.00000000000E+00 -0.38840995344E+02  0.38861752654E+02  0.12700000000E+01 0. -1.
         25    2    1    2    0    0 -0.32206339869E+02 -0.11037813662E+02  0.84098065190E+02  0.15445623022E+03  0.12500064331E+03 0.  0.
    9000005    1    3    3    0    0  0.14543913781E+02 -0.38987819929E+02 -0.12581808072E+02  0.43484220417E+02  0.10000000000E+01 0.  0.
    9000005    1    3    3    0    0 -0.46750253650E+02  0.27950006267E+02  0.96679873262E+02  0.11097200981E+03  0.10000000000E+01 0.  0.
          4    1    1    2  501    0  0.32206339869E+02  0.11037813662E+02  0.75344758483E+02  0.82689341447E+02  0.12700000000E+01 0.  1.
<mgrwt>
<rscale>  1 0.12955401E+03</rscale>
<asrwt>0</asrwt>
<pdfrwt beam="1">  1       21 0.30505202E-01 0.12955401E+03</pdfrwt>
<pdfrwt beam="2">  1        4 0.59774474E-02 0.12955401E+03</pdfrwt>
<totfact> 0.74262814E+04</totfact>
</mgrwt>
</event>
<event>
 6    4  0.7919556E-003  0.1305251E+03  0.7818608E-02  0.1226679E+00
          4   -1    0    0  502    0 -0.00000000000E+00  0.00000000000E+00  0.50837417865E+03  0.50837576498E+03  0.12700000000E+01 0.  1.
         21   -1    0    0  501  502  0.00000000000E+00 -0.00000000000E+00 -0.14881057092E+02  0.14881057092E+02  0.00000000000E+00 0.  1.
         25    2    1    2    0    0 -0.31497644483E+01 -0.37416926455E+02  0.43108608438E+03  0.45041316352E+03  0.12500743309E+03 0.  0.
    9000005    1    3    3    0    0 -0.40816001069E+02  0.31075872772E+02  0.14373442039E+03  0.15261795247E+03  0.10000000000E+01 0.  0.
    9000005    1    3    3    0    0  0.37666236620E+02 -0.68492799226E+02  0.28735166399E+03  0.29779521105E+03  0.10000000000E+01 0.  0.
          4    1    1    2  501    0  0.31497644483E+01  0.37416926455E+02  0.62407037183E+02  0.72843658553E+02  0.12700000000E+01 0. -1.
<mgrwt>
<rscale>  1 0.13052512E+03</rscale>
<asrwt>0</asrwt>
<pdfrwt beam="2">  1       21 0.22893938E-02 0.13052512E+03</pdfrwt>
<pdfrwt beam="1">  1        4 0.78215689E-01 0.13052512E+03</pdfrwt>
<totfact> 0.59160821E+04</totfact>
</mgrwt>
</event>
<event>
 6    4  0.7919556E-003  0.1307932E+03  0.7818608E-02  0.1226284E+00
         21   -1    0    0  501  502  0.00000000000E+00  0.00000000000E+00  0.75828118007E+03  0.75828118007E+03  0.00000000000E+00 0. -1.
         -4   -1    0    0    0  501 -0.00000000000E+00 -0.00000000000E+00 -0.10375229258E+02  0.10452668662E+02  0.12700000000E+01 0. -1.
         25    2    1    2    0    0  0.20150367177E+02  0.32800615217E+02  0.65882819962E+03  0.67168552925E+03  0.12499974375E+03 0.  0.
    9000005    1    3    3    0    0  0.52421313789E+02  0.22517807832E+02  0.13246141365E+03  0.14422923392E+03  0.10000000000E+01 0.  0.
    9000005    1    3    3    0    0 -0.32270946612E+02  0.10282807385E+02  0.52636678597E+03  0.52745629534E+03  0.10000000000E+01 0.  0.
         -4    1    1    2    0  502 -0.20150367177E+02 -0.32800615217E+02  0.89077751193E+02  0.97048319478E+02  0.12700000000E+01 0.  1.
<mgrwt>
<rscale>  1 0.13079317E+03</rscale>
<asrwt>0</asrwt>
<pdfrwt beam="1">  1       21 0.11665860E+00 0.13079317E+03</pdfrwt>
<pdfrwt beam="2">  1       -4 0.16022284E-02 0.13079317E+03</pdfrwt>
<totfact> 0.33276598E+04</totfact>
</mgrwt>
</event>
<event>
 6    4  0.7919556E-003  0.1282792E+03  0.7818608E-02  0.1230032E+00
         -4   -1    0    0    0  501 -0.00000000000E+00  0.00000000000E+00  0.74724858557E+02  0.74735650036E+02  0.12700000000E+01 0.  1.
         21   -1    0    0  501  502  0.00000000000E+00 -0.00000000000E+00 -0.12876045054E+03  0.12876045054E+03  0.00000000000E+00 0.  1.
         25    2    1    2    0    0  0.14786946519E+02 -0.24742541574E+02  0.14537539266E+02  0.12910030513E+03  0.12499880634E+03 0.  0.
    9000005    1    3    3    0    0 -0.23629248964E+02 -0.66162579559E+02 -0.17951906193E+01  0.70285496725E+02  0.10000000000E+01 0.  0.
    9000005    1    3    3    0    0  0.38416195483E+02  0.41420037985E+02  0.16332729885E+02  0.58814808404E+02  0.10000000000E+01 0.  0.
         -4    1    1    2    0  502 -0.14786946519E+02  0.24742541574E+02 -0.68573131250E+02  0.74395795448E+02  0.12700000000E+01 0. -1.
<mgrwt>
<rscale>  1 0.12827918E+03</rscale>
<asrwt>0</asrwt>
<pdfrwt beam="2">  1       21 0.19809300E-01 0.12827918E+03</pdfrwt>
<pdfrwt beam="1">  1       -4 0.11497444E-01 0.12827918E+03</pdfrwt>
<totfact> 0.56558840E+04</totfact>
</mgrwt>
</event>
<event>
 6    4  0.7919556E-003  0.1273375E+03  0.7818608E-02  0.1231461E+00
         -4   -1    0    0    0  501 -0.00000000000E+00  0.00000000000E+00  0.17708875634E+02  0.17754356542E+02  0.12700000000E+01 0. -1.
         21   -1    0    0  501  502  0.00000000000E+00 -0.00000000000E+00 -0.49446218428E+03  0.49446218428E+03  0.00000000000E+00 0.  1.
         25    2    1    2    0    0 -0.59554128808E+01 -0.23546854329E+02 -0.21908573394E+03  0.25340364848E+03  0.12499971581E+03 0.  0.
    9000005    1    3    3    0    0  0.44293476096E+02 -0.51516940218E+02 -0.96810127906E+02  0.11827555969E+03  0.10000000000E+01 0.  0.
    9000005    1    3    3    0    0 -0.50248888976E+02  0.27970085889E+02 -0.12227560604E+03  0.13512808879E+03  0.10000000000E+01 0.  0.
         -4    1    1    2    0  502  0.59554128808E+01  0.23546854329E+02 -0.25766757470E+03  0.25881289235E+03  0.12700000000E+01 0.  1.
<mgrwt>
<rscale>  1 0.12733754E+03</rscale>
<asrwt>0</asrwt>
<pdfrwt beam="2">  1       21 0.76071107E-01 0.12733754E+03</pdfrwt>
<pdfrwt beam="1">  1       -4 0.27280663E-02 0.12733754E+03</pdfrwt>
<totfact> 0.39271659E+04</totfact>
</mgrwt>
</event>
<event>
 6    4  0.7919556E-003  0.1424922E+03  0.7818608E-02  0.1210014E+00
         21   -1    0    0  501  502  0.00000000000E+00  0.00000000000E+00  0.14298698525E+02  0.14298698525E+02  0.00000000000E+00 0. -1.
          4   -1    0    0  502    0 -0.00000000000E+00 -0.00000000000E+00 -0.93991103111E+03  0.93991188912E+03  0.12700000000E+01 0.  1.
         25    2    1    2    0    0  0.67895824381E+02 -0.83296559737E+01 -0.78511102885E+03  0.79793693219E+03  0.12499917597E+03 0.  0.
    9000005    1    3    3    0    0  0.99321275620E+02 -0.26245204218E+02 -0.64976675396E+03  0.65783840043E+03  0.10000000000E+01 0.  0.
    9000005    1    3    3    0    0 -0.31425451239E+02  0.17915548244E+02 -0.13534427489E+03  0.14009853176E+03  0.10000000000E+01 0.  0.
          4    1    1    2  501    0 -0.67895824381E+02  0.83296559737E+01 -0.14050130373E+03  0.15627365545E+03  0.12700000000E+01 0. -1.
<mgrwt>
<rscale>  1 0.14249218E+03</rscale>
<asrwt>0</asrwt>
<pdfrwt beam="1">  1       21 0.21997993E-02 0.14249218E+03</pdfrwt>
<pdfrwt beam="2">  1        4 0.14460613E+00 0.14249218E+03</pdfrwt>
<totfact> 0.15071748E+04</totfact>
</mgrwt>
</event>
<event>
 6    4  0.7919556E-003  0.1381990E+03  0.7818608E-02  0.1215773E+00
         21   -1    0    0  501  502  0.00000000000E+00  0.00000000000E+00  0.41630695753E+02  0.41630695753E+02  0.00000000000E+00 0.  1.
         -4   -1    0    0    0  501 -0.00000000000E+00 -0.00000000000E+00 -0.87141545199E+03  0.87141637744E+03  0.12700000000E+01 0. -1.
         25    2    1    2    0    0 -0.25741136039E+02 -0.53023041467E+02 -0.84164112895E+03  0.85291192968E+03  0.12499968334E+03 0.  0.
    9000005    1    3    3    0    0 -0.47990689238E+01  0.36462452273E+02 -0.12203259111E+03  0.12745781569E+03  0.10000000000E+01 0.  0.
    9000005    1    3    3    0    0 -0.20942067115E+02 -0.89485493740E+02 -0.71960853785E+03  0.72545411399E+03  0.10000000000E+01 0.  0.
         -4    1    1    2    0  502  0.25741136039E+02  0.53023041467E+02  0.11856372716E+02  0.60135143510E+02  0.12700000000E+01 0.  1.
<mgrwt>
<rscale>  1 0.13819902E+03</rscale>
<asrwt>0</asrwt>
<pdfrwt beam="1">  1       21 0.64047220E-02 0.13819902E+03</pdfrwt>
<pdfrwt beam="2">  1       -4 0.13406549E+00 0.13819902E+03</pdfrwt>
<totfact> 0.30783270E+03</totfact>
</mgrwt>
</event>
<event>
 6    4  0.7919556E-003  0.1281051E+03  0.7818608E-02  0.1230295E+00
          4   -1    0    0  502    0 -0.00000000000E+00  0.00000000000E+00  0.20521738711E+03  0.20522131681E+03  0.12700000000E+01 0. -1.
         21   -1    0    0  501  502  0.00000000000E+00 -0.00000000000E+00 -0.37059807486E+02  0.37059807486E+02  0.00000000000E+00 0.  1.
         25    2    1    2    0    0 -0.20246263570E+02  0.19391665461E+02  0.17145185652E+03  0.21402492076E+03  0.12499991891E+03 0.  0.
    9000005    1    3    3    0    0 -0.31045043546E+02  0.10546618450E+02  0.18886082654E+03  0.19168838695E+03  0.10000000000E+01 0.  0.
    9000005    1    3    3    0    0  0.10798779976E+02  0.88450470115E+01 -0.17408970023E+02  0.22336533815E+02  0.10000000000E+01 0.  0.
          4    1    1    2  501    0  0.20246263570E+02 -0.19391665461E+02 -0.32942768906E+01  0.28256203534E+02  0.12700000000E+01 0.  1.
<mgrwt>
<rscale>  1 0.12810514E+03</rscale>
<asrwt>0</asrwt>
<pdfrwt beam="2">  1       21 0.57015090E-02 0.12810514E+03</pdfrwt>
<pdfrwt beam="1">  1        4 0.31573881E-01 0.12810514E+03</pdfrwt>
<totfact> 0.82871604E+04</totfact>
</mgrwt>
</event>
<event>
 6    4  0.7919556E-003  0.1984025E+03  0.7818608E-02  0.1151094E+00
         21   -1    0    0  501  502  0.00000000000E+00  0.00000000000E+00  0.12025104726E+04  0.12025104726E+04  0.00000000000E+00 0. -1.
          4   -1    0    0  502    0 -0.00000000000E+00 -0.00000000000E+00 -0.30980036092E+02  0.31006056445E+02  0.12700000000E+01 0.  1.
         25    2    1    2    0    0  0.13929144450E+03  0.65840574834E+02  0.39706596303E+03  0.44387488793E+03  0.12500579718E+03 0.  0.
    9000005    1    3    3    0    0  0.12596296987E+03  0.10035132031E+03  0.31229683529E+03  0.35137924042E+03  0.10000000000E+01 0.  0.
    9000005    1    3    3    0    0  0.13328474630E+02 -0.34510745480E+02  0.84769127739E+02  0.92495647505E+02  0.10000000000E+01 0.  0.
          4    1    1    2  501    0 -0.13929144450E+03 -0.65840574834E+02  0.77446447344E+03  0.78964164108E+03  0.12700000000E+01 0. -1.
<mgrwt>
<rscale>  1 0.19840246E+03</rscale>
<asrwt>0</asrwt>
<pdfrwt beam="1">  1       21 0.18500157E+00 0.19840246E+03</pdfrwt>
<pdfrwt beam="2">  1        4 0.47682135E-02 0.19840246E+03</pdfrwt>
<totfact> 0.18269363E+03</totfact>
</mgrwt>
</event>
<event>
 6    4  0.7919556E-003  0.1271738E+03  0.7818608E-02  0.1231711E+00
         21   -1    0    0  501  502  0.00000000000E+00  0.00000000000E+00  0.69610386372E+01  0.69610386372E+01  0.00000000000E+00 0.  1.
         -4   -1    0    0    0  501 -0.00000000000E+00 -0.00000000000E+00 -0.11852619877E+04  0.11852626681E+04  0.12700000000E+01 0.  1.
         25    2    1    2    0    0 -0.17261663418E+02  0.15823070448E+02 -0.11416561364E+04  0.11487175029E+04  0.12499933182E+03 0.  0.
    9000005    1    3    3    0    0  0.39559892992E+02 -0.29183692830E+02 -0.30627202795E+03  0.31019385578E+03  0.10000000000E+01 0.  0.
    9000005    1    3    3    0    0 -0.56821556410E+02  0.45006763278E+02 -0.83538410850E+03  0.83852364710E+03  0.10000000000E+01 0.  0.
         -4    1    1    2    0  502  0.17261663418E+02 -0.15823070448E+02 -0.36644812632E+02  0.43506203870E+02  0.12700000000E+01 0. -1.
<mgrwt>
<rscale>  1 0.12717377E+03</rscale>
<asrwt>0</asrwt>
<pdfrwt beam="1">  1       21 0.10709283E-02 0.12717377E+03</pdfrwt>
<pdfrwt beam="2">  1       -4 0.18235709E+00 0.12717377E+03</pdfrwt>
<totfact> 0.25676013E+04</totfact>
</mgrwt>
</event>
<event>
 6    4  0.7919556E-003  0.1708597E+03  0.7818608E-02  0.1176954E+00
         21   -1    0    0  501  502  0.00000000000E+00  0.00000000000E+00  0.12083780037E+03  0.12083780037E+03  0.00000000000E+00 0.  1.
         -4   -1    0    0    0  501 -0.00000000000E+00 -0.00000000000E+00 -0.18542486820E+03  0.18542921735E+03  0.12700000000E+01 0. -1.
         25    2    1    2    0    0  0.33218712155E+02  0.11163225379E+03 -0.80204310762E+02  0.18874785290E+03  0.12501110984E+03 0.  0.
    9000005    1    3    3    0    0 -0.19668469926E+02  0.25987000284E+01  0.22413865087E+02  0.29949679451E+02  0.10000000000E+01 0.  0.
    9000005    1    3    3    0    0  0.52887182082E+02  0.10903355376E+03 -0.10261817585E+03  0.15879817345E+03  0.10000000000E+01 0.  0.
         -4    1    1    2    0  502 -0.33218712155E+02 -0.11163225379E+03  0.15617242929E+02  0.11751916482E+03  0.12700000000E+01 0.  1.
<mgrwt>
<rscale>  1 0.17085965E+03</rscale>
<asrwt>0</asrwt>
<pdfrwt beam="1">  1       21 0.18590431E-01 0.17085965E+03</pdfrwt>
<pdfrwt beam="2">  1       -4 0.28527751E-01 0.17085965E+03</pdfrwt>
<totfact> 0.12900055E+04</totfact>
</mgrwt>
</event>
<event>
 6    4  0.7919556E-003  0.1341616E+03  0.7818608E-02  0.1221408E+00
         21   -1    0    0  501  502  0.00000000000E+00  0.00000000000E+00  0.13525413811E+03  0.13525413811E+03  0.00000000000E+00 0. -1.
          4   -1    0    0  502    0 -0.00000000000E+00 -0.00000000000E+00 -0.71528329472E+02  0.71539603138E+02  0.12700000000E+01 0.  1.
         25    2    1    2    0    0 -0.41976977316E+02 -0.24753621006E+02  0.10430801399E+02  0.13456646749E+03  0.12499809670E+03 0.  0.
    9000005    1    3    3    0    0 -0.67635170921E+02 -0.36475104740E+01 -0.36584231908E+02  0.76988484220E+02  0.10000000000E+01 0.  0.
    9000005    1    3    3    0    0  0.25658193604E+02 -0.21106110532E+02  0.47015033307E+02  0.57577983272E+02  0.10000000000E+01 0.  0.
          4    1    1    2  501    0  0.41976977316E+02  0.24753621006E+02  0.53295007236E+02  0.72227273753E+02  0.12700000000E+01 0. -1.
<mgrwt>
<rscale>  1 0.13416159E+03</rscale>
<asrwt>0</asrwt>
<pdfrwt beam="1">  1       21 0.20808329E-01 0.13416159E+03</pdfrwt>
<pdfrwt beam="2">  1        4 0.11005684E-01 0.13416159E+03</pdfrwt>
<totfact> 0.55920087E+04</totfact>
</mgrwt>
</event>
<event>
 6    4  0.7919556E-003  0.1266881E+03  0.7818608E-02  0.1232454E+00
         21   -1    0    0  501  502  0.00000000000E+00  0.00000000000E+00  0.40754205088E+02  0.40754205088E+02  0.00000000000E+00 0.  1.
          4   -1    0    0  502    0 -0.00000000000E+00 -0.00000000000E+00 -0.67067596192E+03  0.67067716436E+03  0.12700000000E+01 0. -1.
         25    2    1    2    0    0 -0.17356315619E+02 -0.11115309929E+02 -0.66159821289E+03  0.67361863912E+03  0.12500033547E+03 0.  0.
    9000005    1    3    3    0    0 -0.67709887701E+02 -0.86100794861E+01 -0.49104819038E+03  0.49577019640E+03  0.10000000000E+01 0.  0.
    9000005    1    3    3    0    0  0.50353572082E+02 -0.25052304425E+01 -0.17055002250E+03  0.17784844272E+03  0.10000000000E+01 0.  0.
          4    1    1    2  501    0  0.17356315619E+02  0.11115309929E+02  0.31676456057E+02  0.37812730330E+02  0.12700000000E+01 0.  1.
<mgrwt>
<rscale>  1 0.12668810E+03</rscale>
<asrwt>0</asrwt>
<pdfrwt beam="1">  1       21 0.62698778E-02 0.12668810E+03</pdfrwt>
<pdfrwt beam="2">  1        4 0.10318253E+00 0.12668810E+03</pdfrwt>
<totfact> 0.59339306E+03</totfact>
</mgrwt>
</event>
<event>
 6    4  0.7919556E-003  0.1285764E+03  0.7818608E-02  0.1229584E+00
         21   -1    0    0  501  502  0.00000000000E+00  0.00000000000E+00  0.17378695080E+03  0.17378695080E+03  0.00000000000E+00 0. -1.
         -4   -1    0    0    0  501 -0.00000000000E+00 -0.00000000000E+00 -0.36469283823E+02  0.36491390252E+02  0.12700000000E+01 0. -1.
         25    2    1    2    0    0 -0.27268087747E+02 -0.12807083930E+02  0.10426821968E+03  0.16554078552E+03  0.12499728008E+03 0.  0.
    9000005    1    3    3    0    0 -0.48090478198E+02 -0.56150048869E+02  0.87617648971E+02  0.11464455719E+03  0.10000000000E+01 0.  0.
    9000005    1    3    3    0    0  0.20822390451E+02  0.43342964939E+02  0.16650570707E+02  0.50896228334E+02  0.10000000000E+01 0.  0.
         -4    1    1    2    0  502  0.27268087747E+02  0.12807083930E+02  0.33049447302E+02  0.44737555534E+02  0.12700000000E+01 0.  1.
<mgrwt>
<rscale>  1 0.12857640E+03</rscale>
<asrwt>0</asrwt>
<pdfrwt beam="1">  1       21 0.26736453E-01 0.12857640E+03</pdfrwt>
<pdfrwt beam="2">  1       -4 0.56127166E-02 0.12857640E+03</pdfrwt>
<totfact> 0.10580054E+05</totfact>
</mgrwt>
</event>
<event>
 6    4  0.7919556E-003  0.1291292E+03  0.7818608E-02  0.1228754E+00
         21   -1    0    0  501  502  0.00000000000E+00  0.00000000000E+00  0.37932257434E+03  0.37932257434E+03  0.00000000000E+00 0. -1.
          4   -1    0    0  502    0 -0.00000000000E+00 -0.00000000000E+00 -0.49261475404E+02  0.49277843489E+02  0.12700000000E+01 0.  1.
         25    2    1    2    0    0 -0.19093616078E+02  0.26232801297E+02  0.37809837113E+02  0.13455086592E+03  0.12498650207E+03 0.  0.
    9000005    1    3    3    0    0 -0.90486859701E+01  0.41522024225E+02 -0.37719881238E+02  0.56830860051E+02  0.10000000000E+01 0.  0.
    9000005    1    3    3    0    0 -0.10044930108E+02 -0.15289222927E+02  0.75529718351E+02  0.77720005873E+02  0.10000000000E+01 0.  0.
          4    1    1    2  501    0  0.19093616078E+02 -0.26232801297E+02  0.29225126182E+03  0.29404955190E+03  0.12700000000E+01 0. -1.
<mgrwt>
<rscale>  1 0.12912921E+03</rscale>
<asrwt>0</asrwt>
<pdfrwt beam="1">  1       21 0.58357317E-01 0.12912921E+03</pdfrwt>
<pdfrwt beam="2">  1        4 0.75801114E-02 0.12912921E+03</pdfrwt>
<totfact> 0.13606144E+04</totfact>
</mgrwt>
</event>
<event>
 6    4  0.7919556E-003  0.1273415E+03  0.7818608E-02  0.1231455E+00
         21   -1    0    0  501  502  0.00000000000E+00  0.00000000000E+00  0.43375503189E+02  0.43375503189E+02  0.00000000000E+00 0.  1.
         -4   -1    0    0    0  501 -0.00000000000E+00 -0.00000000000E+00 -0.13657812604E+03  0.13658403059E+03  0.12700000000E+01 0.  1.
         25    2    1    2    0    0  0.10384782447E+02  0.21846566514E+02 -0.65632597225E+02  0.14326027782E+03  0.12502301071E+03 0.  0.
    9000005    1    3    3    0    0  0.58605588797E+02 -0.17883512920E+01 -0.24595878489E+00  0.58641911073E+02  0.10000000000E+01 0.  0.
    9000005    1    3    3    0    0 -0.48220806350E+02  0.23634917806E+02 -0.65386638440E+02  0.84618366749E+02  0.10000000000E+01 0.  0.
         -4    1    1    2    0  502 -0.10384782447E+02 -0.21846566514E+02 -0.27570025625E+02  0.36699255958E+02  0.12700000000E+01 0. -1.
<mgrwt>
<rscale>  1 0.12734155E+03</rscale>
<asrwt>0</asrwt>
<pdfrwt beam="1">  1       21 0.66731545E-02 0.12734155E+03</pdfrwt>
<pdfrwt beam="2">  1       -4 0.21013903E-01 0.12734155E+03</pdfrwt>
<totfact> 0.13470696E+05</totfact>
</mgrwt>
</event>
<event>
 6    4  0.7919556E-003  0.1407812E+03  0.7818608E-02  0.1212282E+00
         -4   -1    0    0    0  501 -0.00000000000E+00  0.00000000000E+00  0.42905164410E+03  0.42905352370E+03  0.12700000000E+01 0.  1.
         21   -1    0    0  501  502  0.00000000000E+00 -0.00000000000E+00 -0.37073681842E+02  0.37073681842E+02  0.00000000000E+00 0. -1.
         25    2    1    2    0    0 -0.15075431805E+02  0.62970050462E+02  0.37293668375E+03  0.39862402720E+03  0.12500739609E+03 0.  0.
    9000005    1    3    3    0    0  0.32197975757E+02 -0.98299825806E+01  0.30776745185E+02  0.45623965682E+02  0.10000000000E+01 0.  0.
    9000005    1    3    3    0    0 -0.47273407561E+02  0.72800033043E+02  0.34215993857E+03  0.35300006152E+03  0.10000000000E+01 0.  0.
         -4    1    1    2    0  502  0.15075431805E+02 -0.62970050462E+02  0.19041278502E+02  0.67503178342E+02  0.12700000000E+01 0. -1.
<mgrwt>
<rscale>  1 0.14078120E+03</rscale>
<asrwt>0</asrwt>
<pdfrwt beam="2">  1       21 0.57036437E-02 0.14078120E+03</pdfrwt>
<pdfrwt beam="1">  1       -4 0.66009760E-01 0.14078120E+03</pdfrwt>
<totfact> 0.19010134E+04</totfact>
</mgrwt>
</event>
<event>
 6    4  0.7919556E-003  0.1350089E+03  0.7818608E-02  0.1220207E+00
         21   -1    0    0  501  502  0.00000000000E+00  0.00000000000E+00  0.67995208704E+03  0.67995208704E+03  0.00000000000E+00 0. -1.
          4   -1    0    0  502    0 -0.00000000000E+00 -0.00000000000E+00 -0.19897754098E+02  0.19938242604E+02  0.12700000000E+01 0. -1.
         25    2    1    2    0    0  0.50928774532E+02 -0.26905935143E+01  0.22905825286E+03  0.26588547562E+03  0.12500569417E+03 0.  0.
    9000005    1    3    3    0    0 -0.20877757075E+02 -0.34997808837E+02  0.26659952536E+02  0.48708114653E+02  0.10000000000E+01 0.  0.
    9000005    1    3    3    0    0  0.71806531607E+02  0.32307215323E+02  0.20239830033E+03  0.21717736097E+03  0.10000000000E+01 0.  0.
          4    1    1    2  501    0 -0.50928774532E+02  0.26905935143E+01  0.43099608008E+03  0.43400485402E+03  0.12700000000E+01 0.  1.
<mgrwt>
<rscale>  1 0.13500890E+03</rscale>
<asrwt>0</asrwt>
<pdfrwt beam="1">  1       21 0.10460800E+00 0.13500890E+03</pdfrwt>
<pdfrwt beam="2">  1        4 0.30643992E-02 0.13500890E+03</pdfrwt>
<totfact> 0.15884773E+04</totfact>
</mgrwt>
</event>
<event>
 6    4  0.7919556E-003  0.1314538E+03  0.7818608E-02  0.1225314E+00
         21   -1    0    0  501  502  0.00000000000E+00  0.00000000000E+00  0.11569600886E+04  0.11569600886E+04  0.00000000000E+00 0.  1.
         -4   -1    0    0    0  501 -0.00000000000E+00 -0.00000000000E+00 -0.66649346722E+01  0.67848547652E+01  0.12700000000E+01 0.  1.
         25    2    1    2    0    0  0.26436970716E+02  0.30921782208E+02  0.97287909304E+03  0.98171983082E+03  0.12500010607E+03 0.  0.
    9000005    1    3    3    0    0  0.54514895938E+02  0.63733004343E+02  0.75147871371E+03  0.75614484518E+03  0.10000000000E+01 0.  0.
    9000005    1    3    3    0    0 -0.28077925222E+02 -0.32811222135E+02  0.22140037933E+03  0.22557498565E+03  0.10000000000E+01 0.  0.
         -4    1    1    2    0  502 -0.26436970716E+02 -0.30921782208E+02  0.17741606085E+03  0.18202511251E+03  0.12700000000E+01 0. -1.
<mgrwt>
<rscale>  1 0.13145378E+03</rscale>
<asrwt>0</asrwt>
<pdfrwt beam="1">  1       21 0.17799370E+00 0.13145378E+03</pdfrwt>
<pdfrwt beam="2">  1       -4 0.10346537E-02 0.13145378E+03</pdfrwt>
<totfact> 0.21795293E+04</totfact>
</mgrwt>
</event>
<event>
 6    4  0.7919556E-003  0.1282716E+03  0.7818608E-02  0.1230043E+00
         21   -1    0    0  501  502  0.00000000000E+00  0.00000000000E+00  0.17919298029E+03  0.17919298029E+03  0.00000000000E+00 0. -1.
         -4   -1    0    0    0  501 -0.00000000000E+00 -0.00000000000E+00 -0.17849276198E+03  0.17849728003E+03  0.12700000000E+01 0.  1.
         25    2    1    2    0    0 -0.33575780496E+01 -0.28567494221E+02 -0.15394858321E+03  0.20038406283E+03  0.12500492514E+03 0.  0.
    9000005    1    3    3    0    0  0.25263467533E+02 -0.36161507125E+02 -0.16342534588E+03  0.16927711324E+03  0.10000000000E+01 0.  0.
    9000005    1    3    3    0    0 -0.28621045583E+02  0.75940129034E+01  0.94767626763E+01  0.31106949594E+02  0.10000000000E+01 0.  0.
         -4    1    1    2    0  502  0.33575780496E+01  0.28567494221E+02  0.15464880152E+03  0.15730619749E+03  0.12700000000E+01 0. -1.
<mgrwt>
<rscale>  1 0.12827161E+03</rscale>
<asrwt>0</asrwt>
<pdfrwt beam="1">  1       21 0.27568151E-01 0.12827161E+03</pdfrwt>
<pdfrwt beam="2">  1       -4 0.27461119E-01 0.12827161E+03</pdfrwt>
<totfact> 0.64720200E+03</totfact>
</mgrwt>
</event>
<event>
 6    4  0.7919556E-003  0.1282136E+03  0.7818608E-02  0.1230131E+00
         21   -1    0    0  501  502  0.00000000000E+00  0.00000000000E+00  0.97553430424E+01  0.97553430424E+01  0.00000000000E+00 0. -1.
          4   -1    0    0  502    0 -0.00000000000E+00 -0.00000000000E+00 -0.83146193908E+03  0.83146290900E+03  0.12700000000E+01 0.  1.
         25    2    1    2    0    0  0.28534981262E+02 -0.13023101573E+00 -0.78121189021E+03  0.79166327029E+03  0.12499781603E+03 0.  0.
    9000005    1    3    3    0    0 -0.26713590867E+01  0.59830990013E+02 -0.32569798637E+03  0.33116017552E+03  0.10000000000E+01 0.  0.
    9000005    1    3    3    0    0  0.31206340348E+02 -0.59961221029E+02 -0.45551390383E+03  0.46050309477E+03  0.10000000000E+01 0.  0.
          4    1    1    2  501    0 -0.28534981262E+02  0.13023101573E+00 -0.40494705830E+02  0.49554981748E+02  0.12700000000E+01 0. -1.
<mgrwt>
<rscale>  1 0.12821356E+03</rscale>
<asrwt>0</asrwt>
<pdfrwt beam="1">  1       21 0.15008214E-02 0.12821356E+03</pdfrwt>
<pdfrwt beam="2">  1        4 0.12792371E+00 0.12821356E+03</pdfrwt>
<totfact> 0.37358659E+04</totfact>
</mgrwt>
</event>
<event>
 6    4  0.7919556E-003  0.1314189E+03  0.7818608E-02  0.1225365E+00
          4   -1    0    0  502    0 -0.00000000000E+00  0.00000000000E+00  0.78498127178E+03  0.78498229913E+03  0.12700000000E+01 0.  1.
         21   -1    0    0  501  502  0.00000000000E+00 -0.00000000000E+00 -0.10468413202E+02  0.10468413202E+02  0.00000000000E+00 0.  1.
         25    2    1    2    0    0  0.18437808717E+02  0.36144723508E+02  0.68008645581E+03  0.69266767741E+03  0.12499812049E+03 0.  0.
    9000005    1    3    3    0    0  0.66121281916E+02  0.28129435959E+02  0.53328037353E+03  0.53810059086E+03  0.10000000000E+01 0.  0.
    9000005    1    3    3    0    0 -0.47683473199E+02  0.80152875488E+01  0.14680608227E+03  0.15456708654E+03  0.10000000000E+01 0.  0.
          4    1    1    2  501    0 -0.18437808717E+02 -0.36144723508E+02  0.94426402772E+02  0.10278303492E+03  0.12700000000E+01 0.  1.
<mgrwt>
<rscale>  1 0.13141889E+03</rscale>
<asrwt>0</asrwt>
<pdfrwt beam="2">  1       21 0.16105257E-02 0.13141889E+03</pdfrwt>
<pdfrwt beam="1">  1        4 0.12077231E+00 0.13141889E+03</pdfrwt>
<totfact> 0.38485782E+04</totfact>
</mgrwt>
</event>
<event>
 6    4  0.7919556E-003  0.1266393E+03  0.7818608E-02  0.1232529E+00
         -4   -1    0    0    0  501 -0.00000000000E+00  0.00000000000E+00  0.59933059024E+03  0.59933193582E+03  0.12700000000E+01 0.  1.
         21   -1    0    0  501  502  0.00000000000E+00 -0.00000000000E+00 -0.91096628098E+01  0.91096628098E+01  0.00000000000E+00 0.  1.
         25    2    1    2    0    0 -0.47979918061E+01  0.19767101879E+02  0.52768553414E+03  0.54266890402E+03  0.12499502955E+03 0.  0.
    9000005    1    3    3    0    0 -0.48346674261E+02  0.51988842649E+02  0.25782903666E+03  0.26742672421E+03  0.10000000000E+01 0.  0.
    9000005    1    3    3    0    0  0.43548682455E+02 -0.32221740770E+02  0.26985649747E+03  0.27524217981E+03  0.10000000000E+01 0.  0.
         -4    1    1    2    0  502  0.47979918061E+01 -0.19767101879E+02  0.62535393293E+02  0.65772694611E+02  0.12700000000E+01 0. -1.
<mgrwt>
<rscale>  1 0.12663932E+03</rscale>
<asrwt>0</asrwt>
<pdfrwt beam="2">  1       21 0.14014871E-02 0.12663932E+03</pdfrwt>
<pdfrwt beam="1">  1       -4 0.92211588E-01 0.12663932E+03</pdfrwt>
<totfact> 0.89754570E+04</totfact>
</mgrwt>
</event>
<event>
 6    4  0.7919556E-003  0.1319061E+03  0.7818608E-02  0.1224655E+00
          4   -1    0    0  502    0 -0.00000000000E+00  0.00000000000E+00  0.47121906511E+02  0.47139017525E+02  0.12700000000E+01 0. -1.
         21   -1    0    0  501  502  0.00000000000E+00 -0.00000000000E+00 -0.17208482787E+03  0.17208482787E+03  0.00000000000E+00 0. -1.
         25    2    1    2    0    0 -0.35465587890E+01 -0.41986038891E+02 -0.68124571327E+02  0.14845933116E+03  0.12499524090E+03 0.  0.
    9000005    1    3    3    0    0  0.24068054058E+02  0.30067573911E+02 -0.59395645074E+02  0.70796701059E+02  0.10000000000E+01 0.  0.
    9000005    1    3    3    0    0 -0.27614612847E+02 -0.72053612802E+02 -0.87289262529E+01  0.77662630100E+02  0.10000000000E+01 0.  0.
          4    1    1    2  501    0  0.35465587890E+01  0.41986038891E+02 -0.56838350034E+02  0.70764514239E+02  0.12700000000E+01 0.  1.
<mgrwt>
<rscale>  1 0.13190609E+03</rscale>
<asrwt>0</asrwt>
<pdfrwt beam="2">  1       21 0.26474589E-01 0.13190609E+03</pdfrwt>
<pdfrwt beam="1">  1        4 0.72512007E-02 0.13190609E+03</pdfrwt>
<totfact> 0.71239571E+04</totfact>
</mgrwt>
</event>
<event>
 6    4  0.7919556E-003  0.1287155E+03  0.7818608E-02  0.1229374E+00
         21   -1    0    0  501  502  0.00000000000E+00  0.00000000000E+00  0.33864461205E+02  0.33864461205E+02  0.00000000000E+00 0.  1.
          4   -1    0    0  502    0 -0.00000000000E+00 -0.00000000000E+00 -0.19478336502E+03  0.19478750522E+03  0.12700000000E+01 0. -1.
         25    2    1    2    0    0 -0.29696521273E+02 -0.78905757830E+01 -0.14545795772E+03  0.19423106701E+03  0.12499418133E+03 0.  0.
    9000005    1    3    3    0    0 -0.22333339621E+02  0.21381503059E+02  0.12534885140E+02  0.33377688313E+02  0.10000000000E+01 0.  0.
    9000005    1    3    3    0    0 -0.73631816523E+01 -0.29272078842E+02 -0.15799284286E+03  0.16085337870E+03  0.10000000000E+01 0.  0.
          4    1    1    2  501    0  0.29696521273E+02  0.78905757830E+01 -0.15460946093E+02  0.34420899407E+02  0.12700000000E+01 0.  1.
<mgrwt>
<rscale>  1 0.12871554E+03</rscale>
<asrwt>0</asrwt>
<pdfrwt beam="1">  1       21 0.52099171E-02 0.12871554E+03</pdfrwt>
<pdfrwt beam="2">  1        4 0.29968822E-01 0.12871554E+03</pdfrwt>
<totfact> 0.10657907E+05</totfact>
</mgrwt>
</event>
<event>
 6    4  0.7919556E-003  0.1547311E+03  0.7818608E-02  0.1194777E+00
         -4   -1    0    0    0  501 -0.00000000000E+00  0.00000000000E+00  0.47449514629E+03  0.47449684588E+03  0.12700000000E+01 0. -1.
         21   -1    0    0  501  502  0.00000000000E+00 -0.00000000000E+00 -0.72294994991E+02  0.72294994991E+02  0.00000000000E+00 0.  1.
         25    2    1    2    0    0  0.55431879915E+02  0.72411027977E+02  0.42541656865E+03  0.45268198369E+03  0.12500268474E+03 0.  0.
    9000005    1    3    3    0    0  0.49826103697E+02  0.59754034108E+01  0.48101757547E+02  0.69520681345E+02  0.10000000000E+01 0.  0.
    9000005    1    3    3    0    0  0.56057762185E+01  0.66435624566E+02  0.37731481110E+03  0.38316130235E+03  0.10000000000E+01 0.  0.
         -4    1    1    2    0  502 -0.55431879915E+02 -0.72411027977E+02 -0.23216417355E+02  0.94109857180E+02  0.12700000000E+01 0.  1.
<mgrwt>
<rscale>  1 0.15473113E+03</rscale>
<asrwt>0</asrwt>
<pdfrwt beam="2">  1       21 0.11122307E-01 0.15473113E+03</pdfrwt>
<pdfrwt beam="1">  1       -4 0.73000240E-01 0.15473113E+03</pdfrwt>
<totfact> 0.48551259E+03</totfact>
</mgrwt>
</event>
<event>
 6    4  0.7919556E-003  0.1266225E+03  0.7818608E-02  0.1232555E+00
         21   -1    0    0  501  502  0.00000000000E+00  0.00000000000E+00  0.13880097869E+03  0.13880097869E+03  0.00000000000E+00 0. -1.
          4   -1    0    0  502    0 -0.00000000000E+00 -0.00000000000E+00 -0.45431718307E+02  0.45449465655E+02  0.12700000000E+01 0. -1.
         25    2    1    2    0    0  0.19656668817E+02 -0.42299218843E+01  0.49459276230E+02  0.13593919849E+03  0.12501587424E+03 0.  0.
    9000005    1    3    3    0    0 -0.32389085249E+00  0.38027961468E+02  0.73948176992E+02  0.83159867961E+02  0.10000000000E+01 0.  0.
    9000005    1    3    3    0    0  0.19980559669E+02 -0.42257883353E+02 -0.24488900763E+02  0.52779330526E+02  0.10000000000E+01 0.  0.
          4    1    1    2  501    0 -0.19656668817E+02  0.42299218843E+01  0.43909984154E+02  0.48311245860E+02  0.12700000000E+01 0.  1.
<mgrwt>
<rscale>  1 0.12662245E+03</rscale>
<asrwt>0</asrwt>
<pdfrwt beam="1">  1       21 0.21353997E-01 0.12662245E+03</pdfrwt>
<pdfrwt beam="2">  1        4 0.69913073E-02 0.12662245E+03</pdfrwt>
<totfact> 0.11270062E+05</totfact>
</mgrwt>
</event>
<event>
 6    4  0.7919556E-003  0.1276473E+03  0.7818608E-02  0.1230989E+00
          4   -1    0    0  502    0 -0.00000000000E+00  0.00000000000E+00  0.57681227984E+03  0.57681367795E+03  0.12700000000E+01 0.  1.
         21   -1    0    0  501  502  0.00000000000E+00 -0.00000000000E+00 -0.46472596717E+02  0.46472596717E+02  0.00000000000E+00 0. -1.
         25    2    1    2    0    0 -0.84414118979E+00 -0.25581261629E+02  0.56552822825E+03  0.57975513490E+03  0.12505489185E+03 0.  0.
    9000005    1    3    3    0    0 -0.62606738369E+02 -0.16776541134E+02  0.26438314615E+03  0.27221407750E+03  0.10000000000E+01 0.  0.
    9000005    1    3    3    0    0  0.61762597179E+02 -0.88047204952E+01  0.30114508210E+03  0.30754105740E+03  0.10000000000E+01 0.  0.
          4    1    1    2  501    0  0.84414118979E+00  0.25581261629E+02 -0.35188545131E+02  0.43531139766E+02  0.12700000000E+01 0. -1.
<mgrwt>
<rscale>  1 0.12764732E+03</rscale>
<asrwt>0</asrwt>
<pdfrwt beam="2">  1       21 0.71496307E-02 0.12764732E+03</pdfrwt>
<pdfrwt beam="1">  1        4 0.88741788E-01 0.12764732E+03</pdfrwt>
<totfact> 0.66998052E+03</totfact>
</mgrwt>
</event>
<event>
 6    4  0.7919556E-003  0.1291786E+03  0.7818608E-02  0.1228680E+00
         21   -1    0    0  501  502  0.00000000000E+00  0.00000000000E+00  0.19749520063E+03  0.19749520063E+03  0.00000000000E+00 0. -1.
         -4   -1    0    0    0  501 -0.00000000000E+00 -0.00000000000E+00 -0.33130838815E+02  0.33155171249E+02  0.12700000000E+01 0. -1.
         25    2    1    2    0    0 -0.24953312777E+01 -0.32501507819E+02  0.12999816619E+03  0.18326658783E+03  0.12499817725E+03 0.  0.
    9000005    1    3    3    0    0  0.50799871721E+02  0.88924751689E+00  0.16366722528E+02  0.53388082325E+02  0.10000000000E+01 0.  0.
    9000005    1    3    3    0    0 -0.53295202999E+02 -0.33390755336E+02  0.11363144366E+03  0.12987850551E+03  0.10000000000E+01 0.  0.
         -4    1    1    2    0  502  0.24953312777E+01  0.32501507819E+02  0.34366195626E+02  0.47383784046E+02  0.12700000000E+01 0.  1.
<mgrwt>
<rscale>  1 0.12917863E+03</rscale>
<asrwt>0</asrwt>
<pdfrwt beam="1">  1       21 0.30383876E-01 0.12917863E+03</pdfrwt>
<pdfrwt beam="2">  1       -4 0.50992381E-02 0.12917863E+03</pdfrwt>
<totfact> 0.96700450E+04</totfact>
</mgrwt>
</event>
<event>
 6    4  0.7919556E-003  0.1287925E+03  0.7818608E-02  0.1229258E+00
          4   -1    0    0  502    0 -0.00000000000E+00  0.00000000000E+00  0.25911686943E+02  0.25942791296E+02  0.12700000000E+01 0.  1.
         21   -1    0    0  501  502  0.00000000000E+00 -0.00000000000E+00 -0.45173542316E+03  0.45173542316E+03  0.00000000000E+00 0. -1.
         25    2    1    2    0    0 -0.97208532900E+01  0.29461886787E+02 -0.14022212069E+03  0.19039369790E+03  0.12500007723E+03 0.  0.
    9000005    1    3    3    0    0  0.17064134898E+02  0.65791078818E+02 -0.36237433212E+02  0.77031177569E+02  0.10000000000E+01 0.  0.
    9000005    1    3    3    0    0 -0.26784988188E+02 -0.36329192031E+02 -0.10398468748E+03  0.11336252033E+03  0.10000000000E+01 0.  0.
          4    1    1    2  501    0  0.97208532900E+01 -0.29461886787E+02 -0.28560161553E+03  0.28728451656E+03  0.12700000000E+01 0. -1.
<mgrwt>
<rscale>  1 0.12879253E+03</rscale>
<asrwt>0</asrwt>
<pdfrwt beam="2">  1       21 0.69497752E-01 0.12879253E+03</pdfrwt>
<pdfrwt beam="1">  1        4 0.39889436E-02 0.12879253E+03</pdfrwt>
<totfact> 0.26385552E+04</totfact>
</mgrwt>
</event>
<event>
 6    4  0.7919556E-003  0.1344470E+03  0.7818608E-02  0.1221003E+00
          4   -1    0    0  502    0 -0.00000000000E+00  0.00000000000E+00  0.91409362423E+02  0.91418184397E+02  0.12700000000E+01 0.  1.
         21   -1    0    0  501  502  0.00000000000E+00 -0.00000000000E+00 -0.14368707627E+03  0.14368707627E+03  0.00000000000E+00 0. -1.
         25    2    1    2    0    0 -0.13528858034E+02 -0.47670264171E+02  0.31199941235E+02  0.13801964956E+03  0.12498201169E+03 0.  0.
    9000005    1    3    3    0    0  0.73562313113E+01  0.92910444063E+01 -0.41589425329E+02  0.43256420846E+02  0.10000000000E+01 0.  0.
    9000005    1    3    3    0    0 -0.20885089345E+02 -0.56961308577E+02  0.72789366564E+02  0.94763228715E+02  0.10000000000E+01 0.  0.
          4    1    1    2  501    0  0.13528858034E+02  0.47670264171E+02 -0.83477655085E+02  0.97085611108E+02  0.12700000000E+01 0. -1.
<mgrwt>
<rscale>  1 0.13444697E+03</rscale>
<asrwt>0</asrwt>
<pdfrwt beam="2">  1       21 0.22105704E-01 0.13444697E+03</pdfrwt>
<pdfrwt beam="1">  1        4 0.14064089E-01 0.13444697E+03</pdfrwt>
<totfact> 0.32809777E+04</totfact>
</mgrwt>
</event>
<event>
 6    4  0.7919556E-003  0.1480148E+03  0.7818608E-02  0.1202934E+00
         21   -1    0    0  501  502  0.00000000000E+00  0.00000000000E+00  0.22380962967E+03  0.22380962967E+03  0.00000000000E+00 0. -1.
         -4   -1    0    0    0  501 -0.00000000000E+00 -0.00000000000E+00 -0.79226516914E+02  0.79236695301E+02  0.12700000000E+01 0.  1.
         25    2    1    2    0    0 -0.74038692682E+02 -0.28315433244E+02  0.11912420590E+02  0.14849336565E+03  0.12499952842E+03 0.  0.
    9000005    1    3    3    0    0 -0.10113547025E+03  0.88138115963E+01  0.13918475908E+02  0.10247336527E+03  0.10000000000E+01 0.  0.
    9000005    1    3    3    0    0  0.27096777573E+02 -0.37129244840E+02 -0.20060553180E+01  0.46020000382E+02  0.10000000000E+01 0.  0.
         -4    1    1    2    0  502  0.74038692682E+02  0.28315433244E+02  0.13267069217E+03  0.15455295932E+03  0.12700000000E+01 0. -1.
<mgrwt>
<rscale>  1 0.14801478E+03</rscale>
<asrwt>0</asrwt>
<pdfrwt beam="1">  1       21 0.34432250E-01 0.14801478E+03</pdfrwt>
<pdfrwt beam="2">  1       -4 0.12189755E-01 0.14801478E+03</pdfrwt>
<totfact> 0.18130255E+04</totfact>
</mgrwt>
</event>
<event>
 6    4  0.7919556E-003  0.1271041E+03  0.7818608E-02  0.1231817E+00
         21   -1    0    0  501  502  0.00000000000E+00  0.00000000000E+00  0.80516100693E+03  0.80516100693E+03  0.00000000000E+00 0.  1.
          4   -1    0    0  502    0 -0.00000000000E+00 -0.00000000000E+00 -0.78855288863E+01  0.79871437834E+01  0.12700000000E+01 0.  1.
         25    2    1    2    0    0 -0.23660220979E+01  0.22873979031E+02  0.53620416256E+03  0.55106293242E+03  0.12500653810E+03 0.  0.
    9000005    1    3    3    0    0 -0.37836119858E+02 -0.39676778403E+01  0.50041867467E+02  0.62868934562E+02  0.10000000000E+01 0.  0.
    9000005    1    3    3    0    0  0.35470097760E+02  0.26841656871E+02  0.48616229509E+03  0.48819399786E+03  0.10000000000E+01 0.  0.
          4    1    1    2  501    0  0.23660220979E+01 -0.22873979031E+02  0.26107131549E+03  0.26208521829E+03  0.12700000000E+01 0. -1.
<mgrwt>
<rscale>  1 0.12710410E+03</rscale>
<asrwt>0</asrwt>
<pdfrwt beam="1">  1       21 0.12387086E+00 0.12710410E+03</pdfrwt>
<pdfrwt beam="2">  1        4 0.12210525E-02 0.12710410E+03</pdfrwt>
<totfact> 0.43328997E+04</totfact>
</mgrwt>
</event>
<event>
 6    4  0.7919556E-003  0.1333047E+03  0.7818608E-02  0.1222633E+00
         21   -1    0    0  501  502  0.00000000000E+00  0.00000000000E+00  0.10218015688E+03  0.10218015688E+03  0.00000000000E+00 0.  1.
          4   -1    0    0  502    0 -0.00000000000E+00 -0.00000000000E+00 -0.21581824296E+03  0.21582197964E+03  0.12700000000E+01 0. -1.
         25    2    1    2    0    0  0.69463844441E+01  0.45774074394E+02 -0.18795854340E+03  0.23043124284E+03  0.12500650182E+03 0.  0.
    9000005    1    3    3    0    0 -0.50194074942E+02  0.28949815406E+02 -0.14733979041E+03  0.15832735332E+03  0.10000000000E+01 0.  0.
    9000005    1    3    3    0    0  0.57140459386E+02  0.16824258988E+02 -0.40618752985E+02  0.72103889517E+02  0.10000000000E+01 0.  0.
          4    1    1    2  501    0 -0.69463844441E+01 -0.45774074394E+02  0.74320457320E+02  0.87570893679E+02  0.12700000000E+01 0.  1.
<mgrwt>
<rscale>  1 0.13330470E+03</rscale>
<asrwt>0</asrwt>
<pdfrwt beam="1">  1       21 0.15720024E-01 0.13330470E+03</pdfrwt>
<pdfrwt beam="2">  1        4 0.33203701E-01 0.13330470E+03</pdfrwt>
<totfact> 0.12874730E+04</totfact>
</mgrwt>
</event>
<event>
 6    4  0.7919556E-003  0.1312301E+03  0.7818608E-02  0.1225642E+00
         21   -1    0    0  501  502  0.00000000000E+00  0.00000000000E+00  0.40484511888E+03  0.40484511888E+03  0.00000000000E+00 0. -1.
         -4   -1    0    0    0  501 -0.00000000000E+00 -0.00000000000E+00 -0.36206998075E+02  0.36229264547E+02  0.12700000000E+01 0.  1.
         25    2    1    2    0    0 -0.30268425067E+02 -0.26077567378E+02  0.88929192836E+02  0.15852365460E+03  0.12500052261E+03 0.  0.
    9000005    1    3    3    0    0  0.50744812478E+01  0.31052052261E+02 -0.14919761581E+02  0.34836469327E+02  0.10000000000E+01 0.  0.
    9000005    1    3    3    0    0 -0.35342906315E+02 -0.57129619638E+02  0.10384895442E+03  0.12368718527E+03  0.10000000000E+01 0.  0.
         -4    1    1    2    0  502  0.30268425067E+02  0.26077567378E+02  0.27970892797E+03  0.28255072883E+03  0.12700000000E+01 0. -1.
<mgrwt>
<rscale>  1 0.13123013E+03</rscale>
<asrwt>0</asrwt>
<pdfrwt beam="1">  1       21 0.62283861E-01 0.13123013E+03</pdfrwt>
<pdfrwt beam="2">  1       -4 0.55721737E-02 0.13123013E+03</pdfrwt>
<totfact> 0.19604432E+04</totfact>
</mgrwt>
</event>
<event>
 6    4  0.7919556E-003  0.1282077E+03  0.7818608E-02  0.1230140E+00
         21   -1    0    0  501  502  0.00000000000E+00  0.00000000000E+00  0.18394651216E+02  0.18394651216E+02  0.00000000000E+00 0.  1.
          4   -1    0    0  502    0 -0.00000000000E+00 -0.00000000000E+00 -0.33722955710E+03  0.33723194849E+03  0.12700000000E+01 0.  1.
         25    2    1    2    0    0  0.12751008748E+02 -0.25473589189E+02 -0.27368227650E+03  0.30222374575E+03  0.12500284819E+03 0.  0.
    9000005    1    3    3    0    0  0.59775454343E+02 -0.14339280596E+02 -0.71281896449E+02  0.94131974755E+02  0.10000000000E+01 0.  0.
    9000005    1    3    3    0    0 -0.47024445595E+02 -0.11134308592E+02 -0.20240038005E+03  0.20809177099E+03  0.10000000000E+01 0.  0.
          4    1    1    2  501    0 -0.12751008748E+02  0.25473589189E+02 -0.45152629389E+02  0.53402853959E+02  0.12700000000E+01 0. -1.
<mgrwt>
<rscale>  1 0.12820766E+03</rscale>
<asrwt>0</asrwt>
<pdfrwt beam="1">  1       21 0.28299462E-02 0.12820766E+03</pdfrwt>
<pdfrwt beam="2">  1        4 0.51885030E-01 0.12820766E+03</pdfrwt>
<totfact> 0.99769479E+04</totfact>
</mgrwt>
</event>
<event>
 6    4  0.7919556E-003  0.1287227E+03  0.7818608E-02  0.1229363E+00
         21   -1    0    0  501  502  0.00000000000E+00  0.00000000000E+00  0.15025077085E+02  0.15025077085E+02  0.00000000000E+00 0. -1.
         -4   -1    0    0    0  501 -0.00000000000E+00 -0.00000000000E+00 -0.66857822770E+03  0.66857943392E+03  0.12700000000E+01 0. -1.
         25    2    1    2    0    0  0.17902545963E+02  0.24983753211E+02 -0.63448767869E+03  0.64741343204E+03  0.12499939401E+03 0.  0.
    9000005    1    3    3    0    0 -0.28599741426E+02  0.32891151571E+02 -0.81602768523E+02  0.92519105551E+02  0.10000000000E+01 0.  0.
    9000005    1    3    3    0    0  0.46502287389E+02 -0.79073983605E+01 -0.55288491017E+03  0.55489432649E+03  0.10000000000E+01 0.  0.
         -4    1    1    2    0  502 -0.17902545963E+02 -0.24983753211E+02 -0.19065471927E+02  0.36191078960E+02  0.12700000000E+01 0.  1.
<mgrwt>
<rscale>  1 0.12872272E+03</rscale>
<asrwt>0</asrwt>
<pdfrwt beam="1">  1       21 0.23115505E-02 0.12872272E+03</pdfrwt>
<pdfrwt beam="2">  1       -4 0.10286240E+00 0.12872272E+03</pdfrwt>
<totfact> 0.31319430E+04</totfact>
</mgrwt>
</event>
<event>
 6    4  0.7919556E-003  0.1268073E+03  0.7818608E-02  0.1232272E+00
         21   -1    0    0  501  502  0.00000000000E+00  0.00000000000E+00  0.10108349768E+03  0.10108349768E+03  0.00000000000E+00 0. -1.
          4   -1    0    0  502    0 -0.00000000000E+00 -0.00000000000E+00 -0.58646766439E+02  0.58660515799E+02  0.12700000000E+01 0. -1.
         25    2    1    2    0    0  0.21214395450E+02  0.21673382896E+01  0.19324623501E+02  0.12827132129E+03  0.12500137144E+03 0.  0.
    9000005    1    3    3    0    0  0.38876154412E+02 -0.52081035842E+02 -0.71090712382E+01  0.65385996743E+02  0.10000000000E+01 0.  0.
    9000005    1    3    3    0    0 -0.17661758962E+02  0.54248374132E+02  0.26433694740E+02  0.62885324545E+02  0.10000000000E+01 0.  0.
          4    1    1    2  501    0 -0.21214395450E+02 -0.21673382896E+01  0.23112107740E+02  0.31472692191E+02  0.12700000000E+01 0.  1.
<mgrwt>
<rscale>  1 0.12680730E+03</rscale>
<asrwt>0</asrwt>
<pdfrwt beam="1">  1       21 0.15551307E-01 0.12680730E+03</pdfrwt>
<pdfrwt beam="2">  1        4 0.90242508E-02 0.12680730E+03</pdfrwt>
<totfact> 0.13214661E+05</totfact>
</mgrwt>
</event>
<event>
 6    4  0.7919556E-003  0.1412482E+03  0.7818608E-02  0.1211659E+00
         21   -1    0    0  501  502  0.00000000000E+00  0.00000000000E+00  0.84986116137E+02  0.84986116137E+02  0.00000000000E+00 0.  1.
         -4   -1    0    0    0  501 -0.00000000000E+00 -0.00000000000E+00 -0.30709748212E+03  0.30710010815E+03  0.12700000000E+01 0. -1.
         25    2    1    2    0    0 -0.19158362321E+02  0.62922976195E+02 -0.27402246690E+03  0.30828455916E+03  0.12499885307E+03 0.  0.
    9000005    1    3    3    0    0  0.37902396114E+02 -0.12523666067E+02 -0.43192747744E+02  0.58822166745E+02  0.10000000000E+01 0.  0.
    9000005    1    3    3    0    0 -0.57060758435E+02  0.75446642262E+02 -0.23082971915E+03  0.24946239241E+03  0.10000000000E+01 0.  0.
         -4    1    1    2    0  502  0.19158362321E+02 -0.62922976195E+02  0.51911100916E+02  0.83801665129E+02  0.12700000000E+01 0.  1.
<mgrwt>
<rscale>  1 0.14124821E+03</rscale>
<asrwt>0</asrwt>
<pdfrwt beam="1">  1       21 0.13074787E-01 0.14124821E+03</pdfrwt>
<pdfrwt beam="2">  1       -4 0.47246698E-01 0.14124821E+03</pdfrwt>
<totfact> 0.90083565E+03</totfact>
</mgrwt>
</event>
<event>
 6    4  0.7919556E-003  0.1273842E+03  0.7818608E-02  0.1231390E+00
         21   -1    0    0  501  502  0.00000000000E+00  0.00000000000E+00  0.21972767510E+02  0.21972767510E+02  0.00000000000E+00 0. -1.
          4   -1    0    0  502    0 -0.00000000000E+00 -0.00000000000E+00 -0.77317497995E+03  0.77317602299E+03  0.12700000000E+01 0.  1.
         25    2    1    2    0    0  0.10869991487E+02 -0.22024508156E+02 -0.75879234041E+03  0.76941051906E+03  0.12499398107E+03 0.  0.
    9000005    1    3    3    0    0  0.66380130254E+01 -0.46626244529E+02 -0.10433462212E+03  0.11447612532E+03  0.10000000000E+01 0.  0.
    9000005    1    3    3    0    0  0.42319784611E+01  0.24601736373E+02 -0.65445771829E+03  0.65493439374E+03  0.10000000000E+01 0.  0.
          4    1    1    2  501    0 -0.10869991487E+02  0.22024508156E+02  0.75901279615E+01  0.25738271443E+02  0.12700000000E+01 0. -1.
<mgrwt>
<rscale>  1 0.12738419E+03</rscale>
<asrwt>0</asrwt>
<pdfrwt beam="1">  1       21 0.33804258E-02 0.12738419E+03</pdfrwt>
<pdfrwt beam="2">  1        4 0.11895290E+00 0.12738419E+03</pdfrwt>
<totfact> 0.11933082E+04</totfact>
</mgrwt>
</event>
<event>
 6    4  0.7919556E-003  0.1266242E+03  0.7818608E-02  0.1232553E+00
         -4   -1    0    0    0  501 -0.00000000000E+00  0.00000000000E+00  0.15145587958E+03  0.15146120414E+03  0.12700000000E+01 0. -1.
         21   -1    0    0  501  502  0.00000000000E+00 -0.00000000000E+00 -0.42784376840E+02  0.42784376840E+02  0.00000000000E+00 0. -1.
         25    2    1    2    0    0 -0.16584832049E+02 -0.11568778058E+02  0.57227816223E+02  0.13895580740E+03  0.12499920072E+03 0.  0.
    9000005    1    3    3    0    0  0.17649151454E+02 -0.51182125486E+02 -0.86131318895E+01  0.54829632109E+02  0.10000000000E+01 0.  0.
    9000005    1    3    3    0    0 -0.34233983503E+02  0.39613347428E+02  0.65840948112E+02  0.84126175292E+02  0.10000000000E+01 0.  0.
         -4    1    1    2    0  502  0.16584832049E+02  0.11568778058E+02  0.51443686516E+02  0.55289773577E+02  0.12700000000E+01 0.  1.
<mgrwt>
<rscale>  1 0.12662422E+03</rscale>
<asrwt>0</asrwt>
<pdfrwt beam="2">  1       21 0.65822119E-02 0.12662422E+03</pdfrwt>
<pdfrwt beam="1">  1       -4 0.23302764E-01 0.12662422E+03</pdfrwt>
<totfact> 0.11417937E+05</totfact>
</mgrwt>
</event>
<event>
 6    4  0.7919556E-003  0.1357361E+03  0.7818608E-02  0.1219184E+00
         21   -1    0    0  501  502  0.00000000000E+00  0.00000000000E+00  0.19993077487E+03  0.19993077487E+03  0.00000000000E+00 0.  1.
          4   -1    0    0  502    0 -0.00000000000E+00 -0.00000000000E+00 -0.44653445765E+02  0.44671502311E+02  0.12700000000E+01 0.  1.
         25    2    1    2    0    0 -0.26782392413E+02  0.45641896406E+02  0.11803358680E+03  0.17987833654E+03  0.12499523628E+03 0.  0.
    9000005    1    3    3    0    0 -0.73954411394E+02  0.30136661321E+02  0.97757317178E+02  0.12623377671E+03  0.10000000000E+01 0.  0.
    9000005    1    3    3    0    0  0.47172018981E+02  0.15505235085E+02  0.20276269625E+02  0.53644559834E+02  0.10000000000E+01 0.  0.
          4    1    1    2  501    0  0.26782392413E+02 -0.45641896406E+02  0.37243742298E+02  0.64723940635E+02  0.12700000000E+01 0. -1.
<mgrwt>
<rscale>  1 0.13573610E+03</rscale>
<asrwt>0</asrwt>
<pdfrwt beam="1">  1       21 0.30758580E-01 0.13573610E+03</pdfrwt>
<pdfrwt beam="2">  1        4 0.68714603E-02 0.13573610E+03</pdfrwt>
<totfact> 0.58544821E+04</totfact>
</mgrwt>
</event>
<event>
 6    4  0.7919556E-003  0.1270515E+03  0.7818608E-02  0.1231898E+00
         21   -1    0    0  501  502  0.00000000000E+00  0.00000000000E+00  0.24233458239E+04  0.24233458239E+04  0.00000000000E+00 0.  1.
         -4   -1    0    0    0  501 -0.00000000000E+00 -0.00000000000E+00 -0.28450935978E+01  0.31156793128E+01  0.12700000000E+01 0.  1.
         25    2    1    2    0    0  0.75159992971E+01 -0.21471198398E+02  0.14122847749E+04  0.14179881381E+04  0.12499828656E+03 0.  0.
    9000005    1    3    3    0    0 -0.19119479062E+02 -0.31268403396E+02  0.12198381205E+03  0.12737471465E+03  0.10000000000E+01 0.  0.
    9000005    1    3    3    0    0  0.26635478359E+02  0.97972049980E+01  0.12903009629E+04  0.12906134234E+04  0.10000000000E+01 0.  0.
         -4    1    1    2    0  502 -0.75159992971E+01  0.21471198398E+02  0.10082159554E+04  0.10084733652E+04  0.12700000000E+01 0. -1.
<mgrwt>
<rscale>  1 0.12705146E+03</rscale>
<asrwt>0</asrwt>
<pdfrwt beam="1">  1       21 0.37282086E+00 0.12705146E+03</pdfrwt>
<pdfrwt beam="2">  1       -4 0.45854853E-03 0.12705146E+03</pdfrwt>
<totfact> 0.52991263E+03</totfact>
</mgrwt>
</event>
<event>
 6    4  0.7919556E-003  0.1267586E+03  0.7818608E-02  0.1232346E+00
         -4   -1    0    0    0  501 -0.00000000000E+00  0.00000000000E+00  0.99647824209E+01  0.10045386438E+02  0.12700000000E+01 0.  1.
         21   -1    0    0  501  502  0.00000000000E+00 -0.00000000000E+00 -0.54681037676E+03  0.54681037676E+03  0.00000000000E+00 0.  1.
         25    2    1    2    0    0  0.20035713265E+02 -0.65354679639E+01 -0.46579689989E+03  0.48273645377E+03  0.12499435868E+03 0.  0.
    9000005    1    3    3    0    0  0.12329800208E+02  0.46053035986E+02 -0.78796814351E+02  0.92102356368E+02  0.10000000000E+01 0.  0.
    9000005    1    3    3    0    0  0.77059130579E+01 -0.52588503950E+02 -0.38700008554E+03  0.39063409740E+03  0.10000000000E+01 0.  0.
         -4    1    1    2    0  502 -0.20035713265E+02  0.65354679639E+01 -0.71048694449E+02  0.74119309431E+02  0.12700000000E+01 0. -1.
<mgrwt>
<rscale>  1 0.12675856E+03</rscale>
<asrwt>0</asrwt>
<pdfrwt beam="2">  1       21 0.84124702E-01 0.12675856E+03</pdfrwt>
<pdfrwt beam="1">  1       -4 0.15393567E-02 0.12675856E+03</pdfrwt>
<totfact> 0.75686343E+04</totfact>
</mgrwt>
</event>
<event>
 6    4  0.7919556E-003  0.1278519E+03  0.7818608E-02  0.1230678E+00
          4   -1    0    0  502    0 -0.00000000000E+00  0.00000000000E+00  0.10022728701E+03  0.10023533290E+03  0.12700000000E+01 0.  1.
         21   -1    0    0  501  502  0.00000000000E+00 -0.00000000000E+00 -0.86587907169E+02  0.86587907169E+02  0.00000000000E+00 0. -1.
         25    2    1    2    0    0 -0.12049324985E+02 -0.23996788822E+02  0.53624049063E+02  0.13864213610E+03  0.12500028464E+03 0.  0.
    9000005    1    3    3    0    0 -0.46679077311E+01 -0.25343618431E+02  0.94045815168E+02  0.97517709717E+02  0.10000000000E+01 0.  0.
    9000005    1    3    3    0    0 -0.73814172544E+01  0.13468296089E+01 -0.40421766105E+02  0.41124426388E+02  0.10000000000E+01 0.  0.
          4    1    1    2  501    0  0.12049324985E+02  0.23996788822E+02 -0.39984669221E+02  0.48181103964E+02  0.12700000000E+01 0. -1.
<mgrwt>
<rscale>  1 0.12785188E+03</rscale>
<asrwt>0</asrwt>
<pdfrwt beam="2">  1       21 0.13321216E-01 0.12785188E+03</pdfrwt>
<pdfrwt beam="1">  1        4 0.15420918E-01 0.12785188E+03</pdfrwt>
<totfact> 0.70006612E+04</totfact>
</mgrwt>
</event>
<event>
 6    4  0.7919556E-003  0.1320489E+03  0.7818608E-02  0.1224447E+00
         21   -1    0    0  501  502  0.00000000000E+00  0.00000000000E+00  0.12539292254E+03  0.12539292254E+03  0.00000000000E+00 0. -1.
         -4   -1    0    0    0  501 -0.00000000000E+00 -0.00000000000E+00 -0.66224941224E+02  0.66237117541E+02  0.12700000000E+01 0. -1.
         25    2    1    2    0    0 -0.36019004441E+02  0.22681779116E+02  0.19591160509E+02  0.13349425566E+03  0.12500028376E+03 0.  0.
    9000005    1    3    3    0    0 -0.23304096950E+02 -0.16901121647E+02 -0.46917286707E+02  0.55054160965E+02  0.10000000000E+01 0.  0.
    9000005    1    3    3    0    0 -0.12714907491E+02  0.39582900763E+02  0.66508447215E+02  0.78440094698E+02  0.10000000000E+01 0.  0.
         -4    1    1    2    0  502  0.36019004441E+02 -0.22681779116E+02  0.39576820812E+02  0.58135784422E+02  0.12700000000E+01 0.  1.
<mgrwt>
<rscale>  1 0.13204886E+03</rscale>
<asrwt>0</asrwt>
<pdfrwt beam="1">  1       21 0.19291219E-01 0.13204886E+03</pdfrwt>
<pdfrwt beam="2">  1       -4 0.10189884E-01 0.13204886E+03</pdfrwt>
<totfact> 0.73143915E+04</totfact>
</mgrwt>
</event>
<event>
 6    4  0.7919556E-003  0.1298309E+03  0.7818608E-02  0.1227707E+00
         21   -1    0    0  501  502  0.00000000000E+00  0.00000000000E+00  0.68530013560E+03  0.68530013560E+03  0.00000000000E+00 0.  1.
          4   -1    0    0  502    0 -0.00000000000E+00 -0.00000000000E+00 -0.16959761986E+02  0.17007246298E+02  0.12700000000E+01 0. -1.
         25    2    1    2    0    0  0.27697059346E+02 -0.21549464415E+02  0.24290251165E+03  0.27542274431E+03  0.12499820561E+03 0.  0.
    9000005    1    3    3    0    0  0.33409160340E+02  0.44097470291E+02  0.63108675049E+02  0.83931303738E+02  0.10000000000E+01 0.  0.
    9000005    1    3    3    0    0 -0.57121009943E+01 -0.65646934706E+02  0.17979383660E+03  0.19149144058E+03  0.10000000000E+01 0.  0.
          4    1    1    2  501    0 -0.27697059346E+02  0.21549464415E+02  0.42543786196E+03  0.42688463758E+03  0.12700000000E+01 0.  1.
<mgrwt>
<rscale>  1 0.12983088E+03</rscale>
<asrwt>0</asrwt>
<pdfrwt beam="1">  1       21 0.10543077E+00 0.12983088E+03</pdfrwt>
<pdfrwt beam="2">  1        4 0.26129378E-02 0.12983088E+03</pdfrwt>
<totfact> 0.19942092E+04</totfact>
</mgrwt>
</event>
<event>
 6    4  0.7919556E-003  0.1270912E+03  0.7818608E-02  0.1231837E+00
         21   -1    0    0  501  502  0.00000000000E+00  0.00000000000E+00  0.12494687424E+03  0.12494687424E+03  0.00000000000E+00 0. -1.
         -4   -1    0    0    0  501 -0.00000000000E+00 -0.00000000000E+00 -0.45917004702E+02  0.45934564555E+02  0.12700000000E+01 0. -1.
         25    2    1    2    0    0  0.11449004332E+02  0.20005653701E+02  0.58181937766E+02  0.13977589203E+03  0.12498342382E+03 0.  0.
    9000005    1    3    3    0    0  0.22520630841E+02 -0.36906165179E+02  0.68370980238E+02  0.80900153154E+02  0.10000000000E+01 0.  0.
    9000005    1    3    3    0    0 -0.11071626509E+02  0.56911818880E+02 -0.10189042472E+02  0.58875738877E+02  0.10000000000E+01 0.  0.
         -4    1    1    2    0  502 -0.11449004332E+02 -0.20005653701E+02  0.20847931767E+02  0.31105546759E+02  0.12700000000E+01 0.  1.
<mgrwt>
<rscale>  1 0.12709116E+03</rscale>
<asrwt>0</asrwt>
<pdfrwt beam="1">  1       21 0.19222596E-01 0.12709116E+03</pdfrwt>
<pdfrwt beam="2">  1       -4 0.70660018E-02 0.12709116E+03</pdfrwt>
<totfact> 0.13461403E+05</totfact>
</mgrwt>
</event>
<event>
 6    4  0.7919556E-003  0.1277023E+03  0.7818608E-02  0.1230906E+00
         21   -1    0    0  501  502  0.00000000000E+00  0.00000000000E+00  0.34411794097E+03  0.34411794097E+03  0.00000000000E+00 0.  1.
         -4   -1    0    0    0  501 -0.00000000000E+00 -0.00000000000E+00 -0.19389551553E+02  0.19431099028E+02  0.12700000000E+01 0.  1.
         25    2    1    2    0    0 -0.19507532022E+02  0.17366670433E+02  0.30542434159E+03  0.33104666762E+03  0.12500289061E+03 0.  0.
    9000005    1    3    3    0    0 -0.66213613380E+02  0.72352683227E+01  0.24557647920E+03  0.25445117182E+03  0.10000000000E+01 0.  0.
    9000005    1    3    3    0    0  0.46706081358E+02  0.10131402111E+02  0.59847862383E+02  0.76595495797E+02  0.10000000000E+01 0.  0.
         -4    1    1    2    0  502  0.19507532022E+02 -0.17366670433E+02  0.19304047831E+02  0.32502372378E+02  0.12700000000E+01 0. -1.
<mgrwt>
<rscale>  1 0.12770226E+03</rscale>
<asrwt>0</asrwt>
<pdfrwt beam="1">  1       21 0.52941217E-01 0.12770226E+03</pdfrwt>
<pdfrwt beam="2">  1       -4 0.29863844E-02 0.12770226E+03</pdfrwt>
<totfact> 0.74201298E+04</totfact>
</mgrwt>
</event>
<event>
 6    4  0.7919556E-003  0.1286145E+03  0.7818608E-02  0.1229526E+00
         21   -1    0    0  501  502  0.00000000000E+00  0.00000000000E+00  0.16423367562E+03  0.16423367562E+03  0.00000000000E+00 0. -1.
          4   -1    0    0  502    0 -0.00000000000E+00 -0.00000000000E+00 -0.43078650681E+02  0.43097367025E+02  0.12700000000E+01 0. -1.
         25    2    1    2    0    0  0.30244083671E+02  0.11965172239E+01  0.66374016829E+02  0.14473145798E+03  0.12500219425E+03 0.  0.
    9000005    1    3    3    0    0  0.63481885858E+02 -0.14815545274E+02 -0.39457707109E+01  0.65314771073E+02  0.10000000000E+01 0.  0.
    9000005    1    3    3    0    0 -0.33237802187E+02  0.16012062498E+02  0.70319787539E+02  0.79416686907E+02  0.10000000000E+01 0.  0.
          4    1    1    2  501    0 -0.30244083671E+02 -0.11965172239E+01  0.54781008109E+02  0.62599584663E+02  0.12700000000E+01 0.  1.
<mgrwt>
<rscale>  1 0.12861448E+03</rscale>
<asrwt>0</asrwt>
<pdfrwt beam="1">  1       21 0.25266719E-01 0.12861448E+03</pdfrwt>
<pdfrwt beam="2">  1        4 0.66293022E-02 0.12861448E+03</pdfrwt>
<totfact> 0.89867919E+04</totfact>
</mgrwt>
</event>
<event>
 6    4  0.7919556E-003  0.1266776E+03  0.7818608E-02  0.1232471E+00
         21   -1    0    0  501  502  0.00000000000E+00  0.00000000000E+00  0.34060360413E+03  0.34060360413E+03  0.00000000000E+00 0.  1.
         -4   -1    0    0    0  501 -0.00000000000E+00 -0.00000000000E+00 -0.29184449569E+02  0.29212069366E+02  0.12700000000E+01 0. -1.
         25    2    1    2    0    0 -0.68511292470E+01 -0.19257153757E+02  0.11122570759E+03  0.16857749359E+03  0.12501774823E+03 0.  0.
    9000005    1    3    3    0    0 -0.50218905918E+02 -0.51995361762E+02  0.61480082225E+02  0.94901299605E+02  0.10000000000E+01 0.  0.
    9000005    1    3    3    0    0  0.43367776671E+02  0.32738208006E+02  0.49745625370E+02  0.73676193986E+02  0.10000000000E+01 0.  0.
         -4    1    1    2    0  502  0.68511292470E+01  0.19257153757E+02  0.20019344696E+03  0.20123817990E+03  0.12700000000E+01 0.  1.
<mgrwt>
<rscale>  1 0.12667760E+03</rscale>
<asrwt>0</asrwt>
<pdfrwt beam="1">  1       21 0.52400552E-01 0.12667760E+03</pdfrwt>
<pdfrwt beam="2">  1       -4 0.44922223E-02 0.12667760E+03</pdfrwt>
<totfact> 0.39739822E+04</totfact>
</mgrwt>
</event>
<event>
 6    4  0.7919556E-003  0.1367705E+03  0.7818608E-02  0.1217742E+00
         -4   -1    0    0    0  501 -0.00000000000E+00  0.00000000000E+00  0.28114694231E+03  0.28114981072E+03  0.12700000000E+01 0.  1.
         21   -1    0    0  501  502  0.00000000000E+00 -0.00000000000E+00 -0.32931362592E+02  0.32931362592E+02  0.00000000000E+00 0.  1.
         25    2    1    2    0    0  0.38143894745E+02  0.40324392008E+02  0.18218428991E+03  0.22780975608E+03  0.12500062472E+03 0.  0.
    9000005    1    3    3    0    0  0.53483281060E+01  0.60463565422E+02  0.17919071525E+03  0.18919503109E+03  0.10000000000E+01 0.  0.
    9000005    1    3    3    0    0  0.32795566639E+02 -0.20139173414E+02  0.29935746529E+01  0.38614724991E+02  0.10000000000E+01 0.  0.
         -4    1    1    2    0  502 -0.38143894745E+02 -0.40324392008E+02  0.66031289809E+02  0.86271417230E+02  0.12700000000E+01 0. -1.
<mgrwt>
<rscale>  1 0.13677050E+03</rscale>
<asrwt>0</asrwt>
<pdfrwt beam="2">  1       21 0.50663637E-02 0.13677050E+03</pdfrwt>
<pdfrwt beam="1">  1       -4 0.43255479E-01 0.13677050E+03</pdfrwt>
<totfact> 0.55320204E+04</totfact>
</mgrwt>
</event>
<event>
 6    4  0.7919556E-003  0.1727029E+03  0.7818608E-02  0.1175058E+00
         21   -1    0    0  501  502  0.00000000000E+00  0.00000000000E+00  0.12159399006E+04  0.12159399006E+04  0.00000000000E+00 0. -1.
          4   -1    0    0  502    0 -0.00000000000E+00 -0.00000000000E+00 -0.42971048398E+02  0.42989811588E+02  0.12700000000E+01 0.  1.
         25    2    1    2    0    0  0.84295259524E+02  0.84241894251E+02  0.14913670366E+03  0.22818422042E+03  0.12499557809E+03 0.  0.
    9000005    1    3    3    0    0  0.95178251975E+02  0.10883188017E+03  0.11515046921E+03  0.18483481368E+03  0.10000000000E+01 0.  0.
    9000005    1    3    3    0    0 -0.10882992451E+02 -0.24589985914E+02  0.33986234456E+02  0.43349406737E+02  0.10000000000E+01 0.  0.
          4    1    1    2  501    0 -0.84295259524E+02 -0.84241894251E+02  0.10238321486E+04  0.10307454918E+04  0.12700000000E+01 0. -1.
<mgrwt>
<rscale>  1 0.17270287E+03</rscale>
<asrwt>0</asrwt>
<pdfrwt beam="1">  1       21 0.18706765E+00 0.17270287E+03</pdfrwt>
<pdfrwt beam="2">  1        4 0.66124258E-02 0.17270287E+03</pdfrwt>
<totfact> 0.10431033E+03</totfact>
</mgrwt>
</event>
<event>
 6    4  0.7919556E-003  0.1407841E+03  0.7818608E-02  0.1212278E+00
          4   -1    0    0  502    0 -0.00000000000E+00  0.00000000000E+00  0.30994822323E+03  0.30995082511E+03  0.12700000000E+01 0.  1.
         21   -1    0    0  501  502  0.00000000000E+00 -0.00000000000E+00 -0.40959338502E+02  0.40959338502E+02  0.00000000000E+00 0. -1.
         25    2    1    2    0    0  0.12335247819E+02 -0.63589530882E+02  0.24353972652E+03  0.28130370320E+03  0.12499755304E+03 0.  0.
    9000005    1    3    3    0    0  0.64102890204E+02 -0.18847372587E+02  0.15946510725E+03  0.17290033088E+03  0.10000000000E+01 0.  0.
    9000005    1    3    3    0    0 -0.51767642385E+02 -0.44742158294E+02  0.84074619267E+02  0.10840337233E+03  0.10000000000E+01 0.  0.
          4    1    1    2  501    0 -0.12335247819E+02  0.63589530882E+02  0.25449158208E+02  0.69606460404E+02  0.12700000000E+01 0. -1.
<mgrwt>
<rscale>  1 0.14078414E+03</rscale>
<asrwt>0</asrwt>
<pdfrwt beam="2">  1       21 0.63014369E-02 0.14078414E+03</pdfrwt>
<pdfrwt beam="1">  1        4 0.47686055E-01 0.14078414E+03</pdfrwt>
<totfact> 0.31546007E+04</totfact>
</mgrwt>
</event>
<event>
 6    4  0.7919556E-003  0.1266681E+03  0.7818608E-02  0.1232485E+00
         -4   -1    0    0    0  501 -0.00000000000E+00  0.00000000000E+00  0.12456943723E+03  0.12457591096E+03  0.12700000000E+01 0.  1.
         21   -1    0    0  501  502  0.00000000000E+00 -0.00000000000E+00 -0.67682258349E+02  0.67682258349E+02  0.00000000000E+00 0. -1.
         25    2    1    2    0    0 -0.13203231025E+02  0.15669298095E+02  0.88529849010E+02  0.15453915971E+03  0.12499986202E+03 0.  0.
    9000005    1    3    3    0    0 -0.46348799331E+02 -0.26090717793E+02  0.24161881359E+01  0.53251992634E+02  0.10000000000E+01 0.  0.
    9000005    1    3    3    0    0  0.33145568306E+02  0.41760015888E+02  0.86113660874E+02  0.10128716708E+03  0.10000000000E+01 0.  0.
         -4    1    1    2    0  502  0.13203231025E+02 -0.15669298095E+02 -0.31642670129E+02  0.37719009599E+02  0.12700000000E+01 0. -1.
<mgrwt>
<rscale>  1 0.12666814E+03</rscale>
<asrwt>0</asrwt>
<pdfrwt beam="2">  1       21 0.10412655E-01 0.12666814E+03</pdfrwt>
<pdfrwt beam="1">  1       -4 0.19165943E-01 0.12666814E+03</pdfrwt>
<totfact> 0.73607864E+04</totfact>
</mgrwt>
</event>
<event>
 6    4  0.7919556E-003  0.1281965E+03  0.7818608E-02  0.1230157E+00
         -4   -1    0    0    0  501 -0.00000000000E+00  0.00000000000E+00  0.55936391210E+02  0.55950806622E+02  0.12700000000E+01 0. -1.
         21   -1    0    0  501  502  0.00000000000E+00 -0.00000000000E+00 -0.16858730610E+03  0.16858730610E+03  0.00000000000E+00 0.  1.
         25    2    1    2    0    0 -0.26095488214E+02 -0.11324536677E+02 -0.22703896259E+02  0.13019141857E+03  0.12500047571E+03 0.  0.
    9000005    1    3    3    0    0 -0.35292358788E+02 -0.55643730888E+02  0.19055053195E+02  0.68599347141E+02  0.10000000000E+01 0.  0.
    9000005    1    3    3    0    0  0.91968705741E+01  0.44319194211E+02 -0.41758949454E+02  0.61592071433E+02  0.10000000000E+01 0.  0.
         -4    1    1    2    0  502  0.26095488214E+02  0.11324536677E+02 -0.89947018636E+02  0.94346694153E+02  0.12700000000E+01 0.  1.
<mgrwt>
<rscale>  1 0.12819648E+03</rscale>
<asrwt>0</asrwt>
<pdfrwt beam="2">  1       21 0.25936508E-01 0.12819648E+03</pdfrwt>
<pdfrwt beam="1">  1       -4 0.86070757E-02 0.12819648E+03</pdfrwt>
<totfact> 0.55591781E+04</totfact>
</mgrwt>
</event>
<event>
 6    4  0.7919556E-003  0.1405009E+03  0.7818608E-02  0.1212657E+00
         21   -1    0    0  501  502  0.00000000000E+00  0.00000000000E+00  0.45374261837E+03  0.45374261837E+03  0.00000000000E+00 0.  1.
          4   -1    0    0  502    0 -0.00000000000E+00 -0.00000000000E+00 -0.46160479221E+02  0.46177946488E+02  0.12700000000E+01 0. -1.
         25    2    1    2    0    0  0.38837309404E+02  0.51058473343E+02  0.71271740342E+02  0.15754416154E+03  0.12500079025E+03 0.  0.
    9000005    1    3    3    0    0  0.29584184331E+02 -0.20365174481E+02 -0.20120839226E+02  0.41180243629E+02  0.10000000000E+01 0.  0.
    9000005    1    3    3    0    0  0.92531250723E+01  0.71423647823E+02  0.91392579568E+02  0.11636391791E+03  0.10000000000E+01 0.  0.
          4    1    1    2  501    0 -0.38837309404E+02 -0.51058473343E+02  0.33631039881E+03  0.34237640331E+03  0.12700000000E+01 0.  1.
<mgrwt>
<rscale>  1 0.14050090E+03</rscale>
<asrwt>0</asrwt>
<pdfrwt beam="1">  1       21 0.69806554E-01 0.14050090E+03</pdfrwt>
<pdfrwt beam="2">  1        4 0.71030929E-02 0.14050090E+03</pdfrwt>
<totfact> 0.10368189E+04</totfact>
</mgrwt>
</event>
<event>
 6    4  0.7919556E-003  0.1302250E+03  0.7818608E-02  0.1227122E+00
          4   -1    0    0  502    0 -0.00000000000E+00  0.00000000000E+00  0.11363621819E+03  0.11364331474E+03  0.12700000000E+01 0. -1.
         21   -1    0    0  501  502  0.00000000000E+00 -0.00000000000E+00 -0.30283798582E+03  0.30283798582E+03  0.00000000000E+00 0.  1.
         25    2    1    2    0    0 -0.65084936865E+00  0.36531040955E+02  0.74653295995E+02  0.15010553579E+03  0.12499446673E+03 0.  0.
    9000005    1    3    3    0    0  0.61042593865E+02  0.18572943283E+02  0.23619144575E+02  0.68044224431E+02  0.10000000000E+01 0.  0.
    9000005    1    3    3    0    0 -0.61693443233E+02  0.17958097673E+02  0.51034151420E+02  0.82061311354E+02  0.10000000000E+01 0.  0.
          4    1    1    2  501    0  0.65084936865E+00 -0.36531040955E+02 -0.26385506362E+03  0.26637576477E+03  0.12700000000E+01 0.  1.
<mgrwt>
<rscale>  1 0.13022503E+03</rscale>
<asrwt>0</asrwt>
<pdfrwt beam="2">  1       21 0.46590459E-01 0.13022503E+03</pdfrwt>
<pdfrwt beam="1">  1        4 0.17483246E-01 0.13022503E+03</pdfrwt>
<totfact> 0.52264504E+03</totfact>
</mgrwt>
</event>
<event>
 6    4  0.7919556E-003  0.1326506E+03  0.7818608E-02  0.1223575E+00
         21   -1    0    0  501  502  0.00000000000E+00  0.00000000000E+00  0.60347216873E+02  0.60347216873E+02  0.00000000000E+00 0. -1.
          4   -1    0    0  502    0 -0.00000000000E+00 -0.00000000000E+00 -0.32066211253E+03  0.32066462747E+03  0.12700000000E+01 0.  1.
         25    2    1    2    0    0  0.17834422694E+02  0.40639524661E+02 -0.29579549747E+03  0.32417766799E+03  0.12500618586E+03 0.  0.
    9000005    1    3    3    0    0 -0.26709051893E+02  0.49126420565E+02 -0.26123665289E+03  0.26715607323E+03  0.10000000000E+01 0.  0.
    9000005    1    3    3    0    0  0.44543474587E+02 -0.84868959039E+01 -0.34558844578E+02  0.57021594760E+02  0.10000000000E+01 0.  0.
          4    1    1    2  501    0 -0.17834422694E+02 -0.40639524661E+02  0.35480601809E+02  0.56834176358E+02  0.12700000000E+01 0. -1.
<mgrwt>
<rscale>  1 0.13265061E+03</rscale>
<asrwt>0</asrwt>
<pdfrwt beam="1">  1       21 0.92841872E-02 0.13265061E+03</pdfrwt>
<pdfrwt beam="2">  1        4 0.49333854E-01 0.13265061E+03</pdfrwt>
<totfact> 0.15013869E+04</totfact>
</mgrwt>
</event>
<event>
 6    4  0.7919556E-003  0.1270798E+03  0.7818608E-02  0.1231854E+00
         -4   -1    0    0    0  501 -0.00000000000E+00  0.00000000000E+00  0.14195644720E+03  0.14196212805E+03  0.12700000000E+01 0.  1.
         21   -1    0    0  501  502  0.00000000000E+00 -0.00000000000E+00 -0.49022141685E+02  0.49022141685E+02  0.00000000000E+00 0. -1.
         25    2    1    2    0    0 -0.20176485104E+02 -0.10821358472E+02  0.10520516298E+03  0.16497697858E+03  0.12500033918E+03 0.  0.
    9000005    1    3    3    0    0  0.11756880101E+02 -0.37720780237E+01 -0.26508795107E+02  0.29260366032E+02  0.10000000000E+01 0.  0.
    9000005    1    3    3    0    0 -0.31933365205E+02 -0.70492804482E+01  0.13171395808E+03  0.13571661255E+03  0.10000000000E+01 0.  0.
         -4    1    1    2    0  502  0.20176485104E+02  0.10821358472E+02 -0.12270857463E+02  0.26007291154E+02  0.12700000000E+01 0. -1.
<mgrwt>
<rscale>  1 0.12707981E+03</rscale>
<asrwt>0</asrwt>
<pdfrwt beam="2">  1       21 0.75418680E-02 0.12707981E+03</pdfrwt>
<pdfrwt beam="1">  1       -4 0.21841156E-01 0.12707981E+03</pdfrwt>
<totfact> 0.10184515E+05</totfact>
</mgrwt>
</event>
<event>
 6    4  0.7919556E-003  0.1477317E+03  0.7818608E-02  0.1203288E+00
         21   -1    0    0  501  502  0.00000000000E+00  0.00000000000E+00  0.28499193657E+03  0.28499193657E+03  0.00000000000E+00 0.  1.
         -4   -1    0    0    0  501 -0.00000000000E+00 -0.00000000000E+00 -0.86390869251E+02  0.86400203645E+02  0.12700000000E+01 0.  1.
         25    2    1    2    0    0  0.78699454669E+02 -0.24911205617E+01 -0.10350425385E+02  0.14809379931E+03  0.12499932897E+03 0.  0.
    9000005    1    3    3    0    0  0.10248657200E+03 -0.34202160336E+02 -0.89006674208E+01  0.10841359275E+03  0.10000000000E+01 0.  0.
    9000005    1    3    3    0    0 -0.23787117334E+02  0.31711039774E+02 -0.14497579639E+01  0.39680206561E+02  0.10000000000E+01 0.  0.
         -4    1    1    2    0  502 -0.78699454669E+02  0.24911205617E+01  0.20895149271E+03  0.22329834091E+03  0.12700000000E+01 0. -1.
<mgrwt>
<rscale>  1 0.14773166E+03</rscale>
<asrwt>0</asrwt>
<pdfrwt beam="1">  1       21 0.43844913E-01 0.14773166E+03</pdfrwt>
<pdfrwt beam="2">  1       -4 0.13291839E-01 0.14773166E+03</pdfrwt>
<totfact> 0.96339538E+03</totfact>
</mgrwt>
</event>
<event>
 6    4  0.7919556E-003  0.1273558E+03  0.7818608E-02  0.1231433E+00
         21   -1    0    0  501  502  0.00000000000E+00  0.00000000000E+00  0.10182703904E+04  0.10182703904E+04  0.00000000000E+00 0.  1.
         -4   -1    0    0    0  501 -0.00000000000E+00 -0.00000000000E+00 -0.79079062766E+01  0.80092372720E+01  0.12700000000E+01 0.  1.
         25    2    1    2    0    0 -0.12710744532E+02 -0.20827412690E+02  0.52218391778E+03  0.53749003114E+03  0.12499658170E+03 0.  0.
    9000005    1    3    3    0    0  0.49139381035E+02 -0.31098166504E+02  0.33688833592E+03  0.34187208954E+03  0.10000000000E+01 0.  0.
    9000005    1    3    3    0    0 -0.61850125567E+02  0.10270753813E+02  0.18529558186E+03  0.19561794160E+03  0.10000000000E+01 0.  0.
         -4    1    1    2    0  502  0.12710744532E+02  0.20827412690E+02  0.48817856633E+03  0.48878959652E+03  0.12700000000E+01 0. -1.
<mgrwt>
<rscale>  1 0.12735576E+03</rscale>
<asrwt>0</asrwt>
<pdfrwt beam="1">  1       21 0.15665688E+00 0.12735576E+03</pdfrwt>
<pdfrwt beam="2">  1       -4 0.12244574E-02 0.12735576E+03</pdfrwt>
<totfact> 0.23787831E+04</totfact>
</mgrwt>
</event>
<event>
 6    4  0.7919556E-003  0.1267850E+03  0.7818608E-02  0.1232306E+00
         21   -1    0    0  501  502  0.00000000000E+00  0.00000000000E+00  0.24112129761E+02  0.24112129761E+02  0.00000000000E+00 0. -1.
          4   -1    0    0  502    0 -0.00000000000E+00 -0.00000000000E+00 -0.26202244513E+03  0.26202552290E+03  0.12700000000E+01 0. -1.
         25    2    1    2    0    0  0.46054941379E+01  0.20696981516E+02 -0.23150978470E+03  0.26395307890E+03  0.12499948732E+03 0.  0.
    9000005    1    3    3    0    0  0.40906293940E+02 -0.37564295309E+02 -0.77653586091E+02  0.95475026047E+02  0.10000000000E+01 0.  0.
    9000005    1    3    3    0    0 -0.36300799802E+02  0.58261276825E+02 -0.15385619861E+03  0.16847805286E+03  0.10000000000E+01 0.  0.
          4    1    1    2  501    0 -0.46054941379E+01 -0.20696981516E+02 -0.64005306696E+01  0.22184573762E+02  0.12700000000E+01 0.  1.
<mgrwt>
<rscale>  1 0.12678504E+03</rscale>
<asrwt>0</asrwt>
<pdfrwt beam="1">  1       21 0.37095583E-02 0.12678504E+03</pdfrwt>
<pdfrwt beam="2">  1        4 0.40313956E-01 0.12678504E+03</pdfrwt>
<totfact> 0.10586268E+05</totfact>
</mgrwt>
</event>
<event>
 6    4  0.7919556E-003  0.1298351E+03  0.7818608E-02  0.1227701E+00
         21   -1    0    0  501  502  0.00000000000E+00  0.00000000000E+00  0.87677065225E+02  0.87677065225E+02  0.00000000000E+00 0.  1.
          4   -1    0    0  502    0 -0.00000000000E+00 -0.00000000000E+00 -0.17919880871E+03  0.17920330896E+03  0.12700000000E+01 0. -1.
         25    2    1    2    0    0  0.34842741510E+02 -0.41986244762E+01 -0.15017433570E+03  0.19851821684E+03  0.12500202490E+03 0.  0.
    9000005    1    3    3    0    0  0.41894048090E+02 -0.59516412708E+02 -0.71094804458E+02  0.10174864062E+03  0.10000000000E+01 0.  0.
    9000005    1    3    3    0    0 -0.70513065794E+01  0.55317788232E+02 -0.79079531243E+02  0.96769576216E+02  0.10000000000E+01 0.  0.
          4    1    1    2  501    0 -0.34842741510E+02  0.41986244762E+01  0.58652592219E+02  0.68362157350E+02  0.12700000000E+01 0.  1.
<mgrwt>
<rscale>  1 0.12983509E+03</rscale>
<asrwt>0</asrwt>
<pdfrwt beam="1">  1       21 0.13488779E-01 0.12983509E+03</pdfrwt>
<pdfrwt beam="2">  1        4 0.27570101E-01 0.12983509E+03</pdfrwt>
<totfact> 0.24038462E+04</totfact>
</mgrwt>
</event>
<event>
 6    4  0.7919556E-003  0.1337089E+03  0.7818608E-02  0.1222054E+00
          4   -1    0    0  502    0 -0.00000000000E+00  0.00000000000E+00  0.27580820365E+03  0.27581112759E+03  0.12700000000E+01 0.  1.
         21   -1    0    0  501  502  0.00000000000E+00 -0.00000000000E+00 -0.36264635258E+02  0.36264635258E+02  0.00000000000E+00 0.  1.
         25    2    1    2    0    0 -0.42425211858E+02  0.21269203922E+02  0.22619633824E+03  0.26276005450E+03  0.12500314065E+03 0.  0.
    9000005    1    3    3    0    0 -0.78948926297E+01 -0.38146076602E+02  0.16873442345E+03  0.17317551255E+03  0.10000000000E+01 0.  0.
    9000005    1    3    3    0    0 -0.34530319228E+02  0.59415280524E+02  0.57461914791E+02  0.89584541955E+02  0.10000000000E+01 0.  0.
          4    1    1    2  501    0  0.42425211858E+02 -0.21269203922E+02  0.13347230154E+02  0.49315708344E+02  0.12700000000E+01 0. -1.
<mgrwt>
<rscale>  1 0.13370887E+03</rscale>
<asrwt>0</asrwt>
<pdfrwt beam="2">  1       21 0.55791748E-02 0.13370887E+03</pdfrwt>
<pdfrwt beam="1">  1        4 0.42433965E-01 0.13370887E+03</pdfrwt>
<totfact> 0.48707430E+04</totfact>
</mgrwt>
</event>
<event>
 6    4  0.7919556E-003  0.1269211E+03  0.7818608E-02  0.1232097E+00
         21   -1    0    0  501  502  0.00000000000E+00  0.00000000000E+00  0.68725399863E+03  0.68725399863E+03  0.00000000000E+00 0.  1.
          4   -1    0    0  502    0 -0.00000000000E+00 -0.00000000000E+00 -0.80221275103E+01  0.81220335995E+01  0.12700000000E+01 0.  1.
         25    2    1    2    0    0  0.11913510964E+02 -0.18499452822E+02  0.57614718011E+03  0.58996147954E+03  0.12499925077E+03 0.  0.
    9000005    1    3    3    0    0  0.45497070486E+02  0.37662140627E+02  0.21679855635E+03  0.22470210123E+03  0.10000000000E+01 0.  0.
    9000005    1    3    3    0    0 -0.33583559522E+02 -0.56161593449E+02  0.35934862376E+03  0.36525937831E+03  0.10000000000E+01 0.  0.
          4    1    1    2  501    0 -0.11913510964E+02  0.18499452822E+02  0.10308469101E+03  0.10541455269E+03  0.12700000000E+01 0. -1.
<mgrwt>
<rscale>  1 0.12692113E+03</rscale>
<asrwt>0</asrwt>
<pdfrwt beam="1">  1       21 0.10573134E+00 0.12692113E+03</pdfrwt>
<pdfrwt beam="2">  1        4 0.12419493E-02 0.12692113E+03</pdfrwt>
<totfact> 0.61841020E+04</totfact>
</mgrwt>
</event>
<event>
 6    4  0.7919556E-003  0.1301172E+03  0.7818608E-02  0.1227282E+00
          4   -1    0    0  502    0 -0.00000000000E+00  0.00000000000E+00  0.32338326789E+03  0.32338576167E+03  0.12700000000E+01 0. -1.
         21   -1    0    0  501  502  0.00000000000E+00 -0.00000000000E+00 -0.86647167955E+02  0.86647167955E+02  0.00000000000E+00 0.  1.
         25    2    1    2    0    0 -0.16006533306E+02 -0.32376951297E+02  0.30566347100E+03  0.33220573986E+03  0.12500407996E+03 0.  0.
    9000005    1    3    3    0    0 -0.68812415464E+02 -0.22151046267E+02  0.13331546842E+03  0.15165695333E+03  0.10000000000E+01 0.  0.
    9000005    1    3    3    0    0  0.52805882158E+02 -0.10225905030E+02  0.17234800258E+03  0.18054878653E+03  0.10000000000E+01 0.  0.
          4    1    1    2  501    0  0.16006533306E+02  0.32376951297E+02 -0.68927371070E+02  0.77827189763E+02  0.12700000000E+01 0.  1.
<mgrwt>
<rscale>  1 0.13011724E+03</rscale>
<asrwt>0</asrwt>
<pdfrwt beam="2">  1       21 0.13330334E-01 0.13011724E+03</pdfrwt>
<pdfrwt beam="1">  1        4 0.49752179E-01 0.13011724E+03</pdfrwt>
<totfact> 0.77846183E+03</totfact>
</mgrwt>
</event>
<event>
 6    4  0.7919556E-003  0.1266774E+03  0.7818608E-02  0.1232471E+00
         21   -1    0    0  501  502  0.00000000000E+00  0.00000000000E+00  0.70491306576E+01  0.70491306576E+01  0.00000000000E+00 0. -1.
         -4   -1    0    0    0  501 -0.00000000000E+00 -0.00000000000E+00 -0.12388351521E+04  0.12388358030E+04  0.12700000000E+01 0. -1.
         25    2    1    2    0    0 -0.18940839769E+02 -0.80398037438E+01 -0.12070733643E+04  0.12137022959E+04  0.12499504949E+03 0.  0.
    9000005    1    3    3    0    0  0.49091634536E+02 -0.25623848161E+02 -0.45697713252E+03  0.46032126805E+03  0.10000000000E+01 0.  0.
    9000005    1    3    3    0    0 -0.68032474304E+02  0.17584044417E+02 -0.75009623174E+03  0.75338102780E+03  0.10000000000E+01 0.  0.
         -4    1    1    2    0  502  0.18940839769E+02  0.80398037438E+01 -0.24712657153E+02  0.32182637849E+02  0.12700000000E+01 0.  1.
<mgrwt>
<rscale>  1 0.12667737E+03</rscale>
<asrwt>0</asrwt>
<pdfrwt beam="1">  1       21 0.10844819E-02 0.12667737E+03</pdfrwt>
<pdfrwt beam="2">  1       -4 0.19059883E+00 0.12667737E+03</pdfrwt>
<totfact> 0.22274456E+04</totfact>
</mgrwt>
</event>
<event>
 6    4  0.7919556E-003  0.1473812E+03  0.7818608E-02  0.1203728E+00
          4   -1    0    0  502    0 -0.00000000000E+00  0.00000000000E+00  0.23402359503E+03  0.23402704103E+03  0.12700000000E+01 0. -1.
         21   -1    0    0  501  502  0.00000000000E+00 -0.00000000000E+00 -0.11459494087E+03  0.11459494087E+03  0.00000000000E+00 0.  1.
         25    2    1    2    0    0  0.39804444983E+02 -0.67157378097E+02  0.19198786391E+03  0.24203418197E+03  0.12500679213E+03 0.  0.
    9000005    1    3    3    0    0 -0.17396442302E+02  0.22750066686E+02  0.90292877461E+02  0.94731227477E+02  0.10000000000E+01 0.  0.
    9000005    1    3    3    0    0  0.57200887284E+02 -0.89907444783E+02  0.10169498645E+03  0.14730295450E+03  0.10000000000E+01 0.  0.
          4    1    1    2  501    0 -0.39804444983E+02  0.67157378097E+02 -0.72559209754E+02  0.10658779993E+03  0.12700000000E+01 0.  1.
<mgrwt>
<rscale>  1 0.14738116E+03</rscale>
<asrwt>0</asrwt>
<pdfrwt beam="2">  1       21 0.17629991E-01 0.14738116E+03</pdfrwt>
<pdfrwt beam="1">  1        4 0.36004436E-01 0.14738116E+03</pdfrwt>
<totfact> 0.90114248E+03</totfact>
</mgrwt>
</event>
<event>
 6    4  0.7919556E-003  0.1337968E+03  0.7818608E-02  0.1221928E+00
         21   -1    0    0  501  502  0.00000000000E+00  0.00000000000E+00  0.57496769341E+02  0.57496769341E+02  0.00000000000E+00 0. -1.
          4   -1    0    0  502    0 -0.00000000000E+00 -0.00000000000E+00 -0.27330174959E+03  0.27330470034E+03  0.12700000000E+01 0. -1.
         25    2    1    2    0    0 -0.33957348488E+02  0.33529153170E+02 -0.24187060953E+03  0.27641088632E+03  0.12499712274E+03 0.  0.
    9000005    1    3    3    0    0 -0.23900646613E+02 -0.55149192025E+01 -0.23404360803E+03  0.23532757106E+03  0.10000000000E+01 0.  0.
    9000005    1    3    3    0    0 -0.10056701875E+02  0.39044072373E+02 -0.78270014982E+01  0.41083315257E+02  0.10000000000E+01 0.  0.
          4    1    1    2  501    0  0.33957348488E+02 -0.33529153170E+02  0.26065629280E+02  0.54390583362E+02  0.12700000000E+01 0.  1.
<mgrwt>
<rscale>  1 0.13379681E+03</rscale>
<asrwt>0</asrwt>
<pdfrwt beam="1">  1       21 0.88456568E-02 0.13379681E+03</pdfrwt>
<pdfrwt beam="2">  1        4 0.42047729E-01 0.13379681E+03</pdfrwt>
<totfact> 0.22525300E+04</totfact>
</mgrwt>
</event>
<event>
 6    4  0.7919556E-003  0.1329705E+03  0.7818608E-02  0.1223113E+00
         21   -1    0    0  501  502  0.00000000000E+00  0.00000000000E+00  0.45801317356E+02  0.45801317356E+02  0.00000000000E+00 0. -1.
         -4   -1    0    0    0  501 -0.00000000000E+00 -0.00000000000E+00 -0.64370000269E+03  0.64370125552E+03  0.12700000000E+01 0.  1.
         25    2    1    2    0    0 -0.14734471401E+02  0.42890018860E+02 -0.62342381640E+03  0.63744679912E+03  0.12499803395E+03 0.  0.
    9000005    1    3    3    0    0  0.18016683886E+02  0.13600632982E+02 -0.14302585360E+02  0.26742140224E+02  0.10000000000E+01 0.  0.
    9000005    1    3    3    0    0 -0.32751155287E+02  0.29289385878E+02 -0.60912123104E+03  0.61070465890E+03  0.10000000000E+01 0.  0.
         -4    1    1    2    0  502  0.14734471401E+02 -0.42890018860E+02  0.25525131067E+02  0.52055773755E+02  0.12700000000E+01 0. -1.
<mgrwt>
<rscale>  1 0.13297055E+03</rscale>
<asrwt>0</asrwt>
<pdfrwt beam="1">  1       21 0.70463571E-02 0.13297055E+03</pdfrwt>
<pdfrwt beam="2">  1       -4 0.99032212E-01 0.13297055E+03</pdfrwt>
<totfact> 0.53691026E+03</totfact>
</mgrwt>
</event>
<event>
 6    4  0.7919556E-003  0.1275355E+03  0.7818608E-02  0.1231159E+00
         21   -1    0    0  501  502  0.00000000000E+00  0.00000000000E+00  0.15791998997E+03  0.15791998997E+03  0.00000000000E+00 0. -1.
          4   -1    0    0  502    0 -0.00000000000E+00 -0.00000000000E+00 -0.44681012610E+02  0.44699058020E+02  0.12700000000E+01 0. -1.
         25    2    1    2    0    0  0.23771387866E+02 -0.86434117315E+01  0.54574993644E+02  0.13872176062E+03  0.12500203795E+03 0.  0.
    9000005    1    3    3    0    0 -0.85146626823E+01 -0.44733916065E+02  0.73707383461E+02  0.86645260134E+02  0.10000000000E+01 0.  0.
    9000005    1    3    3    0    0  0.32286050548E+02  0.36090504333E+02 -0.19132389817E+02  0.52076500489E+02  0.10000000000E+01 0.  0.
          4    1    1    2  501    0 -0.23771387866E+02  0.86434117315E+01  0.58663983717E+02  0.63897287368E+02  0.12700000000E+01 0.  1.
<mgrwt>
<rscale>  1 0.12753547E+03</rscale>
<asrwt>0</asrwt>
<pdfrwt beam="1">  1       21 0.24295383E-01 0.12753547E+03</pdfrwt>
<pdfrwt beam="2">  1        4 0.68757830E-02 0.12753547E+03</pdfrwt>
<totfact> 0.91059117E+04</totfact>
</mgrwt>
</event>
<event>
 6    4  0.7919556E-003  0.1279140E+03  0.7818608E-02  0.1230584E+00
         21   -1    0    0  501  502  0.00000000000E+00  0.00000000000E+00  0.28805903318E+03  0.28805903318E+03  0.00000000000E+00 0.  1.
         -4   -1    0    0    0  501 -0.00000000000E+00 -0.00000000000E+00 -0.23680161208E+02  0.23714192688E+02  0.12700000000E+01 0.  1.
         25    2    1    2    0    0 -0.13200363797E+02 -0.23736897243E+02  0.16519020209E+03  0.20892530402E+03  0.12499715956E+03 0.  0.
    9000005    1    3    3    0    0  0.52987715185E+02 -0.30716442356E+02  0.83217756449E+02  0.10333147042E+03  0.10000000000E+01 0.  0.
    9000005    1    3    3    0    0 -0.66188078982E+02  0.69795451137E+01  0.81972445638E+02  0.10559383359E+03  0.10000000000E+01 0.  0.
         -4    1    1    2    0  502  0.13200363797E+02  0.23736897243E+02  0.99188669889E+02  0.10284792185E+03  0.12700000000E+01 0. -1.
<mgrwt>
<rscale>  1 0.12791395E+03</rscale>
<asrwt>0</asrwt>
<pdfrwt beam="1">  1       21 0.44316772E-01 0.12791395E+03</pdfrwt>
<pdfrwt beam="2">  1       -4 0.36459351E-02 0.12791395E+03</pdfrwt>
<totfact> 0.78138230E+04</totfact>
</mgrwt>
</event>
<event>
 6    4  0.7919556E-003  0.1266469E+03  0.7818608E-02  0.1232518E+00
         21   -1    0    0  501  502  0.00000000000E+00  0.00000000000E+00  0.17539445912E+02  0.17539445912E+02  0.00000000000E+00 0. -1.
          4   -1    0    0  502    0 -0.00000000000E+00 -0.00000000000E+00 -0.35734790740E+03  0.35735016416E+03  0.12700000000E+01 0. -1.
         25    2    1    2    0    0 -0.18134335742E+02  0.92087449535E+01 -0.32737410858E+03  0.35101742649E+03  0.12500308643E+03 0.  0.
    9000005    1    3    3    0    0 -0.39809577522E+02 -0.44138967565E+02 -0.23295057133E+03  0.24041634637E+03  0.10000000000E+01 0.  0.
    9000005    1    3    3    0    0  0.21675241780E+02  0.53347712518E+02 -0.94423537253E+02  0.11060108012E+03  0.10000000000E+01 0.  0.
          4    1    1    2  501    0  0.18134335742E+02 -0.92087449535E+01 -0.12434352907E+02  0.23872183575E+02  0.12700000000E+01 0.  1.
<mgrwt>
<rscale>  1 0.12664686E+03</rscale>
<asrwt>0</asrwt>
<pdfrwt beam="1">  1       21 0.26983765E-02 0.12664686E+03</pdfrwt>
<pdfrwt beam="2">  1        4 0.54980308E-01 0.12664686E+03</pdfrwt>
<totfact> 0.95549363E+04</totfact>
</mgrwt>
</event>
<event>
 6    4  0.7919556E-003  0.1272236E+03  0.7818608E-02  0.1231635E+00
         21   -1    0    0  501  502  0.00000000000E+00  0.00000000000E+00  0.35792684164E+02  0.35792684164E+02  0.00000000000E+00 0. -1.
          4   -1    0    0  502    0 -0.00000000000E+00 -0.00000000000E+00 -0.84324061502E+03  0.84324157139E+03  0.12700000000E+01 0. -1.
         25    2    1    2    0    0  0.19323969094E+02 -0.13679161590E+02 -0.83387836781E+03  0.84352769080E+03  0.12500119037E+03 0.  0.
    9000005    1    3    3    0    0  0.82828051610E+01  0.55607679699E+02 -0.41923151861E+03  0.42298567954E+03  0.10000000000E+01 0.  0.
    9000005    1    3    3    0    0  0.11041163933E+02 -0.69286841289E+02 -0.41464684920E+03  0.42054201125E+03  0.10000000000E+01 0.  0.
          4    1    1    2  501    0 -0.19323969094E+02  0.13679161590E+02  0.26430436954E+02  0.35506564758E+02  0.12700000000E+01 0.  1.
<mgrwt>
<rscale>  1 0.12722355E+03</rscale>
<asrwt>0</asrwt>
<pdfrwt beam="1">  1       21 0.55065672E-02 0.12722355E+03</pdfrwt>
<pdfrwt beam="2">  1        4 0.12973112E+00 0.12722355E+03</pdfrwt>
<totfact> 0.42876589E+03</totfact>
</mgrwt>
</event>
<event>
 6    4  0.7919556E-003  0.1279287E+03  0.7818608E-02  0.1230562E+00
         -4   -1    0    0    0  501 -0.00000000000E+00  0.00000000000E+00  0.58661082453E+03  0.58661219929E+03  0.12700000000E+01 0. -1.
         21   -1    0    0  501  502  0.00000000000E+00 -0.00000000000E+00 -0.10821128110E+02  0.10821128110E+02  0.00000000000E+00 0. -1.
         25    2    1    2    0    0  0.24742085390E+02 -0.11333442704E+02  0.51770366276E+03  0.53327556934E+03  0.12500053083E+03 0.  0.
    9000005    1    3    3    0    0  0.10566033117E+02 -0.26716546086E+02  0.19741540463E+02  0.34873246342E+02  0.10000000000E+01 0.  0.
    9000005    1    3    3    0    0  0.14176052273E+02  0.15383103382E+02  0.49796212230E+03  0.49840232300E+03  0.10000000000E+01 0.  0.
         -4    1    1    2    0  502 -0.24742085390E+02  0.11333442704E+02  0.58086033664E+02  0.64157758063E+02  0.12700000000E+01 0.  1.
<mgrwt>
<rscale>  1 0.12792869E+03</rscale>
<asrwt>0</asrwt>
<pdfrwt beam="2">  1       21 0.16647894E-02 0.12792869E+03</pdfrwt>
<pdfrwt beam="1">  1       -4 0.90253632E-01 0.12792869E+03</pdfrwt>
<totfact> 0.71670249E+04</totfact>
</mgrwt>
</event>
<event>
 6    4  0.7919556E-003  0.1273579E+03  0.7818608E-02  0.1231430E+00
         21   -1    0    0  501  502  0.00000000000E+00  0.00000000000E+00  0.16539837854E+03  0.16539837854E+03  0.00000000000E+00 0.  1.
          4   -1    0    0  502    0 -0.00000000000E+00 -0.00000000000E+00 -0.36000900977E+02  0.36023294840E+02  0.12700000000E+01 0.  1.
         25    2    1    2    0    0 -0.41615797570E+01 -0.23966811560E+02  0.12095347441E+03  0.17564104322E+03  0.12501322445E+03 0.  0.
    9000005    1    3    3    0    0 -0.63124738216E+02 -0.24131680172E+02  0.54745937767E+02  0.86978090717E+02  0.10000000000E+01 0.  0.
    9000005    1    3    3    0    0  0.58963158459E+02  0.16486861232E+00  0.66207536646E+02  0.88662952499E+02  0.10000000000E+01 0.  0.
          4    1    1    2  501    0  0.41615797570E+01  0.23966811560E+02  0.84440031488E+01  0.25780630163E+02  0.12700000000E+01 0. -1.
<mgrwt>
<rscale>  1 0.12735789E+03</rscale>
<asrwt>0</asrwt>
<pdfrwt beam="1">  1       21 0.25445904E-01 0.12735789E+03</pdfrwt>
<pdfrwt beam="2">  1        4 0.55406979E-02 0.12735789E+03</pdfrwt>
<totfact> 0.11851117E+05</totfact>
</mgrwt>
</event>
<event>
 6    4  0.7919556E-003  0.1289761E+03  0.7818608E-02  0.1228983E+00
         -4   -1    0    0    0  501 -0.00000000000E+00  0.00000000000E+00  0.74750300276E+03  0.74750408162E+03  0.12700000000E+01 0. -1.
         21   -1    0    0  501  502  0.00000000000E+00 -0.00000000000E+00 -0.89898393729E+01  0.89898393729E+01  0.00000000000E+00 0. -1.
         25    2    1    2    0    0  0.29501296724E+02 -0.11762884713E+02  0.64371827545E+03  0.65651204441E+03  0.12500461729E+03 0.  0.
    9000005    1    3    3    0    0  0.60497615988E+02  0.32650361861E+02  0.25779663244E+03  0.26680725509E+03  0.10000000000E+01 0.  0.
    9000005    1    3    3    0    0 -0.30996319264E+02 -0.44413246574E+02  0.38592164300E+03  0.38970478932E+03  0.10000000000E+01 0.  0.
         -4    1    1    2    0  502 -0.29501296724E+02  0.11762884713E+02  0.94794887941E+02  0.99981876582E+02  0.12700000000E+01 0.  1.
<mgrwt>
<rscale>  1 0.12897615E+03</rscale>
<asrwt>0</asrwt>
<pdfrwt beam="2">  1       21 0.13830528E-02 0.12897615E+03</pdfrwt>
<pdfrwt beam="1">  1       -4 0.11500740E+00 0.12897615E+03</pdfrwt>
<totfact> 0.55024953E+04</totfact>
</mgrwt>
</event>
<event>
 6    4  0.7919556E-003  0.1276715E+03  0.7818608E-02  0.1230952E+00
         21   -1    0    0  501  502  0.00000000000E+00  0.00000000000E+00  0.57589205825E+02  0.57589205825E+02  0.00000000000E+00 0.  1.
         -4   -1    0    0    0  501 -0.00000000000E+00 -0.00000000000E+00 -0.18360120577E+03  0.18360559812E+03  0.12700000000E+01 0. -1.
         25    2    1    2    0    0 -0.18537508997E+02  0.18188248749E+02 -0.15594798129E+03  0.20154347974E+03  0.12500219888E+03 0.  0.
    9000005    1    3    3    0    0  0.12506102064E+02 -0.21724685072E+02  0.10786404090E+02  0.27307710331E+02  0.10000000000E+01 0.  0.
    9000005    1    3    3    0    0 -0.31043611061E+02  0.39912933821E+02 -0.16673438538E+03  0.17423576941E+03  0.10000000000E+01 0.  0.
         -4    1    1    2    0  502  0.18537508997E+02 -0.18188248749E+02  0.29935981342E+02  0.39651324205E+02  0.12700000000E+01 0.  1.
<mgrwt>
<rscale>  1 0.12767146E+03</rscale>
<asrwt>0</asrwt>
<pdfrwt beam="1">  1       21 0.88598779E-02 0.12767146E+03</pdfrwt>
<pdfrwt beam="2">  1       -4 0.28247754E-01 0.12767146E+03</pdfrwt>
<totfact> 0.48046533E+04</totfact>
</mgrwt>
</event>
<event>
 6    4  0.7919556E-003  0.1476373E+03  0.7818608E-02  0.1203407E+00
         21   -1    0    0  501  502  0.00000000000E+00  0.00000000000E+00  0.51240752579E+02  0.51240752579E+02  0.00000000000E+00 0.  1.
         -4   -1    0    0    0  501 -0.00000000000E+00 -0.00000000000E+00 -0.38018745058E+03  0.38018957177E+03  0.12700000000E+01 0. -1.
         25    2    1    2    0    0  0.56985506272E+01  0.78386183384E+02 -0.31987894377E+03  0.35230571192E+03  0.12497963337E+03 0.  0.
    9000005    1    3    3    0    0 -0.53378101198E+02  0.56401155833E+02 -0.22811725425E+03  0.24097467451E+03  0.10000000000E+01 0.  0.
    9000005    1    3    3    0    0  0.59076651825E+02  0.21985027551E+02 -0.91761689519E+02  0.11133103741E+03  0.10000000000E+01 0.  0.
         -4    1    1    2    0  502 -0.56985506272E+01 -0.78386183384E+02 -0.90677542300E+01  0.79124612426E+02  0.12700000000E+01 0.  1.
<mgrwt>
<rscale>  1 0.14763731E+03</rscale>
<asrwt>0</asrwt>
<pdfrwt beam="1">  1       21 0.78831928E-02 0.14763731E+03</pdfrwt>
<pdfrwt beam="2">  1       -4 0.58491750E-01 0.14763731E+03</pdfrwt>
<totfact> 0.14176906E+04</totfact>
</mgrwt>
</event>
<event>
 6    4  0.7919556E-003  0.1317017E+03  0.7818608E-02  0.1224952E+00
         21   -1    0    0  501  502  0.00000000000E+00  0.00000000000E+00  0.20051934461E+03  0.20051934461E+03  0.00000000000E+00 0. -1.
         -4   -1    0    0    0  501 -0.00000000000E+00 -0.00000000000E+00 -0.37390815136E+02  0.37412377050E+02  0.12700000000E+01 0.  1.
         25    2    1    2    0    0 -0.35638951885E+02 -0.21219676577E+02  0.12500521755E+03  0.18158095079E+03  0.12499971084E+03 0.  0.
    9000005    1    3    3    0    0 -0.56788452896E+02  0.38267544331E+02  0.68051705376E+02  0.96547231633E+02  0.10000000000E+01 0.  0.
    9000005    1    3    3    0    0  0.21149501012E+02 -0.59487220909E+02  0.56953512175E+02  0.85033719157E+02  0.10000000000E+01 0.  0.
         -4    1    1    2    0  502  0.35638951885E+02  0.21219676577E+02  0.38123311919E+02  0.56350770866E+02  0.12700000000E+01 0. -1.
<mgrwt>
<rscale>  1 0.13170170E+03</rscale>
<asrwt>0</asrwt>
<pdfrwt beam="1">  1       21 0.30849129E-01 0.13170170E+03</pdfrwt>
<pdfrwt beam="2">  1       -4 0.57544012E-02 0.13170170E+03</pdfrwt>
<totfact> 0.77451755E+04</totfact>
</mgrwt>
</event>
<event>
 6    4  0.7919556E-003  0.1267710E+03  0.7818608E-02  0.1232327E+00
         -4   -1    0    0    0  501 -0.00000000000E+00  0.00000000000E+00  0.60127505009E+02  0.60140915844E+02  0.12700000000E+01 0. -1.
         21   -1    0    0  501  502  0.00000000000E+00 -0.00000000000E+00 -0.91815850486E+02  0.91815850486E+02  0.00000000000E+00 0. -1.
         25    2    1    2    0    0  0.15030305793E+02  0.14821094547E+02 -0.21877330108E+02  0.12864488399E+03  0.12500125466E+03 0.  0.
    9000005    1    3    3    0    0 -0.21854991356E+02  0.10803612343E+02 -0.66364104564E+02  0.70707517715E+02  0.10000000000E+01 0.  0.
    9000005    1    3    3    0    0  0.36885297149E+02  0.40174822042E+01  0.44486774456E+02  0.57937366272E+02  0.10000000000E+01 0.  0.
         -4    1    1    2    0  502 -0.15030305793E+02 -0.14821094547E+02 -0.98110153695E+01  0.23311882343E+02  0.12700000000E+01 0.  1.
<mgrwt>
<rscale>  1 0.12677101E+03</rscale>
<asrwt>0</asrwt>
<pdfrwt beam="2">  1       21 0.14125516E-01 0.12677101E+03</pdfrwt>
<pdfrwt beam="1">  1       -4 0.92520926E-02 0.12677101E+03</pdfrwt>
<totfact> 0.15070479E+05</totfact>
</mgrwt>
</event>
<event>
 6    4  0.7919556E-003  0.1323920E+03  0.7818608E-02  0.1223949E+00
         21   -1    0    0  501  502  0.00000000000E+00  0.00000000000E+00  0.15240681838E+02  0.15240681838E+02  0.00000000000E+00 0. -1.
          4   -1    0    0  502    0 -0.00000000000E+00 -0.00000000000E+00 -0.56776744872E+03  0.56776886910E+03  0.12700000000E+01 0.  1.
         25    2    1    2    0    0 -0.39189098459E+02 -0.19157181377E+02 -0.48389041887E+03  0.50167478467E+03  0.12499947625E+03 0.  0.
    9000005    1    3    3    0    0 -0.84639153253E+02 -0.15760215150E+02 -0.34018917276E+03  0.35091572195E+03  0.10000000000E+01 0.  0.
    9000005    1    3    3    0    0  0.45450054795E+02 -0.33969662262E+01 -0.14370124610E+03  0.15075906272E+03  0.10000000000E+01 0.  0.
          4    1    1    2  501    0  0.39189098459E+02  0.19157181377E+02 -0.68636348011E+02  0.81334766273E+02  0.12700000000E+01 0. -1.
<mgrwt>
<rscale>  1 0.13239204E+03</rscale>
<asrwt>0</asrwt>
<pdfrwt beam="1">  1       21 0.23447203E-02 0.13239204E+03</pdfrwt>
<pdfrwt beam="2">  1        4 0.87353018E-01 0.13239204E+03</pdfrwt>
<totfact> 0.44606524E+04</totfact>
</mgrwt>
</event>
<event>
 6    4  0.7919556E-003  0.1358430E+03  0.7818608E-02  0.1219035E+00
         21   -1    0    0  501  502  0.00000000000E+00  0.00000000000E+00  0.61538563548E+02  0.61538563548E+02  0.00000000000E+00 0.  1.
         -4   -1    0    0    0  501 -0.00000000000E+00 -0.00000000000E+00 -0.71088924306E+03  0.71089037749E+03  0.12700000000E+01 0. -1.
         25    2    1    2    0    0  0.13967182263E+02 -0.51318840497E+02 -0.69139902588E+03  0.70461757103E+03  0.12499841135E+03 0.  0.
    9000005    1    3    3    0    0  0.19967038290E+02 -0.54495361214E+02 -0.12126152518E+03  0.13443877603E+03  0.10000000000E+01 0.  0.
    9000005    1    3    3    0    0 -0.59998560267E+01  0.31765207166E+01 -0.57013750070E+03  0.57017879499E+03  0.10000000000E+01 0.  0.
         -4    1    1    2    0  502 -0.13967182263E+02  0.51318840497E+02  0.42048346366E+02  0.67811370008E+02  0.12700000000E+01 0.  1.
<mgrwt>
<rscale>  1 0.13584295E+03</rscale>
<asrwt>0</asrwt>
<pdfrwt beam="1">  1       21 0.94674709E-02 0.13584295E+03</pdfrwt>
<pdfrwt beam="2">  1       -4 0.10936868E+00 0.13584295E+03</pdfrwt>
<totfact> 0.25596387E+03</totfact>
</mgrwt>
</event>
<event>
 6    4  0.7919556E-003  0.1787091E+03  0.7818608E-02  0.1169058E+00
         21   -1    0    0  501  502  0.00000000000E+00  0.00000000000E+00  0.13342130374E+03  0.13342130374E+03  0.00000000000E+00 0.  1.
         -4   -1    0    0    0  501 -0.00000000000E+00 -0.00000000000E+00 -0.29836549048E+03  0.29836819336E+03  0.12700000000E+01 0. -1.
         25    2    1    2    0    0 -0.11416525078E+03 -0.57254278209E+02 -0.22772123990E+03  0.28947179559E+03  0.12500080194E+03 0.  0.
    9000005    1    3    3    0    0  0.70488018054E+01 -0.16403252861E+02  0.92855637252E+01  0.20148796614E+02  0.10000000000E+01 0.  0.
    9000005    1    3    3    0    0 -0.12121405259E+03 -0.40851025348E+02 -0.23700680362E+03  0.26932299898E+03  0.10000000000E+01 0.  0.
         -4    1    1    2    0  502  0.11416525078E+03  0.57254278209E+02  0.62777053148E+02  0.14231770150E+03  0.12700000000E+01 0.  1.
<mgrwt>
<rscale>  1 0.17870914E+03</rscale>
<asrwt>0</asrwt>
<pdfrwt beam="1">  1       21 0.20526355E-01 0.17870914E+03</pdfrwt>
<pdfrwt beam="2">  1       -4 0.45903056E-01 0.17870914E+03</pdfrwt>
<totfact> 0.42537484E+03</totfact>
</mgrwt>
</event>
<event>
 6    4  0.7919556E-003  0.1296554E+03  0.7818608E-02  0.1227968E+00
         -4   -1    0    0    0  501 -0.00000000000E+00  0.00000000000E+00  0.86597035447E+03  0.86597128574E+03  0.12700000000E+01 0. -1.
         21   -1    0    0  501  502  0.00000000000E+00 -0.00000000000E+00 -0.38382871397E+02  0.38382871397E+02  0.00000000000E+00 0. -1.
         25    2    1    2    0    0 -0.33848648497E+02  0.62994819148E+01  0.85220386213E+03  0.86201040323E+03  0.12500039271E+03 0.  0.
    9000005    1    3    3    0    0  0.20718808776E+02 -0.45405055257E+02  0.45709563432E+03  0.45981333929E+03  0.10000000000E+01 0.  0.
    9000005    1    3    3    0    0 -0.54567457273E+02  0.51704537172E+02  0.39510822781E+03  0.40219706394E+03  0.10000000000E+01 0.  0.
         -4    1    1    2    0  502  0.33848648497E+02 -0.62994819148E+01 -0.24616379049E+02  0.42343753908E+02  0.12700000000E+01 0. -1.
<mgrwt>
<rscale>  1 0.12965536E+03</rscale>
<asrwt>0</asrwt>
<pdfrwt beam="2">  1       21 0.59050578E-02 0.12965536E+03</pdfrwt>
<pdfrwt beam="1">  1       -4 0.13322788E+00 0.12965536E+03</pdfrwt>
<totfact> 0.35746332E+03</totfact>
</mgrwt>
</event>
<event>
 6    4  0.7919556E-003  0.1288267E+03  0.7818608E-02  0.1229207E+00
          4   -1    0    0  502    0 -0.00000000000E+00  0.00000000000E+00  0.31859392484E+02  0.31884695223E+02  0.12700000000E+01 0.  1.
         21   -1    0    0  501  502  0.00000000000E+00 -0.00000000000E+00 -0.20885138699E+03  0.20885138699E+03  0.00000000000E+00 0.  1.
         25    2    1    2    0    0 -0.59127393901E+01  0.30605858046E+02 -0.12154256041E+03  0.17711272427E+03  0.12499857629E+03 0.  0.
    9000005    1    3    3    0    0 -0.66371887666E+01  0.48907137816E+02  0.46591417983E+01  0.49584957461E+02  0.10000000000E+01 0.  0.
    9000005    1    3    3    0    0  0.72444937654E+00 -0.18301279770E+02 -0.12620170220E+03  0.12752776681E+03  0.10000000000E+01 0.  0.
          4    1    1    2  501    0  0.59127393901E+01 -0.30605858046E+02 -0.55449434101E+02  0.63623357943E+02  0.12700000000E+01 0. -1.
<mgrwt>
<rscale>  1 0.12882672E+03</rscale>
<asrwt>0</asrwt>
<pdfrwt beam="2">  1       21 0.32130983E-01 0.12882672E+03</pdfrwt>
<pdfrwt beam="1">  1        4 0.49036883E-02 0.12882672E+03</pdfrwt>
<totfact> 0.92361603E+04</totfact>
</mgrwt>
</event>
<event>
 6    4  0.7919556E-003  0.1404675E+03  0.7818608E-02  0.1212701E+00
         -4   -1    0    0    0  501 -0.00000000000E+00  0.00000000000E+00  0.75615500393E+02  0.75626164783E+02  0.12700000000E+01 0. -1.
         21   -1    0    0  501  502  0.00000000000E+00 -0.00000000000E+00 -0.13869444861E+03  0.13869444861E+03  0.00000000000E+00 0. -1.
         25    2    1    2    0    0 -0.61377539123E+02  0.18405138970E+02 -0.38181827302E+02  0.14556429747E+03  0.12500064525E+03 0.  0.
    9000005    1    3    3    0    0 -0.32740623431E+02  0.71004179624E+02 -0.83240869699E+01  0.78637347175E+02  0.10000000000E+01 0.  0.
    9000005    1    3    3    0    0 -0.28636915692E+02 -0.52599040654E+02 -0.29857740332E+02  0.66926950295E+02  0.10000000000E+01 0.  0.
         -4    1    1    2    0  502  0.61377539123E+02 -0.18405138970E+02 -0.24897120913E+02  0.68756315921E+02  0.12700000000E+01 0.  1.
<mgrwt>
<rscale>  1 0.14046748E+03</rscale>
<asrwt>0</asrwt>
<pdfrwt beam="2">  1       21 0.21337607E-01 0.14046748E+03</pdfrwt>
<pdfrwt beam="1">  1       -4 0.11634422E-01 0.14046748E+03</pdfrwt>
<totfact> 0.48805434E+04</totfact>
</mgrwt>
</event>
<event>
 6    4  0.7919556E-003  0.1373480E+03  0.7818608E-02  0.1216943E+00
         -4   -1    0    0    0  501 -0.00000000000E+00  0.00000000000E+00  0.11441877986E+03  0.11442582788E+03  0.12700000000E+01 0. -1.
         21   -1    0    0  501  502  0.00000000000E+00 -0.00000000000E+00 -0.38585043289E+03  0.38585043289E+03  0.00000000000E+00 0.  1.
         25    2    1    2    0    0  0.22422848422E+02  0.52339338599E+02  0.69978906292E+02  0.15414771035E+03  0.12498911466E+03 0.  0.
    9000005    1    3    3    0    0 -0.18822657212E+01 -0.88977495884E+01 -0.31695199653E+02  0.32989370303E+02  0.10000000000E+01 0.  0.
    9000005    1    3    3    0    0  0.24305114143E+02  0.61237088188E+02  0.10167410594E+03  0.12115834005E+03  0.10000000000E+01 0.  0.
         -4    1    1    2    0  502 -0.22422848422E+02 -0.52339338599E+02 -0.34141055932E+03  0.34612855042E+03  0.12700000000E+01 0.  1.
<mgrwt>
<rscale>  1 0.13734799E+03</rscale>
<asrwt>0</asrwt>
<pdfrwt beam="2">  1       21 0.59361604E-01 0.13734799E+03</pdfrwt>
<pdfrwt beam="1">  1       -4 0.17603592E-01 0.13734799E+03</pdfrwt>
<totfact> 0.31271796E+03</totfact>
</mgrwt>
</event>
<event>
 6    4  0.7919556E-003  0.1276527E+03  0.7818608E-02  0.1230981E+00
         21   -1    0    0  501  502  0.00000000000E+00  0.00000000000E+00  0.66687583701E+02  0.66687583701E+02  0.00000000000E+00 0. -1.
          4   -1    0    0  502    0 -0.00000000000E+00 -0.00000000000E+00 -0.89255422342E+02  0.89264457190E+02  0.12700000000E+01 0. -1.
         25    2    1    2    0    0  0.21189683533E+02 -0.14878624398E+02 -0.24403404523E+02  0.12996438316E+03  0.12499935434E+03 0.  0.
    9000005    1    3    3    0    0  0.56117657925E+02  0.23725598510E+02  0.17199108593E+02  0.63315913418E+02  0.10000000000E+01 0.  0.
    9000005    1    3    3    0    0 -0.34927974391E+02 -0.38604222908E+02 -0.41602513116E+02  0.66648469742E+02  0.10000000000E+01 0.  0.
          4    1    1    2  501    0 -0.21189683533E+02  0.14878624398E+02  0.18355658815E+01  0.25987657731E+02  0.12700000000E+01 0.  1.
<mgrwt>
<rscale>  1 0.12765271E+03</rscale>
<asrwt>0</asrwt>
<pdfrwt beam="1">  1       21 0.10259628E-01 0.12765271E+03</pdfrwt>
<pdfrwt beam="2">  1        4 0.13733229E-01 0.12765271E+03</pdfrwt>
<totfact> 0.13585950E+05</totfact>
</mgrwt>
</event>
<event>
 6    4  0.7919556E-003  0.1284571E+03  0.7818608E-02  0.1229763E+00
         -4   -1    0    0    0  501 -0.00000000000E+00  0.00000000000E+00  0.15641722613E+03  0.15642238181E+03  0.12700000000E+01 0.  1.
         21   -1    0    0  501  502  0.00000000000E+00 -0.00000000000E+00 -0.45397130031E+02  0.45397130031E+02  0.00000000000E+00 0.  1.
         25    2    1    2    0    0 -0.20011307789E+02  0.21797923286E+02  0.11439503963E+03  0.17201003276E+03  0.12500249749E+03 0.  0.
    9000005    1    3    3    0    0 -0.15258658644E+02  0.14005574391E+02 -0.24905154226E+02  0.32407552895E+02  0.10000000000E+01 0.  0.
    9000005    1    3    3    0    0 -0.47526491450E+01  0.77923488942E+01  0.13930019386E+03  0.13960247986E+03  0.10000000000E+01 0.  0.
         -4    1    1    2    0  502  0.20011307789E+02 -0.21797923286E+02 -0.33749435345E+01  0.29809479077E+02  0.12700000000E+01 0. -1.
<mgrwt>
<rscale>  1 0.12845710E+03</rscale>
<asrwt>0</asrwt>
<pdfrwt beam="2">  1       21 0.69841739E-02 0.12845710E+03</pdfrwt>
<pdfrwt beam="1">  1       -4 0.24065951E-01 0.12845710E+03</pdfrwt>
<totfact> 0.97481889E+04</totfact>
</mgrwt>
</event>
<event>
 6    4  0.7919556E-003  0.1278276E+03  0.7818608E-02  0.1230715E+00
         -4   -1    0    0    0  501 -0.00000000000E+00  0.00000000000E+00  0.20946408734E+02  0.20984874049E+02  0.12700000000E+01 0. -1.
         21   -1    0    0  501  502  0.00000000000E+00 -0.00000000000E+00 -0.28859469257E+03  0.28859469257E+03  0.00000000000E+00 0. -1.
         25    2    1    2    0    0  0.88211990546E+01 -0.25197743887E+02 -0.20676151433E+03  0.24308481908E+03  0.12500866213E+03 0.  0.
    9000005    1    3    3    0    0  0.21753034847E+02 -0.74275835168E+01 -0.21742327297E+03  0.21863724100E+03  0.10000000000E+01 0.  0.
    9000005    1    3    3    0    0 -0.12931835793E+02 -0.17770160370E+02  0.10661758642E+02  0.24447578078E+02  0.10000000000E+01 0.  0.
         -4    1    1    2    0  502 -0.88211990546E+01  0.25197743887E+02 -0.60886769504E+02  0.66494747540E+02  0.12700000000E+01 0.  1.
<mgrwt>
<rscale>  1 0.12782764E+03</rscale>
<asrwt>0</asrwt>
<pdfrwt beam="2">  1       21 0.44399177E-01 0.12782764E+03</pdfrwt>
<pdfrwt beam="1">  1       -4 0.32256987E-02 0.12782764E+03</pdfrwt>
<totfact> 0.94389166E+04</totfact>
</mgrwt>
</event>
<event>
 6    4  0.7919556E-003  0.1395802E+03  0.7818608E-02  0.1213895E+00
         21   -1    0    0  501  502  0.00000000000E+00  0.00000000000E+00  0.55628150461E+02  0.55628150461E+02  0.00000000000E+00 0.  1.
         -4   -1    0    0    0  501 -0.00000000000E+00 -0.00000000000E+00 -0.45843174451E+03  0.45843350365E+03  0.12700000000E+01 0. -1.
         25    2    1    2    0    0 -0.22795641503E+02 -0.57772443179E+02 -0.42558978556E+03  0.44789429142E+03  0.12500133699E+03 0.  0.
    9000005    1    3    3    0    0  0.24754683390E+01 -0.12718373004E+02  0.52145601904E+01  0.14002735210E+02  0.10000000000E+01 0.  0.
    9000005    1    3    3    0    0 -0.25271109842E+02 -0.45054070175E+02 -0.43080434575E+03  0.43389155621E+03  0.10000000000E+01 0.  0.
         -4    1    1    2    0  502  0.22795641503E+02  0.57772443179E+02  0.22786191513E+02  0.66167362696E+02  0.12700000000E+01 0.  1.
<mgrwt>
<rscale>  1 0.13958019E+03</rscale>
<asrwt>0</asrwt>
<pdfrwt beam="1">  1       21 0.85581771E-02 0.13958019E+03</pdfrwt>
<pdfrwt beam="2">  1       -4 0.70529210E-01 0.13958019E+03</pdfrwt>
<totfact> 0.82176186E+03</totfact>
</mgrwt>
</event>
<event>
 6    4  0.7919556E-003  0.1298541E+03  0.7818608E-02  0.1227672E+00
         21   -1    0    0  501  502  0.00000000000E+00  0.00000000000E+00  0.46790161661E+03  0.46790161661E+03  0.00000000000E+00 0.  1.
         -4   -1    0    0    0  501 -0.00000000000E+00 -0.00000000000E+00 -0.21073702192E+02  0.21111935583E+02  0.12700000000E+01 0. -1.
         25    2    1    2    0    0  0.35048947051E+02  0.31177271442E+01  0.19214974023E+03  0.23191292166E+03  0.12499572653E+03 0.  0.
    9000005    1    3    3    0    0 -0.25130388738E+02 -0.18281349285E+02  0.15485205981E+03  0.15794272568E+03  0.10000000000E+01 0.  0.
    9000005    1    3    3    0    0  0.60179335790E+02  0.21399076429E+02  0.37297680422E+02  0.73970195978E+02  0.10000000000E+01 0.  0.
         -4    1    1    2    0  502 -0.35048947051E+02 -0.31177271442E+01  0.25467817418E+03  0.25710063053E+03  0.12700000000E+01 0.  1.
<mgrwt>
<rscale>  1 0.12985407E+03</rscale>
<asrwt>0</asrwt>
<pdfrwt beam="1">  1       21 0.71984857E-01 0.12985407E+03</pdfrwt>
<pdfrwt beam="2">  1       -4 0.32451820E-02 0.12985407E+03</pdfrwt>
<totfact> 0.33868387E+04</totfact>
</mgrwt>
</event>
<event>
 6    4  0.7919556E-003  0.1795142E+03  0.7818608E-02  0.1168274E+00
         21   -1    0    0  501  502  0.00000000000E+00  0.00000000000E+00  0.39875532202E+03  0.39875532202E+03  0.00000000000E+00 0.  1.
          4   -1    0    0  502    0 -0.00000000000E+00 -0.00000000000E+00 -0.73761316791E+02  0.73772249218E+02  0.12700000000E+01 0. -1.
         25    2    1    2    0    0  0.44865081774E+02 -0.12076641307E+03  0.81711714411E+02  0.19723629274E+03  0.12501179470E+03 0.  0.
    9000005    1    3    3    0    0  0.85013104870E+02 -0.68050985019E+02  0.29376452175E+02  0.11279246652E+03  0.10000000000E+01 0.  0.
    9000005    1    3    3    0    0 -0.40148023095E+02 -0.52715428056E+02  0.52335262236E+02  0.84443826221E+02  0.10000000000E+01 0.  0.
          4    1    1    2  501    0 -0.44865081774E+02  0.12076641307E+03  0.24328229082E+03  0.27529127849E+03  0.12700000000E+01 0.  1.
<mgrwt>
<rscale>  1 0.17951421E+03</rscale>
<asrwt>0</asrwt>
<pdfrwt beam="1">  1       21 0.61346971E-01 0.17951421E+03</pdfrwt>
<pdfrwt beam="2">  1        4 0.11348892E-01 0.17951421E+03</pdfrwt>
<totfact> 0.63368107E+03</totfact>
</mgrwt>
</event>
<event>
 6    4  0.7919556E-003  0.3135689E+03  0.7818608E-02  0.1078648E+00
         -4   -1    0    0    0  501 -0.00000000000E+00  0.00000000000E+00  0.17498771734E+04  0.17498776343E+04  0.12700000000E+01 0.  1.
         21   -1    0    0  501  502  0.00000000000E+00 -0.00000000000E+00 -0.10351211048E+03  0.10351211048E+03  0.00000000000E+00 0. -1.
         25    2    1    2    0    0 -0.11445805680E+03 -0.26382045927E+03  0.14966979791E+04  0.15291926899E+04  0.12499424228E+03 0.  0.
    9000005    1    3    3    0    0 -0.13421334608E+03 -0.22038275371E+03  0.13634993610E+04  0.13877007198E+04  0.10000000000E+01 0.  0.
    9000005    1    3    3    0    0  0.19755289273E+02 -0.43437705567E+02  0.13319861815E+03  0.14149197008E+03  0.10000000000E+01 0.  0.
         -4    1    1    2    0  502  0.11445805680E+03  0.26382045927E+03  0.14966708379E+03  0.32419705484E+03  0.12700000000E+01 0. -1.
<mgrwt>
<rscale>  1 0.31356888E+03</rscale>
<asrwt>0</asrwt>
<pdfrwt beam="2">  1       21 0.15924941E-01 0.31356888E+03</pdfrwt>
<pdfrwt beam="1">  1       -4 0.26921249E+00 0.31356888E+03</pdfrwt>
<totfact> 0.79848837E+01</totfact>
</mgrwt>
</event>
<event>
 6    4  0.7919556E-003  0.1270817E+03  0.7818608E-02  0.1231851E+00
          4   -1    0    0  502    0 -0.00000000000E+00  0.00000000000E+00  0.39343575306E+03  0.39343780282E+03  0.12700000000E+01 0.  1.
         21   -1    0    0  501  502  0.00000000000E+00 -0.00000000000E+00 -0.27444916468E+02  0.27444916468E+02  0.00000000000E+00 0.  1.
         25    2    1    2    0    0 -0.17512879542E+02 -0.14691805060E+02  0.37525147762E+03  0.39618611106E+03  0.12500885192E+03 0.  0.
    9000005    1    3    3    0    0 -0.10952262868E+02  0.20131250232E+02  0.40481709999E+01  0.23293925952E+02  0.10000000000E+01 0.  0.
    9000005    1    3    3    0    0 -0.65606166734E+01 -0.34823055292E+02  0.37120330662E+03  0.37289218511E+03  0.10000000000E+01 0.  0.
          4    1    1    2  501    0  0.17512879542E+02  0.14691805060E+02 -0.92606410234E+01  0.24696608227E+02  0.12700000000E+01 0. -1.
<mgrwt>
<rscale>  1 0.12708172E+03</rscale>
<asrwt>0</asrwt>
<pdfrwt beam="2">  1       21 0.42222951E-02 0.12708172E+03</pdfrwt>
<pdfrwt beam="1">  1        4 0.60530991E-01 0.12708172E+03</pdfrwt>
<totfact> 0.37410920E+04</totfact>
</mgrwt>
</event>
<event>
 6    4  0.7919556E-003  0.1296966E+03  0.7818608E-02  0.1227907E+00
         -4   -1    0    0    0  501 -0.00000000000E+00  0.00000000000E+00  0.32638242992E+02  0.32662942390E+02  0.12700000000E+01 0. -1.
         21   -1    0    0  501  502  0.00000000000E+00 -0.00000000000E+00 -0.28891170415E+03  0.28891170415E+03  0.00000000000E+00 0.  1.
         25    2    1    2    0    0  0.16134567877E+02  0.30600337457E+02 -0.10640267383E+03  0.16775796758E+03  0.12499800700E+03 0.  0.
    9000005    1    3    3    0    0 -0.28882317464E+02  0.55720795693E+02 -0.17799714045E+02  0.65244349601E+02  0.10000000000E+01 0.  0.
    9000005    1    3    3    0    0  0.45016885340E+02 -0.25120458236E+02 -0.88602959785E+02  0.10251361798E+03  0.10000000000E+01 0.  0.
         -4    1    1    2    0  502 -0.16134567877E+02 -0.30600337457E+02 -0.14987078733E+03  0.15381667896E+03  0.12700000000E+01 0.  1.
<mgrwt>
<rscale>  1 0.12969659E+03</rscale>
<asrwt>0</asrwt>
<pdfrwt beam="2">  1       21 0.44447954E-01 0.12969659E+03</pdfrwt>
<pdfrwt beam="1">  1       -4 0.50233829E-02 0.12969659E+03</pdfrwt>
<totfact> 0.46700427E+04</totfact>
</mgrwt>
</event>
<event>
 6    4  0.7919556E-003  0.1268871E+03  0.7818608E-02  0.1232149E+00
         21   -1    0    0  501  502  0.00000000000E+00  0.00000000000E+00  0.13449887265E+03  0.13449887265E+03  0.00000000000E+00 0. -1.
          4   -1    0    0  502    0 -0.00000000000E+00 -0.00000000000E+00 -0.79210838398E+02  0.79221018800E+02  0.12700000000E+01 0. -1.
         25    2    1    2    0    0  0.21459754591E+02 -0.37160683979E+01 -0.26027219956E+02  0.12952895549E+03  0.12500401553E+03 0.  0.
    9000005    1    3    3    0    0 -0.24456869212E+02 -0.23290898426E+02 -0.60196509430E+02  0.69030602987E+02  0.10000000000E+01 0.  0.
    9000005    1    3    3    0    0  0.45916623803E+02  0.19574830028E+02  0.34169289474E+02  0.60498352500E+02  0.10000000000E+01 0.  0.
          4    1    1    2  501    0 -0.21459754591E+02  0.37160683979E+01  0.81315254207E+02  0.84190935962E+02  0.12700000000E+01 0.  1.
<mgrwt>
<rscale>  1 0.12688709E+03</rscale>
<asrwt>0</asrwt>
<pdfrwt beam="1">  1       21 0.20692134E-01 0.12688709E+03</pdfrwt>
<pdfrwt beam="2">  1        4 0.12187527E-01 0.12688709E+03</pdfrwt>
<totfact> 0.47172038E+04</totfact>
</mgrwt>
</event>
<event>
 6    4  0.7919556E-003  0.1275675E+03  0.7818608E-02  0.1231110E+00
         21   -1    0    0  501  502  0.00000000000E+00  0.00000000000E+00  0.10780000093E+02  0.10780000093E+02  0.00000000000E+00 0.  1.
          4   -1    0    0  502    0 -0.00000000000E+00 -0.00000000000E+00 -0.58247650087E+03  0.58247788539E+03  0.12700000000E+01 0.  1.
         25    2    1    2    0    0  0.22080313538E+02 -0.12717808884E+02 -0.40486536530E+03  0.42448726134E+03  0.12499675240E+03 0.  0.
    9000005    1    3    3    0    0  0.45623295893E+02 -0.45089958736E+02 -0.35393467935E+03  0.35970174694E+03  0.10000000000E+01 0.  0.
    9000005    1    3    3    0    0 -0.23542982355E+02  0.32372149853E+02 -0.50930685952E+02  0.64785514398E+02  0.10000000000E+01 0.  0.
          4    1    1    2  501    0 -0.22080313538E+02  0.12717808884E+02 -0.16683113547E+03  0.16877062414E+03  0.12700000000E+01 0. -1.
<mgrwt>
<rscale>  1 0.12756752E+03</rscale>
<asrwt>0</asrwt>
<pdfrwt beam="1">  1       21 0.16584619E-02 0.12756752E+03</pdfrwt>
<pdfrwt beam="2">  1        4 0.89617610E-01 0.12756752E+03</pdfrwt>
<totfact> 0.73238865E+04</totfact>
</mgrwt>
</event>
<event>
 6    4  0.7919556E-003  0.1554384E+03  0.7818608E-02  0.1193945E+00
         21   -1    0    0  501  502  0.00000000000E+00  0.00000000000E+00  0.50417716529E+03  0.50417716529E+03  0.00000000000E+00 0. -1.
          4   -1    0    0  502    0 -0.00000000000E+00 -0.00000000000E+00 -0.40615336896E+02  0.40635187845E+02  0.12700000000E+01 0.  1.
         25    2    1    2    0    0 -0.92323462043E+02 -0.35064771883E+01  0.14303984544E+03  0.21123796641E+03  0.12500065616E+03 0.  0.
    9000005    1    3    3    0    0 -0.10957687583E+02  0.53218425278E+02  0.35365008033E+02  0.64837917143E+02  0.10000000000E+01 0.  0.
    9000005    1    3    3    0    0 -0.81365774460E+02 -0.56724902466E+02  0.10767483741E+03  0.14640004927E+03  0.10000000000E+01 0.  0.
          4    1    1    2  501    0  0.92323462043E+02  0.35064771883E+01  0.32052198295E+03  0.33357438673E+03  0.12700000000E+01 0. -1.
<mgrwt>
<rscale>  1 0.15543835E+03</rscale>
<asrwt>0</asrwt>
<pdfrwt beam="1">  1       21 0.77565713E-01 0.15543835E+03</pdfrwt>
<pdfrwt beam="2">  1        4 0.62501638E-02 0.15543835E+03</pdfrwt>
<totfact> 0.10197200E+04</totfact>
</mgrwt>
</event>
<event>
 6    4  0.7919556E-003  0.1444367E+03  0.7818608E-02  0.1207481E+00
         -4   -1    0    0    0  501 -0.00000000000E+00  0.00000000000E+00  0.51824026047E+03  0.51824181660E+03  0.12700000000E+01 0.  1.
         21   -1    0    0  501  502  0.00000000000E+00 -0.00000000000E+00 -0.55199718660E+02  0.55199718660E+02  0.00000000000E+00 0. -1.
         25    2    1    2    0    0  0.58793991324E+02 -0.42193572238E+02  0.47816174567E+03  0.49950037852E+03  0.12499976867E+03 0.  0.
    9000005    1    3    3    0    0  0.56715258310E+02  0.17757197300E+02  0.37876751464E+03  0.38340288044E+03  0.10000000000E+01 0.  0.
    9000005    1    3    3    0    0  0.20787330141E+01 -0.59950769539E+02  0.99394231028E+02  0.11609749808E+03  0.10000000000E+01 0.  0.
         -4    1    1    2    0  502 -0.58793991324E+02  0.42193572238E+02 -0.15121203856E+02  0.73941156741E+02  0.12700000000E+01 0. -1.
<mgrwt>
<rscale>  1 0.14443674E+03</rscale>
<asrwt>0</asrwt>
<pdfrwt beam="2">  1       21 0.84922648E-02 0.14443674E+03</pdfrwt>
<pdfrwt beam="1">  1       -4 0.79730511E-01 0.14443674E+03</pdfrwt>
<totfact> 0.63866111E+03</totfact>
</mgrwt>
</event>
<event>
 6    4  0.7919556E-003  0.1284563E+03  0.7818608E-02  0.1229764E+00
         21   -1    0    0  501  502  0.00000000000E+00  0.00000000000E+00  0.10509465905E+03  0.10509465905E+03  0.00000000000E+00 0.  1.
         -4   -1    0    0    0  501 -0.00000000000E+00 -0.00000000000E+00 -0.59703949515E+02  0.59717455469E+02  0.12700000000E+01 0.  1.
         25    2    1    2    0    0 -0.66864498027E+01 -0.28836606355E+02  0.32522046569E+02  0.13250926846E+03  0.12499905694E+03 0.  0.
    9000005    1    3    3    0    0  0.31923009810E+02  0.25779556597E+02  0.48698669385E+02  0.63688495771E+02  0.10000000000E+01 0.  0.
    9000005    1    3    3    0    0 -0.38609459613E+02 -0.54616162952E+02 -0.16176622816E+02  0.68820772685E+02  0.10000000000E+01 0.  0.
         -4    1    1    2    0  502  0.66864498027E+01  0.28836606355E+02  0.12868662963E+02  0.32302846059E+02  0.12700000000E+01 0. -1.
<mgrwt>
<rscale>  1 0.12845631E+03</rscale>
<asrwt>0</asrwt>
<pdfrwt beam="1">  1       21 0.16168409E-01 0.12845631E+03</pdfrwt>
<pdfrwt beam="2">  1       -4 0.91868522E-02 0.12845631E+03</pdfrwt>
<totfact> 0.11976043E+05</totfact>
</mgrwt>
</event>
<event>
 6    4  0.7919556E-003  0.1299407E+03  0.7818608E-02  0.1227544E+00
          4   -1    0    0  502    0 -0.00000000000E+00  0.00000000000E+00  0.19540393619E+03  0.19540806323E+03  0.12700000000E+01 0. -1.
         21   -1    0    0  501  502  0.00000000000E+00 -0.00000000000E+00 -0.45659127209E+02  0.45659127209E+02  0.00000000000E+00 0. -1.
         25    2    1    2    0    0 -0.34806773379E+02 -0.69056494770E+01  0.57254767320E+02  0.14199539742E+03  0.12500154015E+03 0.  0.
    9000005    1    3    3    0    0 -0.16259333616E+02  0.54145523281E+02  0.53861952703E+02  0.78091059475E+02  0.10000000000E+01 0.  0.
    9000005    1    3    3    0    0 -0.18547439763E+02 -0.61051172758E+02  0.33928146171E+01  0.63904337943E+02  0.10000000000E+01 0.  0.
          4    1    1    2  501    0  0.34806773379E+02  0.69056494770E+01  0.92490041656E+02  0.99071793026E+02  0.12700000000E+01 0.  1.
<mgrwt>
<rscale>  1 0.12994070E+03</rscale>
<asrwt>0</asrwt>
<pdfrwt beam="2">  1       21 0.70244812E-02 0.12994070E+03</pdfrwt>
<pdfrwt beam="1">  1        4 0.30063820E-01 0.12994070E+03</pdfrwt>
<totfact> 0.63892623E+04</totfact>
</mgrwt>
</event>
<event>
 6    4  0.7919556E-003  0.1276617E+03  0.7818608E-02  0.1230967E+00
         21   -1    0    0  501  502  0.00000000000E+00  0.00000000000E+00  0.65462530881E+01  0.65462530881E+01  0.00000000000E+00 0.  1.
          4   -1    0    0  502    0 -0.00000000000E+00 -0.00000000000E+00 -0.11217919085E+04  0.11217926274E+04  0.12700000000E+01 0. -1.
         25    2    1    2    0    0 -0.22529358867E+02  0.12838817527E+02 -0.10555527717E+04  0.10632446371E+04  0.12500038956E+03 0.  0.
    9000005    1    3    3    0    0  0.25501379604E+02 -0.19975888511E+02 -0.85303141840E+02  0.91252301293E+02  0.10000000000E+01 0.  0.
    9000005    1    3    3    0    0 -0.48030738470E+02  0.32814706037E+02 -0.97024962982E+03  0.97199233584E+03  0.10000000000E+01 0.  0.
          4    1    1    2  501    0  0.22529358867E+02 -0.12838817527E+02 -0.59692883763E+02  0.65094243359E+02  0.12700000000E+01 0.  1.
<mgrwt>
<rscale>  1 0.12766168E+03</rscale>
<asrwt>0</asrwt>
<pdfrwt beam="1">  1       21 0.10071165E-02 0.12766168E+03</pdfrwt>
<pdfrwt beam="2">  1        4 0.17259279E+00 0.12766168E+03</pdfrwt>
<totfact> 0.32838380E+04</totfact>
</mgrwt>
</event>
<event>
 6    4  0.7919556E-003  0.1278973E+03  0.7818608E-02  0.1230610E+00
         21   -1    0    0  501  502  0.00000000000E+00  0.00000000000E+00  0.96524895160E+02  0.96524895160E+02  0.00000000000E+00 0. -1.
          4   -1    0    0  502    0 -0.00000000000E+00 -0.00000000000E+00 -0.11082917888E+03  0.11083645515E+03  0.12700000000E+01 0.  1.
         25    2    1    2    0    0  0.21654330762E+02  0.16183989074E+02 -0.69737457237E+02  0.14567438921E+03  0.12500753252E+03 0.  0.
    9000005    1    3    3    0    0  0.67884282243E+01  0.70797768901E+02 -0.42418997977E+02  0.82817741025E+02  0.10000000000E+01 0.  0.
    9000005    1    3    3    0    0  0.14865902538E+02 -0.54613779827E+02 -0.27318459260E+02  0.62856648189E+02  0.10000000000E+01 0.  0.
          4    1    1    2  501    0 -0.21654330762E+02 -0.16183989074E+02  0.55433173519E+02  0.61686961098E+02  0.12700000000E+01 0. -1.
<mgrwt>
<rscale>  1 0.12789728E+03</rscale>
<asrwt>0</asrwt>
<pdfrwt beam="1">  1       21 0.14849984E-01 0.12789728E+03</pdfrwt>
<pdfrwt beam="2">  1        4 0.17051845E-01 0.12789728E+03</pdfrwt>
<totfact> 0.48286862E+04</totfact>
</mgrwt>
</event>
<event>
 6    4  0.7919556E-003  0.1270415E+03  0.7818608E-02  0.1231913E+00
         -4   -1    0    0    0  501 -0.00000000000E+00  0.00000000000E+00  0.11612166523E+04  0.11612173468E+04  0.12700000000E+01 0.  1.
         21   -1    0    0  501  502  0.00000000000E+00 -0.00000000000E+00 -0.63614142330E+01  0.63614142330E+01  0.00000000000E+00 0. -1.
         25    2    1    2    0    0  0.22672468635E+02 -0.94333973882E+00  0.11104665776E+04  0.11177099651E+04  0.12499846202E+03 0.  0.
    9000005    1    3    3    0    0 -0.30087409900E+02  0.43507199967E+02  0.33168986776E+03  0.33588286210E+03  0.10000000000E+01 0.  0.
    9000005    1    3    3    0    0  0.52759878535E+02 -0.44450539706E+02  0.77877670983E+03  0.78182710303E+03  0.10000000000E+01 0.  0.
         -4    1    1    2    0  502 -0.22672468635E+02  0.94333973882E+00  0.44388660516E+02  0.49868795917E+02  0.12700000000E+01 0. -1.
<mgrwt>
<rscale>  1 0.12704151E+03</rscale>
<asrwt>0</asrwt>
<pdfrwt beam="2">  1       21 0.97868004E-03 0.12704151E+03</pdfrwt>
<pdfrwt beam="1">  1       -4 0.17865835E+00 0.12704151E+03</pdfrwt>
<totfact> 0.31287049E+04</totfact>
</mgrwt>
</event>
<event>
 6    4  0.7919556E-003  0.2004199E+03  0.7818608E-02  0.1149385E+00
         -4   -1    0    0    0  501 -0.00000000000E+00  0.00000000000E+00  0.19308725822E+03  0.19309143479E+03  0.12700000000E+01 0.  1.
         21   -1    0    0  501  502  0.00000000000E+00 -0.00000000000E+00 -0.21399111844E+03  0.21399111844E+03  0.00000000000E+00 0. -1.
         25    2    1    2    0    0 -0.98806241698E+02  0.12160293667E+03  0.85274047270E+02  0.21780680585E+03  0.12497277277E+03 0.  0.
    9000005    1    3    3    0    0  0.18013697102E+02  0.34824968495E+02 -0.13998348997E+02  0.41644033049E+02  0.10000000000E+01 0.  0.
    9000005    1    3    3    0    0 -0.11681993880E+03  0.86777968176E+02  0.99272396267E+02  0.17616277281E+03  0.10000000000E+01 0.  0.
         -4    1    1    2    0  502  0.98806241698E+02 -0.12160293667E+03 -0.10617790748E+03  0.18927574737E+03  0.12700000000E+01 0. -1.
<mgrwt>
<rscale>  1 0.20041991E+03</rscale>
<asrwt>0</asrwt>
<pdfrwt beam="2">  1       21 0.32921710E-01 0.20041991E+03</pdfrwt>
<pdfrwt beam="1">  1       -4 0.29706343E-01 0.20041991E+03</pdfrwt>
<totfact> 0.40509953E+03</totfact>
</mgrwt>
</event>
<event>
 6    4  0.7919556E-003  0.1268804E+03  0.7818608E-02  0.1232159E+00
         -4   -1    0    0    0  501 -0.00000000000E+00  0.00000000000E+00  0.80412195505E+03  0.80412295794E+03  0.12700000000E+01 0. -1.
         21   -1    0    0  501  502  0.00000000000E+00 -0.00000000000E+00 -0.71254457184E+01  0.71254457184E+01  0.00000000000E+00 0. -1.
         25    2    1    2    0    0 -0.40015349335E+01  0.21384357761E+02  0.72525681295E+03  0.73627174079E+03  0.12500131406E+03 0.  0.
    9000005    1    3    3    0    0  0.35660817220E+02 -0.38669769441E+02  0.37712205607E+03  0.38077432966E+03  0.10000000000E+01 0.  0.
    9000005    1    3    3    0    0 -0.39662352153E+02  0.60054127202E+02  0.34813475688E+03  0.35549741113E+03  0.10000000000E+01 0.  0.
         -4    1    1    2    0  502  0.40015349335E+01 -0.21384357761E+02  0.71739696383E+02  0.74976662874E+02  0.12700000000E+01 0.  1.
<mgrwt>
<rscale>  1 0.12688038E+03</rscale>
<asrwt>0</asrwt>
<pdfrwt beam="2">  1       21 0.10962231E-02 0.12688038E+03</pdfrwt>
<pdfrwt beam="1">  1       -4 0.12371978E+00 0.12688038E+03</pdfrwt>
<totfact> 0.66631861E+04</totfact>
</mgrwt>
</event>
<event>
 6    4  0.7919556E-003  0.1268694E+03  0.7818608E-02  0.1232176E+00
         21   -1    0    0  501  502  0.00000000000E+00  0.00000000000E+00  0.19874641743E+02  0.19874641743E+02  0.00000000000E+00 0. -1.
          4   -1    0    0  502    0 -0.00000000000E+00 -0.00000000000E+00 -0.35413795342E+03  0.35414023063E+03  0.12700000000E+01 0. -1.
         25    2    1    2    0    0  0.39651585027E+01 -0.21335271783E+02 -0.32755360275E+03  0.35126516034E+03  0.12499973555E+03 0.  0.
    9000005    1    3    3    0    0  0.44115157036E+02  0.23383156921E+02 -0.65274033104E+02  0.82186486149E+02  0.10000000000E+01 0.  0.
    9000005    1    3    3    0    0 -0.40149998533E+02 -0.44718428704E+02 -0.26227956965E+03  0.26907867419E+03  0.10000000000E+01 0.  0.
          4    1    1    2  501    0 -0.39651585027E+01  0.21335271783E+02 -0.67097089243E+01  0.22749712039E+02  0.12700000000E+01 0.  1.
<mgrwt>
<rscale>  1 0.12686942E+03</rscale>
<asrwt>0</asrwt>
<pdfrwt beam="1">  1       21 0.30576373E-02 0.12686942E+03</pdfrwt>
<pdfrwt beam="2">  1        4 0.54486057E-01 0.12686942E+03</pdfrwt>
<totfact> 0.79362727E+04</totfact>
</mgrwt>
</event>
<event>
 6    4  0.7919556E-003  0.1268354E+03  0.7818608E-02  0.1232228E+00
          4   -1    0    0  502    0 -0.00000000000E+00  0.00000000000E+00  0.85227708310E+02  0.85237170083E+02  0.12700000000E+01 0. -1.
         21   -1    0    0  501  502  0.00000000000E+00 -0.00000000000E+00 -0.64640229366E+02  0.64640229366E+02  0.00000000000E+00 0. -1.
         25    2    1    2    0    0 -0.14187114817E+02  0.16130342596E+02  0.15632108202E+02  0.12779503594E+03  0.12500298486E+03 0.  0.
    9000005    1    3    3    0    0 -0.33533395566E+02 -0.46026765027E+02  0.24662090034E+02  0.62065855363E+02  0.10000000000E+01 0.  0.
    9000005    1    3    3    0    0  0.19346280750E+02  0.62157107624E+02 -0.90299818328E+01  0.65729180574E+02  0.10000000000E+01 0.  0.
          4    1    1    2  501    0  0.14187114817E+02 -0.16130342596E+02  0.49553707418E+01  0.22082363512E+02  0.12700000000E+01 0.  1.
<mgrwt>
<rscale>  1 0.12683536E+03</rscale>
<asrwt>0</asrwt>
<pdfrwt beam="2">  1       21 0.99446507E-02 0.12683536E+03</pdfrwt>
<pdfrwt beam="1">  1        4 0.13113643E-01 0.12683536E+03</pdfrwt>
<totfact> 0.15522545E+05</totfact>
</mgrwt>
</event>
<event>
 6    4  0.7919556E-003  0.1267267E+03  0.7818608E-02  0.1232395E+00
         -4   -1    0    0    0  501 -0.00000000000E+00  0.00000000000E+00  0.11823412131E+02  0.11891424406E+02  0.12700000000E+01 0.  1.
         21   -1    0    0  501  502  0.00000000000E+00 -0.00000000000E+00 -0.48130791532E+03  0.48130791532E+03  0.00000000000E+00 0.  1.
         25    2    1    2    0    0  0.17631377370E+02  0.11151756862E+02 -0.43287525189E+03  0.45104394470E+03  0.12499771679E+03 0.  0.
    9000005    1    3    3    0    0  0.98894523791E+01  0.12027019658E+02  0.23229377591E+01  0.15774869573E+02  0.10000000000E+01 0.  0.
    9000005    1    3    3    0    0  0.77419249908E+01 -0.87526279563E+00 -0.43519818965E+03  0.43526907513E+03  0.10000000000E+01 0.  0.
         -4    1    1    2    0  502 -0.17631377370E+02 -0.11151756862E+02 -0.36609251291E+02  0.42155395019E+02  0.12700000000E+01 0. -1.
<mgrwt>
<rscale>  1 0.12672670E+03</rscale>
<asrwt>0</asrwt>
<pdfrwt beam="2">  1       21 0.74047371E-01 0.12672670E+03</pdfrwt>
<pdfrwt beam="1">  1       -4 0.18243471E-02 0.12672670E+03</pdfrwt>
<totfact> 0.77569118E+04</totfact>
</mgrwt>
</event>
<event>
 6    4  0.7919556E-003  0.1276373E+03  0.7818608E-02  0.1231004E+00
         -4   -1    0    0    0  501 -0.00000000000E+00  0.00000000000E+00  0.11710495455E+03  0.11711184090E+03  0.12700000000E+01 0.  1.
         21   -1    0    0  501  502  0.00000000000E+00 -0.00000000000E+00 -0.63645648189E+02  0.63645648189E+02  0.00000000000E+00 0.  1.
         25    2    1    2    0    0 -0.11493339432E+02  0.23108379900E+02  0.74187041255E+02  0.14763127640E+03  0.12500073044E+03 0.  0.
    9000005    1    3    3    0    0 -0.63266774781E+02  0.34732898588E+02  0.28500990759E+02  0.77603901382E+02  0.10000000000E+01 0.  0.
    9000005    1    3    3    0    0  0.51773435349E+02 -0.11624518688E+02  0.45686050496E+02  0.70027375022E+02  0.10000000000E+01 0.  0.
         -4    1    1    2    0  502  0.11493339432E+02 -0.23108379900E+02 -0.20727734898E+02  0.33126212685E+02  0.12700000000E+01 0. -1.
<mgrwt>
<rscale>  1 0.12763729E+03</rscale>
<asrwt>0</asrwt>
<pdfrwt beam="2">  1       21 0.97916383E-02 0.12763729E+03</pdfrwt>
<pdfrwt beam="1">  1       -4 0.18017651E-01 0.12763729E+03</pdfrwt>
<totfact> 0.91607241E+04</totfact>
</mgrwt>
</event>
<event>
 6    4  0.7919556E-003  0.1364320E+03  0.7818608E-02  0.1218212E+00
          4   -1    0    0  502    0 -0.00000000000E+00  0.00000000000E+00  0.24003492173E+02  0.24037065888E+02  0.12700000000E+01 0. -1.
         21   -1    0    0  501  502  0.00000000000E+00 -0.00000000000E+00 -0.57358219511E+03  0.57358219511E+03  0.00000000000E+00 0.  1.
         25    2    1    2    0    0  0.53500505323E+02  0.11236675961E+02 -0.19001777662E+03  0.23392400452E+03  0.12500047000E+03 0.  0.
    9000005    1    3    3    0    0 -0.11590710166E+02  0.54399159054E+02 -0.10247943902E+03  0.11660466753E+03  0.10000000000E+01 0.  0.
    9000005    1    3    3    0    0  0.65091215489E+02 -0.43162483092E+02 -0.87538337603E+02  0.11731933699E+03  0.10000000000E+01 0.  0.
          4    1    1    2  501    0 -0.53500505323E+02 -0.11236675961E+02 -0.35956092631E+03  0.36369525648E+03  0.12700000000E+01 0.  1.
<mgrwt>
<rscale>  1 0.13643198E+03</rscale>
<asrwt>0</asrwt>
<pdfrwt beam="2">  1       21 0.88243411E-01 0.13643198E+03</pdfrwt>
<pdfrwt beam="1">  1        4 0.36955358E-02 0.13643198E+03</pdfrwt>
<totfact> 0.17577520E+04</totfact>
</mgrwt>
</event>
<event>
 6    4  0.7919556E-003  0.1356042E+03  0.7818608E-02  0.1219369E+00
         21   -1    0    0  501  502  0.00000000000E+00  0.00000000000E+00  0.80766106849E+02  0.80766106849E+02  0.00000000000E+00 0. -1.
         -4   -1    0    0    0  501 -0.00000000000E+00 -0.00000000000E+00 -0.10322420294E+04  0.10322428107E+04  0.12700000000E+01 0.  1.
         25    2    1    2    0    0  0.52362264184E+02 -0.46531110972E+01 -0.10186864311E+04  0.10276723866E+04  0.12500012476E+03 0.  0.
    9000005    1    3    3    0    0  0.59015858835E+02 -0.11759145321E+02 -0.19839898886E+03  0.20732657300E+03  0.10000000000E+01 0.  0.
    9000005    1    3    3    0    0 -0.66535946506E+01  0.71060342235E+01 -0.82028744222E+03  0.82034581361E+03  0.10000000000E+01 0.  0.
         -4    1    1    2    0  502 -0.52362264184E+02  0.46531110972E+01  0.67210508513E+02  0.85336530911E+02  0.12700000000E+01 0. -1.
<mgrwt>
<rscale>  1 0.13560416E+03</rscale>
<asrwt>0</asrwt>
<pdfrwt beam="1">  1       21 0.12425555E-01 0.13560416E+03</pdfrwt>
<pdfrwt beam="2">  1       -4 0.15880729E+00 0.13560416E+03</pdfrwt>
<totfact> 0.63277082E+02</totfact>
</mgrwt>
</event>
<event>
 6    4  0.7919556E-003  0.1345566E+03  0.7818608E-02  0.1220847E+00
          4   -1    0    0  502    0 -0.00000000000E+00  0.00000000000E+00  0.89738074937E+02  0.89747061197E+02  0.12700000000E+01 0. -1.
         21   -1    0    0  501  502  0.00000000000E+00 -0.00000000000E+00 -0.12521824471E+03  0.12521824471E+03  0.00000000000E+00 0. -1.
         25    2    1    2    0    0  0.20666945431E+02  0.45325320873E+02  0.24728835110E+02  0.13681004687E+03  0.12499586511E+03 0.  0.
    9000005    1    3    3    0    0 -0.36530927689E+01 -0.26384985810E+02  0.50262025066E+02  0.56892738787E+02  0.10000000000E+01 0.  0.
    9000005    1    3    3    0    0  0.24320038200E+02  0.71710306682E+02 -0.25533189957E+02  0.79917308087E+02  0.10000000000E+01 0.  0.
          4    1    1    2  501    0 -0.20666945431E+02 -0.45325320873E+02 -0.60209004887E+02  0.78155259037E+02  0.12700000000E+01 0.  1.
<mgrwt>
<rscale>  1 0.13455658E+03</rscale>
<asrwt>0</asrwt>
<pdfrwt beam="2">  1       21 0.19264345E-01 0.13455658E+03</pdfrwt>
<pdfrwt beam="1">  1        4 0.13807044E-01 0.13455658E+03</pdfrwt>
<totfact> 0.43737966E+04</totfact>
</mgrwt>
</event>
<event>
 6    4  0.7919556E-003  0.1536796E+03  0.7818608E-02  0.1196023E+00
         21   -1    0    0  501  502  0.00000000000E+00  0.00000000000E+00  0.60382061591E+02  0.60382061591E+02  0.00000000000E+00 0. -1.
         -4   -1    0    0    0  501 -0.00000000000E+00 -0.00000000000E+00 -0.52074725722E+03  0.52074880586E+03  0.12700000000E+01 0.  1.
         25    2    1    2    0    0 -0.59236478705E+02  0.66958579519E+02 -0.46684285802E+03  0.49148721296E+03  0.12500005855E+03 0.  0.
    9000005    1    3    3    0    0 -0.63680757421E+02  0.90225602608E+02 -0.24943726563E+03  0.27279268267E+03  0.10000000000E+01 0.  0.
    9000005    1    3    3    0    0  0.44442787159E+01 -0.23267023089E+02 -0.21740559239E+03  0.21869453029E+03  0.10000000000E+01 0.  0.
         -4    1    1    2    0  502  0.59236478705E+02 -0.66958579519E+02  0.64776623899E+01  0.89643654491E+02  0.12700000000E+01 0. -1.
<mgrwt>
<rscale>  1 0.15367962E+03</rscale>
<asrwt>0</asrwt>
<pdfrwt beam="1">  1       21 0.92895478E-02 0.15367962E+03</pdfrwt>
<pdfrwt beam="2">  1       -4 0.80116110E-01 0.15367962E+03</pdfrwt>
<totfact> 0.54292239E+03</totfact>
</mgrwt>
</event>
<event>
 6    4  0.7919556E-003  0.1282466E+03  0.7818608E-02  0.1230081E+00
         21   -1    0    0  501  502  0.00000000000E+00  0.00000000000E+00  0.36520033577E+02  0.36520033577E+02  0.00000000000E+00 0.  1.
          4   -1    0    0  502    0 -0.00000000000E+00 -0.00000000000E+00 -0.24784215963E+03  0.24784541349E+03  0.12700000000E+01 0. -1.
         25    2    1    2    0    0  0.12116485597E+02  0.25987077377E+02 -0.21976522370E+03  0.25444829126E+03  0.12500016786E+03 0.  0.
    9000005    1    3    3    0    0  0.51564841784E+02 -0.15111607767E+02 -0.43308724768E+02  0.69021295544E+02  0.10000000000E+01 0.  0.
    9000005    1    3    3    0    0 -0.39448356187E+02  0.41098685144E+02 -0.17645649893E+03  0.18542699572E+03  0.10000000000E+01 0.  0.
          4    1    1    2  501    0 -0.12116485597E+02 -0.25987077377E+02  0.84430976451E+01  0.29917155808E+02  0.12700000000E+01 0.  1.
<mgrwt>
<rscale>  1 0.12824656E+03</rscale>
<asrwt>0</asrwt>
<pdfrwt beam="1">  1       21 0.56184666E-02 0.12824656E+03</pdfrwt>
<pdfrwt beam="2">  1        4 0.38131513E-01 0.12824656E+03</pdfrwt>
<totfact> 0.59078637E+04</totfact>
</mgrwt>
</event>
<event>
 6    4  0.7919556E-003  0.1312091E+03  0.7818608E-02  0.1225673E+00
         -4   -1    0    0    0  501 -0.00000000000E+00  0.00000000000E+00  0.44895346537E+03  0.44895526166E+03  0.12700000000E+01 0.  1.
         21   -1    0    0  501  502  0.00000000000E+00 -0.00000000000E+00 -0.19480650018E+02  0.19480650018E+02  0.00000000000E+00 0. -1.
         25    2    1    2    0    0 -0.17989401172E+02 -0.35602832846E+02  0.39316753733E+03  0.41448346619E+03  0.12499860429E+03 0.  0.
    9000005    1    3    3    0    0  0.35541344964E+02 -0.59000522249E+02  0.16183038335E+03  0.17588155617E+03  0.10000000000E+01 0.  0.
    9000005    1    3    3    0    0 -0.53530746136E+02  0.23397689403E+02  0.23133715399E+03  0.23860191002E+03  0.10000000000E+01 0.  0.
         -4    1    1    2    0  502  0.17989401172E+02  0.35602832846E+02  0.36305278022E+02  0.53952445482E+02  0.12700000000E+01 0. -1.
<mgrwt>
<rscale>  1 0.13120911E+03</rscale>
<asrwt>0</asrwt>
<pdfrwt beam="2">  1       21 0.29970234E-02 0.13120911E+03</pdfrwt>
<pdfrwt beam="1">  1       -4 0.69073079E-01 0.13120911E+03</pdfrwt>
<totfact> 0.49998953E+04</totfact>
</mgrwt>
</event>
<event>
 6    4  0.7919556E-003  0.1316370E+03  0.7818608E-02  0.1225047E+00
         21   -1    0    0  501  502  0.00000000000E+00  0.00000000000E+00  0.10677887915E+03  0.10677887915E+03  0.00000000000E+00 0.  1.
         -4   -1    0    0    0  501 -0.00000000000E+00 -0.00000000000E+00 -0.18406443204E+03  0.18406881333E+03  0.12700000000E+01 0. -1.
         25    2    1    2    0    0  0.22776787483E+02  0.34426780452E+02 -0.15468754658E+03  0.20311704341E+03  0.12499724396E+03 0.  0.
    9000005    1    3    3    0    0 -0.33957857490E+00 -0.33319075254E+02 -0.74611031193E+00  0.33344156460E+02  0.10000000000E+01 0.  0.
    9000005    1    3    3    0    0  0.23116366058E+02  0.67745855707E+02 -0.15394143626E+03  0.16977288695E+03  0.10000000000E+01 0.  0.
         -4    1    1    2    0  502 -0.22776787483E+02 -0.34426780452E+02  0.77401993690E+02  0.87730649077E+02  0.12700000000E+01 0.  1.
<mgrwt>
<rscale>  1 0.13163699E+03</rscale>
<asrwt>0</asrwt>
<pdfrwt beam="1">  1       21 0.16427520E-01 0.13163699E+03</pdfrwt>
<pdfrwt beam="2">  1       -4 0.28318523E-01 0.13163699E+03</pdfrwt>
<totfact> 0.16050402E+04</totfact>
</mgrwt>
</event>
<event>
 6    4  0.7919556E-003  0.1309817E+03  0.7818608E-02  0.1226006E+00
         21   -1    0    0  501  502  0.00000000000E+00  0.00000000000E+00  0.52316111946E+03  0.52316111946E+03  0.00000000000E+00 0.  1.
         -4   -1    0    0    0  501 -0.00000000000E+00 -0.00000000000E+00 -0.31138887212E+03  0.31139146196E+03  0.12700000000E+01 0. -1.
         25    2    1    2    0    0  0.24693457239E+02 -0.30388470653E+02 -0.29682954924E+03  0.32444413573E+03  0.12499195945E+03 0.  0.
    9000005    1    3    3    0    0  0.32964012800E+02  0.13042169666E+02 -0.13918808648E+02  0.38097999471E+02  0.10000000000E+01 0.  0.
    9000005    1    3    3    0    0 -0.82705555609E+01 -0.43430640318E+02 -0.28291074060E+03  0.28634613626E+03  0.10000000000E+01 0.  0.
         -4    1    1    2    0  502 -0.24693457239E+02  0.30388470653E+02  0.50860179658E+03  0.51010844569E+03  0.12700000000E+01 0.  1.
<mgrwt>
<rscale>  1 0.13098174E+03</rscale>
<asrwt>0</asrwt>
<pdfrwt beam="1">  1       21 0.80486326E-01 0.13098174E+03</pdfrwt>
<pdfrwt beam="2">  1       -4 0.47906298E-01 0.13098174E+03</pdfrwt>
<totfact> 0.24340697E+02</totfact>
</mgrwt>
</event>
<event>
 6    4  0.7919556E-003  0.1351371E+03  0.7818608E-02  0.1220026E+00
          4   -1    0    0  502    0 -0.00000000000E+00  0.00000000000E+00  0.11759715918E+04  0.11759722776E+04  0.12700000000E+01 0. -1.
         21   -1    0    0  501  502  0.00000000000E+00 -0.00000000000E+00 -0.74064497556E+01  0.74064497556E+01  0.00000000000E+00 0. -1.
         25    2    1    2    0    0 -0.31575463468E+02  0.40497435775E+02  0.86759567104E+03  0.87805711398E+03  0.12499997926E+03 0.  0.
    9000005    1    3    3    0    0 -0.36195299984E+02  0.64689913770E+02  0.82869308104E+03  0.83200246830E+03  0.10000000000E+01 0.  0.
    9000005    1    3    3    0    0  0.46198365161E+01 -0.24192477995E+02  0.38902589994E+02  0.46054645685E+02  0.10000000000E+01 0.  0.
          4    1    1    2  501    0  0.31575463468E+02 -0.40497435775E+02  0.30096947099E+03  0.30532161333E+03  0.12700000000E+01 0.  1.
<mgrwt>
<rscale>  1 0.13513714E+03</rscale>
<asrwt>0</asrwt>
<pdfrwt beam="2">  1       21 0.11394547E-02 0.13513714E+03</pdfrwt>
<pdfrwt beam="1">  1        4 0.18092699E+00 0.13513714E+03</pdfrwt>
<totfact> 0.23935497E+04</totfact>
</mgrwt>
</event>
<event>
 6    4  0.7919556E-003  0.1344830E+03  0.7818608E-02  0.1220951E+00
         -4   -1    0    0    0  501 -0.00000000000E+00  0.00000000000E+00  0.25142595141E+02  0.25174649758E+02  0.12700000000E+01 0. -1.
         21   -1    0    0  501  502  0.00000000000E+00 -0.00000000000E+00 -0.33690241053E+03  0.33690241053E+03  0.00000000000E+00 0.  1.
         25    2    1    2    0    0  0.49377742149E+02  0.47266312239E+01 -0.23070907127E+03  0.26704370570E+03  0.12500065089E+03 0.  0.
    9000005    1    3    3    0    0 -0.13675089004E+02 -0.39703970539E+02 -0.14842576565E+03  0.15425505258E+03  0.10000000000E+01 0.  0.
    9000005    1    3    3    0    0  0.63052831153E+02  0.44430601762E+02 -0.82283305617E+02  0.11278865312E+03  0.10000000000E+01 0.  0.
         -4    1    1    2    0  502 -0.49377742149E+02 -0.47266312239E+01 -0.81050744121E+02  0.95033354592E+02  0.12700000000E+01 0.  1.
<mgrwt>
<rscale>  1 0.13448296E+03</rscale>
<asrwt>0</asrwt>
<pdfrwt beam="2">  1       21 0.51831139E-01 0.13448296E+03</pdfrwt>
<pdfrwt beam="1">  1       -4 0.38707415E-02 0.13448296E+03</pdfrwt>
<totfact> 0.51844961E+04</totfact>
</mgrwt>
</event>
<event>
 6    4  0.7919556E-003  0.1621672E+03  0.7818608E-02  0.1186271E+00
         21   -1    0    0  501  502  0.00000000000E+00  0.00000000000E+00  0.13885615407E+03  0.13885615407E+03  0.00000000000E+00 0.  1.
         -4   -1    0    0    0  501 -0.00000000000E+00 -0.00000000000E+00 -0.16124111046E+03  0.16124611190E+03  0.12700000000E+01 0. -1.
         25    2    1    2    0    0 -0.10041242432E+03  0.24278472039E+02 -0.81051064323E+02  0.18129391490E+03  0.12500443748E+03 0.  0.
    9000005    1    3    3    0    0 -0.75676685648E+02  0.14494518537E+02 -0.11482843336E+03  0.13828818072E+03  0.10000000000E+01 0.  0.
    9000005    1    3    3    0    0 -0.24735738676E+02  0.97839535022E+01  0.33777369036E+02  0.43005734187E+02  0.10000000000E+01 0.  0.
         -4    1    1    2    0  502  0.10041242432E+03 -0.24278472039E+02  0.58666107925E+02  0.11880835106E+03  0.12700000000E+01 0.  1.
<mgrwt>
<rscale>  1 0.16216722E+03</rscale>
<asrwt>0</asrwt>
<pdfrwt beam="1">  1       21 0.21362485E-01 0.16216722E+03</pdfrwt>
<pdfrwt beam="2">  1       -4 0.24807156E-01 0.16216722E+03</pdfrwt>
<totfact> 0.12885421E+04</totfact>
</mgrwt>
</event>
<event>
 6    4  0.7919556E-003  0.1654207E+03  0.7818608E-02  0.1182709E+00
         21   -1    0    0  501  502  0.00000000000E+00  0.00000000000E+00  0.95469116891E+03  0.95469116891E+03  0.00000000000E+00 0.  1.
          4   -1    0    0  502    0 -0.00000000000E+00 -0.00000000000E+00 -0.24225771338E+02  0.24259037428E+02  0.12700000000E+01 0. -1.
         25    2    1    2    0    0 -0.47053026051E+02  0.97594833256E+02  0.33396192265E+03  0.37268562117E+03  0.12500107082E+03 0.  0.
    9000005    1    3    3    0    0  0.12441097506E+02 -0.24990793926E+02  0.75529568477E+02  0.80529723721E+02  0.10000000000E+01 0.  0.
    9000005    1    3    3    0    0 -0.59494123557E+02  0.12258562718E+03  0.25843235417E+03  0.29215589745E+03  0.10000000000E+01 0.  0.
          4    1    1    2  501    0  0.47053026051E+02 -0.97594833256E+02  0.59650347493E+03  0.60626458518E+03  0.12700000000E+01 0.  1.
<mgrwt>
<rscale>  1 0.16542070E+03</rscale>
<asrwt>0</asrwt>
<pdfrwt beam="1">  1       21 0.14687554E+00 0.16542070E+03</pdfrwt>
<pdfrwt beam="2">  1        4 0.37296664E-02 0.16542070E+03</pdfrwt>
<totfact> 0.50758877E+03</totfact>
</mgrwt>
</event>
<event>
 6    4  0.7919556E-003  0.1619471E+03  0.7818608E-02  0.1186516E+00
          4   -1    0    0  502    0 -0.00000000000E+00  0.00000000000E+00  0.37255601923E+03  0.37255818386E+03  0.12700000000E+01 0.  1.
         21   -1    0    0  501  502  0.00000000000E+00 -0.00000000000E+00 -0.47477577712E+02  0.47477577712E+02  0.00000000000E+00 0. -1.
         25    2    1    2    0    0  0.40433719825E+02  0.94696585086E+02  0.21681152184E+03  0.27061799917E+03  0.12499814617E+03 0.  0.
    9000005    1    3    3    0    0 -0.22222230122E+02  0.24541838660E+02 -0.12355019599E+01  0.33145977455E+02  0.10000000000E+01 0.  0.
    9000005    1    3    3    0    0  0.62655949946E+02  0.70154746426E+02  0.21804702380E+03  0.23747202171E+03  0.10000000000E+01 0.  0.
          4    1    1    2  501    0 -0.40433719825E+02 -0.94696585086E+02  0.10826691968E+03  0.14941776241E+03  0.12700000000E+01 0. -1.
<mgrwt>
<rscale>  1 0.16194711E+03</rscale>
<asrwt>0</asrwt>
<pdfrwt beam="2">  1       21 0.73042430E-02 0.16194711E+03</pdfrwt>
<pdfrwt beam="1">  1        4 0.57317782E-01 0.16194711E+03</pdfrwt>
<totfact> 0.17019593E+04</totfact>
</mgrwt>
</event>
<event>
 6    4  0.7919556E-003  0.1346421E+03  0.7818608E-02  0.1220726E+00
          4   -1    0    0  502    0 -0.00000000000E+00  0.00000000000E+00  0.11619605806E+03  0.11620299828E+03  0.12700000000E+01 0. -1.
         21   -1    0    0  501  502  0.00000000000E+00 -0.00000000000E+00 -0.19633783115E+03  0.19633783115E+03  0.00000000000E+00 0.  1.
         25    2    1    2    0    0  0.10969091141E+02  0.48818236414E+02  0.71784098685E+02  0.15258263307E+03  0.12499984770E+03 0.  0.
    9000005    1    3    3    0    0 -0.42283759514E+02 -0.20591587516E+02  0.28056819295E+02  0.54773304666E+02  0.10000000000E+01 0.  0.
    9000005    1    3    3    0    0  0.53252850655E+02  0.69409823930E+02  0.43727279390E+02  0.97809328408E+02  0.10000000000E+01 0.  0.
          4    1    1    2  501    0 -0.10969091141E+02 -0.48818236414E+02 -0.15192587178E+03  0.15995819636E+03  0.12700000000E+01 0.  1.
<mgrwt>
<rscale>  1 0.13464213E+03</rscale>
<asrwt>0</asrwt>
<pdfrwt beam="2">  1       21 0.30205820E-01 0.13464213E+03</pdfrwt>
<pdfrwt beam="1">  1        4 0.17877167E-01 0.13464213E+03</pdfrwt>
<totfact> 0.11902654E+04</totfact>
</mgrwt>
</event>
<event>
 6    4  0.7919556E-003  0.1279033E+03  0.7818608E-02  0.1230600E+00
         21   -1    0    0  501  502  0.00000000000E+00  0.00000000000E+00  0.28975099707E+03  0.28975099707E+03  0.00000000000E+00 0.  1.
          4   -1    0    0  502    0 -0.00000000000E+00 -0.00000000000E+00 -0.49991671431E+02  0.50007800516E+02  0.12700000000E+01 0. -1.
         25    2    1    2    0    0  0.24425352188E+02  0.11715868402E+02  0.34170685861E+02  0.13238917323E+03  0.12500159204E+03 0.  0.
    9000005    1    3    3    0    0 -0.22734983985E+02 -0.30464683420E+02  0.54027110305E+02  0.66067428288E+02  0.10000000000E+01 0.  0.
    9000005    1    3    3    0    0  0.47160336173E+02  0.42180551821E+02 -0.19856424444E+02  0.66321744938E+02  0.10000000000E+01 0.  0.
          4    1    1    2  501    0 -0.24425352188E+02 -0.11715868402E+02  0.20558863977E+03  0.20736962436E+03  0.12700000000E+01 0.  1.
<mgrwt>
<rscale>  1 0.12790331E+03</rscale>
<asrwt>0</asrwt>
<pdfrwt beam="1">  1       21 0.44577075E-01 0.12790331E+03</pdfrwt>
<pdfrwt beam="2">  1        4 0.76924814E-02 0.12790331E+03</pdfrwt>
<totfact> 0.23170749E+04</totfact>
</mgrwt>
</event>
<event>
 6    4  0.7919556E-003  0.1410832E+03  0.7818608E-02  0.1211879E+00
          4   -1    0    0  502    0 -0.00000000000E+00  0.00000000000E+00  0.19618453742E+03  0.19618864805E+03  0.12700000000E+01 0. -1.
         21   -1    0    0  501  502  0.00000000000E+00 -0.00000000000E+00 -0.12647247755E+03  0.12647247755E+03  0.00000000000E+00 0.  1.
         25    2    1    2    0    0 -0.47789805413E+02 -0.44682731697E+02  0.15860924144E+03  0.21227664388E+03  0.12499628016E+03 0.  0.
    9000005    1    3    3    0    0  0.41836818681E+02 -0.27445643132E+01  0.42308072071E+02  0.59572015183E+02  0.10000000000E+01 0.  0.
    9000005    1    3    3    0    0 -0.89626624094E+02 -0.41938167384E+02  0.11630116937E+03  0.15270462870E+03  0.10000000000E+01 0.  0.
          4    1    1    2  501    0  0.47789805413E+02  0.44682731697E+02 -0.88897181570E+02  0.11038448172E+03  0.12700000000E+01 0.  1.
<mgrwt>
<rscale>  1 0.14108325E+03</rscale>
<asrwt>0</asrwt>
<pdfrwt beam="2">  1       21 0.19457304E-01 0.14108325E+03</pdfrwt>
<pdfrwt beam="1">  1        4 0.30183043E-01 0.14108325E+03</pdfrwt>
<totfact> 0.10501419E+04</totfact>
</mgrwt>
</event>
<event>
 6    4  0.7919556E-003  0.1289699E+03  0.7818608E-02  0.1228992E+00
         -4   -1    0    0    0  501 -0.00000000000E+00  0.00000000000E+00  0.77748905159E+02  0.77759276960E+02  0.12700000000E+01 0.  1.
         21   -1    0    0  501  502  0.00000000000E+00 -0.00000000000E+00 -0.11130119613E+03  0.11130119613E+03  0.00000000000E+00 0. -1.
         25    2    1    2    0    0  0.31558957459E+02 -0.36371323808E+01  0.16235055087E+02  0.12998772764E+03  0.12499614312E+03 0.  0.
    9000005    1    3    3    0    0  0.28574589940E+01 -0.58542397698E+02 -0.15126135808E+02  0.60540708491E+02  0.10000000000E+01 0.  0.
    9000005    1    3    3    0    0  0.28701498465E+02  0.54905265317E+02  0.31361190895E+02  0.69447019145E+02  0.10000000000E+01 0.  0.
         -4    1    1    2    0  502 -0.31558957459E+02  0.36371323808E+01 -0.49787346056E+02  0.59072745451E+02  0.12700000000E+01 0. -1.
<mgrwt>
<rscale>  1 0.12896989E+03</rscale>
<asrwt>0</asrwt>
<pdfrwt beam="2">  1       21 0.17123261E-01 0.12896989E+03</pdfrwt>
<pdfrwt beam="1">  1       -4 0.11962725E-01 0.12896989E+03</pdfrwt>
<totfact> 0.69105222E+04</totfact>
</mgrwt>
</event>
<event>
 6    4  0.7919556E-003  0.1281337E+03  0.7818608E-02  0.1230252E+00
          4   -1    0    0  502    0 -0.00000000000E+00  0.00000000000E+00  0.15073541377E+04  0.15073546727E+04  0.12700000000E+01 0.  1.
         21   -1    0    0  501  502  0.00000000000E+00 -0.00000000000E+00 -0.10412688652E+02  0.10412688652E+02  0.00000000000E+00 0. -1.
         25    2    1    2    0    0 -0.28197056519E+02 -0.12189998554E+01  0.14784717586E+04  0.14840138086E+04  0.12498673249E+03 0.  0.
    9000005    1    3    3    0    0  0.39381971046E+02 -0.27062109952E+02  0.35335127971E+03  0.35656896151E+03  0.10000000000E+01 0.  0.
    9000005    1    3    3    0    0 -0.67579027565E+02  0.25843110097E+02  0.11251204789E+04  0.11274448471E+04  0.10000000000E+01 0.  0.
          4    1    1    2  501    0  0.28197056519E+02  0.12189998554E+01  0.18469690477E+02  0.33753552751E+02  0.12700000000E+01 0. -1.
<mgrwt>
<rscale>  1 0.12813369E+03</rscale>
<asrwt>0</asrwt>
<pdfrwt beam="2">  1       21 0.16019533E-02 0.12813369E+03</pdfrwt>
<pdfrwt beam="1">  1        4 0.23190646E+00 0.12813369E+03</pdfrwt>
<totfact> 0.67383946E+03</totfact>
</mgrwt>
</event>
<event>
 6    4  0.7919556E-003  0.1270215E+03  0.7818608E-02  0.1231943E+00
         -4   -1    0    0    0  501 -0.00000000000E+00  0.00000000000E+00  0.23549203482E+02  0.23583423938E+02  0.12700000000E+01 0.  1.
         21   -1    0    0  501  502  0.00000000000E+00 -0.00000000000E+00 -0.79637902099E+03  0.79637902099E+03  0.00000000000E+00 0. -1.
         25    2    1    2    0    0 -0.24998612414E+01 -0.22467577510E+02 -0.14930477238E+03  0.19602644168E+03  0.12499363759E+03 0.  0.
    9000005    1    3    3    0    0  0.54193446908E+02 -0.31047178786E+02 -0.44965747572E+02  0.76966066894E+02  0.10000000000E+01 0.  0.
    9000005    1    3    3    0    0 -0.56693308150E+02  0.85796012755E+01 -0.10433902481E+03  0.11906037479E+03  0.10000000000E+01 0.  0.
         -4    1    1    2    0  502  0.24998612414E+01  0.22467577510E+02 -0.62352504513E+03  0.62393600325E+03  0.12700000000E+01 0. -1.
<mgrwt>
<rscale>  1 0.12702146E+03</rscale>
<asrwt>0</asrwt>
<pdfrwt beam="2">  1       21 0.12251982E+00 0.12702146E+03</pdfrwt>
<pdfrwt beam="1">  1       -4 0.36256653E-02 0.12702146E+03</pdfrwt>
<totfact> 0.83042311E+03</totfact>
</mgrwt>
</event>
<event>
 6    4  0.7919556E-003  0.1284898E+03  0.7818608E-02  0.1229714E+00
         21   -1    0    0  501  502  0.00000000000E+00  0.00000000000E+00  0.18552786990E+03  0.18552786990E+03  0.00000000000E+00 0. -1.
         -4   -1    0    0    0  501 -0.00000000000E+00 -0.00000000000E+00 -0.47812818610E+03  0.47812987278E+03  0.12700000000E+01 0.  1.
         25    2    1    2    0    0  0.12279951885E+02  0.27095769941E+02 -0.46822078966E+03  0.48553098567E+03  0.12499860884E+03 0.  0.
    9000005    1    3    3    0    0  0.18018530616E+02 -0.48133240114E+02 -0.15297683901E+03  0.16138274234E+03  0.10000000000E+01 0.  0.
    9000005    1    3    3    0    0 -0.57385787315E+01  0.75229010055E+02 -0.31524395064E+03  0.32414824333E+03  0.10000000000E+01 0.  0.
         -4    1    1    2    0  502 -0.12279951885E+02 -0.27095769941E+02  0.17562047346E+03  0.17812675701E+03  0.12700000000E+01 0. -1.
<mgrwt>
<rscale>  1 0.12848981E+03</rscale>
<asrwt>0</asrwt>
<pdfrwt beam="1">  1       21 0.28542749E-01 0.12848981E+03</pdfrwt>
<pdfrwt beam="2">  1       -4 0.73558646E-01 0.12848981E+03</pdfrwt>
<totfact> 0.83813757E+02</totfact>
</mgrwt>
</event>
<event>
 6    4  0.7919556E-003  0.1294100E+03  0.7818608E-02  0.1228334E+00
         -4   -1    0    0    0  501 -0.00000000000E+00  0.00000000000E+00  0.36422819587E+03  0.36423041000E+03  0.12700000000E+01 0. -1.
         21   -1    0    0  501  502  0.00000000000E+00 -0.00000000000E+00 -0.12552686439E+03  0.12552686439E+03  0.00000000000E+00 0.  1.
         25    2    1    2    0    0  0.31837735749E+02  0.10402706323E+02  0.35019147140E+03  0.37333768018E+03  0.12500039634E+03 0.  0.
    9000005    1    3    3    0    0  0.63909696818E+01 -0.54938243887E+02  0.11012408243E+03  0.12323704259E+03  0.10000000000E+01 0.  0.
    9000005    1    3    3    0    0  0.25446766067E+02  0.65340950210E+02  0.24006738897E+03  0.25010063760E+03  0.10000000000E+01 0.  0.
         -4    1    1    2    0  502 -0.31837735749E+02 -0.10402706323E+02 -0.11149013992E+03  0.11641959420E+03  0.12700000000E+01 0.  1.
<mgrwt>
<rscale>  1 0.12941003E+03</rscale>
<asrwt>0</asrwt>
<pdfrwt beam="2">  1       21 0.19311825E-01 0.12941003E+03</pdfrwt>
<pdfrwt beam="1">  1       -4 0.56035771E-01 0.12941003E+03</pdfrwt>
<totfact> 0.31121696E+03</totfact>
</mgrwt>
</event>
<event>
 6    4  0.7919556E-003  0.1289158E+03  0.7818608E-02  0.1229073E+00
         -4   -1    0    0    0  501 -0.00000000000E+00  0.00000000000E+00  0.16508009274E+04  0.16508014159E+04  0.12700000000E+01 0.  1.
         21   -1    0    0  501  502  0.00000000000E+00 -0.00000000000E+00 -0.39003456606E+01  0.39003456606E+01  0.00000000000E+00 0.  1.
         25    2    1    2    0    0 -0.22750114312E+02  0.21850809616E+02  0.13266673217E+04  0.13329161508E+04  0.12499702783E+03 0.  0.
    9000005    1    3    3    0    0  0.40900920254E+01  0.59734136308E+01  0.12516205287E+04  0.12516418650E+04  0.10000000000E+01 0.  0.
    9000005    1    3    3    0    0 -0.26840206337E+02  0.15877395985E+02  0.75046793043E+02  0.81274285759E+02  0.10000000000E+01 0.  0.
         -4    1    1    2    0  502  0.22750114312E+02 -0.21850809616E+02  0.32023326003E+03  0.32178561079E+03  0.12700000000E+01 0. -1.
<mgrwt>
<rscale>  1 0.12891580E+03</rscale>
<asrwt>0</asrwt>
<pdfrwt beam="2">  1       21 0.60005450E-03 0.12891580E+03</pdfrwt>
<pdfrwt beam="1">  1       -4 0.25398476E+00 0.12891580E+03</pdfrwt>
<totfact> 0.23586311E+04</totfact>
</mgrwt>
</event>
<event>
 6    4  0.7919556E-003  0.1448710E+03  0.7818608E-02  0.1206921E+00
         21   -1    0    0  501  502  0.00000000000E+00  0.00000000000E+00  0.91553315194E+02  0.91553315194E+02  0.00000000000E+00 0.  1.
         -4   -1    0    0    0  501 -0.00000000000E+00 -0.00000000000E+00 -0.17299969644E+03  0.17300435795E+03  0.12700000000E+01 0. -1.
         25    2    1    2    0    0 -0.65421125694E+02 -0.32905846734E+02 -0.11405945159E+03  0.18438321528E+03  0.12499957258E+03 0.  0.
    9000005    1    3    3    0    0 -0.61073297509E+02 -0.16227498931E+02  0.56340873881E+01  0.63450944286E+02  0.10000000000E+01 0.  0.
    9000005    1    3    3    0    0 -0.43478281852E+01 -0.16678347803E+02 -0.11969353898E+03  0.12093227099E+03  0.10000000000E+01 0.  0.
         -4    1    1    2    0  502  0.65421125694E+02  0.32905846734E+02  0.32613070340E+02  0.80174457861E+02  0.12700000000E+01 0.  1.
<mgrwt>
<rscale>  1 0.14487102E+03</rscale>
<asrwt>0</asrwt>
<pdfrwt beam="1">  1       21 0.14085126E-01 0.14487102E+03</pdfrwt>
<pdfrwt beam="2">  1       -4 0.26616374E-01 0.14487102E+03</pdfrwt>
<totfact> 0.24022347E+04</totfact>
</mgrwt>
</event>
<event>
 6    4  0.7919556E-003  0.1268424E+03  0.7818608E-02  0.1232218E+00
         21   -1    0    0  501  502  0.00000000000E+00  0.00000000000E+00  0.55684171745E+02  0.55684171745E+02  0.00000000000E+00 0.  1.
         -4   -1    0    0    0  501 -0.00000000000E+00 -0.00000000000E+00 -0.14216993674E+03  0.14217560907E+03  0.12700000000E+01 0. -1.
         25    2    1    2    0    0 -0.17676421215E+02  0.12310356236E+02 -0.10858565000E+03  0.16697259003E+03  0.12500000679E+03 0.  0.
    9000005    1    3    3    0    0 -0.39231772443E+02 -0.43097032199E+02 -0.22787033684E+02  0.62583824248E+02  0.10000000000E+01 0.  0.
    9000005    1    3    3    0    0  0.21555351228E+02  0.55407388435E+02 -0.85798616314E+02  0.10438876578E+03  0.10000000000E+01 0.  0.
         -4    1    1    2    0  502  0.17676421215E+02 -0.12310356236E+02  0.22099884999E+02  0.30887190785E+02  0.12700000000E+01 0.  1.
<mgrwt>
<rscale>  1 0.12684243E+03</rscale>
<asrwt>0</asrwt>
<pdfrwt beam="1">  1       21 0.85667958E-02 0.12684243E+03</pdfrwt>
<pdfrwt beam="2">  1       -4 0.21873848E-01 0.12684243E+03</pdfrwt>
<totfact> 0.81516746E+04</totfact>
</mgrwt>
</event>
<event>
 6    4  0.7919556E-003  0.1309939E+03  0.7818608E-02  0.1225988E+00
         21   -1    0    0  501  502  0.00000000000E+00  0.00000000000E+00  0.87477308619E+02  0.87477308619E+02  0.00000000000E+00 0. -1.
          4   -1    0    0  502    0 -0.00000000000E+00 -0.00000000000E+00 -0.10738022361E+03  0.10738773358E+03  0.12700000000E+01 0.  1.
         25    2    1    2    0    0  0.39216857653E+02 -0.75738483399E+00 -0.55136410808E+02  0.14212466219E+03  0.12498343991E+03 0.  0.
    9000005    1    3    3    0    0  0.25699415912E+02 -0.55717373299E+02  0.23958407755E+01  0.61413562986E+02  0.10000000000E+01 0.  0.
    9000005    1    3    3    0    0  0.13517441741E+02  0.54959988465E+02 -0.57532251583E+02  0.80711099209E+02  0.10000000000E+01 0.  0.
          4    1    1    2  501    0 -0.39216857653E+02  0.75738483399E+00  0.35233495812E+02  0.52740380005E+02  0.12700000000E+01 0. -1.
<mgrwt>
<rscale>  1 0.13099388E+03</rscale>
<asrwt>0</asrwt>
<pdfrwt beam="1">  1       21 0.13458048E-01 0.13099388E+03</pdfrwt>
<pdfrwt beam="2">  1        4 0.16521321E-01 0.13099388E+03</pdfrwt>
<totfact> 0.61103266E+04</totfact>
</mgrwt>
</event>
<event>
 6    4  0.7919556E-003  0.1291401E+03  0.7818608E-02  0.1228737E+00
         21   -1    0    0  501  502  0.00000000000E+00  0.00000000000E+00  0.18147028425E+03  0.18147028425E+03  0.00000000000E+00 0. -1.
          4   -1    0    0  502    0 -0.00000000000E+00 -0.00000000000E+00 -0.85334984983E+02  0.85344434862E+02  0.12700000000E+01 0.  1.
         25    2    1    2    0    0  0.24551786409E+02 -0.21193594572E+02 -0.33305887096E+02  0.13336588137E+03  0.12500087013E+03 0.  0.
    9000005    1    3    3    0    0 -0.34715936115E+02 -0.34965239149E+02  0.19298371619E+02  0.52926281905E+02  0.10000000000E+01 0.  0.
    9000005    1    3    3    0    0  0.59267722525E+02  0.13771644577E+02 -0.52604258715E+02  0.80439599468E+02  0.10000000000E+01 0.  0.
          4    1    1    2  501    0 -0.24551786409E+02  0.21193594572E+02  0.12944118636E+03  0.13344883774E+03  0.12700000000E+01 0. -1.
<mgrwt>
<rscale>  1 0.12914014E+03</rscale>
<asrwt>0</asrwt>
<pdfrwt beam="1">  1       21 0.27918505E-01 0.12914014E+03</pdfrwt>
<pdfrwt beam="2">  1        4 0.13129528E-01 0.12914014E+03</pdfrwt>
<totfact> 0.23669044E+04</totfact>
</mgrwt>
</event>
<event>
 6    4  0.7919556E-003  0.1273147E+03  0.7818608E-02  0.1231496E+00
         21   -1    0    0  501  502  0.00000000000E+00  0.00000000000E+00  0.68302853110E+01  0.68302853110E+01  0.00000000000E+00 0. -1.
          4   -1    0    0  502    0 -0.00000000000E+00 -0.00000000000E+00 -0.94110026337E+03  0.94110112030E+03  0.12700000000E+01 0.  1.
         25    2    1    2    0    0  0.10648114191E+02  0.21702619807E+02 -0.86976597345E+03  0.87903463098E+03  0.12499859142E+03 0.  0.
    9000005    1    3    3    0    0  0.24032782514E+02  0.66269532136E+02 -0.67996711512E+03  0.68361209993E+03  0.10000000000E+01 0.  0.
    9000005    1    3    3    0    0 -0.13384668323E+02 -0.44566912329E+02 -0.18979885833E+03  0.19542253105E+03  0.10000000000E+01 0.  0.
          4    1    1    2  501    0 -0.10648114191E+02 -0.21702619807E+02 -0.64504004613E+02  0.68896774623E+02  0.12700000000E+01 0. -1.
<mgrwt>
<rscale>  1 0.12731470E+03</rscale>
<asrwt>0</asrwt>
<pdfrwt beam="1">  1       21 0.10508134E-02 0.12731470E+03</pdfrwt>
<pdfrwt beam="2">  1        4 0.14479376E+00 0.12731470E+03</pdfrwt>
<totfact> 0.48370285E+04</totfact>
</mgrwt>
</event>
<event>
 6    4  0.7919556E-003  0.1289568E+03  0.7818608E-02  0.1229012E+00
         21   -1    0    0  501  502  0.00000000000E+00  0.00000000000E+00  0.23365631602E+02  0.23365631602E+02  0.00000000000E+00 0. -1.
          4   -1    0    0  502    0 -0.00000000000E+00 -0.00000000000E+00 -0.45318493294E+03  0.45318671245E+03  0.12700000000E+01 0.  1.
         25    2    1    2    0    0 -0.31466149732E+02  0.43422688319E+01 -0.42532703746E+03  0.44444678048E+03  0.12498351093E+03 0.  0.
    9000005    1    3    3    0    0 -0.14331549651E+02 -0.59937177325E+02 -0.22918641645E+03  0.23732945882E+03  0.10000000000E+01 0.  0.
    9000005    1    3    3    0    0 -0.17134600081E+02  0.64279446157E+02 -0.19614062102E+03  0.20711732166E+03  0.10000000000E+01 0.  0.
          4    1    1    2  501    0  0.31466149732E+02 -0.43422688319E+01 -0.44922638725E+01  0.32105563572E+02  0.12700000000E+01 0. -1.
<mgrwt>
<rscale>  1 0.12895678E+03</rscale>
<asrwt>0</asrwt>
<pdfrwt beam="1">  1       21 0.35947126E-02 0.12895678E+03</pdfrwt>
<pdfrwt beam="2">  1        4 0.69723549E-01 0.12895678E+03</pdfrwt>
<totfact> 0.36237275E+04</totfact>
</mgrwt>
</event>
<event>
 6    4  0.7919556E-003  0.1382088E+03  0.7818608E-02  0.1215760E+00
         21   -1    0    0  501  502  0.00000000000E+00  0.00000000000E+00  0.12390529208E+03  0.12390529208E+03  0.00000000000E+00 0.  1.
          4   -1    0    0  502    0 -0.00000000000E+00 -0.00000000000E+00 -0.87173538144E+02  0.87182788740E+02  0.12700000000E+01 0. -1.
         25    2    1    2    0    0  0.16308733991E+02  0.56659329217E+02  0.55888592204E+02  0.14908121229E+03  0.12500167490E+03 0.  0.
    9000005    1    3    3    0    0  0.10778765835E+02 -0.27808067113E+02  0.57090104918E+02  0.64418556869E+02  0.10000000000E+01 0.  0.
    9000005    1    3    3    0    0  0.55299681558E+01  0.84467396330E+02 -0.12015127141E+01  0.84662655423E+02  0.10000000000E+01 0.  0.
          4    1    1    2  501    0 -0.16308733991E+02 -0.56659329217E+02 -0.19156838271E+02  0.62006868525E+02  0.12700000000E+01 0.  1.
<mgrwt>
<rscale>  1 0.13820880E+03</rscale>
<asrwt>0</asrwt>
<pdfrwt beam="1">  1       21 0.19062353E-01 0.13820880E+03</pdfrwt>
<pdfrwt beam="2">  1        4 0.13412526E-01 0.13820880E+03</pdfrwt>
<totfact> 0.47031670E+04</totfact>
</mgrwt>
</event>
<event>
 6    4  0.7919556E-003  0.1268064E+03  0.7818608E-02  0.1232273E+00
         21   -1    0    0  501  502  0.00000000000E+00  0.00000000000E+00  0.41238440094E+03  0.41238440094E+03  0.00000000000E+00 0.  1.
          4   -1    0    0  502    0 -0.00000000000E+00 -0.00000000000E+00 -0.23821211570E+02  0.23855041829E+02  0.12700000000E+01 0. -1.
         25    2    1    2    0    0  0.21350122915E+02  0.17344353031E+00  0.14870885180E+03  0.19543335069E+03  0.12499605645E+03 0.  0.
    9000005    1    3    3    0    0  0.51094935084E+02  0.47764160200E+02  0.72038181662E+02  0.10041218556E+03  0.10000000000E+01 0.  0.
    9000005    1    3    3    0    0 -0.29744812169E+02 -0.47590716670E+02  0.76670670141E+02  0.95021165137E+02  0.10000000000E+01 0.  0.
          4    1    1    2  501    0 -0.21350122915E+02 -0.17344353031E+00  0.23985433757E+03  0.24080609208E+03  0.12700000000E+01 0.  1.
<mgrwt>
<rscale>  1 0.12680644E+03</rscale>
<asrwt>0</asrwt>
<pdfrwt beam="1">  1       21 0.63443749E-01 0.12680644E+03</pdfrwt>
<pdfrwt beam="2">  1        4 0.36675548E-02 0.12680644E+03</pdfrwt>
<totfact> 0.36638827E+04</totfact>
</mgrwt>
</event>
<event>
 6    4  0.7919556E-003  0.1284382E+03  0.7818608E-02  0.1229792E+00
         21   -1    0    0  501  502  0.00000000000E+00  0.00000000000E+00  0.41850615352E+02  0.41850615352E+02  0.00000000000E+00 0. -1.
         -4   -1    0    0    0  501 -0.00000000000E+00 -0.00000000000E+00 -0.17283614181E+03  0.17284080773E+03  0.12700000000E+01 0. -1.
         25    2    1    2    0    0 -0.14901161974E+02  0.25681278136E+02 -0.13301510214E+03  0.18490376201E+03  0.12495923789E+03 0.  0.
    9000005    1    3    3    0    0 -0.79135996478E+01 -0.47949601304E+02 -0.81041496753E+02  0.94501394278E+02  0.10000000000E+01 0.  0.
    9000005    1    3    3    0    0 -0.69875623258E+01  0.73630879440E+02 -0.51973605384E+02  0.90402367728E+02  0.10000000000E+01 0.  0.
         -4    1    1    2    0  502  0.14901161974E+02 -0.25681278136E+02  0.20295756775E+01  0.29787661075E+02  0.12700000000E+01 0.  1.
<mgrwt>
<rscale>  1 0.12843825E+03</rscale>
<asrwt>0</asrwt>
<pdfrwt beam="1">  1       21 0.64385562E-02 0.12843825E+03</pdfrwt>
<pdfrwt beam="2">  1       -4 0.26592017E-01 0.12843825E+03</pdfrwt>
<totfact> 0.93141566E+04</totfact>
</mgrwt>
</event>
<event>
 6    4  0.7919556E-003  0.1297071E+03  0.7818608E-02  0.1227891E+00
          4   -1    0    0  502    0 -0.00000000000E+00  0.00000000000E+00  0.14895212438E+02  0.14949255953E+02  0.12700000000E+01 0.  1.
         21   -1    0    0  501  502  0.00000000000E+00 -0.00000000000E+00 -0.55392192830E+03  0.55392192830E+03  0.00000000000E+00 0. -1.
         25    2    1    2    0    0 -0.26317556346E+02 -0.22530030801E+02 -0.29316089548E+03  0.32057331758E+03  0.12499490089E+03 0.  0.
    9000005    1    3    3    0    0 -0.22126871737E+02 -0.28539219583E+02 -0.10230910710E+02  0.37546731432E+02  0.10000000000E+01 0.  0.
    9000005    1    3    3    0    0 -0.41906846087E+01  0.60091887825E+01 -0.28292998477E+03  0.28302658615E+03  0.10000000000E+01 0.  0.
          4    1    1    2  501    0  0.26317556346E+02  0.22530030801E+02 -0.24586582038E+03  0.24829786667E+03  0.12700000000E+01 0. -1.
<mgrwt>
<rscale>  1 0.12970714E+03</rscale>
<asrwt>0</asrwt>
<pdfrwt beam="2">  1       21 0.85218755E-01 0.12970714E+03</pdfrwt>
<pdfrwt beam="1">  1        4 0.22958404E-02 0.12970714E+03</pdfrwt>
<totfact> 0.39888646E+04</totfact>
</mgrwt>
</event>
<event>
 6    4  0.7919556E-003  0.1271373E+03  0.7818608E-02  0.1231766E+00
         -4   -1    0    0    0  501 -0.00000000000E+00  0.00000000000E+00  0.19464633517E+02  0.19506021070E+02  0.12700000000E+01 0.  1.
         21   -1    0    0  501  502  0.00000000000E+00 -0.00000000000E+00 -0.55150517668E+03  0.55150517668E+03  0.00000000000E+00 0. -1.
         25    2    1    2    0    0  0.22966694402E+02  0.32412322739E+01 -0.19260992792E+03  0.23078666879E+03  0.12500371003E+03 0.  0.
    9000005    1    3    3    0    0  0.16092237290E+02  0.27915736024E+01 -0.21073572692E+03  0.21137005366E+03  0.10000000000E+01 0.  0.
    9000005    1    3    3    0    0  0.68744571120E+01  0.44965867150E+00  0.18125799005E+02  0.19416615129E+02  0.10000000000E+01 0.  0.
         -4    1    1    2    0  502 -0.22966694402E+02 -0.32412322739E+01 -0.33943061525E+03  0.34022452896E+03  0.12700000000E+01 0. -1.
<mgrwt>
<rscale>  1 0.12713734E+03</rscale>
<asrwt>0</asrwt>
<pdfrwt beam="2">  1       21 0.84846932E-01 0.12713734E+03</pdfrwt>
<pdfrwt beam="1">  1       -4 0.29978558E-02 0.12713734E+03</pdfrwt>
<totfact> 0.26552146E+04</totfact>
</mgrwt>
</event>
<event>
 6    4  0.7919556E-003  0.1285093E+03  0.7818608E-02  0.1229685E+00
         21   -1    0    0  501  502  0.00000000000E+00  0.00000000000E+00  0.13467321020E+03  0.13467321020E+03  0.00000000000E+00 0. -1.
         -4   -1    0    0    0  501 -0.00000000000E+00 -0.00000000000E+00 -0.11252279578E+03  0.11252996254E+03  0.12700000000E+01 0. -1.
         25    2    1    2    0    0 -0.13425052047E+02  0.26616986924E+02 -0.72784511072E+02  0.14768961088E+03  0.12500376032E+03 0.  0.
    9000005    1    3    3    0    0 -0.18097913234E+02  0.15354736553E+02 -0.10791040310E+03  0.11049415140E+03  0.10000000000E+01 0.  0.
    9000005    1    3    3    0    0  0.46728611866E+01  0.11262250371E+02  0.35125892023E+02  0.37195459475E+02  0.10000000000E+01 0.  0.
         -4    1    1    2    0  502  0.13425052047E+02 -0.26616986924E+02  0.94934925495E+02  0.99513561860E+02  0.12700000000E+01 0.  1.
<mgrwt>
<rscale>  1 0.12850928E+03</rscale>
<asrwt>0</asrwt>
<pdfrwt beam="1">  1       21 0.20718955E-01 0.12850928E+03</pdfrwt>
<pdfrwt beam="2">  1       -4 0.17312211E-01 0.12850928E+03</pdfrwt>
<totfact> 0.25598148E+04</totfact>
</mgrwt>
</event>
<event>
 6    4  0.7919556E-003  0.1574641E+03  0.7818608E-02  0.1191590E+00
          4   -1    0    0  502    0 -0.00000000000E+00  0.00000000000E+00  0.15601487797E+03  0.15602004694E+03  0.12700000000E+01 0. -1.
         21   -1    0    0  501  502  0.00000000000E+00 -0.00000000000E+00 -0.13521201749E+03  0.13521201749E+03  0.00000000000E+00 0.  1.
         25    2    1    2    0    0 -0.92672719794E+02  0.24047144050E+02  0.82060026519E+02  0.17756346092E+03  0.12501374553E+03 0.  0.
    9000005    1    3    3    0    0 -0.85995055644E+02 -0.70976990272E+01  0.10673802845E+03  0.13725718067E+03  0.10000000000E+01 0.  0.
    9000005    1    3    3    0    0 -0.66776641501E+01  0.31144843077E+02 -0.24678001932E+02  0.40306280257E+02  0.10000000000E+01 0.  0.
          4    1    1    2  501    0  0.92672719794E+02 -0.24047144050E+02 -0.61257166039E+02  0.11366860350E+03  0.12700000000E+01 0.  1.
<mgrwt>
<rscale>  1 0.15746407E+03</rscale>
<asrwt>0</asrwt>
<pdfrwt beam="2">  1       21 0.20801849E-01 0.15746407E+03</pdfrwt>
<pdfrwt beam="1">  1        4 0.24003145E-01 0.15746407E+03</pdfrwt>
<totfact> 0.14358527E+04</totfact>
</mgrwt>
</event>
<event>
 6    4  0.7919556E-003  0.1286295E+03  0.7818608E-02  0.1229504E+00
         -4   -1    0    0    0  501 -0.00000000000E+00  0.00000000000E+00  0.34411386248E+02  0.34434813830E+02  0.12700000000E+01 0. -1.
         21   -1    0    0  501  502  0.00000000000E+00 -0.00000000000E+00 -0.33750308586E+03  0.33750308586E+03  0.00000000000E+00 0.  1.
         25    2    1    2    0    0 -0.11183806506E+02  0.28199550877E+02 -0.90710892532E+02  0.15739766497E+03  0.12500106686E+03 0.  0.
    9000005    1    3    3    0    0 -0.39088829939E+02 -0.22316538491E+02  0.53407447315E+01  0.45337490783E+02  0.10000000000E+01 0.  0.
    9000005    1    3    3    0    0  0.27905023433E+02  0.50516089369E+02 -0.96051637263E+02  0.11206017419E+03  0.10000000000E+01 0.  0.
         -4    1    1    2    0  502  0.11183806506E+02 -0.28199550877E+02 -0.21238080708E+03  0.21454023472E+03  0.12700000000E+01 0.  1.
<mgrwt>
<rscale>  1 0.12862954E+03</rscale>
<asrwt>0</asrwt>
<pdfrwt beam="2">  1       21 0.51923549E-01 0.12862954E+03</pdfrwt>
<pdfrwt beam="1">  1       -4 0.52960456E-02 0.12862954E+03</pdfrwt>
<totfact> 0.31154669E+04</totfact>
</mgrwt>
</event>
<event>
 6    4  0.7919556E-003  0.1281840E+03  0.7818608E-02  0.1230175E+00
         21   -1    0    0  501  502  0.00000000000E+00  0.00000000000E+00  0.29831874258E+02  0.29831874258E+02  0.00000000000E+00 0.  1.
          4   -1    0    0  502    0 -0.00000000000E+00 -0.00000000000E+00 -0.48774474320E+03  0.48774639662E+03  0.12700000000E+01 0. -1.
         25    2    1    2    0    0 -0.15850267272E+02  0.23553664583E+02 -0.46965182682E+03  0.48683055357E+03  0.12500057348E+03 0.  0.
    9000005    1    3    3    0    0  0.95023157711E+01  0.68076471470E+02 -0.17999481518E+03  0.19267546150E+03  0.10000000000E+01 0.  0.
    9000005    1    3    3    0    0 -0.25352583044E+02 -0.44522806886E+02 -0.28965701164E+03  0.29415509207E+03  0.10000000000E+01 0.  0.
          4    1    1    2  501    0  0.15850267272E+02 -0.23553664583E+02  0.11738957874E+02  0.30747717312E+02  0.12700000000E+01 0.  1.
<mgrwt>
<rscale>  1 0.12818405E+03</rscale>
<asrwt>0</asrwt>
<pdfrwt beam="1">  1       21 0.45895192E-02 0.12818405E+03</pdfrwt>
<pdfrwt beam="2">  1        4 0.75039859E-01 0.12818405E+03</pdfrwt>
<totfact> 0.20572106E+04</totfact>
</mgrwt>
</event>
<event>
 6    4  0.7919556E-003  0.1306444E+03  0.7818608E-02  0.1226503E+00
         21   -1    0    0  501  502  0.00000000000E+00  0.00000000000E+00  0.77353112992E+02  0.77353112992E+02  0.00000000000E+00 0.  1.
          4   -1    0    0  502    0 -0.00000000000E+00 -0.00000000000E+00 -0.11532931796E+03  0.11533631033E+03  0.12700000000E+01 0. -1.
         25    2    1    2    0    0 -0.15045707354E+02 -0.34896155333E+02 -0.65117584805E+02  0.14597344782E+03  0.12499533052E+03 0.  0.
    9000005    1    3    3    0    0 -0.66825906846E+02 -0.40659669563E+02 -0.34170054417E+02  0.85366873982E+02  0.10000000000E+01 0.  0.
    9000005    1    3    3    0    0  0.51780199492E+02  0.57635142303E+01 -0.30947530389E+02  0.60606573842E+02  0.10000000000E+01 0.  0.
          4    1    1    2  501    0  0.15045707354E+02  0.34896155333E+02  0.27141379842E+02  0.46715975495E+02  0.12700000000E+01 0.  1.
<mgrwt>
<rscale>  1 0.13064436E+03</rscale>
<asrwt>0</asrwt>
<pdfrwt beam="1">  1       21 0.11900479E-01 0.13064436E+03</pdfrwt>
<pdfrwt beam="2">  1        4 0.17744312E-01 0.13064436E+03</pdfrwt>
<totfact> 0.67009748E+04</totfact>
</mgrwt>
</event>
<event>
 6    4  0.7919556E-003  0.1379028E+03  0.7818608E-02  0.1216179E+00
         21   -1    0    0  501  502  0.00000000000E+00  0.00000000000E+00  0.48292137176E+03  0.48292137176E+03  0.00000000000E+00 0. -1.
         -4   -1    0    0    0  501 -0.00000000000E+00 -0.00000000000E+00 -0.21893195352E+02  0.21930000062E+02  0.12700000000E+01 0. -1.
         25    2    1    2    0    0  0.47778137007E+02  0.33308349227E+02  0.24540926691E+03  0.28150114563E+03  0.12499996082E+03 0.  0.
    9000005    1    3    3    0    0 -0.17967344034E+02  0.39399280523E+02  0.19126130317E+03  0.19610460180E+03  0.10000000000E+01 0.  0.
    9000005    1    3    3    0    0  0.65745481041E+02 -0.60909312963E+01  0.54147963736E+02  0.85396543830E+02  0.10000000000E+01 0.  0.
         -4    1    1    2    0  502 -0.47778137007E+02 -0.33308349227E+02  0.21561890950E+03  0.22335022618E+03  0.12700000000E+01 0.  1.
<mgrwt>
<rscale>  1 0.13790282E+03</rscale>
<asrwt>0</asrwt>
<pdfrwt beam="1">  1       21 0.74295588E-01 0.13790282E+03</pdfrwt>
<pdfrwt beam="2">  1       -4 0.33711438E-02 0.13790282E+03</pdfrwt>
<totfact> 0.29921871E+04</totfact>
</mgrwt>
</event>
<event>
 6    4  0.7919556E-003  0.1272387E+03  0.7818608E-02  0.1231612E+00
          4   -1    0    0  502    0 -0.00000000000E+00  0.00000000000E+00  0.14849669579E+02  0.14903878240E+02  0.12700000000E+01 0. -1.
         21   -1    0    0  501  502  0.00000000000E+00 -0.00000000000E+00 -0.42888104440E+03  0.42888104440E+03  0.00000000000E+00 0. -1.
         25    2    1    2    0    0  0.23026768252E+02 -0.58790088618E+01 -0.27862655944E+03  0.30630448138E+03  0.12499952354E+03 0.  0.
    9000005    1    3    3    0    0  0.24971488594E+01  0.16447289457E+02 -0.27526838478E+03  0.27577242927E+03  0.10000000000E+01 0.  0.
    9000005    1    3    3    0    0  0.20529619393E+02 -0.22326298318E+02 -0.33581746563E+01  0.30532052110E+02  0.10000000000E+01 0.  0.
          4    1    1    2  501    0 -0.23026768252E+02  0.58790088618E+01 -0.13540481538E+03  0.13748044127E+03  0.12700000000E+01 0.  1.
<mgrwt>
<rscale>  1 0.12723866E+03</rscale>
<asrwt>0</asrwt>
<pdfrwt beam="2">  1       21 0.65981699E-01 0.12723866E+03</pdfrwt>
<pdfrwt beam="1">  1        4 0.22888791E-02 0.12723866E+03</pdfrwt>
<totfact> 0.70362364E+04</totfact>
</mgrwt>
</event>
<event>
 6    4  0.7919556E-003  0.1333562E+03  0.7818608E-02  0.1222559E+00
         -4   -1    0    0    0  501 -0.00000000000E+00  0.00000000000E+00  0.99707239365E+02  0.99715327216E+02  0.12700000000E+01 0. -1.
         21   -1    0    0  501  502  0.00000000000E+00 -0.00000000000E+00 -0.90744288038E+02  0.90744288038E+02  0.00000000000E+00 0.  1.
         25    2    1    2    0    0 -0.41573545543E+02 -0.20969300980E+02  0.33937551255E+02  0.13760684982E+03  0.12496326044E+03 0.  0.
    9000005    1    3    3    0    0 -0.50430769642E+02  0.42195209457E+02  0.89923394240E+00  0.65768585582E+02  0.10000000000E+01 0.  0.
    9000005    1    3    3    0    0  0.88572240989E+01 -0.63164510437E+02  0.33038317313E+02  0.71838264235E+02  0.10000000000E+01 0.  0.
         -4    1    1    2    0  502  0.41573545543E+02  0.20969300980E+02 -0.24974599929E+02  0.52852765436E+02  0.12700000000E+01 0.  1.
<mgrwt>
<rscale>  1 0.13335624E+03</rscale>
<asrwt>0</asrwt>
<pdfrwt beam="2">  1       21 0.13960660E-01 0.13335624E+03</pdfrwt>
<pdfrwt beam="1">  1       -4 0.15340881E-01 0.13335624E+03</pdfrwt>
<totfact> 0.65319108E+04</totfact>
</mgrwt>
</event>
<event>
 6    4  0.7919556E-003  0.1276562E+03  0.7818608E-02  0.1230976E+00
         21   -1    0    0  501  502  0.00000000000E+00  0.00000000000E+00  0.45108189817E+03  0.45108189817E+03  0.00000000000E+00 0. -1.
         -4   -1    0    0    0  501 -0.00000000000E+00 -0.00000000000E+00 -0.47274536501E+02  0.47291592290E+02  0.12700000000E+01 0.  1.
         25    2    1    2    0    0  0.16469943194E+02  0.19990084932E+02  0.40190959240E+02  0.13383355638E+03  0.12500098033E+03 0.  0.
    9000005    1    3    3    0    0 -0.37180777787E+02 -0.24208451522E+02  0.46191966994E+02  0.64055891038E+02  0.10000000000E+01 0.  0.
    9000005    1    3    3    0    0  0.53650720981E+02  0.44198536454E+02 -0.60010077536E+01  0.69777665341E+02  0.10000000000E+01 0.  0.
         -4    1    1    2    0  502 -0.16469943194E+02 -0.19990084932E+02  0.36361640243E+03  0.36453993408E+03  0.12700000000E+01 0. -1.
<mgrwt>
<rscale>  1 0.12765621E+03</rscale>
<asrwt>0</asrwt>
<pdfrwt beam="1">  1       21 0.69397212E-01 0.12765621E+03</pdfrwt>
<pdfrwt beam="2">  1       -4 0.72744554E-02 0.12765621E+03</pdfrwt>
<totfact> 0.10032073E+04</totfact>
</mgrwt>
</event>
<event>
 6    4  0.7919556E-003  0.1283135E+03  0.7818608E-02  0.1229980E+00
         21   -1    0    0  501  502  0.00000000000E+00  0.00000000000E+00  0.34608986056E+03  0.34608986056E+03  0.00000000000E+00 0.  1.
         -4   -1    0    0    0  501 -0.00000000000E+00 -0.00000000000E+00 -0.18007494006E+02  0.18052222588E+02  0.12700000000E+01 0.  1.
         25    2    1    2    0    0  0.16578743843E+01  0.28921662277E+02  0.27985204441E+03  0.30786608497E+03  0.12500059368E+03 0.  0.
    9000005    1    3    3    0    0  0.47695669475E+01  0.33499123429E+02  0.65172042156E+01  0.34473380892E+02  0.10000000000E+01 0.  0.
    9000005    1    3    3    0    0 -0.31116925632E+01 -0.45774611522E+01  0.27333484019E+03  0.27339270408E+03  0.10000000000E+01 0.  0.
         -4    1    1    2    0  502 -0.16578743843E+01 -0.28921662277E+02  0.48230322143E+02  0.56275998172E+02  0.12700000000E+01 0. -1.
<mgrwt>
<rscale>  1 0.12831352E+03</rscale>
<asrwt>0</asrwt>
<pdfrwt beam="1">  1       21 0.53244589E-01 0.12831352E+03</pdfrwt>
<pdfrwt beam="2">  1       -4 0.27740039E-02 0.12831352E+03</pdfrwt>
<totfact> 0.82324048E+04</totfact>
</mgrwt>
</event>
<event>
 6    4  0.7919556E-003  0.1281279E+03  0.7818608E-02  0.1230260E+00
         21   -1    0    0  501  502  0.00000000000E+00  0.00000000000E+00  0.23237027670E+03  0.23237027670E+03  0.00000000000E+00 0.  1.
          4   -1    0    0  502    0 -0.00000000000E+00 -0.00000000000E+00 -0.51867247560E+02  0.51882793578E+02  0.12700000000E+01 0.  1.
         25    2    1    2    0    0 -0.25444307154E+01 -0.28023553603E+02  0.30606122940E+02  0.13173261567E+03  0.12499981435E+03 0.  0.
    9000005    1    3    3    0    0  0.47147309305E+01 -0.75583778501E+02  0.20269266338E+01  0.75764402537E+02  0.10000000000E+01 0.  0.
    9000005    1    3    3    0    0 -0.72591616458E+01  0.47560224898E+02  0.28579196306E+02  0.55968213136E+02  0.10000000000E+01 0.  0.
          4    1    1    2  501    0  0.25444307154E+01  0.28023553603E+02  0.14989690620E+03  0.15252045460E+03  0.12700000000E+01 0. -1.
<mgrwt>
<rscale>  1 0.12812786E+03</rscale>
<asrwt>0</asrwt>
<pdfrwt beam="1">  1       21 0.35749273E-01 0.12812786E+03</pdfrwt>
<pdfrwt beam="2">  1        4 0.79810395E-02 0.12812786E+03</pdfrwt>
<totfact> 0.33893848E+04</totfact>
</mgrwt>
</event>
<event>
 6    4  0.7919556E-003  0.1302841E+03  0.7818608E-02  0.1227035E+00
          4   -1    0    0  502    0 -0.00000000000E+00  0.00000000000E+00  0.19430229839E+03  0.19430644884E+03  0.12700000000E+01 0.  1.
         21   -1    0    0  501  502  0.00000000000E+00 -0.00000000000E+00 -0.35895668887E+02  0.35895668887E+02  0.00000000000E+00 0. -1.
         25    2    1    2    0    0  0.24726527108E+02 -0.27150605791E+02  0.12431456581E+03  0.18007788960E+03  0.12500151405E+03 0.  0.
    9000005    1    3    3    0    0  0.46810081248E+01  0.35169039463E+02 -0.43050075491E+01  0.35753409121E+02  0.10000000000E+01 0.  0.
    9000005    1    3    3    0    0  0.20045518983E+02 -0.62319645254E+02  0.12861957336E+03  0.14432448048E+03  0.10000000000E+01 0.  0.
          4    1    1    2  501    0 -0.24726527108E+02  0.27150605791E+02  0.34092063693E+02  0.50124228119E+02  0.12700000000E+01 0. -1.
<mgrwt>
<rscale>  1 0.13028406E+03</rscale>
<asrwt>0</asrwt>
<pdfrwt beam="2">  1       21 0.55224107E-02 0.13028406E+03</pdfrwt>
<pdfrwt beam="1">  1        4 0.29894708E-01 0.13028406E+03</pdfrwt>
<totfact> 0.97237580E+04</totfact>
</mgrwt>
</event>
<event>
 6    4  0.7919556E-003  0.1372741E+03  0.7818608E-02  0.1217045E+00
         21   -1    0    0  501  502  0.00000000000E+00  0.00000000000E+00  0.27235217280E+02  0.27235217280E+02  0.00000000000E+00 0.  1.
         -4   -1    0    0    0  501 -0.00000000000E+00 -0.00000000000E+00 -0.35505141181E+03  0.35505368317E+03  0.12700000000E+01 0.  1.
         25    2    1    2    0    0 -0.56720954875E+02  0.12528665108E+01 -0.25865690132E+03  0.29282685746E+03  0.12500135782E+03 0.  0.
    9000005    1    3    3    0    0 -0.90828167145E+02  0.23382485869E+02 -0.15118086413E+03  0.17791332235E+03  0.10000000000E+01 0.  0.
    9000005    1    3    3    0    0  0.34107212270E+02 -0.22129619358E+02 -0.10747603719E+03  0.11491353511E+03  0.10000000000E+01 0.  0.
         -4    1    1    2    0  502  0.56720954875E+02 -0.12528665108E+01 -0.69159293215E+02  0.89462042982E+02  0.12700000000E+01 0. -1.
<mgrwt>
<rscale>  1 0.13727409E+03</rscale>
<asrwt>0</asrwt>
<pdfrwt beam="1">  1       21 0.41900338E-02 0.13727409E+03</pdfrwt>
<pdfrwt beam="2">  1       -4 0.54625742E-01 0.13727409E+03</pdfrwt>
<totfact> 0.47385195E+04</totfact>
</mgrwt>
</event>
<event>
 6    4  0.7919556E-003  0.1279160E+03  0.7818608E-02  0.1230581E+00
         -4   -1    0    0    0  501 -0.00000000000E+00  0.00000000000E+00  0.98048595452E+02  0.98056820110E+02  0.12700000000E+01 0. -1.
         21   -1    0    0  501  502  0.00000000000E+00 -0.00000000000E+00 -0.61606963977E+02  0.61606963977E+02  0.00000000000E+00 0. -1.
         25    2    1    2    0    0 -0.27192342480E+02  0.13154580017E+01  0.33646217574E+02  0.13226704782E+03  0.12498539940E+03 0.  0.
    9000005    1    3    3    0    0  0.37203474138E+02  0.28076804671E+02 -0.12957240933E+02  0.48386935644E+02  0.10000000000E+01 0.  0.
    9000005    1    3    3    0    0 -0.64395816618E+02 -0.26761346669E+02  0.46603458507E+02  0.83880112174E+02  0.10000000000E+01 0.  0.
         -4    1    1    2    0  502  0.27192342480E+02 -0.13154580017E+01  0.27954139010E+01  0.27396736269E+02  0.12700000000E+01 0.  1.
<mgrwt>
<rscale>  1 0.12791600E+03</rscale>
<asrwt>0</asrwt>
<pdfrwt beam="2">  1       21 0.94779945E-02 0.12791600E+03</pdfrwt>
<pdfrwt beam="1">  1       -4 0.15086039E-01 0.12791600E+03</pdfrwt>
<totfact> 0.13258189E+05</totfact>
</mgrwt>
</event>
<event>
 6    4  0.7919556E-003  0.1431703E+03  0.7818608E-02  0.1209126E+00
          4   -1    0    0  502    0 -0.00000000000E+00  0.00000000000E+00  0.42844715762E+03  0.42844903988E+03  0.12700000000E+01 0.  1.
         21   -1    0    0  501  502  0.00000000000E+00 -0.00000000000E+00 -0.35115157168E+02  0.35115157168E+02  0.00000000000E+00 0. -1.
         25    2    1    2    0    0  0.41686445465E+02 -0.55945021233E+02  0.35754161564E+03  0.38514117950E+03  0.12502046271E+03 0.  0.
    9000005    1    3    3    0    0  0.24536087089E+02 -0.27048860793E+02  0.12719035998E+02  0.38683773298E+02  0.10000000000E+01 0.  0.
    9000005    1    3    3    0    0  0.17150358376E+02 -0.28896160440E+02  0.34482257964E+03  0.34645740620E+03  0.10000000000E+01 0.  0.
          4    1    1    2  501    0 -0.41686445465E+02  0.55945021233E+02  0.35790384812E+02  0.78423017547E+02  0.12700000000E+01 0. -1.
<mgrwt>
<rscale>  1 0.14317025E+03</rscale>
<asrwt>0</asrwt>
<pdfrwt beam="2">  1       21 0.54023322E-02 0.14317025E+03</pdfrwt>
<pdfrwt beam="1">  1        4 0.65916855E-01 0.14317025E+03</pdfrwt>
<totfact> 0.20938014E+04</totfact>
</mgrwt>
</event>
<event>
 6    4  0.7919556E-003  0.1277646E+03  0.7818608E-02  0.1230811E+00
         21   -1    0    0  501  502  0.00000000000E+00  0.00000000000E+00  0.65696378152E+03  0.65696378152E+03  0.00000000000E+00 0.  1.
         -4   -1    0    0    0  501 -0.00000000000E+00 -0.00000000000E+00 -0.91797346234E+01  0.92671693497E+01  0.12700000000E+01 0.  1.
         25    2    1    2    0    0 -0.21743795820E+01 -0.26361843327E+02  0.56701908865E+03  0.58123526809E+03  0.12499646103E+03 0.  0.
    9000005    1    3    3    0    0  0.21959277932E+02 -0.57689675416E+02  0.14809517359E+03  0.16044777648E+03  0.10000000000E+01 0.  0.
    9000005    1    3    3    0    0 -0.24133657513E+02  0.31327832089E+02  0.41892391505E+03  0.42078749160E+03  0.10000000000E+01 0.  0.
         -4    1    1    2    0  502  0.21743795820E+01  0.26361843327E+02  0.80764958248E+02  0.84995682778E+02  0.12700000000E+01 0. -1.
<mgrwt>
<rscale>  1 0.12776459E+03</rscale>
<asrwt>0</asrwt>
<pdfrwt beam="1">  1       21 0.10107131E+00 0.12776459E+03</pdfrwt>
<pdfrwt beam="2">  1       -4 0.14190876E-02 0.12776459E+03</pdfrwt>
<totfact> 0.56232004E+04</totfact>
</mgrwt>
</event>
<event>
 6    4  0.7919556E-003  0.1400915E+03  0.7818608E-02  0.1213206E+00
          4   -1    0    0  502    0 -0.00000000000E+00  0.00000000000E+00  0.39911082625E+02  0.39931283679E+02  0.12700000000E+01 0. -1.
         21   -1    0    0  501  502  0.00000000000E+00 -0.00000000000E+00 -0.38728466945E+03  0.38728466945E+03  0.00000000000E+00 0.  1.
         25    2    1    2    0    0  0.19239499450E+02  0.60281328593E+02 -0.10063791793E+03  0.17249237723E+03  0.12498653031E+03 0.  0.
    9000005    1    3    3    0    0  0.12060606190E+02  0.78040183996E+02 -0.97150060208E+01  0.79568271829E+02  0.10000000000E+01 0.  0.
    9000005    1    3    3    0    0  0.71788932601E+01 -0.17758855404E+02 -0.90922911912E+02  0.92924105400E+02  0.10000000000E+01 0.  0.
          4    1    1    2  501    0 -0.19239499450E+02 -0.60281328593E+02 -0.24673566889E+03  0.25472357590E+03  0.12700000000E+01 0.  1.
<mgrwt>
<rscale>  1 0.14009150E+03</rscale>
<asrwt>0</asrwt>
<pdfrwt beam="2">  1       21 0.59582259E-01 0.14009150E+03</pdfrwt>
<pdfrwt beam="1">  1        4 0.61418804E-02 0.14009150E+03</pdfrwt>
<totfact> 0.18499898E+04</totfact>
</mgrwt>
</event>
<event>
 6    4  0.7919556E-003  0.1267320E+03  0.7818608E-02  0.1232387E+00
          4   -1    0    0  502    0 -0.00000000000E+00  0.00000000000E+00  0.16886547610E+03  0.16887025172E+03  0.12700000000E+01 0.  1.
         21   -1    0    0  501  502  0.00000000000E+00 -0.00000000000E+00 -0.42217579273E+02  0.42217579273E+02  0.00000000000E+00 0.  1.
         25    2    1    2    0    0 -0.18062431251E+02 -0.10540245222E+02  0.13791360564E+03  0.18729965563E+03  0.12499460064E+03 0.  0.
    9000005    1    3    3    0    0  0.21696614495E+02 -0.35973199285E+02  0.13341648928E+03  0.13987771001E+03  0.10000000000E+01 0.  0.
    9000005    1    3    3    0    0 -0.39759045745E+02  0.25432954063E+02  0.44971163620E+01  0.47421945622E+02  0.10000000000E+01 0.  0.
          4    1    1    2  501    0  0.18062431251E+02  0.10540245222E+02 -0.11265708815E+02  0.23788175363E+02  0.12700000000E+01 0. -1.
<mgrwt>
<rscale>  1 0.12673199E+03</rscale>
<asrwt>0</asrwt>
<pdfrwt beam="2">  1       21 0.64950123E-02 0.12673199E+03</pdfrwt>
<pdfrwt beam="1">  1        4 0.25981140E-01 0.12673199E+03</pdfrwt>
<totfact> 0.95624477E+04</totfact>
</mgrwt>
</event>
<event>
 6    4  0.7919556E-003  0.1273272E+03  0.7818608E-02  0.1231476E+00
         -4   -1    0    0    0  501 -0.00000000000E+00  0.00000000000E+00  0.67396110318E+02  0.67408075080E+02  0.12700000000E+01 0. -1.
         21   -1    0    0  501  502  0.00000000000E+00 -0.00000000000E+00 -0.12434908829E+03  0.12434908829E+03  0.00000000000E+00 0.  1.
         25    2    1    2    0    0 -0.21012640282E+02  0.12059755148E+02  0.27038546800E+01  0.12735592636E+03  0.12500100961E+03 0.  0.
    9000005    1    3    3    0    0 -0.38766264343E+02  0.53290832796E+02  0.32482436300E+02  0.73476831581E+02  0.10000000000E+01 0.  0.
    9000005    1    3    3    0    0  0.17753624061E+02 -0.41231077648E+02 -0.29778581620E+02  0.53879094783E+02  0.10000000000E+01 0.  0.
         -4    1    1    2    0  502  0.21012640282E+02 -0.12059755148E+02 -0.59656832649E+02  0.64401237003E+02  0.12700000000E+01 0.  1.
<mgrwt>
<rscale>  1 0.12732722E+03</rscale>
<asrwt>0</asrwt>
<pdfrwt beam="2">  1       21 0.19130629E-01 0.12732722E+03</pdfrwt>
<pdfrwt beam="1">  1       -4 0.10370052E-01 0.12732722E+03</pdfrwt>
<totfact> 0.71773601E+04</totfact>
</mgrwt>
</event>
<event>
 6    4  0.7919556E-003  0.1275675E+03  0.7818608E-02  0.1231110E+00
          4   -1    0    0  502    0 -0.00000000000E+00  0.00000000000E+00  0.82179997726E+02  0.82189810355E+02  0.12700000000E+01 0.  1.
         21   -1    0    0  501  502  0.00000000000E+00 -0.00000000000E+00 -0.17757257645E+03  0.17757257645E+03  0.00000000000E+00 0. -1.
         25    2    1    2    0    0  0.25255949477E+02 -0.32965078612E+01  0.30623563644E+02  0.13119174091E+03  0.12499896114E+03 0.  0.
    9000005    1    3    3    0    0 -0.36967844339E+02 -0.26397173706E+02  0.44253793351E+02  0.63425787505E+02  0.10000000000E+01 0.  0.
    9000005    1    3    3    0    0  0.62223793815E+02  0.23100665845E+02 -0.13630229706E+02  0.67765953407E+02  0.10000000000E+01 0.  0.
          4    1    1    2  501    0 -0.25255949477E+02  0.32965078612E+01 -0.12601614236E+03  0.12857064589E+03  0.12700000000E+01 0. -1.
<mgrwt>
<rscale>  1 0.12756751E+03</rscale>
<asrwt>0</asrwt>
<pdfrwt beam="2">  1       21 0.27318857E-01 0.12756751E+03</pdfrwt>
<pdfrwt beam="1">  1        4 0.12644181E-01 0.12756751E+03</pdfrwt>
<totfact> 0.26288823E+04</totfact>
</mgrwt>
</event>
<event>
 6    4  0.7919556E-003  0.1271053E+03  0.7818608E-02  0.1231815E+00
         -4   -1    0    0    0  501 -0.00000000000E+00  0.00000000000E+00  0.42304804203E+02  0.42323862757E+02  0.12700000000E+01 0.  1.
         21   -1    0    0  501  502  0.00000000000E+00 -0.00000000000E+00 -0.13324918595E+03  0.13324918595E+03  0.00000000000E+00 0.  1.
         25    2    1    2    0    0  0.18006818158E+02  0.14373255316E+02 -0.76562751091E+02  0.14838334167E+03  0.12499970105E+03 0.  0.
    9000005    1    3    3    0    0 -0.48774892663E+02  0.13483988118E+02 -0.61969478646E+02  0.80012651334E+02  0.10000000000E+01 0.  0.
    9000005    1    3    3    0    0  0.66781710820E+02  0.88926719792E+00 -0.14593272445E+02  0.68370690335E+02  0.10000000000E+01 0.  0.
         -4    1    1    2    0  502 -0.18006818158E+02 -0.14373255316E+02 -0.14381630657E+02  0.27189707040E+02  0.12700000000E+01 0. -1.
<mgrwt>
<rscale>  1 0.12710532E+03</rscale>
<asrwt>0</asrwt>
<pdfrwt beam="2">  1       21 0.20499875E-01 0.12710532E+03</pdfrwt>
<pdfrwt beam="1">  1       -4 0.65103630E-02 0.12710532E+03</pdfrwt>
<totfact> 0.13667225E+05</totfact>
</mgrwt>
</event>
<event>
 6    4  0.7919556E-003  0.1271103E+03  0.7818608E-02  0.1231808E+00
         21   -1    0    0  501  502  0.00000000000E+00  0.00000000000E+00  0.23824404699E+03  0.23824404699E+03  0.00000000000E+00 0.  1.
          4   -1    0    0  502    0 -0.00000000000E+00 -0.00000000000E+00 -0.44006006426E+02  0.44024328519E+02  0.12700000000E+01 0. -1.
         25    2    1    2    0    0  0.22977922807E+02 -0.15269301239E+01  0.50634039700E+02  0.13682409609E+03  0.12500684318E+03 0.  0.
    9000005    1    3    3    0    0 -0.30272366297E+02 -0.20773761866E+01 -0.28363724961E+02  0.41547954784E+02  0.10000000000E+01 0.  0.
    9000005    1    3    3    0    0  0.53250289103E+02  0.55044606263E+00  0.78997764662E+02  0.95276141305E+02  0.10000000000E+01 0.  0.
          4    1    1    2  501    0 -0.22977922807E+02  0.15269301239E+01  0.14360400087E+03  0.14544427942E+03  0.12700000000E+01 0.  1.
<mgrwt>
<rscale>  1 0.12711030E+03</rscale>
<asrwt>0</asrwt>
<pdfrwt beam="1">  1       21 0.36652929E-01 0.12711030E+03</pdfrwt>
<pdfrwt beam="2">  1        4 0.67718248E-02 0.12711030E+03</pdfrwt>
<totfact> 0.42240661E+04</totfact>
</mgrwt>
</event>
<event>
 6    4  0.7919556E-003  0.1357511E+03  0.7818608E-02  0.1219163E+00
         21   -1    0    0  501  502  0.00000000000E+00  0.00000000000E+00  0.87268892046E+02  0.87268892046E+02  0.00000000000E+00 0. -1.
          4   -1    0    0  502    0 -0.00000000000E+00 -0.00000000000E+00 -0.10623583796E+03  0.10624342882E+03  0.12700000000E+01 0. -1.
         25    2    1    2    0    0 -0.10177026058E+02  0.51939326060E+02 -0.30941722841E+02  0.13923273324E+03  0.12500839308E+03 0.  0.
    9000005    1    3    3    0    0  0.20094483986E+02  0.48925412203E+02 -0.71238641467E+02  0.88732340688E+02  0.10000000000E+01 0.  0.
    9000005    1    3    3    0    0 -0.30271510044E+02  0.30139138576E+01  0.40296918626E+02  0.50500392551E+02  0.10000000000E+01 0.  0.
          4    1    1    2  501    0  0.10177026058E+02 -0.51939326060E+02  0.11974776922E+02  0.54279587630E+02  0.12700000000E+01 0.  1.
<mgrwt>
<rscale>  1 0.13575111E+03</rscale>
<asrwt>0</asrwt>
<pdfrwt beam="1">  1       21 0.13425983E-01 0.13575111E+03</pdfrwt>
<pdfrwt beam="2">  1        4 0.16345270E-01 0.13575111E+03</pdfrwt>
<totfact> 0.62811588E+04</totfact>
</mgrwt>
</event>
<event>
 6    4  0.7919556E-003  0.1279413E+03  0.7818608E-02  0.1230543E+00
         21   -1    0    0  501  502  0.00000000000E+00  0.00000000000E+00  0.90081501665E+02  0.90081501665E+02  0.00000000000E+00 0.  1.
          4   -1    0    0  502    0 -0.00000000000E+00 -0.00000000000E+00 -0.33433010017E+03  0.33433251230E+03  0.12700000000E+01 0. -1.
         25    2    1    2    0    0  0.52228307775E+00 -0.27256613898E+02 -0.31960816772E+03  0.34426494439E+03  0.12500310109E+03 0.  0.
    9000005    1    3    3    0    0  0.16772589161E+02 -0.15547654124E+02 -0.32309916986E+03  0.32390912747E+03  0.10000000000E+01 0.  0.
    9000005    1    3    3    0    0 -0.16250306084E+02 -0.11708959774E+02  0.34910021328E+01  0.20355816925E+02  0.10000000000E+01 0.  0.
          4    1    1    2  501    0 -0.52228307775E+00  0.27256613898E+02  0.75359569215E+02  0.80149069571E+02  0.12700000000E+01 0.  1.
<mgrwt>
<rscale>  1 0.12794128E+03</rscale>
<asrwt>0</asrwt>
<pdfrwt beam="1">  1       21 0.13858693E-01 0.12794128E+03</pdfrwt>
<pdfrwt beam="2">  1        4 0.51436273E-01 0.12794128E+03</pdfrwt>
<totfact> 0.67755526E+03</totfact>
</mgrwt>
</event>
<event>
 6    4  0.7919556E-003  0.1289068E+03  0.7818608E-02  0.1229087E+00
         21   -1    0    0  501  502  0.00000000000E+00  0.00000000000E+00  0.28910303371E+02  0.28910303371E+02  0.00000000000E+00 0.  1.
          4   -1    0    0  502    0 -0.00000000000E+00 -0.00000000000E+00 -0.22340507259E+03  0.22340868237E+03  0.12700000000E+01 0.  1.
         25    2    1    2    0    0  0.19362343705E+02 -0.24799402923E+02 -0.16260829462E+03  0.20750525011E+03  0.12500824215E+03 0.  0.
    9000005    1    3    3    0    0  0.66876437292E+02 -0.30361360972E+02 -0.13091077374E+03  0.15010962922E+03  0.10000000000E+01 0.  0.
    9000005    1    3    3    0    0 -0.47514093587E+02  0.55619580492E+01 -0.31697520883E+02  0.57395620885E+02  0.10000000000E+01 0.  0.
          4    1    1    2  501    0 -0.19362343705E+02  0.24799402923E+02 -0.31886474597E+02  0.44813735632E+02  0.12700000000E+01 0. -1.
<mgrwt>
<rscale>  1 0.12890683E+03</rscale>
<asrwt>0</asrwt>
<pdfrwt beam="1">  1       21 0.44477391E-02 0.12890683E+03</pdfrwt>
<pdfrwt beam="2">  1        4 0.34372434E-01 0.12890683E+03</pdfrwt>
<totfact> 0.10702666E+05</totfact>
</mgrwt>
</event>
<event>
 6    4  0.7919556E-003  0.1268096E+03  0.7818608E-02  0.1232268E+00
          4   -1    0    0  502    0 -0.00000000000E+00  0.00000000000E+00  0.48717361716E+03  0.48717527252E+03  0.12700000000E+01 0. -1.
         21   -1    0    0  501  502  0.00000000000E+00 -0.00000000000E+00 -0.11308115693E+02  0.11308115693E+02  0.00000000000E+00 0. -1.
         25    2    1    2    0    0  0.18586366499E+02  0.10361538016E+02  0.41822485809E+03  0.43702713419E+03  0.12501147789E+03 0.  0.
    9000005    1    3    3    0    0 -0.17717918609E+02 -0.26208348417E+02  0.35047517542E+03  0.35190147876E+03  0.10000000000E+01 0.  0.
    9000005    1    3    3    0    0  0.36304285108E+02  0.36569886433E+02  0.67749682671E+02  0.85125655433E+02  0.10000000000E+01 0.  0.
          4    1    1    2  501    0 -0.18586366499E+02 -0.10361538016E+02  0.57640643370E+02  0.61456254017E+02  0.12700000000E+01 0.  1.
<mgrwt>
<rscale>  1 0.12680964E+03</rscale>
<asrwt>0</asrwt>
<pdfrwt beam="2">  1       21 0.17397105E-02 0.12680964E+03</pdfrwt>
<pdfrwt beam="1">  1        4 0.74955384E-01 0.12680964E+03</pdfrwt>
<totfact> 0.10071627E+05</totfact>
</mgrwt>
</event>
<event>
 6    4  0.7919556E-003  0.1313046E+03  0.7818608E-02  0.1225533E+00
          4   -1    0    0  502    0 -0.00000000000E+00  0.00000000000E+00  0.18802103495E+03  0.18802532405E+03  0.12700000000E+01 0.  1.
         21   -1    0    0  501  502  0.00000000000E+00 -0.00000000000E+00 -0.45555915709E+02  0.45555915709E+02  0.00000000000E+00 0.  1.
         25    2    1    2    0    0 -0.72557855953E+01 -0.39537038909E+02  0.14194138711E+03  0.19336046073E+03  0.12500034611E+03 0.  0.
    9000005    1    3    3    0    0  0.17646730673E+02  0.33388358818E+02  0.76769514923E+01  0.38550294321E+02  0.10000000000E+01 0.  0.
    9000005    1    3    3    0    0 -0.24902516268E+02 -0.72925397727E+02  0.13426443562E+03  0.15481016641E+03  0.10000000000E+01 0.  0.
          4    1    1    2  501    0  0.72557855953E+01  0.39537038909E+02  0.52373212440E+00  0.40220779028E+02  0.12700000000E+01 0. -1.
<mgrwt>
<rscale>  1 0.13130465E+03</rscale>
<asrwt>0</asrwt>
<pdfrwt beam="2">  1       21 0.70086025E-02 0.13130465E+03</pdfrwt>
<pdfrwt beam="1">  1        4 0.28928004E-01 0.13130465E+03</pdfrwt>
<totfact> 0.69066351E+04</totfact>
</mgrwt>
</event>
<event>
 6    4  0.7919556E-003  0.1495762E+03  0.7818608E-02  0.1200995E+00
         21   -1    0    0  501  502  0.00000000000E+00  0.00000000000E+00  0.99193377616E+02  0.99193377616E+02  0.00000000000E+00 0. -1.
         -4   -1    0    0    0  501 -0.00000000000E+00 -0.00000000000E+00 -0.15910951242E+03  0.15911458086E+03  0.12700000000E+01 0.  1.
         25    2    1    2    0    0  0.65205276869E+02  0.49929590809E+02 -0.85489177285E+02  0.17228304597E+03  0.12501342458E+03 0.  0.
    9000005    1    3    3    0    0  0.76866504844E+02  0.40490684455E+02 -0.14370090603E+01  0.86896605743E+02  0.10000000000E+01 0.  0.
    9000005    1    3    3    0    0 -0.11661227975E+02  0.94389063541E+01 -0.84052168225E+02  0.85386440225E+02  0.10000000000E+01 0.  0.
         -4    1    1    2    0  502 -0.65205276869E+02 -0.49929590809E+02  0.25573042483E+02  0.86024912507E+02  0.12700000000E+01 0. -1.
<mgrwt>
<rscale>  1 0.14957623E+03</rscale>
<asrwt>0</asrwt>
<pdfrwt beam="1">  1       21 0.15260520E-01 0.14957623E+03</pdfrwt>
<pdfrwt beam="2">  1       -4 0.24479402E-01 0.14957623E+03</pdfrwt>
<totfact> 0.24352533E+04</totfact>
</mgrwt>
</event>
<event>
 6    4  0.7919556E-003  0.1299064E+03  0.7818608E-02  0.1227595E+00
         21   -1    0    0  501  502  0.00000000000E+00  0.00000000000E+00  0.77922243837E+01  0.77922243837E+01  0.00000000000E+00 0. -1.
          4   -1    0    0  502    0 -0.00000000000E+00 -0.00000000000E+00 -0.89994510783E+03  0.89994600394E+03  0.12700000000E+01 0. -1.
         25    2    1    2    0    0 -0.33709901040E+02  0.10722561776E+02 -0.63419543423E+03  0.64736351898E+03  0.12499738457E+03 0.  0.
    9000005    1    3    3    0    0 -0.75428249083E+02  0.62418149569E+01 -0.52413204510E+03  0.52956943050E+03  0.10000000000E+01 0.  0.
    9000005    1    3    3    0    0  0.41718348043E+02  0.44807468190E+01 -0.11006338913E+03  0.11779408849E+03  0.10000000000E+01 0.  0.
          4    1    1    2  501    0  0.33709901040E+02 -0.10722561776E+02 -0.25795744921E+03  0.26037470934E+03  0.12700000000E+01 0.  1.
<mgrwt>
<rscale>  1 0.12990642E+03</rscale>
<asrwt>0</asrwt>
<pdfrwt beam="1">  1       21 0.11988039E-02 0.12990642E+03</pdfrwt>
<pdfrwt beam="2">  1        4 0.13846110E+00 0.12990642E+03</pdfrwt>
<totfact> 0.44041935E+04</totfact>
</mgrwt>
</event>
<event>
 6    4  0.7919556E-003  0.1272354E+03  0.7818608E-02  0.1231617E+00
          4   -1    0    0  502    0 -0.00000000000E+00  0.00000000000E+00  0.25215868940E+03  0.25216188756E+03  0.12700000000E+01 0. -1.
         21   -1    0    0  501  502  0.00000000000E+00 -0.00000000000E+00 -0.44260912813E+02  0.44260912813E+02  0.00000000000E+00 0.  1.
         25    2    1    2    0    0  0.19810849663E+01  0.23695085257E+02  0.23069603094E+03  0.26345683209E+03  0.12499384753E+03 0.  0.
    9000005    1    3    3    0    0 -0.55963336251E+02  0.29083358829E+02  0.79760673177E+02  0.10168825768E+03  0.10000000000E+01 0.  0.
    9000005    1    3    3    0    0  0.57944421218E+02 -0.53882735722E+01  0.15093535777E+03  0.16176857441E+03  0.10000000000E+01 0.  0.
          4    1    1    2  501    0 -0.19810849663E+01 -0.23695085257E+02 -0.22798254358E+02  0.32965968282E+02  0.12700000000E+01 0.  1.
<mgrwt>
<rscale>  1 0.12723539E+03</rscale>
<asrwt>0</asrwt>
<pdfrwt beam="2">  1       21 0.68093713E-02 0.12723539E+03</pdfrwt>
<pdfrwt beam="1">  1        4 0.38795291E-01 0.12723539E+03</pdfrwt>
<totfact> 0.41167071E+04</totfact>
</mgrwt>
</event>
<event>
 6    4  0.7919556E-003  0.1328786E+03  0.7818608E-02  0.1223246E+00
         21   -1    0    0  501  502  0.00000000000E+00  0.00000000000E+00  0.30961319651E+03  0.30961319651E+03  0.00000000000E+00 0.  1.
          4   -1    0    0  502    0 -0.00000000000E+00 -0.00000000000E+00 -0.27773634321E+02  0.27802655689E+02  0.12700000000E+01 0.  1.
         25    2    1    2    0    0  0.44763471318E+02  0.52885501916E+01  0.16293905408E+03  0.21025186022E+03  0.12499988902E+03 0.  0.
    9000005    1    3    3    0    0  0.17073648358E+02 -0.18007966514E+02 -0.14768468708E+02  0.28894705297E+02  0.10000000000E+01 0.  0.
    9000005    1    3    3    0    0  0.27689822960E+02  0.23296516705E+02  0.17770752279E+03  0.18135715493E+03  0.10000000000E+01 0.  0.
          4    1    1    2  501    0 -0.44763471318E+02 -0.52885501916E+01  0.11890050811E+03  0.12716399198E+03  0.12700000000E+01 0. -1.
<mgrwt>
<rscale>  1 0.13287855E+03</rscale>
<asrwt>0</asrwt>
<pdfrwt beam="1">  1       21 0.47632797E-01 0.13287855E+03</pdfrwt>
<pdfrwt beam="2">  1        4 0.42752998E-02 0.13287855E+03</pdfrwt>
<totfact> 0.52630225E+04</totfact>
</mgrwt>
</event>
<event>
 6    4  0.7919556E-003  0.1348772E+03  0.7818608E-02  0.1220393E+00
         21   -1    0    0  501  502  0.00000000000E+00  0.00000000000E+00  0.60935805433E+02  0.60935805433E+02  0.00000000000E+00 0.  1.
         -4   -1    0    0    0  501 -0.00000000000E+00 -0.00000000000E+00 -0.20684093374E+03  0.20684483259E+03  0.12700000000E+01 0.  1.
         25    2    1    2    0    0 -0.43625789860E+02 -0.25755964120E+02 -0.16545356684E+03  0.21346366482E+03  0.12500109675E+03 0.  0.
    9000005    1    3    3    0    0 -0.35162387516E+02 -0.14557771602E+02 -0.18528002752E+03  0.18915076211E+03  0.10000000000E+01 0.  0.
    9000005    1    3    3    0    0 -0.84634023437E+01 -0.11198192518E+02  0.19826460679E+02  0.24312902706E+02  0.10000000000E+01 0.  0.
         -4    1    1    2    0  502  0.43625789860E+02  0.25755964120E+02  0.19548438539E+02  0.54316973203E+02  0.12700000000E+01 0. -1.
<mgrwt>
<rscale>  1 0.13487718E+03</rscale>
<asrwt>0</asrwt>
<pdfrwt beam="1">  1       21 0.93747392E-02 0.13487718E+03</pdfrwt>
<pdfrwt beam="2">  1       -4 0.31823000E-01 0.13487718E+03</pdfrwt>
<totfact> 0.35006816E+04</totfact>
</mgrwt>
</event>
<event>
 6    4  0.7919556E-003  0.1279673E+03  0.7818608E-02  0.1230503E+00
         21   -1    0    0  501  502  0.00000000000E+00  0.00000000000E+00  0.33919050708E+03  0.33919050708E+03  0.00000000000E+00 0.  1.
         -4   -1    0    0    0  501 -0.00000000000E+00 -0.00000000000E+00 -0.31299713721E+02  0.31325468536E+02  0.12700000000E+01 0. -1.
         25    2    1    2    0    0 -0.17153262097E+02 -0.21473749850E+02  0.10433809142E+03  0.16511229576E+03  0.12498110480E+03 0.  0.
    9000005    1    3    3    0    0 -0.58521373461E+02  0.86122338571E+01  0.96731845768E+02  0.11338858721E+03  0.10000000000E+01 0.  0.
    9000005    1    3    3    0    0  0.41368111363E+02 -0.30085983707E+02  0.76062456571E+01  0.51723708552E+02  0.10000000000E+01 0.  0.
         -4    1    1    2    0  502  0.17153262097E+02  0.21473749850E+02  0.20355270193E+03  0.20540367985E+03  0.12700000000E+01 0.  1.
<mgrwt>
<rscale>  1 0.12796731E+03</rscale>
<asrwt>0</asrwt>
<pdfrwt beam="1">  1       21 0.52183152E-01 0.12796731E+03</pdfrwt>
<pdfrwt beam="2">  1       -4 0.48175048E-02 0.12796731E+03</pdfrwt>
<totfact> 0.35882620E+04</totfact>
</mgrwt>
</event>
<event>
 6    4  0.7919556E-003  0.1345302E+03  0.7818608E-02  0.1220884E+00
         21   -1    0    0  501  502  0.00000000000E+00  0.00000000000E+00  0.11604284714E+03  0.11604284714E+03  0.00000000000E+00 0.  1.
         -4   -1    0    0    0  501 -0.00000000000E+00 -0.00000000000E+00 -0.73307632280E+02  0.73318632356E+02  0.12700000000E+01 0.  1.
         25    2    1    2    0    0  0.28163370318E+02  0.41073907852E+02  0.34302695449E+02  0.13883463893E+03  0.12497255986E+03 0.  0.
    9000005    1    3    3    0    0  0.20689625710E+02  0.53279877336E+02 -0.35686922384E+02  0.67389631029E+02  0.10000000000E+01 0.  0.
    9000005    1    3    3    0    0  0.74737446079E+01 -0.12205969484E+02  0.69989617833E+02  0.71445007901E+02  0.10000000000E+01 0.  0.
         -4    1    1    2    0  502 -0.28163370318E+02 -0.41073907852E+02  0.84325194101E+01  0.50526840565E+02  0.12700000000E+01 0. -1.
<mgrwt>
<rscale>  1 0.13453023E+03</rscale>
<asrwt>0</asrwt>
<pdfrwt beam="1">  1       21 0.17852746E-01 0.13453023E+03</pdfrwt>
<pdfrwt beam="2">  1       -4 0.11279478E-01 0.13453023E+03</pdfrwt>
<totfact> 0.71168768E+04</totfact>
</mgrwt>
</event>
<event>
 6    4  0.7919556E-003  0.1303027E+03  0.7818608E-02  0.1227007E+00
         21   -1    0    0  501  502  0.00000000000E+00  0.00000000000E+00  0.56248761780E+02  0.56248761780E+02  0.00000000000E+00 0. -1.
          4   -1    0    0  502    0 -0.00000000000E+00 -0.00000000000E+00 -0.12758456417E+03  0.12759088491E+03  0.12700000000E+01 0. -1.
         25    2    1    2    0    0  0.24172533845E+02 -0.27742728593E+02 -0.67705445299E+02  0.14684285258E+03  0.12499930259E+03 0.  0.
    9000005    1    3    3    0    0  0.26388842283E+02  0.38863595269E+02  0.61178913170E+01  0.47383315929E+02  0.10000000000E+01 0.  0.
    9000005    1    3    3    0    0 -0.22163084383E+01 -0.66606323862E+02 -0.73823336616E+02  0.99459536650E+02  0.10000000000E+01 0.  0.
          4    1    1    2  501    0 -0.24172533845E+02  0.27742728593E+02 -0.36303570856E+01  0.36996794115E+02  0.12700000000E+01 0.  1.
<mgrwt>
<rscale>  1 0.13030271E+03</rscale>
<asrwt>0</asrwt>
<pdfrwt beam="1">  1       21 0.86536557E-02 0.13030271E+03</pdfrwt>
<pdfrwt beam="2">  1        4 0.19629983E-01 0.13030271E+03</pdfrwt>
<totfact> 0.97751102E+04</totfact>
</mgrwt>
</event>
<event>
 6    4  0.7919556E-003  0.1373996E+03  0.7818608E-02  0.1216871E+00
         21   -1    0    0  501  502  0.00000000000E+00  0.00000000000E+00  0.28271428657E+02  0.28271428657E+02  0.00000000000E+00 0. -1.
         -4   -1    0    0    0  501 -0.00000000000E+00 -0.00000000000E+00 -0.34183652634E+03  0.34183888550E+03  0.12700000000E+01 0.  1.
         25    2    1    2    0    0  0.89965237100E+01 -0.56319283461E+02 -0.24517609180E+03  0.28105152372E+03  0.12500337542E+03 0.  0.
    9000005    1    3    3    0    0 -0.13331142706E+02  0.38096709206E+02 -0.71919220655E+02  0.82476984170E+02  0.10000000000E+01 0.  0.
    9000005    1    3    3    0    0  0.22327666416E+02 -0.94415992667E+02 -0.17325687114E+03  0.19857453955E+03  0.10000000000E+01 0.  0.
         -4    1    1    2    0  502 -0.89965237100E+01  0.56319283461E+02 -0.68389005883E+02  0.89058790437E+02  0.12700000000E+01 0. -1.
<mgrwt>
<rscale>  1 0.13739957E+03</rscale>
<asrwt>0</asrwt>
<pdfrwt beam="1">  1       21 0.43494507E-02 0.13739957E+03</pdfrwt>
<pdfrwt beam="2">  1       -4 0.52592609E-01 0.13739957E+03</pdfrwt>
<totfact> 0.48147269E+04</totfact>
</mgrwt>
</event>
<event>
 6    4  0.7919556E-003  0.1319344E+03  0.7818608E-02  0.1224613E+00
          4   -1    0    0  502    0 -0.00000000000E+00  0.00000000000E+00  0.94605476526E+01  0.95454105143E+01  0.12700000000E+01 0.  1.
         21   -1    0    0  501  502  0.00000000000E+00 -0.00000000000E+00 -0.10995228349E+04  0.10995228349E+04  0.00000000000E+00 0.  1.
         25    2    1    2    0    0 -0.26789117565E+02 -0.32708494642E+02 -0.48794570664E+03  0.50546780474E+03  0.12497674407E+03 0.  0.
    9000005    1    3    3    0    0 -0.22330422193E+02 -0.26564955534E+02 -0.49430011141E+03  0.49551785513E+03  0.10000000000E+01 0.  0.
    9000005    1    3    3    0    0 -0.44586953717E+01 -0.61435391081E+01  0.63544047681E+01  0.99499496053E+01  0.10000000000E+01 0.  0.
          4    1    1    2  501    0  0.26789117565E+02  0.32708494642E+02 -0.60211658065E+03  0.60360044071E+03  0.12700000000E+01 0. -1.
<mgrwt>
<rscale>  1 0.13193441E+03</rscale>
<asrwt>0</asrwt>
<pdfrwt beam="2">  1       21 0.16915736E+00 0.13193441E+03</pdfrwt>
<pdfrwt beam="1">  1        4 0.14620532E-02 0.13193441E+03</pdfrwt>
<totfact> 0.14839060E+04</totfact>
</mgrwt>
</event>
<event>
 6    4  0.7919556E-003  0.1267118E+03  0.7818608E-02  0.1232418E+00
         21   -1    0    0  501  502  0.00000000000E+00  0.00000000000E+00  0.22329257720E+02  0.22329257720E+02  0.00000000000E+00 0.  1.
         -4   -1    0    0    0  501 -0.00000000000E+00 -0.00000000000E+00 -0.29068237102E+03  0.29068514535E+03  0.12700000000E+01 0. -1.
         25    2    1    2    0    0 -0.16688222872E+02 -0.12276794755E+02 -0.26244563673E+03  0.29143367899E+03  0.12500664198E+03 0.  0.
    9000005    1    3    3    0    0 -0.59377734200E+02  0.26190684605E+02 -0.10093772613E+03  0.12000454922E+03  0.10000000000E+01 0.  0.
    9000005    1    3    3    0    0  0.42689511327E+02 -0.38467479361E+02 -0.16150791060E+03  0.17142912977E+03  0.10000000000E+01 0.  0.
         -4    1    1    2    0  502  0.16688222872E+02  0.12276794755E+02 -0.59074765757E+01  0.21580724075E+02  0.12700000000E+01 0.  1.
<mgrwt>
<rscale>  1 0.12671179E+03</rscale>
<asrwt>0</asrwt>
<pdfrwt beam="1">  1       21 0.34352708E-02 0.12671179E+03</pdfrwt>
<pdfrwt beam="2">  1       -4 0.44723352E-01 0.12671179E+03</pdfrwt>
<totfact> 0.97821051E+04</totfact>
</mgrwt>
</event>
<event>
 6    4  0.7919556E-003  0.1270521E+03  0.7818608E-02  0.1231897E+00
         21   -1    0    0  501  502  0.00000000000E+00  0.00000000000E+00  0.44693379963E+03  0.44693379963E+03  0.00000000000E+00 0. -1.
          4   -1    0    0  502    0 -0.00000000000E+00 -0.00000000000E+00 -0.14274973908E+02  0.14331356533E+02  0.12700000000E+01 0.  1.
         25    2    1    2    0    0  0.76250003395E+01  0.21450803006E+02  0.28744254706E+03  0.31426972063E+03  0.12499584739E+03 0.  0.
    9000005    1    3    3    0    0  0.56541203697E+02  0.10532970532E+02  0.23412011777E+03  0.24108314069E+03  0.10000000000E+01 0.  0.
    9000005    1    3    3    0    0 -0.48916203358E+02  0.10917832474E+02  0.53322429299E+02  0.73186579939E+02  0.10000000000E+01 0.  0.
          4    1    1    2  501    0 -0.76250003395E+01 -0.21450803006E+02  0.14521627865E+03  0.14699543553E+03  0.12700000000E+01 0. -1.
<mgrwt>
<rscale>  1 0.12705211E+03</rscale>
<asrwt>0</asrwt>
<pdfrwt beam="1">  1       21 0.68759036E-01 0.12705211E+03</pdfrwt>
<pdfrwt beam="2">  1        4 0.22006261E-02 0.12705211E+03</pdfrwt>
<totfact> 0.68374418E+04</totfact>
</mgrwt>
</event>
<event>
 6    4  0.7919556E-003  0.1270934E+03  0.7818608E-02  0.1231833E+00
         -4   -1    0    0    0  501 -0.00000000000E+00  0.00000000000E+00  0.10359233003E+02  0.10436791098E+02  0.12700000000E+01 0. -1.
         21   -1    0    0  501  502  0.00000000000E+00 -0.00000000000E+00 -0.70737421845E+03  0.70737421845E+03  0.00000000000E+00 0.  1.
         25    2    1    2    0    0  0.21373278552E+02 -0.88173549936E+01 -0.39574100951E+03  0.41564849655E+03  0.12497265017E+03 0.  0.
    9000005    1    3    3    0    0 -0.53741919816E+01  0.48118301472E+02 -0.78552343205E+02  0.92280677821E+02  0.10000000000E+01 0.  0.
    9000005    1    3    3    0    0  0.26747470533E+02 -0.56935656465E+02 -0.31718866630E+03  0.32336781873E+03  0.10000000000E+01 0.  0.
         -4    1    1    2    0  502 -0.21373278552E+02  0.88173549936E+01 -0.30127397593E+03  0.30216251300E+03  0.12700000000E+01 0.  1.
<mgrwt>
<rscale>  1 0.12709338E+03</rscale>
<asrwt>0</asrwt>
<pdfrwt beam="2">  1       21 0.10882680E+00 0.12709338E+03</pdfrwt>
<pdfrwt beam="1">  1       -4 0.15997819E-02 0.12709338E+03</pdfrwt>
<totfact> 0.39304860E+04</totfact>
</mgrwt>
</event>
<event>
 6    4  0.7919556E-003  0.1270552E+03  0.7818608E-02  0.1231892E+00
         21   -1    0    0  501  502  0.00000000000E+00  0.00000000000E+00  0.97883558907E+03  0.97883558907E+03  0.00000000000E+00 0.  1.
          4   -1    0    0  502    0 -0.00000000000E+00 -0.00000000000E+00 -0.56724819795E+01  0.58129125064E+01  0.12700000000E+01 0.  1.
         25    2    1    2    0    0 -0.97863319180E+01 -0.20554353565E+02  0.83746523761E+03  0.84704843463E+03  0.12499909062E+03 0.  0.
    9000005    1    3    3    0    0  0.53738041566E+02 -0.29371306670E+02  0.47764866237E+03  0.48155964888E+03  0.10000000000E+01 0.  0.
    9000005    1    3    3    0    0 -0.63524373484E+02  0.88169531048E+01  0.35981657524E+03  0.36548878575E+03  0.10000000000E+01 0.  0.
          4    1    1    2  501    0  0.97863319180E+01  0.20554353565E+02  0.13569786948E+03  0.13760006695E+03  0.12700000000E+01 0. -1.
<mgrwt>
<rscale>  1 0.12705521E+03</rscale>
<asrwt>0</asrwt>
<pdfrwt beam="1">  1       21 0.15058996E+00 0.12705521E+03</pdfrwt>
<pdfrwt beam="2">  1        4 0.88355603E-03 0.12705521E+03</pdfrwt>
<totfact> 0.43087540E+04</totfact>
</mgrwt>
</event>
<event>
 6    4  0.7919556E-003  0.1284032E+03  0.7818608E-02  0.1229845E+00
         -4   -1    0    0    0  501 -0.00000000000E+00  0.00000000000E+00  0.12369322664E+04  0.12369329184E+04  0.12700000000E+01 0. -1.
         21   -1    0    0  501  502  0.00000000000E+00 -0.00000000000E+00 -0.19539187690E+02  0.19539187690E+02  0.00000000000E+00 0.  1.
         25    2    1    2    0    0  0.38500598817E+01  0.29101412607E+02  0.12202169575E+04  0.12269542748E+04  0.12500261513E+03 0.  0.
    9000005    1    3    3    0    0  0.51371022017E+02 -0.18834115498E+02  0.36529632478E+03  0.36937259063E+03  0.10000000000E+01 0.  0.
    9000005    1    3    3    0    0 -0.47520962135E+02  0.47935528105E+02  0.85492063272E+03  0.85758168413E+03  0.10000000000E+01 0.  0.
         -4    1    1    2    0  502 -0.38500598817E+01 -0.29101412607E+02 -0.28238787456E+01  0.29517831356E+02  0.12700000000E+01 0.  1.
<mgrwt>
<rscale>  1 0.12840315E+03</rscale>
<asrwt>0</asrwt>
<pdfrwt beam="2">  1       21 0.30060298E-02 0.12840315E+03</pdfrwt>
<pdfrwt beam="1">  1       -4 0.19030044E+00 0.12840315E+03</pdfrwt>
<totfact> 0.43479969E+03</totfact>
</mgrwt>
</event>
<event>
 6    4  0.7919556E-003  0.1337482E+03  0.7818608E-02  0.1221998E+00
         -4   -1    0    0    0  501 -0.00000000000E+00  0.00000000000E+00  0.62321780396E+02  0.62334719152E+02  0.12700000000E+01 0.  1.
         21   -1    0    0  501  502  0.00000000000E+00 -0.00000000000E+00 -0.36446836881E+03  0.36446836881E+03  0.00000000000E+00 0. -1.
         25    2    1    2    0    0  0.45916497701E+02  0.12417060527E+02 -0.13688576472E+02  0.13444689133E+03  0.12500432517E+03 0.  0.
    9000005    1    3    3    0    0 -0.51595550844E+01  0.12774271496E+02  0.50531398667E+02  0.52385353604E+02  0.10000000000E+01 0.  0.
    9000005    1    3    3    0    0  0.51076052785E+02 -0.35721096936E+00 -0.64219975139E+02  0.82061537730E+02  0.10000000000E+01 0.  0.
         -4    1    1    2    0  502 -0.45916497701E+02 -0.12417060527E+02 -0.28845801194E+03  0.29235619663E+03  0.12700000000E+01 0. -1.
<mgrwt>
<rscale>  1 0.13374823E+03</rscale>
<asrwt>0</asrwt>
<pdfrwt beam="2">  1       21 0.56072057E-01 0.13374823E+03</pdfrwt>
<pdfrwt beam="1">  1       -4 0.95891317E-02 0.13374823E+03</pdfrwt>
<totfact> 0.10037761E+04</totfact>
</mgrwt>
</event>
<event>
 6    4  0.7919556E-003  0.1270905E+03  0.7818608E-02  0.1231838E+00
         21   -1    0    0  501  502  0.00000000000E+00  0.00000000000E+00  0.75942477122E+02  0.75942477122E+02  0.00000000000E+00 0. -1.
         -4   -1    0    0    0  501 -0.00000000000E+00 -0.00000000000E+00 -0.91810809438E+02  0.91819592842E+02  0.12700000000E+01 0. -1.
         25    2    1    2    0    0  0.22891616432E+02 -0.17198751400E+01 -0.41153040755E+02  0.13358732118E+03  0.12500006218E+03 0.  0.
    9000005    1    3    3    0    0  0.65502660917E+02 -0.41878661672E+01 -0.58090295978E+02  0.87656256463E+02  0.10000000000E+01 0.  0.
    9000005    1    3    3    0    0 -0.42611044485E+02  0.24679910272E+01  0.16937255223E+02  0.45931064720E+02  0.10000000000E+01 0.  0.
         -4    1    1    2    0  502 -0.22891616432E+02  0.17198751400E+01  0.25284708439E+02  0.34174748781E+02  0.12700000000E+01 0.  1.
<mgrwt>
<rscale>  1 0.12709052E+03</rscale>
<asrwt>0</asrwt>
<pdfrwt beam="1">  1       21 0.11683458E-01 0.12709052E+03</pdfrwt>
<pdfrwt beam="2">  1       -4 0.14126232E-01 0.12709052E+03</pdfrwt>
<totfact> 0.10286839E+05</totfact>
</mgrwt>
</event>
<event>
 6    4  0.7919556E-003  0.1408056E+03  0.7818608E-02  0.1212249E+00
         21   -1    0    0  501  502  0.00000000000E+00  0.00000000000E+00  0.73784747162E+02  0.73784747162E+02  0.00000000000E+00 0.  1.
         -4   -1    0    0    0  501 -0.00000000000E+00 -0.00000000000E+00 -0.58121881056E+03  0.58122019807E+03  0.12700000000E+01 0. -1.
         25    2    1    2    0    0  0.52976798623E+02 -0.37345312854E+02 -0.55628642745E+03  0.57382994934E+03  0.12500003127E+03 0.  0.
    9000005    1    3    3    0    0  0.30821161636E+02 -0.59379629880E+02 -0.12826122803E+03  0.14466453285E+03  0.10000000000E+01 0.  0.
    9000005    1    3    3    0    0  0.22155636987E+02  0.22034317026E+02 -0.42802519941E+03  0.42916541649E+03  0.10000000000E+01 0.  0.
         -4    1    1    2    0  502 -0.52976798623E+02  0.37345312854E+02  0.48852364051E+02  0.81174995891E+02  0.12700000000E+01 0.  1.
<mgrwt>
<rscale>  1 0.14080562E+03</rscale>
<asrwt>0</asrwt>
<pdfrwt beam="1">  1       21 0.11351499E-01 0.14080562E+03</pdfrwt>
<pdfrwt beam="2">  1       -4 0.89419230E-01 0.14080562E+03</pdfrwt>
<totfact> 0.29678033E+03</totfact>
</mgrwt>
</event>
<event>
 6    4  0.7919556E-003  0.1271639E+03  0.7818608E-02  0.1231726E+00
         21   -1    0    0  501  502  0.00000000000E+00  0.00000000000E+00  0.48440161597E+02  0.48440161597E+02  0.00000000000E+00 0. -1.
          4   -1    0    0  502    0 -0.00000000000E+00 -0.00000000000E+00 -0.21342703843E+03  0.21343081697E+03  0.12700000000E+01 0. -1.
         25    2    1    2    0    0  0.21059506207E+02 -0.10112611252E+02 -0.18935339103E+03  0.22809069404E+03  0.12499956121E+03 0.  0.
    9000005    1    3    3    0    0  0.25624530263E+02 -0.65197998199E+02 -0.86421497671E+02  0.11125228438E+03  0.10000000000E+01 0.  0.
    9000005    1    3    3    0    0 -0.45650240558E+01  0.55085386947E+02 -0.10293189336E+03  0.11683840966E+03  0.10000000000E+01 0.  0.
          4    1    1    2  501    0 -0.21059506207E+02  0.10112611252E+02  0.24366514206E+02  0.33780284525E+02  0.12700000000E+01 0.  1.
<mgrwt>
<rscale>  1 0.12716390E+03</rscale>
<asrwt>0</asrwt>
<pdfrwt beam="1">  1       21 0.74523326E-02 0.12716390E+03</pdfrwt>
<pdfrwt beam="2">  1        4 0.32836500E-01 0.12716390E+03</pdfrwt>
<totfact> 0.48688169E+04</totfact>
</mgrwt>
</event>
<event>
 6    4  0.7919556E-003  0.1265986E+03  0.7818608E-02  0.1232592E+00
         21   -1    0    0  501  502  0.00000000000E+00  0.00000000000E+00  0.10830239177E+02  0.10830239177E+02  0.00000000000E+00 0. -1.
         -4   -1    0    0    0  501 -0.00000000000E+00 -0.00000000000E+00 -0.12347961885E+04  0.12347968416E+04  0.12700000000E+01 0.  1.
         25    2    1    2    0    0 -0.19773173671E+02  0.33405454705E+01 -0.12181471129E+04  0.12247079652E+04  0.12500029498E+03 0.  0.
    9000005    1    3    3    0    0  0.39002537573E+02  0.37703619637E+02 -0.70115900572E+03  0.70325508329E+03  0.10000000000E+01 0.  0.
    9000005    1    3    3    0    0 -0.58775711244E+02 -0.34363074166E+02 -0.51698810715E+03  0.52145288189E+03  0.10000000000E+01 0.  0.
         -4    1    1    2    0  502  0.19773173671E+02 -0.33405454705E+01 -0.58188364944E+01  0.20919115641E+02  0.12700000000E+01 0. -1.
<mgrwt>
<rscale>  1 0.12659862E+03</rscale>
<asrwt>0</asrwt>
<pdfrwt beam="1">  1       21 0.16661904E-02 0.12659862E+03</pdfrwt>
<pdfrwt beam="2">  1       -4 0.18997445E+00 0.12659862E+03</pdfrwt>
<totfact> 0.11353445E+04</totfact>
</mgrwt>
</event>
<event>
 6    4  0.7919556E-003  0.1274616E+03  0.7818608E-02  0.1231272E+00
         21   -1    0    0  501  502  0.00000000000E+00  0.00000000000E+00  0.25479465431E+03  0.25479465431E+03  0.00000000000E+00 0.  1.
         -4   -1    0    0    0  501 -0.00000000000E+00 -0.00000000000E+00 -0.12088681245E+03  0.12089348339E+03  0.12700000000E+01 0. -1.
         25    2    1    2    0    0 -0.17631149248E+02  0.17633004724E+02 -0.86390274005E+02  0.15397965109E+03  0.12499869291E+03 0.  0.
    9000005    1    3    3    0    0 -0.47779910049E+02 -0.13995758088E+02 -0.96970931588E+02  0.10900991983E+03  0.10000000000E+01 0.  0.
    9000005    1    3    3    0    0  0.30148760801E+02  0.31628762812E+02  0.10580657584E+02  0.44969731262E+02  0.10000000000E+01 0.  0.
         -4    1    1    2    0  502  0.17631149248E+02 -0.17633004724E+02  0.22029811586E+03  0.22170848660E+03  0.12700000000E+01 0.  1.
<mgrwt>
<rscale>  1 0.12746158E+03</rscale>
<asrwt>0</asrwt>
<pdfrwt beam="1">  1       21 0.39199177E-01 0.12746158E+03</pdfrwt>
<pdfrwt beam="2">  1       -4 0.18598728E-01 0.12746158E+03</pdfrwt>
<totfact> 0.66253952E+03</totfact>
</mgrwt>
</event>
<event>
 6    4  0.7919556E-003  0.1280692E+03  0.7818608E-02  0.1230349E+00
         -4   -1    0    0    0  501 -0.00000000000E+00  0.00000000000E+00  0.25838784192E+03  0.25839096298E+03  0.12700000000E+01 0.  1.
         21   -1    0    0  501  502  0.00000000000E+00 -0.00000000000E+00 -0.15175883958E+03  0.15175883958E+03  0.00000000000E+00 0. -1.
         25    2    1    2    0    0  0.26032394938E+02  0.99714428108E+01  0.24099811479E+03  0.27291355903E+03  0.12499841645E+03 0.  0.
    9000005    1    3    3    0    0 -0.20188342159E+02  0.57262865722E+02  0.13414316549E+03  0.14724806891E+03  0.10000000000E+01 0.  0.
    9000005    1    3    3    0    0  0.46220737097E+02 -0.47291422912E+02  0.10685494930E+03  0.12566549012E+03  0.10000000000E+01 0.  0.
         -4    1    1    2    0  502 -0.26032394938E+02 -0.99714428108E+01 -0.13436911245E+03  0.13723624353E+03  0.12700000000E+01 0. -1.
<mgrwt>
<rscale>  1 0.12806920E+03</rscale>
<asrwt>0</asrwt>
<pdfrwt beam="2">  1       21 0.23347514E-01 0.12806920E+03</pdfrwt>
<pdfrwt beam="1">  1       -4 0.39752625E-01 0.12806920E+03</pdfrwt>
<totfact> 0.43674699E+03</totfact>
</mgrwt>
</event>
<event>
 6    4  0.7919556E-003  0.1392651E+03  0.7818608E-02  0.1214321E+00
         -4   -1    0    0    0  501 -0.00000000000E+00  0.00000000000E+00  0.44192970032E+03  0.44193152516E+03  0.12700000000E+01 0. -1.
         21   -1    0    0  501  502  0.00000000000E+00 -0.00000000000E+00 -0.14168561643E+03  0.14168561643E+03  0.00000000000E+00 0.  1.
         25    2    1    2    0    0  0.53012003627E+02  0.30974196400E+02  0.42355381240E+03  0.44586165017E+03  0.12500042287E+03 0.  0.
    9000005    1    3    3    0    0  0.11798784969E+02 -0.28034325665E+02  0.21125545936E+02  0.37046233727E+02  0.10000000000E+01 0.  0.
    9000005    1    3    3    0    0  0.41213218659E+02  0.59008522066E+02  0.40242826647E+03  0.40881541644E+03  0.10000000000E+01 0.  0.
         -4    1    1    2    0  502 -0.53012003627E+02 -0.30974196400E+02 -0.12330972851E+03  0.13775549142E+03  0.12700000000E+01 0.  1.
<mgrwt>
<rscale>  1 0.13926514E+03</rscale>
<asrwt>0</asrwt>
<pdfrwt beam="2">  1       21 0.21797787E-01 0.13926514E+03</pdfrwt>
<pdfrwt beam="1">  1       -4 0.67989762E-01 0.13926514E+03</pdfrwt>
<totfact> 0.16592674E+03</totfact>
</mgrwt>
</event>
<event>
 6    4  0.7919556E-003  0.1400982E+03  0.7818608E-02  0.1213197E+00
          4   -1    0    0  502    0 -0.00000000000E+00  0.00000000000E+00  0.31002400412E+02  0.31028402010E+02  0.12700000000E+01 0. -1.
         21   -1    0    0  501  502  0.00000000000E+00 -0.00000000000E+00 -0.12162509379E+04  0.12162509379E+04  0.00000000000E+00 0.  1.
         25    2    1    2    0    0 -0.49390495137E+02  0.39553327363E+02 -0.13314727487E+03  0.19327622491E+03  0.12499446226E+03 0.  0.
    9000005    1    3    3    0    0  0.22230680127E+02 -0.69971632240E+01  0.10942904002E+02  0.25766462312E+02  0.10000000000E+01 0.  0.
    9000005    1    3    3    0    0 -0.71621175264E+02  0.46550490587E+02 -0.14409017887E+03  0.16750976260E+03  0.10000000000E+01 0.  0.
          4    1    1    2  501    0  0.49390495137E+02 -0.39553327363E+02 -0.10521012626E+04  0.10540031150E+04  0.12700000000E+01 0.  1.
<mgrwt>
<rscale>  1 0.14009819E+03</rscale>
<asrwt>0</asrwt>
<pdfrwt beam="2">  1       21 0.18711550E+00 0.14009819E+03</pdfrwt>
<pdfrwt beam="1">  1        4 0.47716519E-02 0.14009819E+03</pdfrwt>
<totfact> 0.17771994E+03</totfact>
</mgrwt>
</event>
<event>
 6    4  0.7919556E-003  0.1315518E+03  0.7818608E-02  0.1225171E+00
         -4   -1    0    0    0  501 -0.00000000000E+00  0.00000000000E+00  0.16191081172E+03  0.16191579247E+03  0.12700000000E+01 0.  1.
         21   -1    0    0  501  502  0.00000000000E+00 -0.00000000000E+00 -0.11484436818E+03  0.11484436818E+03  0.00000000000E+00 0.  1.
         25    2    1    2    0    0  0.37320342208E+02 -0.16995092458E+02  0.12955255983E+03  0.18463408729E+03  0.12499695724E+03 0.  0.
    9000005    1    3    3    0    0  0.41257389408E+02 -0.51749050081E+02  0.19276622560E+02  0.68940006835E+02  0.10000000000E+01 0.  0.
    9000005    1    3    3    0    0 -0.39370472002E+01  0.34753957623E+02  0.11027593727E+03  0.11569408046E+03  0.10000000000E+01 0.  0.
         -4    1    1    2    0  502 -0.37320342208E+02  0.16995092458E+02 -0.82486116301E+02  0.92126073360E+02  0.12700000000E+01 0. -1.
<mgrwt>
<rscale>  1 0.13155182E+03</rscale>
<asrwt>0</asrwt>
<pdfrwt beam="2">  1       21 0.17668364E-01 0.13155182E+03</pdfrwt>
<pdfrwt beam="1">  1       -4 0.24910279E-01 0.13155182E+03</pdfrwt>
<totfact> 0.17838080E+04</totfact>
</mgrwt>
</event>
<event>
 6    4  0.7919556E-003  0.1273699E+03  0.7818608E-02  0.1231411E+00
         21   -1    0    0  501  502  0.00000000000E+00  0.00000000000E+00  0.37977503658E+03  0.37977503658E+03  0.00000000000E+00 0.  1.
          4   -1    0    0  502    0 -0.00000000000E+00 -0.00000000000E+00 -0.18654682006E+02  0.18697862465E+02  0.12700000000E+01 0.  1.
         25    2    1    2    0    0  0.15862734961E+02 -0.18618165154E+02  0.21173214470E+03  0.24709022968E+03  0.12499927228E+03 0.  0.
    9000005    1    3    3    0    0  0.63476271248E+02 -0.20138312817E+01  0.60689193541E+02  0.87849136255E+02  0.10000000000E+01 0.  0.
    9000005    1    3    3    0    0 -0.47613536287E+02 -0.16604333873E+02  0.15104295116E+03  0.15924109343E+03  0.10000000000E+01 0.  0.
          4    1    1    2  501    0 -0.15862734961E+02  0.18618165154E+02  0.14938820988E+03  0.15138266936E+03  0.12700000000E+01 0. -1.
<mgrwt>
<rscale>  1 0.12736986E+03</rscale>
<asrwt>0</asrwt>
<pdfrwt beam="1">  1       21 0.58426923E-01 0.12736986E+03</pdfrwt>
<pdfrwt beam="2">  1        4 0.28734363E-02 0.12736986E+03</pdfrwt>
<totfact> 0.64073918E+04</totfact>
</mgrwt>
</event>
<event>
 6    4  0.7919556E-003  0.1468342E+03  0.7818608E-02  0.1204418E+00
         -4   -1    0    0    0  501 -0.00000000000E+00  0.00000000000E+00  0.87956378050E+02  0.87965546322E+02  0.12700000000E+01 0. -1.
         21   -1    0    0  501  502  0.00000000000E+00 -0.00000000000E+00 -0.17717319850E+03  0.17717319850E+03  0.00000000000E+00 0. -1.
         25    2    1    2    0    0 -0.22603080462E+02 -0.73652608443E+02  0.55227569736E+00  0.14683528122E+03  0.12499875530E+03 0.  0.
    9000005    1    3    3    0    0  0.12991612015E+00 -0.10174560339E+03  0.22950265519E+02  0.10430675613E+03  0.10000000000E+01 0.  0.
    9000005    1    3    3    0    0 -0.22732996582E+02  0.28092994944E+02 -0.22397989822E+02  0.42528525093E+02  0.10000000000E+01 0.  0.
         -4    1    1    2    0  502  0.22603080462E+02  0.73652608443E+02 -0.89769096150E+02  0.11830346360E+03  0.12700000000E+01 0.  1.
<mgrwt>
<rscale>  1 0.14683424E+03</rscale>
<asrwt>0</asrwt>
<pdfrwt beam="2">  1       21 0.27257415E-01 0.14683424E+03</pdfrwt>
<pdfrwt beam="1">  1       -4 0.13532806E-01 0.14683424E+03</pdfrwt>
<totfact> 0.23811142E+04</totfact>
</mgrwt>
</event>
<event>
 6    4  0.7919556E-003  0.1273788E+03  0.7818608E-02  0.1231398E+00
         21   -1    0    0  501  502  0.00000000000E+00  0.00000000000E+00  0.10579521125E+04  0.10579521125E+04  0.00000000000E+00 0. -1.
         -4   -1    0    0    0  501 -0.00000000000E+00 -0.00000000000E+00 -0.13126885574E+03  0.13127499909E+03  0.12700000000E+01 0.  1.
         25    2    1    2    0    0 -0.23144672892E+02 -0.80699688851E+01 -0.10019046138E+03  0.16206011144E+03  0.12499820354E+03 0.  0.
    9000005    1    3    3    0    0  0.21006107182E+02  0.10006069952E+02  0.21283702903E+02  0.31549548080E+02  0.10000000000E+01 0.  0.
    9000005    1    3    3    0    0 -0.44150780074E+02 -0.18076038837E+02 -0.12147416428E+03  0.13051056336E+03  0.10000000000E+01 0.  0.
         -4    1    1    2    0  502  0.23144672892E+02  0.80699688851E+01  0.10268737181E+04  0.10271670001E+04  0.12700000000E+01 0. -1.
<mgrwt>
<rscale>  1 0.12737877E+03</rscale>
<asrwt>0</asrwt>
<pdfrwt beam="1">  1       21 0.16276186E+00 0.12737877E+03</pdfrwt>
<pdfrwt beam="2">  1       -4 0.20195740E-01 0.12737877E+03</pdfrwt>
<totfact> 0.22834309E+02</totfact>
</mgrwt>
</event>
<event>
 6    4  0.7919556E-003  0.1308714E+03  0.7818608E-02  0.1226168E+00
         21   -1    0    0  501  502  0.00000000000E+00  0.00000000000E+00  0.42726445060E+03  0.42726445060E+03  0.00000000000E+00 0.  1.
         -4   -1    0    0    0  501 -0.00000000000E+00 -0.00000000000E+00 -0.27870062908E+02  0.27898983968E+02  0.12700000000E+01 0. -1.
         25    2    1    2    0    0  0.28661068360E+02  0.26102039228E+02  0.13530595064E+03  0.18824193155E+03  0.12499820488E+03 0.  0.
    9000005    1    3    3    0    0  0.40941310778E+02  0.27624384188E+02 -0.28953568678E+01  0.49484145152E+02  0.10000000000E+01 0.  0.
    9000005    1    3    3    0    0 -0.12280242418E+02 -0.15223449594E+01  0.13820130751E+03  0.13875778640E+03  0.10000000000E+01 0.  0.
         -4    1    1    2    0  502 -0.28661068360E+02 -0.26102039228E+02  0.26408843705E+03  0.26692150302E+03  0.12700000000E+01 0.  1.
<mgrwt>
<rscale>  1 0.13087140E+03</rscale>
<asrwt>0</asrwt>
<pdfrwt beam="1">  1       21 0.65732988E-01 0.13087140E+03</pdfrwt>
<pdfrwt beam="2">  1       -4 0.42900722E-02 0.13087140E+03</pdfrwt>
<totfact> 0.26557900E+04</totfact>
</mgrwt>
</event>
<event>
 6    4  0.7919556E-003  0.1300859E+03  0.7818608E-02  0.1227328E+00
         21   -1    0    0  501  502  0.00000000000E+00  0.00000000000E+00  0.97086606371E+02  0.97086606371E+02  0.00000000000E+00 0. -1.
         -4   -1    0    0    0  501 -0.00000000000E+00 -0.00000000000E+00 -0.77223478942E+02  0.77233921304E+02  0.12700000000E+01 0.  1.
         25    2    1    2    0    0  0.31001324950E+02 -0.18335378952E+02 -0.55782481698E+01  0.13020539691E+03  0.12500024105E+03 0.  0.
    9000005    1    3    3    0    0  0.57960058214E+02  0.35427285459E+02 -0.14297292868E+02  0.69425308689E+02  0.10000000000E+01 0.  0.
    9000005    1    3    3    0    0 -0.26958733264E+02 -0.53762664411E+02  0.87190446987E+01  0.60780088222E+02  0.10000000000E+01 0.  0.
         -4    1    1    2    0  502 -0.31001324950E+02  0.18335378952E+02  0.25441375599E+02  0.44115130764E+02  0.12700000000E+01 0. -1.
<mgrwt>
<rscale>  1 0.13008585E+03</rscale>
<asrwt>0</asrwt>
<pdfrwt beam="1">  1       21 0.14936401E-01 0.13008585E+03</pdfrwt>
<pdfrwt beam="2">  1       -4 0.11881978E-01 0.13008585E+03</pdfrwt>
<totfact> 0.89656795E+04</totfact>
</mgrwt>
</event>
<event>
 6    4  0.7919556E-003  0.1274851E+03  0.7818608E-02  0.1231236E+00
         21   -1    0    0  501  502  0.00000000000E+00  0.00000000000E+00  0.44610386919E+02  0.44610386919E+02  0.00000000000E+00 0.  1.
         -4   -1    0    0    0  501 -0.00000000000E+00 -0.00000000000E+00 -0.13428417505E+03  0.13429018047E+03  0.12700000000E+01 0.  1.
         25    2    1    2    0    0  0.13262279770E+01 -0.24997088873E+02 -0.62666549460E+02  0.14205471045E+03  0.12500332398E+03 0.  0.
    9000005    1    3    3    0    0 -0.42424660964E+02 -0.55789757299E+02 -0.52527006899E+02  0.87592438778E+02  0.10000000000E+01 0.  0.
    9000005    1    3    3    0    0  0.43750888941E+02  0.30792668427E+02 -0.10139542561E+02  0.54462271668E+02  0.10000000000E+01 0.  0.
         -4    1    1    2    0  502 -0.13262279770E+01  0.24997088873E+02 -0.27007238676E+02  0.36845856940E+02  0.12700000000E+01 0. -1.
<mgrwt>
<rscale>  1 0.12748507E+03</rscale>
<asrwt>0</asrwt>
<pdfrwt beam="1">  1       21 0.68631365E-02 0.12748507E+03</pdfrwt>
<pdfrwt beam="2">  1       -4 0.20660956E-01 0.12748507E+03</pdfrwt>
<totfact> 0.13241350E+05</totfact>
</mgrwt>
</event>
<event>
 6    4  0.7919556E-003  0.1285847E+03  0.7818608E-02  0.1229571E+00
         21   -1    0    0  501  502  0.00000000000E+00  0.00000000000E+00  0.58005841857E+03  0.58005841857E+03  0.00000000000E+00 0. -1.
          4   -1    0    0  502    0 -0.00000000000E+00 -0.00000000000E+00 -0.25514603388E+02  0.25546191224E+02  0.12700000000E+01 0.  1.
         25    2    1    2    0    0  0.16182761741E+02  0.25444060233E+02  0.14048395476E+03  0.19044625098E+03  0.12499900395E+03 0.  0.
    9000005    1    3    3    0    0  0.44440547552E+02  0.64827043305E+02  0.10059897087E+03  0.12766620833E+03  0.10000000000E+01 0.  0.
    9000005    1    3    3    0    0 -0.28257785811E+02 -0.39382983072E+02  0.39884983885E+02  0.62780042642E+02  0.10000000000E+01 0.  0.
          4    1    1    2  501    0 -0.16182761741E+02 -0.25444060233E+02  0.41405986043E+03  0.41515835882E+03  0.12700000000E+01 0. -1.
<mgrwt>
<rscale>  1 0.12858473E+03</rscale>
<asrwt>0</asrwt>
<pdfrwt beam="1">  1       21 0.89239747E-01 0.12858473E+03</pdfrwt>
<pdfrwt beam="2">  1        4 0.39278608E-02 0.12858473E+03</pdfrwt>
<totfact> 0.15487265E+04</totfact>
</mgrwt>
</event>
<event>
 6    4  0.7919556E-003  0.1321493E+03  0.7818608E-02  0.1224301E+00
         -4   -1    0    0    0  501 -0.00000000000E+00  0.00000000000E+00  0.46248918175E+03  0.46249092546E+03  0.12700000000E+01 0.  1.
         21   -1    0    0  501  502  0.00000000000E+00 -0.00000000000E+00 -0.31652310511E+02  0.31652310511E+02  0.00000000000E+00 0.  1.
         25    2    1    2    0    0  0.42833444960E+02  0.20005435629E+01  0.43145562198E+03  0.45123983361E+03  0.12499891006E+03 0.  0.
    9000005    1    3    3    0    0 -0.95350591305E+01  0.55652210898E+02  0.20859728851E+03  0.21610625790E+03  0.10000000000E+01 0.  0.
    9000005    1    3    3    0    0  0.52368504090E+02 -0.53651667336E+02  0.22285833347E+03  0.23513357571E+03  0.10000000000E+01 0.  0.
         -4    1    1    2    0  502 -0.42833444960E+02 -0.20005435629E+01 -0.61875074510E+00  0.42903402361E+02  0.12700000000E+01 0. -1.
<mgrwt>
<rscale>  1 0.13214929E+03</rscale>
<asrwt>0</asrwt>
<pdfrwt beam="2">  1       21 0.48695866E-02 0.13214929E+03</pdfrwt>
<pdfrwt beam="1">  1       -4 0.71154271E-01 0.13214929E+03</pdfrwt>
<totfact> 0.20982353E+04</totfact>
</mgrwt>
</event>
<event>
 6    4  0.7919556E-003  0.1916091E+03  0.7818608E-02  0.1157018E+00
         -4   -1    0    0    0  501 -0.00000000000E+00  0.00000000000E+00  0.25999214898E+03  0.25999525079E+03  0.12700000000E+01 0. -1.
         21   -1    0    0  501  502  0.00000000000E+00 -0.00000000000E+00 -0.37754070376E+03  0.37754070376E+03  0.00000000000E+00 0.  1.
         25    2    1    2    0    0  0.14322982620E+03  0.23962681815E+02  0.20694380129E+03  0.28202801472E+03  0.12500028384E+03 0.  0.
    9000005    1    3    3    0    0  0.27672077843E+02  0.63616459004E+02  0.78110539406E+02  0.10447513635E+03  0.10000000000E+01 0.  0.
    9000005    1    3    3    0    0  0.11555774836E+03 -0.39653777189E+02  0.12883326188E+03  0.17755287837E+03  0.10000000000E+01 0.  0.
         -4    1    1    2    0  502 -0.14322982620E+03 -0.23962681815E+02 -0.32449235607E+03  0.35550793983E+03  0.12700000000E+01 0.  1.
<mgrwt>
<rscale>  1 0.19160914E+03</rscale>
<asrwt>0</asrwt>
<pdfrwt beam="2">  1       21 0.58083185E-01 0.19160914E+03</pdfrwt>
<pdfrwt beam="1">  1       -4 0.39999195E-01 0.19160914E+03</pdfrwt>
<totfact> 0.71047189E+02</totfact>
</mgrwt>
</event>
<event>
 6    4  0.7919556E-003  0.1395433E+03  0.7818608E-02  0.1213945E+00
         -4   -1    0    0    0  501 -0.00000000000E+00  0.00000000000E+00  0.81982521421E+02  0.81992357684E+02  0.12700000000E+01 0. -1.
         21   -1    0    0  501  502  0.00000000000E+00 -0.00000000000E+00 -0.18476061456E+03  0.18476061456E+03  0.00000000000E+00 0.  1.
         25    2    1    2    0    0 -0.51737809811E+01  0.61813379672E+02  0.80127249913E+01  0.13977313054E+03  0.12499864937E+03 0.  0.
    9000005    1    3    3    0    0 -0.50791770383E+02  0.52969059687E+02  0.39775657884E+02  0.83478309655E+02  0.10000000000E+01 0.  0.
    9000005    1    3    3    0    0  0.45617989402E+02  0.88443199849E+01 -0.31762932893E+02  0.56294820890E+02  0.10000000000E+01 0.  0.
         -4    1    1    2    0  502  0.51737809811E+01 -0.61813379672E+02 -0.11079081813E+03  0.12697984170E+03  0.12700000000E+01 0.  1.
<mgrwt>
<rscale>  1 0.13954327E+03</rscale>
<asrwt>0</asrwt>
<pdfrwt beam="2">  1       21 0.28424709E-01 0.13954327E+03</pdfrwt>
<pdfrwt beam="1">  1       -4 0.12613788E-01 0.13954327E+03</pdfrwt>
<totfact> 0.24686372E+04</totfact>
</mgrwt>
</event>
<event>
 6    4  0.7919556E-003  0.1436679E+03  0.7818608E-02  0.1208477E+00
         21   -1    0    0  501  502  0.00000000000E+00  0.00000000000E+00  0.83316838307E+02  0.83316838307E+02  0.00000000000E+00 0. -1.
          4   -1    0    0  502    0 -0.00000000000E+00 -0.00000000000E+00 -0.20566829104E+03  0.20567221212E+03  0.12700000000E+01 0.  1.
         25    2    1    2    0    0  0.60954737245E+02 -0.36068866765E+02 -0.15469316165E+03  0.21111709027E+03  0.12499603355E+03 0.  0.
    9000005    1    3    3    0    0  0.80606870682E+02 -0.12130652296E+02 -0.37201846963E+02  0.89608022764E+02  0.10000000000E+01 0.  0.
    9000005    1    3    3    0    0 -0.19652133436E+02 -0.23938214469E+02 -0.11749131469E+03  0.12150906751E+03  0.10000000000E+01 0.  0.
          4    1    1    2  501    0 -0.60954737245E+02  0.36068866765E+02  0.32341708918E+02  0.77871960153E+02  0.12700000000E+01 0. -1.
<mgrwt>
<rscale>  1 0.14366785E+03</rscale>
<asrwt>0</asrwt>
<pdfrwt beam="1">  1       21 0.12817975E-01 0.14366785E+03</pdfrwt>
<pdfrwt beam="2">  1        4 0.31642322E-01 0.14366785E+03</pdfrwt>
<totfact> 0.20516246E+04</totfact>
</mgrwt>
</event>
<event>
 6    4  0.7919556E-003  0.1285433E+03  0.7818608E-02  0.1229633E+00
          4   -1    0    0  502    0 -0.00000000000E+00  0.00000000000E+00  0.20481708229E+03  0.20482101967E+03  0.12700000000E+01 0.  1.
         21   -1    0    0  501  502  0.00000000000E+00 -0.00000000000E+00 -0.37104753659E+02  0.37104753659E+02  0.00000000000E+00 0. -1.
         25    2    1    2    0    0 -0.28353205945E+02 -0.96977751636E+01  0.16848737984E+03  0.21192302787E+03  0.12500168577E+03 0.  0.
    9000005    1    3    3    0    0 -0.58230794466E+02 -0.50441482380E+02  0.11415265008E+03  0.13772071772E+03  0.10000000000E+01 0.  0.
    9000005    1    3    3    0    0  0.29877588522E+02  0.40743707217E+02  0.54334729758E+02  0.74202310149E+02  0.10000000000E+01 0.  0.
          4    1    1    2  501    0  0.28353205945E+02  0.96977751636E+01 -0.77505121053E+00  0.30002745455E+02  0.12700000000E+01 0. -1.
<mgrwt>
<rscale>  1 0.12854327E+03</rscale>
<asrwt>0</asrwt>
<pdfrwt beam="2">  1       21 0.57084238E-02 0.12854327E+03</pdfrwt>
<pdfrwt beam="1">  1        4 0.31512294E-01 0.12854327E+03</pdfrwt>
<totfact> 0.83049936E+04</totfact>
</mgrwt>
</event>
<event>
 6    4  0.7919556E-003  0.1298940E+03  0.7818608E-02  0.1227613E+00
         21   -1    0    0  501  502  0.00000000000E+00  0.00000000000E+00  0.30652375939E+03  0.30652375939E+03  0.00000000000E+00 0. -1.
         -4   -1    0    0    0  501 -0.00000000000E+00 -0.00000000000E+00 -0.11420155652E+03  0.11420861794E+03  0.12700000000E+01 0.  1.
         25    2    1    2    0    0  0.12208275116E+02  0.33086028778E+02 -0.75736281757E+02  0.15036098210E+03  0.12501485225E+03 0.  0.
    9000005    1    3    3    0    0  0.36048530050E+02  0.60883666796E+02 -0.52916009225E+01  0.70959977745E+02  0.10000000000E+01 0.  0.
    9000005    1    3    3    0    0 -0.23840254933E+02 -0.27797638018E+02 -0.70444680835E+02  0.79401004355E+02  0.10000000000E+01 0.  0.
         -4    1    1    2    0  502 -0.12208275116E+02 -0.33086028778E+02  0.26805848463E+03  0.27037139524E+03  0.12700000000E+01 0. -1.
<mgrwt>
<rscale>  1 0.12989396E+03</rscale>
<asrwt>0</asrwt>
<pdfrwt beam="1">  1       21 0.47157501E-01 0.12989396E+03</pdfrwt>
<pdfrwt beam="2">  1       -4 0.17570216E-01 0.12989396E+03</pdfrwt>
<totfact> 0.50533427E+03</totfact>
</mgrwt>
</event>
<event>
 6    4  0.7919556E-003  0.1338011E+03  0.7818608E-02  0.1221922E+00
         -4   -1    0    0    0  501 -0.00000000000E+00  0.00000000000E+00  0.17088093212E+02  0.17135221902E+02  0.12700000000E+01 0. -1.
         21   -1    0    0  501  502  0.00000000000E+00 -0.00000000000E+00 -0.49447902680E+03  0.49447902680E+03  0.00000000000E+00 0.  1.
         25    2    1    2    0    0  0.47666071782E+02 -0.22695676255E+01 -0.31219619196E+03  0.33966041507E+03  0.12500211982E+03 0.  0.
    9000005    1    3    3    0    0  0.24189481105E+02  0.53416078544E+01  0.16467299655E+01  0.24847041880E+02  0.10000000000E+01 0.  0.
    9000005    1    3    3    0    0  0.23476590677E+02 -0.76111754799E+01 -0.31384292192E+03  0.31481337319E+03  0.10000000000E+01 0.  0.
         -4    1    1    2    0  502 -0.47666071782E+02  0.22695676255E+01 -0.16519474163E+03  0.17195383363E+03  0.12700000000E+01 0.  1.
<mgrwt>
<rscale>  1 0.13380110E+03</rscale>
<asrwt>0</asrwt>
<pdfrwt beam="2">  1       21 0.76073682E-01 0.13380110E+03</pdfrwt>
<pdfrwt beam="1">  1       -4 0.26326887E-02 0.13380110E+03</pdfrwt>
<totfact> 0.41708906E+04</totfact>
</mgrwt>
</event>
<event>
 6    4  0.7919556E-003  0.1829751E+03  0.7818608E-02  0.1164954E+00
         21   -1    0    0  501  502  0.00000000000E+00  0.00000000000E+00  0.79629832140E+03  0.79629832140E+03  0.00000000000E+00 0.  1.
          4   -1    0    0  502    0 -0.00000000000E+00 -0.00000000000E+00 -0.69478984246E+02  0.69490590384E+02  0.12700000000E+01 0. -1.
         25    2    1    2    0    0  0.12976768475E+03  0.31861095780E+02  0.70633495889E+02  0.19613508136E+03  0.12500039187E+03 0.  0.
    9000005    1    3    3    0    0  0.12307617369E+03  0.22694436331E+02  0.10283086963E+03  0.16198138695E+03  0.10000000000E+01 0.  0.
    9000005    1    3    3    0    0  0.66915110628E+01  0.91666594485E+01 -0.32197373740E+02  0.34153694404E+02  0.10000000000E+01 0.  0.
          4    1    1    2  501    0 -0.12976768475E+03 -0.31861095780E+02  0.65618584126E+03  0.66965383043E+03  0.12700000000E+01 0.  1.
<mgrwt>
<rscale>  1 0.18297508E+03</rscale>
<asrwt>0</asrwt>
<pdfrwt beam="1">  1       21 0.12250743E+00 0.18297508E+03</pdfrwt>
<pdfrwt beam="2">  1        4 0.10690046E-01 0.18297508E+03</pdfrwt>
<totfact> 0.14298600E+03</totfact>
</mgrwt>
</event>
<event>
 6    4  0.7919556E-003  0.1423247E+03  0.7818608E-02  0.1210235E+00
         -4   -1    0    0    0  501 -0.00000000000E+00  0.00000000000E+00  0.18545211480E+03  0.18545646331E+03  0.12700000000E+01 0. -1.
         21   -1    0    0  501  502  0.00000000000E+00 -0.00000000000E+00 -0.73874949987E+02  0.73874949987E+02  0.00000000000E+00 0.  1.
         25    2    1    2    0    0 -0.38258016428E+02  0.56281606102E+02  0.12561891165E+03  0.18983264668E+03  0.12500011110E+03 0.  0.
    9000005    1    3    3    0    0  0.37013465631E+02  0.53469305157E+02  0.73970304050E+02  0.98496543661E+02  0.10000000000E+01 0.  0.
    9000005    1    3    3    0    0 -0.75271482059E+02  0.28123009451E+01  0.51648607599E+02  0.91336103020E+02  0.10000000000E+01 0.  0.
         -4    1    1    2    0  502  0.38258016428E+02 -0.56281606102E+02 -0.14041746840E+02  0.69498766613E+02  0.12700000000E+01 0.  1.
<mgrwt>
<rscale>  1 0.14232471E+03</rscale>
<asrwt>0</asrwt>
<pdfrwt beam="2">  1       21 0.11365377E-01 0.14232471E+03</pdfrwt>
<pdfrwt beam="1">  1       -4 0.28532269E-01 0.14232471E+03</pdfrwt>
<totfact> 0.30869286E+04</totfact>
</mgrwt>
</event>
<event>
 6    4  0.7919556E-003  0.1272044E+03  0.7818608E-02  0.1231664E+00
         21   -1    0    0  501  502  0.00000000000E+00  0.00000000000E+00  0.17670088539E+03  0.17670088539E+03  0.00000000000E+00 0. -1.
          4   -1    0    0  502    0 -0.00000000000E+00 -0.00000000000E+00 -0.52069269415E+02  0.52084755134E+02  0.12700000000E+01 0. -1.
         25    2    1    2    0    0  0.72850233299E+01 -0.22442199005E+02  0.29254365267E+02  0.13052498353E+03  0.12499691827E+03 0.  0.
    9000005    1    3    3    0    0 -0.56310172381E+02 -0.28099165671E+02  0.19761699211E+02  0.65969109291E+02  0.10000000000E+01 0.  0.
    9000005    1    3    3    0    0  0.63595195711E+02  0.56569666662E+01  0.94926660555E+01  0.64555874235E+02  0.10000000000E+01 0.  0.
          4    1    1    2  501    0 -0.72850233299E+01  0.22442199005E+02  0.95377250711E+02  0.98260657001E+02  0.12700000000E+01 0.  1.
<mgrwt>
<rscale>  1 0.12720438E+03</rscale>
<asrwt>0</asrwt>
<pdfrwt beam="1">  1       21 0.27184751E-01 0.12720438E+03</pdfrwt>
<pdfrwt beam="2">  1        4 0.80121992E-02 0.12720438E+03</pdfrwt>
<totfact> 0.57198785E+04</totfact>
</mgrwt>
</event>
<event>
 6    4  0.7919556E-003  0.1283683E+03  0.7818608E-02  0.1229897E+00
         -4   -1    0    0    0  501 -0.00000000000E+00  0.00000000000E+00  0.14882829448E+02  0.14936917767E+02  0.12700000000E+01 0.  1.
         21   -1    0    0  501  502  0.00000000000E+00 -0.00000000000E+00 -0.44283946978E+03  0.44283946978E+03  0.00000000000E+00 0.  1.
         25    2    1    2    0    0 -0.22477358998E+02  0.18655513798E+02 -0.29629471196E+03  0.32290705766E+03  0.12500060674E+03 0.  0.
    9000005    1    3    3    0    0  0.27875756890E+02 -0.11624302804E+02 -0.23876522135E+03  0.24066992576E+03  0.10000000000E+01 0.  0.
    9000005    1    3    3    0    0 -0.50353115888E+02  0.30279816602E+02 -0.57529490613E+02  0.82237131901E+02  0.10000000000E+01 0.  0.
         -4    1    1    2    0  502  0.22477358998E+02 -0.18655513798E+02 -0.13166192837E+03  0.13486932989E+03  0.12700000000E+01 0. -1.
<mgrwt>
<rscale>  1 0.12836827E+03</rscale>
<asrwt>0</asrwt>
<pdfrwt beam="2">  1       21 0.68129145E-01 0.12836827E+03</pdfrwt>
<pdfrwt beam="1">  1       -4 0.22939669E-02 0.12836827E+03</pdfrwt>
<totfact> 0.65492327E+04</totfact>
</mgrwt>
</event>
<event>
 6    4  0.7919556E-003  0.1283302E+03  0.7818608E-02  0.1229955E+00
          4   -1    0    0  502    0 -0.00000000000E+00  0.00000000000E+00  0.35866645727E+03  0.35866870573E+03  0.12700000000E+01 0.  1.
         21   -1    0    0  501  502  0.00000000000E+00 -0.00000000000E+00 -0.20440437684E+02  0.20440437684E+02  0.00000000000E+00 0. -1.
         25    2    1    2    0    0  0.24763101132E+02 -0.15178044383E+02  0.32005727408E+03  0.34482648858E+03  0.12500025732E+03 0.  0.
    9000005    1    3    3    0    0 -0.10940551803E+02 -0.35088947374E+02  0.29410375945E+03  0.29639323748E+03  0.10000000000E+01 0.  0.
    9000005    1    3    3    0    0  0.35703652935E+02  0.19910902991E+02  0.25953514627E+02  0.48433251102E+02  0.10000000000E+01 0.  0.
          4    1    1    2  501    0 -0.24763101132E+02  0.15178044383E+02  0.18168745508E+02  0.34282654831E+02  0.12700000000E+01 0. -1.
<mgrwt>
<rscale>  1 0.12833023E+03</rscale>
<asrwt>0</asrwt>
<pdfrwt beam="2">  1       21 0.31446830E-02 0.12833023E+03</pdfrwt>
<pdfrwt beam="1">  1        4 0.55182658E-01 0.12833023E+03</pdfrwt>
<totfact> 0.73947188E+04</totfact>
</mgrwt>
</event>
<event>
 6    4  0.7919556E-003  0.1287809E+03  0.7818608E-02  0.1229276E+00
          4   -1    0    0  502    0 -0.00000000000E+00  0.00000000000E+00  0.28940461747E+02  0.28968314175E+02  0.12700000000E+01 0. -1.
         21   -1    0    0  501  502  0.00000000000E+00 -0.00000000000E+00 -0.30653014888E+03  0.30653014888E+03  0.00000000000E+00 0.  1.
         25    2    1    2    0    0  0.30752369463E+02 -0.36763527294E+01 -0.12387090585E+03  0.17868551583E+03  0.12500115382E+03 0.  0.
    9000005    1    3    3    0    0  0.73791782320E+02  0.23559393531E+02 -0.68032106416E+02  0.10310014386E+03  0.10000000000E+01 0.  0.
    9000005    1    3    3    0    0 -0.43039412858E+02 -0.27235746261E+02 -0.55838799433E+02  0.75585371969E+02  0.10000000000E+01 0.  0.
          4    1    1    2  501    0 -0.30752369463E+02  0.36763527294E+01 -0.15371878129E+03  0.15681294723E+03  0.12700000000E+01 0.  1.
<mgrwt>
<rscale>  1 0.12878087E+03</rscale>
<asrwt>0</asrwt>
<pdfrwt beam="2">  1       21 0.47158487E-01 0.12878087E+03</pdfrwt>
<pdfrwt beam="1">  1        4 0.44547234E-02 0.12878087E+03</pdfrwt>
<totfact> 0.50135868E+04</totfact>
</mgrwt>
</event>
<event>
 6    4  0.7919556E-003  0.1292649E+03  0.7818608E-02  0.1228551E+00
         21   -1    0    0  501  502  0.00000000000E+00  0.00000000000E+00  0.50025215774E+03  0.50025215774E+03  0.00000000000E+00 0.  1.
          4   -1    0    0  502    0 -0.00000000000E+00 -0.00000000000E+00 -0.13910970623E+02  0.13968822559E+02  0.12700000000E+01 0.  1.
         25    2    1    2    0    0  0.18868796082E+02 -0.27095337707E+02  0.32974608130E+03  0.35417777095E+03  0.12497690393E+03 0.  0.
    9000005    1    3    3    0    0  0.66427603213E+01  0.21290012994E+02  0.28867465030E+03  0.28953660329E+03  0.10000000000E+01 0.  0.
    9000005    1    3    3    0    0  0.12226035760E+02 -0.48385350700E+02  0.41071430994E+02  0.64641167662E+02  0.10000000000E+01 0.  0.
          4    1    1    2  501    0 -0.18868796082E+02  0.27095337707E+02  0.15659510582E+03  0.16004320935E+03  0.12700000000E+01 0. -1.
<mgrwt>
<rscale>  1 0.12926490E+03</rscale>
<asrwt>0</asrwt>
<pdfrwt beam="1">  1       21 0.76961857E-01 0.12926490E+03</pdfrwt>
<pdfrwt beam="2">  1        4 0.21447239E-02 0.12926490E+03</pdfrwt>
<totfact> 0.55657681E+04</totfact>
</mgrwt>
</event>
<event>
 6    4  0.7919556E-003  0.1279757E+03  0.7818608E-02  0.1230491E+00
         21   -1    0    0  501  502  0.00000000000E+00  0.00000000000E+00  0.16229833069E+02  0.16229833069E+02  0.00000000000E+00 0.  1.
         -4   -1    0    0    0  501 -0.00000000000E+00 -0.00000000000E+00 -0.41899778739E+03  0.41899971210E+03  0.12700000000E+01 0. -1.
         25    2    1    2    0    0  0.53875171743E+01 -0.26937484782E+02 -0.37462641323E+03  0.39588221155E+03  0.12499248980E+03 0.  0.
    9000005    1    3    3    0    0 -0.44727892640E+02 -0.49757464800E+02 -0.14425154509E+03  0.15901540159E+03  0.10000000000E+01 0.  0.
    9000005    1    3    3    0    0  0.50115409814E+02  0.22819980018E+02 -0.23037486814E+03  0.23686680996E+03  0.10000000000E+01 0.  0.
         -4    1    1    2    0  502 -0.53875171743E+01  0.26937484782E+02 -0.28141541093E+02  0.39347333617E+02  0.12700000000E+01 0.  1.
<mgrwt>
<rscale>  1 0.12797568E+03</rscale>
<asrwt>0</asrwt>
<pdfrwt beam="1">  1       21 0.24968978E-02 0.12797568E+03</pdfrwt>
<pdfrwt beam="2">  1       -4 0.64465157E-01 0.12797568E+03</pdfrwt>
<totfact> 0.77813828E+04</totfact>
</mgrwt>
</event>
<event>
 6    4  0.7919556E-003  0.1280383E+03  0.7818608E-02  0.1230396E+00
         -4   -1    0    0    0  501 -0.00000000000E+00  0.00000000000E+00  0.13624435090E+04  0.13624441009E+04  0.12700000000E+01 0.  1.
         21   -1    0    0  501  502  0.00000000000E+00 -0.00000000000E+00 -0.16475159012E+02  0.16475159012E+02  0.00000000000E+00 0. -1.
         25    2    1    2    0    0  0.24940609010E+01 -0.27644110344E+02  0.13450378138E+04  0.13511182532E+04  0.12499358529E+03 0.  0.
    9000005    1    3    3    0    0 -0.65971757746E+01 -0.36591350727E+02  0.11201095070E+03  0.11802500902E+03  0.10000000000E+01 0.  0.
    9000005    1    3    3    0    0  0.90912366757E+01  0.89472403832E+01  0.12330268631E+04  0.12330932442E+04  0.10000000000E+01 0.  0.
         -4    1    1    2    0  502 -0.24940609010E+01  0.27644110344E+02  0.93053615733E+00  0.27801006709E+02  0.12700000000E+01 0. -1.
<mgrwt>
<rscale>  1 0.12803833E+03</rscale>
<asrwt>0</asrwt>
<pdfrwt beam="2">  1       21 0.25346409E-02 0.12803833E+03</pdfrwt>
<pdfrwt beam="1">  1       -4 0.20961042E+00 0.12803833E+03</pdfrwt>
<totfact> 0.43603450E+03</totfact>
</mgrwt>
</event>
<event>
 6    4  0.7919556E-003  0.1276951E+03  0.7818608E-02  0.1230916E+00
         21   -1    0    0  501  502  0.00000000000E+00  0.00000000000E+00  0.44605047891E+02  0.44605047891E+02  0.00000000000E+00 0. -1.
         -4   -1    0    0    0  501 -0.00000000000E+00 -0.00000000000E+00 -0.13633576287E+03  0.13634167792E+03  0.12700000000E+01 0. -1.
         25    2    1    2    0    0  0.44887653679E+01  0.25867838640E+02 -0.86255299087E+02  0.15409738374E+03  0.12496692748E+03 0.  0.
    9000005    1    3    3    0    0 -0.41873608653E+02  0.35945143808E+02  0.51593154706E+00  0.55197089148E+02  0.10000000000E+01 0.  0.
    9000005    1    3    3    0    0  0.46362374021E+02 -0.10077305169E+02 -0.86771230634E+02  0.98900294590E+02  0.10000000000E+01 0.  0.
         -4    1    1    2    0  502 -0.44887653679E+01 -0.25867838640E+02 -0.54754158929E+01  0.26849342070E+02  0.12700000000E+01 0.  1.
<mgrwt>
<rscale>  1 0.12769505E+03</rscale>
<asrwt>0</asrwt>
<pdfrwt beam="1">  1       21 0.68623151E-02 0.12769505E+03</pdfrwt>
<pdfrwt beam="2">  1       -4 0.20976578E-01 0.12769505E+03</pdfrwt>
<totfact> 0.12889818E+05</totfact>
</mgrwt>
</event>
<event>
 6    4  0.7919556E-003  0.1279724E+03  0.7818608E-02  0.1230496E+00
         -4   -1    0    0    0  501 -0.00000000000E+00  0.00000000000E+00  0.17230077715E+02  0.17276819096E+02  0.12700000000E+01 0. -1.
         21   -1    0    0  501  502  0.00000000000E+00 -0.00000000000E+00 -0.44739415352E+03  0.44739415352E+03  0.00000000000E+00 0. -1.
         25    2    1    2    0    0  0.76809423418E+01  0.26313000221E+02 -0.23498334207E+03  0.26757073777E+03  0.12500223119E+03 0.  0.
    9000005    1    3    3    0    0 -0.21212570465E+02 -0.34131076586E+01  0.65655502407E+01  0.22488417009E+02  0.10000000000E+01 0.  0.
    9000005    1    3    3    0    0  0.28893512807E+02  0.29726107880E+02 -0.24154889231E+03  0.24508232076E+03  0.10000000000E+01 0.  0.
         -4    1    1    2    0  502 -0.76809423418E+01 -0.26313000221E+02 -0.19518073373E+03  0.19710023484E+03  0.12700000000E+01 0.  1.
<mgrwt>
<rscale>  1 0.12797237E+03</rscale>
<asrwt>0</asrwt>
<pdfrwt beam="2">  1       21 0.68829879E-01 0.12797237E+03</pdfrwt>
<pdfrwt beam="1">  1       -4 0.26545150E-02 0.12797237E+03</pdfrwt>
<totfact> 0.51054589E+04</totfact>
</mgrwt>
</event>
<event>
 6    4  0.7919556E-003  0.1412063E+03  0.7818608E-02  0.1211715E+00
         21   -1    0    0  501  502  0.00000000000E+00  0.00000000000E+00  0.70545025276E+02  0.70545025276E+02  0.00000000000E+00 0.  1.
          4   -1    0    0  502    0 -0.00000000000E+00 -0.00000000000E+00 -0.15187390593E+03  0.15187921584E+03  0.12700000000E+01 0.  1.
         25    2    1    2    0    0  0.49341544338E+02 -0.43361152542E+02 -0.58962744141E+02  0.15302226340E+03  0.12499772139E+03 0.  0.
    9000005    1    3    3    0    0 -0.34553614885E+02 -0.41905740128E+02 -0.38693982430E+02  0.66695334421E+02  0.10000000000E+01 0.  0.
    9000005    1    3    3    0    0  0.83895159222E+02 -0.14554124146E+01 -0.20268761711E+02  0.86326928982E+02  0.10000000000E+01 0.  0.
          4    1    1    2  501    0 -0.49341544338E+02  0.43361152542E+02 -0.22366136516E+02  0.69401977710E+02  0.12700000000E+01 0. -1.
<mgrwt>
<rscale>  1 0.14120626E+03</rscale>
<asrwt>0</asrwt>
<pdfrwt beam="1">  1       21 0.10853081E-01 0.14120626E+03</pdfrwt>
<pdfrwt beam="2">  1        4 0.23366504E-01 0.14120626E+03</pdfrwt>
<totfact> 0.48469373E+04</totfact>
</mgrwt>
</event>
<event>
 6    4  0.7919556E-003  0.1369882E+03  0.7818608E-02  0.1217440E+00
         21   -1    0    0  501  502  0.00000000000E+00  0.00000000000E+00  0.22305060483E+03  0.22305060483E+03  0.00000000000E+00 0. -1.
         -4   -1    0    0    0  501 -0.00000000000E+00 -0.00000000000E+00 -0.24525592796E+03  0.24525921613E+03  0.12700000000E+01 0.  1.
         25    2    1    2    0    0  0.55143861321E+02 -0.10000578649E+02 -0.22196490957E+03  0.26083364813E+03  0.12499965560E+03 0.  0.
    9000005    1    3    3    0    0 -0.26281780109E+02 -0.22340797349E+01 -0.23748205669E+01  0.26502129172E+02  0.10000000000E+01 0.  0.
    9000005    1    3    3    0    0  0.81425641430E+02 -0.77664989137E+01 -0.21959008901E+03  0.23433151896E+03  0.10000000000E+01 0.  0.
         -4    1    1    2    0  502 -0.55143861321E+02  0.10000578649E+02  0.19975958645E+03  0.20747617283E+03  0.12700000000E+01 0. -1.
<mgrwt>
<rscale>  1 0.13698821E+03</rscale>
<asrwt>0</asrwt>
<pdfrwt beam="1">  1       21 0.34315478E-01 0.13698821E+03</pdfrwt>
<pdfrwt beam="2">  1       -4 0.37732212E-01 0.13698821E+03</pdfrwt>
<totfact> 0.23196880E+03</totfact>
</mgrwt>
</event>
<event>
 6    4  0.7919556E-003  0.1271421E+03  0.7818608E-02  0.1231759E+00
         21   -1    0    0  501  502  0.00000000000E+00  0.00000000000E+00  0.13096872127E+02  0.13096872127E+02  0.00000000000E+00 0.  1.
          4   -1    0    0  502    0 -0.00000000000E+00 -0.00000000000E+00 -0.58012989128E+03  0.58013128140E+03  0.12700000000E+01 0.  1.
         25    2    1    2    0    0 -0.22256030252E+02 -0.66578814244E+01 -0.54971056575E+03  0.56422231688E+03  0.12500183398E+03 0.  0.
    9000005    1    3    3    0    0  0.48073142633E+02 -0.14204971807E+02 -0.14620839164E+03  0.15456617371E+03  0.10000000000E+01 0.  0.
    9000005    1    3    3    0    0 -0.70329172885E+02  0.75470903821E+01 -0.40350217411E+03  0.40965614317E+03  0.10000000000E+01 0.  0.
          4    1    1    2  501    0  0.22256030252E+02  0.66578814244E+01 -0.17322453401E+02  0.29005836645E+02  0.12700000000E+01 0. -1.
<mgrwt>
<rscale>  1 0.12714211E+03</rscale>
<asrwt>0</asrwt>
<pdfrwt beam="1">  1       21 0.20149034E-02 0.12714211E+03</pdfrwt>
<pdfrwt beam="2">  1        4 0.89255597E-01 0.12714211E+03</pdfrwt>
<totfact> 0.54022684E+04</totfact>
</mgrwt>
</event>
<event>
 6    4  0.7919556E-003  0.1300000E+03  0.7818608E-02  0.1227456E+00
         -4   -1    0    0    0  501 -0.00000000000E+00  0.00000000000E+00  0.10331843256E+04  0.10331851062E+04  0.12700000000E+01 0. -1.
         21   -1    0    0  501  502  0.00000000000E+00 -0.00000000000E+00 -0.83455708923E+01  0.83455708923E+01  0.00000000000E+00 0. -1.
         25    2    1    2    0    0 -0.11932540356E+02  0.33649000553E+02  0.94704963045E+03  0.95593043457E+03  0.12500140981E+03 0.  0.
    9000005    1    3    3    0    0  0.38713096600E+02 -0.22773396869E+02  0.54096648265E+03  0.54282876379E+03  0.10000000000E+01 0.  0.
    9000005    1    3    3    0    0 -0.50645636956E+02  0.56422397422E+02  0.40608314780E+03  0.41310167078E+03  0.10000000000E+01 0.  0.
         -4    1    1    2    0  502  0.11932540356E+02 -0.33649000553E+02  0.77789124275E+02  0.85600242482E+02  0.12700000000E+01 0.  1.
<mgrwt>
<rscale>  1 0.12999997E+03</rscale>
<asrwt>0</asrwt>
<pdfrwt beam="2">  1       21 0.12839348E-02 0.12999997E+03</pdfrwt>
<pdfrwt beam="1">  1       -4 0.15895883E+00 0.12999997E+03</pdfrwt>
<totfact> 0.27825686E+04</totfact>
</mgrwt>
</event>
<event>
 6    4  0.7919556E-003  0.1445373E+03  0.7818608E-02  0.1207351E+00
         21   -1    0    0  501  502  0.00000000000E+00  0.00000000000E+00  0.42394171488E+03  0.42394171488E+03  0.00000000000E+00 0. -1.
         -4   -1    0    0    0  501 -0.00000000000E+00 -0.00000000000E+00 -0.32212268742E+02  0.32237294513E+02  0.12700000000E+01 0.  1.
         25    2    1    2    0    0  0.74388100739E+01 -0.72196164992E+02  0.33227066514E+03  0.36234627698E+03  0.12499362940E+03 0.  0.
    9000005    1    3    3    0    0  0.27623280916E+01 -0.23737886282E+02 -0.25032273758E+01  0.24049612241E+02  0.10000000000E+01 0.  0.
    9000005    1    3    3    0    0  0.46764819823E+01 -0.48458278710E+02  0.33477389252E+03  0.33829666474E+03  0.10000000000E+01 0.  0.
         -4    1    1    2    0  502 -0.74388100739E+01  0.72196164992E+02  0.59458780990E+02  0.93832732411E+02  0.12700000000E+01 0. -1.
<mgrwt>
<rscale>  1 0.14453729E+03</rscale>
<asrwt>0</asrwt>
<pdfrwt beam="1">  1       21 0.65221798E-01 0.14453729E+03</pdfrwt>
<pdfrwt beam="2">  1       -4 0.49578054E-02 0.14453729E+03</pdfrwt>
<totfact> 0.21609221E+04</totfact>
</mgrwt>
</event>
<event>
 6    4  0.7919556E-003  0.1334267E+03  0.7818608E-02  0.1222458E+00
         -4   -1    0    0    0  501 -0.00000000000E+00  0.00000000000E+00  0.77270758623E+03  0.77270862990E+03  0.12700000000E+01 0.  1.
         21   -1    0    0  501  502  0.00000000000E+00 -0.00000000000E+00 -0.11388719599E+02  0.11388719599E+02  0.00000000000E+00 0.  1.
         25    2    1    2    0    0 -0.36521767079E+02  0.29051467046E+02  0.64698029317E+03  0.66059532729E+03  0.12499943791E+03 0.  0.
    9000005    1    3    3    0    0 -0.53149197357E+02  0.17962890365E+02  0.11227425796E+03  0.12551498560E+03  0.10000000000E+01 0.  0.
    9000005    1    3    3    0    0  0.16627430278E+02  0.11088576681E+02  0.53470603522E+03  0.53508034169E+03  0.10000000000E+01 0.  0.
         -4    1    1    2    0  502  0.36521767079E+02 -0.29051467046E+02  0.11433857346E+03  0.12350202220E+03  0.12700000000E+01 0. -1.
<mgrwt>
<rscale>  1 0.13342671E+03</rscale>
<asrwt>0</asrwt>
<pdfrwt beam="2">  1       21 0.17521113E-02 0.13342671E+03</pdfrwt>
<pdfrwt beam="1">  1       -4 0.11888358E+00 0.13342671E+03</pdfrwt>
<totfact> 0.34984970E+04</totfact>
</mgrwt>
</event>
<event>
 6    4  0.7919556E-003  0.1266506E+03  0.7818608E-02  0.1232512E+00
          4   -1    0    0  502    0 -0.00000000000E+00  0.00000000000E+00  0.35656000876E+02  0.35678611219E+02  0.12700000000E+01 0. -1.
         21   -1    0    0  501  502  0.00000000000E+00 -0.00000000000E+00 -0.24361232157E+03  0.24361232157E+03  0.00000000000E+00 0.  1.
         25    2    1    2    0    0 -0.20379434386E+02  0.75812889477E+00 -0.80193559950E+02  0.14990456551E+03  0.12499790237E+03 0.  0.
    9000005    1    3    3    0    0 -0.59539558939E+02 -0.37361507089E+02 -0.57103403404E+02  0.90568427010E+02  0.10000000000E+01 0.  0.
    9000005    1    3    3    0    0  0.39160124553E+02  0.38119635984E+02 -0.23090156545E+02  0.59336138498E+02  0.10000000000E+01 0.  0.
          4    1    1    2  501    0  0.20379434386E+02 -0.75812889477E+00 -0.12776276075E+03  0.12938636728E+03  0.12700000000E+01 0.  1.
<mgrwt>
<rscale>  1 0.12665059E+03</rscale>
<asrwt>0</asrwt>
<pdfrwt beam="2">  1       21 0.37478819E-01 0.12665059E+03</pdfrwt>
<pdfrwt beam="1">  1        4 0.54875324E-02 0.12665059E+03</pdfrwt>
<totfact> 0.56857473E+04</totfact>
</mgrwt>
</event>
<event>
 6    4  0.7919556E-003  0.1267108E+03  0.7818608E-02  0.1232420E+00
         -4   -1    0    0    0  501 -0.00000000000E+00  0.00000000000E+00  0.68255619819E+01  0.69427081437E+01  0.12700000000E+01 0.  1.
         21   -1    0    0  501  502  0.00000000000E+00 -0.00000000000E+00 -0.86114502958E+03  0.86114502958E+03  0.00000000000E+00 0.  1.
         25    2    1    2    0    0 -0.16428213155E+02  0.12707159420E+02 -0.61813852843E+03  0.63099196169E+03  0.12499702915E+03 0.  0.
    9000005    1    3    3    0    0 -0.14214125779E+02  0.12018638761E+01 -0.16538826294E+01  0.14395178922E+02  0.10000000000E+01 0.  0.
    9000005    1    3    3    0    0 -0.22140873753E+01  0.11505295544E+02 -0.61648464580E+03  0.61659678276E+03  0.10000000000E+01 0.  0.
         -4    1    1    2    0  502  0.16428213155E+02 -0.12707159420E+02 -0.23618093917E+03  0.23709577604E+03  0.12700000000E+01 0.  1.
<mgrwt>
<rscale>  1 0.12671075E+03</rscale>
<asrwt>0</asrwt>
<pdfrwt beam="2">  1       21 0.13248383E+00 0.12671075E+03</pdfrwt>
<pdfrwt beam="1">  1       -4 0.10591699E-02 0.12671075E+03</pdfrwt>
<totfact> 0.45452913E+04</totfact>
</mgrwt>
</event>
<event>
 6    4  0.7919556E-003  0.1269872E+03  0.7818608E-02  0.1231996E+00
          4   -1    0    0  502    0 -0.00000000000E+00  0.00000000000E+00  0.26248016203E+02  0.26278722469E+02  0.12700000000E+01 0.  1.
         21   -1    0    0  501  502  0.00000000000E+00 -0.00000000000E+00 -0.21437332283E+03  0.21437332283E+03  0.00000000000E+00 0.  1.
         25    2    1    2    0    0 -0.12031730580E+02 -0.18877185717E+02 -0.16743039983E+03  0.21013970765E+03  0.12499858904E+03 0.  0.
    9000005    1    3    3    0    0 -0.32392598053E+02 -0.26425843534E+02 -0.18015957659E+03  0.18494885415E+03  0.10000000000E+01 0.  0.
    9000005    1    3    3    0    0  0.20360867473E+02  0.75486578171E+01  0.12729176759E+02  0.25190853500E+02  0.10000000000E+01 0.  0.
          4    1    1    2  501    0  0.12031730580E+02  0.18877185717E+02 -0.20694906794E+02  0.30512337645E+02  0.12700000000E+01 0. -1.
<mgrwt>
<rscale>  1 0.12698724E+03</rscale>
<asrwt>0</asrwt>
<pdfrwt beam="2">  1       21 0.32980512E-01 0.12698724E+03</pdfrwt>
<pdfrwt beam="1">  1        4 0.40408077E-02 0.12698724E+03</pdfrwt>
<totfact> 0.11931737E+05</totfact>
</mgrwt>
</event>
<event>
 6    4  0.7919556E-003  0.1266740E+03  0.7818608E-02  0.1232476E+00
          4   -1    0    0  502    0 -0.00000000000E+00  0.00000000000E+00  0.31659224459E+03  0.31659479186E+03  0.12700000000E+01 0.  1.
         21   -1    0    0  501  502  0.00000000000E+00 -0.00000000000E+00 -0.25479897974E+02  0.25479897974E+02  0.00000000000E+00 0.  1.
         25    2    1    2    0    0  0.12797674552E+02 -0.16039118686E+02  0.29509464655E+03  0.32113416895E+03  0.12500108098E+03 0.  0.
    9000005    1    3    3    0    0  0.68026868927E+02 -0.48253305448E+01  0.19012441985E+03  0.20198820197E+03  0.10000000000E+01 0.  0.
    9000005    1    3    3    0    0 -0.55229194375E+02 -0.11213788141E+02  0.10497022670E+03  0.11914596698E+03  0.10000000000E+01 0.  0.
          4    1    1    2  501    0 -0.12797674552E+02  0.16039118686E+02 -0.39822999325E+01  0.20940520884E+02  0.12700000000E+01 0. -1.
<mgrwt>
<rscale>  1 0.12667401E+03</rscale>
<asrwt>0</asrwt>
<pdfrwt beam="2">  1       21 0.39199845E-02 0.12667401E+03</pdfrwt>
<pdfrwt beam="1">  1        4 0.48709127E-01 0.12667401E+03</pdfrwt>
<totfact> 0.66224163E+04</totfact>
</mgrwt>
</event>
<event>
 6    4  0.7919556E-003  0.1397452E+03  0.7818608E-02  0.1213672E+00
         -4   -1    0    0    0  501 -0.00000000000E+00  0.00000000000E+00  0.92983555324E+01  0.93846851629E+01  0.12700000000E+01 0. -1.
         21   -1    0    0  501  502  0.00000000000E+00 -0.00000000000E+00 -0.12269662117E+04  0.12269662117E+04  0.00000000000E+00 0. -1.
         25    2    1    2    0    0  0.62448643792E+02 -0.18653085265E+01 -0.10057381953E+04  0.10154004351E+04  0.12500165470E+03 0.  0.
    9000005    1    3    3    0    0  0.14326420105E+02  0.59682858748E+02 -0.47127839098E+03  0.47525952042E+03  0.10000000000E+01 0.  0.
    9000005    1    3    3    0    0  0.48122223688E+02 -0.61548167275E+02 -0.53445980434E+03  0.54014091473E+03  0.10000000000E+01 0.  0.
         -4    1    1    2    0  502 -0.62448643792E+02  0.18653085265E+01 -0.21192966087E+03  0.22095046174E+03  0.12700000000E+01 0.  1.
<mgrwt>
<rscale>  1 0.13974522E+03</rscale>
<asrwt>0</asrwt>
<pdfrwt beam="2">  1       21 0.18876406E+00 0.13974522E+03</pdfrwt>
<pdfrwt beam="1">  1       -4 0.14372074E-02 0.13974522E+03</pdfrwt>
<totfact> 0.11272150E+04</totfact>
</mgrwt>
</event>
<event>
 6    4  0.7919556E-003  0.1313928E+03  0.7818608E-02  0.1225404E+00
         -4   -1    0    0    0  501 -0.00000000000E+00  0.00000000000E+00  0.10933629283E+02  0.11007140832E+02  0.12700000000E+01 0. -1.
         21   -1    0    0  501  502  0.00000000000E+00 -0.00000000000E+00 -0.80277089004E+03  0.80277089004E+03  0.00000000000E+00 0.  1.
         25    2    1    2    0    0  0.40456422677E+02  0.15263607371E+01 -0.42856142803E+03  0.44825102030E+03  0.12500011078E+03 0.  0.
    9000005    1    3    3    0    0  0.71536377476E+02  0.35456296787E+02 -0.32924597442E+03  0.33878977841E+03  0.10000000000E+01 0.  0.
    9000005    1    3    3    0    0 -0.31079954798E+02 -0.33929936050E+02 -0.99315453612E+02  0.10946124189E+03  0.10000000000E+01 0.  0.
         -4    1    1    2    0  502 -0.40456422677E+02 -0.15263607371E+01 -0.36327583273E+03  0.36552701057E+03  0.12700000000E+01 0.  1.
<mgrwt>
<rscale>  1 0.13139284E+03</rscale>
<asrwt>0</asrwt>
<pdfrwt beam="2">  1       21 0.12350323E+00 0.13139284E+03</pdfrwt>
<pdfrwt beam="1">  1       -4 0.16878286E-02 0.13139284E+03</pdfrwt>
<totfact> 0.26746484E+04</totfact>
</mgrwt>
</event>
<event>
 6    4  0.7919556E-003  0.1273101E+03  0.7818608E-02  0.1231503E+00
         -4   -1    0    0    0  501 -0.00000000000E+00  0.00000000000E+00  0.19552102386E+03  0.19552514844E+03  0.12700000000E+01 0. -1.
         21   -1    0    0  501  502  0.00000000000E+00 -0.00000000000E+00 -0.32246178308E+02  0.32246178308E+02  0.00000000000E+00 0. -1.
         25    2    1    2    0    0 -0.94128556728E+00  0.24130005425E+02  0.15819749202E+03  0.20306230817E+03  0.12499884534E+03 0.  0.
    9000005    1    3    3    0    0 -0.39782981592E+02  0.21958573803E+01  0.15304269878E+03  0.15814732076E+03  0.10000000000E+01 0.  0.
    9000005    1    3    3    0    0  0.38841696025E+02  0.21934148045E+02  0.51547932422E+01  0.44914987409E+02  0.10000000000E+01 0.  0.
         -4    1    1    2    0  502  0.94128556728E+00 -0.24130005425E+02  0.50773535362E+01  0.24709018582E+02  0.12700000000E+01 0.  1.
<mgrwt>
<rscale>  1 0.12731007E+03</rscale>
<asrwt>0</asrwt>
<pdfrwt beam="2">  1       21 0.49609506E-02 0.12731007E+03</pdfrwt>
<pdfrwt beam="1">  1       -4 0.30082398E-01 0.12731007E+03</pdfrwt>
<totfact> 0.11470867E+05</totfact>
</mgrwt>
</event>
<event>
 6    4  0.7919556E-003  0.1303536E+03  0.7818608E-02  0.1226932E+00
         21   -1    0    0  501  502  0.00000000000E+00  0.00000000000E+00  0.20863369150E+03  0.20863369150E+03  0.00000000000E+00 0. -1.
         -4   -1    0    0    0  501 -0.00000000000E+00 -0.00000000000E+00 -0.35380668079E+02  0.35403454263E+02  0.12700000000E+01 0.  1.
         25    2    1    2    0    0  0.35276084612E+02 -0.11080159405E+02  0.10911983634E+03  0.16999762481E+03  0.12499952672E+03 0.  0.
    9000005    1    3    3    0    0  0.13756736953E+02 -0.13296169582E+02  0.13494264902E+03  0.13629583435E+03  0.10000000000E+01 0.  0.
    9000005    1    3    3    0    0  0.21519347659E+02  0.22160101772E+01 -0.25822812684E+02  0.33701790452E+02  0.10000000000E+01 0.  0.
         -4    1    1    2    0  502 -0.35276084612E+02  0.11080159405E+02  0.64133187083E+02  0.74039520957E+02  0.12700000000E+01 0. -1.
<mgrwt>
<rscale>  1 0.13035357E+03</rscale>
<asrwt>0</asrwt>
<pdfrwt beam="1">  1       21 0.32097490E-01 0.13035357E+03</pdfrwt>
<pdfrwt beam="2">  1       -4 0.54452300E-02 0.13035357E+03</pdfrwt>
<totfact> 0.78310697E+04</totfact>
</mgrwt>
</event>
<event>
 6    4  0.7919556E-003  0.1384534E+03  0.7818608E-02  0.1215425E+00
         21   -1    0    0  501  502  0.00000000000E+00  0.00000000000E+00  0.50660067439E+02  0.50660067439E+02  0.00000000000E+00 0. -1.
         -4   -1    0    0    0  501 -0.00000000000E+00 -0.00000000000E+00 -0.74306323602E+03  0.74306432133E+03  0.12700000000E+01 0.  1.
         25    2    1    2    0    0 -0.35171954831E+02  0.48068171778E+02 -0.71628288149E+03  0.72954129806E+03  0.12498689414E+03 0.  0.
    9000005    1    3    3    0    0  0.15459886575E+01  0.80415226424E+02 -0.56073402363E+03  0.56647386875E+03  0.10000000000E+01 0.  0.
    9000005    1    3    3    0    0 -0.36717943488E+02 -0.32347054646E+02 -0.15554885786E+03  0.16306742930E+03  0.10000000000E+01 0.  0.
         -4    1    1    2    0  502  0.35171954831E+02 -0.48068171778E+02  0.23879712906E+02  0.64183090711E+02  0.12700000000E+01 0. -1.
<mgrwt>
<rscale>  1 0.13845338E+03</rscale>
<asrwt>0</asrwt>
<pdfrwt beam="1">  1       21 0.77938571E-02 0.13845338E+03</pdfrwt>
<pdfrwt beam="2">  1       -4 0.11431872E+00 0.13845338E+03</pdfrwt>
<totfact> 0.32341893E+03</totfact>
</mgrwt>
</event>
<event>
 6    4  0.7919556E-003  0.1268489E+03  0.7818608E-02  0.1232208E+00
         -4   -1    0    0    0  501 -0.00000000000E+00  0.00000000000E+00  0.84260152343E+01  0.85211872840E+01  0.12700000000E+01 0.  1.
         21   -1    0    0  501  502  0.00000000000E+00 -0.00000000000E+00 -0.67595580592E+03  0.67595580592E+03  0.00000000000E+00 0.  1.
         25    2    1    2    0    0  0.64066738734E+01 -0.20631087471E+02 -0.51355890676E+03  0.52899280354E+03  0.12499579288E+03 0.  0.
    9000005    1    3    3    0    0  0.38401493580E+02  0.25496712931E+02 -0.39642859067E+03  0.39910071985E+03  0.10000000000E+01 0.  0.
    9000005    1    3    3    0    0 -0.31994819706E+02 -0.46127800402E+02 -0.11713031609E+03  0.12989208369E+03  0.10000000000E+01 0.  0.
         -4    1    1    2    0  502 -0.64066738734E+01  0.20631087471E+02 -0.15397088392E+03  0.15548418967E+03  0.12700000000E+01 0. -1.
<mgrwt>
<rscale>  1 0.12684887E+03</rscale>
<asrwt>0</asrwt>
<pdfrwt beam="2">  1       21 0.10399319E+00 0.12684887E+03</pdfrwt>
<pdfrwt beam="1">  1       -4 0.13037229E-02 0.12684887E+03</pdfrwt>
<totfact> 0.59754757E+04</totfact>
</mgrwt>
</event>
<event>
 6    4  0.7919556E-003  0.1316107E+03  0.7818608E-02  0.1225085E+00
          4   -1    0    0  502    0 -0.00000000000E+00  0.00000000000E+00  0.38769644057E+03  0.38769852067E+03  0.12700000000E+01 0. -1.
         21   -1    0    0  501  502  0.00000000000E+00 -0.00000000000E+00 -0.42378449138E+02  0.42378449138E+02  0.00000000000E+00 0.  1.
         25    2    1    2    0    0  0.25147921682E+01  0.41116112499E+02  0.36232915823E+03  0.38549164058E+03  0.12499810865E+03 0.  0.
    9000005    1    3    3    0    0 -0.29426810088E+01 -0.15235917892E+02  0.30328602911E+03  0.30368438883E+03  0.10000000000E+01 0.  0.
    9000005    1    3    3    0    0  0.54574731769E+01  0.56352030391E+02  0.59043129121E+02  0.81807251751E+02  0.10000000000E+01 0.  0.
          4    1    1    2  501    0 -0.25147921682E+01 -0.41116112499E+02 -0.17011166797E+02  0.44585329229E+02  0.12700000000E+01 0.  1.
<mgrwt>
<rscale>  1 0.13161074E+03</rscale>
<asrwt>0</asrwt>
<pdfrwt beam="2">  1       21 0.65197617E-02 0.13161074E+03</pdfrwt>
<pdfrwt beam="1">  1        4 0.59647228E-01 0.13161074E+03</pdfrwt>
<totfact> 0.18640018E+04</totfact>
</mgrwt>
</event>
<event>
 6    4  0.7919556E-003  0.1278819E+03  0.7818608E-02  0.1230633E+00
         -4   -1    0    0    0  501 -0.00000000000E+00  0.00000000000E+00  0.17101765898E+04  0.17101770614E+04  0.12700000000E+01 0.  1.
         21   -1    0    0  501  502  0.00000000000E+00 -0.00000000000E+00 -0.36526739377E+01  0.36526739377E+01  0.00000000000E+00 0.  1.
         25    2    1    2    0    0 -0.92181230227E+01  0.25389190694E+02  0.15178973939E+04  0.15232748548E+04  0.12499680013E+03 0.  0.
    9000005    1    3    3    0    0  0.19487732937E+02 -0.46345765588E+02  0.65215724803E+03  0.65409309573E+03  0.10000000000E+01 0.  0.
    9000005    1    3    3    0    0 -0.28705855959E+02  0.71734956281E+02  0.86574014587E+03  0.86918175906E+03  0.10000000000E+01 0.  0.
         -4    1    1    2    0  502  0.92181230227E+01 -0.25389190694E+02  0.18862652198E+03  0.19055488052E+03  0.12700000000E+01 0. -1.
<mgrwt>
<rscale>  1 0.12788192E+03</rscale>
<asrwt>0</asrwt>
<pdfrwt beam="2">  1       21 0.56195120E-03 0.12788192E+03</pdfrwt>
<pdfrwt beam="1">  1       -4 0.26312047E+00 0.12788192E+03</pdfrwt>
<totfact> 0.23128161E+04</totfact>
</mgrwt>
</event>
<event>
 6    4  0.7919556E-003  0.1419551E+03  0.7818608E-02  0.1210722E+00
         21   -1    0    0  501  502  0.00000000000E+00  0.00000000000E+00  0.80786396440E+02  0.80786396440E+02  0.00000000000E+00 0.  1.
          4   -1    0    0  502    0 -0.00000000000E+00 -0.00000000000E+00 -0.15626209922E+03  0.15626726002E+03  0.12700000000E+01 0.  1.
         25    2    1    2    0    0  0.54908933822E+02  0.38854469712E+02 -0.90193813288E+02  0.16818496614E+03  0.12500639203E+03 0.  0.
    9000005    1    3    3    0    0 -0.39775726077E+02  0.56882881805E+00 -0.23856266466E+02  0.46395618337E+02  0.10000000000E+01 0.  0.
    9000005    1    3    3    0    0  0.94684659899E+02  0.38285640894E+02 -0.66337546821E+02  0.12178934780E+03  0.10000000000E+01 0.  0.
          4    1    1    2  501    0 -0.54908933822E+02 -0.38854469712E+02  0.14718110504E+02  0.68868690324E+02  0.12700000000E+01 0. -1.
<mgrwt>
<rscale>  1 0.14195513E+03</rscale>
<asrwt>0</asrwt>
<pdfrwt beam="1">  1       21 0.12428677E-01 0.14195513E+03</pdfrwt>
<pdfrwt beam="2">  1        4 0.24041487E-01 0.14195513E+03</pdfrwt>
<totfact> 0.36201423E+04</totfact>
</mgrwt>
</event>
<event>
 6    4  0.7919556E-003  0.1307693E+03  0.7818608E-02  0.1226319E+00
          4   -1    0    0  502    0 -0.00000000000E+00  0.00000000000E+00  0.21022826641E+03  0.21023210244E+03  0.12700000000E+01 0. -1.
         21   -1    0    0  501  502  0.00000000000E+00 -0.00000000000E+00 -0.36728764109E+02  0.36728764109E+02  0.00000000000E+00 0.  1.
         25    2    1    2    0    0 -0.35447013074E+02 -0.14802043216E+02  0.15903450111E+03  0.20589457406E+03  0.12500004747E+03 0.  0.
    9000005    1    3    3    0    0  0.16110132278E+02  0.18971386012E+02  0.13879813008E+03  0.14101549830E+03  0.10000000000E+01 0.  0.
    9000005    1    3    3    0    0 -0.51557145352E+02 -0.33773429229E+02  0.20236371031E+02  0.64879075758E+02  0.10000000000E+01 0.  0.
          4    1    1    2  501    0  0.35447013074E+02  0.14802043216E+02  0.14465001190E+02  0.41066292488E+02  0.12700000000E+01 0.  1.
<mgrwt>
<rscale>  1 0.13076927E+03</rscale>
<asrwt>0</asrwt>
<pdfrwt beam="2">  1       21 0.56505793E-02 0.13076927E+03</pdfrwt>
<pdfrwt beam="1">  1        4 0.32344793E-01 0.13076927E+03</pdfrwt>
<totfact> 0.80597480E+04</totfact>
</mgrwt>
</event>
<event>
 6    4  0.7919556E-003  0.1278219E+03  0.7818608E-02  0.1230724E+00
          4   -1    0    0  502    0 -0.00000000000E+00  0.00000000000E+00  0.27774271539E+03  0.27774561896E+03  0.12700000000E+01 0. -1.
         21   -1    0    0  501  502  0.00000000000E+00 -0.00000000000E+00 -0.24979080455E+02  0.24979080455E+02  0.00000000000E+00 0. -1.
         25    2    1    2    0    0  0.64835737058E+01  0.25917243280E+02  0.24240780593E+03  0.27404375938E+03  0.12499878979E+03 0.  0.
    9000005    1    3    3    0    0  0.45142694770E+02 -0.32380478992E+02  0.82090492276E+02  0.99127227506E+02  0.10000000000E+01 0.  0.
    9000005    1    3    3    0    0 -0.38659121065E+02  0.58297722271E+02  0.16031731366E+03  0.17491653187E+03  0.10000000000E+01 0.  0.
          4    1    1    2  501    0 -0.64835737058E+01 -0.25917243280E+02  0.10355829003E+02  0.28680940040E+02  0.12700000000E+01 0.  1.
<mgrwt>
<rscale>  1 0.12782190E+03</rscale>
<asrwt>0</asrwt>
<pdfrwt beam="2">  1       21 0.38429357E-02 0.12782190E+03</pdfrwt>
<pdfrwt beam="1">  1        4 0.42732353E-01 0.12782190E+03</pdfrwt>
<totfact> 0.89097488E+04</totfact>
</mgrwt>
</event>
<event>
 6    4  0.7919556E-003  0.1284936E+03  0.7818608E-02  0.1229708E+00
          4   -1    0    0  502    0 -0.00000000000E+00  0.00000000000E+00  0.42006400702E+03  0.42006592684E+03  0.12700000000E+01 0.  1.
         21   -1    0    0  501  502  0.00000000000E+00 -0.00000000000E+00 -0.14986548891E+02  0.14986548891E+02  0.00000000000E+00 0.  1.
         25    2    1    2    0    0  0.67423537921E+01  0.28979162927E+02  0.34054047704E+03  0.36397585478E+03  0.12500142054E+03 0.  0.
    9000005    1    3    3    0    0  0.65856408006E+02  0.18785611936E+02  0.17948264976E+03  0.19210670799E+03  0.10000000000E+01 0.  0.
    9000005    1    3    3    0    0 -0.59114054213E+02  0.10193550991E+02  0.16105782728E+03  0.17186914678E+03  0.10000000000E+01 0.  0.
          4    1    1    2  501    0 -0.67423537921E+01 -0.28979162927E+02  0.64536981082E+02  0.71076620951E+02  0.12700000000E+01 0. -1.
<mgrwt>
<rscale>  1 0.12849360E+03</rscale>
<asrwt>0</asrwt>
<pdfrwt beam="2">  1       21 0.23056232E-02 0.12849360E+03</pdfrwt>
<pdfrwt beam="1">  1        4 0.64629509E-01 0.12849360E+03</pdfrwt>
<totfact> 0.88145878E+04</totfact>
</mgrwt>
</event>
<event>
 6    4  0.7919556E-003  0.1294072E+03  0.7818608E-02  0.1228338E+00
         -4   -1    0    0    0  501 -0.00000000000E+00  0.00000000000E+00  0.25505018041E+02  0.25536617733E+02  0.12700000000E+01 0. -1.
         21   -1    0    0  501  502  0.00000000000E+00 -0.00000000000E+00 -0.26324585268E+03  0.26324585268E+03  0.00000000000E+00 0. -1.
         25    2    1    2    0    0 -0.23526396708E+02 -0.23796921247E+02 -0.17481111548E+03  0.21749749825E+03  0.12500580325E+03 0.  0.
    9000005    1    3    3    0    0 -0.59932915485E+02  0.26282308098E+02 -0.70548393303E+02  0.96232997850E+02  0.10000000000E+01 0.  0.
    9000005    1    3    3    0    0  0.36406518777E+02 -0.50079229345E+02 -0.10426272217E+03  0.12126450040E+03  0.10000000000E+01 0.  0.
         -4    1    1    2    0  502  0.23526396708E+02  0.23796921247E+02 -0.62929719157E+02  0.71284972162E+02  0.12700000000E+01 0.  1.
<mgrwt>
<rscale>  1 0.12940725E+03</rscale>
<asrwt>0</asrwt>
<pdfrwt beam="2">  1       21 0.40499362E-01 0.12940725E+03</pdfrwt>
<pdfrwt beam="1">  1       -4 0.39265153E-02 0.12940725E+03</pdfrwt>
<totfact> 0.83439980E+04</totfact>
</mgrwt>
</event>
<event>
 6    4  0.7919556E-003  0.1274158E+03  0.7818608E-02  0.1231341E+00
          4   -1    0    0  502    0 -0.00000000000E+00  0.00000000000E+00  0.47066119251E+02  0.47083250540E+02  0.12700000000E+01 0. -1.
         21   -1    0    0  501  502  0.00000000000E+00 -0.00000000000E+00 -0.12711855483E+03  0.12711855483E+03  0.00000000000E+00 0. -1.
         25    2    1    2    0    0  0.23624032688E+02 -0.71841049894E+01 -0.54306571883E+02  0.13850630590E+03  0.12500034696E+03 0.  0.
    9000005    1    3    3    0    0  0.10287910210E+02  0.43976857116E+02  0.18251912131E+02  0.48723067994E+02  0.10000000000E+01 0.  0.
    9000005    1    3    3    0    0  0.13336122478E+02 -0.51160962106E+02 -0.72558484014E+02  0.89783237905E+02  0.10000000000E+01 0.  0.
          4    1    1    2  501    0 -0.23624032688E+02  0.71841049894E+01 -0.25745863693E+02  0.35695499468E+02  0.12700000000E+01 0.  1.
<mgrwt>
<rscale>  1 0.12741583E+03</rscale>
<asrwt>0</asrwt>
<pdfrwt beam="2">  1       21 0.19556701E-01 0.12741583E+03</pdfrwt>
<pdfrwt beam="1">  1        4 0.72427473E-02 0.12741583E+03</pdfrwt>
<totfact> 0.12526838E+05</totfact>
</mgrwt>
</event>
<event>
 6    4  0.7919556E-003  0.1275220E+03  0.7818608E-02  0.1231180E+00
         -4   -1    0    0    0  501 -0.00000000000E+00  0.00000000000E+00  0.13590471296E+04  0.13590477230E+04  0.12700000000E+01 0. -1.
         21   -1    0    0  501  502  0.00000000000E+00 -0.00000000000E+00 -0.44581654898E+01  0.44581654898E+01  0.00000000000E+00 0. -1.
         25    2    1    2    0    0  0.23306249314E+02  0.96610249184E+01  0.12126393520E+04  0.12193260635E+04  0.12500133762E+03 0.  0.
    9000005    1    3    3    0    0 -0.41502340900E+02  0.59962327633E+01  0.84199834188E+03  0.84304247036E+03  0.10000000000E+01 0.  0.
    9000005    1    3    3    0    0  0.64808590214E+02  0.36647921551E+01  0.37064101014E+03  0.37628359314E+03  0.10000000000E+01 0.  0.
         -4    1    1    2    0  502 -0.23306249314E+02 -0.96610249184E+01  0.14194961213E+03  0.14417982503E+03  0.12700000000E+01 0.  1.
<mgrwt>
<rscale>  1 0.12752196E+03</rscale>
<asrwt>0</asrwt>
<pdfrwt beam="2">  1       21 0.68587270E-03 0.12752196E+03</pdfrwt>
<pdfrwt beam="1">  1       -4 0.20909780E+00 0.12752196E+03</pdfrwt>
<totfact> 0.35114187E+04</totfact>
</mgrwt>
</event>
<event>
 6    4  0.7919556E-003  0.1282602E+03  0.7818608E-02  0.1230060E+00
          4   -1    0    0  502    0 -0.00000000000E+00  0.00000000000E+00  0.42732897441E+02  0.42751765153E+02  0.12700000000E+01 0.  1.
         21   -1    0    0  501  502  0.00000000000E+00 -0.00000000000E+00 -0.15276551104E+03  0.15276551104E+03  0.00000000000E+00 0.  1.
         25    2    1    2    0    0 -0.23786307747E+02  0.16101270332E+02 -0.69668868354E+02  0.14596039804E+03  0.12500258891E+03 0.  0.
    9000005    1    3    3    0    0  0.24027463861E+02  0.58503349165E+02 -0.25151940186E+02  0.68070411914E+02  0.10000000000E+01 0.  0.
    9000005    1    3    3    0    0 -0.47813771607E+02 -0.42402078832E+02 -0.44516928167E+02  0.77889986122E+02  0.10000000000E+01 0.  0.
          4    1    1    2  501    0  0.23786307747E+02 -0.16101270332E+02 -0.40363745249E+02  0.49556878161E+02  0.12700000000E+01 0.  1.
<mgrwt>
<rscale>  1 0.12826023E+03</rscale>
<asrwt>0</asrwt>
<pdfrwt beam="2">  1       21 0.23502386E-01 0.12826023E+03</pdfrwt>
<pdfrwt beam="1">  1        4 0.65761494E-02 0.12826023E+03</pdfrwt>
<totfact> 0.10432771E+05</totfact>
</mgrwt>
</event>
<event>
 6    4  0.7919556E-003  0.1274703E+03  0.7818608E-02  0.1231258E+00
         -4   -1    0    0    0  501 -0.00000000000E+00  0.00000000000E+00  0.86910682624E+03  0.86910775415E+03  0.12700000000E+01 0. -1.
         21   -1    0    0  501  502  0.00000000000E+00 -0.00000000000E+00 -0.87182163879E+01  0.87182163879E+01  0.00000000000E+00 0.  1.
         25    2    1    2    0    0 -0.23568318823E+02  0.82631238201E+01  0.82320377675E+03  0.83301448115E+03  0.12499969158E+03 0.  0.
    9000005    1    3    3    0    0 -0.69453570936E+02  0.28555109112E+02  0.41534310715E+03  0.42207829775E+03  0.10000000000E+01 0.  0.
    9000005    1    3    3    0    0  0.45885252113E+02 -0.20291985292E+02  0.40786066959E+03  0.41093618340E+03  0.10000000000E+01 0.  0.
         -4    1    1    2    0  502  0.23568318823E+02 -0.82631238201E+01  0.37184833105E+02  0.44811489380E+02  0.12700000000E+01 0.  1.
<mgrwt>
<rscale>  1 0.12747026E+03</rscale>
<asrwt>0</asrwt>
<pdfrwt beam="2">  1       21 0.13412647E-02 0.12747026E+03</pdfrwt>
<pdfrwt beam="1">  1       -4 0.13371586E+00 0.12747026E+03</pdfrwt>
<totfact> 0.40070379E+04</totfact>
</mgrwt>
</event>
<event>
 6    4  0.7919556E-003  0.1319019E+03  0.7818608E-02  0.1224661E+00
         21   -1    0    0  501  502  0.00000000000E+00  0.00000000000E+00  0.79639923320E+02  0.79639923320E+02  0.00000000000E+00 0. -1.
         -4   -1    0    0    0  501 -0.00000000000E+00 -0.00000000000E+00 -0.15444666025E+03  0.15445188170E+03  0.12700000000E+01 0.  1.
         25    2    1    2    0    0 -0.83636452171E+01 -0.41269363100E+02 -0.11564493165E+03  0.17541913728E+03  0.12500005046E+03 0.  0.
    9000005    1    3    3    0    0 -0.33131316804E+02  0.14336472624E+02 -0.10822084074E+03  0.11408754959E+03  0.10000000000E+01 0.  0.
    9000005    1    3    3    0    0  0.24767671587E+02 -0.55605835725E+02 -0.74240909062E+01  0.61331587688E+02  0.10000000000E+01 0.  0.
         -4    1    1    2    0  502  0.83636452171E+01  0.41269363100E+02  0.40838194723E+02  0.58672667744E+02  0.12700000000E+01 0. -1.
<mgrwt>
<rscale>  1 0.13190195E+03</rscale>
<asrwt>0</asrwt>
<pdfrwt beam="1">  1       21 0.12252296E-01 0.13190195E+03</pdfrwt>
<pdfrwt beam="2">  1       -4 0.23762205E-01 0.13190195E+03</pdfrwt>
<totfact> 0.37628675E+04</totfact>
</mgrwt>
</event>
<event>
 6    4  0.7919556E-003  0.1416400E+03  0.7818608E-02  0.1211139E+00
          4   -1    0    0  502    0 -0.00000000000E+00  0.00000000000E+00  0.96619442629E+01  0.97450534601E+01  0.12700000000E+01 0. -1.
         21   -1    0    0  501  502  0.00000000000E+00 -0.00000000000E+00 -0.11896469905E+04  0.11896469905E+04  0.00000000000E+00 0. -1.
         25    2    1    2    0    0 -0.54278029570E+02 -0.38608735240E+02 -0.65113354815E+03  0.66636084519E+03  0.12500055819E+03 0.  0.
    9000005    1    3    3    0    0 -0.18992295637E+02 -0.13466654764E+02 -0.12857711043E+02  0.26615386854E+02  0.10000000000E+01 0.  0.
    9000005    1    3    3    0    0 -0.35285733933E+02 -0.25142080477E+02 -0.63827583710E+03  0.63974545834E+03  0.10000000000E+01 0.  0.
          4    1    1    2  501    0  0.54278029570E+02  0.38608735240E+02 -0.52885149805E+03  0.53303119873E+03  0.12700000000E+01 0.  1.
<mgrwt>
<rscale>  1 0.14163996E+03</rscale>
<asrwt>0</asrwt>
<pdfrwt beam="2">  1       21 0.18302249E+00 0.14163996E+03</pdfrwt>
<pdfrwt beam="1">  1        4 0.14928991E-02 0.14163996E+03</pdfrwt>
<totfact> 0.11607910E+04</totfact>
</mgrwt>
</event>
<event>
 6    4  0.7919556E-003  0.1880258E+03  0.7818608E-02  0.1160254E+00
         -4   -1    0    0    0  501 -0.00000000000E+00  0.00000000000E+00  0.55072784496E+03  0.55072930929E+03  0.12700000000E+01 0.  1.
         21   -1    0    0  501  502  0.00000000000E+00 -0.00000000000E+00 -0.11666126777E+03  0.11666126777E+03  0.00000000000E+00 0. -1.
         25    2    1    2    0    0  0.13722227389E+03  0.29964745851E+02  0.48327096677E+03  0.51856005835E+03  0.12500347333E+03 0.  0.
    9000005    1    3    3    0    0  0.96926245024E+02 -0.65512868284E+01  0.13646511852E+03  0.16751520799E+03  0.10000000000E+01 0.  0.
    9000005    1    3    3    0    0  0.40296028870E+02  0.36516032679E+02  0.34680584825E+03  0.35104485036E+03  0.10000000000E+01 0.  0.
         -4    1    1    2    0  502 -0.13722227389E+03 -0.29964745851E+02 -0.49204389587E+02  0.14883051871E+03  0.12700000000E+01 0. -1.
<mgrwt>
<rscale>  1 0.18802581E+03</rscale>
<asrwt>0</asrwt>
<pdfrwt beam="2">  1       21 0.17947888E-01 0.18802581E+03</pdfrwt>
<pdfrwt beam="1">  1       -4 0.84728004E-01 0.18802581E+03</pdfrwt>
<totfact> 0.14821374E+03</totfact>
</mgrwt>
</event>
<event>
 6    4  0.7919556E-003  0.1357152E+03  0.7818608E-02  0.1219214E+00
         21   -1    0    0  501  502  0.00000000000E+00  0.00000000000E+00  0.24616810334E+02  0.24616810334E+02  0.00000000000E+00 0. -1.
         -4   -1    0    0    0  501 -0.00000000000E+00 -0.00000000000E+00 -0.15128365971E+04  0.15128371302E+04  0.12700000000E+01 0.  1.
         25    2    1    2    0    0 -0.40921793978E+02 -0.33451586830E+02 -0.14772337351E+04  0.14834547913E+04  0.12500003131E+03 0.  0.
    9000005    1    3    3    0    0 -0.71267945859E+02 -0.31949635814E+02 -0.13632825614E+04  0.13655183051E+04  0.10000000000E+01 0.  0.
    9000005    1    3    3    0    0  0.30346151881E+02 -0.15019510163E+01 -0.11395117377E+03  0.11793648628E+03  0.10000000000E+01 0.  0.
         -4    1    1    2    0  502  0.40921793978E+02  0.33451586830E+02 -0.10986051666E+02  0.53999149206E+02  0.12700000000E+01 0. -1.
<mgrwt>
<rscale>  1 0.13571518E+03</rscale>
<asrwt>0</asrwt>
<pdfrwt beam="1">  1       21 0.37872015E-02 0.13571518E+03</pdfrwt>
<pdfrwt beam="2">  1       -4 0.23274666E+00 0.13571518E+03</pdfrwt>
<totfact> 0.16458411E+03</totfact>
</mgrwt>
</event>
<event>
 6    4  0.7919556E-003  0.1288061E+03  0.7818608E-02  0.1229238E+00
         21   -1    0    0  501  502  0.00000000000E+00  0.00000000000E+00  0.97822832569E+03  0.97822832569E+03  0.00000000000E+00 0.  1.
          4   -1    0    0  502    0 -0.00000000000E+00 -0.00000000000E+00 -0.12208659001E+02  0.12274536838E+02  0.12700000000E+01 0. -1.
         25    2    1    2    0    0  0.30612157887E+02  0.53384622470E+01  0.33796310956E+03  0.36167676953E+03  0.12500167519E+03 0.  0.
    9000005    1    3    3    0    0  0.53680160767E+02 -0.46265169962E+02  0.21400522249E+03  0.22543571337E+03  0.10000000000E+01 0.  0.
    9000005    1    3    3    0    0 -0.23068002880E+02  0.51603632209E+02  0.12395788708E+03  0.13624105616E+03  0.10000000000E+01 0.  0.
          4    1    1    2  501    0 -0.30612157887E+02 -0.53384622470E+01  0.62805655713E+03  0.62882609300E+03  0.12700000000E+01 0.  1.
<mgrwt>
<rscale>  1 0.12880614E+03</rscale>
<asrwt>0</asrwt>
<pdfrwt beam="1">  1       21 0.15049660E+00 0.12880614E+03</pdfrwt>
<pdfrwt beam="2">  1        4 0.18833869E-02 0.12880614E+03</pdfrwt>
<totfact> 0.13713345E+04</totfact>
</mgrwt>
</event>
<event>
 6    4  0.7919556E-003  0.1329119E+03  0.7818608E-02  0.1223198E+00
         21   -1    0    0  501  502  0.00000000000E+00  0.00000000000E+00  0.50319522470E+02  0.50319522470E+02  0.00000000000E+00 0. -1.
         -4   -1    0    0    0  501 -0.00000000000E+00 -0.00000000000E+00 -0.21264140712E+03  0.21264519962E+03  0.12700000000E+01 0.  1.
         25    2    1    2    0    0  0.35394972088E+02  0.28060246565E+02 -0.17138012264E+03  0.21687951772E+03  0.12500158912E+03 0.  0.
    9000005    1    3    3    0    0 -0.36308438428E+02  0.16338306676E+02 -0.12374194354E+03  0.12999350582E+03  0.10000000000E+01 0.  0.
    9000005    1    3    3    0    0  0.71703410516E+02  0.11721939889E+02 -0.47638179105E+02  0.86886011894E+02  0.10000000000E+01 0.  0.
         -4    1    1    2    0  502 -0.35394972088E+02 -0.28060246565E+02  0.90582379939E+01  0.46085204371E+02  0.12700000000E+01 0. -1.
<mgrwt>
<rscale>  1 0.13291192E+03</rscale>
<asrwt>0</asrwt>
<pdfrwt beam="1">  1       21 0.77414651E-02 0.13291192E+03</pdfrwt>
<pdfrwt beam="2">  1       -4 0.32715587E-01 0.13291192E+03</pdfrwt>
<totfact> 0.46188723E+04</totfact>
</mgrwt>
</event>
<event>
 6    4  0.7919556E-003  0.1281143E+03  0.7818608E-02  0.1230281E+00
         -4   -1    0    0    0  501 -0.00000000000E+00  0.00000000000E+00  0.12735649460E+02  0.12798815068E+02  0.12700000000E+01 0.  1.
         21   -1    0    0  501  502  0.00000000000E+00 -0.00000000000E+00 -0.70669145221E+03  0.70669145221E+03  0.00000000000E+00 0. -1.
         25    2    1    2    0    0  0.11698397749E+02 -0.25519254136E+02 -0.32312321230E+03  0.34759443793E+03  0.12500079246E+03 0.  0.
    9000005    1    3    3    0    0  0.30971783401E+02  0.35427361150E+02 -0.57104520203E+02  0.74001861550E+02  0.10000000000E+01 0.  0.
    9000005    1    3    3    0    0 -0.19273385652E+02 -0.60946615287E+02 -0.26601869209E+03  0.27359257638E+03  0.10000000000E+01 0.  0.
         -4    1    1    2    0  502 -0.11698397749E+02  0.25519254136E+02 -0.37083259045E+03  0.37189582935E+03  0.12700000000E+01 0. -1.
<mgrwt>
<rscale>  1 0.12811434E+03</rscale>
<asrwt>0</asrwt>
<pdfrwt beam="2">  1       21 0.10872176E+00 0.12811434E+03</pdfrwt>
<pdfrwt beam="1">  1       -4 0.19642774E-02 0.12811434E+03</pdfrwt>
<totfact> 0.28787875E+04</totfact>
</mgrwt>
</event>
<event>
 6    4  0.7919556E-003  0.1501655E+03  0.7818608E-02  0.1200270E+00
         21   -1    0    0  501  502  0.00000000000E+00  0.00000000000E+00  0.26974943423E+02  0.26974943423E+02  0.00000000000E+00 0.  1.
          4   -1    0    0  502    0 -0.00000000000E+00 -0.00000000000E+00 -0.50493576873E+03  0.50493736586E+03  0.12700000000E+01 0. -1.
         25    2    1    2    0    0  0.13467556694E+02  0.82120194013E+02 -0.31131301537E+03  0.34563776243E+03  0.12499827172E+03 0.  0.
    9000005    1    3    3    0    0  0.58911042705E+02  0.19675091981E+02 -0.77053895704E+02  0.98974355468E+02  0.10000000000E+01 0.  0.
    9000005    1    3    3    0    0 -0.45443486011E+02  0.62445102032E+02 -0.23425911967E+03  0.24666340697E+03  0.10000000000E+01 0.  0.
          4    1    1    2  501    0 -0.13467556694E+02 -0.82120194013E+02 -0.16664780993E+03  0.18627454685E+03  0.12700000000E+01 0.  1.
<mgrwt>
<rscale>  1 0.15016547E+03</rscale>
<asrwt>0</asrwt>
<pdfrwt beam="1">  1       21 0.41499912E-02 0.15016547E+03</pdfrwt>
<pdfrwt beam="2">  1        4 0.77684851E-01 0.15016547E+03</pdfrwt>
<totfact> 0.22948030E+04</totfact>
</mgrwt>
</event>
<event>
 6    4  0.7919556E-003  0.1867717E+03  0.7818608E-02  0.1161406E+00
         21   -1    0    0  501  502  0.00000000000E+00  0.00000000000E+00  0.37803816858E+03  0.37803816858E+03  0.00000000000E+00 0.  1.
         -4   -1    0    0    0  501 -0.00000000000E+00 -0.00000000000E+00 -0.18612844354E+03  0.18613277625E+03  0.12700000000E+01 0. -1.
         25    2    1    2    0    0 -0.83220468899E+02 -0.11105941914E+03 -0.12053516891E+03  0.22228899785E+03  0.12499532230E+03 0.  0.
    9000005    1    3    3    0    0 -0.89389712632E+02 -0.46212108768E+02 -0.12069061422E+03  0.15714103246E+03  0.10000000000E+01 0.  0.
    9000005    1    3    3    0    0  0.61692437328E+01 -0.64847310377E+02  0.15544531296E+00  0.65147965391E+02  0.10000000000E+01 0.  0.
         -4    1    1    2    0  502  0.83220468899E+02  0.11105941914E+03  0.31244489395E+03  0.34188194699E+03  0.12700000000E+01 0.  1.
<mgrwt>
<rscale>  1 0.18677171E+03</rscale>
<asrwt>0</asrwt>
<pdfrwt beam="1">  1       21 0.58159718E-01 0.18677171E+03</pdfrwt>
<pdfrwt beam="2">  1       -4 0.28635643E-01 0.18677171E+03</pdfrwt>
<totfact> 0.13522932E+03</totfact>
</mgrwt>
</event>
<event>
 6    4  0.7919556E-003  0.1397213E+03  0.7818608E-02  0.1213705E+00
         -4   -1    0    0    0  501 -0.00000000000E+00  0.00000000000E+00  0.18731640216E+02  0.18774643677E+02  0.12700000000E+01 0.  1.
         21   -1    0    0  501  502  0.00000000000E+00 -0.00000000000E+00 -0.56374040226E+03  0.56374040226E+03  0.00000000000E+00 0.  1.
         25    2    1    2    0    0 -0.48235401002E+02  0.39630775311E+02 -0.42263110988E+03  0.44512816552E+03  0.12499910575E+03 0.  0.
    9000005    1    3    3    0    0 -0.21201787731E+02 -0.26433573192E+02 -0.27647506664E+02  0.43745105091E+02  0.10000000000E+01 0.  0.
    9000005    1    3    3    0    0 -0.27033613271E+02  0.66064348503E+02 -0.39498360321E+03  0.40138306043E+03  0.10000000000E+01 0.  0.
         -4    1    1    2    0  502  0.48235401002E+02 -0.39630775311E+02 -0.12237765217E+03  0.13738688042E+03  0.12700000000E+01 0. -1.
<mgrwt>
<rscale>  1 0.13972125E+03</rscale>
<asrwt>0</asrwt>
<pdfrwt beam="2">  1       21 0.86729293E-01 0.13972125E+03</pdfrwt>
<pdfrwt beam="1">  1       -4 0.28852088E-02 0.13972125E+03</pdfrwt>
<totfact> 0.27040988E+04</totfact>
</mgrwt>
</event>
<event>
 6    4  0.7919556E-003  0.1274841E+03  0.7818608E-02  0.1231237E+00
         -4   -1    0    0    0  501 -0.00000000000E+00  0.00000000000E+00  0.47464777653E+03  0.47464947557E+03  0.12700000000E+01 0. -1.
         21   -1    0    0  501  502  0.00000000000E+00 -0.00000000000E+00 -0.43280014043E+02  0.43280014043E+02  0.00000000000E+00 0.  1.
         25    2    1    2    0    0 -0.17148078540E+00  0.25038319546E+02  0.46146929023E+03  0.47875473085E+03  0.12500095856E+03 0.  0.
    9000005    1    3    3    0    0 -0.21961258323E+02  0.35363674290E+02  0.43967331390E+02  0.60555863102E+02  0.10000000000E+01 0.  0.
    9000005    1    3    3    0    0  0.21789777538E+02 -0.10325354744E+02  0.41750195884E+03  0.41819886775E+03  0.10000000000E+01 0.  0.
         -4    1    1    2    0  502  0.17148078540E+00 -0.25038319546E+02 -0.30101527745E+02  0.39174758760E+02  0.12700000000E+01 0.  1.
<mgrwt>
<rscale>  1 0.12748406E+03</rscale>
<asrwt>0</asrwt>
<pdfrwt beam="2">  1       21 0.66584640E-02 0.12748406E+03</pdfrwt>
<pdfrwt beam="1">  1       -4 0.73024295E-01 0.12748406E+03</pdfrwt>
<totfact> 0.11639894E+04</totfact>
</mgrwt>
</event>
<event>
 6    4  0.7919556E-003  0.1266483E+03  0.7818608E-02  0.1232515E+00
         21   -1    0    0  501  502  0.00000000000E+00  0.00000000000E+00  0.29381847402E+02  0.29381847402E+02  0.00000000000E+00 0. -1.
         -4   -1    0    0    0  501 -0.00000000000E+00 -0.00000000000E+00 -0.19394612332E+03  0.19395028139E+03  0.12700000000E+01 0. -1.
         25    2    1    2    0    0 -0.60828360164E+01  0.19398247998E+02 -0.15673878833E+03  0.20151140297E+03  0.12500601921E+03 0.  0.
    9000005    1    3    3    0    0  0.42310222690E+02 -0.21510702581E+02 -0.21412419589E+02  0.52080293607E+02  0.10000000000E+01 0.  0.
    9000005    1    3    3    0    0 -0.48393058706E+02  0.40908950579E+02 -0.13532636874E+03  0.14943110936E+03  0.10000000000E+01 0.  0.
         -4    1    1    2    0  502  0.60828360164E+01 -0.19398247998E+02 -0.78254875864E+01  0.21820725821E+02  0.12700000000E+01 0.  1.
<mgrwt>
<rscale>  1 0.12664832E+03</rscale>
<asrwt>0</asrwt>
<pdfrwt beam="1">  1       21 0.45202841E-02 0.12664832E+03</pdfrwt>
<pdfrwt beam="2">  1       -4 0.29840297E-01 0.12664832E+03</pdfrwt>
<totfact> 0.13599296E+05</totfact>
</mgrwt>
</event>
<event>
 6    4  0.7919556E-003  0.1599999E+03  0.7818608E-02  0.1188697E+00
         21   -1    0    0  501  502  0.00000000000E+00  0.00000000000E+00  0.93652972212E+02  0.93652972212E+02  0.00000000000E+00 0. -1.
          4   -1    0    0  502    0 -0.00000000000E+00 -0.00000000000E+00 -0.10525048482E+04  0.10525056144E+04  0.12700000000E+01 0.  1.
         25    2    1    2    0    0  0.98489698534E+02  0.16709466304E+02 -0.10177060965E+04  0.10302066174E+04  0.12498219408E+03 0.  0.
    9000005    1    3    3    0    0 -0.20076532645E+02 -0.24785952276E+02 -0.28843382294E+03  0.29019386763E+03  0.10000000000E+01 0.  0.
    9000005    1    3    3    0    0  0.11856623118E+03  0.41495418579E+02 -0.72927227352E+03  0.74001274980E+03  0.10000000000E+01 0.  0.
          4    1    1    2  501    0 -0.98489698534E+02 -0.16709466304E+02  0.58854220510E+02  0.11595196917E+03  0.12700000000E+01 0. -1.
<mgrwt>
<rscale>  1 0.15999992E+03</rscale>
<asrwt>0</asrwt>
<pdfrwt beam="1">  1       21 0.14408149E-01 0.15999992E+03</pdfrwt>
<pdfrwt beam="2">  1        4 0.16192454E+00 0.15999992E+03</pdfrwt>
<totfact> 0.46213807E+02</totfact>
</mgrwt>
</event>
<event>
 6    4  0.7919556E-003  0.1277386E+03  0.7818608E-02  0.1230850E+00
         21   -1    0    0  501  502  0.00000000000E+00  0.00000000000E+00  0.16722119244E+03  0.16722119244E+03  0.00000000000E+00 0. -1.
         -4   -1    0    0    0  501 -0.00000000000E+00 -0.00000000000E+00 -0.35526200517E+02  0.35548893417E+02  0.12700000000E+01 0. -1.
         25    2    1    2    0    0 -0.24020228440E+02  0.10695274718E+02  0.10612393182E+03  0.16607059962E+03  0.12500317947E+03 0.  0.
    9000005    1    3    3    0    0 -0.67248750478E+02 -0.52418182603E+01  0.23448859658E+02  0.71419325947E+02  0.10000000000E+01 0.  0.
    9000005    1    3    3    0    0  0.43228522037E+02  0.15937092978E+02  0.82675072165E+02  0.94651273671E+02  0.10000000000E+01 0.  0.
         -4    1    1    2    0  502  0.24020228440E+02 -0.10695274718E+02  0.25571060100E+02  0.36699486240E+02  0.12700000000E+01 0.  1.
<mgrwt>
<rscale>  1 0.12773862E+03</rscale>
<asrwt>0</asrwt>
<pdfrwt beam="1">  1       21 0.25726337E-01 0.12773862E+03</pdfrwt>
<pdfrwt beam="2">  1       -4 0.54676860E-02 0.12773862E+03</pdfrwt>
<totfact> 0.11863842E+05</totfact>
</mgrwt>
</event>
<event>
 6    4  0.7919556E-003  0.1267066E+03  0.7818608E-02  0.1232426E+00
         21   -1    0    0  501  502  0.00000000000E+00  0.00000000000E+00  0.10739991581E+04  0.10739991581E+04  0.00000000000E+00 0. -1.
         -4   -1    0    0    0  501 -0.00000000000E+00 -0.00000000000E+00 -0.55996065990E+01  0.57418197519E+01  0.12700000000E+01 0. -1.
         25    2    1    2    0    0  0.14670349966E+02  0.14639975281E+02  0.74687186792E+03  0.75754350385E+03  0.12500010036E+03 0.  0.
    9000005    1    3    3    0    0  0.19057297244E+02  0.42456926685E+02  0.10271170203E+03  0.11276730438E+03  0.10000000000E+01 0.  0.
    9000005    1    3    3    0    0 -0.43869472777E+01 -0.27816951404E+02  0.64416016589E+03  0.64477619948E+03  0.10000000000E+01 0.  0.
         -4    1    1    2    0  502 -0.14670349966E+02 -0.14639975281E+02  0.32152768359E+03  0.32219747401E+03  0.12700000000E+01 0.  1.
<mgrwt>
<rscale>  1 0.12670664E+03</rscale>
<asrwt>0</asrwt>
<pdfrwt beam="1">  1       21 0.16523048E+00 0.12670664E+03</pdfrwt>
<pdfrwt beam="2">  1       -4 0.87247602E-03 0.12670664E+03</pdfrwt>
<totfact> 0.34383819E+04</totfact>
</mgrwt>
</event>
<event>
 6    4  0.7919556E-003  0.1288794E+03  0.7818608E-02  0.1229128E+00
         21   -1    0    0  501  502  0.00000000000E+00  0.00000000000E+00  0.11380385572E+02  0.11380385572E+02  0.00000000000E+00 0.  1.
          4   -1    0    0  502    0 -0.00000000000E+00 -0.00000000000E+00 -0.68145233457E+03  0.68145351800E+03  0.12700000000E+01 0.  1.
         25    2    1    2    0    0 -0.18252999208E+02  0.25536090664E+02 -0.62334388270E+03  0.63652769621E+03  0.12499859217E+03 0.  0.
    9000005    1    3    3    0    0 -0.64758990815E+01 -0.28000427564E+02 -0.33536286902E+02  0.44177412236E+02  0.10000000000E+01 0.  0.
    9000005    1    3    3    0    0 -0.11777100127E+02  0.53536518228E+02 -0.58980759579E+03  0.59235028398E+03  0.10000000000E+01 0.  0.
          4    1    1    2  501    0  0.18252999208E+02 -0.25536090664E+02 -0.46728066301E+02  0.56306207355E+02  0.12700000000E+01 0. -1.
<mgrwt>
<rscale>  1 0.12887945E+03</rscale>
<asrwt>0</asrwt>
<pdfrwt beam="1">  1       21 0.17508280E-02 0.12887945E+03</pdfrwt>
<pdfrwt beam="2">  1        4 0.10484440E+00 0.12887945E+03</pdfrwt>
<totfact> 0.46912802E+04</totfact>
</mgrwt>
</event>
<event>
 6    4  0.7919556E-003  0.1279428E+03  0.7818608E-02  0.1230541E+00
         21   -1    0    0  501  502  0.00000000000E+00  0.00000000000E+00  0.32147220980E+02  0.32147220980E+02  0.00000000000E+00 0. -1.
         -4   -1    0    0    0  501 -0.00000000000E+00 -0.00000000000E+00 -0.19544373558E+03  0.19544786179E+03  0.12700000000E+01 0. -1.
         25    2    1    2    0    0 -0.26605007872E+02  0.60724616508E+01 -0.15018166897E+03  0.19729139801E+03  0.12499864318E+03 0.  0.
    9000005    1    3    3    0    0 -0.24476063307E+02  0.25838122074E+02  0.91174959296E+01  0.36753434660E+02  0.10000000000E+01 0.  0.
    9000005    1    3    3    0    0 -0.21289445654E+01 -0.19765660423E+02 -0.15929916490E+03  0.16053796335E+03  0.10000000000E+01 0.  0.
         -4    1    1    2    0  502  0.26605007872E+02 -0.60724616508E+01 -0.13114845630E+02  0.30303684764E+02  0.12700000000E+01 0.  1.
<mgrwt>
<rscale>  1 0.12794281E+03</rscale>
<asrwt>0</asrwt>
<pdfrwt beam="1">  1       21 0.49457264E-02 0.12794281E+03</pdfrwt>
<pdfrwt beam="2">  1       -4 0.30070514E-01 0.12794281E+03</pdfrwt>
<totfact> 0.11547434E+05</totfact>
</mgrwt>
</event>
<event>
 6    4  0.7919556E-003  0.1285516E+03  0.7818608E-02  0.1229621E+00
         21   -1    0    0  501  502  0.00000000000E+00  0.00000000000E+00  0.31737522959E+02  0.31737522959E+02  0.00000000000E+00 0.  1.
         -4   -1    0    0    0  501 -0.00000000000E+00 -0.00000000000E+00 -0.32524231670E+03  0.32524479622E+03  0.12700000000E+01 0.  1.
         25    2    1    2    0    0 -0.29851466624E+02  0.33097282026E+01 -0.29986256496E+03  0.32625613303E+03  0.12499376831E+03 0.  0.
    9000005    1    3    3    0    0 -0.15042014575E+02 -0.50159234547E+02 -0.23559626724E+03  0.24134790687E+03  0.10000000000E+01 0.  0.
    9000005    1    3    3    0    0 -0.14809452049E+02  0.53468962750E+02 -0.64266297717E+02  0.84908226161E+02  0.10000000000E+01 0.  0.
         -4    1    1    2    0  502  0.29851466624E+02 -0.33097282026E+01  0.63577712218E+01  0.30726186150E+02  0.12700000000E+01 0. -1.
<mgrwt>
<rscale>  1 0.12855157E+03</rscale>
<asrwt>0</asrwt>
<pdfrwt beam="1">  1       21 0.48826958E-02 0.12855157E+03</pdfrwt>
<pdfrwt beam="2">  1       -4 0.50039425E-01 0.12855157E+03</pdfrwt>
<totfact> 0.43554563E+04</totfact>
</mgrwt>
</event>
<event>
 6    4  0.7919556E-003  0.1442522E+03  0.7818608E-02  0.1207719E+00
         21   -1    0    0  501  502  0.00000000000E+00  0.00000000000E+00  0.44239762582E+03  0.44239762582E+03  0.00000000000E+00 0.  1.
          4   -1    0    0  502    0 -0.00000000000E+00 -0.00000000000E+00 -0.37585252388E+02  0.37606702822E+02  0.12700000000E+01 0. -1.
         25    2    1    2    0    0  0.61337320673E+01  0.71721194113E+02  0.12435684403E+03  0.19045559488E+03  0.12500862614E+03 0.  0.
    9000005    1    3    3    0    0  0.23548554890E+01  0.31629526214E+02  0.14270592496E+03  0.14619149527E+03  0.10000000000E+01 0.  0.
    9000005    1    3    3    0    0  0.37788765784E+01  0.40091667899E+02 -0.18349080922E+02  0.44264099604E+02  0.10000000000E+01 0.  0.
          4    1    1    2  501    0 -0.61337320673E+01 -0.71721194113E+02  0.28045552940E+03  0.28954873376E+03  0.12700000000E+01 0.  1.
<mgrwt>
<rscale>  1 0.14425224E+03</rscale>
<asrwt>0</asrwt>
<pdfrwt beam="1">  1       21 0.68061169E-01 0.14425224E+03</pdfrwt>
<pdfrwt beam="2">  1        4 0.57841371E-02 0.14425224E+03</pdfrwt>
<totfact> 0.15354586E+04</totfact>
</mgrwt>
</event>
<event>
 6    4  0.7919556E-003  0.1809254E+03  0.7818608E-02  0.1166910E+00
         21   -1    0    0  501  502  0.00000000000E+00  0.00000000000E+00  0.91742011195E+02  0.91742011195E+02  0.00000000000E+00 0. -1.
          4   -1    0    0  502    0 -0.00000000000E+00 -0.00000000000E+00 -0.35819139093E+03  0.35819364237E+03  0.12700000000E+01 0.  1.
         25    2    1    2    0    0 -0.61566857897E+02 -0.11540460829E+03 -0.26282589989E+03  0.31907907516E+03  0.12500120378E+03 0.  0.
    9000005    1    3    3    0    0 -0.67229556315E+02 -0.90905630746E+01 -0.14612203025E+03  0.16110586366E+03  0.10000000000E+01 0.  0.
    9000005    1    3    3    0    0  0.56626984180E+01 -0.10631404522E+03 -0.11670386963E+03  0.15797321150E+03  0.10000000000E+01 0.  0.
          4    1    1    2  501    0  0.61566857897E+02  0.11540460829E+03 -0.36234798485E+01  0.13085657841E+03  0.12700000000E+01 0. -1.
<mgrwt>
<rscale>  1 0.18092541E+03</rscale>
<asrwt>0</asrwt>
<pdfrwt beam="1">  1       21 0.14114155E-01 0.18092541E+03</pdfrwt>
<pdfrwt beam="2">  1        4 0.55107218E-01 0.18092541E+03</pdfrwt>
<totfact> 0.58234635E+03</totfact>
</mgrwt>
</event>
<event>
 6    4  0.7919556E-003  0.1365518E+03  0.7818608E-02  0.1218046E+00
         21   -1    0    0  501  502  0.00000000000E+00  0.00000000000E+00  0.31069545973E+02  0.31069545973E+02  0.00000000000E+00 0.  1.
          4   -1    0    0  502    0 -0.00000000000E+00 -0.00000000000E+00 -0.29960419691E+03  0.29960688862E+03  0.12700000000E+01 0. -1.
         25    2    1    2    0    0 -0.13199232771E+02 -0.53364123438E+02 -0.20879474918E+03  0.24948272684E+03  0.12499773714E+03 0.  0.
    9000005    1    3    3    0    0  0.53304095296E+02 -0.43055607203E+02 -0.11810777078E+03  0.13654873638E+03  0.10000000000E+01 0.  0.
    9000005    1    3    3    0    0 -0.66503328068E+02 -0.10308516235E+02 -0.90686978400E+02  0.11293399047E+03  0.10000000000E+01 0.  0.
          4    1    1    2  501    0  0.13199232771E+02  0.53364123438E+02 -0.59739901754E+02  0.81193707747E+02  0.12700000000E+01 0.  1.
<mgrwt>
<rscale>  1 0.13655176E+03</rscale>
<asrwt>0</asrwt>
<pdfrwt beam="1">  1       21 0.47799300E-02 0.13655176E+03</pdfrwt>
<pdfrwt beam="2">  1        4 0.46095158E-01 0.13655176E+03</pdfrwt>
<totfact> 0.53704455E+04</totfact>
</mgrwt>
</event>
<event>
 6    4  0.7919556E-003  0.1266321E+03  0.7818608E-02  0.1232540E+00
         -4   -1    0    0    0  501 -0.00000000000E+00  0.00000000000E+00  0.46681463454E+02  0.46698735852E+02  0.12700000000E+01 0. -1.
         21   -1    0    0  501  502  0.00000000000E+00 -0.00000000000E+00 -0.14376572509E+03  0.14376572509E+03  0.00000000000E+00 0. -1.
         25    2    1    2    0    0  0.12218975810E+02 -0.16167397090E+02 -0.44712350170E+02  0.13429402291E+03  0.12500000893E+03 0.  0.
    9000005    1    3    3    0    0  0.98328389094E+01  0.42816590474E+02  0.18606878565E+02  0.47719608870E+02  0.10000000000E+01 0.  0.
    9000005    1    3    3    0    0  0.23861369004E+01 -0.58983987564E+02 -0.63319228734E+02  0.86574414036E+02  0.10000000000E+01 0.  0.
         -4    1    1    2    0  502 -0.12218975810E+02  0.16167397090E+02 -0.52371911471E+02  0.56170438040E+02  0.12700000000E+01 0.  1.
<mgrwt>
<rscale>  1 0.12663211E+03</rscale>
<asrwt>0</asrwt>
<pdfrwt beam="2">  1       21 0.22117804E-01 0.12663211E+03</pdfrwt>
<pdfrwt beam="1">  1       -4 0.71835238E-02 0.12663211E+03</pdfrwt>
<totfact> 0.10096662E+05</totfact>
</mgrwt>
</event>
<event>
 6    4  0.7919556E-003  0.1314563E+03  0.7818608E-02  0.1225311E+00
         21   -1    0    0  501  502  0.00000000000E+00  0.00000000000E+00  0.10237500132E+03  0.10237500132E+03  0.00000000000E+00 0.  1.
         -4   -1    0    0    0  501 -0.00000000000E+00 -0.00000000000E+00 -0.24744927122E+03  0.24745253025E+03  0.12700000000E+01 0. -1.
         25    2    1    2    0    0  0.97350179710E+01  0.39496024996E+02 -0.22474312282E+03  0.26036555311E+03  0.12500417363E+03 0.  0.
    9000005    1    3    3    0    0 -0.11944287872E+02 -0.36320624544E+02 -0.25196483520E+02  0.45800835820E+02  0.10000000000E+01 0.  0.
    9000005    1    3    3    0    0  0.21679305843E+02  0.75816649540E+02 -0.19954663930E+03  0.21456471729E+03  0.10000000000E+01 0.  0.
         -4    1    1    2    0  502 -0.97350179710E+01 -0.39496024996E+02  0.79668852922E+02  0.89461978468E+02  0.12700000000E+01 0.  1.
<mgrwt>
<rscale>  1 0.13145627E+03</rscale>
<asrwt>0</asrwt>
<pdfrwt beam="1">  1       21 0.15750000E-01 0.13145627E+03</pdfrwt>
<pdfrwt beam="2">  1       -4 0.38069975E-01 0.13145627E+03</pdfrwt>
<totfact> 0.98370111E+03</totfact>
</mgrwt>
</event>
<event>
 6    4  0.7919556E-003  0.1275293E+03  0.7818608E-02  0.1231169E+00
         -4   -1    0    0    0  501 -0.00000000000E+00  0.00000000000E+00  0.12125832630E+02  0.12192158011E+02  0.12700000000E+01 0.  1.
         21   -1    0    0  501  502  0.00000000000E+00 -0.00000000000E+00 -0.83724460086E+03  0.83724460086E+03  0.00000000000E+00 0. -1.
         25    2    1    2    0    0  0.19292903359E+02  0.16171037531E+02 -0.33164629788E+03  0.35532097237E+03  0.12502003013E+03 0.  0.
    9000005    1    3    3    0    0 -0.32277823872E+01  0.43361898185E+01  0.10699797887E+02  0.12029413789E+02  0.10000000000E+01 0.  0.
    9000005    1    3    3    0    0  0.22520685746E+02  0.11834847712E+02 -0.34234609576E+03  0.34329155858E+03  0.10000000000E+01 0.  0.
         -4    1    1    2    0  502 -0.19292903359E+02 -0.16171037531E+02 -0.49347247035E+03  0.49411578650E+03  0.12700000000E+01 0. -1.
<mgrwt>
<rscale>  1 0.12752932E+03</rscale>
<asrwt>0</asrwt>
<pdfrwt beam="2">  1       21 0.12880691E+00 0.12752932E+03</pdfrwt>
<pdfrwt beam="1">  1       -4 0.18706880E-02 0.12752932E+03</pdfrwt>
<totfact> 0.20546689E+04</totfact>
</mgrwt>
</event>
<event>
 6    4  0.7919556E-003  0.1272553E+03  0.7818608E-02  0.1231586E+00
          4   -1    0    0  502    0 -0.00000000000E+00  0.00000000000E+00  0.15654355473E+02  0.15705787000E+02  0.12700000000E+01 0. -1.
         21   -1    0    0  501  502  0.00000000000E+00 -0.00000000000E+00 -0.38987493176E+03  0.38987493176E+03  0.00000000000E+00 0. -1.
         25    2    1    2    0    0  0.95866199389E+01 -0.21837075553E+02 -0.26758260993E+03  0.29630112359E+03  0.12500056622E+03 0.  0.
    9000005    1    3    3    0    0 -0.56051037578E+02 -0.13896516416E+02 -0.15904716970E+03  0.16920943878E+03  0.10000000000E+01 0.  0.
    9000005    1    3    3    0    0  0.65637657517E+02 -0.79405591368E+01 -0.10853544023E+03  0.12709168482E+03  0.10000000000E+01 0.  0.
          4    1    1    2  501    0 -0.95866199389E+01  0.21837075553E+02 -0.10663796636E+03  0.10927959517E+03  0.12700000000E+01 0.  1.
<mgrwt>
<rscale>  1 0.12725527E+03</rscale>
<asrwt>0</asrwt>
<pdfrwt beam="2">  1       21 0.59980766E-01 0.12725527E+03</pdfrwt>
<pdfrwt beam="1">  1        4 0.24124775E-02 0.12725527E+03</pdfrwt>
<totfact> 0.79543119E+04</totfact>
</mgrwt>
</event>
<event>
 6    4  0.7919556E-003  0.1279066E+03  0.7818608E-02  0.1230595E+00
         21   -1    0    0  501  502  0.00000000000E+00  0.00000000000E+00  0.66094361583E+02  0.66094361583E+02  0.00000000000E+00 0. -1.
          4   -1    0    0  502    0 -0.00000000000E+00 -0.00000000000E+00 -0.12401852646E+03  0.12402502894E+03  0.12700000000E+01 0.  1.
         25    2    1    2    0    0  0.21413253126E+00  0.27172185001E+02 -0.83526242168E+02  0.15276363124E+03  0.12498688094E+03 0.  0.
    9000005    1    3    3    0    0 -0.51815586478E+01  0.27971530948E+02 -0.11619332689E+03  0.11962919505E+03  0.10000000000E+01 0.  0.
    9000005    1    3    3    0    0  0.53956911791E+01 -0.79934594738E+00  0.32667084723E+02  0.33134436189E+02  0.10000000000E+01 0.  0.
          4    1    1    2  501    0 -0.21413253126E+00 -0.27172185001E+02  0.25602077294E+02  0.37355759291E+02  0.12700000000E+01 0. -1.
<mgrwt>
<rscale>  1 0.12790658E+03</rscale>
<asrwt>0</asrwt>
<pdfrwt beam="1">  1       21 0.10168363E-01 0.12790658E+03</pdfrwt>
<pdfrwt beam="2">  1        4 0.19081212E-01 0.12790658E+03</pdfrwt>
<totfact> 0.77447738E+04</totfact>
</mgrwt>
</event>
<event>
 6    4  0.7919556E-003  0.1287908E+03  0.7818608E-02  0.1229261E+00
         21   -1    0    0  501  502  0.00000000000E+00  0.00000000000E+00  0.11116719312E+02  0.11116719312E+02  0.00000000000E+00 0. -1.
         -4   -1    0    0    0  501 -0.00000000000E+00 -0.00000000000E+00 -0.85407109982E+03  0.85407204406E+03  0.12700000000E+01 0.  1.
         25    2    1    2    0    0 -0.24530363397E+02 -0.19015943461E+02 -0.80892432349E+03  0.81911271195E+03  0.12499491554E+03 0.  0.
    9000005    1    3    3    0    0 -0.41580530781E+02  0.39014446147E+02 -0.56203511597E+03  0.56492082555E+03  0.10000000000E+01 0.  0.
    9000005    1    3    3    0    0  0.17050167385E+02 -0.58030389608E+02 -0.24688920752E+03  0.25419188641E+03  0.10000000000E+01 0.  0.
         -4    1    1    2    0  502  0.24530363397E+02  0.19015943461E+02 -0.34030057017E+02  0.46076051422E+02  0.12700000000E+01 0. -1.
<mgrwt>
<rscale>  1 0.12879081E+03</rscale>
<asrwt>0</asrwt>
<pdfrwt beam="1">  1       21 0.17102640E-02 0.12879081E+03</pdfrwt>
<pdfrwt beam="2">  1       -4 0.13140125E+00 0.12879081E+03</pdfrwt>
<totfact> 0.28404106E+04</totfact>
</mgrwt>
</event>
<event>
 6    4  0.7919556E-003  0.1278153E+03  0.7818608E-02  0.1230734E+00
         21   -1    0    0  501  502  0.00000000000E+00  0.00000000000E+00  0.44970646887E+03  0.44970646887E+03  0.00000000000E+00 0. -1.
         -4   -1    0    0    0  501 -0.00000000000E+00 -0.00000000000E+00 -0.70997172728E+02  0.71008530722E+02  0.12700000000E+01 0.  1.
         25    2    1    2    0    0  0.11612265263E+02  0.23976695844E+02 -0.12657428750E+02  0.12844053840E+03  0.12500813875E+03 0.  0.
    9000005    1    3    3    0    0  0.55954738213E+02  0.40539287051E+02  0.18777561215E+02  0.71609799108E+02  0.10000000000E+01 0.  0.
    9000005    1    3    3    0    0 -0.44342472949E+02 -0.16562591207E+02 -0.31434989966E+02  0.56830739296E+02  0.10000000000E+01 0.  0.
         -4    1    1    2    0  502 -0.11612265263E+02 -0.23976695844E+02  0.39136672489E+03  0.39227446119E+03  0.12700000000E+01 0. -1.
<mgrwt>
<rscale>  1 0.12781534E+03</rscale>
<asrwt>0</asrwt>
<pdfrwt beam="1">  1       21 0.69185609E-01 0.12781534E+03</pdfrwt>
<pdfrwt beam="2">  1       -4 0.10923654E-01 0.12781534E+03</pdfrwt>
<totfact> 0.51256746E+03</totfact>
</mgrwt>
</event>
<event>
 6    4  0.7919556E-003  0.1363325E+03  0.7818608E-02  0.1218351E+00
         21   -1    0    0  501  502  0.00000000000E+00  0.00000000000E+00  0.34536982976E+02  0.34536982976E+02  0.00000000000E+00 0. -1.
         -4   -1    0    0    0  501 -0.00000000000E+00 -0.00000000000E+00 -0.32709048084E+03  0.32709294635E+03  0.12700000000E+01 0. -1.
         25    2    1    2    0    0  0.27415890185E+01 -0.54367557066E+02 -0.27043844888E+03  0.30285888320E+03  0.12499280351E+03 0.  0.
    9000005    1    3    3    0    0 -0.34705484766E+02 -0.73942108430E+02 -0.23112283183E+03  0.24513398268E+03  0.10000000000E+01 0.  0.
    9000005    1    3    3    0    0  0.37447073785E+02  0.19574551363E+02 -0.39315617045E+02  0.57724900518E+02  0.10000000000E+01 0.  0.
         -4    1    1    2    0  502 -0.27415890185E+01  0.54367557066E+02 -0.22115048985E+02  0.58771046131E+02  0.12700000000E+01 0.  1.
<mgrwt>
<rscale>  1 0.13633249E+03</rscale>
<asrwt>0</asrwt>
<pdfrwt beam="1">  1       21 0.53133821E-02 0.13633249E+03</pdfrwt>
<pdfrwt beam="2">  1       -4 0.50323597E-01 0.13633249E+03</pdfrwt>
<totfact> 0.37620495E+04</totfact>
</mgrwt>
</event>
<event>
 6    4  0.7919556E-003  0.1267245E+03  0.7818608E-02  0.1232398E+00
          4   -1    0    0  502    0 -0.00000000000E+00  0.00000000000E+00  0.32925661825E+01  0.35290072352E+01  0.12700000000E+01 0. -1.
         21   -1    0    0  501  502  0.00000000000E+00 -0.00000000000E+00 -0.20167216962E+04  0.20167216962E+04  0.00000000000E+00 0.  1.
         25    2    1    2    0    0  0.17795660770E+02  0.10846187189E+02 -0.12234156447E+04  0.12299613607E+04  0.12499913543E+03 0.  0.
    9000005    1    3    3    0    0  0.49709171469E+02 -0.12246353846E+02 -0.22436597756E+03  0.23013488827E+03  0.10000000000E+01 0.  0.
    9000005    1    3    3    0    0 -0.31913510699E+02  0.23092541035E+02 -0.99904966709E+03  0.99982647241E+03  0.10000000000E+01 0.  0.
          4    1    1    2  501    0 -0.17795660770E+02 -0.10846187189E+02 -0.79001348540E+03  0.79028934279E+03  0.12700000000E+01 0.  1.
<mgrwt>
<rscale>  1 0.12672454E+03</rscale>
<asrwt>0</asrwt>
<pdfrwt beam="2">  1       21 0.31026500E+00 0.12672454E+03</pdfrwt>
<pdfrwt beam="1">  1        4 0.52476697E-03 0.12672454E+03</pdfrwt>
<totfact> 0.99232764E+03</totfact>
</mgrwt>
</event>
<event>
 6    4  0.7919556E-003  0.1342300E+03  0.7818608E-02  0.1221311E+00
         -4   -1    0    0    0  501 -0.00000000000E+00  0.00000000000E+00  0.78284778506E+02  0.78295079320E+02  0.12700000000E+01 0. -1.
         21   -1    0    0  501  502  0.00000000000E+00 -0.00000000000E+00 -0.14141783420E+03  0.14141783420E+03  0.00000000000E+00 0. -1.
         25    2    1    2    0    0 -0.45145417767E+02  0.18816675831E+02  0.67562938773E+01  0.13439990092E+03  0.12500203929E+03 0.  0.
    9000005    1    3    3    0    0  0.11761775065E+02  0.77541725921E+00 -0.50385445079E+02  0.51755518551E+02  0.10000000000E+01 0.  0.
    9000005    1    3    3    0    0 -0.56907192832E+02  0.18041258572E+02  0.57141738957E+02  0.82644382373E+02  0.10000000000E+01 0.  0.
         -4    1    1    2    0  502  0.45145417767E+02 -0.18816675831E+02 -0.69889349568E+02  0.85313012593E+02  0.12700000000E+01 0.  1.
<mgrwt>
<rscale>  1 0.13422997E+03</rscale>
<asrwt>0</asrwt>
<pdfrwt beam="2">  1       21 0.21756590E-01 0.13422997E+03</pdfrwt>
<pdfrwt beam="1">  1       -4 0.12045043E-01 0.13422997E+03</pdfrwt>
<totfact> 0.44134511E+04</totfact>
</mgrwt>
</event>
<event>
 6    4  0.7919556E-003  0.1304722E+03  0.7818608E-02  0.1226757E+00
         21   -1    0    0  501  502  0.00000000000E+00  0.00000000000E+00  0.37993817800E+03  0.37993817800E+03  0.00000000000E+00 0. -1.
         -4   -1    0    0    0  501 -0.00000000000E+00 -0.00000000000E+00 -0.20877596591E+02  0.20916188453E+02  0.12700000000E+01 0. -1.
         25    2    1    2    0    0  0.24740897309E+02  0.28029430394E+02  0.21049244250E+03  0.24764906051E+03  0.12500091143E+03 0.  0.
    9000005    1    3    3    0    0 -0.45698751179E+02  0.37733378926E+02  0.10023289485E+03  0.11644662706E+03  0.10000000000E+01 0.  0.
    9000005    1    3    3    0    0  0.70439648488E+02 -0.97039485315E+01  0.11025954765E+03  0.13120243345E+03  0.10000000000E+01 0.  0.
         -4    1    1    2    0  502 -0.24740897309E+02 -0.28029430394E+02  0.14856813891E+03  0.15320530593E+03  0.12700000000E+01 0.  1.
<mgrwt>
<rscale>  1 0.13047218E+03</rscale>
<asrwt>0</asrwt>
<pdfrwt beam="1">  1       21 0.58452022E-01 0.13047218E+03</pdfrwt>
<pdfrwt beam="2">  1       -4 0.32150701E-02 0.13047218E+03</pdfrwt>
<totfact> 0.53834717E+04</totfact>
</mgrwt>
</event>
<event>
 6    4  0.7919556E-003  0.1273929E+03  0.7818608E-02  0.1231376E+00
         -4   -1    0    0    0  501 -0.00000000000E+00  0.00000000000E+00  0.91884579707E+02  0.91893356060E+02  0.12700000000E+01 0.  1.
         21   -1    0    0  501  502  0.00000000000E+00 -0.00000000000E+00 -0.78885897250E+02  0.78885897250E+02  0.00000000000E+00 0.  1.
         25    2    1    2    0    0  0.19165427025E+02 -0.15386727710E+02  0.40688811446E+02  0.13373305072E+03  0.12499953798E+03 0.  0.
    9000005    1    3    3    0    0  0.56587587449E+02  0.14623283034E+02  0.58362060639E+02  0.82602212937E+02  0.10000000000E+01 0.  0.
    9000005    1    3    3    0    0 -0.37422160424E+02 -0.30010010744E+02 -0.17673249193E+02  0.51130837786E+02  0.10000000000E+01 0.  0.
         -4    1    1    2    0  502 -0.19165427025E+02  0.15386727710E+02 -0.27690128989E+02  0.37046202587E+02  0.12700000000E+01 0. -1.
<mgrwt>
<rscale>  1 0.12739289E+03</rscale>
<asrwt>0</asrwt>
<pdfrwt beam="2">  1       21 0.12136292E-01 0.12739289E+03</pdfrwt>
<pdfrwt beam="1">  1       -4 0.14137551E-01 0.12739289E+03</pdfrwt>
<totfact> 0.96071912E+04</totfact>
</mgrwt>
</event>
<event>
 6    4  0.7919556E-003  0.1268884E+03  0.7818608E-02  0.1232147E+00
         21   -1    0    0  501  502  0.00000000000E+00  0.00000000000E+00  0.17685998632E+02  0.17685998632E+02  0.00000000000E+00 0. -1.
          4   -1    0    0  502    0 -0.00000000000E+00 -0.00000000000E+00 -0.47305364063E+03  0.47305534540E+03  0.12700000000E+01 0.  1.
         25    2    1    2    0    0  0.11313861116E+02  0.18617353125E+02 -0.45096865683E+03  0.46847986921E+03  0.12500419643E+03 0.  0.
    9000005    1    3    3    0    0  0.57551639607E+02  0.27898396064E+02 -0.36366774458E+03  0.36925024059E+03  0.10000000000E+01 0.  0.
    9000005    1    3    3    0    0 -0.46237778491E+02 -0.92810429383E+01 -0.87300912246E+02  0.99229628624E+02  0.10000000000E+01 0.  0.
          4    1    1    2  501    0 -0.11313861116E+02 -0.18617353125E+02 -0.43989851700E+01  0.22261474822E+02  0.12700000000E+01 0. -1.
<mgrwt>
<rscale>  1 0.12688837E+03</rscale>
<asrwt>0</asrwt>
<pdfrwt beam="1">  1       21 0.27209231E-02 0.12688837E+03</pdfrwt>
<pdfrwt beam="2">  1        4 0.72781115E-01 0.12688837E+03</pdfrwt>
<totfact> 0.52073788E+04</totfact>
</mgrwt>
</event>
<event>
 6    4  0.7919556E-003  0.1273421E+03  0.7818608E-02  0.1231454E+00
         -4   -1    0    0    0  501 -0.00000000000E+00  0.00000000000E+00  0.66981867297E+03  0.66981987696E+03  0.12700000000E+01 0. -1.
         21   -1    0    0  501  502  0.00000000000E+00 -0.00000000000E+00 -0.87902895800E+01  0.87902895800E+01  0.00000000000E+00 0. -1.
         25    2    1    2    0    0 -0.89800631639E+01 -0.22724535441E+02  0.58661142044E+03  0.60027407446E+03  0.12497583702E+03 0.  0.
    9000005    1    3    3    0    0  0.21309477747E+02  0.34873439474E+02  0.41033163177E+03  0.41236306655E+03  0.10000000000E+01 0.  0.
    9000005    1    3    3    0    0 -0.30289540911E+02 -0.57597974915E+02  0.17627978867E+03  0.18791100792E+03  0.10000000000E+01 0.  0.
         -4    1    1    2    0  502  0.89800631639E+01  0.22724535441E+02  0.74416962957E+02  0.78336092072E+02  0.12700000000E+01 0.  1.
<mgrwt>
<rscale>  1 0.12734208E+03</rscale>
<asrwt>0</asrwt>
<pdfrwt beam="2">  1       21 0.13523528E-02 0.12734208E+03</pdfrwt>
<pdfrwt beam="1">  1       -4 0.10305614E+00 0.12734208E+03</pdfrwt>
<totfact> 0.73659883E+04</totfact>
</mgrwt>
</event>
<event>
 6    4  0.7919556E-003  0.1303213E+03  0.7818608E-02  0.1226980E+00
         -4   -1    0    0    0  501 -0.00000000000E+00  0.00000000000E+00  0.15965765085E+03  0.15966270189E+03  0.12700000000E+01 0. -1.
         21   -1    0    0  501  502  0.00000000000E+00 -0.00000000000E+00 -0.55565460785E+02  0.55565460785E+02  0.00000000000E+00 0.  1.
         25    2    1    2    0    0 -0.35335771962E+02 -0.10516612371E+02  0.11799844621E+03  0.17580465730E+03  0.12499771319E+03 0.  0.
    9000005    1    3    3    0    0  0.27859098501E+02  0.40360747787E+02  0.48334255115E+02  0.68864501368E+02  0.10000000000E+01 0.  0.
    9000005    1    3    3    0    0 -0.63194870462E+02 -0.50877360158E+02  0.69664191100E+02  0.10694015593E+03  0.10000000000E+01 0.  0.
         -4    1    1    2    0  502  0.35335771962E+02  0.10516612371E+02 -0.13906256149E+02  0.39423505374E+02  0.12700000000E+01 0.  1.
<mgrwt>
<rscale>  1 0.13032131E+03</rscale>
<asrwt>0</asrwt>
<pdfrwt beam="2">  1       21 0.85485325E-02 0.13032131E+03</pdfrwt>
<pdfrwt beam="1">  1       -4 0.24564220E-01 0.13032131E+03</pdfrwt>
<totfact> 0.66436326E+04</totfact>
</mgrwt>
</event>
<event>
 6    4  0.7919556E-003  0.1285518E+03  0.7818608E-02  0.1229620E+00
         21   -1    0    0  501  502  0.00000000000E+00  0.00000000000E+00  0.11040607708E+02  0.11040607708E+02  0.00000000000E+00 0.  1.
         -4   -1    0    0    0  501 -0.00000000000E+00 -0.00000000000E+00 -0.57712870939E+03  0.57713010674E+03  0.12700000000E+01 0.  1.
         25    2    1    2    0    0  0.55615205090E+01 -0.29490938836E+02 -0.48320003204E+03  0.50000784827E+03  0.12499972552E+03 0.  0.
    9000005    1    3    3    0    0  0.23734151607E+02 -0.52814716319E+02 -0.45649323123E+03  0.46015190359E+03  0.10000000000E+01 0.  0.
    9000005    1    3    3    0    0 -0.18172631098E+02  0.23323777483E+02 -0.26706800809E+02  0.39855944683E+02  0.10000000000E+01 0.  0.
         -4    1    1    2    0  502 -0.55615205090E+01  0.29490938836E+02 -0.82888069640E+02  0.88162866177E+02  0.12700000000E+01 0. -1.
<mgrwt>
<rscale>  1 0.12855185E+03</rscale>
<asrwt>0</asrwt>
<pdfrwt beam="1">  1       21 0.16985552E-02 0.12855185E+03</pdfrwt>
<pdfrwt beam="2">  1       -4 0.88794750E-01 0.12855185E+03</pdfrwt>
<totfact> 0.72047390E+04</totfact>
</mgrwt>
</event>
<event>
 6    4  0.7919556E-003  0.1326417E+03  0.7818608E-02  0.1223588E+00
          4   -1    0    0  502    0 -0.00000000000E+00  0.00000000000E+00  0.43432711091E+02  0.43451274926E+02  0.12700000000E+01 0. -1.
         21   -1    0    0  501  502  0.00000000000E+00 -0.00000000000E+00 -0.18242668848E+03  0.18242668848E+03  0.00000000000E+00 0. -1.
         25    2    1    2    0    0  0.43571425604E+02  0.84133101123E+01 -0.11419531280E+03  0.17502681218E+03  0.12499825038E+03 0.  0.
    9000005    1    3    3    0    0  0.49891504341E+02 -0.50250303258E+02 -0.44220252996E+02  0.83490633954E+02  0.10000000000E+01 0.  0.
    9000005    1    3    3    0    0 -0.63200787370E+01  0.58663613370E+02 -0.69975059806E+02  0.91536178224E+02  0.10000000000E+01 0.  0.
          4    1    1    2  501    0 -0.43571425604E+02 -0.84133101123E+01 -0.24798664589E+02  0.50851151232E+02  0.12700000000E+01 0.  1.
<mgrwt>
<rscale>  1 0.13264168E+03</rscale>
<asrwt>0</asrwt>
<pdfrwt beam="2">  1       21 0.28065644E-01 0.13264168E+03</pdfrwt>
<pdfrwt beam="1">  1        4 0.66837238E-02 0.13264168E+03</pdfrwt>
<totfact> 0.72892272E+04</totfact>
</mgrwt>
</event>
<event>
 6    4  0.7919556E-003  0.1277923E+03  0.7818608E-02  0.1230769E+00
         -4   -1    0    0    0  501 -0.00000000000E+00  0.00000000000E+00  0.56891687488E+03  0.56891829239E+03  0.12700000000E+01 0. -1.
         21   -1    0    0  501  502  0.00000000000E+00 -0.00000000000E+00 -0.11086665823E+02  0.11086665823E+02  0.00000000000E+00 0. -1.
         25    2    1    2    0    0 -0.24334470636E+02  0.10641418740E+02  0.50422992812E+03  0.52017177955E+03  0.12500181425E+03 0.  0.
    9000005    1    3    3    0    0  0.20908707527E+02 -0.46655384075E+02  0.14943478121E+03  0.15794192841E+03  0.10000000000E+01 0.  0.
    9000005    1    3    3    0    0 -0.45243178163E+02  0.57296802815E+02  0.35479514691E+03  0.36222985114E+03  0.10000000000E+01 0.  0.
         -4    1    1    2    0  502  0.24334470636E+02 -0.10641418740E+02  0.53600280929E+02  0.59833178669E+02  0.12700000000E+01 0.  1.
<mgrwt>
<rscale>  1 0.12779225E+03</rscale>
<asrwt>0</asrwt>
<pdfrwt beam="2">  1       21 0.17056413E-02 0.12779225E+03</pdfrwt>
<pdfrwt beam="1">  1       -4 0.87531354E-01 0.12779225E+03</pdfrwt>
<totfact> 0.73847508E+04</totfact>
</mgrwt>
</event>
<event>
 6    4  0.7919556E-003  0.1296331E+03  0.7818608E-02  0.1228001E+00
         21   -1    0    0  501  502  0.00000000000E+00  0.00000000000E+00  0.97554935468E+02  0.97554935468E+02  0.00000000000E+00 0. -1.
          4   -1    0    0  502    0 -0.00000000000E+00 -0.00000000000E+00 -0.69316087594E+02  0.69327721003E+02  0.12700000000E+01 0. -1.
         25    2    1    2    0    0 -0.30863646897E+02  0.15055734351E+02  0.27463866628E+02  0.13251038083E+03  0.12500198887E+03 0.  0.
    9000005    1    3    3    0    0 -0.41943094223E+02 -0.94684432228E+01  0.70005199121E+02  0.82162050085E+02  0.10000000000E+01 0.  0.
    9000005    1    3    3    0    0  0.11079447327E+02  0.24524177574E+02 -0.42541332494E+02  0.50348330747E+02  0.10000000000E+01 0.  0.
          4    1    1    2  501    0  0.30863646897E+02 -0.15055734351E+02  0.77498124536E+00  0.34372275638E+02  0.12700000000E+01 0.  1.
<mgrwt>
<rscale>  1 0.12963309E+03</rscale>
<asrwt>0</asrwt>
<pdfrwt beam="1">  1       21 0.15008452E-01 0.12963309E+03</pdfrwt>
<pdfrwt beam="2">  1        4 0.10665544E-01 0.12963309E+03</pdfrwt>
<totfact> 0.10674005E+05</totfact>
</mgrwt>
</event>
<event>
 6    4  0.7919556E-003  0.1276879E+03  0.7818608E-02  0.1230927E+00
         21   -1    0    0  501  502  0.00000000000E+00  0.00000000000E+00  0.18457036853E+04  0.18457036853E+04  0.00000000000E+00 0. -1.
         -4   -1    0    0    0  501 -0.00000000000E+00 -0.00000000000E+00 -0.36525918705E+01  0.38670825402E+01  0.12700000000E+01 0. -1.
         25    2    1    2    0    0 -0.17476227809E+02 -0.19305751724E+02  0.11571590894E+04  0.11641827021E+04  0.12500430024E+03 0.  0.
    9000005    1    3    3    0    0  0.48446708510E+02 -0.35005210025E+02  0.51561586682E+03  0.51906952368E+03  0.10000000000E+01 0.  0.
    9000005    1    3    3    0    0 -0.65922936319E+02  0.15699458302E+02  0.64154322256E+03  0.64511317839E+03  0.10000000000E+01 0.  0.
         -4    1    1    2    0  502  0.17476227809E+02  0.19305751724E+02  0.68489200403E+03  0.68538806575E+03  0.12700000000E+01 0.  1.
<mgrwt>
<rscale>  1 0.12768792E+03</rscale>
<asrwt>0</asrwt>
<pdfrwt beam="1">  1       21 0.28395369E+00 0.12768792E+03</pdfrwt>
<pdfrwt beam="2">  1       -4 0.57847158E-03 0.12768792E+03</pdfrwt>
<totfact> 0.12067472E+04</totfact>
</mgrwt>
</event>
<event>
 6    4  0.7919556E-003  0.1308148E+03  0.7818608E-02  0.1226252E+00
          4   -1    0    0  502    0 -0.00000000000E+00  0.00000000000E+00  0.11294946977E+04  0.11294954117E+04  0.12700000000E+01 0. -1.
         21   -1    0    0  501  502  0.00000000000E+00 -0.00000000000E+00 -0.71283226376E+01  0.71283226376E+01  0.00000000000E+00 0. -1.
         25    2    1    2    0    0 -0.33489087845E+02 -0.19116792975E+02  0.99440055320E+03  0.10029680751E+04  0.12500211476E+03 0.  0.
    9000005    1    3    3    0    0 -0.47909215835E+02 -0.58717795480E+02  0.40285101502E+03  0.40991830012E+03  0.10000000000E+01 0.  0.
    9000005    1    3    3    0    0  0.14420127990E+02  0.39601002504E+02  0.59154953818E+03  0.59304977498E+03  0.10000000000E+01 0.  0.
          4    1    1    2  501    0  0.33489087845E+02  0.19116792975E+02  0.12796582188E+03  0.13365565924E+03  0.12700000000E+01 0.  1.
<mgrwt>
<rscale>  1 0.13081475E+03</rscale>
<asrwt>0</asrwt>
<pdfrwt beam="2">  1       21 0.10966659E-02 0.13081475E+03</pdfrwt>
<pdfrwt beam="1">  1        4 0.17377703E+00 0.13081475E+03</pdfrwt>
<totfact> 0.28265863E+04</totfact>
</mgrwt>
</event>
<event>
 6    4  0.7919556E-003  0.1273385E+03  0.7818608E-02  0.1231459E+00
          4   -1    0    0  502    0 -0.00000000000E+00  0.00000000000E+00  0.23644965123E+03  0.23645306187E+03  0.12700000000E+01 0.  1.
         21   -1    0    0  501  502  0.00000000000E+00 -0.00000000000E+00 -0.98872526724E+02  0.98872526724E+02  0.00000000000E+00 0. -1.
         25    2    1    2    0    0  0.13671369352E+00  0.24293140546E+02  0.21736151623E+03  0.25191493323E+03  0.12499971791E+03 0.  0.
    9000005    1    3    3    0    0  0.88448287682E+00  0.35360160597E+01 -0.16603174964E+02  0.17027951681E+02  0.10000000000E+01 0.  0.
    9000005    1    3    3    0    0 -0.74776918330E+00  0.20757124486E+02  0.23396469119E+03  0.23488698154E+03  0.10000000000E+01 0.  0.
          4    1    1    2  501    0 -0.13671369352E+00 -0.24293140546E+02 -0.79784391715E+02  0.83410655371E+02  0.12700000000E+01 0. -1.
<mgrwt>
<rscale>  1 0.12733854E+03</rscale>
<asrwt>0</asrwt>
<pdfrwt beam="2">  1       21 0.15211158E-01 0.12733854E+03</pdfrwt>
<pdfrwt beam="1">  1        4 0.36377759E-01 0.12733854E+03</pdfrwt>
<totfact> 0.11411170E+04</totfact>
</mgrwt>
</event>
<event>
 6    4  0.7919556E-003  0.1708084E+03  0.7818608E-02  0.1177007E+00
         -4   -1    0    0    0  501 -0.00000000000E+00  0.00000000000E+00  0.21108016859E+04  0.21108020680E+04  0.12700000000E+01 0. -1.
         21   -1    0    0  501  502  0.00000000000E+00 -0.00000000000E+00 -0.25951215480E+02  0.25951215480E+02  0.00000000000E+00 0.  1.
         25    2    1    2    0    0  0.11011343327E+03  0.37754448735E+02  0.19546500984E+04  0.19620990067E+04  0.12500055466E+03 0.  0.
    9000005    1    3    3    0    0  0.47364322998E+02  0.76188243616E+02  0.77928574476E+03  0.78443310712E+03  0.10000000000E+01 0.  0.
    9000005    1    3    3    0    0  0.62749110268E+02 -0.38433794881E+02  0.11753643536E+04  0.11776658996E+04  0.10000000000E+01 0.  0.
         -4    1    1    2    0  502 -0.11011343327E+03 -0.37754448735E+02  0.13020037209E+03  0.17465427672E+03  0.12700000000E+01 0.  1.
<mgrwt>
<rscale>  1 0.17080839E+03</rscale>
<asrwt>0</asrwt>
<pdfrwt beam="2">  1       21 0.39924964E-02 0.17080839E+03</pdfrwt>
<pdfrwt beam="1">  1       -4 0.32474101E+00 0.17080839E+03</pdfrwt>
<totfact> 0.43948630E+02</totfact>
</mgrwt>
</event>
<event>
 6    4  0.7919556E-003  0.1270635E+03  0.7818608E-02  0.1231879E+00
          4   -1    0    0  502    0 -0.00000000000E+00  0.00000000000E+00  0.14305471199E+03  0.14306034923E+03  0.12700000000E+01 0. -1.
         21   -1    0    0  501  502  0.00000000000E+00 -0.00000000000E+00 -0.16094638058E+03  0.16094638058E+03  0.00000000000E+00 0.  1.
         25    2    1    2    0    0 -0.17054281112E+02  0.15151828291E+02  0.11366287070E+03  0.17048281392E+03  0.12499886105E+03 0.  0.
    9000005    1    3    3    0    0 -0.67282421161E+02  0.18963617044E+02  0.92227261322E+02  0.11572990409E+03  0.10000000000E+01 0.  0.
    9000005    1    3    3    0    0  0.50228140050E+02 -0.38117887536E+01  0.21435609376E+02  0.54752909837E+02  0.10000000000E+01 0.  0.
          4    1    1    2  501    0  0.17054281112E+02 -0.15151828291E+02 -0.13155453929E+03  0.13352391588E+03  0.12700000000E+01 0.  1.
<mgrwt>
<rscale>  1 0.12706353E+03</rscale>
<asrwt>0</asrwt>
<pdfrwt beam="2">  1       21 0.24760982E-01 0.12706353E+03</pdfrwt>
<pdfrwt beam="1">  1        4 0.22009236E-01 0.12706353E+03</pdfrwt>
<totfact> 0.11915302E+04</totfact>
</mgrwt>
</event>
<event>
 6    4  0.7919556E-003  0.1363930E+03  0.7818608E-02  0.1218267E+00
         21   -1    0    0  501  502  0.00000000000E+00  0.00000000000E+00  0.58515829646E+02  0.58515829646E+02  0.00000000000E+00 0.  1.
          4   -1    0    0  502    0 -0.00000000000E+00 -0.00000000000E+00 -0.31621468532E+03  0.31621723563E+03  0.12700000000E+01 0. -1.
         25    2    1    2    0    0  0.32225954814E+02  0.44044136226E+02 -0.28331159031E+03  0.31443361938E+03  0.12499858276E+03 0.  0.
    9000005    1    3    3    0    0  0.71607703671E+01  0.41642049158E+02 -0.14859168343E+02  0.44801024254E+02  0.10000000000E+01 0.  0.
    9000005    1    3    3    0    0  0.25065184447E+02  0.24020870677E+01 -0.26845242197E+03  0.26963259513E+03  0.10000000000E+01 0.  0.
          4    1    1    2  501    0 -0.32225954814E+02 -0.44044136226E+02  0.25612734642E+02  0.60299445896E+02  0.12700000000E+01 0.  1.
<mgrwt>
<rscale>  1 0.13639298E+03</rscale>
<asrwt>0</asrwt>
<pdfrwt beam="1">  1       21 0.90024354E-02 0.13639298E+03</pdfrwt>
<pdfrwt beam="2">  1        4 0.48649669E-01 0.13639298E+03</pdfrwt>
<totfact> 0.16340201E+04</totfact>
</mgrwt>
</event>
<event>
 6    4  0.7919556E-003  0.1269136E+03  0.7818608E-02  0.1232109E+00
          4   -1    0    0  502    0 -0.00000000000E+00  0.00000000000E+00  0.13009348093E+02  0.13071191139E+02  0.12700000000E+01 0.  1.
         21   -1    0    0  501  502  0.00000000000E+00 -0.00000000000E+00 -0.98006318206E+03  0.98006318206E+03  0.00000000000E+00 0.  1.
         25    2    1    2    0    0  0.44103778030E+01  0.21508937498E+02 -0.30028960843E+03  0.32600752530E+03  0.12499988720E+03 0.  0.
    9000005    1    3    3    0    0 -0.13295832789E+02  0.65796987491E+02 -0.23951076277E+03  0.24874168974E+03  0.10000000000E+01 0.  0.
    9000005    1    3    3    0    0  0.17706210592E+02 -0.44288049993E+02 -0.60778845659E+02  0.77265835564E+02  0.10000000000E+01 0.  0.
          4    1    1    2  501    0 -0.44103778030E+01 -0.21508937498E+02 -0.66676422553E+03  0.66712684789E+03  0.12700000000E+01 0. -1.
<mgrwt>
<rscale>  1 0.12691358E+03</rscale>
<asrwt>0</asrwt>
<pdfrwt beam="2">  1       21 0.15077899E+00 0.12691358E+03</pdfrwt>
<pdfrwt beam="1">  1        4 0.20062582E-02 0.12691358E+03</pdfrwt>
<totfact> 0.12374270E+04</totfact>
</mgrwt>
</event>
<event>
 6    4  0.7919556E-003  0.1527190E+03  0.7818608E-02  0.1197171E+00
         21   -1    0    0  501  502  0.00000000000E+00  0.00000000000E+00  0.12004797600E+04  0.12004797600E+04  0.00000000000E+00 0.  1.
          4   -1    0    0  502    0 -0.00000000000E+00 -0.00000000000E+00 -0.14041022439E+02  0.14098340723E+02  0.12700000000E+01 0. -1.
         25    2    1    2    0    0 -0.78415829955E+02  0.39375498327E+02  0.50718024161E+03  0.52967431954E+03  0.12499446006E+03 0.  0.
    9000005    1    3    3    0    0 -0.76691238587E+02  0.36051988106E+02  0.14856070074E+03  0.17103383796E+03  0.10000000000E+01 0.  0.
    9000005    1    3    3    0    0 -0.17245913680E+01  0.33235102212E+01  0.35861954087E+03  0.35864048159E+03  0.10000000000E+01 0.  0.
          4    1    1    2  501    0  0.78415829955E+02 -0.39375498327E+02  0.67925849597E+03  0.68490378120E+03  0.12700000000E+01 0.  1.
<mgrwt>
<rscale>  1 0.15271898E+03</rscale>
<asrwt>0</asrwt>
<pdfrwt beam="1">  1       21 0.18468911E+00 0.15271898E+03</pdfrwt>
<pdfrwt beam="2">  1        4 0.21646190E-02 0.15271898E+03</pdfrwt>
<totfact> 0.64046007E+03</totfact>
</mgrwt>
</event>
<event>
 6    4  0.7919556E-003  0.1325145E+03  0.7818608E-02  0.1223772E+00
          4   -1    0    0  502    0 -0.00000000000E+00  0.00000000000E+00  0.10031629186E+03  0.10032433061E+03  0.12700000000E+01 0. -1.
         21   -1    0    0  501  502  0.00000000000E+00 -0.00000000000E+00 -0.11756746080E+03  0.11756746080E+03  0.00000000000E+00 0.  1.
         25    2    1    2    0    0  0.29961489365E+02 -0.32202940228E+02  0.46493344401E+02  0.14043408628E+03  0.12500152523E+03 0.  0.
    9000005    1    3    3    0    0  0.12642028873E+02  0.74242316994E+00 -0.42291347459E+02  0.44158013498E+02  0.10000000000E+01 0.  0.
    9000005    1    3    3    0    0  0.17319460492E+02 -0.32945363398E+02  0.88784691859E+02  0.96276072779E+02  0.10000000000E+01 0.  0.
          4    1    1    2  501    0 -0.29961489365E+02  0.32202940228E+02 -0.63744513335E+02  0.77457705134E+02  0.12700000000E+01 0.  1.
<mgrwt>
<rscale>  1 0.13251453E+03</rscale>
<asrwt>0</asrwt>
<pdfrwt beam="2">  1       21 0.18087302E-01 0.13251453E+03</pdfrwt>
<pdfrwt beam="1">  1        4 0.15434422E-01 0.13251453E+03</pdfrwt>
<totfact> 0.40384319E+04</totfact>
</mgrwt>
</event>
<event>
 6    4  0.7919556E-003  0.1347493E+03  0.7818608E-02  0.1220574E+00
          4   -1    0    0  502    0 -0.00000000000E+00  0.00000000000E+00  0.80284988976E+03  0.80285089424E+03  0.12700000000E+01 0. -1.
         21   -1    0    0  501  502  0.00000000000E+00 -0.00000000000E+00 -0.52262693932E+02  0.52262693932E+02  0.00000000000E+00 0.  1.
         25    2    1    2    0    0  0.20027135764E+01  0.50293460373E+02  0.78347279513E+03  0.79497609106E+03  0.12499568645E+03 0.  0.
    9000005    1    3    3    0    0 -0.53342626081E+02  0.15123599130E+02  0.19107982242E+03  0.19896396041E+03  0.10000000000E+01 0.  0.
    9000005    1    3    3    0    0  0.55345339657E+02  0.35169861243E+02  0.59239297271E+03  0.59601213064E+03  0.10000000000E+01 0.  0.
          4    1    1    2  501    0 -0.20027135764E+01 -0.50293460373E+02 -0.32885599301E+02  0.60137497116E+02  0.12700000000E+01 0.  1.
<mgrwt>
<rscale>  1 0.13474927E+03</rscale>
<asrwt>0</asrwt>
<pdfrwt beam="2">  1       21 0.80404150E-02 0.13474927E+03</pdfrwt>
<pdfrwt beam="1">  1        4 0.12351662E+00 0.13474927E+03</pdfrwt>
<totfact> 0.25420655E+03</totfact>
</mgrwt>
</event>
<event>
 6    4  0.7919556E-003  0.1265989E+03  0.7818608E-02  0.1232591E+00
          4   -1    0    0  502    0 -0.00000000000E+00  0.00000000000E+00  0.30287904507E+02  0.30314518954E+02  0.12700000000E+01 0.  1.
         21   -1    0    0  501  502  0.00000000000E+00 -0.00000000000E+00 -0.23717464994E+03  0.23717464994E+03  0.00000000000E+00 0. -1.
         25    2    1    2    0    0  0.19847710603E+02 -0.28948056724E+01 -0.10747659977E+03  0.16606776347E+03  0.12499988421E+03 0.  0.
    9000005    1    3    3    0    0  0.35730058709E+02 -0.43153739748E+02 -0.10920621758E+03  0.12274314770E+03  0.10000000000E+01 0.  0.
    9000005    1    3    3    0    0 -0.15882348107E+02  0.40258934076E+02  0.17296178097E+01  0.43324615775E+02  0.10000000000E+01 0.  0.
          4    1    1    2  501    0 -0.19847710603E+02  0.28948056724E+01 -0.99410145664E+02  0.10142140542E+03  0.12700000000E+01 0. -1.
<mgrwt>
<rscale>  1 0.12659890E+03</rscale>
<asrwt>0</asrwt>
<pdfrwt beam="2">  1       21 0.36488406E-01 0.12659890E+03</pdfrwt>
<pdfrwt beam="1">  1        4 0.46619867E-02 0.12659890E+03</pdfrwt>
<totfact> 0.77894167E+04</totfact>
</mgrwt>
</event>
<event>
 6    4  0.7919556E-003  0.1270913E+03  0.7818608E-02  0.1231837E+00
          4   -1    0    0  502    0 -0.00000000000E+00  0.00000000000E+00  0.44672060785E+03  0.44672241312E+03  0.12700000000E+01 0.  1.
         21   -1    0    0  501  502  0.00000000000E+00 -0.00000000000E+00 -0.34589791744E+02  0.34589791744E+02  0.00000000000E+00 0. -1.
         25    2    1    2    0    0 -0.54329574052E+01 -0.22264006208E+02  0.43240030579E+03  0.45069083796E+03  0.12500801565E+03 0.  0.
    9000005    1    3    3    0    0  0.17015344512E+02  0.36878402925E+01  0.40847650740E+03  0.40884860182E+03  0.10000000000E+01 0.  0.
    9000005    1    3    3    0    0 -0.22448301917E+02 -0.25951846500E+02  0.23923798394E+02  0.41842236142E+02  0.10000000000E+01 0.  0.
          4    1    1    2  501    0  0.54329574052E+01  0.22264006208E+02 -0.20269489684E+02  0.30621366897E+02  0.12700000000E+01 0. -1.
<mgrwt>
<rscale>  1 0.12709133E+03</rscale>
<asrwt>0</asrwt>
<pdfrwt beam="2">  1       21 0.53215067E-02 0.12709133E+03</pdfrwt>
<pdfrwt beam="1">  1        4 0.68728175E-01 0.12709133E+03</pdfrwt>
<totfact> 0.19391237E+04</totfact>
</mgrwt>
</event>
<event>
 6    4  0.7919556E-003  0.1388614E+03  0.7818608E-02  0.1214869E+00
         21   -1    0    0  501  502  0.00000000000E+00  0.00000000000E+00  0.10022798770E+04  0.10022798770E+04  0.00000000000E+00 0. -1.
         -4   -1    0    0    0  501 -0.00000000000E+00 -0.00000000000E+00 -0.14533904455E+02  0.14589286435E+02  0.12700000000E+01 0.  1.
         25    2    1    2    0    0  0.43888422409E+02 -0.41610621032E+02  0.35428440986E+03  0.38052585852E+03  0.12499939413E+03 0.  0.
    9000005    1    3    3    0    0  0.28673813904E+02 -0.53900805993E+02  0.35568843126E+03  0.36089159678E+03  0.10000000000E+01 0.  0.
    9000005    1    3    3    0    0  0.15214608505E+02  0.12290184961E+02 -0.14040214016E+01  0.19634261749E+02  0.10000000000E+01 0.  0.
         -4    1    1    2    0  502 -0.43888422409E+02  0.41610621032E+02  0.63346156271E+03  0.63634330494E+03  0.12700000000E+01 0. -1.
<mgrwt>
<rscale>  1 0.13886139E+03</rscale>
<asrwt>0</asrwt>
<pdfrwt beam="1">  1       21 0.15419685E+00 0.13886139E+03</pdfrwt>
<pdfrwt beam="2">  1       -4 0.22403081E-02 0.13886139E+03</pdfrwt>
<totfact> 0.98864063E+03</totfact>
</mgrwt>
</event>
<event>
 6    4  0.7919556E-003  0.1374840E+03  0.7818608E-02  0.1216755E+00
          4   -1    0    0  502    0 -0.00000000000E+00  0.00000000000E+00  0.24355801152E+02  0.24388889884E+02  0.12700000000E+01 0.  1.
         21   -1    0    0  501  502  0.00000000000E+00 -0.00000000000E+00 -0.41755206541E+03  0.41755206541E+03  0.00000000000E+00 0. -1.
         25    2    1    2    0    0  0.37722791788E+02  0.43144237387E+02 -0.21922811769E+03  0.25877173528E+03  0.12496963293E+03 0.  0.
    9000005    1    3    3    0    0  0.71439293536E+02  0.53916220093E+02 -0.99119531252E+02  0.13355228536E+03  0.10000000000E+01 0.  0.
    9000005    1    3    3    0    0 -0.33716501748E+02 -0.10771982705E+02 -0.12010858643E+03  0.12521944991E+03  0.10000000000E+01 0.  0.
          4    1    1    2  501    0 -0.37722791788E+02 -0.43144237387E+02 -0.17396814657E+03  0.18316922002E+03  0.12700000000E+01 0. -1.
<mgrwt>
<rscale>  1 0.13748398E+03</rscale>
<asrwt>0</asrwt>
<pdfrwt beam="2">  1       21 0.64238781E-01 0.13748398E+03</pdfrwt>
<pdfrwt beam="1">  1        4 0.37497401E-02 0.13748398E+03</pdfrwt>
<totfact> 0.34716269E+04</totfact>
</mgrwt>
</event>
<event>
 6    4  0.7919556E-003  0.1306207E+03  0.7818608E-02  0.1226538E+00
         -4   -1    0    0    0  501 -0.00000000000E+00  0.00000000000E+00  0.21344419483E+02  0.21382168812E+02  0.12700000000E+01 0. -1.
         21   -1    0    0  501  502  0.00000000000E+00 -0.00000000000E+00 -0.43521627967E+03  0.43521627967E+03  0.00000000000E+00 0. -1.
         25    2    1    2    0    0  0.15906744125E+02  0.34404127439E+02 -0.19656810815E+03  0.23601013954E+03  0.12500038532E+03 0.  0.
    9000005    1    3    3    0    0  0.55992105365E+02 -0.16089005957E+02 -0.53580008542E+02  0.79156738760E+02  0.10000000000E+01 0.  0.
    9000005    1    3    3    0    0 -0.40085361240E+02  0.50493133396E+02 -0.14298809961E+03  0.15685340078E+03  0.10000000000E+01 0.  0.
         -4    1    1    2    0  502 -0.15906744125E+02 -0.34404127439E+02 -0.21730375203E+03  0.22058830894E+03  0.12700000000E+01 0.  1.
<mgrwt>
<rscale>  1 0.13062069E+03</rscale>
<asrwt>0</asrwt>
<pdfrwt beam="2">  1       21 0.66956348E-01 0.13062069E+03</pdfrwt>
<pdfrwt beam="1">  1       -4 0.32868033E-02 0.13062069E+03</pdfrwt>
<totfact> 0.38890217E+04</totfact>
</mgrwt>
</event>
<event>
 6    4  0.7919556E-003  0.1281946E+03  0.7818608E-02  0.1230159E+00
          4   -1    0    0  502    0 -0.00000000000E+00  0.00000000000E+00  0.80536787725E+03  0.80536887859E+03  0.12700000000E+01 0.  1.
         21   -1    0    0  501  502  0.00000000000E+00 -0.00000000000E+00 -0.86951585054E+01  0.86951585054E+01  0.00000000000E+00 0. -1.
         25    2    1    2    0    0  0.26682656651E+02 -0.98915400132E+01  0.73544839378E+03  0.74653746754E+03  0.12499617509E+03 0.  0.
    9000005    1    3    3    0    0  0.27110287510E+02 -0.77353400760E+00  0.73676169034E+03  0.73726138811E+03  0.10000000000E+01 0.  0.
    9000005    1    3    3    0    0 -0.42763085914E+00 -0.91180060056E+01 -0.13132965582E+01  0.92760794262E+01  0.10000000000E+01 0.  0.
          4    1    1    2  501    0 -0.26682656651E+02  0.98915400132E+01  0.61224324958E+02  0.67526569558E+02  0.12700000000E+01 0. -1.
<mgrwt>
<rscale>  1 0.12819458E+03</rscale>
<asrwt>0</asrwt>
<pdfrwt beam="2">  1       21 0.13377173E-02 0.12819458E+03</pdfrwt>
<pdfrwt beam="1">  1        4 0.12390990E+00 0.12819458E+03</pdfrwt>
<totfact> 0.48487577E+04</totfact>
</mgrwt>
</event>
<event>
 6    4  0.7919556E-003  0.1307370E+03  0.7818608E-02  0.1226366E+00
          4   -1    0    0  502    0 -0.00000000000E+00  0.00000000000E+00  0.34684852698E+03  0.34685085205E+03  0.12700000000E+01 0. -1.
         21   -1    0    0  501  502  0.00000000000E+00 -0.00000000000E+00 -0.21937831632E+02  0.21937831632E+02  0.00000000000E+00 0. -1.
         25    2    1    2    0    0  0.21777366862E+02  0.31496448843E+02  0.28450824219E+03  0.31310878499E+03  0.12500356541E+03 0.  0.
    9000005    1    3    3    0    0 -0.12322520342E+02  0.74549359168E+02  0.15532395632E+03  0.17273095515E+03  0.10000000000E+01 0.  0.
    9000005    1    3    3    0    0  0.34099887205E+02 -0.43052910325E+02  0.12918428588E+03  0.14037782985E+03  0.10000000000E+01 0.  0.
          4    1    1    2  501    0 -0.21777366862E+02 -0.31496448843E+02  0.40402453151E+02  0.55679898687E+02  0.12700000000E+01 0.  1.
<mgrwt>
<rscale>  1 0.13073703E+03</rscale>
<asrwt>0</asrwt>
<pdfrwt beam="2">  1       21 0.33750513E-02 0.13073703E+03</pdfrwt>
<pdfrwt beam="1">  1        4 0.53364314E-01 0.13073703E+03</pdfrwt>
<totfact> 0.70720337E+04</totfact>
</mgrwt>
</event>
<event>
 6    4  0.7919556E-003  0.1267003E+03  0.7818608E-02  0.1232436E+00
         21   -1    0    0  501  502  0.00000000000E+00  0.00000000000E+00  0.45556783460E+02  0.45556783460E+02  0.00000000000E+00 0.  1.
          4   -1    0    0  502    0 -0.00000000000E+00 -0.00000000000E+00 -0.13371712503E+03  0.13372315591E+03  0.12700000000E+01 0.  1.
         25    2    1    2    0    0  0.69879917038E+01  0.19458196794E+02 -0.93995618979E+02  0.15775979037E+03  0.12500208647E+03 0.  0.
    9000005    1    3    3    0    0  0.58228796165E+02  0.20030210582E+02 -0.86164960429E+02  0.10591129517E+03  0.10000000000E+01 0.  0.
    9000005    1    3    3    0    0 -0.51240804461E+02 -0.57201378787E+00 -0.78306585503E+01  0.51848495204E+02  0.10000000000E+01 0.  0.
          4    1    1    2  501    0 -0.69879917038E+01 -0.19458196794E+02  0.58352774057E+01  0.21520148999E+02  0.12700000000E+01 0. -1.
<mgrwt>
<rscale>  1 0.12670034E+03</rscale>
<asrwt>0</asrwt>
<pdfrwt beam="1">  1       21 0.70087359E-02 0.12670034E+03</pdfrwt>
<pdfrwt beam="2">  1        4 0.20573691E-01 0.12670034E+03</pdfrwt>
<totfact> 0.12860473E+05</totfact>
</mgrwt>
</event>
<event>
 6    4  0.7919556E-003  0.1374222E+03  0.7818608E-02  0.1216840E+00
         21   -1    0    0  501  502  0.00000000000E+00  0.00000000000E+00  0.74885302569E+03  0.74885302569E+03  0.00000000000E+00 0. -1.
         -4   -1    0    0    0  501 -0.00000000000E+00 -0.00000000000E+00 -0.16322176760E+02  0.16371510443E+02  0.12700000000E+01 0.  1.
         25    2    1    2    0    0  0.49297041011E+02 -0.28781446228E+02  0.31317230874E+03  0.34199673928E+03  0.12500521916E+03 0.  0.
    9000005    1    3    3    0    0  0.14382056318E+02  0.11460261541E+02 -0.52468577165E+01  0.19149690714E+02  0.10000000000E+01 0.  0.
    9000005    1    3    3    0    0  0.34914984693E+02 -0.40241707769E+02  0.31841916646E+03  0.32284704857E+03  0.10000000000E+01 0.  0.
         -4    1    1    2    0  502 -0.49297041011E+02  0.28781446228E+02  0.41935854019E+03  0.42322779686E+03  0.12700000000E+01 0. -1.
<mgrwt>
<rscale>  1 0.13742225E+03</rscale>
<asrwt>0</asrwt>
<pdfrwt beam="1">  1       21 0.11520813E+00 0.13742225E+03</pdfrwt>
<pdfrwt beam="2">  1       -4 0.25149824E-02 0.13742225E+03</pdfrwt>
<totfact> 0.17186947E+04</totfact>
</mgrwt>
</event>
<event>
 6    4  0.7919556E-003  0.1266307E+03  0.7818608E-02  0.1232543E+00
         -4   -1    0    0    0  501 -0.00000000000E+00  0.00000000000E+00  0.41618065998E+02  0.41637438891E+02  0.12700000000E+01 0.  1.
         21   -1    0    0  501  502  0.00000000000E+00 -0.00000000000E+00 -0.35607711932E+03  0.35607711932E+03  0.00000000000E+00 0. -1.
         25    2    1    2    0    0 -0.73450253496E+01 -0.18880669136E+02 -0.56001637069E+02  0.13846124969E+03  0.12499962098E+03 0.  0.
    9000005    1    3    3    0    0 -0.44779326123E+02 -0.13721353944E+02  0.22021621832E+02  0.51763070139E+02  0.10000000000E+01 0.  0.
    9000005    1    3    3    0    0  0.37434300773E+02 -0.51593151918E+01 -0.78023258901E+02  0.86698179549E+02  0.10000000000E+01 0.  0.
         -4    1    1    2    0  502  0.73450253496E+01  0.18880669136E+02 -0.25845741625E+03  0.25925330852E+03  0.12700000000E+01 0. -1.
<mgrwt>
<rscale>  1 0.12663070E+03</rscale>
<asrwt>0</asrwt>
<pdfrwt beam="2">  1       21 0.54781095E-01 0.12663070E+03</pdfrwt>
<pdfrwt beam="1">  1       -4 0.64044438E-02 0.12663070E+03</pdfrwt>
<totfact> 0.20450661E+04</totfact>
</mgrwt>
</event>
<event>
 6    4  0.7919556E-003  0.1309535E+03  0.7818608E-02  0.1226048E+00
         -4   -1    0    0    0  501 -0.00000000000E+00  0.00000000000E+00  0.17947647145E+03  0.17948096474E+03  0.12700000000E+01 0. -1.
         21   -1    0    0  501  502  0.00000000000E+00 -0.00000000000E+00 -0.82449056092E+02  0.82449056092E+02  0.00000000000E+00 0.  1.
         25    2    1    2    0    0  0.29750368513E+02  0.25305813616E+02  0.14805431913E+03  0.19765851518E+03  0.12499335415E+03 0.  0.
    9000005    1    3    3    0    0 -0.21579646024E+02  0.61705268235E+02  0.95128619113E+02  0.11542822629E+03  0.10000000000E+01 0.  0.
    9000005    1    3    3    0    0  0.51330014537E+02 -0.36399454619E+02  0.52925700018E+02  0.82230288892E+02  0.10000000000E+01 0.  0.
         -4    1    1    2    0  502 -0.29750368513E+02 -0.25305813616E+02 -0.51026903774E+02  0.64271505648E+02  0.12700000000E+01 0.  1.
<mgrwt>
<rscale>  1 0.13095345E+03</rscale>
<asrwt>0</asrwt>
<pdfrwt beam="2">  1       21 0.12684470E-01 0.13095345E+03</pdfrwt>
<pdfrwt beam="1">  1       -4 0.27612863E-01 0.13095345E+03</pdfrwt>
<totfact> 0.26772923E+04</totfact>
</mgrwt>
</event>
<event>
 6    4  0.7919556E-003  0.1316358E+03  0.7818608E-02  0.1225049E+00
         21   -1    0    0  501  502  0.00000000000E+00  0.00000000000E+00  0.23870043022E+02  0.23870043022E+02  0.00000000000E+00 0. -1.
          4   -1    0    0  502    0 -0.00000000000E+00 -0.00000000000E+00 -0.42430283309E+03  0.42430473373E+03  0.12700000000E+01 0.  1.
         25    2    1    2    0    0  0.33480416769E+02  0.24394405311E+02 -0.37962569095E+03  0.40180049949E+03  0.12494779249E+03 0.  0.
    9000005    1    3    3    0    0  0.58561001426E+02  0.60512688910E+02 -0.20288381517E+03  0.21966797415E+03  0.10000000000E+01 0.  0.
    9000005    1    3    3    0    0 -0.25080584657E+02 -0.36118283598E+02 -0.17674187577E+03  0.18213252535E+03  0.10000000000E+01 0.  0.
          4    1    1    2  501    0 -0.33480416769E+02 -0.24394405311E+02 -0.20807099120E+02  0.46374277259E+02  0.12700000000E+01 0. -1.
<mgrwt>
<rscale>  1 0.13163577E+03</rscale>
<asrwt>0</asrwt>
<pdfrwt beam="1">  1       21 0.36723143E-02 0.13163577E+03</pdfrwt>
<pdfrwt beam="2">  1        4 0.65280104E-01 0.13163577E+03</pdfrwt>
<totfact> 0.40383450E+04</totfact>
</mgrwt>
</event>
<event>
 6    4  0.7919556E-003  0.1465778E+03  0.7818608E-02  0.1204742E+00
          4   -1    0    0  502    0 -0.00000000000E+00  0.00000000000E+00  0.47225951905E+02  0.47243025235E+02  0.12700000000E+01 0.  1.
         21   -1    0    0  501  502  0.00000000000E+00 -0.00000000000E+00 -0.37969707064E+03  0.37969707064E+03  0.00000000000E+00 0. -1.
         25    2    1    2    0    0 -0.64444735375E+02 -0.41317637792E+02 -0.88466558358E+02  0.17120564474E+03  0.12499907893E+03 0.  0.
    9000005    1    3    3    0    0  0.14464184381E+02  0.23023291961E+02  0.10546919988E+02  0.29180852005E+02  0.10000000000E+01 0.  0.
    9000005    1    3    3    0    0 -0.78908919756E+02 -0.64340929753E+02 -0.99013478346E+02  0.14202479274E+03  0.10000000000E+01 0.  0.
          4    1    1    2  501    0  0.64444735375E+02  0.41317637792E+02 -0.24400456038E+03  0.25573445113E+03  0.12700000000E+01 0. -1.
<mgrwt>
<rscale>  1 0.14657776E+03</rscale>
<asrwt>0</asrwt>
<pdfrwt beam="2">  1       21 0.58414935E-01 0.14657776E+03</pdfrwt>
<pdfrwt beam="1">  1        4 0.72670076E-02 0.14657776E+03</pdfrwt>
<totfact> 0.14697974E+04</totfact>
</mgrwt>
</event>
<event>
 6    4  0.7919556E-003  0.1321205E+03  0.7818608E-02  0.1224343E+00
         -4   -1    0    0    0  501 -0.00000000000E+00  0.00000000000E+00  0.48061064475E+03  0.48061232271E+03  0.12700000000E+01 0.  1.
         21   -1    0    0  501  502  0.00000000000E+00 -0.00000000000E+00 -0.44443275766E+02  0.44443275766E+02  0.00000000000E+00 0. -1.
         25    2    1    2    0    0 -0.41260771157E+02 -0.11324576160E+02  0.45823145531E+03  0.47689820998E+03  0.12500055512E+03 0.  0.
    9000005    1    3    3    0    0  0.14219405341E+02  0.11265142998E+02  0.38345566708E+01  0.18568757629E+02  0.10000000000E+01 0.  0.
    9000005    1    3    3    0    0 -0.55480176498E+02 -0.22589719159E+02  0.45439689864E+03  0.45832945235E+03  0.10000000000E+01 0.  0.
         -4    1    1    2    0  502  0.41260771157E+02  0.11324576160E+02 -0.22064086331E+02  0.48157388502E+02  0.12700000000E+01 0. -1.
<mgrwt>
<rscale>  1 0.13212054E+03</rscale>
<asrwt>0</asrwt>
<pdfrwt beam="2">  1       21 0.68374274E-02 0.13212054E+03</pdfrwt>
<pdfrwt beam="1">  1       -4 0.73941620E-01 0.13212054E+03</pdfrwt>
<totfact> 0.10864913E+04</totfact>
</mgrwt>
</event>
<event>
 6    4  0.7919556E-003  0.1332584E+03  0.7818608E-02  0.1222699E+00
         21   -1    0    0  501  502  0.00000000000E+00  0.00000000000E+00  0.10541977447E+03  0.10541977447E+03  0.00000000000E+00 0. -1.
         -4   -1    0    0    0  501 -0.00000000000E+00 -0.00000000000E+00 -0.77589698437E+02  0.77600091517E+02  0.12700000000E+01 0. -1.
         25    2    1    2    0    0 -0.45837644301E+02 -0.56271151484E+01  0.10478912899E+02  0.13366979180E+03  0.12500020626E+03 0.  0.
    9000005    1    3    3    0    0  0.25992430626E+02  0.79046197618E+01  0.45197384538E+02  0.52743653955E+02  0.10000000000E+01 0.  0.
    9000005    1    3    3    0    0 -0.71830074928E+02 -0.13531734910E+02 -0.34718471639E+02  0.80926137847E+02  0.10000000000E+01 0.  0.
         -4    1    1    2    0  502  0.45837644301E+02  0.56271151484E+01  0.17351163134E+02  0.49350074185E+02  0.12700000000E+01 0.  1.
<mgrwt>
<rscale>  1 0.13325842E+03</rscale>
<asrwt>0</asrwt>
<pdfrwt beam="1">  1       21 0.16218427E-01 0.13325842E+03</pdfrwt>
<pdfrwt beam="2">  1       -4 0.11938265E-01 0.13325842E+03</pdfrwt>
<totfact> 0.76872894E+04</totfact>
</mgrwt>
</event>
<event>
 6    4  0.7919556E-003  0.1268492E+03  0.7818608E-02  0.1232207E+00
         21   -1    0    0  501  502  0.00000000000E+00  0.00000000000E+00  0.15974374307E+03  0.15974374307E+03  0.00000000000E+00 0. -1.
         -4   -1    0    0    0  501 -0.00000000000E+00 -0.00000000000E+00 -0.42021255672E+02  0.42040442769E+02  0.12700000000E+01 0. -1.
         25    2    1    2    0    0  0.83746011662E+01 -0.19885820112E+02  0.60346896402E+02  0.14047226915E+03  0.12500052283E+03 0.  0.
    9000005    1    3    3    0    0 -0.35903926403E+02  0.35731388489E+02  0.44942999420E+02  0.67725159663E+02  0.10000000000E+01 0.  0.
    9000005    1    3    3    0    0  0.44278527569E+02 -0.55617208601E+02  0.15403896982E+02  0.72747109485E+02  0.10000000000E+01 0.  0.
         -4    1    1    2    0  502 -0.83746011662E+01  0.19885820112E+02  0.57375590995E+02  0.61311916691E+02  0.12700000000E+01 0.  1.
<mgrwt>
<rscale>  1 0.12684916E+03</rscale>
<asrwt>0</asrwt>
<pdfrwt beam="1">  1       21 0.24575960E-01 0.12684916E+03</pdfrwt>
<pdfrwt beam="2">  1       -4 0.64666729E-02 0.12684916E+03</pdfrwt>
<totfact> 0.98434335E+04</totfact>
</mgrwt>
</event>
<event>
 6    4  0.7919556E-003  0.1441006E+03  0.7818608E-02  0.1207915E+00
          4   -1    0    0  502    0 -0.00000000000E+00  0.00000000000E+00  0.13041975752E+02  0.13103664813E+02  0.12700000000E+01 0. -1.
         21   -1    0    0  501  502  0.00000000000E+00 -0.00000000000E+00 -0.10119618677E+04  0.10119618677E+04  0.00000000000E+00 0. -1.
         25    2    1    2    0    0  0.43508515690E+02  0.56986139927E+02 -0.81537216332E+03  0.82800769160E+03  0.12499824620E+03 0.  0.
    9000005    1    3    3    0    0  0.84519216142E+01 -0.39483146772E+02 -0.27814380616E+03  0.28106108013E+03  0.10000000000E+01 0.  0.
    9000005    1    3    3    0    0  0.35056594075E+02  0.96469286699E+02 -0.53722835716E+03  0.54694661148E+03  0.10000000000E+01 0.  0.
          4    1    1    2  501    0 -0.43508515690E+02 -0.56986139927E+02 -0.18354772866E+03  0.19705784095E+03  0.12700000000E+01 0.  1.
<mgrwt>
<rscale>  1 0.14410056E+03</rscale>
<asrwt>0</asrwt>
<pdfrwt beam="2">  1       21 0.15568645E+00 0.14410056E+03</pdfrwt>
<pdfrwt beam="1">  1        4 0.20112643E-02 0.14410056E+03</pdfrwt>
<totfact> 0.11405997E+04</totfact>
</mgrwt>
</event>
<event>
 6    4  0.7919556E-003  0.1394615E+03  0.7818608E-02  0.1214055E+00
         21   -1    0    0  501  502  0.00000000000E+00  0.00000000000E+00  0.14280662092E+03  0.14280662092E+03  0.00000000000E+00 0.  1.
         -4   -1    0    0    0  501 -0.00000000000E+00 -0.00000000000E+00 -0.95291544091E+02  0.95300006690E+02  0.12700000000E+01 0. -1.
         25    2    1    2    0    0 -0.39872827714E+02 -0.47277453223E+02 -0.26172456690E+02  0.14189610080E+03  0.12499802382E+03 0.  0.
    9000005    1    3    3    0    0 -0.42765231826E+02  0.32179107516E+02 -0.31660924291E+02  0.62191431409E+02  0.10000000000E+01 0.  0.
    9000005    1    3    3    0    0  0.28924041120E+01 -0.79456560739E+02  0.54884676017E+01  0.79704669390E+02  0.10000000000E+01 0.  0.
         -4    1    1    2    0  502  0.39872827714E+02  0.47277453223E+02  0.73687533520E+02  0.96210526812E+02  0.12700000000E+01 0.  1.
<mgrwt>
<rscale>  1 0.13946149E+03</rscale>
<asrwt>0</asrwt>
<pdfrwt beam="1">  1       21 0.21970249E-01 0.13946149E+03</pdfrwt>
<pdfrwt beam="2">  1       -4 0.14661323E-01 0.13946149E+03</pdfrwt>
<totfact> 0.30990125E+04</totfact>
</mgrwt>
</event>
<event>
 6    4  0.7919556E-003  0.1288811E+03  0.7818608E-02  0.1229126E+00
          4   -1    0    0  502    0 -0.00000000000E+00  0.00000000000E+00  0.33112142706E+02  0.33136488870E+02  0.12700000000E+01 0.  1.
         21   -1    0    0  501  502  0.00000000000E+00 -0.00000000000E+00 -0.53392384904E+03  0.53392384904E+03  0.00000000000E+00 0. -1.
         25    2    1    2    0    0 -0.25883140009E+02  0.17754611823E+02 -0.95187768833E+02  0.16022185061E+03  0.12500066759E+03 0.  0.
    9000005    1    3    3    0    0  0.38801329486E+02  0.13460712265E+02 -0.85246896435E+02  0.94629632232E+02  0.10000000000E+01 0.  0.
    9000005    1    3    3    0    0 -0.64684469495E+02  0.42938995577E+01 -0.99408723979E+01  0.65592218374E+02  0.10000000000E+01 0.  0.
          4    1    1    2  501    0  0.25883140009E+02 -0.17754611823E+02 -0.40562393750E+03  0.40683848730E+03  0.12700000000E+01 0. -1.
<mgrwt>
<rscale>  1 0.12888107E+03</rscale>
<asrwt>0</asrwt>
<pdfrwt beam="2">  1       21 0.82142130E-01 0.12888107E+03</pdfrwt>
<pdfrwt beam="1">  1        4 0.50961648E-02 0.12888107E+03</pdfrwt>
<totfact> 0.12331688E+04</totfact>
</mgrwt>
</event>
<event>
 6    4  0.7919556E-003  0.1288355E+03  0.7818608E-02  0.1229194E+00
         21   -1    0    0  501  502  0.00000000000E+00  0.00000000000E+00  0.10587299019E+03  0.10587299019E+03  0.00000000000E+00 0.  1.
          4   -1    0    0  502    0 -0.00000000000E+00 -0.00000000000E+00 -0.13362436183E+03  0.13363039689E+03  0.12700000000E+01 0. -1.
         25    2    1    2    0    0  0.27130006794E+02 -0.15428932215E+02 -0.98493882832E+02  0.16217160184E+03  0.12499797707E+03 0.  0.
    9000005    1    3    3    0    0  0.10091250996E+02 -0.46764955082E+02  0.91929308095E+01  0.48726833956E+02  0.10000000000E+01 0.  0.
    9000005    1    3    3    0    0  0.17038755798E+02  0.31336022867E+02 -0.10768681364E+03  0.11344476788E+03  0.10000000000E+01 0.  0.
          4    1    1    2  501    0 -0.27130006794E+02  0.15428932215E+02  0.70742511199E+02  0.77331785242E+02  0.12700000000E+01 0.  1.
<mgrwt>
<rscale>  1 0.12883549E+03</rscale>
<asrwt>0</asrwt>
<pdfrwt beam="1">  1       21 0.16288152E-01 0.12883549E+03</pdfrwt>
<pdfrwt beam="2">  1        4 0.20558644E-01 0.12883549E+03</pdfrwt>
<totfact> 0.29290726E+04</totfact>
</mgrwt>
</event>
<event>
 6    4  0.7919556E-003  0.1272730E+03  0.7818608E-02  0.1231559E+00
         -4   -1    0    0    0  501 -0.00000000000E+00  0.00000000000E+00  0.87267041516E+03  0.87267133928E+03  0.12700000000E+01 0. -1.
         21   -1    0    0  501  502  0.00000000000E+00 -0.00000000000E+00 -0.17556619744E+02  0.17556619744E+02  0.00000000000E+00 0.  1.
         25    2    1    2    0    0  0.13884901699E+02  0.19509704732E+02  0.85678832994E+03  0.86618973863E+03  0.12500000764E+03 0.  0.
    9000005    1    3    3    0    0 -0.84561791616E+01 -0.37952370701E+02  0.10664912012E+03  0.11352058946E+03  0.10000000000E+01 0.  0.
    9000005    1    3    3    0    0  0.22341080861E+02  0.57462075433E+02  0.75013920982E+03  0.75266914917E+03  0.10000000000E+01 0.  0.
         -4    1    1    2    0  502 -0.13884901699E+02 -0.19509704732E+02 -0.16745345223E+01  0.24038220395E+02  0.12700000000E+01 0.  1.
<mgrwt>
<rscale>  1 0.12727302E+03</rscale>
<asrwt>0</asrwt>
<pdfrwt beam="2">  1       21 0.27010191E-02 0.12727302E+03</pdfrwt>
<pdfrwt beam="1">  1       -4 0.13426056E+00 0.12727302E+03</pdfrwt>
<totfact> 0.12846625E+04</totfact>
</mgrwt>
</event>
<event>
 6    4  0.7919556E-003  0.2536448E+03  0.7818608E-02  0.1111023E+00
          4   -1    0    0  502    0 -0.00000000000E+00  0.00000000000E+00  0.15488330898E+03  0.15488851571E+03  0.12700000000E+01 0. -1.
         21   -1    0    0  501  502  0.00000000000E+00 -0.00000000000E+00 -0.37947603394E+03  0.37947603394E+03  0.00000000000E+00 0.  1.
         25    2    1    2    0    0 -0.20437553821E+03 -0.83319694274E+02 -0.64533922272E+02  0.26172565791E+03  0.12499664320E+03 0.  0.
    9000005    1    3    3    0    0 -0.13484817091E+03  0.95268990730E+00 -0.41979018401E-01  0.13485525047E+03  0.10000000000E+01 0.  0.
    9000005    1    3    3    0    0 -0.69527367294E+02 -0.84272384181E+02 -0.64491943253E+02  0.12687040744E+03  0.10000000000E+01 0.  0.
          4    1    1    2  501    0  0.20437553821E+03  0.83319694274E+02 -0.16005880269E+03  0.27263889174E+03  0.12700000000E+01 0.  1.
<mgrwt>
<rscale>  1 0.25364482E+03</rscale>
<asrwt>0</asrwt>
<pdfrwt beam="2">  1       21 0.58380928E-01 0.25364482E+03</pdfrwt>
<pdfrwt beam="1">  1        4 0.23828765E-01 0.25364482E+03</pdfrwt>
<totfact> 0.18955799E+03</totfact>
</mgrwt>
</event>
<event>
 6    4  0.7919556E-003  0.1275773E+03  0.7818608E-02  0.1231096E+00
         21   -1    0    0  501  502  0.00000000000E+00  0.00000000000E+00  0.58138085195E+02  0.58138085195E+02  0.00000000000E+00 0.  1.
         -4   -1    0    0    0  501 -0.00000000000E+00 -0.00000000000E+00 -0.11395402397E+03  0.11396110073E+03  0.12700000000E+01 0.  1.
         25    2    1    2    0    0  0.23142737440E+02 -0.10847719125E+02 -0.21632795259E+02  0.12939837203E+03  0.12499080585E+03 0.  0.
    9000005    1    3    3    0    0 -0.92204645247E+00  0.51180204754E+02 -0.34350278446E+02  0.61653914374E+02  0.10000000000E+01 0.  0.
    9000005    1    3    3    0    0  0.24064783893E+02 -0.62027923878E+02  0.12717483187E+02  0.67744457656E+02  0.10000000000E+01 0.  0.
         -4    1    1    2    0  502 -0.23142737440E+02  0.10847719125E+02 -0.34183143520E+02  0.42700813896E+02  0.12700000000E+01 0. -1.
<mgrwt>
<rscale>  1 0.12757727E+03</rscale>
<asrwt>0</asrwt>
<pdfrwt beam="1">  1       21 0.89443209E-02 0.12757727E+03</pdfrwt>
<pdfrwt beam="2">  1       -4 0.17532999E-01 0.12757727E+03</pdfrwt>
<totfact> 0.11255121E+05</totfact>
</mgrwt>
</event>
<event>
 6    4  0.7919556E-003  0.1328329E+03  0.7818608E-02  0.1223312E+00
          4   -1    0    0  502    0 -0.00000000000E+00  0.00000000000E+00  0.10215102629E+03  0.10215892067E+03  0.12700000000E+01 0.  1.
         21   -1    0    0  501  502  0.00000000000E+00 -0.00000000000E+00 -0.78682119601E+02  0.78682119601E+02  0.00000000000E+00 0.  1.
         25    2    1    2    0    0  0.29403930623E+02 -0.33989991483E+02  0.27668824020E+02  0.13568394932E+03  0.12499863849E+03 0.  0.
    9000005    1    3    3    0    0  0.26872869352E+02  0.20958835087E+02 -0.37310708240E+02  0.50542188564E+02  0.10000000000E+01 0.  0.
    9000005    1    3    3    0    0  0.25310612719E+01 -0.54948826571E+02  0.64979532261E+02  0.85141760761E+02  0.10000000000E+01 0.  0.
          4    1    1    2  501    0 -0.29403930623E+02  0.33989991483E+02 -0.41999173296E+01  0.45157090946E+02  0.12700000000E+01 0. -1.
<mgrwt>
<rscale>  1 0.13283287E+03</rscale>
<asrwt>0</asrwt>
<pdfrwt beam="2">  1       21 0.12104941E-01 0.13283287E+03</pdfrwt>
<pdfrwt beam="1">  1        4 0.15716938E-01 0.13283287E+03</pdfrwt>
<totfact> 0.80706985E+04</totfact>
</mgrwt>
</event>
<event>
 6    4  0.7919556E-003  0.1314413E+03  0.7818608E-02  0.1225333E+00
          4   -1    0    0  502    0 -0.00000000000E+00  0.00000000000E+00  0.12353414308E+03  0.12354067106E+03  0.12700000000E+01 0.  1.
         21   -1    0    0  501  502  0.00000000000E+00 -0.00000000000E+00 -0.13352895765E+03  0.13352895765E+03  0.00000000000E+00 0. -1.
         25    2    1    2    0    0 -0.79785465652E+00 -0.40640263690E+02  0.83081141165E+02  0.15549692548E+03  0.12499820084E+03 0.  0.
    9000005    1    3    3    0    0 -0.56033451433E+02 -0.44791073020E+02  0.66103827279E+02  0.97553594924E+02  0.10000000000E+01 0.  0.
    9000005    1    3    3    0    0  0.55235596776E+02  0.41508093294E+01  0.16977313887E+02  0.57943330558E+02  0.10000000000E+01 0.  0.
          4    1    1    2  501    0  0.79785465652E+00  0.40640263690E+02 -0.93075955738E+02  0.10157270323E+03  0.12700000000E+01 0. -1.
<mgrwt>
<rscale>  1 0.13144131E+03</rscale>
<asrwt>0</asrwt>
<pdfrwt beam="2">  1       21 0.20542917E-01 0.13144131E+03</pdfrwt>
<pdfrwt beam="1">  1        4 0.19006220E-01 0.13144131E+03</pdfrwt>
<totfact> 0.22081458E+04</totfact>
</mgrwt>
</event>
<event>
 6    4  0.7919556E-003  0.1626388E+03  0.7818608E-02  0.1185749E+00
          4   -1    0    0  502    0 -0.00000000000E+00  0.00000000000E+00  0.13620474087E+03  0.13621066160E+03  0.12700000000E+01 0. -1.
         21   -1    0    0  501  502  0.00000000000E+00 -0.00000000000E+00 -0.16395961877E+03  0.16395961877E+03  0.00000000000E+00 0.  1.
         25    2    1    2    0    0 -0.10152549949E+03 -0.22786433826E+02  0.50133176365E+02  0.17019024149E+03  0.12499893724E+03 0.  0.
    9000005    1    3    3    0    0 -0.23707068710E+02  0.49863465580E+02  0.84854735133E+01  0.55869433210E+02  0.10000000000E+01 0.  0.
    9000005    1    3    3    0    0 -0.77818430776E+02 -0.72649899406E+02  0.41647702851E+02  0.11432080828E+03  0.10000000000E+01 0.  0.
          4    1    1    2  501    0  0.10152549949E+03  0.22786433826E+02 -0.77888054268E+02  0.12998003889E+03  0.12700000000E+01 0.  1.
<mgrwt>
<rscale>  1 0.16263881E+03</rscale>
<asrwt>0</asrwt>
<pdfrwt beam="2">  1       21 0.25224557E-01 0.16263881E+03</pdfrwt>
<pdfrwt beam="1">  1        4 0.20955409E-01 0.16263881E+03</pdfrwt>
<totfact> 0.12832704E+04</totfact>
</mgrwt>
</event>
<event>
 6    4  0.7919556E-003  0.1310940E+03  0.7818608E-02  0.1225841E+00
          4   -1    0    0  502    0 -0.00000000000E+00  0.00000000000E+00  0.13631803421E+02  0.13690835056E+02  0.12700000000E+01 0.  1.
         21   -1    0    0  501  502  0.00000000000E+00 -0.00000000000E+00 -0.64430446833E+03  0.64430446833E+03  0.00000000000E+00 0.  1.
         25    2    1    2    0    0 -0.96612398905E+01  0.38293931998E+02 -0.33571851395E+03  0.36040610860E+03  0.12500351085E+03 0.  0.
    9000005    1    3    3    0    0  0.28727201599E+02 -0.36710867063E+02 -0.11009872025E+03  0.11956449336E+03  0.10000000000E+01 0.  0.
    9000005    1    3    3    0    0 -0.38388441489E+02  0.75004799061E+02 -0.22561979370E+03  0.24084161524E+03  0.10000000000E+01 0.  0.
          4    1    1    2  501    0  0.96612398905E+01 -0.38293931998E+02 -0.29495415096E+03  0.29758919478E+03  0.12700000000E+01 0. -1.
<mgrwt>
<rscale>  1 0.13109402E+03</rscale>
<asrwt>0</asrwt>
<pdfrwt beam="2">  1       21 0.99123779E-01 0.13109402E+03</pdfrwt>
<pdfrwt beam="1">  1        4 0.21018374E-02 0.13109402E+03</pdfrwt>
<totfact> 0.32335901E+04</totfact>
</mgrwt>
</event>
<event>
 6    4  0.7919556E-003  0.1268820E+03  0.7818608E-02  0.1232157E+00
         21   -1    0    0  501  502  0.00000000000E+00  0.00000000000E+00  0.22047277887E+02  0.22047277887E+02  0.00000000000E+00 0. -1.
          4   -1    0    0  502    0 -0.00000000000E+00 -0.00000000000E+00 -0.26650413338E+03  0.26650715939E+03  0.12700000000E+01 0. -1.
         25    2    1    2    0    0  0.50930273765E+01 -0.21158103068E+02 -0.22909974326E+03  0.26188876554E+03  0.12500171559E+03 0.  0.
    9000005    1    3    3    0    0  0.64289898015E+02 -0.36480114941E+01 -0.13106139622E+03  0.14602940989E+03  0.10000000000E+01 0.  0.
    9000005    1    3    3    0    0 -0.59196870639E+02 -0.17510091574E+02 -0.98038347039E+02  0.11585935564E+03  0.10000000000E+01 0.  0.
          4    1    1    2  501    0 -0.50930273765E+01  0.21158103068E+02 -0.15357112230E+02  0.26665671740E+02  0.12700000000E+01 0.  1.
<mgrwt>
<rscale>  1 0.12688197E+03</rscale>
<asrwt>0</asrwt>
<pdfrwt beam="1">  1       21 0.33918890E-02 0.12688197E+03</pdfrwt>
<pdfrwt beam="2">  1        4 0.41003682E-01 0.12688197E+03</pdfrwt>
<totfact> 0.11871029E+05</totfact>
</mgrwt>
</event>
<event>
 6    4  0.7919556E-003  0.1271052E+03  0.7818608E-02  0.1231815E+00
         21   -1    0    0  501  502  0.00000000000E+00  0.00000000000E+00  0.35035228039E+01  0.35035228039E+01  0.00000000000E+00 0. -1.
         -4   -1    0    0    0  501 -0.00000000000E+00 -0.00000000000E+00 -0.16140776206E+04  0.16140781202E+04  0.12700000000E+01 0. -1.
         25    2    1    2    0    0 -0.15087121357E+02  0.17579344259E+02 -0.13824019900E+04  0.13882330475E+04  0.12497630890E+03 0.  0.
    9000005    1    3    3    0    0 -0.13409543087E+02  0.44571505008E+02 -0.19345395953E+03  0.19897705737E+03  0.10000000000E+01 0.  0.
    9000005    1    3    3    0    0 -0.16775782707E+01 -0.26992160749E+02 -0.11889480304E+04  0.11892559901E+04  0.10000000000E+01 0.  0.
         -4    1    1    2    0  502  0.15087121357E+02 -0.17579344259E+02 -0.22817210780E+03  0.22934859549E+03  0.12700000000E+01 0.  1.
<mgrwt>
<rscale>  1 0.12710520E+03</rscale>
<asrwt>0</asrwt>
<pdfrwt beam="1">  1       21 0.53900280E-03 0.12710520E+03</pdfrwt>
<pdfrwt beam="2">  1       -4 0.24833770E+00 0.12710520E+03</pdfrwt>
<totfact> 0.29979634E+04</totfact>
</mgrwt>
</event>
<event>
 6    4  0.7919556E-003  0.1298676E+03  0.7818608E-02  0.1227652E+00
         -4   -1    0    0    0  501 -0.00000000000E+00  0.00000000000E+00  0.20495518088E+02  0.20534828017E+02  0.12700000000E+01 0.  1.
         21   -1    0    0  501  502  0.00000000000E+00 -0.00000000000E+00 -0.34902438412E+03  0.34902438412E+03  0.00000000000E+00 0. -1.
         25    2    1    2    0    0  0.20770102591E+02  0.28496102593E+02 -0.22036741890E+03  0.25578778967E+03  0.12498867551E+03 0.  0.
    9000005    1    3    3    0    0  0.57166454510E+02  0.14560548574E+00 -0.19483143361E+03  0.20304756153E+03  0.10000000000E+01 0.  0.
    9000005    1    3    3    0    0 -0.36396351919E+02  0.28350497107E+02 -0.25535985292E+02  0.52740228138E+02  0.10000000000E+01 0.  0.
         -4    1    1    2    0  502 -0.20770102591E+02 -0.28496102593E+02 -0.10816144714E+03  0.11377142247E+03  0.12700000000E+01 0. -1.
<mgrwt>
<rscale>  1 0.12986760E+03</rscale>
<asrwt>0</asrwt>
<pdfrwt beam="2">  1       21 0.53696058E-01 0.12986760E+03</pdfrwt>
<pdfrwt beam="1">  1       -4 0.31563583E-02 0.12986760E+03</pdfrwt>
<totfact> 0.66191165E+04</totfact>
</mgrwt>
</event>
<event>
 6    4  0.7919556E-003  0.1277457E+03  0.7818608E-02  0.1230840E+00
         -4   -1    0    0    0  501 -0.00000000000E+00  0.00000000000E+00  0.42780070689E+03  0.42780259199E+03  0.12700000000E+01 0.  1.
         21   -1    0    0  501  502  0.00000000000E+00 -0.00000000000E+00 -0.13942976315E+02  0.13942976315E+02  0.00000000000E+00 0.  1.
         25    2    1    2    0    0 -0.25738034142E+02  0.56044976418E+01  0.35367113215E+03  0.37603486655E+03  0.12500037740E+03 0.  0.
    9000005    1    3    3    0    0  0.41840911062E+02  0.29798199558E+02  0.19886317208E+03  0.20539268669E+03  0.10000000000E+01 0.  0.
    9000005    1    3    3    0    0 -0.67578945203E+02 -0.24193701917E+02  0.15480796007E+03  0.17064217986E+03  0.10000000000E+01 0.  0.
         -4    1    1    2    0  502  0.25738034142E+02 -0.56044976418E+01  0.60186598427E+02  0.65710701758E+02  0.12700000000E+01 0. -1.
<mgrwt>
<rscale>  1 0.12774565E+03</rscale>
<asrwt>0</asrwt>
<pdfrwt beam="2">  1       21 0.21450736E-02 0.12774565E+03</pdfrwt>
<pdfrwt beam="1">  1       -4 0.65820077E-01 0.12774565E+03</pdfrwt>
<totfact> 0.95221415E+04</totfact>
</mgrwt>
</event>
<event>
 6    4  0.7919556E-003  0.1275794E+03  0.7818608E-02  0.1231092E+00
         -4   -1    0    0    0  501 -0.00000000000E+00  0.00000000000E+00  0.20001545121E+02  0.20041823950E+02  0.12700000000E+01 0.  1.
         21   -1    0    0  501  502  0.00000000000E+00 -0.00000000000E+00 -0.31419694879E+03  0.31419694879E+03  0.00000000000E+00 0. -1.
         25    2    1    2    0    0  0.10109165103E+02  0.23434651988E+02 -0.20501716466E+03  0.24147159457E+03  0.12500046018E+03 0.  0.
    9000005    1    3    3    0    0  0.39737387913E+02 -0.35649779300E+02 -0.50867998940E+02  0.73746322474E+02  0.10000000000E+01 0.  0.
    9000005    1    3    3    0    0 -0.29628222810E+02  0.59084431288E+02 -0.15414916572E+03  0.16772527210E+03  0.10000000000E+01 0.  0.
         -4    1    1    2    0  502 -0.10109165103E+02 -0.23434651988E+02 -0.89178239007E+02  0.92767178168E+02  0.12700000000E+01 0. -1.
<mgrwt>
<rscale>  1 0.12757936E+03</rscale>
<asrwt>0</asrwt>
<pdfrwt beam="2">  1       21 0.48337991E-01 0.12757936E+03</pdfrwt>
<pdfrwt beam="1">  1       -4 0.30804566E-02 0.12757936E+03</pdfrwt>
<totfact> 0.85289564E+04</totfact>
</mgrwt>
</event>
<event>
 6    4  0.7919556E-003  0.1279249E+03  0.7818608E-02  0.1230568E+00
          4   -1    0    0  502    0 -0.00000000000E+00  0.00000000000E+00  0.48426344911E+03  0.48426511442E+03  0.12700000000E+01 0.  1.
         21   -1    0    0  501  502  0.00000000000E+00 -0.00000000000E+00 -0.22536550142E+02  0.22536550142E+02  0.00000000000E+00 0. -1.
         25    2    1    2    0    0  0.49637808742E+01  0.26744052443E+02  0.46219043627E+03  0.47956728870E+03  0.12499960620E+03 0.  0.
    9000005    1    3    3    0    0 -0.79135101319E+01  0.33366579815E+02  0.25774661243E+02  0.42910202206E+02  0.10000000000E+01 0.  0.
    9000005    1    3    3    0    0  0.12877291006E+02 -0.66225273719E+01  0.43641577503E+03  0.43665708649E+03  0.10000000000E+01 0.  0.
          4    1    1    2  501    0 -0.49637808742E+01 -0.26744052443E+02 -0.46353730465E+00  0.27234375860E+02  0.12700000000E+01 0. -1.
<mgrwt>
<rscale>  1 0.12792492E+03</rscale>
<asrwt>0</asrwt>
<pdfrwt beam="2">  1       21 0.34671619E-02 0.12792492E+03</pdfrwt>
<pdfrwt beam="1">  1        4 0.74504942E-01 0.12792492E+03</pdfrwt>
<totfact> 0.33283005E+04</totfact>
</mgrwt>
</event>
<event>
 6    4  0.7919556E-003  0.1272936E+03  0.7818608E-02  0.1231528E+00
         21   -1    0    0  501  502  0.00000000000E+00  0.00000000000E+00  0.22199303736E+02  0.22199303736E+02  0.00000000000E+00 0.  1.
         -4   -1    0    0    0  501 -0.00000000000E+00 -0.00000000000E+00 -0.41572390610E+03  0.41572584596E+03  0.12700000000E+01 0.  1.
         25    2    1    2    0    0  0.22779795577E+02  0.77386647980E+01 -0.39376806317E+03  0.41383203465E+03  0.12499943725E+03 0.  0.
    9000005    1    3    3    0    0  0.17505874338E+02 -0.48317260954E+02 -0.30063953425E+03  0.30500187359E+03  0.10000000000E+01 0.  0.
    9000005    1    3    3    0    0  0.52739212383E+01  0.56055925752E+02 -0.93128528921E+02  0.10883016106E+03  0.10000000000E+01 0.  0.
         -4    1    1    2    0  502 -0.22779795577E+02 -0.77386647980E+01  0.24346081059E+00  0.24093115044E+02  0.12700000000E+01 0. -1.
<mgrwt>
<rscale>  1 0.12729362E+03</rscale>
<asrwt>0</asrwt>
<pdfrwt beam="1">  1       21 0.34152777E-02 0.12729362E+03</pdfrwt>
<pdfrwt beam="2">  1       -4 0.63960464E-01 0.12729362E+03</pdfrwt>
<totfact> 0.47336580E+04</totfact>
</mgrwt>
</event>
<event>
 6    4  0.7919556E-003  0.1283266E+03  0.7818608E-02  0.1229960E+00
         21   -1    0    0  501  502  0.00000000000E+00  0.00000000000E+00  0.57689134387E+02  0.57689134387E+02  0.00000000000E+00 0.  1.
          4   -1    0    0  502    0 -0.00000000000E+00 -0.00000000000E+00 -0.11702034021E+03  0.11702723155E+03  0.12700000000E+01 0.  1.
         25    2    1    2    0    0 -0.14895510989E+02 -0.24917510448E+02 -0.66858835057E+02  0.14469909297E+03  0.12499986042E+03 0.  0.
    9000005    1    3    3    0    0 -0.91994906601E+01  0.44051090874E+02 -0.60201782190E+02  0.75169034944E+02  0.10000000000E+01 0.  0.
    9000005    1    3    3    0    0 -0.56960203284E+01 -0.68968601321E+02 -0.66570528671E+01  0.69530058023E+02  0.10000000000E+01 0.  0.
          4    1    1    2  501    0  0.14895510989E+02  0.24917510448E+02  0.75276292320E+01  0.30017272967E+02  0.12700000000E+01 0. -1.
<mgrwt>
<rscale>  1 0.12832663E+03</rscale>
<asrwt>0</asrwt>
<pdfrwt beam="1">  1       21 0.88752515E-02 0.12832663E+03</pdfrwt>
<pdfrwt beam="2">  1        4 0.18004735E-01 0.12832663E+03</pdfrwt>
<totfact> 0.10892197E+05</totfact>
</mgrwt>
</event>
<event>
 6    4  0.7919556E-003  0.1292601E+03  0.7818608E-02  0.1228558E+00
         21   -1    0    0  501  502  0.00000000000E+00  0.00000000000E+00  0.92929473283E+02  0.92929473283E+02  0.00000000000E+00 0.  1.
          4   -1    0    0  502    0 -0.00000000000E+00 -0.00000000000E+00 -0.77001696976E+02  0.77012169410E+02  0.12700000000E+01 0.  1.
         25    2    1    2    0    0  0.88898815045E+01  0.31718394222E+02 -0.75346562673E+01  0.12947949782E+03  0.12499233091E+03 0.  0.
    9000005    1    3    3    0    0  0.11895690901E+02  0.79266888359E+02 -0.14048471672E+02  0.81382471137E+02  0.10000000000E+01 0.  0.
    9000005    1    3    3    0    0 -0.30058093968E+01 -0.47548494136E+02  0.65138154051E+01  0.48097026685E+02  0.10000000000E+01 0.  0.
          4    1    1    2  501    0 -0.88898815045E+01 -0.31718394222E+02  0.23462432575E+02  0.40462144871E+02  0.12700000000E+01 0. -1.
<mgrwt>
<rscale>  1 0.12926008E+03</rscale>
<asrwt>0</asrwt>
<pdfrwt beam="1">  1       21 0.14296842E-01 0.12926008E+03</pdfrwt>
<pdfrwt beam="2">  1        4 0.11847888E-01 0.12926008E+03</pdfrwt>
<totfact> 0.97392865E+04</totfact>
</mgrwt>
</event>
<event>
 6    4  0.7919556E-003  0.1632925E+03  0.7818608E-02  0.1185029E+00
         -4   -1    0    0    0  501 -0.00000000000E+00  0.00000000000E+00  0.71947516357E+03  0.71947628446E+03  0.12700000000E+01 0. -1.
         21   -1    0    0  501  502  0.00000000000E+00 -0.00000000000E+00 -0.27989038021E+02  0.27989038021E+02  0.00000000000E+00 0.  1.
         25    2    1    2    0    0  0.12693063956E+02  0.10429731963E+03  0.53183908971E+03  0.55634276048E+03  0.12500162013E+03 0.  0.
    9000005    1    3    3    0    0  0.25900882623E+02 -0.11591911143E+02  0.24580352652E+03  0.24743807664E+03  0.10000000000E+01 0.  0.
    9000005    1    3    3    0    0 -0.13207818667E+02  0.11588923077E+03  0.28603556320E+03  0.30890468383E+03  0.10000000000E+01 0.  0.
         -4    1    1    2    0  502 -0.12693063956E+02 -0.10429731963E+03  0.15964703584E+03  0.19112256200E+03  0.12700000000E+01 0.  1.
<mgrwt>
<rscale>  1 0.16329253E+03</rscale>
<asrwt>0</asrwt>
<pdfrwt beam="2">  1       21 0.43060064E-02 0.16329253E+03</pdfrwt>
<pdfrwt beam="1">  1       -4 0.11069078E+00 0.16329253E+03</pdfrwt>
<totfact> 0.96819311E+03</totfact>
</mgrwt>
</event>
<event>
 6    4  0.7919556E-003  0.1499141E+03  0.7818608E-02  0.1200579E+00
          4   -1    0    0  502    0 -0.00000000000E+00  0.00000000000E+00  0.56024844410E+03  0.56024988355E+03  0.12700000000E+01 0.  1.
         21   -1    0    0  501  502  0.00000000000E+00 -0.00000000000E+00 -0.32552400651E+02  0.32552400651E+02  0.00000000000E+00 0. -1.
         25    2    1    2    0    0 -0.76281908629E+02 -0.32096193515E+02  0.46613692512E+03  0.48965077829E+03  0.12500062599E+03 0.  0.
    9000005    1    3    3    0    0 -0.85707284637E+02  0.10068842936E+02  0.17285631401E+03  0.19320306812E+03  0.10000000000E+01 0.  0.
    9000005    1    3    3    0    0  0.94253760080E+01 -0.42165036451E+02  0.29328061111E+03  0.29644771017E+03  0.10000000000E+01 0.  0.
          4    1    1    2  501    0  0.76281908629E+02  0.32096193515E+02  0.61559118332E+02  0.10315150591E+03  0.12700000000E+01 0. -1.
<mgrwt>
<rscale>  1 0.14991415E+03</rscale>
<asrwt>0</asrwt>
<pdfrwt beam="2">  1       21 0.50080620E-02 0.14991415E+03</pdfrwt>
<pdfrwt beam="1">  1        4 0.86194078E-01 0.14991415E+03</pdfrwt>
<totfact> 0.13282415E+04</totfact>
</mgrwt>
</event>
<event>
 6    4  0.7919556E-003  0.1267911E+03  0.7818608E-02  0.1232296E+00
         21   -1    0    0  501  502  0.00000000000E+00  0.00000000000E+00  0.39254733535E+02  0.39254733535E+02  0.00000000000E+00 0. -1.
         -4   -1    0    0    0  501 -0.00000000000E+00 -0.00000000000E+00 -0.66175743411E+03  0.66175865275E+03  0.12700000000E+01 0. -1.
         25    2    1    2    0    0 -0.53720339493E+01  0.20538429747E+02 -0.65224243315E+03  0.66445178841E+03  0.12500120671E+03 0.  0.
    9000005    1    3    3    0    0  0.47227536757E+02  0.42402952948E+02 -0.23840291462E+03  0.24670914119E+03  0.10000000000E+01 0.  0.
    9000005    1    3    3    0    0 -0.52599570706E+02 -0.21864523201E+02 -0.41383951853E+03  0.41774264722E+03  0.10000000000E+01 0.  0.
         -4    1    1    2    0  502  0.53720339493E+01 -0.20538429747E+02  0.29739732580E+02  0.36561597874E+02  0.12700000000E+01 0.  1.
<mgrwt>
<rscale>  1 0.12679112E+03</rscale>
<asrwt>0</asrwt>
<pdfrwt beam="1">  1       21 0.60391898E-02 0.12679112E+03</pdfrwt>
<pdfrwt beam="2">  1       -4 0.10181051E+00 0.12679112E+03</pdfrwt>
<totfact> 0.65241669E+03</totfact>
</mgrwt>
</event>
<event>
 6    4  0.7919556E-003  0.1268996E+03  0.7818608E-02  0.1232130E+00
         21   -1    0    0  501  502  0.00000000000E+00  0.00000000000E+00  0.70158480831E+01  0.70158480831E+01  0.00000000000E+00 0. -1.
         -4   -1    0    0    0  501 -0.00000000000E+00 -0.00000000000E+00 -0.87648234610E+03  0.87648326620E+03  0.12700000000E+01 0. -1.
         25    2    1    2    0    0  0.21399798032E+02 -0.46020908733E+01 -0.81440989717E+03  0.82423721426E+03  0.12499749670E+03 0.  0.
    9000005    1    3    3    0    0 -0.37235183883E+02  0.37193021289E+02 -0.26980817614E+03  0.27489494659E+03  0.10000000000E+01 0.  0.
    9000005    1    3    3    0    0  0.58634981915E+02 -0.41795112162E+02 -0.54460172103E+03  0.54934226767E+03  0.10000000000E+01 0.  0.
         -4    1    1    2    0  502 -0.21399798032E+02  0.46020908733E+01 -0.55056600852E+02  0.59261900016E+02  0.12700000000E+01 0.  1.
<mgrwt>
<rscale>  1 0.12689959E+03</rscale>
<asrwt>0</asrwt>
<pdfrwt beam="1">  1       21 0.10793606E-02 0.12689959E+03</pdfrwt>
<pdfrwt beam="2">  1       -4 0.13485243E+00 0.12689959E+03</pdfrwt>
<totfact> 0.55339336E+04</totfact>
</mgrwt>
</event>
<event>
 6    4  0.7919556E-003  0.1291104E+03  0.7818608E-02  0.1228782E+00
          4   -1    0    0  502    0 -0.00000000000E+00  0.00000000000E+00  0.13213577148E+02  0.13274468767E+02  0.12700000000E+01 0.  1.
         21   -1    0    0  501  502  0.00000000000E+00 -0.00000000000E+00 -0.51311882525E+03  0.51311882525E+03  0.00000000000E+00 0. -1.
         25    2    1    2    0    0 -0.21173715082E+02 -0.24384133017E+02 -0.35027027720E+03  0.37330786175E+03  0.12500632146E+03 0.  0.
    9000005    1    3    3    0    0 -0.16050637536E+02 -0.51128305921E+01  0.49038208595E+01  0.17573032209E+02  0.10000000000E+01 0.  0.
    9000005    1    3    3    0    0 -0.51230775459E+01 -0.19271302425E+02 -0.35517409806E+03  0.35573482954E+03  0.10000000000E+01 0.  0.
          4    1    1    2  501    0  0.21173715082E+02  0.24384133017E+02 -0.14963497090E+03  0.15308543226E+03  0.12700000000E+01 0. -1.
<mgrwt>
<rscale>  1 0.12911039E+03</rscale>
<asrwt>0</asrwt>
<pdfrwt beam="2">  1       21 0.78941345E-01 0.12911039E+03</pdfrwt>
<pdfrwt beam="1">  1        4 0.20376632E-02 0.12911039E+03</pdfrwt>
<totfact> 0.56915748E+04</totfact>
</mgrwt>
</event>
<event>
 6    4  0.7919556E-003  0.1278563E+03  0.7818608E-02  0.1230672E+00
         21   -1    0    0  501  502  0.00000000000E+00  0.00000000000E+00  0.29678095528E+03  0.29678095528E+03  0.00000000000E+00 0. -1.
         -4   -1    0    0    0  501 -0.00000000000E+00 -0.00000000000E+00 -0.37427549928E+02  0.37449090692E+02  0.12700000000E+01 0.  1.
         25    2    1    2    0    0  0.25995668701E+02  0.70884649392E+01  0.75657296682E+02  0.14856396300E+03  0.12498481281E+03 0.  0.
    9000005    1    3    3    0    0 -0.89666351152E+01  0.61520584089E+02  0.46250030328E+02  0.77493535971E+02  0.10000000000E+01 0.  0.
    9000005    1    3    3    0    0  0.34962303816E+02 -0.54432119150E+02  0.29407266353E+02  0.71070427026E+02  0.10000000000E+01 0.  0.
         -4    1    1    2    0  502 -0.25995668701E+02 -0.70884649392E+01  0.18369610867E+03  0.18566608297E+03  0.12700000000E+01 0. -1.
<mgrwt>
<rscale>  1 0.12785627E+03</rscale>
<asrwt>0</asrwt>
<pdfrwt beam="1">  1       21 0.45658607E-01 0.12785627E+03</pdfrwt>
<pdfrwt beam="2">  1       -4 0.57599508E-02 0.12785627E+03</pdfrwt>
<totfact> 0.35407996E+04</totfact>
</mgrwt>
</event>
<event>
 6    4  0.7919556E-003  0.1284414E+03  0.7818608E-02  0.1229787E+00
         21   -1    0    0  501  502  0.00000000000E+00  0.00000000000E+00  0.12660177259E+03  0.12660177259E+03  0.00000000000E+00 0. -1.
          4   -1    0    0  502    0 -0.00000000000E+00 -0.00000000000E+00 -0.61723839896E+02  0.61736903968E+02  0.12700000000E+01 0.  1.
         25    2    1    2    0    0 -0.63797395548E+01  0.28832810868E+02  0.13609812537E+02  0.12916042799E+03  0.12500062840E+03 0.  0.
    9000005    1    3    3    0    0  0.11732767564E+02  0.73120008637E+02 -0.11765839759E+02  0.74990855996E+02  0.10000000000E+01 0.  0.
    9000005    1    3    3    0    0 -0.18112507119E+02 -0.44287197769E+02  0.25375652296E+02  0.54169571992E+02  0.10000000000E+01 0.  0.
          4    1    1    2  501    0  0.63797395548E+01 -0.28832810868E+02  0.51268120162E+02  0.59178248574E+02  0.12700000000E+01 0. -1.
<mgrwt>
<rscale>  1 0.12844138E+03</rscale>
<asrwt>0</asrwt>
<pdfrwt beam="1">  1       21 0.19477196E-01 0.12844138E+03</pdfrwt>
<pdfrwt beam="2">  1        4 0.94974703E-02 0.12844138E+03</pdfrwt>
<totfact> 0.80592916E+04</totfact>
</mgrwt>
</event>
<event>
 6    4  0.7919556E-003  0.1269057E+03  0.7818608E-02  0.1232121E+00
         21   -1    0    0  501  502  0.00000000000E+00  0.00000000000E+00  0.51310434830E+02  0.51310434830E+02  0.00000000000E+00 0.  1.
          4   -1    0    0  502    0 -0.00000000000E+00 -0.00000000000E+00 -0.12001218825E+03  0.12001890780E+03  0.12700000000E+01 0.  1.
         25    2    1    2    0    0 -0.47077255177E+01  0.21400581820E+02 -0.76330229062E+02  0.14809242970E+03  0.12499966514E+03 0.  0.
    9000005    1    3    3    0    0  0.53419481290E+02  0.37481579750E+02 -0.50288608564E+02  0.82392074577E+02  0.10000000000E+01 0.  0.
    9000005    1    3    3    0    0 -0.58127206807E+02 -0.16080997930E+02 -0.26041620498E+02  0.65700355127E+02  0.10000000000E+01 0.  0.
          4    1    1    2  501    0  0.47077255177E+01 -0.21400581820E+02  0.76284756379E+01  0.23236912926E+02  0.12700000000E+01 0. -1.
<mgrwt>
<rscale>  1 0.12690573E+03</rscale>
<asrwt>0</asrwt>
<pdfrwt beam="1">  1       21 0.78939131E-02 0.12690573E+03</pdfrwt>
<pdfrwt beam="2">  1        4 0.18465139E-01 0.12690573E+03</pdfrwt>
<totfact> 0.12730678E+05</totfact>
</mgrwt>
</event>
<event>
 6    4  0.7919556E-003  0.1710083E+03  0.7818608E-02  0.1176800E+00
         21   -1    0    0  501  502  0.00000000000E+00  0.00000000000E+00  0.19105344148E+03  0.19105344148E+03  0.00000000000E+00 0. -1.
          4   -1    0    0  502    0 -0.00000000000E+00 -0.00000000000E+00 -0.57805778127E+03  0.57805917637E+03  0.12700000000E+01 0.  1.
         25    2    1    2    0    0  0.11039900834E+03  0.37841924921E+02 -0.54584382975E+03  0.57200465557E+03  0.12499554871E+03 0.  0.
    9000005    1    3    3    0    0  0.97185941227E+02  0.59487753283E+02 -0.52994191349E+03  0.54205473122E+03  0.10000000000E+01 0.  0.
    9000005    1    3    3    0    0  0.13213067117E+02 -0.21645828362E+02 -0.15901916255E+02  0.29949924352E+02  0.10000000000E+01 0.  0.
          4    1    1    2  501    0 -0.11039900834E+03 -0.37841924921E+02  0.15883948996E+03  0.19710796228E+03  0.12700000000E+01 0. -1.
<mgrwt>
<rscale>  1 0.17100830E+03</rscale>
<asrwt>0</asrwt>
<pdfrwt beam="1">  1       21 0.29392837E-01 0.17100830E+03</pdfrwt>
<pdfrwt beam="2">  1        4 0.88932397E-01 0.17100830E+03</pdfrwt>
<totfact> 0.52215364E+02</totfact>
</mgrwt>
</event>
<event>
 6    4  0.7919556E-003  0.1353278E+03  0.7818608E-02  0.1219758E+00
         21   -1    0    0  501  502  0.00000000000E+00  0.00000000000E+00  0.12888257684E+03  0.12888257684E+03  0.00000000000E+00 0. -1.
         -4   -1    0    0    0  501 -0.00000000000E+00 -0.00000000000E+00 -0.67894665217E+02  0.67906542136E+02  0.12700000000E+01 0. -1.
         25    2    1    2    0    0 -0.50712725898E+02  0.10207035741E+02  0.45607239660E+02  0.14280632434E+03  0.12505063701E+03 0.  0.
    9000005    1    3    3    0    0 -0.74885306832E+02  0.18534791716E+02 -0.13568874990E+02  0.78335573348E+02  0.10000000000E+01 0.  0.
    9000005    1    3    3    0    0  0.24172580934E+02 -0.83277559746E+01  0.59176114651E+02  0.64470750994E+02  0.10000000000E+01 0.  0.
         -4    1    1    2    0  502  0.50712725898E+02 -0.10207035741E+02  0.15380671965E+02  0.53982794636E+02  0.12700000000E+01 0.  1.
<mgrwt>
<rscale>  1 0.13532785E+03</rscale>
<asrwt>0</asrwt>
<pdfrwt beam="1">  1       21 0.19828089E-01 0.13532785E+03</pdfrwt>
<pdfrwt beam="2">  1       -4 0.10446728E-01 0.13532785E+03</pdfrwt>
<totfact> 0.66866869E+04</totfact>
</mgrwt>
</event>
<event>
 6    4  0.7919556E-003  0.1268593E+03  0.7818608E-02  0.1232192E+00
          4   -1    0    0  502    0 -0.00000000000E+00  0.00000000000E+00  0.18116916793E+02  0.18161375886E+02  0.12700000000E+01 0. -1.
         21   -1    0    0  501  502  0.00000000000E+00 -0.00000000000E+00 -0.53975693496E+03  0.53975693496E+03  0.00000000000E+00 0.  1.
         25    2    1    2    0    0 -0.60301578851E+01 -0.20788020514E+02 -0.20872313998E+03  0.24425114624E+03  0.12499907469E+03 0.  0.
    9000005    1    3    3    0    0  0.54746286267E+02 -0.15997707101E+02 -0.56582119795E+02  0.80346865359E+02  0.10000000000E+01 0.  0.
    9000005    1    3    3    0    0 -0.60776444152E+02 -0.47903134130E+01 -0.15214102019E+03  0.16390428088E+03  0.10000000000E+01 0.  0.
          4    1    1    2  501    0  0.60301578851E+01  0.20788020514E+02 -0.31291687818E+03  0.31366716461E+03  0.12700000000E+01 0.  1.
<mgrwt>
<rscale>  1 0.12685927E+03</rscale>
<asrwt>0</asrwt>
<pdfrwt beam="2">  1       21 0.83039530E-01 0.12685927E+03</pdfrwt>
<pdfrwt beam="1">  1        4 0.27907528E-02 0.12685927E+03</pdfrwt>
<totfact> 0.31163257E+04</totfact>
</mgrwt>
</event>
<event>
 6    4  0.7919556E-003  0.1301082E+03  0.7818608E-02  0.1227295E+00
         21   -1    0    0  501  502  0.00000000000E+00  0.00000000000E+00  0.17957274158E+02  0.17957274158E+02  0.00000000000E+00 0.  1.
          4   -1    0    0  502    0 -0.00000000000E+00 -0.00000000000E+00 -0.10372628910E+04  0.10372636685E+04  0.12700000000E+01 0. -1.
         25    2    1    2    0    0  0.13868590335E+02  0.33331573344E+02 -0.10094174761E+04  0.10177680415E+04  0.12499925441E+03 0.  0.
    9000005    1    3    3    0    0 -0.47363512598E+02 -0.12047509151E+02 -0.26606638270E+03  0.27051943517E+03  0.10000000000E+01 0.  0.
    9000005    1    3    3    0    0  0.61232102933E+02  0.45379082494E+02 -0.74335109341E+03  0.74724860631E+03  0.10000000000E+01 0.  0.
          4    1    1    2  501    0 -0.13868590335E+02 -0.33331573344E+02 -0.98881407606E+01  0.37452901185E+02  0.12700000000E+01 0.  1.
<mgrwt>
<rscale>  1 0.13010821E+03</rscale>
<asrwt>0</asrwt>
<pdfrwt beam="1">  1       21 0.27626573E-02 0.13010821E+03</pdfrwt>
<pdfrwt beam="2">  1        4 0.15958244E+00 0.13010821E+03</pdfrwt>
<totfact> 0.80175026E+03</totfact>
</mgrwt>
</event>
<event>
 6    4  0.7919556E-003  0.1327876E+03  0.7818608E-02  0.1223377E+00
         21   -1    0    0  501  502  0.00000000000E+00  0.00000000000E+00  0.40182579661E+02  0.40182579661E+02  0.00000000000E+00 0. -1.
          4   -1    0    0  502    0 -0.00000000000E+00 -0.00000000000E+00 -0.41066632378E+03  0.41066828754E+03  0.12700000000E+01 0.  1.
         25    2    1    2    0    0 -0.70528482812E+01  0.44240010623E+02 -0.38213137646E+03  0.40454534433E+03  0.12500250210E+03 0.  0.
    9000005    1    3    3    0    0  0.48521825840E+02 -0.13774272874E+02 -0.11466735774E+03  0.12527450302E+03  0.10000000000E+01 0.  0.
    9000005    1    3    3    0    0 -0.55574674122E+02  0.58014283497E+02 -0.26746401872E+03  0.27927084131E+03  0.10000000000E+01 0.  0.
          4    1    1    2  501    0  0.70528482812E+01 -0.44240010623E+02  0.11647632344E+02  0.46305522867E+02  0.12700000000E+01 0. -1.
<mgrwt>
<rscale>  1 0.13278760E+03</rscale>
<asrwt>0</asrwt>
<pdfrwt beam="1">  1       21 0.61819351E-02 0.13278760E+03</pdfrwt>
<pdfrwt beam="2">  1        4 0.63181132E-01 0.13278760E+03</pdfrwt>
<totfact> 0.18093914E+04</totfact>
</mgrwt>
</event>
<event>
 6    4  0.7919556E-003  0.1267613E+03  0.7818608E-02  0.1232342E+00
         -4   -1    0    0    0  501 -0.00000000000E+00  0.00000000000E+00  0.17025578699E+04  0.17025583436E+04  0.12700000000E+01 0. -1.
         21   -1    0    0  501  502  0.00000000000E+00 -0.00000000000E+00 -0.32646955737E+01  0.32646955737E+01  0.00000000000E+00 0. -1.
         25    2    1    2    0    0 -0.25772051115E+01  0.20910991084E+02  0.13690155634E+04  0.13748716458E+04  0.12499807292E+03 0.  0.
    9000005    1    3    3    0    0  0.35517133185E+02  0.19961344966E+02  0.15532531208E+03  0.16058292130E+03  0.10000000000E+01 0.  0.
    9000005    1    3    3    0    0 -0.38094338297E+02  0.94964611777E+00  0.12136902513E+04  0.12142887245E+04  0.10000000000E+01 0.  0.
         -4    1    1    2    0  502  0.25772051115E+01 -0.20910991084E+02  0.33027761097E+03  0.33095139332E+03  0.12700000000E+01 0.  1.
<mgrwt>
<rscale>  1 0.12676131E+03</rscale>
<asrwt>0</asrwt>
<pdfrwt beam="2">  1       21 0.50226222E-03 0.12676131E+03</pdfrwt>
<pdfrwt beam="1">  1       -4 0.26195031E+00 0.12676131E+03</pdfrwt>
<totfact> 0.27921455E+04</totfact>
</mgrwt>
</event>
<event>
 6    4  0.7919556E-003  0.1272062E+03  0.7818608E-02  0.1231661E+00
         21   -1    0    0  501  502  0.00000000000E+00  0.00000000000E+00  0.26304385150E+03  0.26304385150E+03  0.00000000000E+00 0. -1.
         -4   -1    0    0    0  501 -0.00000000000E+00 -0.00000000000E+00 -0.23023246577E+02  0.23058247612E+02  0.12700000000E+01 0. -1.
         25    2    1    2    0    0 -0.89716784368E+01  0.21818450840E+02  0.17082824618E+03  0.21298759153E+03  0.12499955456E+03 0.  0.
    9000005    1    3    3    0    0  0.38419392545E+02  0.50267305827E+02  0.51899566134E+02  0.81837746325E+02  0.10000000000E+01 0.  0.
    9000005    1    3    3    0    0 -0.47391070982E+02 -0.28448854987E+02  0.11892868005E+03  0.13114984520E+03  0.10000000000E+01 0.  0.
         -4    1    1    2    0  502  0.89716784368E+01 -0.21818450840E+02  0.69192358737E+02  0.73114507580E+02  0.12700000000E+01 0.  1.
<mgrwt>
<rscale>  1 0.12720623E+03</rscale>
<asrwt>0</asrwt>
<pdfrwt beam="1">  1       21 0.40468283E-01 0.12720623E+03</pdfrwt>
<pdfrwt beam="2">  1       -4 0.35449664E-02 0.12720623E+03</pdfrwt>
<totfact> 0.98012077E+04</totfact>
</mgrwt>
</event>
<event>
 6    4  0.7919556E-003  0.1280929E+03  0.7818608E-02  0.1230313E+00
         21   -1    0    0  501  502  0.00000000000E+00  0.00000000000E+00  0.45451889365E+03  0.45451889365E+03  0.00000000000E+00 0. -1.
          4   -1    0    0  502    0 -0.00000000000E+00 -0.00000000000E+00 -0.36438712922E+02  0.36460837887E+02  0.12700000000E+01 0.  1.
         25    2    1    2    0    0  0.26047440224E+02  0.10198987994E+02  0.78471029892E+02  0.15021811878E+03  0.12500116871E+03 0.  0.
    9000005    1    3    3    0    0  0.15015249398E+02 -0.25582107462E+02 -0.25860977209E+02  0.39366128574E+02  0.10000000000E+01 0.  0.
    9000005    1    3    3    0    0  0.11032190825E+02  0.35781095457E+02  0.10433200710E+03  0.11085199020E+03  0.10000000000E+01 0.  0.
          4    1    1    2  501    0 -0.26047440224E+02 -0.10198987994E+02  0.33960915084E+03  0.34076161276E+03  0.12700000000E+01 0. -1.
<mgrwt>
<rscale>  1 0.12809286E+03</rscale>
<asrwt>0</asrwt>
<pdfrwt beam="1">  1       21 0.69925980E-01 0.12809286E+03</pdfrwt>
<pdfrwt beam="2">  1        4 0.56077946E-02 0.12809286E+03</pdfrwt>
<totfact> 0.15083591E+04</totfact>
</mgrwt>
</event>
<event>
 6    4  0.7919556E-003  0.1271916E+03  0.7818608E-02  0.1231683E+00
         21   -1    0    0  501  502  0.00000000000E+00  0.00000000000E+00  0.17303116719E+03  0.17303116719E+03  0.00000000000E+00 0. -1.
         -4   -1    0    0    0  501 -0.00000000000E+00 -0.00000000000E+00 -0.43864506552E+02  0.43882887725E+02  0.12700000000E+01 0. -1.
         25    2    1    2    0    0 -0.15287550984E+02 -0.17891782773E+02  0.54072219683E+02  0.13820819066E+03  0.12499549559E+03 0.  0.
    9000005    1    3    3    0    0  0.80676687045E+01 -0.52048560607E+02  0.75138244975E+02  0.91765439015E+02  0.10000000000E+01 0.  0.
    9000005    1    3    3    0    0 -0.23355219689E+02  0.34156777834E+02 -0.21066025292E+02  0.46442751645E+02  0.10000000000E+01 0.  0.
         -4    1    1    2    0  502  0.15287550984E+02  0.17891782773E+02  0.75094440953E+02  0.78705864254E+02  0.12700000000E+01 0.  1.
<mgrwt>
<rscale>  1 0.12719158E+03</rscale>
<asrwt>0</asrwt>
<pdfrwt beam="1">  1       21 0.26620179E-01 0.12719158E+03</pdfrwt>
<pdfrwt beam="2">  1       -4 0.67501582E-02 0.12719158E+03</pdfrwt>
<totfact> 0.78916607E+04</totfact>
</mgrwt>
</event>
<event>
 6    4  0.7919556E-003  0.1963296E+03  0.7818608E-02  0.1152873E+00
         21   -1    0    0  501  502  0.00000000000E+00  0.00000000000E+00  0.77899003518E+02  0.77899003518E+02  0.00000000000E+00 0. -1.
         -4   -1    0    0    0  501 -0.00000000000E+00 -0.00000000000E+00 -0.40419296592E+03  0.40419496112E+03  0.12700000000E+01 0.  1.
         25    2    1    2    0    0  0.32254999341E+02  0.14791919781E+03 -0.23117207641E+03  0.30329167115E+03  0.12499933927E+03 0.  0.
    9000005    1    3    3    0    0 -0.94946951117E+01  0.81275319595E+02 -0.29774446901E+02  0.87082400626E+02  0.10000000000E+01 0.  0.
    9000005    1    3    3    0    0  0.41749694453E+02  0.66643878212E+02 -0.20139762951E+03  0.21620927053E+03  0.10000000000E+01 0.  0.
         -4    1    1    2    0  502 -0.32254999341E+02 -0.14791919781E+03 -0.95121885989E+02  0.17880229349E+03  0.12700000000E+01 0. -1.
<mgrwt>
<rscale>  1 0.19632959E+03</rscale>
<asrwt>0</asrwt>
<pdfrwt beam="1">  1       21 0.11984462E-01 0.19632959E+03</pdfrwt>
<pdfrwt beam="2">  1       -4 0.62184483E-01 0.19632959E+03</pdfrwt>
<totfact> 0.60877258E+03</totfact>
</mgrwt>
</event>
<event>
 6    4  0.7919556E-003  0.1266674E+03  0.7818608E-02  0.1232486E+00
         -4   -1    0    0    0  501 -0.00000000000E+00  0.00000000000E+00  0.12862662203E+03  0.12863289157E+03  0.12700000000E+01 0. -1.
         21   -1    0    0  501  502  0.00000000000E+00 -0.00000000000E+00 -0.44272159137E+02  0.44272159137E+02  0.00000000000E+00 0. -1.
         25    2    1    2    0    0  0.12783629466E+02  0.16007954577E+02  0.84699930173E+02  0.15237682527E+03  0.12499977166E+03 0.  0.
    9000005    1    3    3    0    0  0.64654579499E+02  0.10172979809E+02  0.74519192982E+02  0.99185756493E+02  0.10000000000E+01 0.  0.
    9000005    1    3    3    0    0 -0.51870950033E+02  0.58349747678E+01  0.10180737191E+02  0.53191068777E+02  0.10000000000E+01 0.  0.
         -4    1    1    2    0  502 -0.12783629466E+02 -0.16007954577E+02 -0.34546728207E+00  0.20528225440E+02  0.12700000000E+01 0.  1.
<mgrwt>
<rscale>  1 0.12666735E+03</rscale>
<asrwt>0</asrwt>
<pdfrwt beam="2">  1       21 0.68111015E-02 0.12666735E+03</pdfrwt>
<pdfrwt beam="1">  1       -4 0.19790594E-01 0.12666735E+03</pdfrwt>
<totfact> 0.14480058E+05</totfact>
</mgrwt>
</event>
<event>
 6    4  0.7919556E-003  0.1285175E+03  0.7818608E-02  0.1229672E+00
         -4   -1    0    0    0  501 -0.00000000000E+00  0.00000000000E+00  0.12979547385E+02  0.13041531748E+02  0.12700000000E+01 0.  1.
         21   -1    0    0  501  502  0.00000000000E+00 -0.00000000000E+00 -0.74841896432E+03  0.74841896432E+03  0.00000000000E+00 0. -1.
         25    2    1    2    0    0  0.28513065739E+02  0.88374887213E+01 -0.31849585642E+03  0.34344776698E+03  0.12500264782E+03 0.  0.
    9000005    1    3    3    0    0  0.14399104497E+02  0.38730177902E+02 -0.25445106992E+02  0.48536732074E+02  0.10000000000E+01 0.  0.
    9000005    1    3    3    0    0  0.14113961242E+02 -0.29892689181E+02 -0.29305074943E+03  0.29491103490E+03  0.10000000000E+01 0.  0.
         -4    1    1    2    0  502 -0.28513065739E+02 -0.88374887213E+01 -0.41694356052E+03  0.41801272909E+03  0.12700000000E+01 0. -1.
<mgrwt>
<rscale>  1 0.12851754E+03</rscale>
<asrwt>0</asrwt>
<pdfrwt beam="2">  1       21 0.11514140E+00 0.12851754E+03</pdfrwt>
<pdfrwt beam="1">  1       -4 0.20017040E-02 0.12851754E+03</pdfrwt>
<totfact> 0.24381003E+04</totfact>
</mgrwt>
</event>
<event>
 6    4  0.7919556E-003  0.1326477E+03  0.7818608E-02  0.1223579E+00
         -4   -1    0    0    0  501 -0.00000000000E+00  0.00000000000E+00  0.53622039651E+02  0.53637077067E+02  0.12700000000E+01 0.  1.
         21   -1    0    0  501  502  0.00000000000E+00 -0.00000000000E+00 -0.14754460532E+03  0.14754460532E+03  0.00000000000E+00 0. -1.
         25    2    1    2    0    0 -0.44293007483E+02  0.28381995871E+01 -0.61553481740E+02  0.14623355791E+03  0.12500198581E+03 0.  0.
    9000005    1    3    3    0    0 -0.10497292513E+02  0.27938703391E+02  0.31921186227E+02  0.43711856828E+02  0.10000000000E+01 0.  0.
    9000005    1    3    3    0    0 -0.33795714969E+02 -0.25100503803E+02 -0.93474667967E+02  0.10252170108E+03  0.10000000000E+01 0.  0.
         -4    1    1    2    0  502  0.44293007483E+02 -0.28381995871E+01 -0.32369083926E+02  0.54948124471E+02  0.12700000000E+01 0. -1.
<mgrwt>
<rscale>  1 0.13264774E+03</rscale>
<asrwt>0</asrwt>
<pdfrwt beam="2">  1       21 0.22699170E-01 0.13264774E+03</pdfrwt>
<pdfrwt beam="1">  1       -4 0.82511216E-02 0.13264774E+03</pdfrwt>
<totfact> 0.76995455E+04</totfact>
</mgrwt>
</event>
<event>
 6    4  0.7919556E-003  0.1277825E+03  0.7818608E-02  0.1230784E+00
         21   -1    0    0  501  502  0.00000000000E+00  0.00000000000E+00  0.71985020274E+02  0.71985020274E+02  0.00000000000E+00 0.  1.
          4   -1    0    0  502    0 -0.00000000000E+00 -0.00000000000E+00 -0.13432114745E+03  0.13432715121E+03  0.12700000000E+01 0. -1.
         25    2    1    2    0    0  0.65458038603E+01  0.25730111798E+02 -0.98564163091E+02  0.16137922491E+03  0.12499389500E+03 0.  0.
    9000005    1    3    3    0    0  0.55918898849E+02 -0.18857369578E+02 -0.31461423961E+02  0.66883068362E+02  0.10000000000E+01 0.  0.
    9000005    1    3    3    0    0 -0.49373094989E+02  0.44587481376E+02 -0.67102739131E+02  0.94496156552E+02  0.10000000000E+01 0.  0.
          4    1    1    2  501    0 -0.65458038603E+01 -0.25730111798E+02  0.36228035915E+02  0.44932946571E+02  0.12700000000E+01 0.  1.
<mgrwt>
<rscale>  1 0.12778247E+03</rscale>
<asrwt>0</asrwt>
<pdfrwt beam="1">  1       21 0.11074618E-01 0.12778247E+03</pdfrwt>
<pdfrwt beam="2">  1        4 0.20666116E-01 0.12778247E+03</pdfrwt>
<totfact> 0.57760310E+04</totfact>
</mgrwt>
</event>
<event>
 6    4  0.7919556E-003  0.1277107E+03  0.7818608E-02  0.1230893E+00
         21   -1    0    0  501  502  0.00000000000E+00  0.00000000000E+00  0.99541996864E+02  0.99541996864E+02  0.00000000000E+00 0. -1.
         -4   -1    0    0    0  501 -0.00000000000E+00 -0.00000000000E+00 -0.18117143221E+03  0.18117588346E+03  0.12700000000E+01 0.  1.
         25    2    1    2    0    0  0.22331780904E+02 -0.13665914278E+02 -0.15614828749E+03  0.20172333699E+03  0.12499820538E+03 0.  0.
    9000005    1    3    3    0    0  0.27199578457E+02 -0.31206025111E+01 -0.17631440964E+03  0.17843017199E+03  0.10000000000E+01 0.  0.
    9000005    1    3    3    0    0 -0.48677975528E+01 -0.10545311767E+02  0.20166122149E+02  0.23293165002E+02  0.10000000000E+01 0.  0.
         -4    1    1    2    0  502 -0.22331780904E+02  0.13665914278E+02  0.74518852149E+02  0.78994543337E+02  0.12700000000E+01 0. -1.
<mgrwt>
<rscale>  1 0.12771068E+03</rscale>
<asrwt>0</asrwt>
<pdfrwt beam="1">  1       21 0.15314154E-01 0.12771068E+03</pdfrwt>
<pdfrwt beam="2">  1       -4 0.27873493E-01 0.12771068E+03</pdfrwt>
<totfact> 0.18716657E+04</totfact>
</mgrwt>
</event>
<event>
 6    4  0.7919556E-003  0.1273872E+03  0.7818608E-02  0.1231385E+00
         21   -1    0    0  501  502  0.00000000000E+00  0.00000000000E+00  0.88010191445E+02  0.88010191445E+02  0.00000000000E+00 0.  1.
          4   -1    0    0  502    0 -0.00000000000E+00 -0.00000000000E+00 -0.13007606784E+03  0.13008226753E+03  0.12700000000E+01 0. -1.
         25    2    1    2    0    0 -0.10514467888E+02 -0.22171471282E+02 -0.95546349998E+02  0.15923753454E+03  0.12500143693E+03 0.  0.
    9000005    1    3    3    0    0 -0.56528503935E+01 -0.72803933159E+02 -0.74061263326E+02  0.10401172110E+03  0.10000000000E+01 0.  0.
    9000005    1    3    3    0    0 -0.48616174950E+01  0.50632461876E+02 -0.21485086671E+02  0.55225813435E+02  0.10000000000E+01 0.  0.
          4    1    1    2  501    0  0.10514467888E+02  0.22171471282E+02  0.53480473601E+02  0.58854924436E+02  0.12700000000E+01 0.  1.
<mgrwt>
<rscale>  1 0.12738716E+03</rscale>
<asrwt>0</asrwt>
<pdfrwt beam="1">  1       21 0.13540030E-01 0.12738716E+03</pdfrwt>
<pdfrwt beam="2">  1        4 0.20012884E-01 0.12738716E+03</pdfrwt>
<totfact> 0.42827403E+04</totfact>
</mgrwt>
</event>
<event>
 6    4  0.7919556E-003  0.1269919E+03  0.7818608E-02  0.1231989E+00
          4   -1    0    0  502    0 -0.00000000000E+00  0.00000000000E+00  0.63862044133E+02  0.63874670886E+02  0.12700000000E+01 0.  1.
         21   -1    0    0  501  502  0.00000000000E+00 -0.00000000000E+00 -0.88121034715E+02  0.88121034715E+02  0.00000000000E+00 0.  1.
         25    2    1    2    0    0  0.16725194357E+02 -0.15046298421E+02 -0.15995570831E+02  0.12799528418E+03  0.12498324393E+03 0.  0.
    9000005    1    3    3    0    0  0.70563818956E+02 -0.23357817494E+01 -0.17123070651E+02  0.72656093830E+02  0.10000000000E+01 0.  0.
    9000005    1    3    3    0    0 -0.53838624599E+02 -0.12710516671E+02  0.11274998199E+01  0.55339190350E+02  0.10000000000E+01 0.  0.
          4    1    1    2  501    0 -0.16725194357E+02  0.15046298421E+02 -0.82634197511E+01  0.24000421422E+02  0.12700000000E+01 0. -1.
<mgrwt>
<rscale>  1 0.12699187E+03</rscale>
<asrwt>0</asrwt>
<pdfrwt beam="2">  1       21 0.13557082E-01 0.12699187E+03</pdfrwt>
<pdfrwt beam="1">  1        4 0.98266050E-02 0.12699187E+03</pdfrwt>
<totfact> 0.14666355E+05</totfact>
</mgrwt>
</event>
<event>
 6    4  0.7919556E-003  0.1752530E+03  0.7818608E-02  0.1172478E+00
         21   -1    0    0  501  502  0.00000000000E+00  0.00000000000E+00  0.16754574695E+03  0.16754574695E+03  0.00000000000E+00 0.  1.
         -4   -1    0    0    0  501 -0.00000000000E+00 -0.00000000000E+00 -0.16815485637E+03  0.16815965217E+03  0.12700000000E+01 0.  1.
         25    2    1    2    0    0  0.78291691546E+02  0.94652547021E+02 -0.76596121245E+02  0.19126048752E+03  0.12499965869E+03 0.  0.
    9000005    1    3    3    0    0  0.31090349926E+01 -0.27714076410E+02  0.11826309349E+01  0.27930892320E+02  0.10000000000E+01 0.  0.
    9000005    1    3    3    0    0  0.75182656553E+02  0.12236662343E+03 -0.77778752180E+02  0.16332959520E+03  0.10000000000E+01 0.  0.
         -4    1    1    2    0  502 -0.78291691546E+02 -0.94652547021E+02  0.75987011828E+02  0.14444491161E+03  0.12700000000E+01 0. -1.
<mgrwt>
<rscale>  1 0.17525298E+03</rscale>
<asrwt>0</asrwt>
<pdfrwt beam="1">  1       21 0.25776269E-01 0.17525298E+03</pdfrwt>
<pdfrwt beam="2">  1       -4 0.25870717E-01 0.17525298E+03</pdfrwt>
<totfact> 0.83978382E+03</totfact>
</mgrwt>
</event>
<event>
 6    4  0.7919556E-003  0.1266071E+03  0.7818608E-02  0.1232579E+00
          4   -1    0    0  502    0 -0.00000000000E+00  0.00000000000E+00  0.15049407974E+04  0.15049413333E+04  0.12700000000E+01 0.  1.
         21   -1    0    0  501  502  0.00000000000E+00 -0.00000000000E+00 -0.37464262058E+01  0.37464262058E+01  0.00000000000E+00 0.  1.
         25    2    1    2    0    0 -0.20087332411E+02  0.40337566504E+00  0.13838046111E+04  0.13895843074E+04  0.12500272744E+03 0.  0.
    9000005    1    3    3    0    0  0.34735002318E+02  0.17264259633E+02  0.16781879886E+03  0.17224611547E+03  0.10000000000E+01 0.  0.
    9000005    1    3    3    0    0 -0.54822334730E+02 -0.16860883968E+02  0.12159858123E+04  0.12173381919E+04  0.10000000000E+01 0.  0.
          4    1    1    2  501    0  0.20087332411E+02 -0.40337566504E+00  0.11738976008E+03  0.11910345212E+03  0.12700000000E+01 0. -1.
<mgrwt>
<rscale>  1 0.12660705E+03</rscale>
<asrwt>0</asrwt>
<pdfrwt beam="2">  1       21 0.57637447E-03 0.12660705E+03</pdfrwt>
<pdfrwt beam="1">  1        4 0.23154547E+00 0.12660705E+03</pdfrwt>
<totfact> 0.33805424E+04</totfact>
</mgrwt>
</event>
<event>
 6    4  0.7919556E-003  0.1333262E+03  0.7818608E-02  0.1222602E+00
          4   -1    0    0  502    0 -0.00000000000E+00  0.00000000000E+00  0.11946890232E+03  0.11947565243E+03  0.12700000000E+01 0. -1.
         21   -1    0    0  501  502  0.00000000000E+00 -0.00000000000E+00 -0.16620928675E+03  0.16620928675E+03  0.00000000000E+00 0.  1.
         25    2    1    2    0    0 -0.37342256757E+02 -0.27553811347E+02  0.76692414196E+02  0.15381028151E+03  0.12498887808E+03 0.  0.
    9000005    1    3    3    0    0 -0.65799362632E+02 -0.30648576931E+02  0.69799309181E+00  0.72597373128E+02  0.10000000000E+01 0.  0.
    9000005    1    3    3    0    0  0.28457105875E+02  0.30947655836E+01  0.75994421104E+02  0.81212908381E+02  0.10000000000E+01 0.  0.
          4    1    1    2  501    0  0.37342256757E+02  0.27553811347E+02 -0.12343279863E+03  0.13187465767E+03  0.12700000000E+01 0.  1.
<mgrwt>
<rscale>  1 0.13332620E+03</rscale>
<asrwt>0</asrwt>
<pdfrwt beam="2">  1       21 0.25570659E-01 0.13332620E+03</pdfrwt>
<pdfrwt beam="1">  1        4 0.18380724E-01 0.13332620E+03</pdfrwt>
<totfact> 0.15570665E+04</totfact>
</mgrwt>
</event>
<event>
 6    4  0.7919556E-003  0.1270254E+03  0.7818608E-02  0.1231937E+00
         -4   -1    0    0    0  501 -0.00000000000E+00  0.00000000000E+00  0.22271349277E+02  0.22307530088E+02  0.12700000000E+01 0. -1.
         21   -1    0    0  501  502  0.00000000000E+00 -0.00000000000E+00 -0.25136018460E+03  0.25136018460E+03  0.00000000000E+00 0. -1.
         25    2    1    2    0    0 -0.22600935005E+02 -0.67892075671E+00 -0.19651754651E+03  0.23399700822E+03  0.12499676226E+03 0.  0.
    9000005    1    3    3    0    0  0.31434991514E+02 -0.44443979545E+02 -0.11210497756E+03  0.12462725225E+03  0.10000000000E+01 0.  0.
    9000005    1    3    3    0    0 -0.54035926518E+02  0.43765058788E+02 -0.84412568948E+02  0.10936975597E+03  0.10000000000E+01 0.  0.
         -4    1    1    2    0  502  0.22600935005E+02  0.67892075671E+00 -0.32571288818E+02  0.39670706469E+02  0.12700000000E+01 0.  1.
<mgrwt>
<rscale>  1 0.12702541E+03</rscale>
<asrwt>0</asrwt>
<pdfrwt beam="2">  1       21 0.38670799E-01 0.12702541E+03</pdfrwt>
<pdfrwt beam="1">  1       -4 0.34293912E-02 0.12702541E+03</pdfrwt>
<totfact> 0.11304305E+05</totfact>
</mgrwt>
</event>
<event>
 6    4  0.7919556E-003  0.1267094E+03  0.7818608E-02  0.1232422E+00
         21   -1    0    0  501  502  0.00000000000E+00  0.00000000000E+00  0.38947846547E+02  0.38947846547E+02  0.00000000000E+00 0.  1.
         -4   -1    0    0    0  501 -0.00000000000E+00 -0.00000000000E+00 -0.27038236519E+03  0.27038534781E+03  0.12700000000E+01 0. -1.
         25    2    1    2    0    0  0.52842039891E+01 -0.20046951704E+02 -0.25076469169E+03  0.28095941113E+03  0.12500182808E+03 0.  0.
    9000005    1    3    3    0    0 -0.35586725558E+02 -0.37094264157E+02 -0.22261851812E+03  0.22847845430E+03  0.10000000000E+01 0.  0.
    9000005    1    3    3    0    0  0.40870929547E+02  0.17047312452E+02 -0.28146173571E+02  0.52480956837E+02  0.10000000000E+01 0.  0.
         -4    1    1    2    0  502 -0.52842039891E+01  0.20046951704E+02  0.19330173039E+02  0.28373783219E+02  0.12700000000E+01 0.  1.
<mgrwt>
<rscale>  1 0.12670935E+03</rscale>
<asrwt>0</asrwt>
<pdfrwt beam="1">  1       21 0.59919761E-02 0.12670935E+03</pdfrwt>
<pdfrwt beam="2">  1       -4 0.41599111E-01 0.12670935E+03</pdfrwt>
<totfact> 0.44586805E+04</totfact>
</mgrwt>
</event>
<event>
 6    4  0.7919556E-003  0.1273677E+03  0.7818608E-02  0.1231415E+00
         -4   -1    0    0    0  501 -0.00000000000E+00  0.00000000000E+00  0.33696165506E+03  0.33696404835E+03  0.12700000000E+01 0.  1.
         21   -1    0    0  501  502  0.00000000000E+00 -0.00000000000E+00 -0.17502106387E+02  0.17502106387E+02  0.00000000000E+00 0.  1.
         25    2    1    2    0    0 -0.84783960605E+01 -0.22928745545E+02  0.28531403775E+03  0.31245259278E+03  0.12499964811E+03 0.  0.
    9000005    1    3    3    0    0 -0.56808900597E+02  0.22125313998E+01  0.69143838445E+02  0.89521041533E+02  0.10000000000E+01 0.  0.
    9000005    1    3    3    0    0  0.48330504536E+02 -0.25141276945E+02  0.21617019930E+03  0.22293155125E+03  0.10000000000E+01 0.  0.
         -4    1    1    2    0  502  0.84783960605E+01  0.22928745545E+02  0.34145510927E+02  0.42013561959E+02  0.12700000000E+01 0. -1.
<mgrwt>
<rscale>  1 0.12736767E+03</rscale>
<asrwt>0</asrwt>
<pdfrwt beam="2">  1       21 0.26926320E-02 0.12736767E+03</pdfrwt>
<pdfrwt beam="1">  1       -4 0.51843978E-01 0.12736767E+03</pdfrwt>
<totfact> 0.10828237E+05</totfact>
</mgrwt>
</event>
<event>
 6    4  0.7919556E-003  0.1273887E+03  0.7818608E-02  0.1231383E+00
         21   -1    0    0  501  502  0.00000000000E+00  0.00000000000E+00  0.62106663090E+02  0.62106663090E+02  0.00000000000E+00 0.  1.
          4   -1    0    0  502    0 -0.00000000000E+00 -0.00000000000E+00 -0.94063081208E+02  0.94071654319E+02  0.12700000000E+01 0.  1.
         25    2    1    2    0    0 -0.24485792498E+02  0.18295681772E+01 -0.32916642909E+02  0.13157270249E+03  0.12499987722E+03 0.  0.
    9000005    1    3    3    0    0 -0.25932799247E+02 -0.53251278809E+02  0.12043241690E+02  0.60450379999E+02  0.10000000000E+01 0.  0.
    9000005    1    3    3    0    0  0.14470067487E+01  0.55080846987E+02 -0.44959884598E+02  0.71122322490E+02  0.10000000000E+01 0.  0.
          4    1    1    2  501    0  0.24485792498E+02 -0.18295681772E+01  0.96022479147E+00  0.24605614920E+02  0.12700000000E+01 0. -1.
<mgrwt>
<rscale>  1 0.12738866E+03</rscale>
<asrwt>0</asrwt>
<pdfrwt beam="1">  1       21 0.95548713E-02 0.12738866E+03</pdfrwt>
<pdfrwt beam="2">  1        4 0.14472901E-01 0.12738866E+03</pdfrwt>
<totfact> 0.14043514E+05</totfact>
</mgrwt>
</event>
<event>
 6    4  0.7919556E-003  0.1320917E+03  0.7818608E-02  0.1224385E+00
          4   -1    0    0  502    0 -0.00000000000E+00  0.00000000000E+00  0.83132853504E+02  0.83142553676E+02  0.12700000000E+01 0.  1.
         21   -1    0    0  501  502  0.00000000000E+00 -0.00000000000E+00 -0.97360416244E+02  0.97360416244E+02  0.00000000000E+00 0. -1.
         25    2    1    2    0    0  0.38239464624E+02  0.19084188761E+02  0.79628573706E+01  0.13233149952E+03  0.12498702234E+03 0.  0.
    9000005    1    3    3    0    0  0.79321240543E+02 -0.11875019115E+02  0.10048739849E+02  0.80838434256E+02  0.10000000000E+01 0.  0.
    9000005    1    3    3    0    0 -0.41081775919E+02  0.30959207877E+02 -0.20858824781E+01  0.51493065268E+02  0.10000000000E+01 0.  0.
          4    1    1    2  501    0 -0.38239464624E+02 -0.19084188761E+02 -0.22190420111E+02  0.48171470396E+02  0.12700000000E+01 0. -1.
<mgrwt>
<rscale>  1 0.13209171E+03</rscale>
<asrwt>0</asrwt>
<pdfrwt beam="2">  1       21 0.14978525E-01 0.13209171E+03</pdfrwt>
<pdfrwt beam="1">  1        4 0.12791053E-01 0.13209171E+03</pdfrwt>
<totfact> 0.78782229E+04</totfact>
</mgrwt>
</event>
<event>
 6    4  0.7919556E-003  0.1273701E+03  0.7818608E-02  0.1231411E+00
         21   -1    0    0  501  502  0.00000000000E+00  0.00000000000E+00  0.79938143401E+03  0.79938143401E+03  0.00000000000E+00 0. -1.
          4   -1    0    0  502    0 -0.00000000000E+00 -0.00000000000E+00 -0.19870503218E+02  0.19911047138E+02  0.12700000000E+01 0.  1.
         25    2    1    2    0    0  0.20692047626E+02 -0.13034741435E+02  0.18689035513E+03  0.22616616667E+03  0.12500025916E+03 0.  0.
    9000005    1    3    3    0    0  0.52481497652E+02  0.18467667317E+02  0.16905654505E+03  0.17797886885E+03  0.10000000000E+01 0.  0.
    9000005    1    3    3    0    0 -0.31789450026E+02 -0.31502408751E+02  0.17833810078E+02  0.48187297829E+02  0.10000000000E+01 0.  0.
          4    1    1    2  501    0 -0.20692047626E+02  0.13034741435E+02  0.59262057567E+03  0.59312631447E+03  0.12700000000E+01 0. -1.
<mgrwt>
<rscale>  1 0.12737005E+03</rscale>
<asrwt>0</asrwt>
<pdfrwt beam="1">  1       21 0.12298173E+00 0.12737005E+03</pdfrwt>
<pdfrwt beam="2">  1        4 0.30601975E-02 0.12737005E+03</pdfrwt>
<totfact> 0.10742662E+04</totfact>
</mgrwt>
</event>
<event>
 6    4  0.7919556E-003  0.1284046E+03  0.7818608E-02  0.1229842E+00
         21   -1    0    0  501  502  0.00000000000E+00  0.00000000000E+00  0.51877094491E+02  0.51877094491E+02  0.00000000000E+00 0. -1.
         -4   -1    0    0    0  501 -0.00000000000E+00 -0.00000000000E+00 -0.15319294660E+03  0.15319821079E+03  0.12700000000E+01 0. -1.
         25    2    1    2    0    0  0.94345723879E+01  0.27810967340E+02 -0.11525369398E+03  0.17254320734E+03  0.12500113344E+03 0.  0.
    9000005    1    3    3    0    0 -0.85471559952E+01  0.40214569100E+02  0.12459838546E+02  0.42971071899E+02  0.10000000000E+01 0.  0.
    9000005    1    3    3    0    0  0.17981728383E+02 -0.12403601761E+02 -0.12771353253E+03  0.12957213544E+03  0.10000000000E+01 0.  0.
         -4    1    1    2    0  502 -0.94345723879E+01 -0.27810967340E+02  0.13937841867E+02  0.32532097941E+02  0.12700000000E+01 0.  1.
<mgrwt>
<rscale>  1 0.12840461E+03</rscale>
<asrwt>0</asrwt>
<pdfrwt beam="1">  1       21 0.79810914E-02 0.12840461E+03</pdfrwt>
<pdfrwt beam="2">  1       -4 0.23569746E-01 0.12840461E+03</pdfrwt>
<totfact> 0.80537468E+04</totfact>
</mgrwt>
</event>
<event>
 6    4  0.7919556E-003  0.1276149E+03  0.7818608E-02  0.1231038E+00
          4   -1    0    0  502    0 -0.00000000000E+00  0.00000000000E+00  0.26587944757E+02  0.26618258892E+02  0.12700000000E+01 0.  1.
         21   -1    0    0  501  502  0.00000000000E+00 -0.00000000000E+00 -0.22098415144E+03  0.22098415144E+03  0.00000000000E+00 0.  1.
         25    2    1    2    0    0  0.18116513487E+02  0.18235264826E+02 -0.16132235680E+03  0.20569506742E+03  0.12499930005E+03 0.  0.
    9000005    1    3    3    0    0  0.30833338231E+02  0.40308355065E+02 -0.17103928428E+03  0.17841214925E+03  0.10000000000E+01 0.  0.
    9000005    1    3    3    0    0 -0.12716824744E+02 -0.22073090239E+02  0.97169274733E+01  0.27282918168E+02  0.10000000000E+01 0.  0.
          4    1    1    2  501    0 -0.18116513487E+02 -0.18235264826E+02 -0.33073849883E+02  0.41907342916E+02  0.12700000000E+01 0. -1.
<mgrwt>
<rscale>  1 0.12761488E+03</rscale>
<asrwt>0</asrwt>
<pdfrwt beam="2">  1       21 0.33997561E-01 0.12761488E+03</pdfrwt>
<pdfrwt beam="1">  1        4 0.40930657E-02 0.12761488E+03</pdfrwt>
<totfact> 0.11024784E+05</totfact>
</mgrwt>
</event>
<event>
 6    4  0.7919556E-003  0.1358903E+03  0.7818608E-02  0.1218968E+00
         21   -1    0    0  501  502  0.00000000000E+00  0.00000000000E+00  0.22113001012E+03  0.22113001012E+03  0.00000000000E+00 0.  1.
          4   -1    0    0  502    0 -0.00000000000E+00 -0.00000000000E+00 -0.53509125223E+02  0.53524194362E+02  0.12700000000E+01 0. -1.
         25    2    1    2    0    0 -0.31656592778E+02 -0.42885294003E+02  0.48744992701E+02  0.14436844565E+03  0.12499954192E+03 0.  0.
    9000005    1    3    3    0    0 -0.24778509815E+02 -0.69715802225E+02  0.75593089651E+02  0.10578082450E+03  0.10000000000E+01 0.  0.
    9000005    1    3    3    0    0 -0.68780829632E+01  0.26830508222E+02 -0.26848096950E+02  0.38587621157E+02  0.10000000000E+01 0.  0.
          4    1    1    2  501    0  0.31656592778E+02  0.42885294003E+02  0.11887589220E+03  0.13028575883E+03  0.12700000000E+01 0.  1.
<mgrwt>
<rscale>  1 0.13589030E+03</rscale>
<asrwt>0</asrwt>
<pdfrwt beam="1">  1       21 0.34020001E-01 0.13589030E+03</pdfrwt>
<pdfrwt beam="2">  1        4 0.82336129E-02 0.13589030E+03</pdfrwt>
<totfact> 0.35701757E+04</totfact>
</mgrwt>
</event>
<event>
 6    4  0.7919556E-003  0.1272824E+03  0.7818608E-02  0.1231545E+00
         21   -1    0    0  501  502  0.00000000000E+00  0.00000000000E+00  0.63251892631E+02  0.63251892631E+02  0.00000000000E+00 0.  1.
         -4   -1    0    0    0  501 -0.00000000000E+00 -0.00000000000E+00 -0.98417053246E+02  0.98425247115E+02  0.12700000000E+01 0.  1.
         25    2    1    2    0    0 -0.23997162242E+02  0.15036482955E+00 -0.45968994768E+02  0.13532904422E+03  0.12499966130E+03 0.  0.
    9000005    1    3    3    0    0 -0.11330708264E+02  0.55372213373E+02 -0.53906213305E+02  0.78111118264E+02  0.10000000000E+01 0.  0.
    9000005    1    3    3    0    0 -0.12666453978E+02 -0.55221848543E+02  0.79372185374E+01  0.57217925959E+02  0.10000000000E+01 0.  0.
         -4    1    1    2    0  502  0.23997162242E+02 -0.15036482955E+00  0.10803834152E+02  0.26348095522E+02  0.12700000000E+01 0. -1.
<mgrwt>
<rscale>  1 0.12728237E+03</rscale>
<asrwt>0</asrwt>
<pdfrwt beam="1">  1       21 0.97310605E-02 0.12728237E+03</pdfrwt>
<pdfrwt beam="2">  1       -4 0.15142696E-01 0.12728237E+03</pdfrwt>
<totfact> 0.12570753E+05</totfact>
</mgrwt>
</event>
<event>
 6    4  0.7919556E-003  0.1281100E+03  0.7818608E-02  0.1230287E+00
         -4   -1    0    0    0  501 -0.00000000000E+00  0.00000000000E+00  0.22429922154E+02  0.22465847588E+02  0.12700000000E+01 0. -1.
         21   -1    0    0  501  502  0.00000000000E+00 -0.00000000000E+00 -0.60224812516E+03  0.60224812516E+03  0.00000000000E+00 0.  1.
         25    2    1    2    0    0  0.23269203159E+02  0.15632813271E+02 -0.16474737835E+03  0.20869565218E+03  0.12500534349E+03 0.  0.
    9000005    1    3    3    0    0  0.70574252897E+01 -0.53558401758E+02 -0.93950134004E+02  0.10837867562E+03  0.10000000000E+01 0.  0.
    9000005    1    3    3    0    0  0.16211777870E+02  0.69191215029E+02 -0.70797244348E+02  0.10031697656E+03  0.10000000000E+01 0.  0.
         -4    1    1    2    0  502 -0.23269203159E+02 -0.15632813271E+02 -0.41507082465E+03  0.41601832056E+03  0.12700000000E+01 0.  1.
<mgrwt>
<rscale>  1 0.12811002E+03</rscale>
<asrwt>0</asrwt>
<pdfrwt beam="2">  1       21 0.92653563E-01 0.12811002E+03</pdfrwt>
<pdfrwt beam="1">  1       -4 0.34536236E-02 0.12811002E+03</pdfrwt>
<totfact> 0.17409402E+04</totfact>
</mgrwt>
</event>
<event>
 6    4  0.7919556E-003  0.1392264E+03  0.7818608E-02  0.1214374E+00
          4   -1    0    0  502    0 -0.00000000000E+00  0.00000000000E+00  0.14744286868E+04  0.14744292337E+04  0.12700000000E+01 0.  1.
         21   -1    0    0  501  502  0.00000000000E+00 -0.00000000000E+00 -0.93457554624E+01  0.93457554624E+01  0.00000000000E+00 0.  1.
         25    2    1    2    0    0 -0.33209261795E+01 -0.61220808003E+02  0.13040413208E+04  0.13114525324E+04  0.12499985048E+03 0.  0.
    9000005    1    3    3    0    0 -0.68536737064E+01 -0.67909947475E+01  0.11057837999E+04  0.11058263438E+04  0.10000000000E+01 0.  0.
    9000005    1    3    3    0    0  0.35327475269E+01 -0.54429813256E+02  0.19825752091E+03  0.20562618868E+03  0.10000000000E+01 0.  0.
          4    1    1    2  501    0  0.33209261795E+01  0.61220808003E+02  0.16104161049E+03  0.17232245673E+03  0.12700000000E+01 0. -1.
<mgrwt>
<rscale>  1 0.13922636E+03</rscale>
<asrwt>0</asrwt>
<pdfrwt beam="2">  1       21 0.14378097E-02 0.13922636E+03</pdfrwt>
<pdfrwt beam="1">  1        4 0.22684168E+00 0.13922636E+03</pdfrwt>
<totfact> 0.86247310E+03</totfact>
</mgrwt>
</event>
<event>
 6    4  0.7919556E-003  0.1369430E+03  0.7818608E-02  0.1217503E+00
          4   -1    0    0  502    0 -0.00000000000E+00  0.00000000000E+00  0.65129450582E+02  0.65141831669E+02  0.12700000000E+01 0. -1.
         21   -1    0    0  501  502  0.00000000000E+00 -0.00000000000E+00 -0.14553248009E+03  0.14553248009E+03  0.00000000000E+00 0.  1.
         25    2    1    2    0    0 -0.34078563017E+02  0.44356184413E+02 -0.43645570158E+02  0.14372998212E+03  0.12499820964E+03 0.  0.
    9000005    1    3    3    0    0 -0.77672267596E+02  0.85389701597E+01 -0.38358857021E+02  0.87053415078E+02  0.10000000000E+01 0.  0.
    9000005    1    3    3    0    0  0.43593704579E+02  0.35817214253E+02 -0.52867131374E+01  0.56676567041E+02  0.10000000000E+01 0.  0.
          4    1    1    2  501    0  0.34078563017E+02 -0.44356184413E+02 -0.36757459349E+02  0.66944329638E+02  0.12700000000E+01 0.  1.
<mgrwt>
<rscale>  1 0.13694295E+03</rscale>
<asrwt>0</asrwt>
<pdfrwt beam="2">  1       21 0.22389612E-01 0.13694295E+03</pdfrwt>
<pdfrwt beam="1">  1        4 0.10021294E-01 0.13694295E+03</pdfrwt>
<totfact> 0.57294783E+04</totfact>
</mgrwt>
</event>
<event>
 6    4  0.7919556E-003  0.1271088E+03  0.7818608E-02  0.1231810E+00
         21   -1    0    0  501  502  0.00000000000E+00  0.00000000000E+00  0.16055229924E+03  0.16055229924E+03  0.00000000000E+00 0.  1.
         -4   -1    0    0    0  501 -0.00000000000E+00 -0.00000000000E+00 -0.36078759467E+02  0.36101105034E+02  0.12700000000E+01 0.  1.
         25    2    1    2    0    0  0.11154726093E+02  0.20195517695E+02  0.92494335470E+02  0.15720002347E+03  0.12499743371E+03 0.  0.
    9000005    1    3    3    0    0  0.65040576101E+02 -0.19630318866E+01  0.29705053303E+02  0.71536845230E+02  0.10000000000E+01 0.  0.
    9000005    1    3    3    0    0 -0.53885850008E+02  0.22158549581E+02  0.62789282167E+02  0.85663178237E+02  0.10000000000E+01 0.  0.
         -4    1    1    2    0  502 -0.11154726093E+02 -0.20195517695E+02  0.31979204301E+02  0.39453380804E+02  0.12700000000E+01 0. -1.
<mgrwt>
<rscale>  1 0.12710879E+03</rscale>
<asrwt>0</asrwt>
<pdfrwt beam="1">  1       21 0.24700353E-01 0.12710879E+03</pdfrwt>
<pdfrwt beam="2">  1       -4 0.55526838E-02 0.12710879E+03</pdfrwt>
<totfact> 0.12489022E+05</totfact>
</mgrwt>
</event>
<event>
 6    4  0.7919556E-003  0.1328375E+03  0.7818608E-02  0.1223305E+00
          4   -1    0    0  502    0 -0.00000000000E+00  0.00000000000E+00  0.37295190621E+02  0.37316807788E+02  0.12700000000E+01 0. -1.
         21   -1    0    0  501  502  0.00000000000E+00 -0.00000000000E+00 -0.25991813413E+03  0.25991813413E+03  0.00000000000E+00 0.  1.
         25    2    1    2    0    0 -0.40189811235E+02 -0.20148580933E+02 -0.98958933241E+02  0.16564623961E+03  0.12499847994E+03 0.  0.
    9000005    1    3    3    0    0 -0.70114301267E+02  0.97888043563E+01 -0.16119050155E+02  0.72613082229E+02  0.10000000000E+01 0.  0.
    9000005    1    3    3    0    0  0.29924490033E+02 -0.29937385289E+02 -0.82839883087E+02  0.93033157377E+02  0.10000000000E+01 0.  0.
          4    1    1    2  501    0  0.40189811235E+02  0.20148580933E+02 -0.12366401027E+03  0.13158870231E+03  0.12700000000E+01 0.  1.
<mgrwt>
<rscale>  1 0.13283752E+03</rscale>
<asrwt>0</asrwt>
<pdfrwt beam="2">  1       21 0.39987405E-01 0.13283752E+03</pdfrwt>
<pdfrwt beam="1">  1        4 0.57396232E-02 0.13283752E+03</pdfrwt>
<totfact> 0.46733568E+04</totfact>
</mgrwt>
</event>
<event>
 6    4  0.7919556E-003  0.1267165E+03  0.7818608E-02  0.1232411E+00
         21   -1    0    0  501  502  0.00000000000E+00  0.00000000000E+00  0.19891586978E+02  0.19891586978E+02  0.00000000000E+00 0.  1.
         -4   -1    0    0    0  501 -0.00000000000E+00 -0.00000000000E+00 -0.27805629998E+03  0.27805920028E+03  0.12700000000E+01 0.  1.
         25    2    1    2    0    0  0.16315105755E+02 -0.12863511415E+02 -0.23357842338E+03  0.26573664224E+03  0.12500172222E+03 0.  0.
    9000005    1    3    3    0    0  0.95477407460E+01 -0.39446567038E+02 -0.11816846802E+02  0.42282725465E+02  0.10000000000E+01 0.  0.
    9000005    1    3    3    0    0  0.67673650093E+01  0.26583055623E+02 -0.22176157658E+03  0.22345391677E+03  0.10000000000E+01 0.  0.
         -4    1    1    2    0  502 -0.16315105755E+02  0.12863511415E+02 -0.24586289623E+02  0.32214145017E+02  0.12700000000E+01 0. -1.
<mgrwt>
<rscale>  1 0.12671655E+03</rscale>
<asrwt>0</asrwt>
<pdfrwt beam="1">  1       21 0.30602443E-02 0.12671655E+03</pdfrwt>
<pdfrwt beam="2">  1       -4 0.42781233E-01 0.12671655E+03</pdfrwt>
<totfact> 0.12924688E+05</totfact>
</mgrwt>
</event>
<event>
 6    4  0.7919556E-003  0.1359159E+03  0.7818608E-02  0.1218933E+00
          4   -1    0    0  502    0 -0.00000000000E+00  0.00000000000E+00  0.10703937508E+03  0.10704690896E+03  0.12700000000E+01 0.  1.
         21   -1    0    0  501  502  0.00000000000E+00 -0.00000000000E+00 -0.83924092853E+02  0.83924092853E+02  0.00000000000E+00 0. -1.
         25    2    1    2    0    0  0.27828750938E+02 -0.45533683760E+02  0.21181957582E+02  0.13755652456E+03  0.12500146554E+03 0.  0.
    9000005    1    3    3    0    0  0.60849366088E+02 -0.23878598492E+02  0.55095496437E+02  0.85494716485E+02  0.10000000000E+01 0.  0.
    9000005    1    3    3    0    0 -0.33020615149E+02 -0.21655085268E+02 -0.33913538855E+02  0.52061808079E+02  0.10000000000E+01 0.  0.
          4    1    1    2  501    0 -0.27828750938E+02  0.45533683760E+02  0.19333246465E+01  0.53414477248E+02  0.12700000000E+01 0. -1.
<mgrwt>
<rscale>  1 0.13591586E+03</rscale>
<asrwt>0</asrwt>
<pdfrwt beam="2">  1       21 0.12911399E-01 0.13591586E+03</pdfrwt>
<pdfrwt beam="1">  1        4 0.16468915E-01 0.13591586E+03</pdfrwt>
<totfact> 0.66476507E+04</totfact>
</mgrwt>
</event>
<event>
 6    4  0.7919556E-003  0.1273969E+03  0.7818608E-02  0.1231370E+00
         21   -1    0    0  501  502  0.00000000000E+00  0.00000000000E+00  0.12837533529E+03  0.12837533529E+03  0.00000000000E+00 0. -1.
          4   -1    0    0  502    0 -0.00000000000E+00 -0.00000000000E+00 -0.20958778971E+03  0.20959163747E+03  0.12700000000E+01 0.  1.
         25    2    1    2    0    0 -0.10059812053E+02  0.22451777009E+02 -0.18870755303E+03  0.22768510102E+03  0.12499873016E+03 0.  0.
    9000005    1    3    3    0    0  0.17583261650E+02 -0.48169249472E+02 -0.69016553108E+02  0.85986814616E+02  0.10000000000E+01 0.  0.
    9000005    1    3    3    0    0 -0.27643073704E+02  0.70621026481E+02 -0.11969099993E+03  0.14169828640E+03  0.10000000000E+01 0.  0.
          4    1    1    2  501    0  0.10059812053E+02 -0.22451777009E+02  0.10749509861E+03  0.11028187174E+03  0.12700000000E+01 0. -1.
<mgrwt>
<rscale>  1 0.12739688E+03</rscale>
<asrwt>0</asrwt>
<pdfrwt beam="1">  1       21 0.19750052E-01 0.12739688E+03</pdfrwt>
<pdfrwt beam="2">  1        4 0.32245054E-01 0.12739688E+03</pdfrwt>
<totfact> 0.89352233E+03</totfact>
</mgrwt>
</event>
<event>
 6    4  0.7919556E-003  0.1310087E+03  0.7818608E-02  0.1225967E+00
          4   -1    0    0  502    0 -0.00000000000E+00  0.00000000000E+00  0.16198174523E+04  0.16198179501E+04  0.12700000000E+01 0. -1.
         21   -1    0    0  501  502  0.00000000000E+00 -0.00000000000E+00 -0.13294201259E+02  0.13294201259E+02  0.00000000000E+00 0.  1.
         25    2    1    2    0    0  0.37990457180E+02  0.97687052803E+01  0.15807269683E+04  0.15861465944E+04  0.12499827331E+03 0.  0.
    9000005    1    3    3    0    0  0.59330113704E+02  0.53330835189E+02  0.81930401680E+03  0.82317939255E+03  0.10000000000E+01 0.  0.
    9000005    1    3    3    0    0 -0.21339656524E+02 -0.43562129909E+02  0.76142295146E+03  0.76296720185E+03  0.10000000000E+01 0.  0.
          4    1    1    2  501    0 -0.37990457180E+02 -0.97687052803E+01  0.25796282762E+02  0.46965556996E+02  0.12700000000E+01 0.  1.
<mgrwt>
<rscale>  1 0.13100867E+03</rscale>
<asrwt>0</asrwt>
<pdfrwt beam="2">  1       21 0.20452630E-02 0.13100867E+03</pdfrwt>
<pdfrwt beam="1">  1        4 0.24920723E+00 0.13100867E+03</pdfrwt>
<totfact> 0.36150706E+03</totfact>
</mgrwt>
</event>
<event>
 6    4  0.7919556E-003  0.1277635E+03  0.7818608E-02  0.1230813E+00
          4   -1    0    0  502    0 -0.00000000000E+00  0.00000000000E+00  0.51070666387E+03  0.51070824295E+03  0.12700000000E+01 0.  1.
         21   -1    0    0  501  502  0.00000000000E+00 -0.00000000000E+00 -0.18512792611E+02  0.18512792611E+02  0.00000000000E+00 0.  1.
         25    2    1    2    0    0 -0.26323164111E+02 -0.15651788399E+01  0.48543859089E+03  0.50197024720E+03  0.12501257854E+03 0.  0.
    9000005    1    3    3    0    0 -0.21395209173E+02  0.15788777461E+02  0.13779514861E+02  0.29965238178E+02  0.10000000000E+01 0.  0.
    9000005    1    3    3    0    0 -0.49279549386E+01 -0.17353956301E+02  0.47165907603E+03  0.47200500902E+03  0.10000000000E+01 0.  0.
          4    1    1    2  501    0  0.26323164111E+02  0.15651788399E+01  0.67552803645E+01  0.27250788364E+02  0.12700000000E+01 0. -1.
<mgrwt>
<rscale>  1 0.12776347E+03</rscale>
<asrwt>0</asrwt>
<pdfrwt beam="2">  1       21 0.28481223E-02 0.12776347E+03</pdfrwt>
<pdfrwt beam="1">  1        4 0.78573718E-01 0.12776347E+03</pdfrwt>
<totfact> 0.40918857E+04</totfact>
</mgrwt>
</event>
<event>
 6    4  0.7919556E-003  0.1297477E+03  0.7818608E-02  0.1227831E+00
         -4   -1    0    0    0  501 -0.00000000000E+00  0.00000000000E+00  0.27012879465E+03  0.27013178006E+03  0.12700000000E+01 0. -1.
         21   -1    0    0  501  502  0.00000000000E+00 -0.00000000000E+00 -0.47790599564E+02  0.47790599564E+02  0.00000000000E+00 0.  1.
         25    2    1    2    0    0  0.26389899414E+02  0.22659288932E+02  0.24440549422E+03  0.27671013924E+03  0.12499834153E+03 0.  0.
    9000005    1    3    3    0    0 -0.13381623648E+02 -0.41940643315E+02  0.14574486650E+03  0.15225193439E+03  0.10000000000E+01 0.  0.
    9000005    1    3    3    0    0  0.39771523062E+02  0.64599932247E+02  0.98660627721E+02  0.12445820485E+03  0.10000000000E+01 0.  0.
         -4    1    1    2    0  502 -0.26389899414E+02 -0.22659288932E+02 -0.22067299139E+02  0.41212240382E+02  0.12700000000E+01 0.  1.
<mgrwt>
<rscale>  1 0.12974766E+03</rscale>
<asrwt>0</asrwt>
<pdfrwt beam="2">  1       21 0.73524001E-02 0.12974766E+03</pdfrwt>
<pdfrwt beam="1">  1       -4 0.41559803E-01 0.12974766E+03</pdfrwt>
<totfact> 0.31606620E+04</totfact>
</mgrwt>
</event>
<event>
 6    4  0.7919556E-003  0.1290598E+03  0.7818608E-02  0.1228858E+00
         -4   -1    0    0    0  501 -0.00000000000E+00  0.00000000000E+00  0.34291820040E+02  0.34315329252E+02  0.12700000000E+01 0.  1.
         21   -1    0    0  501  502  0.00000000000E+00 -0.00000000000E+00 -0.34283561415E+03  0.34283561415E+03  0.00000000000E+00 0. -1.
         25    2    1    2    0    0  0.21880252198E+02  0.23543447653E+02 -0.92645849989E+02  0.15886999018E+03  0.12499352342E+03 0.  0.
    9000005    1    3    3    0    0  0.45568872582E+02  0.66107797647E+02 -0.59554957302E+02  0.99972776282E+02  0.10000000000E+01 0.  0.
    9000005    1    3    3    0    0 -0.23688620384E+02 -0.42564349995E+02 -0.33090892687E+02  0.58897213898E+02  0.10000000000E+01 0.  0.
         -4    1    1    2    0  502 -0.21880252198E+02 -0.23543447653E+02 -0.21589794412E+03  0.21828095322E+03  0.12700000000E+01 0. -1.
<mgrwt>
<rscale>  1 0.12905975E+03</rscale>
<asrwt>0</asrwt>
<pdfrwt beam="2">  1       21 0.52743940E-01 0.12905975E+03</pdfrwt>
<pdfrwt beam="1">  1       -4 0.52776540E-02 0.12905975E+03</pdfrwt>
<totfact> 0.30336211E+04</totfact>
</mgrwt>
</event>
<event>
 6    4  0.7919556E-003  0.1973009E+03  0.7818608E-02  0.1152036E+00
         21   -1    0    0  501  502  0.00000000000E+00  0.00000000000E+00  0.18375634368E+04  0.18375634368E+04  0.00000000000E+00 0.  1.
          4   -1    0    0  502    0 -0.00000000000E+00 -0.00000000000E+00 -0.34248970732E+02  0.34272509337E+02  0.12700000000E+01 0. -1.
         25    2    1    2    0    0  0.13283131938E+03 -0.75224158286E+02  0.28947615010E+03  0.35031996094E+03  0.12499920064E+03 0.  0.
    9000005    1    3    3    0    0  0.60007517607E+02 -0.68197106453E+02  0.58546968645E+02  0.10807633893E+03  0.10000000000E+01 0.  0.
    9000005    1    3    3    0    0  0.72823801774E+02 -0.70270518327E+01  0.23092918145E+03  0.24224362202E+03  0.10000000000E+01 0.  0.
          4    1    1    2  501    0 -0.13283131938E+03  0.75224158286E+02  0.15138383160E+04  0.15215159852E+04  0.12700000000E+01 0.  1.
<mgrwt>
<rscale>  1 0.19730087E+03</rscale>
<asrwt>0</asrwt>
<pdfrwt beam="1">  1       21 0.28270199E+00 0.19730087E+03</pdfrwt>
<pdfrwt beam="2">  1        4 0.52709183E-02 0.19730087E+03</pdfrwt>
<totfact> 0.39544275E+02</totfact>
</mgrwt>
</event>
<event>
 6    4  0.7919556E-003  0.1283311E+03  0.7818608E-02  0.1229953E+00
         -4   -1    0    0    0  501 -0.00000000000E+00  0.00000000000E+00  0.40601959494E+02  0.40621816980E+02  0.12700000000E+01 0. -1.
         21   -1    0    0  501  502  0.00000000000E+00 -0.00000000000E+00 -0.45361570069E+03  0.45361570069E+03  0.00000000000E+00 0. -1.
         25    2    1    2    0    0  0.22827607325E+02  0.17852112883E+02 -0.62887156866E+02  0.14291140770E+03  0.12501631238E+03 0.  0.
    9000005    1    3    3    0    0  0.69617334529E+02  0.30884150752E+02 -0.21638453106E+02  0.79180974277E+02  0.10000000000E+01 0.  0.
    9000005    1    3    3    0    0 -0.46789727204E+02 -0.13032037869E+02 -0.41248703759E+02  0.63730433426E+02  0.10000000000E+01 0.  0.
         -4    1    1    2    0  502 -0.22827607325E+02 -0.17852112883E+02 -0.35012658433E+03  0.35132610997E+03  0.12700000000E+01 0.  1.
<mgrwt>
<rscale>  1 0.12833112E+03</rscale>
<asrwt>0</asrwt>
<pdfrwt beam="2">  1       21 0.69787028E-01 0.12833112E+03</pdfrwt>
<pdfrwt beam="1">  1       -4 0.62481198E-02 0.12833112E+03</pdfrwt>
<totfact> 0.12714329E+04</totfact>
</mgrwt>
</event>
<event>
 6    4  0.7919556E-003  0.1317439E+03  0.7818608E-02  0.1224891E+00
          4   -1    0    0  502    0 -0.00000000000E+00  0.00000000000E+00  0.36450755997E+02  0.36472873657E+02  0.12700000000E+01 0.  1.
         21   -1    0    0  501  502  0.00000000000E+00 -0.00000000000E+00 -0.22498786295E+03  0.22498786295E+03  0.00000000000E+00 0.  1.
         25    2    1    2    0    0  0.36009117352E+02 -0.20837914033E+02 -0.10626674968E+03  0.16926041242E+03  0.12500235971E+03 0.  0.
    9000005    1    3    3    0    0  0.25063197163E+02 -0.39384685923E+02 -0.12944277487E+03  0.13760722838E+03  0.10000000000E+01 0.  0.
    9000005    1    3    3    0    0  0.10945920189E+02  0.18546771891E+02  0.23176025190E+02  0.31653184041E+02  0.10000000000E+01 0.  0.
          4    1    1    2  501    0 -0.36009117352E+02  0.20837914033E+02 -0.82270357279E+02  0.92200324189E+02  0.12700000000E+01 0. -1.
<mgrwt>
<rscale>  1 0.13174394E+03</rscale>
<asrwt>0</asrwt>
<pdfrwt beam="2">  1       21 0.34613517E-01 0.13174394E+03</pdfrwt>
<pdfrwt beam="1">  1        4 0.56097857E-02 0.13174394E+03</pdfrwt>
<totfact> 0.64486223E+04</totfact>
</mgrwt>
</event>
<event>
 6    4  0.7919556E-003  0.1275529E+03  0.7818608E-02  0.1231133E+00
         21   -1    0    0  501  502  0.00000000000E+00  0.00000000000E+00  0.33185729582E+02  0.33185729582E+02  0.00000000000E+00 0.  1.
          4   -1    0    0  502    0 -0.00000000000E+00 -0.00000000000E+00 -0.22509248225E+03  0.22509606497E+03  0.12700000000E+01 0.  1.
         25    2    1    2    0    0  0.24980689306E+02  0.45500683240E+01 -0.19464076030E+03  0.23271177973E+03  0.12500003559E+03 0.  0.
    9000005    1    3    3    0    0  0.84263594885E+01 -0.28117900095E+02 -0.19385442818E+03  0.19606672120E+03  0.10000000000E+01 0.  0.
    9000005    1    3    3    0    0  0.16554329818E+02  0.32667968419E+02 -0.78633211949E+00  0.36645058528E+02  0.10000000000E+01 0.  0.
          4    1    1    2  501    0 -0.24980689306E+02 -0.45500683240E+01  0.27340076321E+01  0.25570014816E+02  0.12700000000E+01 0. -1.
<mgrwt>
<rscale>  1 0.12755292E+03</rscale>
<asrwt>0</asrwt>
<pdfrwt beam="1">  1       21 0.51054968E-02 0.12755292E+03</pdfrwt>
<pdfrwt beam="2">  1        4 0.34631758E-01 0.12755292E+03</pdfrwt>
<totfact> 0.83596454E+04</totfact>
</mgrwt>
</event>
<event>
 6    4  0.7919556E-003  0.1720593E+03  0.7818608E-02  0.1175717E+00
         -4   -1    0    0    0  501 -0.00000000000E+00  0.00000000000E+00  0.35034212842E+03  0.35034443031E+03  0.12700000000E+01 0. -1.
         21   -1    0    0  501  502  0.00000000000E+00 -0.00000000000E+00 -0.61194427003E+02  0.61194427003E+02  0.00000000000E+00 0.  1.
         25    2    1    2    0    0 -0.33108277699E+02  0.11350127961E+03  0.14429673281E+03  0.22455726855E+03  0.12500288491E+03 0.  0.
    9000005    1    3    3    0    0 -0.80489424675E+01 -0.20633587825E+02 -0.45423544237E+01  0.22631027487E+02  0.10000000000E+01 0.  0.
    9000005    1    3    3    0    0 -0.25059335232E+02  0.13413486744E+03  0.14883908723E+03  0.20192624107E+03  0.10000000000E+01 0.  0.
         -4    1    1    2    0  502  0.33108277699E+02 -0.11350127961E+03  0.14485096861E+03  0.18698158876E+03  0.12700000000E+01 0.  1.
<mgrwt>
<rscale>  1 0.17205935E+03</rscale>
<asrwt>0</asrwt>
<pdfrwt beam="2">  1       21 0.94145274E-02 0.17205935E+03</pdfrwt>
<pdfrwt beam="1">  1       -4 0.53899979E-01 0.17205935E+03</pdfrwt>
<totfact> 0.12500135E+04</totfact>
</mgrwt>
</event>
<event>
 6    4  0.7919556E-003  0.1290320E+03  0.7818608E-02  0.1228899E+00
         21   -1    0    0  501  502  0.00000000000E+00  0.00000000000E+00  0.24938320041E+03  0.24938320041E+03  0.00000000000E+00 0. -1.
          4   -1    0    0  502    0 -0.00000000000E+00 -0.00000000000E+00 -0.35084334491E+02  0.35107313008E+02  0.12700000000E+01 0. -1.
         25    2    1    2    0    0  0.31470793048E+02 -0.57491626466E+01  0.93044178561E+02  0.15908008406E+03  0.12500316113E+03 0.  0.
    9000005    1    3    3    0    0  0.92381190349E+01  0.91310189808E+00 -0.31259560730E+02  0.32624174095E+02  0.10000000000E+01 0.  0.
    9000005    1    3    3    0    0  0.22232674014E+02 -0.66622645447E+01  0.12430373929E+03  0.12645590996E+03  0.10000000000E+01 0.  0.
          4    1    1    2  501    0 -0.31470793048E+02  0.57491626466E+01  0.12125468736E+03  0.12541042936E+03  0.12700000000E+01 0.  1.
<mgrwt>
<rscale>  1 0.12903199E+03</rscale>
<asrwt>0</asrwt>
<pdfrwt beam="1">  1       21 0.38366645E-01 0.12903199E+03</pdfrwt>
<pdfrwt beam="2">  1        4 0.53996064E-02 0.12903199E+03</pdfrwt>
<totfact> 0.55832614E+04</totfact>
</mgrwt>
</event>
<event>
 6    4  0.7919556E-003  0.1274003E+03  0.7818608E-02  0.1231365E+00
          4   -1    0    0  502    0 -0.00000000000E+00  0.00000000000E+00  0.27795942345E+02  0.27824940447E+02  0.12700000000E+01 0. -1.
         21   -1    0    0  501  502  0.00000000000E+00 -0.00000000000E+00 -0.21329186987E+03  0.21329186987E+03  0.00000000000E+00 0. -1.
         25    2    1    2    0    0  0.24407513204E+02  0.48773405185E+01 -0.14035555088E+03  0.18955343518E+03  0.12494522390E+03 0.  0.
    9000005    1    3    3    0    0  0.72966020373E+02  0.10015778334E+02 -0.57779773566E+02  0.93615480440E+02  0.10000000000E+01 0.  0.
    9000005    1    3    3    0    0 -0.48558507169E+02 -0.51384378151E+01 -0.82575777313E+02  0.95937954744E+02  0.10000000000E+01 0.  0.
          4    1    1    2  501    0 -0.24407513204E+02 -0.48773405185E+01 -0.45140376644E+02  0.51563375131E+02  0.12700000000E+01 0.  1.
<mgrwt>
<rscale>  1 0.12740025E+03</rscale>
<asrwt>0</asrwt>
<pdfrwt beam="2">  1       21 0.32814133E-01 0.12740025E+03</pdfrwt>
<pdfrwt beam="1">  1        4 0.42788204E-02 0.12740025E+03</pdfrwt>
<totfact> 0.11007068E+05</totfact>
</mgrwt>
</event>
<event>
 6    4  0.7919556E-003  0.1325498E+03  0.7818608E-02  0.1223721E+00
         21   -1    0    0  501  502  0.00000000000E+00  0.00000000000E+00  0.81923695401E+02  0.81923695401E+02  0.00000000000E+00 0.  1.
         -4   -1    0    0    0  501 -0.00000000000E+00 -0.00000000000E+00 -0.18345386000E+03  0.18345825588E+03  0.12700000000E+01 0. -1.
         25    2    1    2    0    0  0.45479578026E+01 -0.43898362941E+02 -0.14976068070E+03  0.19999429363E+03  0.12498682256E+03 0.  0.
    9000005    1    3    3    0    0  0.26432094102E+02  0.15592099002E+02  0.64807926714E+01  0.31381042423E+02  0.10000000000E+01 0.  0.
    9000005    1    3    3    0    0 -0.21884136300E+02 -0.59490461943E+02 -0.15624147337E+03  0.16861325121E+03  0.10000000000E+01 0.  0.
         -4    1    1    2    0  502 -0.45479578026E+01  0.43898362941E+02  0.48230516097E+02  0.65387657643E+02  0.12700000000E+01 0.  1.
<mgrwt>
<rscale>  1 0.13254982E+03</rscale>
<asrwt>0</asrwt>
<pdfrwt beam="1">  1       21 0.12603645E-01 0.13254982E+03</pdfrwt>
<pdfrwt beam="2">  1       -4 0.28224766E-01 0.13254982E+03</pdfrwt>
<totfact> 0.26026544E+04</totfact>
</mgrwt>
</event>
<event>
 6    4  0.7919556E-003  0.1277437E+03  0.7818608E-02  0.1230843E+00
          4   -1    0    0  502    0 -0.00000000000E+00  0.00000000000E+00  0.11698298929E+02  0.11767034368E+02  0.12700000000E+01 0.  1.
         21   -1    0    0  501  502  0.00000000000E+00 -0.00000000000E+00 -0.50620605118E+03  0.50620605118E+03  0.00000000000E+00 0.  1.
         25    2    1    2    0    0  0.16335170341E+02  0.20655704921E+02 -0.41358648851E+03  0.43286515548E+03  0.12499985364E+03 0.  0.
    9000005    1    3    3    0    0  0.33473782863E+01 -0.33417864481E+02 -0.33447298854E+03  0.33615641994E+03  0.10000000000E+01 0.  0.
    9000005    1    3    3    0    0  0.12987792055E+02  0.54073569402E+02 -0.79113499979E+02  0.96708735537E+02  0.10000000000E+01 0.  0.
          4    1    1    2  501    0 -0.16335170341E+02 -0.20655704921E+02 -0.80921263733E+02  0.85107930065E+02  0.12700000000E+01 0. -1.
<mgrwt>
<rscale>  1 0.12774373E+03</rscale>
<asrwt>0</asrwt>
<pdfrwt beam="2">  1       21 0.77877865E-01 0.12774373E+03</pdfrwt>
<pdfrwt beam="1">  1        4 0.18051479E-02 0.12774373E+03</pdfrwt>
<totfact> 0.70579228E+04</totfact>
</mgrwt>
</event>
<event>
 6    4  0.7919556E-003  0.1327473E+03  0.7818608E-02  0.1223435E+00
         21   -1    0    0  501  502  0.00000000000E+00  0.00000000000E+00  0.32358211806E+02  0.32358211806E+02  0.00000000000E+00 0. -1.
          4   -1    0    0  502    0 -0.00000000000E+00 -0.00000000000E+00 -0.26124588180E+03  0.26124896872E+03  0.12700000000E+01 0.  1.
         25    2    1    2    0    0  0.40472576327E+02 -0.18946269604E+02 -0.20112096442E+03  0.24098025391E+03  0.12499939952E+03 0.  0.
    9000005    1    3    3    0    0 -0.65316227758E+01  0.17152373826E+02 -0.17540827266E+03  0.17636872778E+03  0.10000000000E+01 0.  0.
    9000005    1    3    3    0    0  0.47004199103E+02 -0.36098643429E+02 -0.25712691764E+02  0.64611526127E+02  0.10000000000E+01 0.  0.
          4    1    1    2  501    0 -0.40472576327E+02  0.18946269604E+02 -0.27766705574E+02  0.52626926614E+02  0.12700000000E+01 0. -1.
<mgrwt>
<rscale>  1 0.13274728E+03</rscale>
<asrwt>0</asrwt>
<pdfrwt beam="1">  1       21 0.49781866E-02 0.13274728E+03</pdfrwt>
<pdfrwt beam="2">  1        4 0.40193827E-01 0.13274728E+03</pdfrwt>
<totfact> 0.65641628E+04</totfact>
</mgrwt>
</event>
<event>
 6    4  0.7919556E-003  0.1268026E+03  0.7818608E-02  0.1232279E+00
         -4   -1    0    0    0  501 -0.00000000000E+00  0.00000000000E+00  0.53881235685E+03  0.53881385356E+03  0.12700000000E+01 0. -1.
         21   -1    0    0  501  502  0.00000000000E+00 -0.00000000000E+00 -0.10433752653E+02  0.10433752653E+02  0.00000000000E+00 0. -1.
         25    2    1    2    0    0 -0.19729535132E+02  0.80372208859E+01  0.47804384468E+03  0.49457537934E+03  0.12500014775E+03 0.  0.
    9000005    1    3    3    0    0  0.24471195123E+02  0.44542704873E+02  0.35744130394E+03  0.36103764030E+03  0.10000000000E+01 0.  0.
    9000005    1    3    3    0    0 -0.44200730255E+02 -0.36505483987E+02  0.12060254073E+03  0.13353773904E+03  0.10000000000E+01 0.  0.
         -4    1    1    2    0  502  0.19729535132E+02 -0.80372208859E+01  0.50334759518E+02  0.54672226879E+02  0.12700000000E+01 0.  1.
<mgrwt>
<rscale>  1 0.12680256E+03</rscale>
<asrwt>0</asrwt>
<pdfrwt beam="2">  1       21 0.16051931E-02 0.12680256E+03</pdfrwt>
<pdfrwt beam="1">  1       -4 0.82900247E-01 0.12680256E+03</pdfrwt>
<totfact> 0.91784989E+04</totfact>
</mgrwt>
</event>
<event>
 6    4  0.7919556E-003  0.1267175E+03  0.7818608E-02  0.1232409E+00
         21   -1    0    0  501  502  0.00000000000E+00  0.00000000000E+00  0.35213528151E+03  0.35213528151E+03  0.00000000000E+00 0.  1.
          4   -1    0    0  502    0 -0.00000000000E+00 -0.00000000000E+00 -0.39515708910E+02  0.39536111983E+02  0.12700000000E+01 0. -1.
         25    2    1    2    0    0 -0.79785586129E+01 -0.19215386440E+02  0.63602985609E+02  0.14178389487E+03  0.12499777835E+03 0.  0.
    9000005    1    3    3    0    0 -0.60817353754E+02 -0.24199758770E+01  0.61139107845E+02  0.86276284742E+02  0.10000000000E+01 0.  0.
    9000005    1    3    3    0    0  0.52838795141E+02 -0.16795410563E+02  0.24638777641E+01  0.55507610123E+02  0.10000000000E+01 0.  0.
          4    1    1    2  501    0  0.79785586129E+01  0.19215386440E+02  0.24901658699E+03  0.24988749863E+03  0.12700000000E+01 0.  1.
<mgrwt>
<rscale>  1 0.12671753E+03</rscale>
<asrwt>0</asrwt>
<pdfrwt beam="1">  1       21 0.54174656E-01 0.12671753E+03</pdfrwt>
<pdfrwt beam="2">  1        4 0.60810857E-02 0.12671753E+03</pdfrwt>
<totfact> 0.22774107E+04</totfact>
</mgrwt>
</event>
<event>
 6    4  0.7919556E-003  0.1298693E+03  0.7818608E-02  0.1227650E+00
         21   -1    0    0  501  502  0.00000000000E+00  0.00000000000E+00  0.97178626291E+03  0.97178626291E+03  0.00000000000E+00 0. -1.
          4   -1    0    0  502    0 -0.00000000000E+00 -0.00000000000E+00 -0.44263498593E+02  0.44281714146E+02  0.12700000000E+01 0.  1.
         25    2    1    2    0    0 -0.16208901621E+01  0.35193475167E+02  0.52091220910E+02  0.13992688792E+03  0.12499932275E+03 0.  0.
    9000005    1    3    3    0    0 -0.30938311696E+02  0.11862001242E+02  0.84251951457E+02  0.90538817799E+02  0.10000000000E+01 0.  0.
    9000005    1    3    3    0    0  0.29317421534E+02  0.23331473925E+02 -0.32160730547E+02  0.49388070121E+02  0.10000000000E+01 0.  0.
          4    1    1    2  501    0  0.16208901621E+01 -0.35193475167E+02  0.87543154341E+03  0.87614108913E+03  0.12700000000E+01 0. -1.
<mgrwt>
<rscale>  1 0.12986931E+03</rscale>
<asrwt>0</asrwt>
<pdfrwt beam="1">  1       21 0.14950556E+00 0.12986931E+03</pdfrwt>
<pdfrwt beam="2">  1        4 0.68112348E-02 0.12986931E+03</pdfrwt>
<totfact> 0.18289973E+03</totfact>
</mgrwt>
</event>
<event>
 6    4  0.7919556E-003  0.1269953E+03  0.7818608E-02  0.1231984E+00
         21   -1    0    0  501  502  0.00000000000E+00  0.00000000000E+00  0.89253559632E+02  0.89253559632E+02  0.00000000000E+00 0. -1.
         -4   -1    0    0    0  501 -0.00000000000E+00 -0.00000000000E+00 -0.79243666898E+03  0.79243768666E+03  0.12700000000E+01 0.  1.
         25    2    1    2    0    0  0.17422904713E+02 -0.14088725676E+02 -0.78584330263E+03  0.79603863248E+03  0.12500303323E+03 0.  0.
    9000005    1    3    3    0    0 -0.21538678980E+02  0.27104667527E+02 -0.61610531717E+03  0.61707806600E+03  0.10000000000E+01 0.  0.
    9000005    1    3    3    0    0  0.38961583693E+02 -0.41193393204E+02 -0.16973798546E+03  0.17896056648E+03  0.10000000000E+01 0.  0.
         -4    1    1    2    0  502 -0.17422904713E+02  0.14088725676E+02  0.82660193281E+02  0.85652613813E+02  0.12700000000E+01 0. -1.
<mgrwt>
<rscale>  1 0.12699531E+03</rscale>
<asrwt>0</asrwt>
<pdfrwt beam="1">  1       21 0.13731316E-01 0.12699531E+03</pdfrwt>
<pdfrwt beam="2">  1       -4 0.12191411E+00 0.12699531E+03</pdfrwt>
<totfact> 0.10218850E+03</totfact>
</mgrwt>
</event>
<event>
 6    4  0.7919556E-003  0.1278898E+03  0.7818608E-02  0.1230621E+00
         21   -1    0    0  501  502  0.00000000000E+00  0.00000000000E+00  0.10979820234E+03  0.10979820234E+03  0.00000000000E+00 0. -1.
          4   -1    0    0  502    0 -0.00000000000E+00 -0.00000000000E+00 -0.63217159561E+02  0.63229915096E+02  0.12700000000E+01 0.  1.
         25    2    1    2    0    0  0.20900889854E+02 -0.17156664110E+02  0.11059237318E+02  0.12836706188E+03  0.12499839009E+03 0.  0.
    9000005    1    3    3    0    0  0.58002460677E+02  0.11178158473E+02 -0.29936199987E+02  0.66229998801E+02  0.10000000000E+01 0.  0.
    9000005    1    3    3    0    0 -0.37101570824E+02 -0.28334822583E+02  0.40995437305E+02  0.62137063080E+02  0.10000000000E+01 0.  0.
          4    1    1    2  501    0 -0.20900889854E+02  0.17156664110E+02  0.35521805458E+02  0.44661055552E+02  0.12700000000E+01 0. -1.
<mgrwt>
<rscale>  1 0.12788978E+03</rscale>
<asrwt>0</asrwt>
<pdfrwt beam="1">  1       21 0.16892031E-01 0.12788978E+03</pdfrwt>
<pdfrwt beam="2">  1        4 0.97272630E-02 0.12788978E+03</pdfrwt>
<totfact> 0.10043933E+05</totfact>
</mgrwt>
</event>
<event>
 6    4  0.7919556E-003  0.1406387E+03  0.7818608E-02  0.1212472E+00
         21   -1    0    0  501  502  0.00000000000E+00  0.00000000000E+00  0.73753248541E+02  0.73753248541E+02  0.00000000000E+00 0.  1.
          4   -1    0    0  502    0 -0.00000000000E+00 -0.00000000000E+00 -0.14276798964E+03  0.14277363820E+03  0.12700000000E+01 0.  1.
         25    2    1    2    0    0 -0.55835881555E+02  0.32194590635E+02 -0.50883137275E+02  0.14956043774E+03  0.12500037417E+03 0.  0.
    9000005    1    3    3    0    0 -0.34179290678E+02 -0.18396492110E+02 -0.78798390836E+02  0.87845553283E+02  0.10000000000E+01 0.  0.
    9000005    1    3    3    0    0 -0.21656590877E+02  0.50591082746E+02  0.27915253561E+02  0.61714884454E+02  0.10000000000E+01 0.  0.
          4    1    1    2  501    0  0.55835881555E+02 -0.32194590635E+02 -0.18131603821E+02  0.66966449005E+02  0.12700000000E+01 0. -1.
<mgrwt>
<rscale>  1 0.14063865E+03</rscale>
<asrwt>0</asrwt>
<pdfrwt beam="1">  1       21 0.11346654E-01 0.14063865E+03</pdfrwt>
<pdfrwt beam="2">  1        4 0.21965581E-01 0.14063865E+03</pdfrwt>
<totfact> 0.50140659E+04</totfact>
</mgrwt>
</event>
<event>
 6    4  0.7919556E-003  0.1445192E+03  0.7818608E-02  0.1207374E+00
         21   -1    0    0  501  502  0.00000000000E+00  0.00000000000E+00  0.24082716830E+03  0.24082716830E+03  0.00000000000E+00 0.  1.
          4   -1    0    0  502    0 -0.00000000000E+00 -0.00000000000E+00 -0.16897095583E+03  0.16897572848E+03  0.12700000000E+01 0. -1.
         25    2    1    2    0    0 -0.56735016926E+02 -0.45166833458E+02 -0.13057488954E+03  0.19477064583E+03  0.12500759060E+03 0.  0.
    9000005    1    3    3    0    0 -0.52735949119E+02 -0.14751233594E+02  0.57155297822E+01  0.55066745888E+02  0.10000000000E+01 0.  0.
    9000005    1    3    3    0    0 -0.39990678068E+01 -0.30415599864E+02 -0.13629041932E+03  0.13970389994E+03  0.10000000000E+01 0.  0.
          4    1    1    2  501    0  0.56735016926E+02  0.45166833458E+02  0.20243110201E+03  0.21503225095E+03  0.12700000000E+01 0.  1.
<mgrwt>
<rscale>  1 0.14451921E+03</rscale>
<asrwt>0</asrwt>
<pdfrwt beam="1">  1       21 0.37050334E-01 0.14451921E+03</pdfrwt>
<pdfrwt beam="2">  1        4 0.25996156E-01 0.14451921E+03</pdfrwt>
<totfact> 0.40621131E+03</totfact>
</mgrwt>
</event>
<event>
 6    4  0.7919556E-003  0.1280845E+03  0.7818608E-02  0.1230326E+00
          4   -1    0    0  502    0 -0.00000000000E+00  0.00000000000E+00  0.14974588990E+02  0.15028347062E+02  0.12700000000E+01 0. -1.
         21   -1    0    0  501  502  0.00000000000E+00 -0.00000000000E+00 -0.68889766361E+03  0.68889766361E+03  0.00000000000E+00 0. -1.
         25    2    1    2    0    0  0.15143108667E+02 -0.23490867587E+02 -0.26794583791E+03  0.29698588703E+03  0.12499804176E+03 0.  0.
    9000005    1    3    3    0    0  0.53807288664E+02  0.28317966163E+02 -0.10017694522E+03  0.11719023797E+03  0.10000000000E+01 0.  0.
    9000005    1    3    3    0    0 -0.38664179997E+02 -0.51808833750E+02 -0.16776889268E+03  0.17979564906E+03  0.10000000000E+01 0.  0.
          4    1    1    2  501    0 -0.15143108667E+02  0.23490867587E+02 -0.40597723671E+03  0.40694012364E+03  0.12700000000E+01 0.  1.
<mgrwt>
<rscale>  1 0.12808452E+03</rscale>
<asrwt>0</asrwt>
<pdfrwt beam="2">  1       21 0.10598423E+00 0.12808452E+03</pdfrwt>
<pdfrwt beam="1">  1        4 0.23080088E-02 0.12808452E+03</pdfrwt>
<totfact> 0.23851831E+04</totfact>
</mgrwt>
</event>
<event>
 6    4  0.7919556E-003  0.1285554E+03  0.7818608E-02  0.1229615E+00
         21   -1    0    0  501  502  0.00000000000E+00  0.00000000000E+00  0.35217696953E+03  0.35217696953E+03  0.00000000000E+00 0.  1.
         -4   -1    0    0    0  501 -0.00000000000E+00 -0.00000000000E+00 -0.22979697061E+02  0.23014764326E+02  0.12700000000E+01 0.  1.
         25    2    1    2    0    0 -0.30006735948E+02  0.10224727497E+01  0.31820700189E+03  0.34319409956E+03  0.12500017709E+03 0.  0.
    9000005    1    3    3    0    0 -0.28591142919E+01  0.48972400652E+02  0.52608993256E+02  0.71938701209E+02  0.10000000000E+01 0.  0.
    9000005    1    3    3    0    0 -0.27147621656E+02 -0.47949927902E+02  0.26559800863E+03  0.27125539835E+03  0.10000000000E+01 0.  0.
         -4    1    1    2    0  502  0.30006735948E+02 -0.10224727497E+01  0.10990270579E+02  0.31997634290E+02  0.12700000000E+01 0. -1.
<mgrwt>
<rscale>  1 0.12855541E+03</rscale>
<asrwt>0</asrwt>
<pdfrwt beam="1">  1       21 0.54181068E-01 0.12855541E+03</pdfrwt>
<pdfrwt beam="2">  1       -4 0.35382119E-02 0.12855541E+03</pdfrwt>
<totfact> 0.54218208E+04</totfact>
</mgrwt>
</event>
<event>
 6    4  0.7919556E-003  0.1295278E+03  0.7818608E-02  0.1228158E+00
         -4   -1    0    0    0  501 -0.00000000000E+00  0.00000000000E+00  0.29874019197E+03  0.29874289146E+03  0.12700000000E+01 0. -1.
         21   -1    0    0  501  502  0.00000000000E+00 -0.00000000000E+00 -0.25620421067E+03  0.25620421067E+03  0.00000000000E+00 0.  1.
         25    2    1    2    0    0  0.31874291210E+02  0.11676550010E+02  0.28345368389E+03  0.31164633233E+03  0.12500053312E+03 0.  0.
    9000005    1    3    3    0    0  0.80113767719E+02  0.37517575831E+01  0.18809450837E+03  0.20448187093E+03  0.10000000000E+01 0.  0.
    9000005    1    3    3    0    0 -0.48239476508E+02  0.79247924265E+01  0.95359175527E+02  0.10716446139E+03  0.10000000000E+01 0.  0.
         -4    1    1    2    0  502 -0.31874291210E+02 -0.11676550010E+02 -0.24091770259E+03  0.24330076980E+03  0.12700000000E+01 0.  1.
<mgrwt>
<rscale>  1 0.12952778E+03</rscale>
<asrwt>0</asrwt>
<pdfrwt beam="2">  1       21 0.39416032E-01 0.12952778E+03</pdfrwt>
<pdfrwt beam="1">  1       -4 0.45960479E-01 0.12952778E+03</pdfrwt>
<totfact> 0.11908699E+03</totfact>
</mgrwt>
</event>
<event>
 6    4  0.7919556E-003  0.1266739E+03  0.7818608E-02  0.1232476E+00
         -4   -1    0    0    0  501 -0.00000000000E+00  0.00000000000E+00  0.38543868103E+02  0.38564785340E+02  0.12700000000E+01 0.  1.
         21   -1    0    0  501  502  0.00000000000E+00 -0.00000000000E+00 -0.14079682942E+03  0.14079682942E+03  0.00000000000E+00 0.  1.
         25    2    1    2    0    0 -0.18223338472E+02  0.95223978840E+01 -0.85787616337E+02  0.15298953460E+03  0.12499406568E+03 0.  0.
    9000005    1    3    3    0    0 -0.43206240817E+02  0.57093325519E+02 -0.59810429190E+02  0.93299059503E+02  0.10000000000E+01 0.  0.
    9000005    1    3    3    0    0  0.24982902345E+02 -0.47570927635E+02 -0.25977187148E+02  0.59690475101E+02  0.10000000000E+01 0.  0.
         -4    1    1    2    0  502  0.18223338472E+02 -0.95223978840E+01 -0.16465344981E+02  0.26372080158E+02  0.12700000000E+01 0. -1.
<mgrwt>
<rscale>  1 0.12667392E+03</rscale>
<asrwt>0</asrwt>
<pdfrwt beam="2">  1       21 0.21661051E-01 0.12667392E+03</pdfrwt>
<pdfrwt beam="1">  1       -4 0.59318754E-02 0.12667392E+03</pdfrwt>
<totfact> 0.14346990E+05</totfact>
</mgrwt>
</event>
<event>
 6    4  0.7919556E-003  0.1308034E+03  0.7818608E-02  0.1226268E+00
         21   -1    0    0  501  502  0.00000000000E+00  0.00000000000E+00  0.14362037288E+03  0.14362037288E+03  0.00000000000E+00 0. -1.
          4   -1    0    0  502    0 -0.00000000000E+00 -0.00000000000E+00 -0.66326781465E+02  0.66338939090E+02  0.12700000000E+01 0.  1.
         25    2    1    2    0    0 -0.26484247877E+02 -0.27944838786E+02  0.84563986045E+01  0.13107647851E+03  0.12500881225E+03 0.  0.
    9000005    1    3    3    0    0  0.19323765493E+02  0.42110935408E+02 -0.36923446431E+01  0.46490560361E+02  0.10000000000E+01 0.  0.
    9000005    1    3    3    0    0 -0.45808013370E+02 -0.70055774194E+02  0.12148743248E+02  0.84585918150E+02  0.10000000000E+01 0.  0.
          4    1    1    2  501    0  0.26484247877E+02  0.27944838786E+02  0.68837192810E+02  0.78882833457E+02  0.12700000000E+01 0. -1.
<mgrwt>
<rscale>  1 0.13080341E+03</rscale>
<asrwt>0</asrwt>
<pdfrwt beam="1">  1       21 0.22095442E-01 0.13080341E+03</pdfrwt>
<pdfrwt beam="2">  1        4 0.10205487E-01 0.13080341E+03</pdfrwt>
<totfact> 0.56645640E+04</totfact>
</mgrwt>
</event>
<event>
 6    4  0.7919556E-003  0.1688429E+03  0.7818608E-02  0.1179060E+00
         21   -1    0    0  501  502  0.00000000000E+00  0.00000000000E+00  0.91920199363E+03  0.91920199363E+03  0.00000000000E+00 0. -1.
          4   -1    0    0  502    0 -0.00000000000E+00 -0.00000000000E+00 -0.25936018996E+02  0.25967094204E+02  0.12700000000E+01 0.  1.
         25    2    1    2    0    0  0.47555499718E+02  0.10305524455E+03  0.33117412646E+03  0.37173141235E+03  0.12500412755E+03 0.  0.
    9000005    1    3    3    0    0  0.87006572277E-02  0.10055210419E+03  0.29575091655E+03  0.31237850498E+03  0.10000000000E+01 0.  0.
    9000005    1    3    3    0    0  0.47546799061E+02  0.25031403599E+01  0.35423209911E+02  0.59352907367E+02  0.10000000000E+01 0.  0.
          4    1    1    2  501    0 -0.47555499718E+02 -0.10305524455E+03  0.56209184816E+03  0.57343767548E+03  0.12700000000E+01 0. -1.
<mgrwt>
<rscale>  1 0.16884295E+03</rscale>
<asrwt>0</asrwt>
<pdfrwt beam="1">  1       21 0.14141567E+00 0.16884295E+03</pdfrwt>
<pdfrwt beam="2">  1        4 0.39926154E-02 0.16884295E+03</pdfrwt>
<totfact> 0.50254894E+03</totfact>
</mgrwt>
</event>
<event>
 6    4  0.7919556E-003  0.1275599E+03  0.7818608E-02  0.1231122E+00
         21   -1    0    0  501  502  0.00000000000E+00  0.00000000000E+00  0.86146146426E+01  0.86146146426E+01  0.00000000000E+00 0. -1.
          4   -1    0    0  502    0 -0.00000000000E+00 -0.00000000000E+00 -0.20399198486E+04  0.20399202440E+04  0.12700000000E+01 0.  1.
         25    2    1    2    0    0  0.24126550459E+02  0.80403740067E+01 -0.20133292944E+04  0.20173661988E+04  0.12499917694E+03 0.  0.
    9000005    1    3    3    0    0 -0.27591031460E+02  0.25021073247E+02 -0.21442414784E+03  0.21763739178E+03  0.10000000000E+01 0.  0.
    9000005    1    3    3    0    0  0.51717581919E+02 -0.16980699240E+02 -0.17989051466E+04  0.17997288070E+04  0.10000000000E+01 0.  0.
          4    1    1    2  501    0 -0.24126550459E+02 -0.80403740067E+01 -0.17975939581E+02  0.31168659821E+02  0.12700000000E+01 0. -1.
<mgrwt>
<rscale>  1 0.12755992E+03</rscale>
<asrwt>0</asrwt>
<pdfrwt beam="1">  1       21 0.13253230E-02 0.12755992E+03</pdfrwt>
<pdfrwt beam="2">  1        4 0.31384160E+00 0.12755992E+03</pdfrwt>
<totfact> 0.30747383E+03</totfact>
</mgrwt>
</event>
<event>
 6    4  0.7919556E-003  0.1271031E+03  0.7818608E-02  0.1231819E+00
         21   -1    0    0  501  502  0.00000000000E+00  0.00000000000E+00  0.44965784956E+02  0.44965784956E+02  0.00000000000E+00 0. -1.
         -4   -1    0    0    0  501 -0.00000000000E+00 -0.00000000000E+00 -0.21518770350E+03  0.21519145113E+03  0.12700000000E+01 0.  1.
         25    2    1    2    0    0 -0.22128438588E+00 -0.23016071473E+02 -0.19079808481E+03  0.22925772103E+03  0.12500161988E+03 0.  0.
    9000005    1    3    3    0    0 -0.59903530186E+01  0.30074147544E+02  0.45675534040E+00  0.30684642824E+02  0.10000000000E+01 0.  0.
    9000005    1    3    3    0    0  0.57690686327E+01 -0.53090219017E+02 -0.19125484015E+03  0.19857307821E+03  0.10000000000E+01 0.  0.
         -4    1    1    2    0  502  0.22128438588E+00  0.23016071473E+02  0.20576166260E+02  0.30899515057E+02  0.12700000000E+01 0. -1.
<mgrwt>
<rscale>  1 0.12710308E+03</rscale>
<asrwt>0</asrwt>
<pdfrwt beam="1">  1       21 0.69178131E-02 0.12710308E+03</pdfrwt>
<pdfrwt beam="2">  1       -4 0.33107468E-01 0.12710308E+03</pdfrwt>
<totfact> 0.54441372E+04</totfact>
</mgrwt>
</event>
<event>
 6    4  0.7919556E-003  0.1282060E+03  0.7818608E-02  0.1230142E+00
         -4   -1    0    0    0  501 -0.00000000000E+00  0.00000000000E+00  0.93505712574E+02  0.93514336783E+02  0.12700000000E+01 0.  1.
         21   -1    0    0  501  502  0.00000000000E+00 -0.00000000000E+00 -0.10255993562E+03  0.10255993562E+03  0.00000000000E+00 0. -1.
         25    2    1    2    0    0 -0.63599729008E+01 -0.27771010871E+02  0.44244333022E+02  0.13562572173E+03  0.12500038836E+03 0.  0.
    9000005    1    3    3    0    0 -0.23358846153E+02  0.25325302854E+02 -0.27970631778E+02  0.44388769979E+02  0.10000000000E+01 0.  0.
    9000005    1    3    3    0    0  0.16998873252E+02 -0.53096313725E+02  0.72214964799E+02  0.91236951747E+02  0.10000000000E+01 0.  0.
         -4    1    1    2    0  502  0.63599729008E+01  0.27771010871E+02 -0.53298556071E+02  0.60448550680E+02  0.12700000000E+01 0. -1.
<mgrwt>
<rscale>  1 0.12820599E+03</rscale>
<asrwt>0</asrwt>
<pdfrwt beam="2">  1       21 0.15778452E-01 0.12820599E+03</pdfrwt>
<pdfrwt beam="1">  1       -4 0.14386763E-01 0.12820599E+03</pdfrwt>
<totfact> 0.58300573E+04</totfact>
</mgrwt>
</event>
<event>
 6    4  0.7919556E-003  0.1318514E+03  0.7818608E-02  0.1224734E+00
         21   -1    0    0  501  502  0.00000000000E+00  0.00000000000E+00  0.23719589437E+03  0.23719589437E+03  0.00000000000E+00 0. -1.
          4   -1    0    0  502    0 -0.00000000000E+00 -0.00000000000E+00 -0.62201763039E+02  0.62214726755E+02  0.12700000000E+01 0. -1.
         25    2    1    2    0    0  0.32982782503E+02 -0.25916548937E+02  0.13485958543E+02  0.13253931075E+03  0.12500106545E+03 0.  0.
    9000005    1    3    3    0    0  0.65569511254E+02 -0.46527728597E+02 -0.18411833976E+02  0.82487489748E+02  0.10000000000E+01 0.  0.
    9000005    1    3    3    0    0 -0.32586728752E+02  0.20611179660E+02  0.31897792519E+02  0.50051820999E+02  0.10000000000E+01 0.  0.
          4    1    1    2  501    0 -0.32982782503E+02  0.25916548937E+02  0.16150817279E+03  0.16687131038E+03  0.12700000000E+01 0. -1.
<mgrwt>
<rscale>  1 0.13185142E+03</rscale>
<asrwt>0</asrwt>
<pdfrwt beam="1">  1       21 0.36491676E-01 0.13185142E+03</pdfrwt>
<pdfrwt beam="2">  1        4 0.95707609E-02 0.13185142E+03</pdfrwt>
<totfact> 0.24119919E+04</totfact>
</mgrwt>
</event>
<event>
 6    4  0.7919556E-003  0.1345842E+03  0.7818608E-02  0.1220808E+00
         21   -1    0    0  501  502  0.00000000000E+00  0.00000000000E+00  0.14039963174E+02  0.14039963174E+02  0.00000000000E+00 0. -1.
         -4   -1    0    0    0  501 -0.00000000000E+00 -0.00000000000E+00 -0.69808114371E+03  0.69808229894E+03  0.12700000000E+01 0. -1.
         25    2    1    2    0    0  0.34435457935E+01  0.49759465542E+02 -0.36140235530E+03  0.38564824039E+03  0.12500016191E+03 0.  0.
    9000005    1    3    3    0    0  0.62964532400E+02  0.24047270091E+02 -0.14835275797E+03  0.16294890100E+03  0.10000000000E+01 0.  0.
    9000005    1    3    3    0    0 -0.59520986606E+02  0.25712195451E+02 -0.21304959733E+03  0.22269933939E+03  0.10000000000E+01 0.  0.
         -4    1    1    2    0  502 -0.34435457935E+01 -0.49759465542E+02 -0.32263882523E+03  0.32647402173E+03  0.12700000000E+01 0.  1.
<mgrwt>
<rscale>  1 0.13458419E+03</rscale>
<asrwt>0</asrwt>
<pdfrwt beam="1">  1       21 0.21599938E-02 0.13458419E+03</pdfrwt>
<pdfrwt beam="2">  1       -4 0.10740163E+00 0.13458419E+03</pdfrwt>
<totfact> 0.31773042E+04</totfact>
</mgrwt>
</event>
<event>
 6    4  0.7919556E-003  0.1275847E+03  0.7818608E-02  0.1231084E+00
         21   -1    0    0  501  502  0.00000000000E+00  0.00000000000E+00  0.13004387452E+03  0.13004387452E+03  0.00000000000E+00 0.  1.
         -4   -1    0    0    0  501 -0.00000000000E+00 -0.00000000000E+00 -0.52778172292E+02  0.52793450071E+02  0.12700000000E+01 0.  1.
         25    2    1    2    0    0  0.19845549324E+02 -0.16119532780E+02  0.88093239646E+02  0.15504283536E+03  0.12499670700E+03 0.  0.
    9000005    1    3    3    0    0  0.32372153374E+02  0.39740718782E+02  0.83005112793E+02  0.97560902995E+02  0.10000000000E+01 0.  0.
    9000005    1    3    3    0    0 -0.12526604050E+02 -0.55860251562E+02  0.50881268532E+01  0.57481932366E+02  0.10000000000E+01 0.  0.
         -4    1    1    2    0  502 -0.19845549324E+02  0.16119532780E+02 -0.10827537418E+02  0.27794489230E+02  0.12700000000E+01 0. -1.
<mgrwt>
<rscale>  1 0.12758472E+03</rscale>
<asrwt>0</asrwt>
<pdfrwt beam="1">  1       21 0.20006750E-01 0.12758472E+03</pdfrwt>
<pdfrwt beam="2">  1       -4 0.81213711E-02 0.12758472E+03</pdfrwt>
<totfact> 0.99460008E+04</totfact>
</mgrwt>
</event>
<event>
 6    4  0.7919556E-003  0.1274433E+03  0.7818608E-02  0.1231300E+00
          4   -1    0    0  502    0 -0.00000000000E+00  0.00000000000E+00  0.27212949970E+02  0.27242568640E+02  0.12700000000E+01 0.  1.
         21   -1    0    0  501  502  0.00000000000E+00 -0.00000000000E+00 -0.21473048223E+03  0.21473048223E+03  0.00000000000E+00 0.  1.
         25    2    1    2    0    0 -0.53371403758E+01  0.24244500543E+02 -0.16453507990E+03  0.20811914577E+03  0.12500202176E+03 0.  0.
    9000005    1    3    3    0    0 -0.35938009584E+02 -0.15358749059E+02 -0.15140007352E+03  0.15636628142E+03  0.10000000000E+01 0.  0.
    9000005    1    3    3    0    0  0.30600869208E+02  0.39603249602E+02 -0.13135006382E+02  0.51752864346E+02  0.10000000000E+01 0.  0.
          4    1    1    2  501    0  0.53371403758E+01 -0.24244500543E+02 -0.22982452360E+02  0.33853905099E+02  0.12700000000E+01 0. -1.
<mgrwt>
<rscale>  1 0.12744327E+03</rscale>
<asrwt>0</asrwt>
<pdfrwt beam="2">  1       21 0.33035458E-01 0.12744327E+03</pdfrwt>
<pdfrwt beam="1">  1        4 0.41891750E-02 0.12744327E+03</pdfrwt>
<totfact> 0.11236478E+05</totfact>
</mgrwt>
</event>
<event>
 6    4  0.7919556E-003  0.1269540E+03  0.7818608E-02  0.1232047E+00
         21   -1    0    0  501  502  0.00000000000E+00  0.00000000000E+00  0.92501934329E+01  0.92501934329E+01  0.00000000000E+00 0. -1.
         -4   -1    0    0    0  501 -0.00000000000E+00 -0.00000000000E+00 -0.82117261841E+03  0.82117360048E+03  0.12700000000E+01 0. -1.
         25    2    1    2    0    0 -0.19093951842E+02  0.11493695233E+02 -0.78612105306E+03  0.79630623656E+03  0.12498251195E+03 0.  0.
    9000005    1    3    3    0    0 -0.29763250788E+02  0.47885883819E+02 -0.69915823408E+03  0.70142864587E+03  0.10000000000E+01 0.  0.
    9000005    1    3    3    0    0  0.10669298947E+02 -0.36392188586E+02 -0.86962818976E+02  0.94877590686E+02  0.10000000000E+01 0.  0.
         -4    1    1    2    0  502  0.19093951842E+02 -0.11493695233E+02 -0.25801371924E+02  0.34117557360E+02  0.12700000000E+01 0.  1.
<mgrwt>
<rscale>  1 0.12695398E+03</rscale>
<asrwt>0</asrwt>
<pdfrwt beam="1">  1       21 0.14231063E-02 0.12695398E+03</pdfrwt>
<pdfrwt beam="2">  1       -4 0.12634106E+00 0.12695398E+03</pdfrwt>
<totfact> 0.41863099E+04</totfact>
</mgrwt>
</event>
<event>
 6    4  0.7919556E-003  0.1271991E+03  0.7818608E-02  0.1231672E+00
         21   -1    0    0  501  502  0.00000000000E+00  0.00000000000E+00  0.15517846091E+02  0.15517846091E+02  0.00000000000E+00 0.  1.
         -4   -1    0    0    0  501 -0.00000000000E+00 -0.00000000000E+00 -0.38328413757E+03  0.38328624161E+03  0.12700000000E+01 0.  1.
         25    2    1    2    0    0  0.21649498394E+02  0.89688300975E+01 -0.27305515306E+03  0.30122871513E+03  0.12502192411E+03 0.  0.
    9000005    1    3    3    0    0  0.28235129420E+02  0.64313541040E+02 -0.13136018188E+03  0.14896291981E+03  0.10000000000E+01 0.  0.
    9000005    1    3    3    0    0 -0.65856310265E+01 -0.55344710943E+02 -0.14169497118E+03  0.15226579532E+03  0.10000000000E+01 0.  0.
         -4    1    1    2    0  502 -0.21649498394E+02 -0.89688300975E+01 -0.94711138412E+02  0.97575372576E+02  0.12700000000E+01 0. -1.
<mgrwt>
<rscale>  1 0.12719914E+03</rscale>
<asrwt>0</asrwt>
<pdfrwt beam="1">  1       21 0.23873610E-02 0.12719914E+03</pdfrwt>
<pdfrwt beam="2">  1       -4 0.58970947E-01 0.12719914E+03</pdfrwt>
<totfact> 0.10089044E+05</totfact>
</mgrwt>
</event>
<event>
 6    4  0.7919556E-003  0.1331089E+03  0.7818608E-02  0.1222914E+00
         21   -1    0    0  501  502  0.00000000000E+00  0.00000000000E+00  0.27355724801E+03  0.27355724801E+03  0.00000000000E+00 0.  1.
          4   -1    0    0  502    0 -0.00000000000E+00 -0.00000000000E+00 -0.51275788729E+02  0.51291514014E+02  0.12700000000E+01 0.  1.
         25    2    1    2    0    0 -0.20559156877E+02 -0.40896612705E+02  0.43106198554E+02  0.13991472292E+03  0.12499109358E+03 0.  0.
    9000005    1    3    3    0    0  0.17760032755E+02  0.37276748947E+02 -0.29672860331E+01  0.41409896908E+02  0.10000000000E+01 0.  0.
    9000005    1    3    3    0    0 -0.38319189632E+02 -0.78173361652E+02  0.46073484587E+02  0.98504826014E+02  0.10000000000E+01 0.  0.
          4    1    1    2  501    0  0.20559156877E+02  0.40896612705E+02  0.17917526073E+03  0.18493403911E+03  0.12700000000E+01 0. -1.
<mgrwt>
<rscale>  1 0.13310892E+03</rscale>
<asrwt>0</asrwt>
<pdfrwt beam="1">  1       21 0.42085730E-01 0.13310892E+03</pdfrwt>
<pdfrwt beam="2">  1        4 0.78900195E-02 0.13310892E+03</pdfrwt>
<totfact> 0.25056677E+04</totfact>
</mgrwt>
</event>
<event>
 6    4  0.7919556E-003  0.1395588E+03  0.7818608E-02  0.1213924E+00
         21   -1    0    0  501  502  0.00000000000E+00  0.00000000000E+00  0.34701355214E+03  0.34701355214E+03  0.00000000000E+00 0.  1.
         -4   -1    0    0    0  501 -0.00000000000E+00 -0.00000000000E+00 -0.29636354170E+02  0.29663553200E+02  0.12700000000E+01 0.  1.
         25    2    1    2    0    0 -0.13776725778E+02 -0.60515130101E+02  0.23812175259E+03  0.27600477713E+03  0.12499915519E+03 0.  0.
    9000005    1    3    3    0    0 -0.21888819715E+02 -0.47255019866E+02  0.25065616578E+03  0.25601107549E+03  0.10000000000E+01 0.  0.
    9000005    1    3    3    0    0  0.81120939375E+01 -0.13260110235E+02 -0.12534413187E+02  0.19993701644E+02  0.10000000000E+01 0.  0.
         -4    1    1    2    0  502  0.13776725778E+02  0.60515130101E+02  0.79255445382E+02  0.10067232821E+03  0.12700000000E+01 0. -1.
<mgrwt>
<rscale>  1 0.13955883E+03</rscale>
<asrwt>0</asrwt>
<pdfrwt beam="1">  1       21 0.53386697E-01 0.13955883E+03</pdfrwt>
<pdfrwt beam="2">  1       -4 0.45617104E-02 0.13955883E+03</pdfrwt>
<totfact> 0.37668666E+04</totfact>
</mgrwt>
</event>
<event>
 6    4  0.7919556E-003  0.1380055E+03  0.7818608E-02  0.1216038E+00
         -4   -1    0    0    0  501 -0.00000000000E+00  0.00000000000E+00  0.86344983044E+02  0.86354322398E+02  0.12700000000E+01 0.  1.
         21   -1    0    0  501  502  0.00000000000E+00 -0.00000000000E+00 -0.13396161040E+03  0.13396161040E+03  0.00000000000E+00 0. -1.
         25    2    1    2    0    0  0.78331816715E+01 -0.57960755753E+02  0.97906822748E+01  0.13835240407E+03  0.12499888924E+03 0.  0.
    9000005    1    3    3    0    0 -0.20912241574E+02 -0.32450316967E+02 -0.52487338737E+02  0.65163376575E+02  0.10000000000E+01 0.  0.
    9000005    1    3    3    0    0  0.28745423245E+02 -0.25510438786E+02  0.62278021012E+02  0.73189027496E+02  0.10000000000E+01 0.  0.
         -4    1    1    2    0  502 -0.78331816715E+01  0.57960755753E+02 -0.57407309632E+02  0.81963528729E+02  0.12700000000E+01 0. -1.
<mgrwt>
<rscale>  1 0.13800554E+03</rscale>
<asrwt>0</asrwt>
<pdfrwt beam="2">  1       21 0.20609479E-01 0.13800554E+03</pdfrwt>
<pdfrwt beam="1">  1       -4 0.13285025E-01 0.13800554E+03</pdfrwt>
<totfact> 0.41377307E+04</totfact>
</mgrwt>
</event>
<event>
 6    4  0.7919556E-003  0.1276063E+03  0.7818608E-02  0.1231051E+00
         21   -1    0    0  501  502  0.00000000000E+00  0.00000000000E+00  0.73947767215E+01  0.73947767215E+01  0.00000000000E+00 0. -1.
         -4   -1    0    0    0  501 -0.00000000000E+00 -0.00000000000E+00 -0.15729123767E+04  0.15729128894E+04  0.12700000000E+01 0.  1.
         25    2    1    2    0    0 -0.90927514909E+01  0.23985362664E+02 -0.15355400648E+04  0.15408331013E+04  0.12500151893E+03 0.  0.
    9000005    1    3    3    0    0 -0.23226394119E+02  0.70717591395E+02 -0.72161868723E+03  0.72544811867E+03  0.10000000000E+01 0.  0.
    9000005    1    3    3    0    0  0.14133642628E+02 -0.46732228731E+02 -0.81392137761E+03  0.81538498268E+03  0.10000000000E+01 0.  0.
         -4    1    1    2    0  502  0.90927514909E+01 -0.23985362664E+02 -0.29977535137E+02  0.39474564782E+02  0.12700000000E+01 0. -1.
<mgrwt>
<rscale>  1 0.12760625E+03</rscale>
<asrwt>0</asrwt>
<pdfrwt beam="1">  1       21 0.11376584E-02 0.12760625E+03</pdfrwt>
<pdfrwt beam="2">  1       -4 0.24199485E+00 0.12760625E+03</pdfrwt>
<totfact> 0.10143781E+04</totfact>
</mgrwt>
</event>
<event>
 6    4  0.7919556E-003  0.1296605E+03  0.7818608E-02  0.1227960E+00
          4   -1    0    0  502    0 -0.00000000000E+00  0.00000000000E+00  0.16208090930E+03  0.16208588482E+03  0.12700000000E+01 0.  1.
         21   -1    0    0  501  502  0.00000000000E+00 -0.00000000000E+00 -0.14519798686E+03  0.14519798686E+03  0.00000000000E+00 0. -1.
         25    2    1    2    0    0 -0.16943704683E+01 -0.34419212897E+02  0.13324501280E+03  0.18591953556E+03  0.12499714861E+03 0.  0.
    9000005    1    3    3    0    0 -0.15600468071E+02  0.44886894961E+02  0.63991415594E+02  0.79712666578E+02  0.10000000000E+01 0.  0.
    9000005    1    3    3    0    0  0.13906097603E+02 -0.79306107858E+02  0.69253597203E+02  0.10620686899E+03  0.10000000000E+01 0.  0.
          4    1    1    2  501    0  0.16943704683E+01  0.34419212897E+02 -0.11636209036E+03  0.12136433611E+03  0.12700000000E+01 0. -1.
<mgrwt>
<rscale>  1 0.12966048E+03</rscale>
<asrwt>0</asrwt>
<pdfrwt beam="2">  1       21 0.22338152E-01 0.12966048E+03</pdfrwt>
<pdfrwt beam="1">  1        4 0.24936335E-01 0.12966048E+03</pdfrwt>
<totfact> 0.11525206E+04</totfact>
</mgrwt>
</event>
<event>
 6    4  0.7919556E-003  0.1266690E+03  0.7818608E-02  0.1232484E+00
          4   -1    0    0  502    0 -0.00000000000E+00  0.00000000000E+00  0.30394001503E+03  0.30394266834E+03  0.12700000000E+01 0.  1.
         21   -1    0    0  501  502  0.00000000000E+00 -0.00000000000E+00 -0.42427950391E+02  0.42427950391E+02  0.00000000000E+00 0. -1.
         25    2    1    2    0    0 -0.19625716856E+02  0.64921818555E+01  0.28689292241E+03  0.31361213848E+03  0.12497082572E+03 0.  0.
    9000005    1    3    3    0    0 -0.52118074136E+02 -0.32646739045E+01  0.27126354470E+03  0.27624601794E+03  0.10000000000E+01 0.  0.
    9000005    1    3    3    0    0  0.32492357280E+02  0.97568557600E+01  0.15629377719E+02  0.37366120535E+02  0.10000000000E+01 0.  0.
          4    1    1    2  501    0  0.19625716856E+02 -0.64921818555E+01 -0.25380857773E+02  0.32758480255E+02  0.12700000000E+01 0. -1.
<mgrwt>
<rscale>  1 0.12666896E+03</rscale>
<asrwt>0</asrwt>
<pdfrwt beam="2">  1       21 0.65273772E-02 0.12666896E+03</pdfrwt>
<pdfrwt beam="1">  1        4 0.46761667E-01 0.12666896E+03</pdfrwt>
<totfact> 0.30529413E+04</totfact>
</mgrwt>
</event>
<event>
 6    4  0.7919556E-003  0.1359933E+03  0.7818608E-02  0.1218824E+00
         21   -1    0    0  501  502  0.00000000000E+00  0.00000000000E+00  0.21326095909E+03  0.21326095909E+03  0.00000000000E+00 0. -1.
          4   -1    0    0  502    0 -0.00000000000E+00 -0.00000000000E+00 -0.42340676154E+02  0.42359718568E+02  0.12700000000E+01 0.  1.
         25    2    1    2    0    0  0.49137619401E+02  0.21441021055E+02  0.13036188170E+03  0.18838363553E+03  0.12497980200E+03 0.  0.
    9000005    1    3    3    0    0 -0.67719084477E+01 -0.41993048135E+02  0.14511466877E+02  0.44953948732E+02  0.10000000000E+01 0.  0.
    9000005    1    3    3    0    0  0.55909527849E+02  0.63434069190E+02  0.11585041483E+03  0.14342968679E+03  0.10000000000E+01 0.  0.
          4    1    1    2  501    0 -0.49137619401E+02 -0.21441021055E+02  0.40558401234E+02  0.67237042135E+02  0.12700000000E+01 0. -1.
<mgrwt>
<rscale>  1 0.13599329E+03</rscale>
<asrwt>0</asrwt>
<pdfrwt beam="1">  1       21 0.32809378E-01 0.13599329E+03</pdfrwt>
<pdfrwt beam="2">  1        4 0.65157060E-02 0.13599329E+03</pdfrwt>
<totfact> 0.56346151E+04</totfact>
</mgrwt>
</event>
<event>
 6    4  0.7919556E-003  0.1298458E+03  0.7818608E-02  0.1227685E+00
         21   -1    0    0  501  502  0.00000000000E+00  0.00000000000E+00  0.48984795635E+03  0.48984795635E+03  0.00000000000E+00 0.  1.
         -4   -1    0    0    0  501 -0.00000000000E+00 -0.00000000000E+00 -0.20245824943E+02  0.20285618739E+02  0.12700000000E+01 0.  1.
         25    2    1    2    0    0 -0.96314250753E+01  0.33780749724E+02  0.20133873573E+03  0.23957717475E+03  0.12500413096E+03 0.  0.
    9000005    1    3    3    0    0  0.16303007669E+01  0.36607051150E+02 -0.12260039945E+01  0.36677474835E+02  0.10000000000E+01 0.  0.
    9000005    1    3    3    0    0 -0.11261725842E+02 -0.28263014257E+01  0.20256473972E+03  0.20289969992E+03  0.10000000000E+01 0.  0.
         -4    1    1    2    0  502  0.96314250753E+01 -0.33780749724E+02  0.26826339568E+03  0.27055640034E+03  0.12700000000E+01 0. -1.
<mgrwt>
<rscale>  1 0.12984582E+03</rscale>
<asrwt>0</asrwt>
<pdfrwt beam="1">  1       21 0.75361215E-01 0.12984582E+03</pdfrwt>
<pdfrwt beam="2">  1       -4 0.31179304E-02 0.12984582E+03</pdfrwt>
<totfact> 0.32602186E+04</totfact>
</mgrwt>
</event>
<event>
 6    4  0.7919556E-003  0.1276356E+03  0.7818608E-02  0.1231007E+00
          4   -1    0    0  502    0 -0.00000000000E+00  0.00000000000E+00  0.45497492141E+02  0.45515213842E+02  0.12700000000E+01 0.  1.
         21   -1    0    0  501  502  0.00000000000E+00 -0.00000000000E+00 -0.13074598723E+03  0.13074598723E+03  0.00000000000E+00 0.  1.
         25    2    1    2    0    0  0.19492262665E+02  0.16781816248E+02 -0.63526469655E+02  0.14257089165E+03  0.12501707538E+03 0.  0.
    9000005    1    3    3    0    0 -0.13960149224E+02  0.62016860235E+02 -0.57952269355E+02  0.86025823119E+02  0.10000000000E+01 0.  0.
    9000005    1    3    3    0    0  0.33452411889E+02 -0.45235043988E+02 -0.55742002999E+01  0.56545068527E+02  0.10000000000E+01 0.  0.
          4    1    1    2  501    0 -0.19492262665E+02 -0.16781816248E+02 -0.21722025437E+02  0.33690309429E+02  0.12700000000E+01 0. -1.
<mgrwt>
<rscale>  1 0.12763560E+03</rscale>
<asrwt>0</asrwt>
<pdfrwt beam="2">  1       21 0.20114767E-01 0.12763560E+03</pdfrwt>
<pdfrwt beam="1">  1        4 0.70014519E-02 0.12763560E+03</pdfrwt>
<totfact> 0.12575643E+05</totfact>
</mgrwt>
</event>
<event>
 6    4  0.7919556E-003  0.1277357E+03  0.7818608E-02  0.1230855E+00
         21   -1    0    0  501  502  0.00000000000E+00  0.00000000000E+00  0.14983169675E+02  0.14983169675E+02  0.00000000000E+00 0.  1.
          4   -1    0    0  502    0 -0.00000000000E+00 -0.00000000000E+00 -0.50846506534E+03  0.50846665139E+03  0.12700000000E+01 0. -1.
         25    2    1    2    0    0 -0.14392276063E+02  0.21997599132E+02 -0.47344049579E+03  0.49036957640E+03  0.12500154570E+03 0.  0.
    9000005    1    3    3    0    0 -0.14800297849E+02  0.18544514015E+02 -0.82125326860E+01  0.25127544838E+02  0.10000000000E+01 0.  0.
    9000005    1    3    3    0    0  0.40802178549E+00  0.34530851170E+01 -0.46522796311E+03  0.46524203157E+03  0.10000000000E+01 0.  0.
          4    1    1    2  501    0  0.14392276063E+02 -0.21997599132E+02 -0.20041399873E+02  0.33080244659E+02  0.12700000000E+01 0.  1.
<mgrwt>
<rscale>  1 0.12773574E+03</rscale>
<asrwt>0</asrwt>
<pdfrwt beam="1">  1       21 0.23051032E-02 0.12773574E+03</pdfrwt>
<pdfrwt beam="2">  1        4 0.78229650E-01 0.12773574E+03</pdfrwt>
<totfact> 0.58309614E+04</totfact>
</mgrwt>
</event>
<event>
 6    4  0.7919556E-003  0.1271394E+03  0.7818608E-02  0.1231763E+00
         21   -1    0    0  501  502  0.00000000000E+00  0.00000000000E+00  0.11123405589E+04  0.11123405589E+04  0.00000000000E+00 0. -1.
         -4   -1    0    0    0  501 -0.00000000000E+00 -0.00000000000E+00 -0.50074655226E+01  0.51660053194E+01  0.12700000000E+01 0. -1.
         25    2    1    2    0    0 -0.60258607029E+01 -0.22435808087E+02  0.92626365903E+03  0.93494854759E+03  0.12499897645E+03 0.  0.
    9000005    1    3    3    0    0 -0.51946888236E+02 -0.28676352276E+02  0.76090445855E+03  0.76321517766E+03  0.10000000000E+01 0.  0.
    9000005    1    3    3    0    0  0.45921027533E+02  0.62405441896E+01  0.16535920049E+03  0.17173336993E+03  0.10000000000E+01 0.  0.
         -4    1    1    2    0  502  0.60258607029E+01  0.22435808087E+02  0.18106943430E+03  0.18255801659E+03  0.12700000000E+01 0.  1.
<mgrwt>
<rscale>  1 0.12713937E+03</rscale>
<asrwt>0</asrwt>
<pdfrwt beam="1">  1       21 0.17112912E+00 0.12713937E+03</pdfrwt>
<pdfrwt beam="2">  1       -4 0.78263133E-03 0.12713937E+03</pdfrwt>
<totfact> 0.36817285E+04</totfact>
</mgrwt>
</event>
<event>
 6    4  0.7919556E-003  0.1294511E+03  0.7818608E-02  0.1228273E+00
          4   -1    0    0  502    0 -0.00000000000E+00  0.00000000000E+00  0.12882236128E+03  0.12882862130E+03  0.12700000000E+01 0.  1.
         21   -1    0    0  501  502  0.00000000000E+00 -0.00000000000E+00 -0.18982128195E+03  0.18982128195E+03  0.00000000000E+00 0. -1.
         25    2    1    2    0    0 -0.24948126099E+02  0.22574296461E+02  0.94036005364E+02  0.16000108022E+03  0.12500227002E+03 0.  0.
    9000005    1    3    3    0    0 -0.24821493367E+02 -0.37472415977E+02  0.89029782258E+02  0.99737608859E+02  0.10000000000E+01 0.  0.
    9000005    1    3    3    0    0 -0.12663273191E+00  0.60046712438E+02  0.50062231061E+01  0.60263471359E+02  0.10000000000E+01 0.  0.
          4    1    1    2  501    0  0.24948126099E+02 -0.22574296461E+02 -0.15503492603E+03  0.15864882302E+03  0.12700000000E+01 0. -1.
<mgrwt>
<rscale>  1 0.12945105E+03</rscale>
<asrwt>0</asrwt>
<pdfrwt beam="2">  1       21 0.29203274E-01 0.12945105E+03</pdfrwt>
<pdfrwt beam="1">  1        4 0.19819633E-01 0.12945105E+03</pdfrwt>
<totfact> 0.10531324E+04</totfact>
</mgrwt>
</event>
<event>
 6    4  0.7919556E-003  0.1292987E+03  0.7818608E-02  0.1228500E+00
          4   -1    0    0  502    0 -0.00000000000E+00  0.00000000000E+00  0.16754966554E+02  0.16803029614E+02  0.12700000000E+01 0. -1.
         21   -1    0    0  501  502  0.00000000000E+00 -0.00000000000E+00 -0.39784996731E+03  0.39784996731E+03  0.00000000000E+00 0. -1.
         25    2    1    2    0    0 -0.10008976311E+02  0.31508570742E+02 -0.32081306596E+03  0.34588894964E+03  0.12500069020E+03 0.  0.
    9000005    1    3    3    0    0  0.33051146721E+02  0.19612620261E+02 -0.28773888245E+03  0.29029587949E+03  0.10000000000E+01 0.  0.
    9000005    1    3    3    0    0 -0.43060123032E+02  0.11895950481E+02 -0.33074183507E+02  0.55593070144E+02  0.10000000000E+01 0.  0.
          4    1    1    2  501    0  0.10008976311E+02 -0.31508570742E+02 -0.60281934790E+02  0.68764047285E+02  0.12700000000E+01 0.  1.
<mgrwt>
<rscale>  1 0.12929866E+03</rscale>
<asrwt>0</asrwt>
<pdfrwt beam="2">  1       21 0.61207686E-01 0.12929866E+03</pdfrwt>
<pdfrwt beam="1">  1        4 0.25815403E-02 0.12929866E+03</pdfrwt>
<totfact> 0.68713833E+04</totfact>
</mgrwt>
</event>
<event>
 6    4  0.7919556E-003  0.1268160E+03  0.7818608E-02  0.1232258E+00
         21   -1    0    0  501  502  0.00000000000E+00  0.00000000000E+00  0.21908788156E+03  0.21908788156E+03  0.00000000000E+00 0. -1.
         -4   -1    0    0    0  501 -0.00000000000E+00 -0.00000000000E+00 -0.13442612239E+03  0.13443212147E+03  0.12700000000E+01 0.  1.
         25    2    1    2    0    0 -0.12916223846E+02  0.16900387064E+02 -0.10378594611E+03  0.16387137412E+03  0.12501940940E+03 0.  0.
    9000005    1    3    3    0    0  0.49744944761E+02 -0.19910934966E+02 -0.36619166173E+02  0.64907381642E+02  0.10000000000E+01 0.  0.
    9000005    1    3    3    0    0 -0.62661168606E+02  0.36811322030E+02 -0.67166779937E+02  0.98963992481E+02  0.10000000000E+01 0.  0.
         -4    1    1    2    0  502  0.12916223846E+02 -0.16900387064E+02  0.18844770527E+03  0.18964862890E+03  0.12700000000E+01 0. -1.
<mgrwt>
<rscale>  1 0.12681603E+03</rscale>
<asrwt>0</asrwt>
<pdfrwt beam="1">  1       21 0.33705828E-01 0.12681603E+03</pdfrwt>
<pdfrwt beam="2">  1       -4 0.20681687E-01 0.12681603E+03</pdfrwt>
<totfact> 0.73751473E+03</totfact>
</mgrwt>
</event>
<event>
 6    4  0.7919556E-003  0.1287152E+03  0.7818608E-02  0.1229375E+00
         21   -1    0    0  501  502  0.00000000000E+00  0.00000000000E+00  0.24504464102E+03  0.24504464102E+03  0.00000000000E+00 0. -1.
          4   -1    0    0  502    0 -0.00000000000E+00 -0.00000000000E+00 -0.40545114447E+02  0.40564999760E+02  0.12700000000E+01 0.  1.
         25    2    1    2    0    0  0.28208310869E+02 -0.12091580959E+02  0.67757814258E+02  0.14546034924E+03  0.12500270667E+03 0.  0.
    9000005    1    3    3    0    0  0.12633299540E+01  0.48465810033E+02  0.62298368907E+02  0.78946928460E+02  0.10000000000E+01 0.  0.
    9000005    1    3    3    0    0  0.26944980915E+02 -0.60557390993E+02  0.54594453508E+01  0.66513420781E+02  0.10000000000E+01 0.  0.
          4    1    1    2  501    0 -0.28208310869E+02  0.12091580959E+02  0.13674171231E+03  0.14014929154E+03  0.12700000000E+01 0. -1.
<mgrwt>
<rscale>  1 0.12871516E+03</rscale>
<asrwt>0</asrwt>
<pdfrwt beam="1">  1       21 0.37699175E-01 0.12871516E+03</pdfrwt>
<pdfrwt beam="2">  1        4 0.62394928E-02 0.12871516E+03</pdfrwt>
<totfact> 0.45727067E+04</totfact>
</mgrwt>
</event>
<event>
 6    4  0.7919556E-003  0.1447621E+03  0.7818608E-02  0.1207061E+00
         21   -1    0    0  501  502  0.00000000000E+00  0.00000000000E+00  0.11557688603E+03  0.11557688603E+03  0.00000000000E+00 0.  1.
         -4   -1    0    0    0  501 -0.00000000000E+00 -0.00000000000E+00 -0.16181682111E+03  0.16182180476E+03  0.12700000000E+01 0. -1.
         25    2    1    2    0    0  0.20585046666E+02  0.70055272153E+02 -0.10891849705E+03  0.18116096257E+03  0.12499828022E+03 0.  0.
    9000005    1    3    3    0    0 -0.46096457147E+02  0.62074179130E+02 -0.63816946162E+02  0.10025811535E+03  0.10000000000E+01 0.  0.
    9000005    1    3    3    0    0  0.66681503812E+02  0.79810930233E+01 -0.45101550885E+02  0.80902847223E+02  0.10000000000E+01 0.  0.
         -4    1    1    2    0  502 -0.20585046666E+02 -0.70055272153E+02  0.62678561963E+02  0.96237728217E+02  0.12700000000E+01 0.  1.
<mgrwt>
<rscale>  1 0.14476206E+03</rscale>
<asrwt>0</asrwt>
<pdfrwt beam="1">  1       21 0.17781059E-01 0.14476206E+03</pdfrwt>
<pdfrwt beam="2">  1       -4 0.24895816E-01 0.14476206E+03</pdfrwt>
<totfact> 0.17809056E+04</totfact>
</mgrwt>
</event>
<event>
 6    4  0.7919556E-003  0.1270186E+03  0.7818608E-02  0.1231948E+00
         21   -1    0    0  501  502  0.00000000000E+00  0.00000000000E+00  0.39205750180E+02  0.39205750180E+02  0.00000000000E+00 0. -1.
         -4   -1    0    0    0  501 -0.00000000000E+00 -0.00000000000E+00 -0.17994862968E+03  0.17995311118E+03  0.12700000000E+01 0.  1.
         25    2    1    2    0    0  0.11606937945E+01 -0.22531252243E+02 -0.14836630486E+03  0.19531071569E+03  0.12499884284E+03 0.  0.
    9000005    1    3    3    0    0  0.13009331849E+02 -0.69085767201E+02 -0.12119325991E+03  0.14011028582E+03  0.10000000000E+01 0.  0.
    9000005    1    3    3    0    0 -0.11848638054E+02  0.46554514958E+02 -0.27173044947E+02  0.55200429876E+02  0.10000000000E+01 0.  0.
         -4    1    1    2    0  502 -0.11606937945E+01  0.22531252243E+02  0.76234253542E+01  0.23848145669E+02  0.12700000000E+01 0. -1.
<mgrwt>
<rscale>  1 0.12701856E+03</rscale>
<asrwt>0</asrwt>
<pdfrwt beam="1">  1       21 0.60316539E-02 0.12701856E+03</pdfrwt>
<pdfrwt beam="2">  1       -4 0.27686331E-01 0.12701856E+03</pdfrwt>
<totfact> 0.96379778E+04</totfact>
</mgrwt>
</event>
<event>
 6    4  0.7919556E-003  0.1270517E+03  0.7818608E-02  0.1231897E+00
         21   -1    0    0  501  502  0.00000000000E+00  0.00000000000E+00  0.10126541423E+03  0.10126541423E+03  0.00000000000E+00 0.  1.
          4   -1    0    0  502    0 -0.00000000000E+00 -0.00000000000E+00 -0.55581772378E+02  0.55596279737E+02  0.12700000000E+01 0.  1.
         25    2    1    2    0    0  0.19620093056E+02  0.11637404645E+02  0.41317494166E+02  0.13360113972E+03  0.12498700721E+03 0.  0.
    9000005    1    3    3    0    0  0.63542815592E+02 -0.17230804270E+02 -0.14055242313E+01  0.65860196838E+02  0.10000000000E+01 0.  0.
    9000005    1    3    3    0    0 -0.43922722536E+02  0.28868208915E+02  0.42723018398E+02  0.67740942878E+02  0.10000000000E+01 0.  0.
          4    1    1    2  501    0 -0.19620093056E+02 -0.11637404645E+02  0.43661476831E+01  0.23260554249E+02  0.12700000000E+01 0. -1.
<mgrwt>
<rscale>  1 0.12705168E+03</rscale>
<asrwt>0</asrwt>
<pdfrwt beam="1">  1       21 0.15579295E-01 0.12705168E+03</pdfrwt>
<pdfrwt beam="2">  1        4 0.85527704E-02 0.12705168E+03</pdfrwt>
<totfact> 0.14407329E+05</totfact>
</mgrwt>
</event>
<event>
 6    4  0.7919556E-003  0.1303542E+03  0.7818608E-02  0.1226931E+00
         21   -1    0    0  501  502  0.00000000000E+00  0.00000000000E+00  0.10093921804E+03  0.10093921804E+03  0.00000000000E+00 0.  1.
         -4   -1    0    0    0  501 -0.00000000000E+00 -0.00000000000E+00 -0.11657788468E+03  0.11658480217E+03  0.12700000000E+01 0. -1.
         25    2    1    2    0    0 -0.93021585279E+01  0.35792378303E+02 -0.72894763030E+02  0.14935145996E+03  0.12499835045E+03 0.  0.
    9000005    1    3    3    0    0  0.33434808504E+02  0.68606740221E+02 -0.39348083290E+02  0.85872247449E+02  0.10000000000E+01 0.  0.
    9000005    1    3    3    0    0 -0.42736967032E+02 -0.32814361917E+02 -0.33546679740E+02  0.63479212509E+02  0.10000000000E+01 0.  0.
         -4    1    1    2    0  502  0.93021585279E+01 -0.35792378303E+02  0.57256096386E+02  0.68172560252E+02  0.12700000000E+01 0.  1.
<mgrwt>
<rscale>  1 0.13035418E+03</rscale>
<asrwt>0</asrwt>
<pdfrwt beam="1">  1       21 0.15529110E-01 0.13035418E+03</pdfrwt>
<pdfrwt beam="2">  1       -4 0.17936206E-01 0.13035418E+03</pdfrwt>
<totfact> 0.40822821E+04</totfact>
</mgrwt>
</event>
<event>
 6    4  0.7919556E-003  0.1269516E+03  0.7818608E-02  0.1232050E+00
          4   -1    0    0  502    0 -0.00000000000E+00  0.00000000000E+00  0.28916343362E+02  0.28944218999E+02  0.12700000000E+01 0. -1.
         21   -1    0    0  501  502  0.00000000000E+00 -0.00000000000E+00 -0.34597302205E+03  0.34597302205E+03  0.00000000000E+00 0.  1.
         25    2    1    2    0    0  0.22095667911E+02  0.16305707219E+01 -0.11391707665E+03  0.17056903793E+03  0.12500327615E+03 0.  0.
    9000005    1    3    3    0    0 -0.10482820043E+02  0.32174595721E+02  0.12812634270E+02  0.36197482271E+02  0.10000000000E+01 0.  0.
    9000005    1    3    3    0    0  0.32578487954E+02 -0.30544024999E+02 -0.12672971092E+03  0.13437155566E+03  0.10000000000E+01 0.  0.
          4    1    1    2  501    0 -0.22095667911E+02 -0.16305707219E+01 -0.20313960204E+03  0.20434820312E+03  0.12700000000E+01 0.  1.
<mgrwt>
<rscale>  1 0.12695155E+03</rscale>
<asrwt>0</asrwt>
<pdfrwt beam="2">  1       21 0.53226618E-01 0.12695155E+03</pdfrwt>
<pdfrwt beam="1">  1        4 0.44509919E-02 0.12695155E+03</pdfrwt>
<totfact> 0.39047378E+04</totfact>
</mgrwt>
</event>
<event>
 6    4  0.7919556E-003  0.1270285E+03  0.7818608E-02  0.1231933E+00
         21   -1    0    0  501  502  0.00000000000E+00  0.00000000000E+00  0.41688606420E+02  0.41688606420E+02  0.00000000000E+00 0.  1.
         -4   -1    0    0    0  501 -0.00000000000E+00 -0.00000000000E+00 -0.25160746270E+03  0.25161066787E+03  0.12700000000E+01 0.  1.
         25    2    1    2    0    0  0.13289150571E+02  0.18298557789E+02 -0.23018257927E+03  0.26290733277E+03  0.12499922833E+03 0.  0.
    9000005    1    3    3    0    0  0.41838393672E+01  0.65588429272E+02 -0.71711987715E+02  0.97277724831E+02  0.10000000000E+01 0.  0.
    9000005    1    3    3    0    0  0.91053112040E+01 -0.47289871483E+02 -0.15847059156E+03  0.16562960794E+03  0.10000000000E+01 0.  0.
         -4    1    1    2    0  502 -0.13289150571E+02 -0.18298557789E+02  0.20263722992E+02  0.30391941523E+02  0.12700000000E+01 0. -1.
<mgrwt>
<rscale>  1 0.12702852E+03</rscale>
<asrwt>0</asrwt>
<pdfrwt beam="1">  1       21 0.64136320E-02 0.12702852E+03</pdfrwt>
<pdfrwt beam="2">  1       -4 0.38710574E-01 0.12702852E+03</pdfrwt>
<totfact> 0.45776043E+04</totfact>
</mgrwt>
</event>
<event>
 6    4  0.7919556E-003  0.1277194E+03  0.7818608E-02  0.1230879E+00
         -4   -1    0    0    0  501 -0.00000000000E+00  0.00000000000E+00  0.89433050196E+03  0.89433140370E+03  0.12700000000E+01 0.  1.
         21   -1    0    0  501  502  0.00000000000E+00 -0.00000000000E+00 -0.16645514084E+02  0.16645514084E+02  0.00000000000E+00 0. -1.
         25    2    1    2    0    0 -0.26006303954E+02 -0.31026501468E+01  0.87538678931E+03  0.88465489468E+03  0.12500518994E+03 0.  0.
    9000005    1    3    3    0    0 -0.54774650666E+02  0.26619485924E+02  0.22952629604E+03  0.23747037702E+03  0.10000000000E+01 0.  0.
    9000005    1    3    3    0    0  0.28768346712E+02 -0.29722136070E+02  0.64586049327E+03  0.64718451767E+03  0.10000000000E+01 0.  0.
         -4    1    1    2    0  502  0.26006303954E+02  0.31026501468E+01  0.22981985701E+01  0.26322023097E+02  0.12700000000E+01 0. -1.
<mgrwt>
<rscale>  1 0.12771943E+03</rscale>
<asrwt>0</asrwt>
<pdfrwt beam="2">  1       21 0.25608490E-02 0.12771943E+03</pdfrwt>
<pdfrwt beam="1">  1       -4 0.13759307E+00 0.12771943E+03</pdfrwt>
<totfact> 0.13194370E+04</totfact>
</mgrwt>
</event>
<event>
 6    4  0.7919556E-003  0.1291376E+03  0.7818608E-02  0.1228741E+00
         21   -1    0    0  501  502  0.00000000000E+00  0.00000000000E+00  0.80808369915E+02  0.80808369915E+02  0.00000000000E+00 0.  1.
         -4   -1    0    0    0  501 -0.00000000000E+00 -0.00000000000E+00 -0.88658108038E+02  0.88667203750E+02  0.12700000000E+01 0.  1.
         25    2    1    2    0    0 -0.30371429194E+02 -0.11429678201E+02 -0.26780168016E+02  0.13188521146E+03  0.12499388124E+03 0.  0.
    9000005    1    3    3    0    0 -0.33837656014E+02 -0.52424609417E+02 -0.54016307152E+02  0.82535374691E+02  0.10000000000E+01 0.  0.
    9000005    1    3    3    0    0  0.34662268201E+01  0.40994931216E+02  0.27236139136E+02  0.49349836766E+02  0.10000000000E+01 0.  0.
         -4    1    1    2    0  502  0.30371429194E+02  0.11429678201E+02  0.18930429893E+02  0.37590362209E+02  0.12700000000E+01 0. -1.
<mgrwt>
<rscale>  1 0.12913765E+03</rscale>
<asrwt>0</asrwt>
<pdfrwt beam="1">  1       21 0.12432057E-01 0.12913765E+03</pdfrwt>
<pdfrwt beam="2">  1       -4 0.13641176E-01 0.12913765E+03</pdfrwt>
<totfact> 0.98118399E+04</totfact>
</mgrwt>
</event>
<event>
 6    4  0.7919556E-003  0.1280960E+03  0.7818608E-02  0.1230309E+00
          4   -1    0    0  502    0 -0.00000000000E+00  0.00000000000E+00  0.14073899761E+02  0.14131084689E+02  0.12700000000E+01 0. -1.
         21   -1    0    0  501  502  0.00000000000E+00 -0.00000000000E+00 -0.69094944349E+03  0.69094944349E+03  0.00000000000E+00 0. -1.
         25    2    1    2    0    0  0.27032343382E+02 -0.72501017274E+01 -0.28806447272E+03  0.31526137343E+03  0.12500112629E+03 0.  0.
    9000005    1    3    3    0    0 -0.47499649091E+02  0.51900063974E+01 -0.72508718342E+02  0.86842772099E+02  0.10000000000E+01 0.  0.
    9000005    1    3    3    0    0  0.74531992473E+02 -0.12440108125E+02 -0.21555575438E+03  0.22841860134E+03  0.10000000000E+01 0.  0.
          4    1    1    2  501    0 -0.27032343382E+02  0.72501017274E+01 -0.38881107102E+03  0.38981915475E+03  0.12700000000E+01 0.  1.
<mgrwt>
<rscale>  1 0.12809603E+03</rscale>
<asrwt>0</asrwt>
<pdfrwt beam="2">  1       21 0.10629991E+00 0.12809603E+03</pdfrwt>
<pdfrwt beam="1">  1        4 0.21697041E-02 0.12809603E+03</pdfrwt>
<totfact> 0.26057450E+04</totfact>
</mgrwt>
</event>
<event>
 6    4  0.7919556E-003  0.1289482E+03  0.7818608E-02  0.1229025E+00
         -4   -1    0    0    0  501 -0.00000000000E+00  0.00000000000E+00  0.42223926357E+02  0.42243021400E+02  0.12700000000E+01 0. -1.
         21   -1    0    0  501  502  0.00000000000E+00 -0.00000000000E+00 -0.21322701650E+03  0.21322701650E+03  0.00000000000E+00 0.  1.
         25    2    1    2    0    0 -0.39376917701E+01  0.31420303945E+02 -0.64164629427E+02  0.14403032099E+03  0.12499957111E+03 0.  0.
    9000005    1    3    3    0    0 -0.57042076374E+02 -0.14336446402E+02 -0.30483788488E+02  0.66254007676E+02  0.10000000000E+01 0.  0.
    9000005    1    3    3    0    0  0.53104384604E+02  0.45756750347E+02 -0.33680840939E+02  0.77776313315E+02  0.10000000000E+01 0.  0.
         -4    1    1    2    0  502  0.39376917701E+01 -0.31420303945E+02 -0.10683846072E+03  0.11143971691E+03  0.12700000000E+01 0.  1.
<mgrwt>
<rscale>  1 0.12894818E+03</rscale>
<asrwt>0</asrwt>
<pdfrwt beam="2">  1       21 0.32804157E-01 0.12894818E+03</pdfrwt>
<pdfrwt beam="1">  1       -4 0.64977484E-02 0.12894818E+03</pdfrwt>
<totfact> 0.56271035E+04</totfact>
</mgrwt>
</event>
<event>
 6    4  0.7919556E-003  0.1266896E+03  0.7818608E-02  0.1232452E+00
          4   -1    0    0  502    0 -0.00000000000E+00  0.00000000000E+00  0.89522562843E+03  0.89522652926E+03  0.12700000000E+01 0.  1.
         21   -1    0    0  501  502  0.00000000000E+00 -0.00000000000E+00 -0.12840643214E+02  0.12840643214E+02  0.00000000000E+00 0. -1.
         25    2    1    2    0    0 -0.12350438781E+02 -0.16513770976E+02  0.87781158701E+03  0.88690667057E+03  0.12500008814E+03 0.  0.
    9000005    1    3    3    0    0  0.26974463403E+02  0.19329238840E+02  0.71404357483E+02  0.78745307273E+02  0.10000000000E+01 0.  0.
    9000005    1    3    3    0    0 -0.39324902185E+02 -0.35843009816E+02  0.80640722953E+03  0.80816136329E+03  0.10000000000E+01 0.  0.
          4    1    1    2  501    0  0.12350438781E+02  0.16513770976E+02  0.45733982042E+01  0.21160501910E+02  0.12700000000E+01 0. -1.
<mgrwt>
<rscale>  1 0.12668962E+03</rscale>
<asrwt>0</asrwt>
<pdfrwt beam="2">  1       21 0.19754843E-02 0.12668962E+03</pdfrwt>
<pdfrwt beam="1">  1        4 0.13773187E+00 0.12668962E+03</pdfrwt>
<totfact> 0.20024640E+04</totfact>
</mgrwt>
</event>
<event>
 6    4  0.7919556E-003  0.1301225E+03  0.7818608E-02  0.1227274E+00
          4   -1    0    0  502    0 -0.00000000000E+00  0.00000000000E+00  0.19103573296E+01  0.22939845524E+01  0.12700000000E+01 0.  1.
         21   -1    0    0  501  502  0.00000000000E+00 -0.00000000000E+00 -0.32931027412E+04  0.32931027412E+04  0.00000000000E+00 0.  1.
         25    2    1    2    0    0  0.10319091906E+02  0.34708116087E+02 -0.25386031525E+04  0.25419358435E+04  0.12498291766E+03 0.  0.
    9000005    1    3    3    0    0 -0.30932254503E+01  0.65750902818E+02 -0.71631308532E+03  0.71933176315E+03  0.10000000000E+01 0.  0.
    9000005    1    3    3    0    0  0.13412317356E+02 -0.31042786730E+02 -0.18222900672E+04  0.18226040804E+04  0.10000000000E+01 0.  0.
          4    1    1    2  501    0 -0.10319091906E+02 -0.34708116087E+02 -0.75258923134E+03  0.75346088220E+03  0.12700000000E+01 0. -1.
<mgrwt>
<rscale>  1 0.13012251E+03</rscale>
<asrwt>0</asrwt>
<pdfrwt beam="2">  1       21 0.50663040E+00 0.13012251E+03</pdfrwt>
<pdfrwt beam="1">  1        4 0.32343025E-03 0.13012251E+03</pdfrwt>
<totfact> 0.12056366E+03</totfact>
</mgrwt>
</event>
<event>
 6    4  0.7919556E-003  0.1318076E+03  0.7818608E-02  0.1224798E+00
          4   -1    0    0  502    0 -0.00000000000E+00  0.00000000000E+00  0.18301877752E+04  0.18301882158E+04  0.12700000000E+01 0. -1.
         21   -1    0    0  501  502  0.00000000000E+00 -0.00000000000E+00 -0.89697662415E+01  0.89697662415E+01  0.00000000000E+00 0.  1.
         25    2    1    2    0    0 -0.35638254878E+02  0.21871523551E+02  0.17604796005E+04  0.17654069420E+04  0.12499919299E+03 0.  0.
    9000005    1    3    3    0    0 -0.53656508028E+02 -0.77655293664E+01  0.32384240184E+03  0.32835076599E+03  0.10000000000E+01 0.  0.
    9000005    1    3    3    0    0  0.18018253150E+02  0.29637052918E+02  0.14366371987E+04  0.14370561760E+04  0.10000000000E+01 0.  0.
          4    1    1    2  501    0  0.35638254878E+02 -0.21871523551E+02  0.60738408419E+02  0.73751040064E+02  0.12700000000E+01 0.  1.
<mgrwt>
<rscale>  1 0.13180761E+03</rscale>
<asrwt>0</asrwt>
<pdfrwt beam="2">  1       21 0.13799655E-02 0.13180761E+03</pdfrwt>
<pdfrwt beam="1">  1        4 0.28157400E+00 0.13180761E+03</pdfrwt>
<totfact> 0.44321941E+03</totfact>
</mgrwt>
</event>
<event>
 6    4  0.7919556E-003  0.1269837E+03  0.7818608E-02  0.1232001E+00
         21   -1    0    0  501  502  0.00000000000E+00  0.00000000000E+00  0.49857306638E+02  0.49857306638E+02  0.00000000000E+00 0.  1.
         -4   -1    0    0    0  501 -0.00000000000E+00 -0.00000000000E+00 -0.21888649779E+03  0.21889018208E+03  0.12700000000E+01 0. -1.
         25    2    1    2    0    0  0.22311573567E+02 -0.14001417585E+01 -0.19609527417E+03  0.23361982922E+03  0.12500040536E+03 0.  0.
    9000005    1    3    3    0    0 -0.74909905570E+01 -0.59722800965E+02 -0.77457421154E+02  0.98099847026E+02  0.10000000000E+01 0.  0.
    9000005    1    3    3    0    0  0.29802564124E+02  0.58322659207E+02 -0.11863785302E+03  0.13551998219E+03  0.10000000000E+01 0.  0.
         -4    1    1    2    0  502 -0.22311573567E+02  0.14001417585E+01  0.27066083023E+02  0.35127659504E+02  0.12700000000E+01 0.  1.
<mgrwt>
<rscale>  1 0.12698373E+03</rscale>
<asrwt>0</asrwt>
<pdfrwt beam="1">  1       21 0.76703547E-02 0.12698373E+03</pdfrwt>
<pdfrwt beam="2">  1       -4 0.33676374E-01 0.12698373E+03</pdfrwt>
<totfact> 0.44141165E+04</totfact>
</mgrwt>
</event>
<event>
 6    4  0.7919556E-003  0.1275603E+03  0.7818608E-02  0.1231121E+00
          4   -1    0    0  502    0 -0.00000000000E+00  0.00000000000E+00  0.43302761810E+03  0.43302948045E+03  0.12700000000E+01 0. -1.
         21   -1    0    0  501  502  0.00000000000E+00 -0.00000000000E+00 -0.21468348541E+02  0.21468348541E+02  0.00000000000E+00 0. -1.
         25    2    1    2    0    0  0.20010758683E+01 -0.25380477242E+02  0.40951843851E+03  0.42892536682E+03  0.12499378343E+03 0.  0.
    9000005    1    3    3    0    0 -0.26380342930E+02 -0.67749754946E+02  0.29002973757E+03  0.29900535190E+03  0.10000000000E+01 0.  0.
    9000005    1    3    3    0    0  0.28381418799E+02  0.42369277703E+02  0.11948870094E+03  0.12992001492E+03  0.10000000000E+01 0.  0.
          4    1    1    2  501    0 -0.20010758683E+01  0.25380477242E+02  0.20408310462E+01  0.25572462162E+02  0.12700000000E+01 0.  1.
<mgrwt>
<rscale>  1 0.12756026E+03</rscale>
<asrwt>0</asrwt>
<pdfrwt beam="2">  1       21 0.33028232E-02 0.12756026E+03</pdfrwt>
<pdfrwt beam="1">  1        4 0.66622660E-01 0.12756026E+03</pdfrwt>
<totfact> 0.45876279E+04</totfact>
</mgrwt>
</event>
<event>
 6    4  0.7919556E-003  0.1317929E+03  0.7818608E-02  0.1224819E+00
         -4   -1    0    0    0  501 -0.00000000000E+00  0.00000000000E+00  0.33107070207E+02  0.33131420097E+02  0.12700000000E+01 0.  1.
         21   -1    0    0  501  502  0.00000000000E+00 -0.00000000000E+00 -0.36360805230E+03  0.36360805230E+03  0.00000000000E+00 0.  1.
         25    2    1    2    0    0  0.41724026049E+02  0.19037990168E+01 -0.10812382233E+03  0.17047031213E+03  0.12499939025E+03 0.  0.
    9000005    1    3    3    0    0  0.67137424133E+02  0.37582060911E+02 -0.33476091259E+02  0.83913608595E+02  0.10000000000E+01 0.  0.
    9000005    1    3    3    0    0 -0.25413398084E+02 -0.35678261894E+02 -0.74647731067E+02  0.86556703538E+02  0.10000000000E+01 0.  0.
         -4    1    1    2    0  502 -0.41724026049E+02 -0.19037990168E+01 -0.22237715977E+03  0.22626916026E+03  0.12700000000E+01 0. -1.
<mgrwt>
<rscale>  1 0.13179289E+03</rscale>
<asrwt>0</asrwt>
<pdfrwt beam="2">  1       21 0.55939698E-01 0.13179289E+03</pdfrwt>
<pdfrwt beam="1">  1       -4 0.50954393E-02 0.13179289E+03</pdfrwt>
<totfact> 0.28446724E+04</totfact>
</mgrwt>
</event>
<event>
 6    4  0.7919556E-003  0.1267321E+03  0.7818608E-02  0.1232387E+00
         21   -1    0    0  501  502  0.00000000000E+00  0.00000000000E+00  0.15288734825E+03  0.15288734825E+03  0.00000000000E+00 0.  1.
         -4   -1    0    0    0  501 -0.00000000000E+00 -0.00000000000E+00 -0.46145362464E+02  0.46162835451E+02  0.12700000000E+01 0. -1.
         25    2    1    2    0    0  0.20225971862E+02 -0.52465310730E+01  0.46033314029E+02  0.13483358341E+03  0.12499765274E+03 0.  0.
    9000005    1    3    3    0    0 -0.18920634421E+01  0.27869393521E+02  0.78573346795E+02  0.83396965328E+02  0.10000000000E+01 0.  0.
    9000005    1    3    3    0    0  0.22118035304E+02 -0.33115924594E+02 -0.32540032767E+02  0.51436618084E+02  0.10000000000E+01 0.  0.
         -4    1    1    2    0  502 -0.20225971862E+02  0.52465310730E+01  0.60708671756E+02  0.64216600287E+02  0.12700000000E+01 0.  1.
<mgrwt>
<rscale>  1 0.12673212E+03</rscale>
<asrwt>0</asrwt>
<pdfrwt beam="1">  1       21 0.23521130E-01 0.12673212E+03</pdfrwt>
<pdfrwt beam="2">  1       -4 0.71010364E-02 0.12673212E+03</pdfrwt>
<totfact> 0.91718911E+04</totfact>
</mgrwt>
</event>
<event>
 6    4  0.7919556E-003  0.1266460E+03  0.7818608E-02  0.1232519E+00
         21   -1    0    0  501  502  0.00000000000E+00  0.00000000000E+00  0.17604097662E+03  0.17604097662E+03  0.00000000000E+00 0.  1.
          4   -1    0    0  502    0 -0.00000000000E+00 -0.00000000000E+00 -0.88310066692E+02  0.88319198248E+02  0.12700000000E+01 0. -1.
         25    2    1    2    0    0 -0.14537088378E+02 -0.14228817383E+02 -0.41699844898E+02  0.13333453090E+03  0.12500173552E+03 0.  0.
    9000005    1    3    3    0    0  0.39514204280E+02 -0.78628118934E+01  0.24858690318E+02  0.47351353044E+02  0.10000000000E+01 0.  0.
    9000005    1    3    3    0    0 -0.54051292658E+02 -0.63660054892E+01 -0.66558535216E+02  0.85983177855E+02  0.10000000000E+01 0.  0.
          4    1    1    2  501    0  0.14537088378E+02  0.14228817383E+02  0.12943075483E+03  0.13102564397E+03  0.12700000000E+01 0.  1.
<mgrwt>
<rscale>  1 0.12664604E+03</rscale>
<asrwt>0</asrwt>
<pdfrwt beam="1">  1       21 0.27083227E-01 0.12664604E+03</pdfrwt>
<pdfrwt beam="2">  1        4 0.13587219E-01 0.12664604E+03</pdfrwt>
<totfact> 0.23595490E+04</totfact>
</mgrwt>
</event>
<event>
 6    4  0.7919556E-003  0.1300188E+03  0.7818608E-02  0.1227428E+00
         -4   -1    0    0    0  501 -0.00000000000E+00  0.00000000000E+00  0.10872338112E+03  0.10873079832E+03  0.12700000000E+01 0. -1.
         21   -1    0    0  501  502  0.00000000000E+00 -0.00000000000E+00 -0.64326629493E+02  0.64326629493E+02  0.00000000000E+00 0. -1.
         25    2    1    2    0    0  0.17816983104E+02  0.31074746424E+02  0.43838493090E+02  0.13721040137E+03  0.12498718340E+03 0.  0.
    9000005    1    3    3    0    0  0.10065390858E+02 -0.60850060060E+01 -0.41851119390E+02  0.43483969292E+02  0.10000000000E+01 0.  0.
    9000005    1    3    3    0    0  0.77515922463E+01  0.37159752430E+02  0.85689612480E+02  0.93726432077E+02  0.10000000000E+01 0.  0.
         -4    1    1    2    0  502 -0.17816983104E+02 -0.31074746424E+02  0.55825854123E+00  0.35847026444E+02  0.12700000000E+01 0.  1.
<mgrwt>
<rscale>  1 0.13001877E+03</rscale>
<asrwt>0</asrwt>
<pdfrwt beam="2">  1       21 0.98964045E-02 0.13001877E+03</pdfrwt>
<pdfrwt beam="1">  1       -4 0.16728209E-01 0.13001877E+03</pdfrwt>
<totfact> 0.10281708E+05</totfact>
</mgrwt>
</event>
<event>
 6    4  0.7919556E-003  0.1287948E+03  0.7818608E-02  0.1229255E+00
         21   -1    0    0  501  502  0.00000000000E+00  0.00000000000E+00  0.10294390113E+04  0.10294390113E+04  0.00000000000E+00 0.  1.
          4   -1    0    0  502    0 -0.00000000000E+00 -0.00000000000E+00 -0.25150147975E+02  0.25182192978E+02  0.12700000000E+01 0. -1.
         25    2    1    2    0    0  0.14339656270E+02  0.27525488467E+02  0.14175038902E+03  0.19152357896E+03  0.12499932102E+03 0.  0.
    9000005    1    3    3    0    0 -0.19995058993E+02 -0.12386401453E+02  0.13660092210E+03  0.13861470789E+03  0.10000000000E+01 0.  0.
    9000005    1    3    3    0    0  0.34334715264E+02  0.39911889920E+02  0.51494669198E+01  0.52908871078E+02  0.10000000000E+01 0.  0.
          4    1    1    2  501    0 -0.14339656270E+02 -0.27525488467E+02  0.86253847433E+03  0.86309762533E+03  0.12700000000E+01 0.  1.
<mgrwt>
<rscale>  1 0.12879483E+03</rscale>
<asrwt>0</asrwt>
<pdfrwt beam="1">  1       21 0.15837520E+00 0.12879483E+03</pdfrwt>
<pdfrwt beam="2">  1        4 0.38717796E-02 0.12879483E+03</pdfrwt>
<totfact> 0.39040442E+03</totfact>
</mgrwt>
</event>
<event>
 6    4  0.7919556E-003  0.1269338E+03  0.7818608E-02  0.1232078E+00
         -4   -1    0    0    0  501 -0.00000000000E+00  0.00000000000E+00  0.39587494556E+02  0.39607860649E+02  0.12700000000E+01 0.  1.
         21   -1    0    0  501  502  0.00000000000E+00 -0.00000000000E+00 -0.14210427771E+03  0.14210427771E+03  0.00000000000E+00 0.  1.
         25    2    1    2    0    0  0.22077535374E+02  0.13260756830E+00 -0.94267055582E+02  0.15810904411E+03  0.12499902763E+03 0.  0.
    9000005    1    3    3    0    0  0.46339355942E+02 -0.42020590514E+02 -0.13778912447E+02  0.64061879183E+02  0.10000000000E+01 0.  0.
    9000005    1    3    3    0    0 -0.24261820568E+02  0.42153198082E+02 -0.80488143135E+02  0.94047164929E+02  0.10000000000E+01 0.  0.
         -4    1    1    2    0  502 -0.22077535374E+02 -0.13260756830E+00 -0.82497275700E+01  0.23603094245E+02  0.12700000000E+01 0. -1.
<mgrwt>
<rscale>  1 0.12693381E+03</rscale>
<asrwt>0</asrwt>
<pdfrwt beam="2">  1       21 0.21862197E-01 0.12693381E+03</pdfrwt>
<pdfrwt beam="1">  1       -4 0.60923869E-02 0.12693381E+03</pdfrwt>
<totfact> 0.13508023E+05</totfact>
</mgrwt>
</event>
<event>
 6    4  0.7919556E-003  0.1280526E+03  0.7818608E-02  0.1230374E+00
         -4   -1    0    0    0  501 -0.00000000000E+00  0.00000000000E+00  0.17729929197E+02  0.17775356236E+02  0.12700000000E+01 0.  1.
         21   -1    0    0  501  502  0.00000000000E+00 -0.00000000000E+00 -0.64170009277E+03  0.64170009277E+03  0.00000000000E+00 0.  1.
         25    2    1    2    0    0 -0.22009517050E+02  0.16905737681E+02 -0.22001792922E+03  0.25456898654E+03  0.12500902737E+03 0.  0.
    9000005    1    3    3    0    0  0.74940034370E+01 -0.48389093041E+02 -0.49632807979E+02  0.69728617086E+02  0.10000000000E+01 0.  0.
    9000005    1    3    3    0    0 -0.29503520487E+02  0.65294830721E+02 -0.17038512124E+03  0.18484036945E+03  0.10000000000E+01 0.  0.
         -4    1    1    2    0  502  0.22009517050E+02 -0.16905737681E+02 -0.40395223435E+03  0.40490646247E+03  0.12700000000E+01 0. -1.
<mgrwt>
<rscale>  1 0.12805264E+03</rscale>
<asrwt>0</asrwt>
<pdfrwt beam="2">  1       21 0.98723089E-01 0.12805264E+03</pdfrwt>
<pdfrwt beam="1">  1       -4 0.27312725E-02 0.12805264E+03</pdfrwt>
<totfact> 0.21706873E+04</totfact>
</mgrwt>
</event>
<event>
 6    4  0.7919556E-003  0.1270685E+03  0.7818608E-02  0.1231871E+00
         -4   -1    0    0    0  501 -0.00000000000E+00  0.00000000000E+00  0.21547395545E+03  0.21547769810E+03  0.12700000000E+01 0. -1.
         21   -1    0    0  501  502  0.00000000000E+00 -0.00000000000E+00 -0.26626217389E+02  0.26626217389E+02  0.00000000000E+00 0. -1.
         25    2    1    2    0    0  0.16038720118E+02 -0.16242820924E+02  0.17129794251E+03  0.21328243047E+03  0.12500136105E+03 0.  0.
    9000005    1    3    3    0    0  0.61570331563E+01  0.49664501131E+02  0.33555359760E+02  0.60261379826E+02  0.10000000000E+01 0.  0.
    9000005    1    3    3    0    0  0.98816869619E+01 -0.65907322055E+02  0.13774258275E+03  0.15302105065E+03  0.10000000000E+01 0.  0.
         -4    1    1    2    0  502 -0.16038720118E+02  0.16242820924E+02  0.17549795547E+02  0.28821485013E+02  0.12700000000E+01 0.  1.
<mgrwt>
<rscale>  1 0.12706852E+03</rscale>
<asrwt>0</asrwt>
<pdfrwt beam="2">  1       21 0.40963413E-02 0.12706852E+03</pdfrwt>
<pdfrwt beam="1">  1       -4 0.33152456E-01 0.12706852E+03</pdfrwt>
<totfact> 0.13127893E+05</totfact>
</mgrwt>
</event>
<event>
 6    4  0.7919556E-003  0.1475837E+03  0.7818608E-02  0.1203474E+00
         -4   -1    0    0    0  501 -0.00000000000E+00  0.00000000000E+00  0.32681525766E+02  0.32706192478E+02  0.12700000000E+01 0. -1.
         21   -1    0    0  501  502  0.00000000000E+00 -0.00000000000E+00 -0.65133585026E+03  0.65133585026E+03  0.00000000000E+00 0.  1.
         25    2    1    2    0    0 -0.29010964679E+02  0.72898543030E+02 -0.15587727278E+03  0.21465942041E+03  0.12500043582E+03 0.  0.
    9000005    1    3    3    0    0 -0.75068091975E+02  0.34904913071E+02 -0.62140160405E+02  0.10351797392E+03  0.10000000000E+01 0.  0.
    9000005    1    3    3    0    0  0.46057127295E+02  0.37993629959E+02 -0.93737112375E+02  0.11114144649E+03  0.10000000000E+01 0.  0.
         -4    1    1    2    0  502  0.29010964679E+02 -0.72898543030E+02 -0.46277705171E+03  0.46938262232E+03  0.12700000000E+01 0.  1.
<mgrwt>
<rscale>  1 0.14758368E+03</rscale>
<asrwt>0</asrwt>
<pdfrwt beam="2">  1       21 0.10020551E+00 0.14758368E+03</pdfrwt>
<pdfrwt beam="1">  1       -4 0.50299198E-02 0.14758368E+03</pdfrwt>
<totfact> 0.80464509E+03</totfact>
</mgrwt>
</event>
<event>
 6    4  0.7919556E-003  0.1275283E+03  0.7818608E-02  0.1231170E+00
         -4   -1    0    0    0  501 -0.00000000000E+00  0.00000000000E+00  0.67756745637E+03  0.67756864658E+03  0.12700000000E+01 0.  1.
         21   -1    0    0  501  502  0.00000000000E+00 -0.00000000000E+00 -0.94781009751E+01  0.94781009751E+01  0.00000000000E+00 0. -1.
         25    2    1    2    0    0 -0.24621601497E+02  0.56524258345E+01  0.61696566197E+03  0.63000800539E+03  0.12500114253E+03 0.  0.
    9000005    1    3    3    0    0 -0.11106283527E+02  0.23959440642E+02  0.60238295617E+03  0.60296237877E+03  0.10000000000E+01 0.  0.
    9000005    1    3    3    0    0 -0.13515317970E+02 -0.18307014807E+02  0.14582705798E+02  0.27045626622E+02  0.10000000000E+01 0.  0.
         -4    1    1    2    0  502  0.24621601497E+02 -0.56524258345E+01  0.51123693427E+02  0.57038742164E+02  0.12700000000E+01 0. -1.
<mgrwt>
<rscale>  1 0.12752827E+03</rscale>
<asrwt>0</asrwt>
<pdfrwt beam="2">  1       21 0.14581699E-02 0.12752827E+03</pdfrwt>
<pdfrwt beam="1">  1       -4 0.10424775E+00 0.12752827E+03</pdfrwt>
<totfact> 0.63616433E+04</totfact>
</mgrwt>
</event>
<event>
 6    4  0.7919556E-003  0.1291090E+03  0.7818608E-02  0.1228784E+00
         21   -1    0    0  501  502  0.00000000000E+00  0.00000000000E+00  0.63051612053E+03  0.63051612053E+03  0.00000000000E+00 0. -1.
         -4   -1    0    0    0  501 -0.00000000000E+00 -0.00000000000E+00 -0.13178718436E+02  0.13239770376E+02  0.12700000000E+01 0. -1.
         25    2    1    2    0    0 -0.12777179008E+02 -0.29685208101E+02  0.32610349783E+03  0.35073154418E+03  0.12499862759E+03 0.  0.
    9000005    1    3    3    0    0  0.14725179209E+02 -0.57624686909E+01  0.31077072427E+03  0.31117435629E+03  0.10000000000E+01 0.  0.
    9000005    1    3    3    0    0 -0.27502358217E+02 -0.23922739410E+02  0.15332773557E+02  0.39557187885E+02  0.10000000000E+01 0.  0.
         -4    1    1    2    0  502  0.12777179008E+02  0.29685208101E+02  0.29123390426E+03  0.29302434673E+03  0.12700000000E+01 0.  1.
<mgrwt>
<rscale>  1 0.12910896E+03</rscale>
<asrwt>0</asrwt>
<pdfrwt beam="1">  1       21 0.97002457E-01 0.12910896E+03</pdfrwt>
<pdfrwt beam="2">  1       -4 0.20322903E-02 0.12910896E+03</pdfrwt>
<totfact> 0.35768048E+04</totfact>
</mgrwt>
</event>
<event>
 6    4  0.7919556E-003  0.1293158E+03  0.7818608E-02  0.1228474E+00
         21   -1    0    0  501  502  0.00000000000E+00  0.00000000000E+00  0.25793311174E+02  0.25793311174E+02  0.00000000000E+00 0. -1.
         -4   -1    0    0    0  501 -0.00000000000E+00 -0.00000000000E+00 -0.26425636890E+03  0.26425942065E+03  0.12700000000E+01 0. -1.
         25    2    1    2    0    0 -0.19377279283E+02 -0.26867728951E+02 -0.20861850704E+03  0.24544708289E+03  0.12500094083E+03 0.  0.
    9000005    1    3    3    0    0 -0.38297429462E+02 -0.28026053190E+02 -0.21881191461E+03  0.22390133259E+03  0.10000000000E+01 0.  0.
    9000005    1    3    3    0    0  0.18920150179E+02  0.11583242387E+01  0.10193407575E+02  0.21545750296E+02  0.10000000000E+01 0.  0.
         -4    1    1    2    0  502  0.19377279283E+02  0.26867728951E+02 -0.29844550687E+02  0.44605648937E+02  0.12700000000E+01 0.  1.
<mgrwt>
<rscale>  1 0.12931585E+03</rscale>
<asrwt>0</asrwt>
<pdfrwt beam="1">  1       21 0.39682016E-02 0.12931585E+03</pdfrwt>
<pdfrwt beam="2">  1       -4 0.40657467E-01 0.12931585E+03</pdfrwt>
<totfact> 0.93378761E+04</totfact>
</mgrwt>
</event>
<event>
 6    4  0.7919556E-003  0.1281633E+03  0.7818608E-02  0.1230207E+00
         -4   -1    0    0    0  501 -0.00000000000E+00  0.00000000000E+00  0.34242321631E+01  0.36521590747E+01  0.12700000000E+01 0. -1.
         21   -1    0    0  501  502  0.00000000000E+00 -0.00000000000E+00 -0.17302264883E+04  0.17302264883E+04  0.00000000000E+00 0. -1.
         25    2    1    2    0    0 -0.18213927897E+02  0.21652213145E+02 -0.14094724957E+04  0.14152874434E+04  0.12500106300E+03 0.  0.
    9000005    1    3    3    0    0 -0.36181858680E+02  0.42191870982E+02 -0.27895098935E+03  0.28443617093E+03  0.10000000000E+01 0.  0.
    9000005    1    3    3    0    0  0.17967930783E+02 -0.20539657837E+02 -0.11305215063E+04  0.11308512724E+04  0.10000000000E+01 0.  0.
         -4    1    1    2    0  502  0.18213927897E+02 -0.21652213145E+02 -0.31732976042E+03  0.31859120398E+03  0.12700000000E+01 0.  1.
<mgrwt>
<rscale>  1 0.12816330E+03</rscale>
<asrwt>0</asrwt>
<pdfrwt beam="2">  1       21 0.26618903E+00 0.12816330E+03</pdfrwt>
<pdfrwt beam="1">  1       -4 0.54437295E-03 0.12816330E+03</pdfrwt>
<totfact> 0.16625668E+04</totfact>
</mgrwt>
</event>
<event>
 6    4  0.7919556E-003  0.1379873E+03  0.7818608E-02  0.1216063E+00
         21   -1    0    0  501  502  0.00000000000E+00  0.00000000000E+00  0.25244824616E+03  0.25244824616E+03  0.00000000000E+00 0.  1.
         -4   -1    0    0    0  501 -0.00000000000E+00 -0.00000000000E+00 -0.48365661012E+02  0.48382332159E+02  0.12700000000E+01 0.  1.
         25    2    1    2    0    0 -0.22721809912E+02  0.53830467115E+02  0.19900910519E+03  0.24216753259E+03  0.12500596008E+03 0.  0.
    9000005    1    3    3    0    0  0.37532811509E+02 -0.18701007088E+02  0.44483276979E+02  0.61140833627E+02  0.10000000000E+01 0.  0.
    9000005    1    3    3    0    0 -0.60254621421E+02  0.72531474202E+02  0.15452582821E+03  0.18102669896E+03  0.10000000000E+01 0.  0.
         -4    1    1    2    0  502  0.22721809912E+02 -0.53830467115E+02  0.50734799569E+01  0.58663045730E+02  0.12700000000E+01 0. -1.
<mgrwt>
<rscale>  1 0.13798728E+03</rscale>
<asrwt>0</asrwt>
<pdfrwt beam="1">  1       21 0.38838191E-01 0.13798728E+03</pdfrwt>
<pdfrwt beam="2">  1       -4 0.74423992E-02 0.13798728E+03</pdfrwt>
<totfact> 0.32525841E+04</totfact>
</mgrwt>
</event>
<event>
 6    4  0.7919556E-003  0.1600660E+03  0.7818608E-02  0.1188622E+00
         21   -1    0    0  501  502  0.00000000000E+00  0.00000000000E+00  0.32119669729E+03  0.32119669729E+03  0.00000000000E+00 0. -1.
          4   -1    0    0  502    0 -0.00000000000E+00 -0.00000000000E+00 -0.70872849628E+02  0.70884227544E+02  0.12700000000E+01 0.  1.
         25    2    1    2    0    0 -0.88479229301E+02 -0.46552902450E+02  0.24410009456E+03  0.29190061366E+03  0.12500146138E+03 0.  0.
    9000005    1    3    3    0    0 -0.25899347129E+02  0.40365422837E+02  0.11195705372E+03  0.12180117167E+03  0.10000000000E+01 0.  0.
    9000005    1    3    3    0    0 -0.62579882172E+02 -0.86918325288E+02  0.13214304084E+03  0.17009944199E+03  0.10000000000E+01 0.  0.
          4    1    1    2  501    0  0.88479229301E+02  0.46552902450E+02  0.62237531042E+01  0.10018031117E+03  0.12700000000E+01 0. -1.
<mgrwt>
<rscale>  1 0.16006596E+03</rscale>
<asrwt>0</asrwt>
<pdfrwt beam="1">  1       21 0.49414876E-01 0.16006596E+03</pdfrwt>
<pdfrwt beam="2">  1        4 0.10904584E-01 0.16006596E+03</pdfrwt>
<totfact> 0.10645580E+04</totfact>
</mgrwt>
</event>
<event>
 6    4  0.7919556E-003  0.1319925E+03  0.7818608E-02  0.1224529E+00
         21   -1    0    0  501  502  0.00000000000E+00  0.00000000000E+00  0.10935996819E+04  0.10935996819E+04  0.00000000000E+00 0.  1.
         -4   -1    0    0    0  501 -0.00000000000E+00 -0.00000000000E+00 -0.71827976158E+01  0.72942087707E+01  0.12700000000E+01 0.  1.
         25    2    1    2    0    0  0.22569340373E+02  0.35871814759E+02  0.90583559556E+03  0.91540163488E+03  0.12500345894E+03 0.  0.
    9000005    1    3    3    0    0 -0.18562113761E+02  0.34552116879E+02  0.81183659969E+03  0.81278414444E+03  0.10000000000E+01 0.  0.
    9000005    1    3    3    0    0  0.41131454134E+02  0.13196978805E+01  0.93998995861E+02  0.10261749044E+03  0.10000000000E+01 0.  0.
         -4    1    1    2    0  502 -0.22569340373E+02 -0.35871814759E+02  0.18058128872E+03  0.18549225578E+03  0.12700000000E+01 0. -1.
<mgrwt>
<rscale>  1 0.13199253E+03</rscale>
<asrwt>0</asrwt>
<pdfrwt beam="1">  1       21 0.16824597E+00 0.13199253E+03</pdfrwt>
<pdfrwt beam="2">  1       -4 0.11136735E-02 0.13199253E+03</pdfrwt>
<totfact> 0.22747571E+04</totfact>
</mgrwt>
</event>
<event>
 6    4  0.7919556E-003  0.1266477E+03  0.7818608E-02  0.1232516E+00
         21   -1    0    0  501  502  0.00000000000E+00  0.00000000000E+00  0.23996662479E+03  0.23996662479E+03  0.00000000000E+00 0. -1.
          4   -1    0    0  502    0 -0.00000000000E+00 -0.00000000000E+00 -0.40045152681E+02  0.40065286137E+02  0.12700000000E+01 0. -1.
         25    2    1    2    0    0  0.18855626924E+02  0.77083228829E+01  0.62732425532E+02  0.14133295524E+03  0.12499877645E+03 0.  0.
    9000005    1    3    3    0    0  0.42520948520E+02  0.42898439607E+01  0.93231802458E+02  0.10256511499E+03  0.10000000000E+01 0.  0.
    9000005    1    3    3    0    0 -0.23665321597E+02  0.34184789222E+01 -0.30499376926E+02  0.38767840245E+02  0.10000000000E+01 0.  0.
          4    1    1    2  501    0 -0.18855626924E+02 -0.77083228829E+01  0.13718904657E+03  0.13869895568E+03  0.12700000000E+01 0.  1.
<mgrwt>
<rscale>  1 0.12664773E+03</rscale>
<asrwt>0</asrwt>
<pdfrwt beam="1">  1       21 0.36917941E-01 0.12664773E+03</pdfrwt>
<pdfrwt beam="2">  1        4 0.61626001E-02 0.12664773E+03</pdfrwt>
<totfact> 0.48543791E+04</totfact>
</mgrwt>
</event>
<event>
 6    4  0.7919556E-003  0.1278902E+03  0.7818608E-02  0.1230620E+00
          4   -1    0    0  502    0 -0.00000000000E+00  0.00000000000E+00  0.17144551719E+03  0.17145022095E+03  0.12700000000E+01 0.  1.
         21   -1    0    0  501  502  0.00000000000E+00 -0.00000000000E+00 -0.35332472232E+02  0.35332472232E+02  0.00000000000E+00 0.  1.
         25    2    1    2    0    0 -0.26832141590E+02  0.32722350020E+01  0.10438686331E+03  0.16508335450E+03  0.12500090143E+03 0.  0.
    9000005    1    3    3    0    0  0.38868487860E+02 -0.32712660373E+02  0.27681966520E+02  0.57863362913E+02  0.10000000000E+01 0.  0.
    9000005    1    3    3    0    0 -0.65700629451E+02  0.35984895375E+02  0.76704896788E+02  0.10721999159E+03  0.10000000000E+01 0.  0.
          4    1    1    2  501    0  0.26832141590E+02 -0.32722350020E+01  0.31726181649E+02  0.41699338679E+02  0.12700000000E+01 0. -1.
<mgrwt>
<rscale>  1 0.12789017E+03</rscale>
<asrwt>0</asrwt>
<pdfrwt beam="2">  1       21 0.54357651E-02 0.12789017E+03</pdfrwt>
<pdfrwt beam="1">  1        4 0.26378350E-01 0.12789017E+03</pdfrwt>
<totfact> 0.12587494E+05</totfact>
</mgrwt>
</event>
<event>
 6    4  0.7919556E-003  0.1361188E+03  0.7818608E-02  0.1218649E+00
         21   -1    0    0  501  502  0.00000000000E+00  0.00000000000E+00  0.27150862084E+03  0.27150862084E+03  0.00000000000E+00 0. -1.
         -4   -1    0    0    0  501 -0.00000000000E+00 -0.00000000000E+00 -0.50908440724E+02  0.50924279444E+02  0.12700000000E+01 0.  1.
         25    2    1    2    0    0 -0.24345482255E+02 -0.48084053229E+02  0.52488079620E+02  0.14588809035E+03  0.12499423076E+03 0.  0.
    9000005    1    3    3    0    0  0.37058731902E+02  0.11166375266E+02 -0.10156798835E+02  0.40027466936E+02  0.10000000000E+01 0.  0.
    9000005    1    3    3    0    0 -0.61404214157E+02 -0.59250428495E+02  0.62644878455E+02  0.10586062341E+03  0.10000000000E+01 0.  0.
         -4    1    1    2    0  502  0.24345482255E+02  0.48084053229E+02  0.16811210050E+03  0.17654480993E+03  0.12700000000E+01 0. -1.
<mgrwt>
<rscale>  1 0.13611883E+03</rscale>
<asrwt>0</asrwt>
<pdfrwt beam="1">  1       21 0.41770556E-01 0.13611883E+03</pdfrwt>
<pdfrwt beam="2">  1       -4 0.78335149E-02 0.13611883E+03</pdfrwt>
<totfact> 0.25796719E+04</totfact>
</mgrwt>
</event>
<event>
 6    4  0.7919556E-003  0.1289298E+03  0.7818608E-02  0.1229052E+00
         21   -1    0    0  501  502  0.00000000000E+00  0.00000000000E+00  0.85848539691E+02  0.85848539691E+02  0.00000000000E+00 0. -1.
         -4   -1    0    0    0  501 -0.00000000000E+00 -0.00000000000E+00 -0.20265971879E+03  0.20266369808E+03  0.12700000000E+01 0.  1.
         25    2    1    2    0    0  0.19574806917E+02  0.24797134882E+02 -0.17791107915E+03  0.21971629567E+03  0.12499931013E+03 0.  0.
    9000005    1    3    3    0    0  0.46242801713E+02 -0.31060762583E+02 -0.13000067321E+03  0.14143670923E+03  0.10000000000E+01 0.  0.
    9000005    1    3    3    0    0 -0.26667994796E+02  0.55857897465E+02 -0.47910405939E+02  0.78279586438E+02  0.10000000000E+01 0.  0.
         -4    1    1    2    0  502 -0.19574806917E+02 -0.24797134882E+02  0.61099900050E+02  0.68795942106E+02  0.12700000000E+01 0. -1.
<mgrwt>
<rscale>  1 0.12892982E+03</rscale>
<asrwt>0</asrwt>
<pdfrwt beam="1">  1       21 0.13207468E-01 0.12892982E+03</pdfrwt>
<pdfrwt beam="2">  1       -4 0.31179447E-01 0.12892982E+03</pdfrwt>
<totfact> 0.19785810E+04</totfact>
</mgrwt>
</event>
<event>
 6    4  0.7919556E-003  0.1335046E+03  0.7818608E-02  0.1222346E+00
         21   -1    0    0  501  502  0.00000000000E+00  0.00000000000E+00  0.12630674329E+03  0.12630674329E+03  0.00000000000E+00 0. -1.
         -4   -1    0    0    0  501 -0.00000000000E+00 -0.00000000000E+00 -0.87041336920E+02  0.87050601565E+02  0.12700000000E+01 0. -1.
         25    2    1    2    0    0 -0.22765614040E+02 -0.40986622253E+02 -0.22930199185E+02  0.13545944606E+03  0.12500116442E+03 0.  0.
    9000005    1    3    3    0    0  0.22471882948E+02 -0.16259916910E+02  0.43355898096E+02  0.51479163949E+02  0.10000000000E+01 0.  0.
    9000005    1    3    3    0    0 -0.45237496987E+02 -0.24726705342E+02 -0.66286097281E+02  0.83980282111E+02  0.10000000000E+01 0.  0.
         -4    1    1    2    0  502  0.22765614040E+02  0.40986622253E+02  0.62195605555E+02  0.77897898794E+02  0.12700000000E+01 0.  1.
<mgrwt>
<rscale>  1 0.13350456E+03</rscale>
<asrwt>0</asrwt>
<pdfrwt beam="1">  1       21 0.19431807E-01 0.13350456E+03</pdfrwt>
<pdfrwt beam="2">  1       -4 0.13392179E-01 0.13350456E+03</pdfrwt>
<totfact> 0.45337495E+04</totfact>
</mgrwt>
</event>
<event>
 6    4  0.7919556E-003  0.1301588E+03  0.7818608E-02  0.1227220E+00
         21   -1    0    0  501  502  0.00000000000E+00  0.00000000000E+00  0.30331176098E+02  0.30331176098E+02  0.00000000000E+00 0.  1.
         -4   -1    0    0    0  501 -0.00000000000E+00 -0.00000000000E+00 -0.29556380482E+03  0.29556653332E+03  0.12700000000E+01 0. -1.
         25    2    1    2    0    0  0.34186427640E+02  0.12165295684E+02 -0.25786027955E+03  0.28884813875E+03  0.12499846895E+03 0.  0.
    9000005    1    3    3    0    0  0.36600060882E+02 -0.22550611046E+02 -0.18236050798E+02  0.46708115610E+02  0.10000000000E+01 0.  0.
    9000005    1    3    3    0    0 -0.24136332427E+01  0.34715906730E+02 -0.23962422875E+03  0.24214002314E+03  0.10000000000E+01 0.  0.
         -4    1    1    2    0  502 -0.34186427640E+02 -0.12165295684E+02 -0.73723491731E+01  0.37049570661E+02  0.12700000000E+01 0.  1.
<mgrwt>
<rscale>  1 0.13015884E+03</rscale>
<asrwt>0</asrwt>
<pdfrwt beam="1">  1       21 0.46663346E-02 0.13015884E+03</pdfrwt>
<pdfrwt beam="2">  1       -4 0.45473611E-01 0.13015884E+03</pdfrwt>
<totfact> 0.57103753E+04</totfact>
</mgrwt>
</event>
<event>
 6    4  0.7919556E-003  0.1268320E+03  0.7818608E-02  0.1232234E+00
          4   -1    0    0  502    0 -0.00000000000E+00  0.00000000000E+00  0.61283745574E+02  0.61296903442E+02  0.12700000000E+01 0. -1.
         21   -1    0    0  501  502  0.00000000000E+00 -0.00000000000E+00 -0.11560119158E+03  0.11560119158E+03  0.00000000000E+00 0. -1.
         25    2    1    2    0    0 -0.20398232283E+02 -0.67556712538E+01 -0.95095141762E+01  0.12718802935E+03  0.12499854789E+03 0.  0.
    9000005    1    3    3    0    0 -0.48546035903E+02  0.42258230640E+02  0.14149491921E+02  0.65906629259E+02  0.10000000000E+01 0.  0.
    9000005    1    3    3    0    0  0.28147803620E+02 -0.49013901893E+02 -0.23659006098E+02  0.61281400090E+02  0.10000000000E+01 0.  0.
          4    1    1    2  501    0  0.20398232283E+02  0.67556712538E+01 -0.44807931830E+02  0.49710065674E+02  0.12700000000E+01 0.  1.
<mgrwt>
<rscale>  1 0.12683203E+03</rscale>
<asrwt>0</asrwt>
<pdfrwt beam="2">  1       21 0.17784799E-01 0.12683203E+03</pdfrwt>
<pdfrwt beam="1">  1        4 0.94298174E-02 0.12683203E+03</pdfrwt>
<totfact> 0.96212375E+04</totfact>
</mgrwt>
</event>
<event>
 6    4  0.7919556E-003  0.1282746E+03  0.7818608E-02  0.1230039E+00
          4   -1    0    0  502    0 -0.00000000000E+00  0.00000000000E+00  0.11738958363E+02  0.11807457112E+02  0.12700000000E+01 0. -1.
         21   -1    0    0  501  502  0.00000000000E+00 -0.00000000000E+00 -0.71906690084E+03  0.71906690084E+03  0.00000000000E+00 0. -1.
         25    2    1    2    0    0  0.17541154693E+02  0.22843772459E+02 -0.35670856271E+03  0.37907172519E+03  0.12499937632E+03 0.  0.
    9000005    1    3    3    0    0 -0.37653697246E+02  0.26361452851E+02 -0.28408311013E+03  0.28777932617E+03  0.10000000000E+01 0.  0.
    9000005    1    3    3    0    0  0.55194851938E+02 -0.35176803918E+01 -0.72625452578E+02  0.91292399015E+02  0.10000000000E+01 0.  0.
          4    1    1    2  501    0 -0.17541154693E+02 -0.22843772459E+02 -0.35061937977E+03  0.35180263276E+03  0.12700000000E+01 0.  1.
<mgrwt>
<rscale>  1 0.12827460E+03</rscale>
<asrwt>0</asrwt>
<pdfrwt beam="2">  1       21 0.11062572E+00 0.12827460E+03</pdfrwt>
<pdfrwt beam="1">  1        4 0.18113483E-02 0.12827460E+03</pdfrwt>
<totfact> 0.31282349E+04</totfact>
</mgrwt>
</event>
<event>
 6    4  0.7919556E-003  0.1283427E+03  0.7818608E-02  0.1229936E+00
         -4   -1    0    0    0  501 -0.00000000000E+00  0.00000000000E+00  0.57470447918E+02  0.57484478635E+02  0.12700000000E+01 0.  1.
         21   -1    0    0  501  502  0.00000000000E+00 -0.00000000000E+00 -0.30292326434E+03  0.30292326434E+03  0.00000000000E+00 0. -1.
         25    2    1    2    0    0  0.27783738317E+01  0.28983048535E+02 -0.16259071163E+02  0.12936852070E+03  0.12499648111E+03 0.  0.
    9000005    1    3    3    0    0  0.27050771610E+02  0.71466894585E+02  0.37114089260E+01  0.76511671153E+02  0.10000000000E+01 0.  0.
    9000005    1    3    3    0    0 -0.24272397778E+02 -0.42483846050E+02 -0.19970480089E+02  0.52856849548E+02  0.10000000000E+01 0.  0.
         -4    1    1    2    0  502 -0.27783738317E+01 -0.28983048535E+02 -0.22919374526E+03  0.23103922228E+03  0.12700000000E+01 0. -1.
<mgrwt>
<rscale>  1 0.12834273E+03</rscale>
<asrwt>0</asrwt>
<pdfrwt beam="2">  1       21 0.46603580E-01 0.12834273E+03</pdfrwt>
<pdfrwt beam="1">  1       -4 0.88428913E-02 0.12834273E+03</pdfrwt>
<totfact> 0.16803986E+04</totfact>
</mgrwt>
</event>
<event>
 6    4  0.7919556E-003  0.1325759E+03  0.7818608E-02  0.1223683E+00
         21   -1    0    0  501  502  0.00000000000E+00  0.00000000000E+00  0.31327087774E+02  0.31327087774E+02  0.00000000000E+00 0.  1.
          4   -1    0    0  502    0 -0.00000000000E+00 -0.00000000000E+00 -0.31799288263E+03  0.31799541869E+03  0.12700000000E+01 0.  1.
         25    2    1    2    0    0  0.26559901343E+02  0.35301121211E+02 -0.27228646331E+03  0.30284696888E+03  0.12499908374E+03 0.  0.
    9000005    1    3    3    0    0  0.12630878519E+02 -0.32262743444E+02 -0.19976860717E+03  0.20275334798E+03  0.10000000000E+01 0.  0.
    9000005    1    3    3    0    0  0.13929022825E+02  0.67563864655E+02 -0.72517856142E+02  0.10009362089E+03  0.10000000000E+01 0.  0.
          4    1    1    2  501    0 -0.26559901343E+02 -0.35301121211E+02 -0.14379331546E+02  0.46475537585E+02  0.12700000000E+01 0. -1.
<mgrwt>
<rscale>  1 0.13257590E+03</rscale>
<asrwt>0</asrwt>
<pdfrwt beam="1">  1       21 0.48195521E-02 0.13257590E+03</pdfrwt>
<pdfrwt beam="2">  1        4 0.48924156E-01 0.13257590E+03</pdfrwt>
<totfact> 0.46790497E+04</totfact>
</mgrwt>
</event>
<event>
 6    4  0.7919556E-003  0.1279109E+03  0.7818608E-02  0.1230589E+00
         21   -1    0    0  501  502  0.00000000000E+00  0.00000000000E+00  0.36559965985E+02  0.36559965985E+02  0.00000000000E+00 0. -1.
         -4   -1    0    0    0  501 -0.00000000000E+00 -0.00000000000E+00 -0.28203630116E+03  0.28203916053E+03  0.12700000000E+01 0.  1.
         25    2    1    2    0    0  0.15927450108E+02 -0.21950925763E+02 -0.25855364817E+03  0.28846350268E+03  0.12500270632E+03 0.  0.
    9000005    1    3    3    0    0  0.29258523802E+02 -0.17623452862E+02 -0.26886929797E+03  0.27103200308E+03  0.10000000000E+01 0.  0.
    9000005    1    3    3    0    0 -0.13331073694E+02 -0.43274729009E+01  0.10315649796E+02  0.17431499599E+02  0.10000000000E+01 0.  0.
         -4    1    1    2    0  502 -0.15927450108E+02  0.21950925763E+02  0.13077312994E+02  0.30135623835E+02  0.12700000000E+01 0. -1.
<mgrwt>
<rscale>  1 0.12791092E+03</rscale>
<asrwt>0</asrwt>
<pdfrwt beam="1">  1       21 0.56246104E-02 0.12791092E+03</pdfrwt>
<pdfrwt beam="2">  1       -4 0.43392115E-01 0.12791092E+03</pdfrwt>
<totfact> 0.45696847E+04</totfact>
</mgrwt>
</event>
<event>
 6    4  0.7919556E-003  0.1330045E+03  0.7818608E-02  0.1223064E+00
         21   -1    0    0  501  502  0.00000000000E+00  0.00000000000E+00  0.48325279820E+02  0.48325279820E+02  0.00000000000E+00 0. -1.
         -4   -1    0    0    0  501 -0.00000000000E+00 -0.00000000000E+00 -0.18915382055E+03  0.18915808397E+03  0.12700000000E+01 0. -1.
         25    2    1    2    0    0 -0.25748137044E+02  0.37438016801E+02 -0.13841996300E+03  0.19196429295E+03  0.12500252776E+03 0.  0.
    9000005    1    3    3    0    0 -0.98117757968E+01  0.74695913863E+02 -0.13046141629E+03  0.15065500865E+03  0.10000000000E+01 0.  0.
    9000005    1    3    3    0    0 -0.15936361247E+02 -0.37257897062E+02 -0.79585467138E+01  0.41309284297E+02  0.10000000000E+01 0.  0.
         -4    1    1    2    0  502  0.25748137044E+02 -0.37438016801E+02 -0.24085777319E+01  0.45519070837E+02  0.12700000000E+01 0.  1.
<mgrwt>
<rscale>  1 0.13300452E+03</rscale>
<asrwt>0</asrwt>
<pdfrwt beam="1">  1       21 0.74346585E-02 0.13300452E+03</pdfrwt>
<pdfrwt beam="2">  1       -4 0.29102199E-01 0.13300452E+03</pdfrwt>
<totfact> 0.61824798E+04</totfact>
</mgrwt>
</event>
<event>
 6    4  0.7919556E-003  0.1438719E+03  0.7818608E-02  0.1208212E+00
          4   -1    0    0  502    0 -0.00000000000E+00  0.00000000000E+00  0.44851662182E+03  0.44851841986E+03  0.12700000000E+01 0.  1.
         21   -1    0    0  501  502  0.00000000000E+00 -0.00000000000E+00 -0.43095523977E+02  0.43095523977E+02  0.00000000000E+00 0. -1.
         25    2    1    2    0    0  0.13952071068E+01  0.71222093156E+02  0.39401413965E+03  0.41945949316E+03  0.12499836401E+03 0.  0.
    9000005    1    3    3    0    0 -0.20585363612E+02  0.22292331396E+02  0.10369262353E+02  0.32081565359E+02  0.10000000000E+01 0.  0.
    9000005    1    3    3    0    0  0.21980570719E+02  0.48929761760E+02  0.38364487730E+03  0.38737792781E+03  0.10000000000E+01 0.  0.
          4    1    1    2  501    0 -0.13952071068E+01 -0.71222093156E+02  0.11406958199E+02  0.72154450672E+02  0.12700000000E+01 0. -1.
<mgrwt>
<rscale>  1 0.14387190E+03</rscale>
<asrwt>0</asrwt>
<pdfrwt beam="2">  1       21 0.66300809E-02 0.14387190E+03</pdfrwt>
<pdfrwt beam="1">  1        4 0.69004132E-01 0.14387190E+03</pdfrwt>
<totfact> 0.13405951E+04</totfact>
</mgrwt>
</event>
<event>
 6    4  0.7919556E-003  0.1281123E+03  0.7818608E-02  0.1230284E+00
         21   -1    0    0  501  502  0.00000000000E+00  0.00000000000E+00  0.11931589660E+03  0.11931589660E+03  0.00000000000E+00 0.  1.
         -4   -1    0    0    0  501 -0.00000000000E+00 -0.00000000000E+00 -0.84254615902E+02  0.84264186941E+02  0.12700000000E+01 0.  1.
         25    2    1    2    0    0 -0.24509155390E+02  0.13861255093E+02 -0.30954582721E+02  0.13179888674E+03  0.12497970741E+03 0.  0.
    9000005    1    3    3    0    0 -0.48198974470E+02  0.44131324888E+02 -0.55868005579E+02  0.85982259936E+02  0.10000000000E+01 0.  0.
    9000005    1    3    3    0    0  0.23689819080E+02 -0.30270069795E+02  0.24913422858E+02  0.45816626807E+02  0.10000000000E+01 0.  0.
         -4    1    1    2    0  502  0.24509155390E+02 -0.13861255093E+02  0.66015863420E+02  0.71781196798E+02  0.12700000000E+01 0. -1.
<mgrwt>
<rscale>  1 0.12811230E+03</rscale>
<asrwt>0</asrwt>
<pdfrwt beam="1">  1       21 0.18356292E-01 0.12811230E+03</pdfrwt>
<pdfrwt beam="2">  1       -4 0.12963505E-01 0.12811230E+03</pdfrwt>
<totfact> 0.52983368E+04</totfact>
</mgrwt>
</event>
<event>
 6    4  0.7919556E-003  0.1276991E+03  0.7818608E-02  0.1230910E+00
          4   -1    0    0  502    0 -0.00000000000E+00  0.00000000000E+00  0.29202843652E+03  0.29203119806E+03  0.12700000000E+01 0. -1.
         21   -1    0    0  501  502  0.00000000000E+00 -0.00000000000E+00 -0.36964147696E+02  0.36964147696E+02  0.00000000000E+00 0.  1.
         25    2    1    2    0    0 -0.11543107308E+02  0.23594952225E+02  0.27005475747E+03  0.29872502783E+03  0.12496841650E+03 0.  0.
    9000005    1    3    3    0    0  0.31992074977E+02 -0.28930184320E+02  0.18354294860E+03  0.18854565072E+03  0.10000000000E+01 0.  0.
    9000005    1    3    3    0    0 -0.43535182285E+02  0.52525136545E+02  0.86511808877E+02  0.11017937711E+03  0.10000000000E+01 0.  0.
          4    1    1    2  501    0  0.11543107308E+02 -0.23594952225E+02 -0.14990468645E+02  0.30270317920E+02  0.12700000000E+01 0.  1.
<mgrwt>
<rscale>  1 0.12769914E+03</rscale>
<asrwt>0</asrwt>
<pdfrwt beam="2">  1       21 0.56867922E-02 0.12769914E+03</pdfrwt>
<pdfrwt beam="1">  1        4 0.44929341E-01 0.12769914E+03</pdfrwt>
<totfact> 0.41837233E+04</totfact>
</mgrwt>
</event>
<event>
 6    4  0.7919556E-003  0.1348560E+03  0.7818608E-02  0.1220423E+00
          4   -1    0    0  502    0 -0.00000000000E+00  0.00000000000E+00  0.17707721470E+03  0.17708176887E+03  0.12700000000E+01 0. -1.
         21   -1    0    0  501  502  0.00000000000E+00 -0.00000000000E+00 -0.49481851813E+02  0.49481851813E+02  0.00000000000E+00 0. -1.
         25    2    1    2    0    0 -0.18854658324E+02 -0.46954729644E+02  0.78448198559E+02  0.15601362821E+03  0.12500355016E+03 0.  0.
    9000005    1    3    3    0    0  0.24278094694E+02 -0.29414987266E+02 -0.22884839829E+02  0.44490260190E+02  0.10000000000E+01 0.  0.
    9000005    1    3    3    0    0 -0.43132753018E+02 -0.17539742378E+02  0.10133303839E+03  0.11152336802E+03  0.10000000000E+01 0.  0.
          4    1    1    2  501    0  0.18854658324E+02  0.46954729644E+02  0.49147164332E+02  0.70549992475E+02  0.12700000000E+01 0.  1.
<mgrwt>
<rscale>  1 0.13485597E+03</rscale>
<asrwt>0</asrwt>
<pdfrwt beam="2">  1       21 0.76125927E-02 0.13485597E+03</pdfrwt>
<pdfrwt beam="1">  1        4 0.27244252E-01 0.13485597E+03</pdfrwt>
<totfact> 0.67289615E+04</totfact>
</mgrwt>
</event>
<event>
 6    4  0.7919556E-003  0.1423916E+03  0.7818608E-02  0.1210147E+00
         -4   -1    0    0    0  501 -0.00000000000E+00  0.00000000000E+00  0.18680852068E+03  0.18681283761E+03  0.12700000000E+01 0.  1.
         21   -1    0    0  501  502  0.00000000000E+00 -0.00000000000E+00 -0.90054386329E+02  0.90054386329E+02  0.00000000000E+00 0. -1.
         25    2    1    2    0    0 -0.48496879618E+02 -0.47961378424E+02  0.13705390403E+03  0.19763386298E+03  0.12499251991E+03 0.  0.
    9000005    1    3    3    0    0 -0.28837001527E+02 -0.75029924611E+02  0.14261012188E+03  0.16370616698E+03  0.10000000000E+01 0.  0.
    9000005    1    3    3    0    0 -0.19659878091E+02  0.27068546188E+02 -0.55562178508E+01  0.33927696003E+02  0.10000000000E+01 0.  0.
         -4    1    1    2    0  502  0.48496879618E+02  0.47961378424E+02 -0.40299769681E+02  0.79233360962E+02  0.12700000000E+01 0. -1.
<mgrwt>
<rscale>  1 0.14239161E+03</rscale>
<asrwt>0</asrwt>
<pdfrwt beam="2">  1       21 0.13854521E-01 0.14239161E+03</pdfrwt>
<pdfrwt beam="1">  1       -4 0.28740793E-01 0.14239161E+03</pdfrwt>
<totfact> 0.21395454E+04</totfact>
</mgrwt>
</event>
<event>
 6    4  0.7919556E-003  0.1799166E+03  0.7818608E-02  0.1167884E+00
         21   -1    0    0  501  502  0.00000000000E+00  0.00000000000E+00  0.20475675342E+02  0.20475675342E+02  0.00000000000E+00 0. -1.
          4   -1    0    0  502    0 -0.00000000000E+00 -0.00000000000E+00 -0.12444956252E+04  0.12444962732E+04  0.12700000000E+01 0.  1.
         25    2    1    2    0    0  0.55203217875E+02  0.11704060260E+03 -0.55122897697E+03  0.57984772331E+03  0.12499639697E+03 0.  0.
    9000005    1    3    3    0    0  0.62627949781E+02  0.75502704765E+02 -0.51488824861E+03  0.52415057672E+03  0.10000000000E+01 0.  0.
    9000005    1    3    3    0    0 -0.74247319067E+01  0.41537897832E+02 -0.36340728356E+02  0.55697146584E+02  0.10000000000E+01 0.  0.
          4    1    1    2  501    0 -0.55203217875E+02 -0.11704060260E+03 -0.67279097288E+03  0.68512422524E+03  0.12700000000E+01 0. -1.
<mgrwt>
<rscale>  1 0.17991664E+03</rscale>
<asrwt>0</asrwt>
<pdfrwt beam="1">  1       21 0.31501044E-02 0.17991664E+03</pdfrwt>
<pdfrwt beam="2">  1        4 0.19146391E+00 0.17991664E+03</pdfrwt>
<totfact> 0.40272798E+03</totfact>
</mgrwt>
</event>
<event>
 6    4  0.7919556E-003  0.1270529E+03  0.7818608E-02  0.1231895E+00
          4   -1    0    0  502    0 -0.00000000000E+00  0.00000000000E+00  0.69639037279E+03  0.69639153083E+03  0.12700000000E+01 0.  1.
         21   -1    0    0  501  502  0.00000000000E+00 -0.00000000000E+00 -0.86475378540E+01  0.86475378540E+01  0.00000000000E+00 0.  1.
         25    2    1    2    0    0 -0.20362051513E+01  0.22616480306E+02  0.63525021415E+03  0.64783120691E+03  0.12500714678E+03 0.  0.
    9000005    1    3    3    0    0  0.32062820197E+02  0.57239853606E+02  0.21527815917E+03  0.22505579551E+03  0.10000000000E+01 0.  0.
    9000005    1    3    3    0    0 -0.34099025348E+02 -0.34623373300E+02  0.41997205499E+03  0.42277541139E+03  0.10000000000E+01 0.  0.
          4    1    1    2  501    0  0.20362051513E+01 -0.22616480306E+02  0.52492620781E+02  0.57207861779E+02  0.12700000000E+01 0. -1.
<mgrwt>
<rscale>  1 0.12705289E+03</rscale>
<asrwt>0</asrwt>
<pdfrwt beam="2">  1       21 0.13303910E-02 0.12705289E+03</pdfrwt>
<pdfrwt beam="1">  1        4 0.10714420E+00 0.12705289E+03</pdfrwt>
<totfact> 0.69014142E+04</totfact>
</mgrwt>
</event>
<event>
 6    4  0.7919556E-003  0.1446657E+03  0.7818608E-02  0.1207185E+00
         -4   -1    0    0    0  501 -0.00000000000E+00  0.00000000000E+00  0.42823627057E+03  0.42823815376E+03  0.12700000000E+01 0. -1.
         21   -1    0    0  501  502  0.00000000000E+00 -0.00000000000E+00 -0.36335045492E+02  0.36335045492E+02  0.00000000000E+00 0. -1.
         25    2    1    2    0    0  0.55109506125E+02  0.47593414045E+02  0.35411838507E+03  0.38252841499E+03  0.12500386754E+03 0.  0.
    9000005    1    3    3    0    0  0.30179270907E+02 -0.35682622592E+02  0.61368579738E+02  0.77143635685E+02  0.10000000000E+01 0.  0.
    9000005    1    3    3    0    0  0.24930235218E+02  0.83276036637E+02  0.29274980533E+03  0.30538477930E+03  0.10000000000E+01 0.  0.
         -4    1    1    2    0  502 -0.55109506125E+02 -0.47593414045E+02  0.37782840010E+02  0.82044784265E+02  0.12700000000E+01 0.  1.
<mgrwt>
<rscale>  1 0.14466568E+03</rscale>
<asrwt>0</asrwt>
<pdfrwt beam="2">  1       21 0.55900073E-02 0.14466568E+03</pdfrwt>
<pdfrwt beam="1">  1       -4 0.65884352E-01 0.14466568E+03</pdfrwt>
<totfact> 0.19804459E+04</totfact>
</mgrwt>
</event>
<event>
 6    4  0.7919556E-003  0.1269232E+03  0.7818608E-02  0.1232094E+00
          4   -1    0    0  502    0 -0.00000000000E+00  0.00000000000E+00  0.39871602188E+02  0.39891823235E+02  0.12700000000E+01 0.  1.
         21   -1    0    0  501  502  0.00000000000E+00 -0.00000000000E+00 -0.15632708989E+03  0.15632708989E+03  0.00000000000E+00 0. -1.
         25    2    1    2    0    0  0.21674202652E+01  0.21888121901E+02 -0.70340462050E+02  0.14511122210E+03  0.12500279432E+03 0.  0.
    9000005    1    3    3    0    0 -0.31980774317E+02 -0.38049841429E+02 -0.47892434065E+01  0.49944941797E+02  0.10000000000E+01 0.  0.
    9000005    1    3    3    0    0  0.34148194582E+02  0.59937963330E+02 -0.65551218644E+02  0.95166280305E+02  0.10000000000E+01 0.  0.
          4    1    1    2  501    0 -0.21674202652E+01 -0.21888121901E+02 -0.46115025652E+02  0.51107691024E+02  0.12700000000E+01 0. -1.
<mgrwt>
<rscale>  1 0.12692315E+03</rscale>
<asrwt>0</asrwt>
<pdfrwt beam="2">  1       21 0.24050322E-01 0.12692315E+03</pdfrwt>
<pdfrwt beam="1">  1        4 0.61360448E-02 0.12692315E+03</pdfrwt>
<totfact> 0.11167968E+05</totfact>
</mgrwt>
</event>
<event>
 6    4  0.7919556E-003  0.1278425E+03  0.7818608E-02  0.1230693E+00
         -4   -1    0    0    0  501 -0.00000000000E+00  0.00000000000E+00  0.96428134713E+01  0.97260861420E+01  0.12700000000E+01 0. -1.
         21   -1    0    0  501  502  0.00000000000E+00 -0.00000000000E+00 -0.61872038174E+03  0.61872038174E+03  0.00000000000E+00 0. -1.
         25    2    1    2    0    0 -0.26708775277E+02  0.23319666476E+01 -0.49298790656E+03  0.50929438355E+03  0.12499958542E+03 0.  0.
    9000005    1    3    3    0    0  0.29058688494E+02 -0.32292334864E+02 -0.79257199049E+02  0.90387531602E+02  0.10000000000E+01 0.  0.
    9000005    1    3    3    0    0 -0.55767463771E+02  0.34624301512E+02 -0.41373070751E+03  0.41890685195E+03  0.10000000000E+01 0.  0.
         -4    1    1    2    0  502  0.26708775277E+02 -0.23319666476E+01 -0.11608966171E+03  0.11915208434E+03  0.12700000000E+01 0.  1.
<mgrwt>
<rscale>  1 0.12784245E+03</rscale>
<asrwt>0</asrwt>
<pdfrwt beam="2">  1       21 0.95187764E-01 0.12784245E+03</pdfrwt>
<pdfrwt beam="1">  1       -4 0.14900154E-02 0.12784245E+03</pdfrwt>
<totfact> 0.60041936E+04</totfact>
</mgrwt>
</event>
<event>
 6    4  0.7919556E-003  0.1307192E+03  0.7818608E-02  0.1226392E+00
         21   -1    0    0  501  502  0.00000000000E+00  0.00000000000E+00  0.33336563907E+03  0.33336563907E+03  0.00000000000E+00 0. -1.
          4   -1    0    0  502    0 -0.00000000000E+00 -0.00000000000E+00 -0.23575655865E+02  0.23609837980E+02  0.12700000000E+01 0. -1.
         25    2    1    2    0    0  0.11161387699E+02  0.36599369672E+02  0.27805073401E+03  0.30724537274E+03  0.12499367163E+03 0.  0.
    9000005    1    3    3    0    0 -0.54646950894E+02  0.12733001668E+02  0.84648693125E+02  0.10156190143E+03  0.10000000000E+01 0.  0.
    9000005    1    3    3    0    0  0.65808338593E+02  0.23866368005E+02  0.19340204089E+03  0.20568347131E+03  0.10000000000E+01 0.  0.
          4    1    1    2  501    0 -0.11161387699E+02 -0.36599369672E+02  0.31739249189E+02  0.49730104312E+02  0.12700000000E+01 0.  1.
<mgrwt>
<rscale>  1 0.13071920E+03</rscale>
<asrwt>0</asrwt>
<pdfrwt beam="1">  1       21 0.51287018E-01 0.13071920E+03</pdfrwt>
<pdfrwt beam="2">  1        4 0.36298397E-02 0.13071920E+03</pdfrwt>
<totfact> 0.58481602E+04</totfact>
</mgrwt>
</event>
<event>
 6    4  0.7919556E-003  0.1277539E+03  0.7818608E-02  0.1230827E+00
         -4   -1    0    0    0  501 -0.00000000000E+00  0.00000000000E+00  0.51255005747E+02  0.51270737405E+02  0.12700000000E+01 0.  1.
         21   -1    0    0  501  502  0.00000000000E+00 -0.00000000000E+00 -0.13817055866E+03  0.13817055866E+03  0.00000000000E+00 0.  1.
         25    2    1    2    0    0  0.21677212022E+02  0.15032260636E+02 -0.37056763073E+02  0.13301982670E+03  0.12500080090E+03 0.  0.
    9000005    1    3    3    0    0 -0.56478802164E+01  0.54020559330E+02 -0.59333418194E+02  0.80446093105E+02  0.10000000000E+01 0.  0.
    9000005    1    3    3    0    0  0.27325092238E+02 -0.38988298694E+02  0.22276655121E+02  0.52573733596E+02  0.10000000000E+01 0.  0.
         -4    1    1    2    0  502 -0.21677212022E+02 -0.15032260636E+02 -0.49858789835E+02  0.56421469360E+02  0.12700000000E+01 0. -1.
<mgrwt>
<rscale>  1 0.12775395E+03</rscale>
<asrwt>0</asrwt>
<pdfrwt beam="2">  1       21 0.21257009E-01 0.12775395E+03</pdfrwt>
<pdfrwt beam="1">  1       -4 0.78870446E-02 0.12775395E+03</pdfrwt>
<totfact> 0.93317148E+04</totfact>
</mgrwt>
</event>
<event>
 6    4  0.7919556E-003  0.1282328E+03  0.7818608E-02  0.1230102E+00
         -4   -1    0    0    0  501 -0.00000000000E+00  0.00000000000E+00  0.92120908436E+02  0.92129662276E+02  0.12700000000E+01 0.  1.
         21   -1    0    0  501  502  0.00000000000E+00 -0.00000000000E+00 -0.66985022736E+02  0.66985022736E+02  0.00000000000E+00 0.  1.
         25    2    1    2    0    0 -0.79027558859E+01 -0.27514868975E+02  0.17203690746E+02  0.12938163636E+03  0.12499647710E+03 0.  0.
    9000005    1    3    3    0    0  0.38961805812E+02 -0.11998635772E+02 -0.37703233214E+02  0.55538485462E+02  0.10000000000E+01 0.  0.
    9000005    1    3    3    0    0 -0.46864561698E+02 -0.15516233203E+02  0.54906923960E+02  0.73843150899E+02  0.10000000000E+01 0.  0.
         -4    1    1    2    0  502  0.79027558859E+01  0.27514868975E+02  0.79321949549E+01  0.29733048651E+02  0.12700000000E+01 0. -1.
<mgrwt>
<rscale>  1 0.12823276E+03</rscale>
<asrwt>0</asrwt>
<pdfrwt beam="2">  1       21 0.10305388E-01 0.12823276E+03</pdfrwt>
<pdfrwt beam="1">  1       -4 0.14174047E-01 0.12823276E+03</pdfrwt>
<totfact> 0.12771197E+05</totfact>
</mgrwt>
</event>
<event>
 6    4  0.7919556E-003  0.1466730E+03  0.7818608E-02  0.1204622E+00
          4   -1    0    0  502    0 -0.00000000000E+00  0.00000000000E+00  0.11062989837E+03  0.11063718776E+03  0.12700000000E+01 0. -1.
         21   -1    0    0  501  502  0.00000000000E+00 -0.00000000000E+00 -0.12838203795E+03  0.12838203795E+03  0.00000000000E+00 0.  1.
         25    2    1    2    0    0  0.76575013655E+02  0.49270677918E+01  0.28498449213E+02  0.14941599710E+03  0.12499987947E+03 0.  0.
    9000005    1    3    3    0    0  0.12995782542E+02 -0.27903428407E+01 -0.47899059827E+02  0.49719174464E+02  0.10000000000E+01 0.  0.
    9000005    1    3    3    0    0  0.63579231113E+02  0.77174106325E+01  0.76397509041E+02  0.99696822634E+02  0.10000000000E+01 0.  0.
          4    1    1    2  501    0 -0.76575013655E+02 -0.49270677918E+01 -0.46250588786E+02  0.89603228604E+02  0.12700000000E+01 0.  1.
<mgrwt>
<rscale>  1 0.14667303E+03</rscale>
<asrwt>0</asrwt>
<pdfrwt beam="2">  1       21 0.19751083E-01 0.14667303E+03</pdfrwt>
<pdfrwt beam="1">  1        4 0.17021028E-01 0.14667303E+03</pdfrwt>
<totfact> 0.29218274E+04</totfact>
</mgrwt>
</event>
<event>
 6    4  0.7919556E-003  0.1388958E+03  0.7818608E-02  0.1214823E+00
          4   -1    0    0  502    0 -0.00000000000E+00  0.00000000000E+00  0.29765384947E+03  0.29765655881E+03  0.12700000000E+01 0.  1.
         21   -1    0    0  501  502  0.00000000000E+00 -0.00000000000E+00 -0.35576950943E+02  0.35576950943E+02  0.00000000000E+00 0.  1.
         25    2    1    2    0    0 -0.27825626169E+02 -0.53785096480E+02  0.21734726393E+03  0.25793772510E+03  0.12499973927E+03 0.  0.
    9000005    1    3    3    0    0 -0.17111864207E+02 -0.94158330524E+02  0.13355980583E+03  0.16431016048E+03  0.10000000000E+01 0.  0.
    9000005    1    3    3    0    0 -0.10713761962E+02  0.40373234044E+02  0.83787458092E+02  0.93627564617E+02  0.10000000000E+01 0.  0.
          4    1    1    2  501    0  0.27825626169E+02  0.53785096480E+02  0.44729634595E+02  0.75295784651E+02  0.12700000000E+01 0. -1.
<mgrwt>
<rscale>  1 0.13889578E+03</rscale>
<asrwt>0</asrwt>
<pdfrwt beam="2">  1       21 0.54733773E-02 0.13889578E+03</pdfrwt>
<pdfrwt beam="1">  1        4 0.45794850E-01 0.13889578E+03</pdfrwt>
<totfact> 0.43404448E+04</totfact>
</mgrwt>
</event>
<event>
 6    4  0.7919556E-003  0.1305320E+03  0.7818608E-02  0.1226668E+00
          4   -1    0    0  502    0 -0.00000000000E+00  0.00000000000E+00  0.60915917176E+02  0.60929154478E+02  0.12700000000E+01 0. -1.
         21   -1    0    0  501  502  0.00000000000E+00 -0.00000000000E+00 -0.22755498995E+03  0.22755498995E+03  0.00000000000E+00 0.  1.
         25    2    1    2    0    0 -0.22519285677E+02 -0.30109819282E+02 -0.14003971206E+02  0.13128107011E+03  0.12499955486E+03 0.  0.
    9000005    1    3    3    0    0  0.30923176241E+01  0.24053765155E+02  0.42485338086E+02  0.48930052102E+02  0.10000000000E+01 0.  0.
    9000005    1    3    3    0    0 -0.25611603302E+02 -0.54163584437E+02 -0.56489309292E+02  0.82351018008E+02  0.10000000000E+01 0.  0.
          4    1    1    2  501    0  0.22519285677E+02  0.30109819282E+02 -0.15263510157E+03  0.15720307432E+03  0.12700000000E+01 0.  1.
<mgrwt>
<rscale>  1 0.13053202E+03</rscale>
<asrwt>0</asrwt>
<pdfrwt beam="2">  1       21 0.35008461E-01 0.13053202E+03</pdfrwt>
<pdfrwt beam="1">  1        4 0.93729703E-02 0.13053202E+03</pdfrwt>
<totfact> 0.27079977E+04</totfact>
</mgrwt>
</event>
<event>
 6    4  0.7919556E-003  0.1268937E+03  0.7818608E-02  0.1232139E+00
         21   -1    0    0  501  502  0.00000000000E+00  0.00000000000E+00  0.57449870701E+01  0.57449870701E+01  0.00000000000E+00 0.  1.
         -4   -1    0    0    0  501 -0.00000000000E+00 -0.00000000000E+00 -0.10149348951E+04  0.10149356897E+04  0.12700000000E+01 0.  1.
         25    2    1    2    0    0 -0.14048967751E+02 -0.16736782943E+02 -0.92622797160E+03  0.93487980732E+03  0.12499802148E+03 0.  0.
    9000005    1    3    3    0    0 -0.31872733056E+02 -0.21129203452E+02 -0.82344383357E+02  0.90795990117E+02  0.10000000000E+01 0.  0.
    9000005    1    3    3    0    0  0.17823765305E+02  0.43924205085E+01 -0.84388358824E+03  0.84408381721E+03  0.10000000000E+01 0.  0.
         -4    1    1    2    0  502  0.14048967751E+02  0.16736782943E+02 -0.82961936423E+02  0.85800869420E+02  0.12700000000E+01 0. -1.
<mgrwt>
<rscale>  1 0.12689365E+03</rscale>
<asrwt>0</asrwt>
<pdfrwt beam="1">  1       21 0.88384508E-03 0.12689365E+03</pdfrwt>
<pdfrwt beam="2">  1       -4 0.15615453E+00 0.12689365E+03</pdfrwt>
<totfact> 0.52385026E+04</totfact>
</mgrwt>
</event>
<event>
 6    4  0.7919556E-003  0.1414944E+03  0.7818608E-02  0.1211332E+00
         21   -1    0    0  501  502  0.00000000000E+00  0.00000000000E+00  0.47642608153E+03  0.47642608153E+03  0.00000000000E+00 0.  1.
          4   -1    0    0  502    0 -0.00000000000E+00 -0.00000000000E+00 -0.42887995670E+02  0.42906795179E+02  0.12700000000E+01 0. -1.
         25    2    1    2    0    0 -0.55659071688E+02 -0.35991873072E+02  0.86111361368E+02  0.16563768452E+03  0.12500931480E+03 0.  0.
    9000005    1    3    3    0    0 -0.19312196298E+02 -0.11324153663E+02 -0.32313866713E+02  0.39324081222E+02  0.10000000000E+01 0.  0.
    9000005    1    3    3    0    0 -0.36346875390E+02 -0.24667719409E+02  0.11842522808E+03  0.12631360330E+03  0.10000000000E+01 0.  0.
          4    1    1    2  501    0  0.55659071688E+02  0.35991873072E+02  0.34742672450E+03  0.35369519220E+03  0.12700000000E+01 0.  1.
<mgrwt>
<rscale>  1 0.14149444E+03</rscale>
<asrwt>0</asrwt>
<pdfrwt beam="1">  1       21 0.73296317E-01 0.14149444E+03</pdfrwt>
<pdfrwt beam="2">  1        4 0.65997298E-02 0.14149444E+03</pdfrwt>
<totfact> 0.10514387E+04</totfact>
</mgrwt>
</event>
<event>
 6    4  0.7919556E-003  0.1283077E+03  0.7818608E-02  0.1229989E+00
         21   -1    0    0  501  502  0.00000000000E+00  0.00000000000E+00  0.97499542249E+03  0.97499542249E+03  0.00000000000E+00 0.  1.
         -4   -1    0    0    0  501 -0.00000000000E+00 -0.00000000000E+00 -0.14770079787E+02  0.14824579486E+02  0.12700000000E+01 0. -1.
         25    2    1    2    0    0 -0.24655588020E+02 -0.15106957698E+02  0.26946039085E+03  0.29844893678E+03  0.12500698954E+03 0.  0.
    9000005    1    3    3    0    0 -0.19032015568E+02  0.31869266809E+02  0.15703171212E+02  0.40316961314E+02  0.10000000000E+01 0.  0.
    9000005    1    3    3    0    0 -0.56235724518E+01 -0.46976224506E+02  0.25375721964E+03  0.25813197546E+03  0.10000000000E+01 0.  0.
         -4    1    1    2    0  502  0.24655588020E+02  0.15106957698E+02  0.69076495185E+03  0.69137106520E+03  0.12700000000E+01 0.  1.
<mgrwt>
<rscale>  1 0.12830770E+03</rscale>
<asrwt>0</asrwt>
<pdfrwt beam="1">  1       21 0.14999925E+00 0.12830770E+03</pdfrwt>
<pdfrwt beam="2">  1       -4 0.22765766E-02 0.12830770E+03</pdfrwt>
<totfact> 0.10325410E+04</totfact>
</mgrwt>
</event>
<event>
 6    4  0.7919556E-003  0.1299894E+03  0.7818608E-02  0.1227471E+00
         -4   -1    0    0    0  501 -0.00000000000E+00  0.00000000000E+00  0.50731373935E+02  0.50747267920E+02  0.12700000000E+01 0.  1.
         21   -1    0    0  501  502  0.00000000000E+00 -0.00000000000E+00 -0.21070697095E+03  0.21070697095E+03  0.00000000000E+00 0.  1.
         25    2    1    2    0    0  0.34751193048E+02 -0.80492596026E+01 -0.39584041409E+02  0.13588284261E+03  0.12499925833E+03 0.  0.
    9000005    1    3    3    0    0 -0.20676431012E+02  0.84970139638E+01 -0.67885303604E+02  0.71478167933E+02  0.10000000000E+01 0.  0.
    9000005    1    3    3    0    0  0.55427624061E+02 -0.16546273566E+02  0.28301262195E+02  0.64404674673E+02  0.10000000000E+01 0.  0.
         -4    1    1    2    0  502 -0.34751193048E+02  0.80492596026E+01 -0.12039155561E+03  0.12557139626E+03  0.12700000000E+01 0. -1.
<mgrwt>
<rscale>  1 0.12998942E+03</rscale>
<asrwt>0</asrwt>
<pdfrwt beam="2">  1       21 0.32416458E-01 0.12998942E+03</pdfrwt>
<pdfrwt beam="1">  1       -4 0.78063436E-02 0.12998942E+03</pdfrwt>
<totfact> 0.42649479E+04</totfact>
</mgrwt>
</event>
<event>
 6    4  0.7919556E-003  0.1274207E+03  0.7818608E-02  0.1231334E+00
         21   -1    0    0  501  502  0.00000000000E+00  0.00000000000E+00  0.97145051970E+01  0.97145051970E+01  0.00000000000E+00 0.  1.
          4   -1    0    0  502    0 -0.00000000000E+00 -0.00000000000E+00 -0.76850040061E+03  0.76850144999E+03  0.12700000000E+01 0.  1.
         25    2    1    2    0    0 -0.20285953725E+02 -0.14024386311E+02 -0.72639084008E+03  0.73748199098E+03  0.12501132404E+03 0.  0.
    9000005    1    3    3    0    0 -0.11701249423E+02 -0.35001908689E+02 -0.58305254725E+02  0.69011271388E+02  0.10000000000E+01 0.  0.
    9000005    1    3    3    0    0 -0.85847043028E+01  0.20977522378E+02 -0.66808558536E+03  0.66847071959E+03  0.10000000000E+01 0.  0.
          4    1    1    2  501    0  0.20285953725E+02  0.14024386311E+02 -0.32395055326E+02  0.40733964201E+02  0.12700000000E+01 0. -1.
<mgrwt>
<rscale>  1 0.12742070E+03</rscale>
<asrwt>0</asrwt>
<pdfrwt beam="1">  1       21 0.14945394E-02 0.12742070E+03</pdfrwt>
<pdfrwt beam="2">  1        4 0.11823729E+00 0.12742070E+03</pdfrwt>
<totfact> 0.45457671E+04</totfact>
</mgrwt>
</event>
<event>
 6    4  0.7919556E-003  0.1332766E+03  0.7818608E-02  0.1222673E+00
         -4   -1    0    0    0  501 -0.00000000000E+00  0.00000000000E+00  0.21637518153E+02  0.21674757019E+02  0.12700000000E+01 0.  1.
         21   -1    0    0  501  502  0.00000000000E+00 -0.00000000000E+00 -0.41763237651E+03  0.41763237651E+03  0.00000000000E+00 0.  1.
         25    2    1    2    0    0  0.16677140850E+02 -0.43175467495E+02 -0.21908854104E+03  0.25644186611E+03  0.12498157408E+03 0.  0.
    9000005    1    3    3    0    0  0.33340350893E+02  0.11758336697E+02 -0.18770950251E+03  0.19101228969E+03  0.10000000000E+01 0.  0.
    9000005    1    3    3    0    0 -0.16663210043E+02 -0.54933804191E+02 -0.31379038527E+02  0.65429576421E+02  0.10000000000E+01 0.  0.
         -4    1    1    2    0  502 -0.16677140850E+02  0.43175467495E+02 -0.17690631731E+03  0.18286526741E+03  0.12700000000E+01 0. -1.
<mgrwt>
<rscale>  1 0.13327656E+03</rscale>
<asrwt>0</asrwt>
<pdfrwt beam="2">  1       21 0.64251139E-01 0.13327656E+03</pdfrwt>
<pdfrwt beam="1">  1       -4 0.33318618E-02 0.13327656E+03</pdfrwt>
<totfact> 0.41692282E+04</totfact>
</mgrwt>
</event>
<event>
 6    4  0.7919556E-003  0.1267641E+03  0.7818608E-02  0.1232338E+00
         -4   -1    0    0    0  501 -0.00000000000E+00  0.00000000000E+00  0.17323786593E+04  0.17323791248E+04  0.12700000000E+01 0.  1.
         21   -1    0    0  501  502  0.00000000000E+00 -0.00000000000E+00 -0.45534140376E+01  0.45534140376E+01  0.00000000000E+00 0.  1.
         25    2    1    2    0    0  0.14059624300E+02 -0.15700255085E+02  0.16784804399E+04  0.16832604441E+04  0.12499985721E+03 0.  0.
    9000005    1    3    3    0    0 -0.52197148131E+01 -0.14177940979E+02  0.22229423847E+02  0.26896221253E+02  0.10000000000E+01 0.  0.
    9000005    1    3    3    0    0  0.19279339113E+02 -0.15223141063E+01  0.16562510161E+04  0.16563642228E+04  0.10000000000E+01 0.  0.
         -4    1    1    2    0  502 -0.14059624300E+02  0.15700255085E+02  0.49344805352E+02  0.53672094801E+02  0.12700000000E+01 0. -1.
<mgrwt>
<rscale>  1 0.12676409E+03</rscale>
<asrwt>0</asrwt>
<pdfrwt beam="2">  1       21 0.70052662E-03 0.12676409E+03</pdfrwt>
<pdfrwt beam="1">  1       -4 0.26653293E+00 0.12676409E+03</pdfrwt>
<totfact> 0.15688146E+04</totfact>
</mgrwt>
</event>
<event>
 6    4  0.7919556E-003  0.1291733E+03  0.7818608E-02  0.1228688E+00
          4   -1    0    0  502    0 -0.00000000000E+00  0.00000000000E+00  0.20599255750E+02  0.20638368091E+02  0.12700000000E+01 0. -1.
         21   -1    0    0  501  502  0.00000000000E+00 -0.00000000000E+00 -0.57853143868E+03  0.57853143868E+03  0.00000000000E+00 0. -1.
         25    2    1    2    0    0 -0.31180642913E+02 -0.94249036035E+01 -0.18973502724E+03  0.22953239029E+03  0.12499870532E+03 0.  0.
    9000005    1    3    3    0    0 -0.21277366229E+02  0.45160694888E+02 -0.25274983260E+02  0.55964626821E+02  0.10000000000E+01 0.  0.
    9000005    1    3    3    0    0 -0.99032766841E+01 -0.54585598492E+02 -0.16446004398E+03  0.17356776347E+03  0.10000000000E+01 0.  0.
          4    1    1    2  501    0  0.31180642913E+02  0.94249036035E+01 -0.36819715570E+03  0.36963741648E+03  0.12700000000E+01 0.  1.
<mgrwt>
<rscale>  1 0.12917329E+03</rscale>
<asrwt>0</asrwt>
<pdfrwt beam="2">  1       21 0.89004833E-01 0.12917329E+03</pdfrwt>
<pdfrwt beam="1">  1        4 0.31722323E-02 0.12917329E+03</pdfrwt>
<totfact> 0.21830149E+04</totfact>
</mgrwt>
</event>
<event>
 6    4  0.7919556E-003  0.1317533E+03  0.7818608E-02  0.1224877E+00
         21   -1    0    0  501  502  0.00000000000E+00  0.00000000000E+00  0.15755373194E+02  0.15755373194E+02  0.00000000000E+00 0.  1.
         -4   -1    0    0    0  501 -0.00000000000E+00 -0.00000000000E+00 -0.49100678205E+03  0.49100842449E+03  0.12700000000E+01 0. -1.
         25    2    1    2    0    0 -0.35988377663E+02 -0.20951087484E+02 -0.39414191775E+03  0.41558006097E+03  0.12499929741E+03 0.  0.
    9000005    1    3    3    0    0 -0.17121536029E+02  0.50049941393E+02 -0.22558882648E+03  0.23170986656E+03  0.10000000000E+01 0.  0.
    9000005    1    3    3    0    0 -0.18866841634E+02 -0.71001028877E+02 -0.16855309127E+03  0.18387019441E+03  0.10000000000E+01 0.  0.
         -4    1    1    2    0  502  0.35988377663E+02  0.20951087484E+02 -0.81109491107E+02  0.91183736715E+02  0.12700000000E+01 0.  1.
<mgrwt>
<rscale>  1 0.13175331E+03</rscale>
<asrwt>0</asrwt>
<pdfrwt beam="1">  1       21 0.24239037E-02 0.13175331E+03</pdfrwt>
<pdfrwt beam="2">  1       -4 0.75543564E-01 0.13175331E+03</pdfrwt>
<totfact> 0.58267713E+04</totfact>
</mgrwt>
</event>
<event>
 6    4  0.7919556E-003  0.1295970E+03  0.7818608E-02  0.1228055E+00
         -4   -1    0    0    0  501 -0.00000000000E+00  0.00000000000E+00  0.38137733552E+02  0.38158873417E+02  0.12700000000E+01 0.  1.
         21   -1    0    0  501  502  0.00000000000E+00 -0.00000000000E+00 -0.27000808109E+03  0.27000808109E+03  0.00000000000E+00 0.  1.
         25    2    1    2    0    0 -0.32270071827E+02  0.11324139034E+02 -0.79583133987E+02  0.15208171507E+03  0.12500311669E+03 0.  0.
    9000005    1    3    3    0    0 -0.43307610449E+02  0.62429679566E+02 -0.57621776983E+02  0.95363951240E+02  0.10000000000E+01 0.  0.
    9000005    1    3    3    0    0  0.11037538622E+02 -0.51105540532E+02 -0.21961357004E+02  0.56717763826E+02  0.10000000000E+01 0.  0.
         -4    1    1    2    0  502  0.32270071827E+02 -0.11324139034E+02 -0.15228721355E+03  0.15608523944E+03  0.12700000000E+01 0. -1.
<mgrwt>
<rscale>  1 0.12959696E+03</rscale>
<asrwt>0</asrwt>
<pdfrwt beam="2">  1       21 0.41539705E-01 0.12959696E+03</pdfrwt>
<pdfrwt beam="1">  1       -4 0.58691995E-02 0.12959696E+03</pdfrwt>
<totfact> 0.41644883E+04</totfact>
</mgrwt>
</event>
<event>
 6    4  0.7919556E-003  0.1275562E+03  0.7818608E-02  0.1231128E+00
         -4   -1    0    0    0  501 -0.00000000000E+00  0.00000000000E+00  0.42250729927E+02  0.42269812862E+02  0.12700000000E+01 0.  1.
         21   -1    0    0  501  502  0.00000000000E+00 -0.00000000000E+00 -0.14083572485E+03  0.14083572485E+03  0.00000000000E+00 0.  1.
         25    2    1    2    0    0 -0.23327020509E+02 -0.10061670217E+02 -0.90556779933E+02  0.15643247584E+03  0.12500080805E+03 0.  0.
    9000005    1    3    3    0    0  0.45186451363E+02 -0.31648357275E+02 -0.46510489505E+02  0.72164115314E+02  0.10000000000E+01 0.  0.
    9000005    1    3    3    0    0 -0.68513471872E+02  0.21586687058E+02 -0.44046290428E+02  0.84268360531E+02  0.10000000000E+01 0.  0.
         -4    1    1    2    0  502  0.23327020509E+02  0.10061670217E+02 -0.80282149892E+01  0.26673061866E+02  0.12700000000E+01 0. -1.
<mgrwt>
<rscale>  1 0.12755622E+03</rscale>
<asrwt>0</asrwt>
<pdfrwt beam="2">  1       21 0.21667034E-01 0.12755622E+03</pdfrwt>
<pdfrwt beam="1">  1       -4 0.65020208E-02 0.12755622E+03</pdfrwt>
<totfact> 0.12363416E+05</totfact>
</mgrwt>
</event>
<event>
 6    4  0.7919556E-003  0.1293898E+03  0.7818608E-02  0.1228364E+00
         -4   -1    0    0    0  501 -0.00000000000E+00  0.00000000000E+00  0.13350806201E+03  0.13351410233E+03  0.12700000000E+01 0.  1.
         21   -1    0    0  501  502  0.00000000000E+00 -0.00000000000E+00 -0.50039522180E+02  0.50039522180E+02  0.00000000000E+00 0.  1.
         25    2    1    2    0    0 -0.26117475884E+02 -0.20853038769E+02  0.59549699006E+02  0.14243555526E+03  0.12499899591E+03 0.  0.
    9000005    1    3    3    0    0  0.54940434387E+01 -0.23581729866E+02  0.93126518662E+02  0.96228015541E+02  0.10000000000E+01 0.  0.
    9000005    1    3    3    0    0 -0.31611519323E+02  0.27286910969E+01 -0.33576819657E+02  0.46207539723E+02  0.10000000000E+01 0.  0.
         -4    1    1    2    0  502  0.26117475884E+02  0.20853038769E+02  0.23918840825E+02  0.41118069250E+02  0.12700000000E+01 0. -1.
<mgrwt>
<rscale>  1 0.12938980E+03</rscale>
<asrwt>0</asrwt>
<pdfrwt beam="2">  1       21 0.76983882E-02 0.12938980E+03</pdfrwt>
<pdfrwt beam="1">  1       -4 0.20541406E-01 0.12938980E+03</pdfrwt>
<totfact> 0.11013854E+05</totfact>
</mgrwt>
</event>
<event>
 6    4  0.7919556E-003  0.1284386E+03  0.7818608E-02  0.1229791E+00
         -4   -1    0    0    0  501 -0.00000000000E+00  0.00000000000E+00  0.18385140920E+03  0.18385579557E+03  0.12700000000E+01 0.  1.
         21   -1    0    0  501  502  0.00000000000E+00 -0.00000000000E+00 -0.36992022145E+02  0.36992022145E+02  0.00000000000E+00 0.  1.
         25    2    1    2    0    0 -0.29503899541E+02 -0.15208741217E+00  0.14102153885E+03  0.19074471836E+03  0.12500387973E+03 0.  0.
    9000005    1    3    3    0    0  0.41856359867E+02 -0.12335834442E+02  0.96082237974E+02  0.10553162619E+03  0.10000000000E+01 0.  0.
    9000005    1    3    3    0    0 -0.71360259408E+02  0.12183747030E+02  0.44939300872E+02  0.85213092171E+02  0.10000000000E+01 0.  0.
         -4    1    1    2    0  502  0.29503899541E+02  0.15208741217E+00  0.58378482057E+01  0.30103099348E+02  0.12700000000E+01 0. -1.
<mgrwt>
<rscale>  1 0.12843860E+03</rscale>
<asrwt>0</asrwt>
<pdfrwt beam="2">  1       21 0.56910805E-02 0.12843860E+03</pdfrwt>
<pdfrwt beam="1">  1       -4 0.28286846E-01 0.12843860E+03</pdfrwt>
<totfact> 0.10232799E+05</totfact>
</mgrwt>
</event>
<event>
 6    4  0.7919556E-003  0.1274587E+03  0.7818608E-02  0.1231276E+00
         -4   -1    0    0    0  501 -0.00000000000E+00  0.00000000000E+00  0.80573771433E+01  0.81568515022E+01  0.12700000000E+01 0.  1.
         21   -1    0    0  501  502  0.00000000000E+00 -0.00000000000E+00 -0.15909369343E+04  0.15909369343E+04  0.00000000000E+00 0. -1.
         25    2    1    2    0    0 -0.14940674359E+02 -0.19986590414E+02 -0.50209229929E+03  0.51801774906E+03  0.12499209491E+03 0.  0.
    9000005    1    3    3    0    0  0.10053323762E+02  0.42528856769E+02 -0.33544715018E+03  0.33828325932E+03  0.10000000000E+01 0.  0.
    9000005    1    3    3    0    0 -0.24993998121E+02 -0.62515447183E+02 -0.16664514911E+03  0.17973448973E+03  0.10000000000E+01 0.  0.
         -4    1    1    2    0  502  0.14940674359E+02  0.19986590414E+02 -0.10807872578E+04  0.10810760367E+04  0.12700000000E+01 0. -1.
<mgrwt>
<rscale>  1 0.12745867E+03</rscale>
<asrwt>0</asrwt>
<pdfrwt beam="2">  1       21 0.24475940E+00 0.12745867E+03</pdfrwt>
<pdfrwt beam="1">  1       -4 0.12472880E-02 0.12745867E+03</pdfrwt>
<totfact> 0.63743739E+03</totfact>
</mgrwt>
</event>
<event>
 6    4  0.7919556E-003  0.1281472E+03  0.7818608E-02  0.1230231E+00
         21   -1    0    0  501  502  0.00000000000E+00  0.00000000000E+00  0.38106874830E+03  0.38106874830E+03  0.00000000000E+00 0.  1.
         -4   -1    0    0    0  501 -0.00000000000E+00 -0.00000000000E+00 -0.18129240228E+02  0.18173669174E+02  0.12700000000E+01 0.  1.
         25    2    1    2    0    0 -0.40519337268E+01 -0.27928974813E+02  0.22957723208E+03  0.26292090281E+03  0.12500099938E+03 0.  0.
    9000005    1    3    3    0    0  0.27569409466E+01  0.68536384522E+01  0.22726657187E+03  0.22738880309E+03  0.10000000000E+01 0.  0.
    9000005    1    3    3    0    0 -0.68088746734E+01 -0.34782613265E+02  0.23106602088E+01  0.35532099719E+02  0.10000000000E+01 0.  0.
         -4    1    1    2    0  502  0.40519337268E+01  0.27928974813E+02  0.13336227599E+03  0.13632151466E+03  0.12700000000E+01 0. -1.
<mgrwt>
<rscale>  1 0.12814716E+03</rscale>
<asrwt>0</asrwt>
<pdfrwt beam="1">  1       21 0.58625955E-01 0.12814716E+03</pdfrwt>
<pdfrwt beam="2">  1       -4 0.27926946E-02 0.12814716E+03</pdfrwt>
<totfact> 0.66554048E+04</totfact>
</mgrwt>
</event>
<event>
 6    4  0.7919556E-003  0.1293139E+03  0.7818608E-02  0.1228477E+00
          4   -1    0    0  502    0 -0.00000000000E+00  0.00000000000E+00  0.13723308669E+02  0.13781948368E+02  0.12700000000E+01 0.  1.
         21   -1    0    0  501  502  0.00000000000E+00 -0.00000000000E+00 -0.51071920283E+03  0.51071920283E+03  0.00000000000E+00 0.  1.
         25    2    1    2    0    0 -0.98619784680E+01  0.31619028022E+02 -0.33379010464E+03  0.35796357530E+03  0.12500026294E+03 0.  0.
    9000005    1    3    3    0    0 -0.33639751315E+02 -0.30932924782E+02 -0.22977299021E+03  0.23427570453E+03  0.10000000000E+01 0.  0.
    9000005    1    3    3    0    0  0.23777772847E+02  0.62551952803E+02 -0.10401711443E+03  0.12368787077E+03  0.10000000000E+01 0.  0.
          4    1    1    2  501    0  0.98619784680E+01 -0.31619028022E+02 -0.16320578953E+03  0.16653757590E+03  0.12700000000E+01 0. -1.
<mgrwt>
<rscale>  1 0.12931391E+03</rscale>
<asrwt>0</asrwt>
<pdfrwt beam="2">  1       21 0.78572179E-01 0.12931391E+03</pdfrwt>
<pdfrwt beam="1">  1        4 0.21159106E-02 0.12931391E+03</pdfrwt>
<totfact> 0.54277215E+04</totfact>
</mgrwt>
</event>
<event>
 6    4  0.7919556E-003  0.1351446E+03  0.7818608E-02  0.1220016E+00
         21   -1    0    0  501  502  0.00000000000E+00  0.00000000000E+00  0.67117332335E+02  0.67117332335E+02  0.00000000000E+00 0.  1.
         -4   -1    0    0    0  501 -0.00000000000E+00 -0.00000000000E+00 -0.21530154416E+03  0.21530528981E+03  0.12700000000E+01 0. -1.
         25    2    1    2    0    0  0.43959553439E+02 -0.26583503853E+02 -0.17762996678E+03  0.22319602001E+03  0.12499973294E+03 0.  0.
    9000005    1    3    3    0    0  0.83371613941E+02  0.64636680080E+01 -0.11352585104E+03  0.14100256689E+03  0.10000000000E+01 0.  0.
    9000005    1    3    3    0    0 -0.39412060502E+02 -0.33047171861E+02 -0.64104115741E+02  0.82193453122E+02  0.10000000000E+01 0.  0.
         -4    1    1    2    0  502 -0.43959553439E+02  0.26583503853E+02  0.29445754949E+02  0.59226602133E+02  0.12700000000E+01 0.  1.
<mgrwt>
<rscale>  1 0.13514458E+03</rscale>
<asrwt>0</asrwt>
<pdfrwt beam="1">  1       21 0.10325744E-01 0.13514458E+03</pdfrwt>
<pdfrwt beam="2">  1       -4 0.33124526E-01 0.13514458E+03</pdfrwt>
<totfact> 0.27389497E+04</totfact>
</mgrwt>
</event>
<event>
 6    4  0.7919556E-003  0.1268508E+03  0.7818608E-02  0.1232205E+00
          4   -1    0    0  502    0 -0.00000000000E+00  0.00000000000E+00  0.11863437564E+03  0.11864117322E+03  0.12700000000E+01 0.  1.
         21   -1    0    0  501  502  0.00000000000E+00 -0.00000000000E+00 -0.47786021693E+02  0.47786021693E+02  0.00000000000E+00 0. -1.
         25    2    1    2    0    0  0.21596382072E+02  0.60022950762E+00  0.69737875663E+02  0.14475670678E+03  0.12499747542E+03 0.  0.
    9000005    1    3    3    0    0 -0.31319713624E+02 -0.29172757162E+02  0.72246957685E+02  0.83979742299E+02  0.10000000000E+01 0.  0.
    9000005    1    3    3    0    0  0.52916095697E+02  0.29772986669E+02 -0.25090820211E+01  0.60776964481E+02  0.10000000000E+01 0.  0.
          4    1    1    2  501    0 -0.21596382072E+02 -0.60022950762E+00  0.11104782853E+01  0.21670488137E+02  0.12700000000E+01 0. -1.
<mgrwt>
<rscale>  1 0.12685083E+03</rscale>
<asrwt>0</asrwt>
<pdfrwt beam="2">  1       21 0.73516957E-02 0.12685083E+03</pdfrwt>
<pdfrwt beam="1">  1        4 0.18253263E-01 0.12685083E+03</pdfrwt>
<totfact> 0.14684065E+05</totfact>
</mgrwt>
</event>
<event>
 6    4  0.7919556E-003  0.1333837E+03  0.7818608E-02  0.1222520E+00
         21   -1    0    0  501  502  0.00000000000E+00  0.00000000000E+00  0.29937428674E+03  0.29937428674E+03  0.00000000000E+00 0.  1.
          4   -1    0    0  502    0 -0.00000000000E+00 -0.00000000000E+00 -0.37322964244E+02  0.37344565333E+02  0.12700000000E+01 0. -1.
         25    2    1    2    0    0 -0.16762719822E+02 -0.43421257560E+02  0.96200334038E+02  0.16445580422E+03  0.12499925155E+03 0.  0.
    9000005    1    3    3    0    0  0.36684901682E+02 -0.38952936889E+02  0.97025105099E+02  0.11080606627E+03  0.10000000000E+01 0.  0.
    9000005    1    3    3    0    0 -0.53447621504E+02 -0.44683206710E+01 -0.82477106111E+00  0.53649737943E+02  0.10000000000E+01 0.  0.
          4    1    1    2  501    0  0.16762719822E+02  0.43421257560E+02  0.16585098846E+03  0.17226304786E+03  0.12700000000E+01 0.  1.
<mgrwt>
<rscale>  1 0.13338368E+03</rscale>
<asrwt>0</asrwt>
<pdfrwt beam="1">  1       21 0.46057581E-01 0.13338368E+03</pdfrwt>
<pdfrwt beam="2">  1        4 0.57438635E-02 0.13338368E+03</pdfrwt>
<totfact> 0.35097468E+04</totfact>
</mgrwt>
</event>
<event>
 6    4  0.7919556E-003  0.1268402E+03  0.7818608E-02  0.1232221E+00
          4   -1    0    0  502    0 -0.00000000000E+00  0.00000000000E+00  0.27357246397E+03  0.27357541181E+03  0.12700000000E+01 0. -1.
         21   -1    0    0  501  502  0.00000000000E+00 -0.00000000000E+00 -0.23036035029E+03  0.23036035029E+03  0.00000000000E+00 0.  1.
         25    2    1    2    0    0 -0.96403946771E+01 -0.19249599570E+02  0.25830357129E+03  0.28776584669E+03  0.12499985315E+03 0.  0.
    9000005    1    3    3    0    0 -0.25024314990E+02  0.49815984708E+02  0.10379864190E+03  0.11782617168E+03  0.10000000000E+01 0.  0.
    9000005    1    3    3    0    0  0.15383920313E+02 -0.69065584278E+02  0.15450492939E+03  0.16993967500E+03  0.10000000000E+01 0.  0.
          4    1    1    2  501    0  0.96403946771E+01  0.19249599570E+02 -0.21509145760E+03  0.21616991541E+03  0.12700000000E+01 0.  1.
<mgrwt>
<rscale>  1 0.12684024E+03</rscale>
<asrwt>0</asrwt>
<pdfrwt beam="2">  1       21 0.35440054E-01 0.12684024E+03</pdfrwt>
<pdfrwt beam="1">  1        4 0.42088567E-01 0.12684024E+03</pdfrwt>
<totfact> 0.17504783E+03</totfact>
</mgrwt>
</event>
<event>
 6    4  0.7919556E-003  0.1270134E+03  0.7818608E-02  0.1231956E+00
         -4   -1    0    0    0  501 -0.00000000000E+00  0.00000000000E+00  0.20052313580E+03  0.20052715749E+03  0.12700000000E+01 0. -1.
         21   -1    0    0  501  502  0.00000000000E+00 -0.00000000000E+00 -0.16422357748E+03  0.16422357748E+03  0.00000000000E+00 0.  1.
         25    2    1    2    0    0  0.95455888192E+01 -0.20448948032E+02  0.17943629427E+03  0.21984036328E+03  0.12499249532E+03 0.  0.
    9000005    1    3    3    0    0  0.47117259428E+02 -0.38338071857E+02  0.16492443187E+03  0.17575810683E+03  0.10000000000E+01 0.  0.
    9000005    1    3    3    0    0 -0.37571670609E+02  0.17889123825E+02  0.14511862401E+02  0.44082256453E+02  0.10000000000E+01 0.  0.
         -4    1    1    2    0  502 -0.95455888192E+01  0.20448948032E+02 -0.14313673596E+03  0.14491037169E+03  0.12700000000E+01 0.  1.
<mgrwt>
<rscale>  1 0.12701339E+03</rscale>
<asrwt>0</asrwt>
<pdfrwt beam="2">  1       21 0.25265166E-01 0.12701339E+03</pdfrwt>
<pdfrwt beam="1">  1       -4 0.30850400E-01 0.12701339E+03</pdfrwt>
<totfact> 0.61331627E+03</totfact>
</mgrwt>
</event>
<event>
 6    4  0.7919556E-003  0.1311456E+03  0.7818608E-02  0.1225766E+00
         -4   -1    0    0    0  501 -0.00000000000E+00  0.00000000000E+00  0.30316356304E+03  0.30316622314E+03  0.12700000000E+01 0.  1.
         21   -1    0    0  501  502  0.00000000000E+00 -0.00000000000E+00 -0.24845614772E+02  0.24845614772E+02  0.00000000000E+00 0. -1.
         25    2    1    2    0    0 -0.34675091016E+02  0.19286362366E+02  0.23598002845E+03  0.26997359135E+03  0.12499936195E+03 0.  0.
    9000005    1    3    3    0    0  0.30305142327E+02  0.47136744760E+02  0.70811676390E+02  0.90308182748E+02  0.10000000000E+01 0.  0.
    9000005    1    3    3    0    0 -0.64980233342E+02 -0.27850382394E+02  0.16516835206E+03  0.17966540860E+03  0.10000000000E+01 0.  0.
         -4    1    1    2    0  502  0.34675091016E+02 -0.19286362366E+02  0.42337919815E+02  0.58038246566E+02  0.12700000000E+01 0. -1.
<mgrwt>
<rscale>  1 0.13114559E+03</rscale>
<asrwt>0</asrwt>
<pdfrwt beam="2">  1       21 0.38224025E-02 0.13114559E+03</pdfrwt>
<pdfrwt beam="1">  1       -4 0.46643247E-01 0.13114559E+03</pdfrwt>
<totfact> 0.75738141E+04</totfact>
</mgrwt>
</event>
<event>
 6    4  0.7919556E-003  0.1702875E+03  0.7818608E-02  0.1177548E+00
         21   -1    0    0  501  502  0.00000000000E+00  0.00000000000E+00  0.15102571221E+02  0.15102571221E+02  0.00000000000E+00 0. -1.
          4   -1    0    0  502    0 -0.00000000000E+00 -0.00000000000E+00 -0.14595316844E+04  0.14595322369E+04  0.12700000000E+01 0.  1.
         25    2    1    2    0    0 -0.11466783809E+03 -0.14954668433E+02 -0.10456619034E+04  0.10594369569E+04  0.12500197686E+03 0.  0.
    9000005    1    3    3    0    0 -0.11131381867E+03 -0.55405439730E+02 -0.65726526759E+03  0.66892388278E+03  0.10000000000E+01 0.  0.
    9000005    1    3    3    0    0 -0.33540194118E+01  0.40450771297E+02 -0.38839663579E+03  0.39051307409E+03  0.10000000000E+01 0.  0.
          4    1    1    2  501    0  0.11466783809E+03  0.14954668433E+02 -0.39876720981E+03  0.41519785129E+03  0.12700000000E+01 0. -1.
<mgrwt>
<rscale>  1 0.17028755E+03</rscale>
<asrwt>0</asrwt>
<pdfrwt beam="1">  1       21 0.23234741E-02 0.17028755E+03</pdfrwt>
<pdfrwt beam="2">  1        4 0.22454733E+00 0.17028755E+03</pdfrwt>
<totfact> 0.41431559E+03</totfact>
</mgrwt>
</event>
<event>
 6    4  0.7919556E-003  0.1336958E+03  0.7818608E-02  0.1222073E+00
         21   -1    0    0  501  502  0.00000000000E+00  0.00000000000E+00  0.50841649688E+03  0.50841649688E+03  0.00000000000E+00 0. -1.
         -4   -1    0    0    0  501 -0.00000000000E+00 -0.00000000000E+00 -0.26500397469E+02  0.26530811635E+02  0.12700000000E+01 0.  1.
         25    2    1    2    0    0 -0.29274407057E+02 -0.37314955229E+02  0.15537717339E+03  0.20497961328E+03  0.12500071623E+03 0.  0.
    9000005    1    3    3    0    0  0.21121230410E+02 -0.57767706174E+02  0.13227586630E+03  0.14588049580E+03  0.10000000000E+01 0.  0.
    9000005    1    3    3    0    0 -0.50395637467E+02  0.20452750945E+02  0.23101307088E+02  0.59099117473E+02  0.10000000000E+01 0.  0.
         -4    1    1    2    0  502  0.29274407057E+02  0.37314955229E+02  0.32653892603E+03  0.32996769524E+03  0.12700000000E+01 0. -1.
<mgrwt>
<rscale>  1 0.13369583E+03</rscale>
<asrwt>0</asrwt>
<pdfrwt beam="1">  1       21 0.78217915E-01 0.13369583E+03</pdfrwt>
<pdfrwt beam="2">  1       -4 0.40794462E-02 0.13369583E+03</pdfrwt>
<totfact> 0.19690873E+04</totfact>
</mgrwt>
</event>
<event>
 6    4  0.7919556E-003  0.1284902E+03  0.7818608E-02  0.1229713E+00
         21   -1    0    0  501  502  0.00000000000E+00  0.00000000000E+00  0.16950101673E+03  0.16950101673E+03  0.00000000000E+00 0. -1.
          4   -1    0    0  502    0 -0.00000000000E+00 -0.00000000000E+00 -0.44273024984E+02  0.44291236618E+02  0.12700000000E+01 0. -1.
         25    2    1    2    0    0 -0.27497943786E+02  0.11254245336E+02  0.59395098339E+02  0.14155391377E+03  0.12500775115E+03 0.  0.
    9000005    1    3    3    0    0 -0.40913535084E+01  0.64565693953E+02  0.10568444967E+02  0.65560354165E+02  0.10000000000E+01 0.  0.
    9000005    1    3    3    0    0 -0.23406590278E+02 -0.53311448617E+02  0.48826653372E+02  0.75993559606E+02  0.10000000000E+01 0.  0.
          4    1    1    2  501    0  0.27497943786E+02 -0.11254245336E+02  0.65832893405E+02  0.72238339576E+02  0.12700000000E+01 0.  1.
<mgrwt>
<rscale>  1 0.12849021E+03</rscale>
<asrwt>0</asrwt>
<pdfrwt beam="1">  1       21 0.26077079E-01 0.12849021E+03</pdfrwt>
<pdfrwt beam="2">  1        4 0.68130016E-02 0.12849021E+03</pdfrwt>
<totfact> 0.80939511E+04</totfact>
</mgrwt>
</event>
<event>
 6    4  0.7919556E-003  0.1266416E+03  0.7818608E-02  0.1232526E+00
         21   -1    0    0  501  502  0.00000000000E+00  0.00000000000E+00  0.39690204921E+02  0.39690204921E+02  0.00000000000E+00 0. -1.
         -4   -1    0    0    0  501 -0.00000000000E+00 -0.00000000000E+00 -0.13636379601E+03  0.13636970984E+03  0.12700000000E+01 0. -1.
         25    2    1    2    0    0 -0.20309067450E+02 -0.10142841368E+00 -0.80440312671E+02  0.15002914957E+03  0.12500253321E+03 0.  0.
    9000005    1    3    3    0    0 -0.35606895703E+02 -0.52136995117E+02 -0.14764541055E+02  0.64846811440E+02  0.10000000000E+01 0.  0.
    9000005    1    3    3    0    0  0.15297828253E+02  0.52035566703E+02 -0.65675771617E+02  0.85182338127E+02  0.10000000000E+01 0.  0.
         -4    1    1    2    0  502  0.20309067450E+02  0.10142841368E+00 -0.16233278415E+02  0.26030765193E+02  0.12700000000E+01 0.  1.
<mgrwt>
<rscale>  1 0.12664163E+03</rscale>
<asrwt>0</asrwt>
<pdfrwt beam="1">  1       21 0.61061855E-02 0.12664163E+03</pdfrwt>
<pdfrwt beam="2">  1       -4 0.20981063E-01 0.12664163E+03</pdfrwt>
<totfact> 0.15698036E+05</totfact>
</mgrwt>
</event>
<event>
 6    4  0.7919556E-003  0.1269604E+03  0.7818608E-02  0.1232037E+00
         21   -1    0    0  501  502  0.00000000000E+00  0.00000000000E+00  0.66818827776E+01  0.66818827776E+01  0.00000000000E+00 0. -1.
          4   -1    0    0  502    0 -0.00000000000E+00 -0.00000000000E+00 -0.83527541820E+03  0.83527638369E+03  0.12700000000E+01 0. -1.
         25    2    1    2    0    0 -0.41250756740E+01  0.21826265901E+02 -0.68825952383E+03  0.69987149776E+03  0.12500215638E+03 0.  0.
    9000005    1    3    3    0    0 -0.38299333918E+02 -0.29161320080E+02 -0.48912934841E+03  0.49149337843E+03  0.10000000000E+01 0.  0.
    9000005    1    3    3    0    0  0.34174258244E+02  0.50987585981E+02 -0.19913017542E+03  0.20837811933E+03  0.10000000000E+01 0.  0.
          4    1    1    2  501    0  0.41250756740E+01 -0.21826265901E+02 -0.14033401158E+03  0.14208676870E+03  0.12700000000E+01 0.  1.
<mgrwt>
<rscale>  1 0.12696039E+03</rscale>
<asrwt>0</asrwt>
<pdfrwt beam="1">  1       21 0.10279823E-02 0.12696039E+03</pdfrwt>
<pdfrwt beam="2">  1        4 0.12851323E+00 0.12696039E+03</pdfrwt>
<totfact> 0.67248654E+04</totfact>
</mgrwt>
</event>
<event>
 6    4  0.7919556E-003  0.1270405E+03  0.7818608E-02  0.1231914E+00
         -4   -1    0    0    0  501 -0.00000000000E+00  0.00000000000E+00  0.74434375847E+01  0.75510041106E+01  0.12700000000E+01 0.  1.
         21   -1    0    0  501  502  0.00000000000E+00 -0.00000000000E+00 -0.77553436690E+03  0.77553436690E+03  0.00000000000E+00 0.  1.
         25    2    1    2    0    0 -0.21513273010E+02 -0.71754728858E+01 -0.69604994742E+03  0.70754846415E+03  0.12499996592E+03 0.  0.
    9000005    1    3    3    0    0  0.51137916256E+01  0.44787846390E+02 -0.11425939347E+03  0.12283448639E+03  0.10000000000E+01 0.  0.
    9000005    1    3    3    0    0 -0.26627064636E+02 -0.51963319276E+02 -0.58179055395E+03  0.58471397776E+03  0.10000000000E+01 0.  0.
         -4    1    1    2    0  502  0.21513273010E+02  0.71754728858E+01 -0.72040981895E+02  0.75536906868E+02  0.12700000000E+01 0. -1.
<mgrwt>
<rscale>  1 0.12704054E+03</rscale>
<asrwt>0</asrwt>
<pdfrwt beam="2">  1       21 0.11931299E+00 0.12704054E+03</pdfrwt>
<pdfrwt beam="1">  1       -4 0.11534985E-02 0.12704054E+03</pdfrwt>
<totfact> 0.51763871E+04</totfact>
</mgrwt>
</event>
<event>
 6    4  0.7919556E-003  0.1269104E+03  0.7818608E-02  0.1232114E+00
          4   -1    0    0  502    0 -0.00000000000E+00  0.00000000000E+00  0.41695887522E+03  0.41696080934E+03  0.12700000000E+01 0.  1.
         21   -1    0    0  501  502  0.00000000000E+00 -0.00000000000E+00 -0.15939232812E+02  0.15939232812E+02  0.00000000000E+00 0.  1.
         25    2    1    2    0    0 -0.18166924305E+02 -0.12231525868E+02  0.38596267215E+03  0.40629228732E+03  0.12500636416E+03 0.  0.
    9000005    1    3    3    0    0 -0.49372969041E+02 -0.33476098451E+02  0.34677508207E+03  0.35186971564E+03  0.10000000000E+01 0.  0.
    9000005    1    3    3    0    0  0.31206044736E+02  0.21244572583E+02  0.39187590079E+02  0.54422571682E+02  0.10000000000E+01 0.  0.
          4    1    1    2  501    0  0.18166924305E+02  0.12231525868E+02  0.15056970263E+02  0.26607754833E+02  0.12700000000E+01 0. -1.
<mgrwt>
<rscale>  1 0.12691036E+03</rscale>
<asrwt>0</asrwt>
<pdfrwt beam="2">  1       21 0.24521900E-02 0.12691036E+03</pdfrwt>
<pdfrwt beam="1">  1        4 0.64151551E-01 0.12691036E+03</pdfrwt>
<totfact> 0.80869401E+04</totfact>
</mgrwt>
</event>
<event>
 6    4  0.7919556E-003  0.1274447E+03  0.7818608E-02  0.1231297E+00
         -4   -1    0    0    0  501 -0.00000000000E+00  0.00000000000E+00  0.20136922188E+02  0.20176930768E+02  0.12700000000E+01 0. -1.
         21   -1    0    0  501  502  0.00000000000E+00 -0.00000000000E+00 -0.30551975562E+03  0.30551975562E+03  0.00000000000E+00 0. -1.
         25    2    1    2    0    0  0.77743297557E+01 -0.23588168906E+02 -0.20343273986E+03  0.24005631827E+03  0.12500125750E+03 0.  0.
    9000005    1    3    3    0    0 -0.16368725211E+02 -0.59433275785E+02 -0.18128807491E+03  0.19148528806E+03  0.10000000000E+01 0.  0.
    9000005    1    3    3    0    0  0.24143054967E+02  0.35845106880E+02 -0.22144664948E+02  0.48571030214E+02  0.10000000000E+01 0.  0.
         -4    1    1    2    0  502 -0.77743297557E+01  0.23588168906E+02 -0.81950093570E+02  0.85640368120E+02  0.12700000000E+01 0.  1.
<mgrwt>
<rscale>  1 0.12744472E+03</rscale>
<asrwt>0</asrwt>
<pdfrwt beam="2">  1       21 0.47003037E-01 0.12744472E+03</pdfrwt>
<pdfrwt beam="1">  1       -4 0.31012688E-02 0.12744472E+03</pdfrwt>
<totfact> 0.89364923E+04</totfact>
</mgrwt>
</event>
<event>
 6    4  0.7919556E-003  0.1300378E+03  0.7818608E-02  0.1227400E+00
         -4   -1    0    0    0  501 -0.00000000000E+00  0.00000000000E+00  0.20083718448E+03  0.20084119988E+03  0.12700000000E+01 0. -1.
         21   -1    0    0  501  502  0.00000000000E+00 -0.00000000000E+00 -0.65824757077E+02  0.65824757077E+02  0.00000000000E+00 0.  1.
         25    2    1    2    0    0  0.32074490132E+02  0.16007785107E+02  0.17168143795E+03  0.21537023261E+03  0.12499919542E+03 0.  0.
    9000005    1    3    3    0    0 -0.19985801441E+02  0.21871340951E+01 -0.12349376745E+02  0.23616158045E+02  0.10000000000E+01 0.  0.
    9000005    1    3    3    0    0  0.52060291573E+02  0.13820651012E+02  0.18403081470E+03  0.19175407456E+03  0.10000000000E+01 0.  0.
         -4    1    1    2    0  502 -0.32074490132E+02 -0.16007785107E+02 -0.36669010554E+02  0.51295724347E+02  0.12700000000E+01 0.  1.
<mgrwt>
<rscale>  1 0.13003777E+03</rscale>
<asrwt>0</asrwt>
<pdfrwt beam="2">  1       21 0.10126886E-01 0.13003777E+03</pdfrwt>
<pdfrwt beam="1">  1       -4 0.30899279E-01 0.13003777E+03</pdfrwt>
<totfact> 0.32214552E+04</totfact>
</mgrwt>
</event>
<event>
 6    4  0.7919556E-003  0.1382724E+03  0.7818608E-02  0.1215673E+00
         21   -1    0    0  501  502  0.00000000000E+00  0.00000000000E+00  0.98019605452E+02  0.98019605452E+02  0.00000000000E+00 0. -1.
         -4   -1    0    0    0  501 -0.00000000000E+00 -0.00000000000E+00 -0.33583063038E+03  0.33583303173E+03  0.12700000000E+01 0.  1.
         25    2    1    2    0    0 -0.32176621971E+02 -0.49590258098E+02 -0.31065125799E+03  0.34003450913E+03  0.12499893841E+03 0.  0.
    9000005    1    3    3    0    0  0.15640007732E+02 -0.24115207333E+02 -0.44827020130E+01  0.29107519371E+02  0.10000000000E+01 0.  0.
    9000005    1    3    3    0    0 -0.47816629703E+02 -0.25475050765E+02 -0.30616855598E+03  0.31092698976E+03  0.10000000000E+01 0.  0.
         -4    1    1    2    0  502  0.32176621971E+02  0.49590258098E+02  0.72840233063E+02  0.93818128058E+02  0.12700000000E+01 0. -1.
<mgrwt>
<rscale>  1 0.13827242E+03</rscale>
<asrwt>0</asrwt>
<pdfrwt beam="1">  1       21 0.15079939E-01 0.13827242E+03</pdfrwt>
<pdfrwt beam="2">  1       -4 0.51667070E-01 0.13827242E+03</pdfrwt>
<totfact> 0.58018144E+03</totfact>
</mgrwt>
</event>
<event>
 6    4  0.7919556E-003  0.1275637E+03  0.7818608E-02  0.1231116E+00
         21   -1    0    0  501  502  0.00000000000E+00  0.00000000000E+00  0.37530312422E+03  0.37530312422E+03  0.00000000000E+00 0. -1.
          4   -1    0    0  502    0 -0.00000000000E+00 -0.00000000000E+00 -0.35442617927E+02  0.35465364308E+02  0.12700000000E+01 0. -1.
         25    2    1    2    0    0  0.18860028064E+02  0.16933475633E+02  0.81964416384E+02  0.15162673322E+03  0.12502022803E+03 0.  0.
    9000005    1    3    3    0    0 -0.39141292524E+02 -0.14249945651E+02 -0.56191061406E+01  0.42043740144E+02  0.10000000000E+01 0.  0.
    9000005    1    3    3    0    0  0.58001320587E+02  0.31183421285E+02  0.87583522524E+02  0.10958299307E+03  0.10000000000E+01 0.  0.
          4    1    1    2  501    0 -0.18860028064E+02 -0.16933475633E+02  0.25789608991E+03  0.25914175532E+03  0.12700000000E+01 0.  1.
<mgrwt>
<rscale>  1 0.12756371E+03</rscale>
<asrwt>0</asrwt>
<pdfrwt beam="1">  1       21 0.57738939E-01 0.12756371E+03</pdfrwt>
<pdfrwt beam="2">  1        4 0.54546257E-02 0.12756371E+03</pdfrwt>
<totfact> 0.23773374E+04</totfact>
</mgrwt>
</event>
<event>
 6    4  0.7919556E-003  0.1355620E+03  0.7818608E-02  0.1219429E+00
         21   -1    0    0  501  502  0.00000000000E+00  0.00000000000E+00  0.39052684503E+03  0.39052684503E+03  0.00000000000E+00 0.  1.
          4   -1    0    0  502    0 -0.00000000000E+00 -0.00000000000E+00 -0.29875911706E+02  0.29902892841E+02  0.12700000000E+01 0.  1.
         25    2    1    2    0    0 -0.36201121236E+02 -0.37944432230E+02  0.14503936326E+03  0.19852826613E+03  0.12500701757E+03 0.  0.
    9000005    1    3    3    0    0 -0.70956169729E+01  0.16649974722E+02  0.13455442825E+03  0.13576989210E+03  0.10000000000E+01 0.  0.
    9000005    1    3    3    0    0 -0.29105504263E+02 -0.54594406952E+02  0.10484935010E+02  0.62758374031E+02  0.10000000000E+01 0.  0.
          4    1    1    2  501    0  0.36201121236E+02  0.37944432230E+02  0.21561157006E+03  0.22190147174E+03  0.12700000000E+01 0. -1.
<mgrwt>
<rscale>  1 0.13556200E+03</rscale>
<asrwt>0</asrwt>
<pdfrwt beam="1">  1       21 0.60081049E-01 0.13556200E+03</pdfrwt>
<pdfrwt beam="2">  1        4 0.45985287E-02 0.13556200E+03</pdfrwt>
<totfact> 0.28913135E+04</totfact>
</mgrwt>
</event>
<event>
 6    4  0.7919556E-003  0.1324748E+03  0.7818608E-02  0.1223829E+00
         21   -1    0    0  501  502  0.00000000000E+00  0.00000000000E+00  0.18336527693E+02  0.18336527693E+02  0.00000000000E+00 0. -1.
         -4   -1    0    0    0  501 -0.00000000000E+00 -0.00000000000E+00 -0.77356429725E+03  0.77356533976E+03  0.12700000000E+01 0. -1.
         25    2    1    2    0    0 -0.23209238849E+02  0.37208847113E+02 -0.72867666397E+03  0.74062086533E+03  0.12500567374E+03 0.  0.
    9000005    1    3    3    0    0 -0.13975897626E+01 -0.46108362078E+02 -0.27409558951E+03  0.27795202194E+03  0.10000000000E+01 0.  0.
    9000005    1    3    3    0    0 -0.21811649087E+02  0.83317209191E+02 -0.45458107446E+03  0.46266884339E+03  0.10000000000E+01 0.  0.
         -4    1    1    2    0  502  0.23209238849E+02 -0.37208847113E+02 -0.26551105583E+02  0.51281002126E+02  0.12700000000E+01 0.  1.
<mgrwt>
<rscale>  1 0.13247485E+03</rscale>
<asrwt>0</asrwt>
<pdfrwt beam="1">  1       21 0.28210044E-02 0.13247485E+03</pdfrwt>
<pdfrwt beam="2">  1       -4 0.11901335E+00 0.13247485E+03</pdfrwt>
<totfact> 0.16107659E+04</totfact>
</mgrwt>
</event>
<event>
 6    4  0.7919556E-003  0.1281190E+03  0.7818608E-02  0.1230274E+00
         21   -1    0    0  501  502  0.00000000000E+00  0.00000000000E+00  0.78303863402E+02  0.78303863402E+02  0.00000000000E+00 0.  1.
         -4   -1    0    0    0  501 -0.00000000000E+00 -0.00000000000E+00 -0.85531108907E+02  0.85540537121E+02  0.12700000000E+01 0.  1.
         25    2    1    2    0    0 -0.11588881287E+01  0.28061820862E+02 -0.25066136800E+02  0.13054803804E+03  0.12500268081E+03 0.  0.
    9000005    1    3    3    0    0 -0.49567335321E+02  0.53607255606E+02 -0.19131443941E+02  0.75482916821E+02  0.10000000000E+01 0.  0.
    9000005    1    3    3    0    0  0.48408447192E+02 -0.25545434744E+02 -0.59346928584E+01  0.55065121222E+02  0.10000000000E+01 0.  0.
         -4    1    1    2    0  502  0.11588881287E+01 -0.28061820862E+02  0.17838891294E+02  0.33296362480E+02  0.12700000000E+01 0. -1.
<mgrwt>
<rscale>  1 0.12811900E+03</rscale>
<asrwt>0</asrwt>
<pdfrwt beam="1">  1       21 0.12046748E-01 0.12811900E+03</pdfrwt>
<pdfrwt beam="2">  1       -4 0.13160150E-01 0.12811900E+03</pdfrwt>
<totfact> 0.11026082E+05</totfact>
</mgrwt>
</event>
<event>
 6    4  0.7919556E-003  0.1273122E+03  0.7818608E-02  0.1231499E+00
          4   -1    0    0  502    0 -0.00000000000E+00  0.00000000000E+00  0.14404313315E+03  0.14404873172E+03  0.12700000000E+01 0. -1.
         21   -1    0    0  501  502  0.00000000000E+00 -0.00000000000E+00 -0.31054911071E+03  0.31054911071E+03  0.00000000000E+00 0.  1.
         25    2    1    2    0    0 -0.16427513757E+02  0.17729541853E+02  0.11529488535E+03  0.17175948029E+03  0.12499683444E+03 0.  0.
    9000005    1    3    3    0    0 -0.11902137019E+02 -0.40874391085E+02  0.10333906673E+03  0.11176913449E+03  0.10000000000E+01 0.  0.
    9000005    1    3    3    0    0 -0.45253767377E+01  0.58603932937E+02  0.11955818620E+02  0.59990345800E+02  0.10000000000E+01 0.  0.
          4    1    1    2  501    0  0.16427513757E+02 -0.17729541853E+02 -0.28180086291E+03  0.28283836214E+03  0.12700000000E+01 0.  1.
<mgrwt>
<rscale>  1 0.12731225E+03</rscale>
<asrwt>0</asrwt>
<pdfrwt beam="2">  1       21 0.47776786E-01 0.12731225E+03</pdfrwt>
<pdfrwt beam="1">  1        4 0.22161112E-01 0.12731225E+03</pdfrwt>
<totfact> 0.32401594E+03</totfact>
</mgrwt>
</event>
<event>
 6    4  0.7919556E-003  0.1438962E+03  0.7818608E-02  0.1208180E+00
         21   -1    0    0  501  502  0.00000000000E+00  0.00000000000E+00  0.60916856703E+02  0.60916856703E+02  0.00000000000E+00 0.  1.
          4   -1    0    0  502    0 -0.00000000000E+00 -0.00000000000E+00 -0.20894651228E+03  0.20895037185E+03  0.12700000000E+01 0.  1.
         25    2    1    2    0    0  0.54792857568E+02  0.45593047539E+02 -0.13516669116E+03  0.19742378870E+03  0.12500053888E+03 0.  0.
    9000005    1    3    3    0    0 -0.26010248362E+02  0.32558971019E+02 -0.27818646715E+01  0.41777486577E+02  0.10000000000E+01 0.  0.
    9000005    1    3    3    0    0  0.80803105930E+02  0.13034076520E+02 -0.13238482649E+03  0.15564630212E+03  0.10000000000E+01 0.  0.
          4    1    1    2  501    0 -0.54792857568E+02 -0.45593047539E+02 -0.12862964419E+02  0.72443439855E+02  0.12700000000E+01 0. -1.
<mgrwt>
<rscale>  1 0.14389621E+03</rscale>
<asrwt>0</asrwt>
<pdfrwt beam="1">  1       21 0.93718241E-02 0.14389621E+03</pdfrwt>
<pdfrwt beam="2">  1        4 0.32146933E-01 0.14389621E+03</pdfrwt>
<totfact> 0.34604809E+04</totfact>
</mgrwt>
</event>
<event>
 6    4  0.7919556E-003  0.1269860E+03  0.7818608E-02  0.1231998E+00
          4   -1    0    0  502    0 -0.00000000000E+00  0.00000000000E+00  0.88412095820E+02  0.88421216839E+02  0.12700000000E+01 0. -1.
         21   -1    0    0  501  502  0.00000000000E+00 -0.00000000000E+00 -0.65333338156E+02  0.65333338156E+02  0.00000000000E+00 0. -1.
         25    2    1    2    0    0 -0.13377477315E+02 -0.17898270483E+02  0.29703024452E+02  0.13041362965E+03  0.12500456052E+03 0.  0.
    9000005    1    3    3    0    0  0.34153111037E+02 -0.37717550855E+02 -0.23768829249E+02  0.56169439021E+02  0.10000000000E+01 0.  0.
    9000005    1    3    3    0    0 -0.47530588352E+02  0.19819280373E+02  0.53471853701E+02  0.74244190627E+02  0.10000000000E+01 0.  0.
          4    1    1    2  501    0  0.13377477315E+02  0.17898270483E+02 -0.66242667882E+01  0.23340925347E+02  0.12700000000E+01 0.  1.
<mgrwt>
<rscale>  1 0.12698600E+03</rscale>
<asrwt>0</asrwt>
<pdfrwt beam="2">  1       21 0.10051283E-01 0.12698600E+03</pdfrwt>
<pdfrwt beam="1">  1        4 0.13603512E-01 0.12698600E+03</pdfrwt>
<totfact> 0.14304422E+05</totfact>
</mgrwt>
</event>
<event>
 6    4  0.7919556E-003  0.1276422E+03  0.7818608E-02  0.1230997E+00
         -4   -1    0    0    0  501 -0.00000000000E+00  0.00000000000E+00  0.16489480622E+03  0.16489969684E+03  0.12700000000E+01 0.  1.
         21   -1    0    0  501  502  0.00000000000E+00 -0.00000000000E+00 -0.42309855228E+02  0.42309855228E+02  0.00000000000E+00 0. -1.
         25    2    1    2    0    0  0.25538906685E+02 -0.36140521297E+01  0.12806216002E+03  0.18081050197E+03  0.12500889435E+03 0.  0.
    9000005    1    3    3    0    0 -0.36037352195E+02  0.17232298748E+02  0.10412217446E+03  0.11152609600E+03  0.10000000000E+01 0.  0.
    9000005    1    3    3    0    0  0.61576258880E+02 -0.20846350878E+02  0.23939985554E+02  0.69284405972E+02  0.10000000000E+01 0.  0.
         -4    1    1    2    0  502 -0.25538906685E+02  0.36140521297E+01 -0.54772090250E+01  0.26399050100E+02  0.12700000000E+01 0. -1.
<mgrwt>
<rscale>  1 0.12764216E+03</rscale>
<asrwt>0</asrwt>
<pdfrwt beam="2">  1       21 0.65092086E-02 0.12764216E+03</pdfrwt>
<pdfrwt beam="1">  1       -4 0.25370274E-01 0.12764216E+03</pdfrwt>
<totfact> 0.99659700E+04</totfact>
</mgrwt>
</event>
<event>
 6    4  0.7919556E-003  0.1291098E+03  0.7818608E-02  0.1228783E+00
          4   -1    0    0  502    0 -0.00000000000E+00  0.00000000000E+00  0.34834642255E+02  0.34857785372E+02  0.12700000000E+01 0. -1.
         21   -1    0    0  501  502  0.00000000000E+00 -0.00000000000E+00 -0.18774685176E+03  0.18774685176E+03  0.00000000000E+00 0. -1.
         25    2    1    2    0    0 -0.32423914129E+02  0.84089335772E+00 -0.11759525278E+03  0.17463675578E+03  0.12496933898E+03 0.  0.
    9000005    1    3    3    0    0  0.11413110721E+02 -0.41086215419E+02 -0.10408119010E+03  0.11248213336E+03  0.10000000000E+01 0.  0.
    9000005    1    3    3    0    0 -0.43837024850E+02  0.41927108777E+02 -0.13514062686E+02  0.62154622421E+02  0.10000000000E+01 0.  0.
          4    1    1    2  501    0  0.32423914129E+02 -0.84089335772E+00 -0.35316956724E+02  0.47967881351E+02  0.12700000000E+01 0.  1.
<mgrwt>
<rscale>  1 0.12910985E+03</rscale>
<asrwt>0</asrwt>
<pdfrwt beam="2">  1       21 0.28884131E-01 0.12910985E+03</pdfrwt>
<pdfrwt beam="1">  1        4 0.53612864E-02 0.12910985E+03</pdfrwt>
<totfact> 0.98333620E+04</totfact>
</mgrwt>
</event>
<event>
 6    4  0.7919556E-003  0.1266467E+03  0.7818608E-02  0.1232518E+00
         21   -1    0    0  501  502  0.00000000000E+00  0.00000000000E+00  0.15029217259E+02  0.15029217259E+02  0.00000000000E+00 0. -1.
         -4   -1    0    0    0  501 -0.00000000000E+00 -0.00000000000E+00 -0.37762956771E+03  0.37763170327E+03  0.12700000000E+01 0. -1.
         25    2    1    2    0    0  0.11958269451E+02 -0.16514671055E+02 -0.33631347086E+03  0.35936906706E+03  0.12499456432E+03 0.  0.
    9000005    1    3    3    0    0 -0.57408201110E-01 -0.44088495524E+02 -0.34322621074E+02  0.55882385871E+02  0.10000000000E+01 0.  0.
    9000005    1    3    3    0    0  0.12015677652E+02  0.27573824469E+02 -0.30199084979E+03  0.30348668119E+03  0.10000000000E+01 0.  0.
         -4    1    1    2    0  502 -0.11958269451E+02  0.16514671055E+02 -0.26286879594E+02  0.33291853465E+02  0.12700000000E+01 0.  1.
<mgrwt>
<rscale>  1 0.12664666E+03</rscale>
<asrwt>0</asrwt>
<pdfrwt beam="1">  1       21 0.23121873E-02 0.12664666E+03</pdfrwt>
<pdfrwt beam="2">  1       -4 0.58101147E-01 0.12664666E+03</pdfrwt>
<totfact> 0.10954407E+05</totfact>
</mgrwt>
</event>
<event>
 6    4  0.7919556E-003  0.1363445E+03  0.7818608E-02  0.1218334E+00
         21   -1    0    0  501  502  0.00000000000E+00  0.00000000000E+00  0.81313207192E+02  0.81313207192E+02  0.00000000000E+00 0.  1.
         -4   -1    0    0    0  501 -0.00000000000E+00 -0.00000000000E+00 -0.11778845648E+03  0.11779530288E+03  0.12700000000E+01 0.  1.
         25    2    1    2    0    0 -0.69849052364E+01  0.54009133998E+02 -0.45822699328E+02  0.14383859801E+03  0.12499618814E+03 0.  0.
    9000005    1    3    3    0    0 -0.37408363209E+02  0.51050388851E+02  0.23934853026E+02  0.67671301370E+02  0.10000000000E+01 0.  0.
    9000005    1    3    3    0    0  0.30423457972E+02  0.29587451479E+01 -0.69757552353E+02  0.76167296645E+02  0.10000000000E+01 0.  0.
         -4    1    1    2    0  502  0.69849052364E+01 -0.54009133998E+02  0.93474500392E+01  0.55269912056E+02  0.12700000000E+01 0. -1.
<mgrwt>
<rscale>  1 0.13634450E+03</rscale>
<asrwt>0</asrwt>
<pdfrwt beam="1">  1       21 0.12509724E-01 0.13634450E+03</pdfrwt>
<pdfrwt beam="2">  1       -4 0.18122590E-01 0.13634450E+03</pdfrwt>
<totfact> 0.59388061E+04</totfact>
</mgrwt>
</event>
<event>
 6    4  0.7919556E-003  0.1289884E+03  0.7818608E-02  0.1228965E+00
          4   -1    0    0  502    0 -0.00000000000E+00  0.00000000000E+00  0.42375479581E+02  0.42394506363E+02  0.12700000000E+01 0.  1.
         21   -1    0    0  501  502  0.00000000000E+00 -0.00000000000E+00 -0.17520677745E+03  0.17520677745E+03  0.00000000000E+00 0.  1.
         25    2    1    2    0    0  0.30108162310E+02  0.10250497020E+02 -0.69024262381E+02  0.14629542988E+03  0.12500571939E+03 0.  0.
    9000005    1    3    3    0    0 -0.19898158322E+02  0.29475585756E+02 -0.83523044884E+02  0.90784612611E+02  0.10000000000E+01 0.  0.
    9000005    1    3    3    0    0  0.50006320633E+02 -0.19225088736E+02  0.14498782503E+02  0.55510817272E+02  0.10000000000E+01 0.  0.
          4    1    1    2  501    0 -0.30108162310E+02 -0.10250497020E+02 -0.63807035489E+02  0.71305853930E+02  0.12700000000E+01 0. -1.
<mgrwt>
<rscale>  1 0.12898839E+03</rscale>
<asrwt>0</asrwt>
<pdfrwt beam="2">  1       21 0.26954888E-01 0.12898839E+03</pdfrwt>
<pdfrwt beam="1">  1        4 0.65211223E-02 0.12898839E+03</pdfrwt>
<totfact> 0.81681217E+04</totfact>
</mgrwt>
</event>
<event>
 6    4  0.7919556E-003  0.1289559E+03  0.7818608E-02  0.1229013E+00
          4   -1    0    0  502    0 -0.00000000000E+00  0.00000000000E+00  0.15331731377E+03  0.15332257368E+03  0.12700000000E+01 0. -1.
         21   -1    0    0  501  502  0.00000000000E+00 -0.00000000000E+00 -0.45332447285E+02  0.45332447285E+02  0.00000000000E+00 0. -1.
         25    2    1    2    0    0  0.30954066144E+02 -0.69195862626E+01  0.10585895943E+03  0.16684044466E+03  0.12499431906E+03 0.  0.
    9000005    1    3    3    0    0 -0.22102507164E+02 -0.39769917645E+02  0.18553959568E+01  0.45547883228E+02  0.10000000000E+01 0.  0.
    9000005    1    3    3    0    0  0.53056573308E+02  0.32850331382E+02  0.10400356347E+03  0.12129256143E+03  0.10000000000E+01 0.  0.
          4    1    1    2  501    0 -0.30954066144E+02  0.69195862626E+01  0.21259070500E+01  0.31814576308E+02  0.12700000000E+01 0.  1.
<mgrwt>
<rscale>  1 0.12895586E+03</rscale>
<asrwt>0</asrwt>
<pdfrwt beam="2">  1       21 0.69742228E-02 0.12895586E+03</pdfrwt>
<pdfrwt beam="1">  1        4 0.23589052E-01 0.12895586E+03</pdfrwt>
<totfact> 0.10142969E+05</totfact>
</mgrwt>
</event>
<event>
 6    4  0.7919556E-003  0.1293533E+03  0.7818608E-02  0.1228418E+00
         -4   -1    0    0    0  501 -0.00000000000E+00  0.00000000000E+00  0.93796797070E+03  0.93796883048E+03  0.12700000000E+01 0. -1.
         21   -1    0    0  501  502  0.00000000000E+00 -0.00000000000E+00 -0.85453839428E+01  0.85453839428E+01  0.00000000000E+00 0. -1.
         25    2    1    2    0    0  0.74013698101E+01  0.32444300343E+02  0.85816153295E+03  0.86785568921E+03  0.12499947102E+03 0.  0.
    9000005    1    3    3    0    0 -0.49428310440E+02  0.49243959393E+02  0.43418007646E+03  0.43975159375E+03  0.10000000000E+01 0.  0.
    9000005    1    3    3    0    0  0.56829680250E+02 -0.16799659050E+02  0.42398145648E+03  0.42810409545E+03  0.10000000000E+01 0.  0.
         -4    1    1    2    0  502 -0.74013698101E+01 -0.32444300343E+02  0.71261053805E+02  0.78658525216E+02  0.12700000000E+01 0.  1.
<mgrwt>
<rscale>  1 0.12935332E+03</rscale>
<asrwt>0</asrwt>
<pdfrwt beam="2">  1       21 0.13146752E-02 0.12935332E+03</pdfrwt>
<pdfrwt beam="1">  1       -4 0.14431001E+00 0.12935332E+03</pdfrwt>
<totfact> 0.34278572E+04</totfact>
</mgrwt>
</event>
<event>
 6    4  0.7919556E-003  0.1274255E+03  0.7818608E-02  0.1231327E+00
          4   -1    0    0  502    0 -0.00000000000E+00  0.00000000000E+00  0.23245339943E+03  0.23245686870E+03  0.12700000000E+01 0. -1.
         21   -1    0    0  501  502  0.00000000000E+00 -0.00000000000E+00 -0.25102328560E+02  0.25102328560E+02  0.00000000000E+00 0. -1.
         25    2    1    2    0    0  0.24763971696E+02 -0.15438252446E+00  0.18121797190E+03  0.22153379109E+03  0.12499595644E+03 0.  0.
    9000005    1    3    3    0    0  0.39396742317E+02  0.32764060721E+02  0.17813864696E+03  0.18536441007E+03  0.10000000000E+01 0.  0.
    9000005    1    3    3    0    0 -0.14632770620E+02 -0.32918443245E+02  0.30793249489E+01  0.36169381027E+02  0.10000000000E+01 0.  0.
          4    1    1    2  501    0 -0.24763971696E+02  0.15438252446E+00  0.26133098967E+02  0.36025406171E+02  0.12700000000E+01 0.  1.
<mgrwt>
<rscale>  1 0.12742554E+03</rscale>
<asrwt>0</asrwt>
<pdfrwt beam="2">  1       21 0.38618969E-02 0.12742554E+03</pdfrwt>
<pdfrwt beam="1">  1        4 0.35764798E-01 0.12742554E+03</pdfrwt>
<totfact> 0.12517811E+05</totfact>
</mgrwt>
</event>
<event>
 6    4  0.7919556E-003  0.1375696E+03  0.7818608E-02  0.1216637E+00
         21   -1    0    0  501  502  0.00000000000E+00  0.00000000000E+00  0.49102793867E+02  0.49102793867E+02  0.00000000000E+00 0. -1.
         -4   -1    0    0    0  501 -0.00000000000E+00 -0.00000000000E+00 -0.27457715323E+03  0.27458009028E+03  0.12700000000E+01 0. -1.
         25    2    1    2    0    0 -0.30709564285E+02  0.48549904650E+02 -0.22786434525E+03  0.26617205462E+03  0.12500092898E+03 0.  0.
    9000005    1    3    3    0    0  0.35963553118E+02 -0.10780348195E+02 -0.26656066647E+02  0.46055824269E+02  0.10000000000E+01 0.  0.
    9000005    1    3    3    0    0 -0.66673117403E+02  0.59330252845E+02 -0.20120827860E+03  0.22011623035E+03  0.10000000000E+01 0.  0.
         -4    1    1    2    0  502  0.30709564285E+02 -0.48549904650E+02  0.23899858815E+01  0.57510829525E+02  0.12700000000E+01 0.  1.
<mgrwt>
<rscale>  1 0.13756963E+03</rscale>
<asrwt>0</asrwt>
<pdfrwt beam="1">  1       21 0.75542761E-02 0.13756963E+03</pdfrwt>
<pdfrwt beam="2">  1       -4 0.42244127E-01 0.13756963E+03</pdfrwt>
<totfact> 0.29404293E+04</totfact>
</mgrwt>
</event>
<event>
 6    4  0.7919556E-003  0.1306602E+03  0.7818608E-02  0.1226479E+00
         -4   -1    0    0    0  501 -0.00000000000E+00  0.00000000000E+00  0.15718845478E+03  0.15719358516E+03  0.12700000000E+01 0.  1.
         21   -1    0    0  501  502  0.00000000000E+00 -0.00000000000E+00 -0.63746120694E+02  0.63746120694E+02  0.00000000000E+00 0. -1.
         25    2    1    2    0    0  0.30633552352E+02 -0.22570380260E+02  0.11765078800E+03  0.17582320404E+03  0.12499701824E+03 0.  0.
    9000005    1    3    3    0    0 -0.66451264758E+01 -0.59007788591E+02  0.15882123449E+02  0.61476163393E+02  0.10000000000E+01 0.  0.
    9000005    1    3    3    0    0  0.37278678828E+02  0.36437408331E+02  0.10176866455E+03  0.11434704065E+03  0.10000000000E+01 0.  0.
         -4    1    1    2    0  502 -0.30633552352E+02  0.22570380260E+02 -0.24208453914E+02  0.45116501812E+02  0.12700000000E+01 0. -1.
<mgrwt>
<rscale>  1 0.13066021E+03</rscale>
<asrwt>0</asrwt>
<pdfrwt beam="2">  1       21 0.98070956E-02 0.13066021E+03</pdfrwt>
<pdfrwt beam="1">  1       -4 0.24184207E-01 0.13066021E+03</pdfrwt>
<totfact> 0.53856513E+04</totfact>
</mgrwt>
</event>
<event>
 6    4  0.7919556E-003  0.1267140E+03  0.7818608E-02  0.1232415E+00
         -4   -1    0    0    0  501 -0.00000000000E+00  0.00000000000E+00  0.64132808136E+01  0.65378185042E+01  0.12700000000E+01 0. -1.
         21   -1    0    0  501  502  0.00000000000E+00 -0.00000000000E+00 -0.92271200441E+03  0.92271200441E+03  0.00000000000E+00 0.  1.
         25    2    1    2    0    0 -0.15837359915E+02  0.13435228505E+02 -0.65635245466E+03  0.66847213413E+03  0.12500048814E+03 0.  0.
    9000005    1    3    3    0    0 -0.56768773730E+02 -0.10178949797E+02 -0.53719093729E+03  0.54027900922E+03  0.10000000000E+01 0.  0.
    9000005    1    3    3    0    0  0.40931413815E+02  0.23614178302E+02 -0.11916151736E+03  0.12819312491E+03  0.10000000000E+01 0.  0.
         -4    1    1    2    0  502  0.15837359915E+02 -0.13435228505E+02 -0.25994626894E+03  0.26077768878E+03  0.12700000000E+01 0.  1.
<mgrwt>
<rscale>  1 0.12671405E+03</rscale>
<asrwt>0</asrwt>
<pdfrwt beam="2">  1       21 0.14195561E+00 0.12671405E+03</pdfrwt>
<pdfrwt beam="1">  1       -4 0.99630623E-03 0.12671405E+03</pdfrwt>
<totfact> 0.41869208E+04</totfact>
</mgrwt>
</event>
<event>
 6    4  0.7919556E-003  0.1358234E+03  0.7818608E-02  0.1219062E+00
         21   -1    0    0  501  502  0.00000000000E+00  0.00000000000E+00  0.27789664136E+03  0.27789664136E+03  0.00000000000E+00 0.  1.
         -4   -1    0    0    0  501 -0.00000000000E+00 -0.00000000000E+00 -0.11332618897E+03  0.11333330493E+03  0.12700000000E+01 0. -1.
         25    2    1    2    0    0  0.11563472568E+00 -0.53132802603E+02 -0.68540229792E+02  0.15213726315E+03  0.12499950262E+03 0.  0.
    9000005    1    3    3    0    0  0.67951632093E+01 -0.89531047093E+02 -0.21599651471E+02  0.92355441531E+02  0.10000000000E+01 0.  0.
    9000005    1    3    3    0    0 -0.66795284836E+01  0.36398244490E+02 -0.46940578321E+02  0.59781821617E+02  0.10000000000E+01 0.  0.
         -4    1    1    2    0  502 -0.11563472568E+00  0.53132802603E+02  0.23311068218E+03  0.23909268314E+03  0.12700000000E+01 0.  1.
<mgrwt>
<rscale>  1 0.13582335E+03</rscale>
<asrwt>0</asrwt>
<pdfrwt beam="1">  1       21 0.42753329E-01 0.13582335E+03</pdfrwt>
<pdfrwt beam="2">  1       -4 0.17435569E-01 0.13582335E+03</pdfrwt>
<totfact> 0.62702259E+03</totfact>
</mgrwt>
</event>
<event>
 6    4  0.7919556E-003  0.1385191E+03  0.7818608E-02  0.1215336E+00
         21   -1    0    0  501  502  0.00000000000E+00  0.00000000000E+00  0.27838083480E+03  0.27838083480E+03  0.00000000000E+00 0.  1.
          4   -1    0    0  502    0 -0.00000000000E+00 -0.00000000000E+00 -0.74971450896E+02  0.74982206886E+02  0.12700000000E+01 0. -1.
         25    2    1    2    0    0  0.16624439854E+02 -0.57320175883E+02 -0.29419877806E+01  0.13855038829E+03  0.12500232093E+03 0.  0.
    9000005    1    3    3    0    0 -0.31888925043E+02 -0.74953583738E+02 -0.20529972520E+02  0.84008469974E+02  0.10000000000E+01 0.  0.
    9000005    1    3    3    0    0  0.48513364897E+02  0.17633407856E+02  0.17587984740E+02  0.54541918315E+02  0.10000000000E+01 0.  0.
          4    1    1    2  501    0 -0.16624439854E+02  0.57320175883E+02  0.20635137169E+03  0.21481265340E+03  0.12700000000E+01 0.  1.
<mgrwt>
<rscale>  1 0.13851915E+03</rscale>
<asrwt>0</asrwt>
<pdfrwt beam="1">  1       21 0.42827820E-01 0.13851915E+03</pdfrwt>
<pdfrwt beam="2">  1        4 0.11535120E-01 0.13851915E+03</pdfrwt>
<totfact> 0.12826801E+04</totfact>
</mgrwt>
</event>
<event>
 6    4  0.7919556E-003  0.1272315E+03  0.7818608E-02  0.1231622E+00
         21   -1    0    0  501  502  0.00000000000E+00  0.00000000000E+00  0.54175477459E+02  0.54175477459E+02  0.00000000000E+00 0.  1.
         -4   -1    0    0    0  501 -0.00000000000E+00 -0.00000000000E+00 -0.10592020362E+03  0.10592781710E+03  0.12700000000E+01 0.  1.
         25    2    1    2    0    0  0.61060862354E+01  0.22929955474E+02 -0.48304665094E+02  0.13609258721E+03  0.12499913791E+03 0.  0.
    9000005    1    3    3    0    0 -0.12926440570E+01 -0.48505320881E+02  0.17215679921E+01  0.48563369722E+02  0.10000000000E+01 0.  0.
    9000005    1    3    3    0    0  0.73987302924E+01  0.71435276355E+02 -0.50026233086E+02  0.87529217491E+02  0.10000000000E+01 0.  0.
         -4    1    1    2    0  502 -0.61060862354E+01 -0.22929955474E+02 -0.34400610707E+01  0.24010707347E+02  0.12700000000E+01 0. -1.
<mgrwt>
<rscale>  1 0.12723149E+03</rscale>
<asrwt>0</asrwt>
<pdfrwt beam="1">  1       21 0.83346890E-02 0.12723149E+03</pdfrwt>
<pdfrwt beam="2">  1       -4 0.16297146E-01 0.12723149E+03</pdfrwt>
<totfact> 0.14463427E+05</totfact>
</mgrwt>
</event>
<event>
 6    4  0.7919556E-003  0.1304885E+03  0.7818608E-02  0.1226733E+00
         -4   -1    0    0    0  501 -0.00000000000E+00  0.00000000000E+00  0.88633371825E+01  0.89538620724E+01  0.12700000000E+01 0. -1.
         21   -1    0    0  501  502  0.00000000000E+00 -0.00000000000E+00 -0.79512862717E+03  0.79512862717E+03  0.00000000000E+00 0.  1.
         25    2    1    2    0    0  0.17295921253E+02 -0.33207880171E+02 -0.58741251998E+03  0.60173143479E+03  0.12500135515E+03 0.  0.
    9000005    1    3    3    0    0  0.61866462234E+02  0.35738659149E+01 -0.18301211023E+03  0.19322180042E+03  0.10000000000E+01 0.  0.
    9000005    1    3    3    0    0 -0.44570540982E+02 -0.36781746086E+02 -0.40440040975E+03  0.40850963437E+03  0.10000000000E+01 0.  0.
         -4    1    1    2    0  502 -0.17295921253E+02  0.33207880171E+02 -0.19885277001E+03  0.20235105445E+03  0.12700000000E+01 0.  1.
<mgrwt>
<rscale>  1 0.13048851E+03</rscale>
<asrwt>0</asrwt>
<pdfrwt beam="2">  1       21 0.12232754E+00 0.13048851E+03</pdfrwt>
<pdfrwt beam="1">  1       -4 0.13706311E-02 0.13048851E+03</pdfrwt>
<totfact> 0.37589661E+04</totfact>
</mgrwt>
</event>
<event>
 6    4  0.7919556E-003  0.1266340E+03  0.7818608E-02  0.1232537E+00
         21   -1    0    0  501  502  0.00000000000E+00  0.00000000000E+00  0.52062840394E+01  0.52062840394E+01  0.00000000000E+00 0. -1.
          4   -1    0    0  502    0 -0.00000000000E+00 -0.00000000000E+00 -0.17892632787E+04  0.17892637294E+04  0.12700000000E+01 0.  1.
         25    2    1    2    0    0 -0.14783149478E+02 -0.13875253985E+02 -0.17516551984E+04  0.17562266679E+04  0.12500044254E+03 0.  0.
    9000005    1    3    3    0    0 -0.28069956299E+02  0.47821066659E+02 -0.51859869962E+03  0.52155573826E+03  0.10000000000E+01 0.  0.
    9000005    1    3    3    0    0  0.13286806821E+02 -0.61696320644E+02 -0.12330564988E+04  0.12346709296E+04  0.10000000000E+01 0.  0.
          4    1    1    2  501    0  0.14783149478E+02  0.13875253985E+02 -0.32401796274E+02  0.38243345610E+02  0.12700000000E+01 0. -1.
<mgrwt>
<rscale>  1 0.12663402E+03</rscale>
<asrwt>0</asrwt>
<pdfrwt beam="1">  1       21 0.80096734E-03 0.12663402E+03</pdfrwt>
<pdfrwt beam="2">  1        4 0.27528303E+00 0.12663402E+03</pdfrwt>
<totfact> 0.11340079E+04</totfact>
</mgrwt>
</event>
<event>
 6    4  0.7919556E-003  0.1389965E+03  0.7818608E-02  0.1214686E+00
          4   -1    0    0  502    0 -0.00000000000E+00  0.00000000000E+00  0.22357027544E+02  0.22393069924E+02  0.12700000000E+01 0. -1.
         21   -1    0    0  501  502  0.00000000000E+00 -0.00000000000E+00 -0.12289147278E+04  0.12289147278E+04  0.00000000000E+00 0.  1.
         25    2    1    2    0    0  0.50205774105E+01  0.60467243644E+02 -0.20363550694E+03  0.24655109458E+03  0.12505410351E+03 0.  0.
    9000005    1    3    3    0    0  0.32465479498E+02  0.13753313825E+02  0.57078333061E+00  0.35277284389E+02  0.10000000000E+01 0.  0.
    9000005    1    3    3    0    0 -0.27444902088E+02  0.46713929819E+02 -0.20420629027E+03  0.21127381020E+03  0.10000000000E+01 0.  0.
          4    1    1    2  501    0 -0.50205774105E+01 -0.60467243644E+02 -0.10029221933E+04  0.10047567031E+04  0.12700000000E+01 0.  1.
<mgrwt>
<rscale>  1 0.13899648E+03</rscale>
<asrwt>0</asrwt>
<pdfrwt beam="2">  1       21 0.18906382E+00 0.13899648E+03</pdfrwt>
<pdfrwt beam="1">  1        4 0.34423654E-02 0.13899648E+03</pdfrwt>
<totfact> 0.29012829E+03</totfact>
</mgrwt>
</event>
<event>
 6    4  0.7919556E-003  0.1305623E+03  0.7818608E-02  0.1226624E+00
         21   -1    0    0  501  502  0.00000000000E+00  0.00000000000E+00  0.51678134354E+03  0.51678134354E+03  0.00000000000E+00 0.  1.
         -4   -1    0    0    0  501 -0.00000000000E+00 -0.00000000000E+00 -0.14329622164E+02  0.14385790606E+02  0.12700000000E+01 0.  1.
         25    2    1    2    0    0  0.28638014589E+02 -0.24529350434E+02  0.33559048787E+03  0.36009373159E+03  0.12499878029E+03 0.  0.
    9000005    1    3    3    0    0  0.96229189295E+01 -0.62186643520E+02  0.29466148175E+03  0.30130743109E+03  0.10000000000E+01 0.  0.
    9000005    1    3    3    0    0  0.19015095659E+02  0.37657293086E+02  0.40929006114E+02  0.58786300504E+02  0.10000000000E+01 0.  0.
         -4    1    1    2    0  502 -0.28638014589E+02  0.24529350434E+02  0.16686123351E+03  0.17107340255E+03  0.12700000000E+01 0. -1.
<mgrwt>
<rscale>  1 0.13056232E+03</rscale>
<asrwt>0</asrwt>
<pdfrwt beam="1">  1       21 0.79504808E-01 0.13056232E+03</pdfrwt>
<pdfrwt beam="2">  1       -4 0.22089983E-02 0.13056232E+03</pdfrwt>
<totfact> 0.49517335E+04</totfact>
</mgrwt>
</event>
<event>
 6    4  0.7919556E-003  0.1269408E+03  0.7818608E-02  0.1232067E+00
         -4   -1    0    0    0  501 -0.00000000000E+00  0.00000000000E+00  0.51745570205E+02  0.51761152768E+02  0.12700000000E+01 0.  1.
         21   -1    0    0  501  502  0.00000000000E+00 -0.00000000000E+00 -0.38078827356E+03  0.38078827356E+03  0.00000000000E+00 0. -1.
         25    2    1    2    0    0  0.17968095000E+02 -0.13398578490E+02 -0.27135465117E+02  0.12980866636E+03  0.12494631668E+03 0.  0.
    9000005    1    3    3    0    0  0.95868376291E+01 -0.54497404185E+02 -0.56116571689E+02  0.78815887591E+02  0.10000000000E+01 0.  0.
    9000005    1    3    3    0    0  0.83812573708E+01  0.41098825695E+02  0.28981106572E+02  0.50992778771E+02  0.10000000000E+01 0.  0.
         -4    1    1    2    0  502 -0.17968095000E+02  0.13398578490E+02 -0.30190723824E+03  0.30274075997E+03  0.12700000000E+01 0. -1.
<mgrwt>
<rscale>  1 0.12694076E+03</rscale>
<asrwt>0</asrwt>
<pdfrwt beam="2">  1       21 0.58582810E-01 0.12694076E+03</pdfrwt>
<pdfrwt beam="1">  1       -4 0.79622187E-02 0.12694076E+03</pdfrwt>
<totfact> 0.12425978E+04</totfact>
</mgrwt>
</event>
<event>
 6    4  0.7919556E-003  0.1288220E+03  0.7818608E-02  0.1229214E+00
          4   -1    0    0  502    0 -0.00000000000E+00  0.00000000000E+00  0.12903155692E+02  0.12965505266E+02  0.12700000000E+01 0. -1.
         21   -1    0    0  501  502  0.00000000000E+00 -0.00000000000E+00 -0.49766180779E+03  0.49766180779E+03  0.00000000000E+00 0. -1.
         25    2    1    2    0    0  0.67968479907E+01  0.30393773932E+02 -0.37389188333E+03  0.39546207545E+03  0.12500053624E+03 0.  0.
    9000005    1    3    3    0    0  0.32755265967E+02 -0.29668341603E+02 -0.58339566256E+02  0.73195784940E+02  0.10000000000E+01 0.  0.
    9000005    1    3    3    0    0 -0.25958417976E+02  0.60062115535E+02 -0.31555231707E+03  0.32226629051E+03  0.10000000000E+01 0.  0.
          4    1    1    2  501    0 -0.67968479907E+01 -0.30393773932E+02 -0.11086676877E+03  0.11516523761E+03  0.12700000000E+01 0.  1.
<mgrwt>
<rscale>  1 0.12882202E+03</rscale>
<asrwt>0</asrwt>
<pdfrwt beam="2">  1       21 0.76563344E-01 0.12882202E+03</pdfrwt>
<pdfrwt beam="1">  1        4 0.19900219E-02 0.12882202E+03</pdfrwt>
<totfact> 0.63162898E+04</totfact>
</mgrwt>
</event>
<event>
 6    4  0.7919556E-003  0.1384044E+03  0.7818608E-02  0.1215492E+00
         21   -1    0    0  501  502  0.00000000000E+00  0.00000000000E+00  0.37059422591E+02  0.37059422591E+02  0.00000000000E+00 0.  1.
         -4   -1    0    0    0  501 -0.00000000000E+00 -0.00000000000E+00 -0.26930858996E+03  0.26931158447E+03  0.12700000000E+01 0.  1.
         25    2    1    2    0    0  0.20229960049E+02  0.55861284209E+02 -0.18132709333E+03  0.22811243001E+03  0.12500412630E+03 0.  0.
    9000005    1    3    3    0    0  0.71236865447E+00  0.60879646982E+02 -0.17933810247E+02  0.63478031127E+02  0.10000000000E+01 0.  0.
    9000005    1    3    3    0    0  0.19517591395E+02 -0.50183627728E+01 -0.16339328308E+03  0.16463439888E+03  0.10000000000E+01 0.  0.
         -4    1    1    2    0  502 -0.20229960049E+02 -0.55861284209E+02 -0.50922074045E+02  0.78258577052E+02  0.12700000000E+01 0. -1.
<mgrwt>
<rscale>  1 0.13840436E+03</rscale>
<asrwt>0</asrwt>
<pdfrwt beam="1">  1       21 0.57014498E-02 0.13840436E+03</pdfrwt>
<pdfrwt beam="2">  1       -4 0.41433994E-01 0.13840436E+03</pdfrwt>
<totfact> 0.49433346E+04</totfact>
</mgrwt>
</event>
<event>
 6    4  0.7919556E-003  0.1275382E+03  0.7818608E-02  0.1231155E+00
         21   -1    0    0  501  502  0.00000000000E+00  0.00000000000E+00  0.16879859612E+03  0.16879859612E+03  0.00000000000E+00 0. -1.
          4   -1    0    0  502    0 -0.00000000000E+00 -0.00000000000E+00 -0.48165467614E+02  0.48182208029E+02  0.12700000000E+01 0. -1.
         25    2    1    2    0    0  0.23991787658E+02  0.80689299085E+01  0.41861640446E+02  0.13423254896E+03  0.12500106702E+03 0.  0.
    9000005    1    3    3    0    0 -0.50174086871E+02 -0.83883458516E+01  0.23627447385E+02  0.56098659604E+02  0.10000000000E+01 0.  0.
    9000005    1    3    3    0    0  0.74165874529E+02  0.16457275760E+02  0.18234193061E+02  0.78133889361E+02  0.10000000000E+01 0.  0.
          4    1    1    2  501    0 -0.23991787658E+02 -0.80689299085E+01  0.78771488061E+02  0.82748255185E+02  0.12700000000E+01 0.  1.
<mgrwt>
<rscale>  1 0.12753815E+03</rscale>
<asrwt>0</asrwt>
<pdfrwt beam="1">  1       21 0.25969014E-01 0.12753815E+03</pdfrwt>
<pdfrwt beam="2">  1        4 0.74117273E-02 0.12753815E+03</pdfrwt>
<totfact> 0.70979175E+04</totfact>
</mgrwt>
</event>
<event>
 6    4  0.7919556E-003  0.1293807E+03  0.7818608E-02  0.1228377E+00
         21   -1    0    0  501  502  0.00000000000E+00  0.00000000000E+00  0.25652313255E+02  0.25652313255E+02  0.00000000000E+00 0. -1.
          4   -1    0    0  502    0 -0.00000000000E+00 -0.00000000000E+00 -0.27939082163E+03  0.27939370808E+03  0.12700000000E+01 0. -1.
         25    2    1    2    0    0  0.15230630406E+02 -0.29692447244E+02 -0.23060790201E+03  0.26442273519E+03  0.12500305952E+03 0.  0.
    9000005    1    3    3    0    0 -0.19587499927E+02 -0.17006560327E+02  0.45548608120E+01  0.26356024066E+02  0.10000000000E+01 0.  0.
    9000005    1    3    3    0    0  0.34818130333E+02 -0.12685886917E+02 -0.23516276283E+03  0.23806671113E+03  0.10000000000E+01 0.  0.
          4    1    1    2  501    0 -0.15230630406E+02  0.29692447244E+02 -0.23130606365E+02  0.40623286139E+02  0.12700000000E+01 0.  1.
<mgrwt>
<rscale>  1 0.12938075E+03</rscale>
<asrwt>0</asrwt>
<pdfrwt beam="1">  1       21 0.39465099E-02 0.12938075E+03</pdfrwt>
<pdfrwt beam="2">  1        4 0.42985841E-01 0.12938075E+03</pdfrwt>
<totfact> 0.84405912E+04</totfact>
</mgrwt>
</event>
<event>
 6    4  0.7919556E-003  0.1266335E+03  0.7818608E-02  0.1232538E+00
         21   -1    0    0  501  502  0.00000000000E+00  0.00000000000E+00  0.77677945157E+03  0.77677945157E+03  0.00000000000E+00 0.  1.
          4   -1    0    0  502    0 -0.00000000000E+00 -0.00000000000E+00 -0.78272478924E+01  0.79296096731E+01  0.12700000000E+01 0.  1.
         25    2    1    2    0    0 -0.34468736829E+01  0.20039034082E+02  0.53120082711E+03  0.54608640142E+03  0.12499038067E+03 0.  0.
    9000005    1    3    3    0    0  0.35685830990E+02  0.48178373809E+02  0.42800234190E+03  0.43218241393E+03  0.10000000000E+01 0.  0.
    9000005    1    3    3    0    0 -0.39132704672E+02 -0.28139339727E+02  0.10319848521E+03  0.11390398749E+03  0.10000000000E+01 0.  0.
          4    1    1    2  501    0  0.34468736829E+01 -0.20039034082E+02  0.23775137656E+03  0.23862265982E+03  0.12700000000E+01 0. -1.
<mgrwt>
<rscale>  1 0.12663348E+03</rscale>
<asrwt>0</asrwt>
<pdfrwt beam="1">  1       21 0.11950447E+00 0.12663348E+03</pdfrwt>
<pdfrwt beam="2">  1        4 0.12121464E-02 0.12663348E+03</pdfrwt>
<totfact> 0.47824843E+04</totfact>
</mgrwt>
</event>
<event>
 6    4  0.7919556E-003  0.1325156E+03  0.7818608E-02  0.1223770E+00
          4   -1    0    0  502    0 -0.00000000000E+00  0.00000000000E+00  0.16351499922E+03  0.16351993110E+03  0.12700000000E+01 0. -1.
         21   -1    0    0  501  502  0.00000000000E+00 -0.00000000000E+00 -0.47793273081E+02  0.47793273081E+02  0.00000000000E+00 0. -1.
         25    2    1    2    0    0 -0.35724015347E+02 -0.25664213544E+02  0.81551049001E+02  0.15559870692E+03  0.12500210748E+03 0.  0.
    9000005    1    3    3    0    0  0.25597147537E+02  0.33161803745E+02  0.68645211128E+01  0.42462228389E+02  0.10000000000E+01 0.  0.
    9000005    1    3    3    0    0 -0.61321162884E+02 -0.58826017289E+02  0.74686527888E+02  0.11313647854E+03  0.10000000000E+01 0.  0.
          4    1    1    2  501    0  0.35724015347E+02  0.25664213544E+02  0.34170677133E+02  0.55714497261E+02  0.12700000000E+01 0.  1.
<mgrwt>
<rscale>  1 0.13251560E+03</rscale>
<asrwt>0</asrwt>
<pdfrwt beam="2">  1       21 0.73528113E-02 0.13251560E+03</pdfrwt>
<pdfrwt beam="1">  1        4 0.25157831E-01 0.13251560E+03</pdfrwt>
<totfact> 0.82623406E+04</totfact>
</mgrwt>
</event>
<event>
 6    4  0.7919556E-003  0.1298459E+03  0.7818608E-02  0.1227685E+00
         -4   -1    0    0    0  501 -0.00000000000E+00  0.00000000000E+00  0.10574835239E+02  0.10650823457E+02  0.12700000000E+01 0. -1.
         21   -1    0    0  501  502  0.00000000000E+00 -0.00000000000E+00 -0.67612845463E+03  0.67612845463E+03  0.00000000000E+00 0. -1.
         25    2    1    2    0    0 -0.35014275612E+02 -0.28510218060E+01 -0.57855982890E+03  0.59295145542E+03  0.12500330015E+03 0.  0.
    9000005    1    3    3    0    0 -0.38503926946E+02  0.73125473599E+01 -0.46668269520E+02  0.60950415251E+02  0.10000000000E+01 0.  0.
    9000005    1    3    3    0    0  0.34896513347E+01 -0.10163569166E+02 -0.53189155938E+03  0.53200104017E+03  0.10000000000E+01 0.  0.
         -4    1    1    2    0  502  0.35014275612E+02  0.28510218060E+01 -0.86993790488E+02  0.93827822662E+02  0.12700000000E+01 0.  1.
<mgrwt>
<rscale>  1 0.12984588E+03</rscale>
<asrwt>0</asrwt>
<pdfrwt beam="2">  1       21 0.10401978E+00 0.12984588E+03</pdfrwt>
<pdfrwt beam="1">  1       -4 0.16328345E-02 0.12984588E+03</pdfrwt>
<totfact> 0.42493886E+04</totfact>
</mgrwt>
</event>
<event>
 6    4  0.7919556E-003  0.1267800E+03  0.7818608E-02  0.1232313E+00
         21   -1    0    0  501  502  0.00000000000E+00  0.00000000000E+00  0.86206560409E+02  0.86206560409E+02  0.00000000000E+00 0. -1.
         -4   -1    0    0    0  501 -0.00000000000E+00 -0.00000000000E+00 -0.63894755975E+02  0.63907376265E+02  0.12700000000E+01 0. -1.
         25    2    1    2    0    0  0.19771414969E+02 -0.75702271995E+01  0.14926525244E+02  0.12765569902E+03  0.12499983659E+03 0.  0.
    9000005    1    3    3    0    0 -0.39342621627E+02  0.13801943193E+02 -0.29144894931E+02  0.50879862548E+02  0.10000000000E+01 0.  0.
    9000005    1    3    3    0    0  0.59114036596E+02 -0.21372170393E+02  0.44071420176E+02  0.76775836473E+02  0.10000000000E+01 0.  0.
         -4    1    1    2    0  502 -0.19771414969E+02  0.75702271995E+01  0.73852791895E+01  0.22458237652E+02  0.12700000000E+01 0.  1.
<mgrwt>
<rscale>  1 0.12678003E+03</rscale>
<asrwt>0</asrwt>
<pdfrwt beam="1">  1       21 0.13262548E-01 0.12678003E+03</pdfrwt>
<pdfrwt beam="2">  1       -4 0.98316528E-02 0.12678003E+03</pdfrwt>
<totfact> 0.15236265E+05</totfact>
</mgrwt>
</event>
<event>
 6    4  0.7919556E-003  0.1268558E+03  0.7818608E-02  0.1232197E+00
          4   -1    0    0  502    0 -0.00000000000E+00  0.00000000000E+00  0.12926782915E+03  0.12927406759E+03  0.12700000000E+01 0.  1.
         21   -1    0    0  501  502  0.00000000000E+00 -0.00000000000E+00 -0.49264752950E+02  0.49264752950E+02  0.00000000000E+00 0. -1.
         25    2    1    2    0    0  0.18898888025E+02 -0.10454100156E+02  0.89151097110E+02  0.15504934704E+03  0.12500370284E+03 0.  0.
    9000005    1    3    3    0    0 -0.67645882276E+01 -0.89771029913E+01  0.11676505247E+03  0.11730910242E+03  0.10000000000E+01 0.  0.
    9000005    1    3    3    0    0  0.25663476253E+02 -0.14769971642E+01 -0.27613955358E+02  0.37740244627E+02  0.10000000000E+01 0.  0.
          4    1    1    2  501    0 -0.18898888025E+02  0.10454100156E+02 -0.91480209144E+01  0.23489473500E+02  0.12700000000E+01 0. -1.
<mgrwt>
<rscale>  1 0.12685575E+03</rscale>
<asrwt>0</asrwt>
<pdfrwt beam="2">  1       21 0.75791929E-02 0.12685575E+03</pdfrwt>
<pdfrwt beam="1">  1        4 0.19889097E-01 0.12685575E+03</pdfrwt>
<totfact> 0.11954436E+05</totfact>
</mgrwt>
</event>
<event>
 6    4  0.7919556E-003  0.1294271E+03  0.7818608E-02  0.1228308E+00
         21   -1    0    0  501  502  0.00000000000E+00  0.00000000000E+00  0.29065205626E+02  0.29065205626E+02  0.00000000000E+00 0. -1.
         -4   -1    0    0    0  501 -0.00000000000E+00 -0.00000000000E+00 -0.34529981644E+03  0.34530215194E+03  0.12700000000E+01 0.  1.
         25    2    1    2    0    0 -0.10720669000E+02 -0.31806345085E+02 -0.31522777799E+03  0.34076374252E+03  0.12499919948E+03 0.  0.
    9000005    1    3    3    0    0  0.22280509170E+02 -0.38923536971E+02 -0.30064806226E+03  0.30397651251E+03  0.10000000000E+01 0.  0.
    9000005    1    3    3    0    0 -0.33001178170E+02  0.71171918862E+01 -0.14579715728E+02  0.36787230008E+02  0.10000000000E+01 0.  0.
         -4    1    1    2    0  502  0.10720669000E+02  0.31806345085E+02 -0.10068328242E+01  0.33603615041E+02  0.12700000000E+01 0. -1.
<mgrwt>
<rscale>  1 0.12942711E+03</rscale>
<asrwt>0</asrwt>
<pdfrwt beam="1">  1       21 0.44715699E-02 0.12942711E+03</pdfrwt>
<pdfrwt beam="2">  1       -4 0.53125366E-01 0.12942711E+03</pdfrwt>
<totfact> 0.44690456E+04</totfact>
</mgrwt>
</event>
<event>
 6    4  0.7919556E-003  0.1268260E+03  0.7818608E-02  0.1232243E+00
         21   -1    0    0  501  502  0.00000000000E+00  0.00000000000E+00  0.10216474305E+03  0.10216474305E+03  0.00000000000E+00 0. -1.
         -4   -1    0    0    0  501 -0.00000000000E+00 -0.00000000000E+00 -0.13097136027E+03  0.13097751758E+03  0.12700000000E+01 0.  1.
         25    2    1    2    0    0  0.15852849594E+02 -0.14422623439E+02 -0.98266240702E+02  0.16044028610E+03  0.12500202572E+03 0.  0.
    9000005    1    3    3    0    0  0.61698538519E+02  0.16106781182E+02 -0.24375992652E+02  0.68273912098E+02  0.10000000000E+01 0.  0.
    9000005    1    3    3    0    0 -0.45845688925E+02 -0.30529404621E+02 -0.73890248050E+02  0.92166374000E+02  0.10000000000E+01 0.  0.
         -4    1    1    2    0  502 -0.15852849594E+02  0.14422623439E+02  0.69459623476E+02  0.72701974530E+02  0.12700000000E+01 0. -1.
<mgrwt>
<rscale>  1 0.12682599E+03</rscale>
<asrwt>0</asrwt>
<pdfrwt beam="1">  1       21 0.15717653E-01 0.12682599E+03</pdfrwt>
<pdfrwt beam="2">  1       -4 0.20150521E-01 0.12682599E+03</pdfrwt>
<totfact> 0.32335677E+04</totfact>
</mgrwt>
</event>
<event>
 6    4  0.7919556E-003  0.1328368E+03  0.7818608E-02  0.1223306E+00
         21   -1    0    0  501  502  0.00000000000E+00  0.00000000000E+00  0.68315419236E+01  0.68315419236E+01  0.00000000000E+00 0.  1.
         -4   -1    0    0    0  501 -0.00000000000E+00 -0.00000000000E+00 -0.12098390979E+04  0.12098397644E+04  0.12700000000E+01 0.  1.
         25    2    1    2    0    0  0.43282025232E+02 -0.12142820157E+02 -0.99713368695E+03  0.10059429395E+04  0.12499930395E+03 0.  0.
    9000005    1    3    3    0    0 -0.40397091046E+02 -0.84903100117E+01 -0.50919546367E+03  0.51086694016E+03  0.10000000000E+01 0.  0.
    9000005    1    3    3    0    0  0.83679116279E+02 -0.36525101453E+01 -0.48793822329E+03  0.49507599929E+03  0.10000000000E+01 0.  0.
         -4    1    1    2    0  502 -0.43282025232E+02  0.12142820157E+02 -0.20587386899E+03  0.21072836692E+03  0.12700000000E+01 0. -1.
<mgrwt>
<rscale>  1 0.13283677E+03</rscale>
<asrwt>0</asrwt>
<pdfrwt beam="1">  1       21 0.10510062E-02 0.13283677E+03</pdfrwt>
<pdfrwt beam="2">  1       -4 0.18613827E+00 0.13283677E+03</pdfrwt>
<totfact> 0.25117100E+04</totfact>
</mgrwt>
</event>
<event>
 6    4  0.7919556E-003  0.1266659E+03  0.7818608E-02  0.1232489E+00
         -4   -1    0    0    0  501 -0.00000000000E+00  0.00000000000E+00  0.94322367108E+03  0.94322452607E+03  0.12700000000E+01 0. -1.
         21   -1    0    0  501  502  0.00000000000E+00 -0.00000000000E+00 -0.16435396425E+02  0.16435396425E+02  0.00000000000E+00 0.  1.
         25    2    1    2    0    0 -0.30802297929E+01  0.20271211120E+02  0.93024402731E+03  0.93882809727E+03  0.12499534412E+03 0.  0.
    9000005    1    3    3    0    0  0.36382839397E+02  0.51775787309E+02  0.71240827317E+03  0.71521394760E+03  0.10000000000E+01 0.  0.
    9000005    1    3    3    0    0 -0.39463069190E+02 -0.31504576189E+02  0.21783575414E+03  0.22361414967E+03  0.10000000000E+01 0.  0.
         -4    1    1    2    0  502  0.30802297929E+01 -0.20271211120E+02 -0.34557526596E+01  0.20831825227E+02  0.12700000000E+01 0.  1.
<mgrwt>
<rscale>  1 0.12666588E+03</rscale>
<asrwt>0</asrwt>
<pdfrwt beam="2">  1       21 0.25285233E-02 0.12666588E+03</pdfrwt>
<pdfrwt beam="1">  1       -4 0.14511513E+00 0.12666588E+03</pdfrwt>
<totfact> 0.11780297E+04</totfact>
</mgrwt>
</event>
<event>
 6    4  0.7919556E-003  0.1360463E+03  0.7818608E-02  0.1218750E+00
          4   -1    0    0  502    0 -0.00000000000E+00  0.00000000000E+00  0.75094189646E+02  0.75104928058E+02  0.12700000000E+01 0. -1.
         21   -1    0    0  501  502  0.00000000000E+00 -0.00000000000E+00 -0.27278607032E+03  0.27278607032E+03  0.00000000000E+00 0. -1.
         25    2    1    2    0    0 -0.42083691358E+02 -0.33350490472E+02  0.70423780904E+01  0.13622847948E+03  0.12500124495E+03 0.  0.
    9000005    1    3    3    0    0 -0.51822817071E+02  0.30797430548E+02 -0.23245058117E+02  0.64617480796E+02  0.10000000000E+01 0.  0.
    9000005    1    3    3    0    0  0.97391257132E+01 -0.64147921020E+02  0.30287436208E+02  0.71610998687E+02  0.10000000000E+01 0.  0.
          4    1    1    2  501    0  0.42083691358E+02  0.33350490472E+02 -0.20473425876E+03  0.21166251889E+03  0.12700000000E+01 0.  1.
<mgrwt>
<rscale>  1 0.13604633E+03</rscale>
<asrwt>0</asrwt>
<pdfrwt beam="2">  1       21 0.41967088E-01 0.13604633E+03</pdfrwt>
<pdfrwt beam="1">  1        4 0.11554005E-01 0.13604633E+03</pdfrwt>
<totfact> 0.13307462E+04</totfact>
</mgrwt>
</event>
<event>
 6    4  0.7919556E-003  0.1283022E+03  0.7818608E-02  0.1229997E+00
         -4   -1    0    0    0  501 -0.00000000000E+00  0.00000000000E+00  0.12917880609E+03  0.12918504884E+03  0.12700000000E+01 0. -1.
         21   -1    0    0  501  502  0.00000000000E+00 -0.00000000000E+00 -0.75792003038E+02  0.75792003038E+02  0.00000000000E+00 0.  1.
         25    2    1    2    0    0 -0.24850584745E+02  0.14787450259E+02  0.91159103589E+02  0.15738945018E+03  0.12500094645E+03 0.  0.
    9000005    1    3    3    0    0  0.13624450451E+02 -0.40548312503E+02  0.77629488804E+02  0.88640446913E+02  0.10000000000E+01 0.  0.
    9000005    1    3    3    0    0 -0.38475035195E+02  0.55335762762E+02  0.13529614785E+02  0.68749003265E+02  0.10000000000E+01 0.  0.
         -4    1    1    2    0  502  0.24850584745E+02 -0.14787450259E+02 -0.37772300538E+02  0.47587601697E+02  0.12700000000E+01 0.  1.
<mgrwt>
<rscale>  1 0.12830221E+03</rscale>
<asrwt>0</asrwt>
<pdfrwt beam="2">  1       21 0.11660308E-01 0.12830221E+03</pdfrwt>
<pdfrwt beam="1">  1       -4 0.19874961E-01 0.12830221E+03</pdfrwt>
<totfact> 0.56607889E+04</totfact>
</mgrwt>
</event>
<event>
 6    4  0.7919556E-003  0.1267849E+03  0.7818608E-02  0.1232306E+00
         21   -1    0    0  501  502  0.00000000000E+00  0.00000000000E+00  0.12784724887E+04  0.12784724887E+04  0.00000000000E+00 0.  1.
         -4   -1    0    0    0  501 -0.00000000000E+00 -0.00000000000E+00 -0.56588513329E+01  0.57996119187E+01  0.12700000000E+01 0.  1.
         25    2    1    2    0    0 -0.17949144141E+02 -0.11302178034E+02  0.72190179909E+03  0.73295061776E+03  0.12499795817E+03 0.  0.
    9000005    1    3    3    0    0  0.20380090748E+02  0.13205015389E+02  0.26106570754E+02  0.35668944011E+02  0.10000000000E+01 0.  0.
    9000005    1    3    3    0    0 -0.38329234888E+02 -0.24507193423E+02  0.69579522833E+03  0.69728167375E+03  0.10000000000E+01 0.  0.
         -4    1    1    2    0  502  0.17949144141E+02  0.11302178034E+02  0.55091183829E+03  0.55132148287E+03  0.12700000000E+01 0. -1.
<mgrwt>
<rscale>  1 0.12678486E+03</rscale>
<asrwt>0</asrwt>
<pdfrwt beam="1">  1       21 0.19668785E+00 0.12678486E+03</pdfrwt>
<pdfrwt beam="2">  1       -4 0.88146979E-03 0.12678486E+03</pdfrwt>
<totfact> 0.20905682E+04</totfact>
</mgrwt>
</event>
<event>
 6    4  0.7919556E-003  0.1351277E+03  0.7818608E-02  0.1220040E+00
         21   -1    0    0  501  502  0.00000000000E+00  0.00000000000E+00  0.15701408088E+03  0.15701408088E+03  0.00000000000E+00 0. -1.
         -4   -1    0    0    0  501 -0.00000000000E+00 -0.00000000000E+00 -0.71926192942E+02  0.71937404256E+02  0.12700000000E+01 0. -1.
         25    2    1    2    0    0 -0.50209594461E+02  0.10657853714E+02  0.67616211964E+01  0.13529674589E+03  0.12499958682E+03 0.  0.
    9000005    1    3    3    0    0 -0.79849612487E+02  0.43655689699E+01 -0.31954774505E+02  0.86122740438E+02  0.10000000000E+01 0.  0.
    9000005    1    3    3    0    0  0.29640018026E+02  0.62922847445E+01  0.38716395702E+02  0.49174005450E+02  0.10000000000E+01 0.  0.
         -4    1    1    2    0  502  0.50209594461E+02 -0.10657853714E+02  0.78326266739E+02  0.93654739245E+02  0.12700000000E+01 0.  1.
<mgrwt>
<rscale>  1 0.13512768E+03</rscale>
<asrwt>0</asrwt>
<pdfrwt beam="1">  1       21 0.24156012E-01 0.13512768E+03</pdfrwt>
<pdfrwt beam="2">  1       -4 0.11066826E-01 0.13512768E+03</pdfrwt>
<totfact> 0.41935931E+04</totfact>
</mgrwt>
</event>
<event>
 6    4  0.7919556E-003  0.1270233E+03  0.7818608E-02  0.1231941E+00
         21   -1    0    0  501  502  0.00000000000E+00  0.00000000000E+00  0.21241525538E+03  0.21241525538E+03  0.00000000000E+00 0.  1.
         -4   -1    0    0    0  501 -0.00000000000E+00 -0.00000000000E+00 -0.41198046702E+02  0.41217617010E+02  0.12700000000E+01 0. -1.
         25    2    1    2    0    0  0.13023262811E+02 -0.18356962139E+02  0.60593389792E+02  0.14073546038E+03  0.12501330925E+03 0.  0.
    9000005    1    3    3    0    0 -0.99372067731E+00  0.43326074198E+02 -0.11471974709E+02  0.44841302277E+02  0.10000000000E+01 0.  0.
    9000005    1    3    3    0    0  0.14016983488E+02 -0.61683036337E+02  0.72065364501E+02  0.95894158104E+02  0.10000000000E+01 0.  0.
         -4    1    1    2    0  502 -0.13023262811E+02  0.18356962139E+02  0.11062381888E+03  0.11289741200E+03  0.12700000000E+01 0.  1.
<mgrwt>
<rscale>  1 0.12702327E+03</rscale>
<asrwt>0</asrwt>
<pdfrwt beam="1">  1       21 0.32679270E-01 0.12702327E+03</pdfrwt>
<pdfrwt beam="2">  1       -4 0.63399586E-02 0.12702327E+03</pdfrwt>
<totfact> 0.58902714E+04</totfact>
</mgrwt>
</event>
<event>
 6    4  0.7919556E-003  0.1284160E+03  0.7818608E-02  0.1229825E+00
         -4   -1    0    0    0  501 -0.00000000000E+00  0.00000000000E+00  0.15759483608E+03  0.15759995323E+03  0.12700000000E+01 0. -1.
         21   -1    0    0  501  502  0.00000000000E+00 -0.00000000000E+00 -0.40386450830E+02  0.40386450830E+02  0.00000000000E+00 0. -1.
         25    2    1    2    0    0  0.52692674180E+01 -0.28946168845E+02  0.10586747234E+03  0.16642891564E+03  0.12500006556E+03 0.  0.
    9000005    1    3    3    0    0  0.41900574334E+02 -0.56878659450E+02  0.96185052677E+02  0.11934573469E+03  0.10000000000E+01 0.  0.
    9000005    1    3    3    0    0 -0.36631306916E+02  0.27932490605E+02  0.96824196664E+01  0.47083180950E+02  0.10000000000E+01 0.  0.
         -4    1    1    2    0  502 -0.52692674180E+01  0.28946168845E+02  0.11340912906E+02  0.31557488421E+02  0.12700000000E+01 0.  1.
<mgrwt>
<rscale>  1 0.12841597E+03</rscale>
<asrwt>0</asrwt>
<pdfrwt beam="2">  1       21 0.62133002E-02 0.12841597E+03</pdfrwt>
<pdfrwt beam="1">  1       -4 0.24247289E-01 0.12841597E+03</pdfrwt>
<totfact> 0.11735476E+05</totfact>
</mgrwt>
</event>
<event>
 6    4  0.7919556E-003  0.1307908E+03  0.7818608E-02  0.1226287E+00
         21   -1    0    0  501  502  0.00000000000E+00  0.00000000000E+00  0.13638562400E+03  0.13638562400E+03  0.00000000000E+00 0.  1.
          4   -1    0    0  502    0 -0.00000000000E+00 -0.00000000000E+00 -0.56495487257E+02  0.56509760045E+02  0.12700000000E+01 0.  1.
         25    2    1    2    0    0 -0.21954007370E+02  0.31616195093E+02  0.81923278939E+02  0.15432974132E+03  0.12499873276E+03 0.  0.
    9000005    1    3    3    0    0 -0.50064499609E+02  0.56739103479E+02  0.14466255043E+02  0.77045781972E+02  0.10000000000E+01 0.  0.
    9000005    1    3    3    0    0  0.28110492238E+02 -0.25122908386E+02  0.67457023896E+02  0.77283959349E+02  0.10000000000E+01 0.  0.
          4    1    1    2  501    0  0.21954007370E+02 -0.31616195093E+02 -0.20331421935E+01  0.38565642727E+02  0.12700000000E+01 0. -1.
<mgrwt>
<rscale>  1 0.13079085E+03</rscale>
<asrwt>0</asrwt>
<pdfrwt beam="1">  1       21 0.20982404E-01 0.13079085E+03</pdfrwt>
<pdfrwt beam="2">  1        4 0.86931662E-02 0.13079085E+03</pdfrwt>
<totfact> 0.81602342E+04</totfact>
</mgrwt>
</event>
<event>
 6    4  0.7919556E-003  0.1396638E+03  0.7818608E-02  0.1213782E+00
         -4   -1    0    0    0  501 -0.00000000000E+00  0.00000000000E+00  0.12031577826E+03  0.12032248085E+03  0.12700000000E+01 0. -1.
         21   -1    0    0  501  502  0.00000000000E+00 -0.00000000000E+00 -0.88634548607E+02  0.88634548607E+02  0.00000000000E+00 0. -1.
         25    2    1    2    0    0  0.20654475246E+02 -0.58775569351E+02  0.41898130748E+02  0.14581296507E+03  0.12499917008E+03 0.  0.
    9000005    1    3    3    0    0 -0.19104916261E+02  0.29863385347E+02  0.32675230325E+02  0.48223337571E+02  0.10000000000E+01 0.  0.
    9000005    1    3    3    0    0  0.39759391507E+02 -0.88638954697E+02  0.92229004228E+01  0.97589627497E+02  0.10000000000E+01 0.  0.
         -4    1    1    2    0  502 -0.20654475246E+02  0.58775569351E+02 -0.10216901092E+02  0.63144064393E+02  0.12700000000E+01 0.  1.
<mgrwt>
<rscale>  1 0.13966377E+03</rscale>
<asrwt>0</asrwt>
<pdfrwt beam="2">  1       21 0.13636084E-01 0.13966377E+03</pdfrwt>
<pdfrwt beam="1">  1       -4 0.18511335E-01 0.13966377E+03</pdfrwt>
<totfact> 0.49162221E+04</totfact>
</mgrwt>
</event>
<event>
 6    4  0.7919556E-003  0.1282134E+03  0.7818608E-02  0.1230131E+00
         21   -1    0    0  501  502  0.00000000000E+00  0.00000000000E+00  0.16422148795E+03  0.16422148795E+03  0.00000000000E+00 0. -1.
          4   -1    0    0  502    0 -0.00000000000E+00 -0.00000000000E+00 -0.37516278202E+02  0.37537768050E+02  0.12700000000E+01 0. -1.
         25    2    1    2    0    0  0.16797709843E+02 -0.23051037906E+02  0.10787825610E+03  0.16756012607E+03  0.12500065722E+03 0.  0.
    9000005    1    3    3    0    0  0.56136645236E+02 -0.28589129502E+02  0.11106681048E+03  0.12769298201E+03  0.10000000000E+01 0.  0.
    9000005    1    3    3    0    0 -0.39338935393E+02  0.55380915954E+01 -0.31885543794E+01  0.39867144059E+02  0.10000000000E+01 0.  0.
          4    1    1    2  501    0 -0.16797709843E+02  0.23051037906E+02  0.18826953648E+02  0.34199129933E+02  0.12700000000E+01 0.  1.
<mgrwt>
<rscale>  1 0.12821341E+03</rscale>
<asrwt>0</asrwt>
<pdfrwt beam="1">  1       21 0.25264844E-01 0.12821341E+03</pdfrwt>
<pdfrwt beam="2">  1        4 0.57737660E-02 0.12821341E+03</pdfrwt>
<totfact> 0.11248331E+05</totfact>
</mgrwt>
</event>
<event>
 6    4  0.7919556E-003  0.1274501E+03  0.7818608E-02  0.1231289E+00
         -4   -1    0    0    0  501 -0.00000000000E+00  0.00000000000E+00  0.21658976820E+03  0.21659349157E+03  0.12700000000E+01 0. -1.
         21   -1    0    0  501  502  0.00000000000E+00 -0.00000000000E+00 -0.29368033118E+02  0.29368033118E+02  0.00000000000E+00 0. -1.
         25    2    1    2    0    0 -0.74776169369E+01 -0.23713812593E+02  0.17900892571E+03  0.21974468276E+03  0.12500108181E+03 0.  0.
    9000005    1    3    3    0    0  0.33020147288E+02 -0.60869457837E+02  0.12368841333E+03  0.14175769685E+03  0.10000000000E+01 0.  0.
    9000005    1    3    3    0    0 -0.40497764225E+02  0.37155645244E+02  0.55320512382E+02  0.77986985907E+02  0.10000000000E+01 0.  0.
         -4    1    1    2    0  502  0.74776169369E+01  0.23713812593E+02  0.82128093658E+01  0.26216841924E+02  0.12700000000E+01 0.  1.
<mgrwt>
<rscale>  1 0.12745011E+03</rscale>
<asrwt>0</asrwt>
<pdfrwt beam="2">  1       21 0.45181591E-02 0.12745011E+03</pdfrwt>
<pdfrwt beam="1">  1       -4 0.33323900E-01 0.12745011E+03</pdfrwt>
<totfact> 0.11045105E+05</totfact>
</mgrwt>
</event>
<event>
 6    4  0.7919556E-003  0.1345697E+03  0.7818608E-02  0.1220828E+00
         21   -1    0    0  501  502  0.00000000000E+00  0.00000000000E+00  0.18632620368E+02  0.18632620368E+02  0.00000000000E+00 0.  1.
          4   -1    0    0  502    0 -0.00000000000E+00 -0.00000000000E+00 -0.23326981026E+04  0.23326984483E+04  0.12700000000E+01 0. -1.
         25    2    1    2    0    0 -0.49345304780E+02 -0.69380659800E+01 -0.22934415258E+04  0.22973861306E+04  0.12500362028E+03 0.  0.
    9000005    1    3    3    0    0 -0.52212780146E+02 -0.89495687900E+01 -0.35417483658E+03  0.35811602039E+03  0.10000000000E+01 0.  0.
    9000005    1    3    3    0    0  0.28674753660E+01  0.20115028100E+01 -0.19392666892E+04  0.19392701102E+04  0.10000000000E+01 0.  0.
          4    1    1    2  501    0  0.49345304780E+02  0.69380659800E+01 -0.20623956441E+02  0.53944938063E+02  0.12700000000E+01 0.  1.
<mgrwt>
<rscale>  1 0.13456969E+03</rscale>
<asrwt>0</asrwt>
<pdfrwt beam="1">  1       21 0.28665566E-02 0.13456969E+03</pdfrwt>
<pdfrwt beam="2">  1        4 0.35888003E+00 0.13456969E+03</pdfrwt>
<totfact> 0.47639016E+02</totfact>
</mgrwt>
</event>
<event>
 6    4  0.7919556E-003  0.1309990E+03  0.7818608E-02  0.1225981E+00
         21   -1    0    0  501  502  0.00000000000E+00  0.00000000000E+00  0.93701600549E+02  0.93701600549E+02  0.00000000000E+00 0. -1.
          4   -1    0    0  502    0 -0.00000000000E+00 -0.00000000000E+00 -0.11689860310E+03  0.11690550161E+03  0.12700000000E+01 0. -1.
         25    2    1    2    0    0 -0.26511332552E+02  0.28935790950E+02 -0.70794021326E+02  0.14890442921E+03  0.12498241809E+03 0.  0.
    9000005    1    3    3    0    0  0.16625171784E+02 -0.34053240694E+02 -0.61150837657E+02  0.71947512012E+02  0.10000000000E+01 0.  0.
    9000005    1    3    3    0    0 -0.43136504337E+02  0.62989031644E+02 -0.96431836697E+01  0.76956917202E+02  0.10000000000E+01 0.  0.
          4    1    1    2  501    0  0.26511332552E+02 -0.28935790950E+02  0.47597018778E+02  0.61702672942E+02  0.12700000000E+01 0.  1.
<mgrwt>
<rscale>  1 0.13099899E+03</rscale>
<asrwt>0</asrwt>
<pdfrwt beam="1">  1       21 0.14415631E-01 0.13099899E+03</pdfrwt>
<pdfrwt beam="2">  1        4 0.17985593E-01 0.13099899E+03</pdfrwt>
<totfact> 0.46483991E+04</totfact>
</mgrwt>
</event>
<event>
 6    4  0.7919556E-003  0.1273203E+03  0.7818608E-02  0.1231487E+00
         21   -1    0    0  501  502  0.00000000000E+00  0.00000000000E+00  0.73183315007E+01  0.73183315007E+01  0.00000000000E+00 0. -1.
          4   -1    0    0  502    0 -0.00000000000E+00 -0.00000000000E+00 -0.83005429184E+03  0.83005526340E+03  0.12700000000E+01 0. -1.
         25    2    1    2    0    0  0.11457832844E+02  0.21244625483E+02 -0.74990445942E+03  0.76063601303E+03  0.12501131955E+03 0.  0.
    9000005    1    3    3    0    0  0.68247775308E+02  0.17134600557E+02 -0.41477375437E+03  0.42070134381E+03  0.10000000000E+01 0.  0.
    9000005    1    3    3    0    0 -0.56789942465E+02  0.41100249254E+01 -0.33513070505E+03  0.33993466922E+03  0.10000000000E+01 0.  0.
          4    1    1    2  501    0 -0.11457832844E+02 -0.21244625483E+02 -0.72831500918E+02  0.76737581871E+02  0.12700000000E+01 0.  1.
<mgrwt>
<rscale>  1 0.12732025E+03</rscale>
<asrwt>0</asrwt>
<pdfrwt beam="1">  1       21 0.11258979E-02 0.12732025E+03</pdfrwt>
<pdfrwt beam="2">  1        4 0.12770913E+00 0.12732025E+03</pdfrwt>
<totfact> 0.59170105E+04</totfact>
</mgrwt>
</event>
<event>
 6    4  0.7919556E-003  0.1548649E+03  0.7818608E-02  0.1194619E+00
          4   -1    0    0  502    0 -0.00000000000E+00  0.00000000000E+00  0.20195171479E+03  0.20195570803E+03  0.12700000000E+01 0. -1.
         21   -1    0    0  501  502  0.00000000000E+00 -0.00000000000E+00 -0.13753514667E+03  0.13753514667E+03  0.00000000000E+00 0.  1.
         25    2    1    2    0    0 -0.73231800793E+02 -0.54700999989E+02  0.14903093762E+03  0.21492641164E+03  0.12501218343E+03 0.  0.
    9000005    1    3    3    0    0 -0.82327239573E+02 -0.15380175710E+02  0.15293288779E+03  0.17436683270E+03  0.10000000000E+01 0.  0.
    9000005    1    3    3    0    0  0.90954387804E+01 -0.39320824279E+02 -0.39019501673E+01  0.40559578938E+02  0.10000000000E+01 0.  0.
          4    1    1    2  501    0  0.73231800793E+02  0.54700999989E+02 -0.84614369499E+02  0.12456444305E+03  0.12700000000E+01 0.  1.
<mgrwt>
<rscale>  1 0.15486492E+03</rscale>
<asrwt>0</asrwt>
<pdfrwt beam="2">  1       21 0.21159253E-01 0.15486492E+03</pdfrwt>
<pdfrwt beam="1">  1        4 0.31070253E-01 0.15486492E+03</pdfrwt>
<totfact> 0.85673245E+03</totfact>
</mgrwt>
</event>
<event>
 6    4  0.7919556E-003  0.1581245E+03  0.7818608E-02  0.1190831E+00
          4   -1    0    0  502    0 -0.00000000000E+00  0.00000000000E+00  0.18300668136E+03  0.18301108798E+03  0.12700000000E+01 0.  1.
         21   -1    0    0  501  502  0.00000000000E+00 -0.00000000000E+00 -0.11852841806E+03  0.11852841806E+03  0.00000000000E+00 0. -1.
         25    2    1    2    0    0  0.72638825781E+02  0.64049153516E+02  0.11188767330E+03  0.19370649563E+03  0.12499864774E+03 0.  0.
    9000005    1    3    3    0    0  0.10407870631E+03  0.35561177557E+02  0.55692323251E+02  0.12328669566E+03  0.10000000000E+01 0.  0.
    9000005    1    3    3    0    0 -0.31439880529E+02  0.28487975959E+02  0.56195350049E+02  0.70419799979E+02  0.10000000000E+01 0.  0.
          4    1    1    2  501    0 -0.72638825781E+02 -0.64049153516E+02 -0.47409409998E+02  0.10783301041E+03  0.12700000000E+01 0. -1.
<mgrwt>
<rscale>  1 0.15812449E+03</rscale>
<asrwt>0</asrwt>
<pdfrwt beam="2">  1       21 0.18235141E-01 0.15812449E+03</pdfrwt>
<pdfrwt beam="1">  1        4 0.28155736E-01 0.15812449E+03</pdfrwt>
<totfact> 0.13624742E+04</totfact>
</mgrwt>
</event>
<event>
 6    4  0.7919556E-003  0.1498379E+03  0.7818608E-02  0.1200672E+00
         -4   -1    0    0    0  501 -0.00000000000E+00  0.00000000000E+00  0.24953827973E+03  0.24954151148E+03  0.12700000000E+01 0. -1.
         21   -1    0    0  501  502  0.00000000000E+00 -0.00000000000E+00 -0.71542049139E+02  0.71542049139E+02  0.00000000000E+00 0.  1.
         25    2    1    2    0    0 -0.82599069811E+02 -0.19026437346E+01  0.18510258668E+03  0.23814780485E+03  0.12500073190E+03 0.  0.
    9000005    1    3    3    0    0 -0.33390726880E+02  0.44918380187E+02  0.15318317679E+03  0.16309103952E+03  0.10000000000E+01 0.  0.
    9000005    1    3    3    0    0 -0.49208342931E+02 -0.46821023921E+02  0.31919409890E+02  0.75056765337E+02  0.10000000000E+01 0.  0.
         -4    1    1    2    0  502  0.82599069811E+02  0.19026437346E+01 -0.71063560885E+01  0.82935755762E+02  0.12700000000E+01 0.  1.
<mgrwt>
<rscale>  1 0.14983794E+03</rscale>
<asrwt>0</asrwt>
<pdfrwt beam="2">  1       21 0.11006469E-01 0.14983794E+03</pdfrwt>
<pdfrwt beam="1">  1       -4 0.38391620E-01 0.14983794E+03</pdfrwt>
<totfact> 0.18584520E+04</totfact>
</mgrwt>
</event>
<event>
 6    4  0.7919556E-003  0.1278071E+03  0.7818608E-02  0.1230746E+00
         -4   -1    0    0    0  501 -0.00000000000E+00  0.00000000000E+00  0.30680350530E+03  0.30680613384E+03  0.12700000000E+01 0.  1.
         21   -1    0    0  501  502  0.00000000000E+00 -0.00000000000E+00 -0.12129011079E+03  0.12129011079E+03  0.00000000000E+00 0. -1.
         25    2    1    2    0    0 -0.18183508268E+02 -0.19479273882E+02  0.29177376471E+03  0.31853821773E+03  0.12499833718E+03 0.  0.
    9000005    1    3    3    0    0 -0.21531565572E+02  0.42438159945E+02  0.50394699378E+02  0.69319776838E+02  0.10000000000E+01 0.  0.
    9000005    1    3    3    0    0  0.33480573037E+01 -0.61917433827E+02  0.24137906533E+03  0.24921844089E+03  0.10000000000E+01 0.  0.
         -4    1    1    2    0  502  0.18183508268E+02  0.19479273882E+02 -0.10626037020E+03  0.10955802690E+03  0.12700000000E+01 0. -1.
<mgrwt>
<rscale>  1 0.12780715E+03</rscale>
<asrwt>0</asrwt>
<pdfrwt beam="2">  1       21 0.18660017E-01 0.12780715E+03</pdfrwt>
<pdfrwt beam="1">  1       -4 0.47201253E-01 0.12780715E+03</pdfrwt>
<totfact> 0.47037959E+03</totfact>
</mgrwt>
</event>
<event>
 6    4  0.7919556E-003  0.1318201E+03  0.7818608E-02  0.1224780E+00
         21   -1    0    0  501  502  0.00000000000E+00  0.00000000000E+00  0.47198671839E+03  0.47198671839E+03  0.00000000000E+00 0. -1.
         -4   -1    0    0    0  501 -0.00000000000E+00 -0.00000000000E+00 -0.16011804797E+02  0.16062091796E+02  0.12700000000E+01 0.  1.
         25    2    1    2    0    0 -0.27783768792E+02 -0.31292236903E+02  0.33294200768E+03  0.35808785167E+03  0.12500154856E+03 0.  0.
    9000005    1    3    3    0    0 -0.23074226412E+02  0.13198566120E+02  0.30317855288E+03  0.30434332093E+03  0.10000000000E+01 0.  0.
    9000005    1    3    3    0    0 -0.47095423804E+01 -0.44490803023E+02  0.29763454799E+02  0.53744530742E+02  0.10000000000E+01 0.  0.
         -4    1    1    2    0  502  0.27783768792E+02  0.31292236903E+02  0.12303290592E+03  0.12996095851E+03  0.12700000000E+01 0. -1.
<mgrwt>
<rscale>  1 0.13182006E+03</rscale>
<asrwt>0</asrwt>
<pdfrwt beam="1">  1       21 0.72613331E-01 0.13182006E+03</pdfrwt>
<pdfrwt beam="2">  1       -4 0.24673546E-02 0.13182006E+03</pdfrwt>
<totfact> 0.51047080E+04</totfact>
</mgrwt>
</event>
<event>
 6    4  0.7919556E-003  0.1301116E+03  0.7818608E-02  0.1227290E+00
          4   -1    0    0  502    0 -0.00000000000E+00  0.00000000000E+00  0.79185859895E+02  0.79196043507E+02  0.12700000000E+01 0. -1.
         21   -1    0    0  501  502  0.00000000000E+00 -0.00000000000E+00 -0.10758112464E+03  0.10758112464E+03  0.00000000000E+00 0. -1.
         25    2    1    2    0    0  0.33057818547E+02 -0.14531813061E+02  0.14241710276E+02  0.13088873019E+03  0.12500016169E+03 0.  0.
    9000005    1    3    3    0    0 -0.35134091920E+02 -0.61690348984E+01  0.43451871416E+02  0.56227453581E+02  0.10000000000E+01 0.  0.
    9000005    1    3    3    0    0  0.68191910467E+02 -0.83627781624E+01 -0.29210161141E+02  0.74661276614E+02  0.10000000000E+01 0.  0.
          4    1    1    2  501    0 -0.33057818547E+02  0.14531813061E+02 -0.42636975023E+02  0.55888437955E+02  0.12700000000E+01 0.  1.
<mgrwt>
<rscale>  1 0.13011162E+03</rscale>
<asrwt>0</asrwt>
<pdfrwt beam="2">  1       21 0.16550942E-01 0.13011162E+03</pdfrwt>
<pdfrwt beam="1">  1        4 0.12183800E-01 0.13011162E+03</pdfrwt>
<totfact> 0.71332551E+04</totfact>
</mgrwt>
</event>
<event>
 6    4  0.7919556E-003  0.1501863E+03  0.7818608E-02  0.1200244E+00
         21   -1    0    0  501  502  0.00000000000E+00  0.00000000000E+00  0.39736443763E+02  0.39736443763E+02  0.00000000000E+00 0.  1.
         -4   -1    0    0    0  501 -0.00000000000E+00 -0.00000000000E+00 -0.85545612392E+03  0.85545706663E+03  0.12700000000E+01 0. -1.
         25    2    1    2    0    0  0.82367820649E+02 -0.12119637269E+02 -0.79544130155E+03  0.80949538309E+03  0.12499827014E+03 0.  0.
    9000005    1    3    3    0    0  0.35178342747E+02 -0.13435678344E+02 -0.50211780731E+02  0.62771459878E+02  0.10000000000E+01 0.  0.
    9000005    1    3    3    0    0  0.47189477902E+02  0.13160410749E+01 -0.74522952082E+03  0.74672392321E+03  0.10000000000E+01 0.  0.
         -4    1    1    2    0  502 -0.82367820649E+02  0.12119637269E+02 -0.20278378607E+02  0.85698127313E+02  0.12700000000E+01 0.  1.
<mgrwt>
<rscale>  1 0.15018625E+03</rscale>
<asrwt>0</asrwt>
<pdfrwt beam="1">  1       21 0.61132989E-02 0.15018625E+03</pdfrwt>
<pdfrwt beam="2">  1       -4 0.13161027E+00 0.15018625E+03</pdfrwt>
<totfact> 0.35049855E+03</totfact>
</mgrwt>
</event>
<event>
 6    4  0.7919556E-003  0.1266092E+03  0.7818608E-02  0.1232576E+00
         21   -1    0    0  501  502  0.00000000000E+00  0.00000000000E+00  0.91185957595E+02  0.91185957595E+02  0.00000000000E+00 0.  1.
         -4   -1    0    0    0  501 -0.00000000000E+00 -0.00000000000E+00 -0.69190080860E+02  0.69201735451E+02  0.12700000000E+01 0.  1.
         25    2    1    2    0    0  0.18843345365E+02 -0.71167260717E+01 -0.49685624947E+01  0.12670663995E+03  0.12499666612E+03 0.  0.
    9000005    1    3    3    0    0 -0.71159568583E+01  0.41015812537E+02  0.38599893885E+02  0.56779270232E+02  0.10000000000E+01 0.  0.
    9000005    1    3    3    0    0  0.25959302223E+02 -0.48132538609E+02 -0.43568456379E+02  0.69927369721E+02  0.10000000000E+01 0.  0.
         -4    1    1    2    0  502 -0.18843345365E+02  0.71167260717E+01  0.26964439229E+02  0.33681053093E+02  0.12700000000E+01 0. -1.
<mgrwt>
<rscale>  1 0.12660919E+03</rscale>
<asrwt>0</asrwt>
<pdfrwt beam="1">  1       21 0.14028609E-01 0.12660919E+03</pdfrwt>
<pdfrwt beam="2">  1       -4 0.10646205E-01 0.12660919E+03</pdfrwt>
<totfact> 0.12047794E+05</totfact>
</mgrwt>
</event>
<event>
 6    4  0.7919556E-003  0.1266505E+03  0.7818608E-02  0.1232512E+00
          4   -1    0    0  502    0 -0.00000000000E+00  0.00000000000E+00  0.12151635263E+03  0.12152298900E+03  0.12700000000E+01 0. -1.
         21   -1    0    0  501  502  0.00000000000E+00 -0.00000000000E+00 -0.21966471580E+03  0.21966471580E+03  0.00000000000E+00 0.  1.
         25    2    1    2    0    0 -0.16581753110E+02  0.11824392800E+02  0.87809799650E+02  0.15411332916E+03  0.12500234601E+03 0.  0.
    9000005    1    3    3    0    0 -0.58537284933E+02 -0.12556009353E+02  0.86947372515E+02  0.10557041577E+03  0.10000000000E+01 0.  0.
    9000005    1    3    3    0    0  0.41955531823E+02  0.24380402152E+02  0.86242713469E+00  0.48542913389E+02  0.10000000000E+01 0.  0.
          4    1    1    2  501    0  0.16581753110E+02 -0.11824392800E+02 -0.18595816282E+03  0.18707437564E+03  0.12700000000E+01 0.  1.
<mgrwt>
<rscale>  1 0.12665053E+03</rscale>
<asrwt>0</asrwt>
<pdfrwt beam="2">  1       21 0.33794571E-01 0.12665053E+03</pdfrwt>
<pdfrwt beam="1">  1        4 0.18695617E-01 0.12665053E+03</pdfrwt>
<totfact> 0.87925685E+03</totfact>
</mgrwt>
</event>
<event>
 6    4  0.7919556E-003  0.1272811E+03  0.7818608E-02  0.1231547E+00
          4   -1    0    0  502    0 -0.00000000000E+00  0.00000000000E+00  0.37254493140E+02  0.37276133908E+02  0.12700000000E+01 0. -1.
         21   -1    0    0  501  502  0.00000000000E+00 -0.00000000000E+00 -0.18242856577E+03  0.18242856577E+03  0.00000000000E+00 0. -1.
         25    2    1    2    0    0 -0.11874210365E+02 -0.20941090364E+02 -0.80295033021E+02  0.15049177590E+03  0.12498382355E+03 0.  0.
    9000005    1    3    3    0    0  0.39447063933E+02 -0.48181515917E+02 -0.65802256610E+02  0.90600586664E+02  0.10000000000E+01 0.  0.
    9000005    1    3    3    0    0 -0.51321274298E+02  0.27240425553E+02 -0.14492776411E+02  0.59891189235E+02  0.10000000000E+01 0.  0.
          4    1    1    2  501    0  0.11874210365E+02  0.20941090364E+02 -0.64879039613E+02  0.69212923783E+02  0.12700000000E+01 0.  1.
<mgrwt>
<rscale>  1 0.12728112E+03</rscale>
<asrwt>0</asrwt>
<pdfrwt beam="2">  1       21 0.28065934E-01 0.12728112E+03</pdfrwt>
<pdfrwt beam="1">  1        4 0.57334651E-02 0.12728112E+03</pdfrwt>
<totfact> 0.93051732E+04</totfact>
</mgrwt>
</event>
<event>
 6    4  0.7919556E-003  0.1312918E+03  0.7818608E-02  0.1225551E+00
          4   -1    0    0  502    0 -0.00000000000E+00  0.00000000000E+00  0.57209493109E+02  0.57223587810E+02  0.12700000000E+01 0.  1.
         21   -1    0    0  501  502  0.00000000000E+00 -0.00000000000E+00 -0.16784519941E+03  0.16784519941E+03  0.00000000000E+00 0. -1.
         25    2    1    2    0    0  0.12999916437E+02 -0.37989688419E+02 -0.29548371282E+02  0.13457578719E+03  0.12500128799E+03 0.  0.
    9000005    1    3    3    0    0  0.48178006153E+02 -0.69029776597E+02 -0.22346173740E+02  0.87100986302E+02  0.10000000000E+01 0.  0.
    9000005    1    3    3    0    0 -0.35178089716E+02  0.31040088178E+02 -0.72021975411E+01  0.47474800891E+02  0.10000000000E+01 0.  0.
          4    1    1    2  501    0 -0.12999916437E+02  0.37989688419E+02 -0.81087335021E+02  0.90493000030E+02  0.12700000000E+01 0. -1.
<mgrwt>
<rscale>  1 0.13129180E+03</rscale>
<asrwt>0</asrwt>
<pdfrwt beam="2">  1       21 0.25822338E-01 0.13129180E+03</pdfrwt>
<pdfrwt beam="1">  1        4 0.88029144E-02 0.13129180E+03</pdfrwt>
<totfact> 0.54154115E+04</totfact>
</mgrwt>
</event>
<event>
 6    4  0.7919556E-003  0.1321167E+03  0.7818608E-02  0.1224348E+00
          4   -1    0    0  502    0 -0.00000000000E+00  0.00000000000E+00  0.33065139996E+02  0.33089520742E+02  0.12700000000E+01 0. -1.
         21   -1    0    0  501  502  0.00000000000E+00 -0.00000000000E+00 -0.24856888089E+03  0.24856888089E+03  0.00000000000E+00 0. -1.
         25    2    1    2    0    0 -0.67243108697E+01 -0.42239246111E+02 -0.19132950087E+03  0.23251191600E+03  0.12500177164E+03 0.  0.
    9000005    1    3    3    0    0  0.64945106880E+01  0.21967197994E+02 -0.15669765298E+03  0.15836631872E+03  0.10000000000E+01 0.  0.
    9000005    1    3    3    0    0 -0.13218821558E+02 -0.64206444105E+02 -0.34631847894E+02  0.74145597284E+02  0.10000000000E+01 0.  0.
          4    1    1    2  501    0  0.67243108697E+01  0.42239246111E+02 -0.24174240020E+02  0.49146485625E+02  0.12700000000E+01 0.  1.
<mgrwt>
<rscale>  1 0.13211667E+03</rscale>
<asrwt>0</asrwt>
<pdfrwt beam="2">  1       21 0.38241368E-01 0.13211667E+03</pdfrwt>
<pdfrwt beam="1">  1        4 0.50890694E-02 0.13211667E+03</pdfrwt>
<totfact> 0.61994559E+04</totfact>
</mgrwt>
</event>
<event>
 6    4  0.7919556E-003  0.1266424E+03  0.7818608E-02  0.1232525E+00
          4   -1    0    0  502    0 -0.00000000000E+00  0.00000000000E+00  0.15260097632E+02  0.15312853416E+02  0.12700000000E+01 0. -1.
         21   -1    0    0  501  502  0.00000000000E+00 -0.00000000000E+00 -0.35727113196E+03  0.35727113196E+03  0.00000000000E+00 0. -1.
         25    2    1    2    0    0  0.96324757264E+01  0.17904030126E+02 -0.27987945203E+03  0.30719831950E+03  0.12499984380E+03 0.  0.
    9000005    1    3    3    0    0  0.66553549474E+02  0.43550919676E+01 -0.17176293932E+03  0.18426027542E+03  0.10000000000E+01 0.  0.
    9000005    1    3    3    0    0 -0.56921073747E+02  0.13548938158E+02 -0.10811651272E+03  0.12293804409E+03  0.10000000000E+01 0.  0.
          4    1    1    2  501    0 -0.96324757264E+01 -0.17904030126E+02 -0.62131582296E+02  0.65385665875E+02  0.12700000000E+01 0.  1.
<mgrwt>
<rscale>  1 0.12664241E+03</rscale>
<asrwt>0</asrwt>
<pdfrwt beam="2">  1       21 0.54964793E-01 0.12664241E+03</pdfrwt>
<pdfrwt beam="1">  1        4 0.23519390E-02 0.12664241E+03</pdfrwt>
<totfact> 0.99395088E+04</totfact>
</mgrwt>
</event>
<event>
 6    4  0.7919556E-003  0.1954835E+03  0.7818608E-02  0.1153607E+00
         -4   -1    0    0    0  501 -0.00000000000E+00  0.00000000000E+00  0.26923321045E+03  0.26923620579E+03  0.12700000000E+01 0.  1.
         21   -1    0    0  501  502  0.00000000000E+00 -0.00000000000E+00 -0.13781362823E+03  0.13781362823E+03  0.00000000000E+00 0. -1.
         25    2    1    2    0    0  0.76615053630E+01 -0.15010016965E+03  0.16174186156E+03  0.25372073333E+03  0.12500008458E+03 0.  0.
    9000005    1    3    3    0    0 -0.22750350268E+02 -0.66653150465E+02  0.14791489621E+03  0.16382929355E+03  0.10000000000E+01 0.  0.
    9000005    1    3    3    0    0  0.30411855631E+02 -0.83447019187E+02  0.13826965346E+02  0.89891439775E+02  0.10000000000E+01 0.  0.
         -4    1    1    2    0  502 -0.76615053630E+01  0.15010016965E+03 -0.30322279342E+02  0.15332910069E+03  0.12700000000E+01 0. -1.
<mgrwt>
<rscale>  1 0.19548345E+03</rscale>
<asrwt>0</asrwt>
<pdfrwt beam="2">  1       21 0.21202097E-01 0.19548345E+03</pdfrwt>
<pdfrwt beam="1">  1       -4 0.41421174E-01 0.19548345E+03</pdfrwt>
<totfact> 0.49404121E+03</totfact>
</mgrwt>
</event>
<event>
 6    4  0.7919556E-003  0.1294294E+03  0.7818608E-02  0.1228305E+00
          4   -1    0    0  502    0 -0.00000000000E+00  0.00000000000E+00  0.50628968391E+02  0.50644894514E+02  0.12700000000E+01 0.  1.
         21   -1    0    0  501  502  0.00000000000E+00 -0.00000000000E+00 -0.15090322335E+03  0.15090322335E+03  0.00000000000E+00 0. -1.
         25    2    1    2    0    0  0.93052174870E+01  0.32252196436E+02 -0.45309109779E+02  0.13713095143E+03  0.12500076465E+03 0.  0.
    9000005    1    3    3    0    0  0.46654984787E+02 -0.27188706814E+02 -0.39044176842E+02  0.66643537788E+02  0.10000000000E+01 0.  0.
    9000005    1    3    3    0    0 -0.37349767300E+02  0.59440903250E+02 -0.62649329372E+01  0.70487413637E+02  0.10000000000E+01 0.  0.
          4    1    1    2  501    0 -0.93052174870E+01 -0.32252196436E+02 -0.54965145183E+02  0.64417166442E+02  0.12700000000E+01 0. -1.
<mgrwt>
<rscale>  1 0.12942945E+03</rscale>
<asrwt>0</asrwt>
<pdfrwt beam="2">  1       21 0.23215880E-01 0.12942945E+03</pdfrwt>
<pdfrwt beam="1">  1        4 0.77907083E-02 0.12942945E+03</pdfrwt>
<totfact> 0.80917572E+04</totfact>
</mgrwt>
</event>
<event>
 6    4  0.7919556E-003  0.1394382E+03  0.7818608E-02  0.1214087E+00
         21   -1    0    0  501  502  0.00000000000E+00  0.00000000000E+00  0.34841266106E+03  0.34841266106E+03  0.00000000000E+00 0.  1.
          4   -1    0    0  502    0 -0.00000000000E+00 -0.00000000000E+00 -0.10278851005E+03  0.10279635547E+03  0.12700000000E+01 0. -1.
         25    2    1    2    0    0  0.58362610390E+02 -0.20300926282E+02 -0.50804860229E+02  0.14840529544E+03  0.12499870396E+03 0.  0.
    9000005    1    3    3    0    0 -0.12495388963E+02 -0.41785409265E+02  0.18122857674E+02  0.47239741141E+02  0.10000000000E+01 0.  0.
    9000005    1    3    3    0    0  0.70857999353E+02  0.21484482983E+02 -0.68927717903E+02  0.10116555430E+03  0.10000000000E+01 0.  0.
          4    1    1    2  501    0 -0.58362610390E+02  0.20300926282E+02  0.29642901124E+03  0.30280372108E+03  0.12700000000E+01 0.  1.
<mgrwt>
<rscale>  1 0.13943815E+03</rscale>
<asrwt>0</asrwt>
<pdfrwt beam="1">  1       21 0.53601947E-01 0.13943815E+03</pdfrwt>
<pdfrwt beam="2">  1        4 0.15814399E-01 0.13943815E+03</pdfrwt>
<totfact> 0.46880362E+03</totfact>
</mgrwt>
</event>
<event>
 6    4  0.7919556E-003  0.1379544E+03  0.7818608E-02  0.1216108E+00
         -4   -1    0    0    0  501 -0.00000000000E+00  0.00000000000E+00  0.26529480033E+03  0.26529784014E+03  0.12700000000E+01 0.  1.
         21   -1    0    0  501  502  0.00000000000E+00 -0.00000000000E+00 -0.37725472443E+02  0.37725472443E+02  0.00000000000E+00 0.  1.
         25    2    1    2    0    0  0.12132978262E+02 -0.57079879142E+02  0.18503089558E+03  0.23079829692E+03  0.12500439903E+03 0.  0.
    9000005    1    3    3    0    0 -0.54265409135E+02 -0.86814882747E+01  0.62073411875E+02  0.82910863758E+02  0.10000000000E+01 0.  0.
    9000005    1    3    3    0    0  0.66398387397E+02 -0.48398390867E+02  0.12295748371E+03  0.14788743316E+03  0.10000000000E+01 0.  0.
         -4    1    1    2    0  502 -0.12132978262E+02  0.57079879142E+02  0.42538432304E+02  0.72225015661E+02  0.12700000000E+01 0. -1.
<mgrwt>
<rscale>  1 0.13795442E+03</rscale>
<asrwt>0</asrwt>
<pdfrwt beam="2">  1       21 0.58039190E-02 0.13795442E+03</pdfrwt>
<pdfrwt beam="1">  1       -4 0.40816462E-01 0.13795442E+03</pdfrwt>
<totfact> 0.49388988E+04</totfact>
</mgrwt>
</event>
<event>
 6    4  0.7919556E-003  0.1400009E+03  0.7818608E-02  0.1213328E+00
         21   -1    0    0  501  502  0.00000000000E+00  0.00000000000E+00  0.26053572902E+02  0.26053572902E+02  0.00000000000E+00 0.  1.
         -4   -1    0    0    0  501 -0.00000000000E+00 -0.00000000000E+00 -0.13496837770E+04  0.13496843745E+04  0.12700000000E+01 0. -1.
         25    2    1    2    0    0 -0.43392169791E+02  0.45729499021E+02 -0.13013578772E+04  0.13088669004E+04  0.12500468351E+03 0.  0.
    9000005    1    3    3    0    0 -0.34800038712E+02  0.17870175599E+02 -0.10345481078E+03  0.11060869651E+03  0.10000000000E+01 0.  0.
    9000005    1    3    3    0    0 -0.85921310791E+01  0.27859323422E+02 -0.11979030664E+04  0.11982582039E+04  0.10000000000E+01 0.  0.
         -4    1    1    2    0  502  0.43392169791E+02 -0.45729499021E+02 -0.22272326843E+02  0.66871046970E+02  0.12700000000E+01 0.  1.
<mgrwt>
<rscale>  1 0.14000085E+03</rscale>
<asrwt>0</asrwt>
<pdfrwt beam="1">  1       21 0.40082430E-02 0.14000085E+03</pdfrwt>
<pdfrwt beam="2">  1       -4 0.20764603E+00 0.14000085E+03</pdfrwt>
<totfact> 0.21171690E+03</totfact>
</mgrwt>
</event>
<event>
 6    4  0.7919556E-003  0.1412659E+03  0.7818608E-02  0.1211636E+00
          4   -1    0    0  502    0 -0.00000000000E+00  0.00000000000E+00  0.20525008629E+03  0.20525401536E+03  0.12700000000E+01 0.  1.
         21   -1    0    0  501  502  0.00000000000E+00 -0.00000000000E+00 -0.52234640400E+02  0.52234640400E+02  0.00000000000E+00 0.  1.
         25    2    1    2    0    0  0.58174361385E+02  0.30772517855E+02  0.10473597258E+03  0.17585701593E+03  0.12499944769E+03 0.  0.
    9000005    1    3    3    0    0  0.33259004854E+02  0.79649630102E+02  0.66816948589E+02  0.10915919383E+03  0.10000000000E+01 0.  0.
    9000005    1    3    3    0    0  0.24915356531E+02 -0.48877112247E+02  0.37919023990E+02  0.66697822101E+02  0.10000000000E+01 0.  0.
          4    1    1    2  501    0 -0.58174361385E+02 -0.30772517855E+02  0.48279473306E+02  0.81631639824E+02  0.12700000000E+01 0. -1.
<mgrwt>
<rscale>  1 0.14126594E+03</rscale>
<asrwt>0</asrwt>
<pdfrwt beam="2">  1       21 0.80360987E-02 0.14126594E+03</pdfrwt>
<pdfrwt beam="1">  1        4 0.31578426E-01 0.14126594E+03</pdfrwt>
<totfact> 0.46667018E+04</totfact>
</mgrwt>
</event>
<event>
 6    4  0.7919556E-003  0.1307554E+03  0.7818608E-02  0.1226339E+00
         -4   -1    0    0    0  501 -0.00000000000E+00  0.00000000000E+00  0.21998909150E+03  0.21999275733E+03  0.12700000000E+01 0.  1.
         21   -1    0    0  501  502  0.00000000000E+00 -0.00000000000E+00 -0.33371269291E+02  0.33371269291E+02  0.00000000000E+00 0.  1.
         25    2    1    2    0    0  0.38299787503E+02  0.22987526847E+01  0.16008130922E+03  0.20669543538E+03  0.12499927784E+03 0.  0.
    9000005    1    3    3    0    0  0.72638128378E+02  0.51879555910E+01  0.42850430740E+02  0.84500721843E+02  0.10000000000E+01 0.  0.
    9000005    1    3    3    0    0 -0.34338340875E+02 -0.28892029063E+01  0.11723087848E+03  0.12219471354E+03  0.10000000000E+01 0.  0.
         -4    1    1    2    0  502 -0.38299787503E+02 -0.22987526847E+01  0.26536512984E+02  0.46668591237E+02  0.12700000000E+01 0. -1.
<mgrwt>
<rscale>  1 0.13075541E+03</rscale>
<asrwt>0</asrwt>
<pdfrwt beam="2">  1       21 0.51340416E-02 0.13075541E+03</pdfrwt>
<pdfrwt beam="1">  1       -4 0.33846616E-01 0.13075541E+03</pdfrwt>
<totfact> 0.86858240E+04</totfact>
</mgrwt>
</event>
