<event>
 5    1  0.3516911E-002  0.1249976E+03  0.7818608E-02  0.1235073E+00
         -4   -1    0    0    0  501 -0.00000000000E+00  0.00000000000E+00  0.25646125887E+01  0.28618416676E+01  0.12700000000E+01 0.  1.
          4   -1    0    0  501    0  0.00000000000E+00 -0.00000000000E+00 -0.14393533485E+04  0.14393539088E+04  0.12700000000E+01 0.  1.
         25    2    1    2    0    0  0.00000000000E+00  0.00000000000E+00 -0.14367887359E+04  0.14422157505E+04  0.12499759684E+03 0.  0.
    9000005    1    3    3    0    0  0.59307837322E+01  0.31793897327E+02 -0.10145675887E+03  0.10649178383E+03  0.10000000000E+01 0.  0.
    9000005    1    3    3    0    0 -0.59307837322E+01 -0.31793897327E+02 -0.13353319771E+04  0.13357239666E+04  0.10000000000E+01 0.  0.
<mgrwt>
<rscale>  0 0.12499760E+03</rscale>
<asrwt>0</asrwt>
<pdfrwt beam="2">  1        4 0.22146127E+00 0.12499760E+03</pdfrwt>
<pdfrwt beam="1">  1       -4 0.41746381E-03 0.12499760E+03</pdfrwt>
<totfact> 0.19093820E+03</totfact>
</mgrwt>
</event>
<event>
 5    1  0.3516911E-002  0.1250049E+03  0.7818608E-02  0.1235062E+00
         -4   -1    0    0    0  501 -0.00000000000E+00  0.00000000000E+00  0.11089781932E+03  0.11090509109E+03  0.12700000000E+01 0. -1.
          4   -1    0    0  501    0  0.00000000000E+00 -0.00000000000E+00 -0.35206742529E+02  0.35229641206E+02  0.12700000000E+01 0. -1.
         25    2    1    2    0    0  0.00000000000E+00  0.00000000000E+00  0.75691076788E+02  0.14613473229E+03  0.12500488341E+03 0.  0.
    9000005    1    3    3    0    0  0.60149058996E+02  0.10191614988E+02  0.21997630601E+02  0.64858878083E+02  0.10000000000E+01 0.  0.
    9000005    1    3    3    0    0 -0.60149058996E+02 -0.10191614988E+02  0.53693446187E+02  0.81275854210E+02  0.10000000000E+01 0.  0.
<mgrwt>
<rscale>  0 0.12500488E+03</rscale>
<asrwt>0</asrwt>
<pdfrwt beam="2">  1        4 0.54187427E-02 0.12500488E+03</pdfrwt>
<pdfrwt beam="1">  1       -4 0.17063524E-01 0.12500488E+03</pdfrwt>
<totfact> 0.10006884E+04</totfact>
</mgrwt>
</event>
<event>
 5    1  0.3516911E-002  0.1249970E+03  0.7818608E-02  0.1235074E+00
          4   -1    0    0  501    0  0.00000000000E+00  0.00000000000E+00  0.58094263077E+01  0.59466237501E+01  0.12700000000E+01 0. -1.
         -4   -1    0    0    0  501 -0.00000000000E+00 -0.00000000000E+00 -0.66438191042E+03  0.66438312426E+03  0.12700000000E+01 0. -1.
         25    2    1    2    0    0  0.00000000000E+00  0.00000000000E+00 -0.65857248412E+03  0.67032974801E+03  0.12499701688E+03 0.  0.
    9000005    1    3    3    0    0 -0.19267473603E+02 -0.83503211120E+01 -0.64492044951E+03  0.64526300808E+03  0.10000000000E+01 0.  0.
    9000005    1    3    3    0    0  0.19267473603E+02  0.83503211120E+01 -0.13652034609E+02  0.25066739929E+02  0.10000000000E+01 0.  0.
<mgrwt>
<rscale>  0 0.12499702E+03</rscale>
<asrwt>0</asrwt>
<pdfrwt beam="1">  1        4 0.90440544E-03 0.12499702E+03</pdfrwt>
<pdfrwt beam="2">  1       -4 0.10222319E+00 0.12499702E+03</pdfrwt>
<totfact> 0.44702828E+03</totfact>
</mgrwt>
</event>
<event>
 5    1  0.3516911E-002  0.1249963E+03  0.7818608E-02  0.1235075E+00
         -4   -1    0    0    0  501 -0.00000000000E+00  0.00000000000E+00  0.22777006685E+03  0.22777360746E+03  0.12700000000E+01 0.  1.
          4   -1    0    0  501    0  0.00000000000E+00 -0.00000000000E+00 -0.17121767451E+02  0.17168803704E+02  0.12700000000E+01 0.  1.
         25    2    1    2    0    0  0.00000000000E+00  0.00000000000E+00  0.21064829940E+03  0.24494241116E+03  0.12499631492E+03 0.  0.
    9000005    1    3    3    0    0  0.31640830901E+01 -0.57967370984E+02  0.15064095620E+03  0.16144325692E+03  0.10000000000E+01 0.  0.
    9000005    1    3    3    0    0 -0.31640830901E+01  0.57967370984E+02  0.60007343202E+02  0.83499154240E+02  0.10000000000E+01 0.  0.
<mgrwt>
<rscale>  0 0.12499631E+03</rscale>
<asrwt>0</asrwt>
<pdfrwt beam="2">  1        4 0.26380085E-02 0.12499631E+03</pdfrwt>
<pdfrwt beam="1">  1       -4 0.35045440E-01 0.12499631E+03</pdfrwt>
<totfact> 0.83073566E+03</totfact>
</mgrwt>
</event>
<event>
 5    1  0.3516911E-002  0.1250010E+03  0.7818608E-02  0.1235068E+00
          4   -1    0    0  501    0  0.00000000000E+00  0.00000000000E+00  0.37408044014E+02  0.37429596003E+02  0.12700000000E+01 0.  1.
         -4   -1    0    0    0  501 -0.00000000000E+00 -0.00000000000E+00 -0.10436886023E+03  0.10437658686E+03  0.12700000000E+01 0.  1.
         25    2    1    2    0    0  0.00000000000E+00  0.00000000000E+00 -0.66960816215E+02  0.14180618287E+03  0.12500097036E+03 0.  0.
    9000005    1    3    3    0    0 -0.41797227542E+02 -0.46040069276E+02 -0.40529881014E+02  0.74231849392E+02  0.10000000000E+01 0.  0.
    9000005    1    3    3    0    0  0.41797227542E+02  0.46040069276E+02 -0.26430935201E+02  0.67574333476E+02  0.10000000000E+01 0.  0.
<mgrwt>
<rscale>  0 0.12500097E+03</rscale>
<asrwt>0</asrwt>
<pdfrwt beam="1">  1        4 0.57573359E-02 0.12500097E+03</pdfrwt>
<pdfrwt beam="2">  1       -4 0.16059000E-01 0.12500097E+03</pdfrwt>
<totfact> 0.10096067E+04</totfact>
</mgrwt>
</event>
<event>
 5    1  0.3516911E-002  0.1250040E+03  0.7818608E-02  0.1235063E+00
          4   -1    0    0  501    0  0.00000000000E+00  0.00000000000E+00  0.39669868821E+02  0.39690192646E+02  0.12700000000E+01 0.  1.
         -4   -1    0    0    0  501 -0.00000000000E+00 -0.00000000000E+00 -0.98425666242E+02  0.98433859394E+02  0.12700000000E+01 0.  1.
         25    2    1    2    0    0  0.00000000000E+00  0.00000000000E+00 -0.58755797421E+02  0.13812405204E+03  0.12500404002E+03 0.  0.
    9000005    1    3    3    0    0  0.41099420588E+01  0.28745644676E+02  0.31768240795E+02  0.43051420822E+02  0.10000000000E+01 0.  0.
    9000005    1    3    3    0    0 -0.41099420588E+01 -0.28745644676E+02 -0.90524038217E+02  0.95072631217E+02  0.10000000000E+01 0.  0.
<mgrwt>
<rscale>  0 0.12500404E+03</rscale>
<asrwt>0</asrwt>
<pdfrwt beam="1">  1        4 0.61052504E-02 0.12500404E+03</pdfrwt>
<pdfrwt beam="2">  1       -4 0.15144604E-01 0.12500404E+03</pdfrwt>
<totfact> 0.10171689E+04</totfact>
</mgrwt>
</event>
<event>
 5    1  0.3516911E-002  0.1250006E+03  0.7818608E-02  0.1235068E+00
         -4   -1    0    0    0  501 -0.00000000000E+00  0.00000000000E+00  0.76503014151E+01  0.77549991452E+01  0.12700000000E+01 0.  1.
          4   -1    0    0  501    0  0.00000000000E+00 -0.00000000000E+00 -0.50703011931E+03  0.50703170984E+03  0.12700000000E+01 0.  1.
         25    2    1    2    0    0  0.00000000000E+00  0.00000000000E+00 -0.49937981789E+03  0.51478670899E+03  0.12500061292E+03 0.  0.
    9000005    1    3    3    0    0  0.17327284429E+02  0.59698175758E+02 -0.22326184283E+03  0.23175624574E+03  0.10000000000E+01 0.  0.
    9000005    1    3    3    0    0 -0.17327284429E+02 -0.59698175758E+02 -0.27611797506E+03  0.28303046325E+03  0.10000000000E+01 0.  0.
<mgrwt>
<rscale>  0 0.12500061E+03</rscale>
<asrwt>0</asrwt>
<pdfrwt beam="2">  1        4 0.78012784E-01 0.12500061E+03</pdfrwt>
<pdfrwt beam="1">  1       -4 0.11851459E-02 0.12500061E+03</pdfrwt>
<totfact> 0.54734352E+03</totfact>
</mgrwt>
</event>
<event>
 5    1  0.3516911E-002  0.1249976E+03  0.7818608E-02  0.1235073E+00
          4   -1    0    0  501    0  0.00000000000E+00  0.00000000000E+00  0.10712343083E+02  0.10787362715E+02  0.12700000000E+01 0. -1.
         -4   -1    0    0    0  501 -0.00000000000E+00 -0.00000000000E+00 -0.36328722148E+03  0.36328944135E+03  0.12700000000E+01 0. -1.
         25    2    1    2    0    0  0.00000000000E+00  0.00000000000E+00 -0.35257487840E+03  0.37407680406E+03  0.12499764181E+03 0.  0.
    9000005    1    3    3    0    0  0.41367017941E+02 -0.27355994544E+02 -0.62506028824E+02  0.79797144374E+02  0.10000000000E+01 0.  0.
    9000005    1    3    3    0    0 -0.41367017941E+02  0.27355994544E+02 -0.29006884958E+03  0.29427965969E+03  0.10000000000E+01 0.  0.
<mgrwt>
<rscale>  0 0.12499764E+03</rscale>
<asrwt>0</asrwt>
<pdfrwt beam="1">  1        4 0.16539946E-02 0.12499764E+03</pdfrwt>
<pdfrwt beam="2">  1       -4 0.55896274E-01 0.12499764E+03</pdfrwt>
<totfact> 0.67158078E+03</totfact>
</mgrwt>
</event>
<event>
 5    1  0.3516911E-002  0.1249928E+03  0.7818608E-02  0.1235080E+00
         -4   -1    0    0    0  501 -0.00000000000E+00  0.00000000000E+00  0.51089688097E+01  0.52644527065E+01  0.12700000000E+01 0.  1.
          4   -1    0    0  501    0  0.00000000000E+00 -0.00000000000E+00 -0.75288435969E+03  0.75288543084E+03  0.12700000000E+01 0.  1.
         25    2    1    2    0    0  0.00000000000E+00  0.00000000000E+00 -0.74777539088E+03  0.75814988354E+03  0.12499284264E+03 0.  0.
    9000005    1    3    3    0    0  0.40774469921E+02  0.21573418119E+02 -0.62956561416E+03  0.63125417408E+03  0.10000000000E+01 0.  0.
    9000005    1    3    3    0    0 -0.40774469921E+02 -0.21573418119E+02 -0.11820977672E+03  0.12689570946E+03  0.10000000000E+01 0.  0.
<mgrwt>
<rscale>  0 0.12499284E+03</rscale>
<asrwt>0</asrwt>
<pdfrwt beam="2">  1        4 0.11584032E+00 0.12499284E+03</pdfrwt>
<pdfrwt beam="1">  1       -4 0.79803850E-03 0.12499284E+03</pdfrwt>
<totfact> 0.40193644E+03</totfact>
</mgrwt>
</event>
<event>
 5    1  0.3516911E-002  0.1250200E+03  0.7818608E-02  0.1235038E+00
         -4   -1    0    0    0  501 -0.00000000000E+00  0.00000000000E+00  0.26429955301E+02  0.26460450435E+02  0.12700000000E+01 0. -1.
          4   -1    0    0  501    0  0.00000000000E+00 -0.00000000000E+00 -0.14772509471E+03  0.14773055374E+03  0.12700000000E+01 0. -1.
         25    2    1    2    0    0  0.00000000000E+00  0.00000000000E+00 -0.12129513941E+03  0.17419100417E+03  0.12501997876E+03 0.  0.
    9000005    1    3    3    0    0  0.14001948975E+02 -0.53980736345E+02 -0.21324644515E+02  0.59713607621E+02  0.10000000000E+01 0.  0.
    9000005    1    3    3    0    0 -0.14001948975E+02  0.53980736345E+02 -0.99970494895E+02  0.11447739655E+03  0.10000000000E+01 0.  0.
<mgrwt>
<rscale>  0 0.12501998E+03</rscale>
<asrwt>0</asrwt>
<pdfrwt beam="2">  1        4 0.22729703E-01 0.12501998E+03</pdfrwt>
<pdfrwt beam="1">  1       -4 0.40689128E-02 0.12501998E+03</pdfrwt>
<totfact> 0.94630793E+03</totfact>
</mgrwt>
</event>
<event>
 5    1  0.3516911E-002  0.1249919E+03  0.7818608E-02  0.1235082E+00
          4   -1    0    0  501    0  0.00000000000E+00  0.00000000000E+00  0.68438199151E+02  0.68449981761E+02  0.12700000000E+01 0.  1.
         -4   -1    0    0    0  501 -0.00000000000E+00 -0.00000000000E+00 -0.57045889443E+02  0.57060024556E+02  0.12700000000E+01 0.  1.
         25    2    1    2    0    0  0.00000000000E+00  0.00000000000E+00  0.11392309708E+02  0.12551000632E+03  0.12499190760E+03 0.  0.
    9000005    1    3    3    0    0  0.32922436538E+02 -0.53110011840E+02  0.61269507018E+01  0.62794105696E+02  0.10000000000E+01 0.  0.
    9000005    1    3    3    0    0 -0.32922436538E+02  0.53110011840E+02  0.52653590063E+01  0.62715900621E+02  0.10000000000E+01 0.  0.
<mgrwt>
<rscale>  0 0.12499191E+03</rscale>
<asrwt>0</asrwt>
<pdfrwt beam="1">  1        4 0.10530947E-01 0.12499191E+03</pdfrwt>
<pdfrwt beam="2">  1       -4 0.87782844E-02 0.12499191E+03</pdfrwt>
<totfact> 0.10443639E+04</totfact>
</mgrwt>
</event>
<event>
 5    1  0.3516911E-002  0.1249990E+03  0.7818608E-02  0.1235071E+00
         -4   -1    0    0    0  501 -0.00000000000E+00  0.00000000000E+00  0.33694198774E+02  0.33718124667E+02  0.12700000000E+01 0. -1.
          4   -1    0    0  501    0  0.00000000000E+00 -0.00000000000E+00 -0.11586203001E+03  0.11586899023E+03  0.12700000000E+01 0. -1.
         25    2    1    2    0    0  0.00000000000E+00  0.00000000000E+00 -0.82167831232E+02  0.14958711490E+03  0.12499900981E+03 0.  0.
    9000005    1    3    3    0    0  0.23042691271E+02 -0.31152537082E+02  0.17588170827E+02  0.42565125874E+02  0.10000000000E+01 0.  0.
    9000005    1    3    3    0    0 -0.23042691271E+02  0.31152537082E+02 -0.99756002059E+02  0.10702198902E+03  0.10000000000E+01 0.  0.
<mgrwt>
<rscale>  0 0.12499901E+03</rscale>
<asrwt>0</asrwt>
<pdfrwt beam="2">  1        4 0.17827303E-01 0.12499901E+03</pdfrwt>
<pdfrwt beam="1">  1       -4 0.51860988E-02 0.12499901E+03</pdfrwt>
<totfact> 0.99388279E+03</totfact>
</mgrwt>
</event>
<event>
 5    1  0.3516911E-002  0.1249983E+03  0.7818608E-02  0.1235072E+00
         -4   -1    0    0    0  501 -0.00000000000E+00  0.00000000000E+00  0.10929690774E+03  0.10930428601E+03  0.12700000000E+01 0.  1.
          4   -1    0    0  501    0  0.00000000000E+00 -0.00000000000E+00 -0.35718972629E+02  0.35741543135E+02  0.12700000000E+01 0.  1.
         25    2    1    2    0    0  0.00000000000E+00  0.00000000000E+00  0.73577935109E+02  0.14504582915E+03  0.12499832006E+03 0.  0.
    9000005    1    3    3    0    0 -0.51616122840E+02  0.34847625994E+02  0.30808344688E+02  0.69489101856E+02  0.10000000000E+01 0.  0.
    9000005    1    3    3    0    0  0.51616122840E+02 -0.34847625994E+02  0.42769590421E+02  0.75556727293E+02  0.10000000000E+01 0.  0.
<mgrwt>
<rscale>  0 0.12499832E+03</rscale>
<asrwt>0</asrwt>
<pdfrwt beam="2">  1        4 0.54975303E-02 0.12499832E+03</pdfrwt>
<pdfrwt beam="1">  1       -4 0.16817213E-01 0.12499832E+03</pdfrwt>
<totfact> 0.10030437E+04</totfact>
</mgrwt>
</event>
<event>
 5    1  0.3516911E-002  0.1249965E+03  0.7818608E-02  0.1235075E+00
          4   -1    0    0  501    0  0.00000000000E+00  0.00000000000E+00  0.28814473070E+02  0.28842447163E+02  0.12700000000E+01 0.  1.
         -4   -1    0    0    0  501 -0.00000000000E+00 -0.00000000000E+00 -0.13546132472E+03  0.13546727795E+03  0.12700000000E+01 0.  1.
         25    2    1    2    0    0  0.00000000000E+00  0.00000000000E+00 -0.10664685165E+03  0.16430972511E+03  0.12499653915E+03 0.  0.
    9000005    1    3    3    0    0 -0.56838551909E+02  0.23216181992E+02 -0.68620531521E+02  0.92083600253E+02  0.10000000000E+01 0.  0.
    9000005    1    3    3    0    0  0.56838551909E+02 -0.23216181992E+02 -0.38026320127E+02  0.72226124857E+02  0.10000000000E+01 0.  0.
<mgrwt>
<rscale>  0 0.12499654E+03</rscale>
<asrwt>0</asrwt>
<pdfrwt beam="1">  1        4 0.44356057E-02 0.12499654E+03</pdfrwt>
<pdfrwt beam="2">  1       -4 0.20842813E-01 0.12499654E+03</pdfrwt>
<totfact> 0.96525784E+03</totfact>
</mgrwt>
</event>
<event>
 5    1  0.3516911E-002  0.1250009E+03  0.7818608E-02  0.1235068E+00
          4   -1    0    0  501    0  0.00000000000E+00  0.00000000000E+00  0.19832364239E+03  0.19832770869E+03  0.12700000000E+01 0.  1.
         -4   -1    0    0    0  501 -0.00000000000E+00 -0.00000000000E+00 -0.19671884670E+02  0.19712837099E+02  0.12700000000E+01 0.  1.
         25    2    1    2    0    0  0.00000000000E+00  0.00000000000E+00  0.17865175772E+03  0.21804054578E+03  0.12500091627E+03 0.  0.
    9000005    1    3    3    0    0 -0.57455641043E+02  0.24361666591E+02  0.95022539930E+02  0.11368783832E+03  0.10000000000E+01 0.  0.
    9000005    1    3    3    0    0  0.57455641043E+02 -0.24361666591E+02  0.83629217794E+02  0.10435270747E+03  0.10000000000E+01 0.  0.
<mgrwt>
<rscale>  0 0.12500092E+03</rscale>
<asrwt>0</asrwt>
<pdfrwt beam="1">  1        4 0.30514794E-01 0.12500092E+03</pdfrwt>
<pdfrwt beam="2">  1       -4 0.30299066E-02 0.12500092E+03</pdfrwt>
<totfact> 0.87177574E+03</totfact>
</mgrwt>
</event>
<event>
 5    1  0.3516911E-002  0.1250017E+03  0.7818608E-02  0.1235067E+00
         -4   -1    0    0    0  501 -0.00000000000E+00  0.00000000000E+00  0.50546602054E+01  0.52117645565E+01  0.12700000000E+01 0. -1.
          4   -1    0    0  501    0  0.00000000000E+00 -0.00000000000E+00 -0.76083917718E+03  0.76084023712E+03  0.12700000000E+01 0. -1.
         25    2    1    2    0    0  0.00000000000E+00  0.00000000000E+00 -0.75578451697E+03  0.76605200168E+03  0.12500173273E+03 0.  0.
    9000005    1    3    3    0    0  0.27251861455E+02 -0.68396981188E+01 -0.35806596801E+02  0.45525353349E+02  0.10000000000E+01 0.  0.
    9000005    1    3    3    0    0 -0.27251861455E+02  0.68396981188E+01 -0.71997792017E+03  0.72052664833E+03  0.10000000000E+01 0.  0.
<mgrwt>
<rscale>  0 0.12500173E+03</rscale>
<asrwt>0</asrwt>
<pdfrwt beam="2">  1        4 0.11706426E+00 0.12500173E+03</pdfrwt>
<pdfrwt beam="1">  1       -4 0.78980712E-03 0.12500173E+03</pdfrwt>
<totfact> 0.39816403E+03</totfact>
</mgrwt>
</event>
<event>
 5    1  0.3516911E-002  0.1249966E+03  0.7818608E-02  0.1235075E+00
         -4   -1    0    0    0  501 -0.00000000000E+00  0.00000000000E+00  0.42684171448E+02  0.42703060689E+02  0.12700000000E+01 0. -1.
          4   -1    0    0  501    0  0.00000000000E+00 -0.00000000000E+00 -0.91466666093E+02  0.91475482541E+02  0.12700000000E+01 0. -1.
         25    2    1    2    0    0  0.00000000000E+00  0.00000000000E+00 -0.48782494645E+02  0.13417854323E+03  0.12499659867E+03 0.  0.
    9000005    1    3    3    0    0  0.79072131336E+01  0.39819673698E+02  0.26605409672E+02  0.48548720444E+02  0.10000000000E+01 0.  0.
    9000005    1    3    3    0    0 -0.79072131336E+01 -0.39819673698E+02 -0.75387904317E+02  0.85629822785E+02  0.10000000000E+01 0.  0.
<mgrwt>
<rscale>  0 0.12499660E+03</rscale>
<asrwt>0</asrwt>
<pdfrwt beam="2">  1        4 0.14073926E-01 0.12499660E+03</pdfrwt>
<pdfrwt beam="1">  1       -4 0.65689268E-02 0.12499660E+03</pdfrwt>
<totfact> 0.10256201E+04</totfact>
</mgrwt>
</event>
<event>
 5    1  0.3516911E-002  0.1250078E+03  0.7818608E-02  0.1235057E+00
          4   -1    0    0  501    0  0.00000000000E+00  0.00000000000E+00  0.29765709120E+03  0.29765980051E+03  0.12700000000E+01 0.  1.
         -4   -1    0    0    0  501 -0.00000000000E+00 -0.00000000000E+00 -0.13091456887E+02  0.13152913876E+02  0.12700000000E+01 0.  1.
         25    2    1    2    0    0  0.00000000000E+00  0.00000000000E+00  0.28456563431E+03  0.31081271439E+03  0.12500777254E+03 0.  0.
    9000005    1    3    3    0    0  0.38855613415E+02 -0.23252556870E+02  0.24937760353E+03  0.25345735191E+03  0.10000000000E+01 0.  0.
    9000005    1    3    3    0    0 -0.38855613415E+02  0.23252556870E+02  0.35188030783E+02  0.57355362480E+02  0.10000000000E+01 0.  0.
<mgrwt>
<rscale>  0 0.12500777E+03</rscale>
<asrwt>0</asrwt>
<pdfrwt beam="1">  1        4 0.45798329E-01 0.12500777E+03</pdfrwt>
<pdfrwt beam="2">  1       -4 0.20190064E-02 0.12500777E+03</pdfrwt>
<totfact> 0.74249424E+03</totfact>
</mgrwt>
</event>
<event>
 5    1  0.3516911E-002  0.1250031E+03  0.7818608E-02  0.1235064E+00
         -4   -1    0    0    0  501 -0.00000000000E+00  0.00000000000E+00  0.99892921457E+02  0.99900994275E+02  0.12700000000E+01 0.  1.
          4   -1    0    0  501    0  0.00000000000E+00 -0.00000000000E+00 -0.39086321129E+02  0.39106948224E+02  0.12700000000E+01 0.  1.
         25    2    1    2    0    0  0.00000000000E+00  0.00000000000E+00  0.60806600328E+02  0.13900794250E+03  0.12500306170E+03 0.  0.
    9000005    1    3    3    0    0 -0.41569204513E+02 -0.40040689410E+02  0.37564927128E+01  0.57847790016E+02  0.10000000000E+01 0.  0.
    9000005    1    3    3    0    0  0.41569204513E+02  0.40040689410E+02  0.57050107615E+02  0.81160152483E+02  0.10000000000E+01 0.  0.
<mgrwt>
<rscale>  0 0.12500306E+03</rscale>
<asrwt>0</asrwt>
<pdfrwt beam="2">  1        4 0.60154880E-02 0.12500306E+03</pdfrwt>
<pdfrwt beam="1">  1       -4 0.15370349E-01 0.12500306E+03</pdfrwt>
<totfact> 0.10153488E+04</totfact>
</mgrwt>
</event>
<event>
 4    1  0.3516911E-002  0.1249332E+03  0.7818608E-02  0.1235174E+00
          4   -1    0    0  501    0  0.00000000000E+00  0.00000000000E+00  0.30042560291E+01  0.32616643433E+01  0.12700000000E+01 0. -1.
         -4   -1    0    0    0  501 -0.00000000000E+00 -0.00000000000E+00 -0.12452343764E+04  0.12452350240E+04  0.12700000000E+01 0. -1.
    9000005    1    1    2    0    0  0.26730114633E+02 -0.35575002275E+02 -0.18311632245E+03  0.18844804951E+03  0.10000000000E+01 0.  0.
    9000005    1    1    2    0    0 -0.26730114633E+02  0.35575002275E+02 -0.10591137979E+04  0.10600486389E+04  0.10000000000E+01 0.  0.
<mgrwt>
<rscale>  0 0.12493322E+03</rscale>
<asrwt>0</asrwt>
<pdfrwt beam="1">  1        4 0.48204469E-03 0.12493322E+03</pdfrwt>
<pdfrwt beam="2">  1       -4 0.19159397E+00 0.12493322E+03</pdfrwt>
<totfact> 0.23511741E+03</totfact>
</mgrwt>
</event>
<event>
 4    1  0.3516911E-002  0.1250910E+03  0.7818608E-02  0.1234927E+00
         -4   -1    0    0    0  501 -0.00000000000E+00  0.00000000000E+00  0.44292701439E+02  0.44310904987E+02  0.12700000000E+01 0.  1.
          4   -1    0    0  501    0  0.00000000000E+00 -0.00000000000E+00 -0.88279223238E+02  0.88288357984E+02  0.12700000000E+01 0.  1.
    9000005    1    1    2    0    0  0.28910286827E+02 -0.28027108529E+02 -0.72715252907E+02  0.83125396254E+02  0.10000000000E+01 0.  0.
    9000005    1    1    2    0    0 -0.28910286827E+02  0.28027108529E+02  0.28728731109E+02  0.49473866718E+02  0.10000000000E+01 0.  0.
<mgrwt>
<rscale>  0 0.12509097E+03</rscale>
<asrwt>0</asrwt>
<pdfrwt beam="2">  1        4 0.13583522E-01 0.12509097E+03</pdfrwt>
<pdfrwt beam="1">  1       -4 0.68163647E-02 0.12509097E+03</pdfrwt>
<totfact> 0.10267839E+04</totfact>
</mgrwt>
</event>
<event>
 5    1  0.3516911E-002  0.1250017E+03  0.7818608E-02  0.1235067E+00
         -4   -1    0    0    0  501 -0.00000000000E+00  0.00000000000E+00  0.59812481297E+01  0.61145914981E+01  0.12700000000E+01 0. -1.
          4   -1    0    0  501    0  0.00000000000E+00 -0.00000000000E+00 -0.64576681886E+03  0.64576806768E+03  0.12700000000E+01 0. -1.
         25    2    1    2    0    0  0.00000000000E+00  0.00000000000E+00 -0.63978557073E+03  0.65188265918E+03  0.12500169930E+03 0.  0.
    9000005    1    3    3    0    0  0.39221017022E+02 -0.48629445510E+02 -0.32770667899E+03  0.33361021957E+03  0.10000000000E+01 0.  0.
    9000005    1    3    3    0    0 -0.39221017022E+02  0.48629445510E+02 -0.31207889174E+03  0.31827243961E+03  0.10000000000E+01 0.  0.
<mgrwt>
<rscale>  0 0.12500170E+03</rscale>
<asrwt>0</asrwt>
<pdfrwt beam="2">  1        4 0.99359040E-01 0.12500170E+03</pdfrwt>
<pdfrwt beam="1">  1       -4 0.93054578E-03 0.12500170E+03</pdfrwt>
<totfact> 0.45746386E+03</totfact>
</mgrwt>
</event>
<event>
 5    1  0.3516911E-002  0.1249993E+03  0.7818608E-02  0.1235070E+00
         -4   -1    0    0    0  501 -0.00000000000E+00  0.00000000000E+00  0.33436028789E+03  0.33436269980E+03  0.12700000000E+01 0. -1.
          4   -1    0    0  501    0  0.00000000000E+00 -0.00000000000E+00 -0.11645652921E+02  0.11714697263E+02  0.12700000000E+01 0. -1.
         25    2    1    2    0    0  0.00000000000E+00  0.00000000000E+00  0.32271463497E+03  0.34607739706E+03  0.12499931654E+03 0.  0.
    9000005    1    3    3    0    0 -0.20960652846E+02 -0.13349902010E+01  0.32430917312E+03  0.32499010899E+03  0.10000000000E+01 0.  0.
    9000005    1    3    3    0    0  0.20960652846E+02  0.13349902010E+01 -0.15945381546E+01  0.21087288078E+02  0.10000000000E+01 0.  0.
<mgrwt>
<rscale>  0 0.12499932E+03</rscale>
<asrwt>0</asrwt>
<pdfrwt beam="2">  1        4 0.17971357E-02 0.12499932E+03</pdfrwt>
<pdfrwt beam="1">  1       -4 0.51445537E-01 0.12499932E+03</pdfrwt>
<totfact> 0.70159319E+03</totfact>
</mgrwt>
</event>
<event>
 5    1  0.3516911E-002  0.1249854E+03  0.7818608E-02  0.1235092E+00
         -4   -1    0    0    0  501 -0.00000000000E+00  0.00000000000E+00  0.11034355423E+03  0.11035086252E+03  0.12700000000E+01 0.  1.
          4   -1    0    0  501    0  0.00000000000E+00 -0.00000000000E+00 -0.35372672337E+02  0.35395463668E+02  0.12700000000E+01 0.  1.
         25    2    1    2    0    0  0.00000000000E+00  0.00000000000E+00  0.74970881891E+02  0.14574632619E+03  0.12498543302E+03 0.  0.
    9000005    1    3    3    0    0 -0.97068035682E+01 -0.21489081711E+01 -0.34450191711E+02  0.35869981193E+02  0.10000000000E+01 0.  0.
    9000005    1    3    3    0    0  0.97068035682E+01  0.21489081711E+01  0.10942107360E+03  0.10987634500E+03  0.10000000000E+01 0.  0.
<mgrwt>
<rscale>  0 0.12498543E+03</rscale>
<asrwt>0</asrwt>
<pdfrwt beam="2">  1        4 0.54442650E-02 0.12498543E+03</pdfrwt>
<pdfrwt beam="1">  1       -4 0.16978247E-01 0.12498543E+03</pdfrwt>
<totfact> 0.10019133E+04</totfact>
</mgrwt>
</event>
<event>
 5    1  0.3516911E-002  0.1250004E+03  0.7818608E-02  0.1235069E+00
         -4   -1    0    0    0  501 -0.00000000000E+00  0.00000000000E+00  0.13970995649E+03  0.13971572869E+03  0.12700000000E+01 0.  1.
          4   -1    0    0  501    0  0.00000000000E+00 -0.00000000000E+00 -0.27939127381E+02  0.27967977024E+02  0.12700000000E+01 0.  1.
         25    2    1    2    0    0  0.00000000000E+00  0.00000000000E+00  0.11177082911E+03  0.16768370571E+03  0.12500042768E+03 0.  0.
    9000005    1    3    3    0    0 -0.46758897965E+02 -0.23130308030E+02  0.10204177572E+03  0.11460772086E+03  0.10000000000E+01 0.  0.
    9000005    1    3    3    0    0  0.46758897965E+02  0.23130308030E+02  0.97290533950E+01  0.53075984856E+02  0.10000000000E+01 0.  0.
<mgrwt>
<rscale>  0 0.12500043E+03</rscale>
<asrwt>0</asrwt>
<pdfrwt beam="2">  1        4 0.43009906E-02 0.12500043E+03</pdfrwt>
<pdfrwt beam="1">  1       -4 0.21496502E-01 0.12500043E+03</pdfrwt>
<totfact> 0.95880621E+03</totfact>
</mgrwt>
</event>
<event>
 5    1  0.3516911E-002  0.1250032E+03  0.7818608E-02  0.1235064E+00
         -4   -1    0    0    0  501 -0.00000000000E+00  0.00000000000E+00  0.74353071518E+03  0.74353179980E+03  0.12700000000E+01 0. -1.
          4   -1    0    0  501    0  0.00000000000E+00 -0.00000000000E+00 -0.51760645170E+01  0.53295913430E+01  0.12700000000E+01 0. -1.
         25    2    1    2    0    0  0.00000000000E+00  0.00000000000E+00  0.73835465067E+03  0.74886139115E+03  0.12500317192E+03 0.  0.
    9000005    1    3    3    0    0 -0.48409392087E+02  0.27698961917E+02  0.53806374270E+03  0.54094758798E+03  0.10000000000E+01 0.  0.
    9000005    1    3    3    0    0  0.48409392087E+02 -0.27698961917E+02  0.20029090797E+03  0.20791380317E+03  0.10000000000E+01 0.  0.
<mgrwt>
<rscale>  0 0.12500317E+03</rscale>
<asrwt>0</asrwt>
<pdfrwt beam="2">  1        4 0.80821111E-03 0.12500317E+03</pdfrwt>
<pdfrwt beam="1">  1       -4 0.11440119E+00 0.12500317E+03</pdfrwt>
<totfact> 0.40625849E+03</totfact>
</mgrwt>
</event>
<event>
 5    1  0.3516911E-002  0.1249933E+03  0.7818608E-02  0.1235080E+00
         -4   -1    0    0    0  501 -0.00000000000E+00  0.00000000000E+00  0.33993709229E+02  0.34017424464E+02  0.12700000000E+01 0. -1.
          4   -1    0    0  501    0  0.00000000000E+00 -0.00000000000E+00 -0.11483144719E+03  0.11483846988E+03  0.12700000000E+01 0. -1.
         25    2    1    2    0    0  0.00000000000E+00  0.00000000000E+00 -0.80837737959E+02  0.14885589434E+03  0.12499334943E+03 0.  0.
    9000005    1    3    3    0    0 -0.43627093475E+02  0.79923361016E+01  0.12003297110E+02  0.45959545939E+02  0.10000000000E+01 0.  0.
    9000005    1    3    3    0    0  0.43627093475E+02 -0.79923361016E+01 -0.92841035069E+02  0.10289634840E+03  0.10000000000E+01 0.  0.
<mgrwt>
<rscale>  0 0.12499335E+03</rscale>
<asrwt>0</asrwt>
<pdfrwt beam="2">  1        4 0.17668741E-01 0.12499335E+03</pdfrwt>
<pdfrwt beam="1">  1       -4 0.52321659E-02 0.12499335E+03</pdfrwt>
<totfact> 0.99547149E+03</totfact>
</mgrwt>
</event>
<event>
 5    1  0.3516911E-002  0.1249975E+03  0.7818608E-02  0.1235073E+00
         -4   -1    0    0    0  501 -0.00000000000E+00  0.00000000000E+00  0.10264622885E+02  0.10342890455E+02  0.12700000000E+01 0. -1.
          4   -1    0    0  501    0  0.00000000000E+00 -0.00000000000E+00 -0.37901450456E+03  0.37901663231E+03  0.12700000000E+01 0. -1.
         25    2    1    2    0    0  0.00000000000E+00  0.00000000000E+00 -0.36874988168E+03  0.38935952277E+03  0.12499745090E+03 0.  0.
    9000005    1    3    3    0    0 -0.19975027474E+02  0.58283593340E+02 -0.21691252624E+03  0.22549506206E+03  0.10000000000E+01 0.  0.
    9000005    1    3    3    0    0  0.19975027474E+02 -0.58283593340E+02 -0.15183735544E+03  0.16386446070E+03  0.10000000000E+01 0.  0.
<mgrwt>
<rscale>  0 0.12499745E+03</rscale>
<asrwt>0</asrwt>
<pdfrwt beam="2">  1        4 0.58316097E-01 0.12499745E+03</pdfrwt>
<pdfrwt beam="1">  1       -4 0.15853573E-02 0.12499745E+03</pdfrwt>
<totfact> 0.65604693E+03</totfact>
</mgrwt>
</event>
<event>
 5    1  0.3516911E-002  0.1249970E+03  0.7818608E-02  0.1235074E+00
         -4   -1    0    0    0  501 -0.00000000000E+00  0.00000000000E+00  0.29745291848E+01  0.32343042329E+01  0.12700000000E+01 0.  1.
          4   -1    0    0  501    0  0.00000000000E+00 -0.00000000000E+00 -0.12579666292E+04  0.12579672703E+04  0.12700000000E+01 0.  1.
         25    2    1    2    0    0  0.00000000000E+00  0.00000000000E+00 -0.12549921000E+04  0.12612015745E+04  0.12499696172E+03 0.  0.
    9000005    1    3    3    0    0  0.19340062695E+02 -0.57614413853E+02 -0.77426842336E+03  0.77665053282E+03  0.10000000000E+01 0.  0.
    9000005    1    3    3    0    0 -0.19340062695E+02  0.57614413853E+02 -0.48072367669E+03  0.48455104173E+03  0.10000000000E+01 0.  0.
<mgrwt>
<rscale>  0 0.12499696E+03</rscale>
<asrwt>0</asrwt>
<pdfrwt beam="2">  1        4 0.19355295E+00 0.12499696E+03</pdfrwt>
<pdfrwt beam="1">  1       -4 0.47765289E-03 0.12499696E+03</pdfrwt>
<totfact> 0.23164747E+03</totfact>
</mgrwt>
</event>
<event>
 5    1  0.3516911E-002  0.1249997E+03  0.7818608E-02  0.1235070E+00
         -4   -1    0    0    0  501 -0.00000000000E+00  0.00000000000E+00  0.12458413858E+02  0.12522977915E+02  0.12700000000E+01 0. -1.
          4   -1    0    0  501    0  0.00000000000E+00 -0.00000000000E+00 -0.31266522597E+03  0.31266780524E+03  0.12700000000E+01 0. -1.
         25    2    1    2    0    0  0.00000000000E+00  0.00000000000E+00 -0.30020681211E+03  0.32519078315E+03  0.12499966163E+03 0.  0.
    9000005    1    3    3    0    0  0.37809215525E+02 -0.49471956369E+02 -0.16392281522E+03  0.17535307410E+03  0.10000000000E+01 0.  0.
    9000005    1    3    3    0    0 -0.37809215525E+02  0.49471956369E+02 -0.13628399689E+03  0.14983770905E+03  0.10000000000E+01 0.  0.
<mgrwt>
<rscale>  0 0.12499966E+03</rscale>
<asrwt>0</asrwt>
<pdfrwt beam="2">  1        4 0.48107501E-01 0.12499966E+03</pdfrwt>
<pdfrwt beam="1">  1       -4 0.19218442E-02 0.12499966E+03</pdfrwt>
<totfact> 0.72543521E+03</totfact>
</mgrwt>
</event>
<event>
 5    1  0.3516911E-002  0.1249993E+03  0.7818608E-02  0.1235070E+00
         -4   -1    0    0    0  501 -0.00000000000E+00  0.00000000000E+00  0.16833157763E+03  0.16833636840E+03  0.12700000000E+01 0.  1.
          4   -1    0    0  501    0  0.00000000000E+00 -0.00000000000E+00 -0.23182936666E+02  0.23217696967E+02  0.12700000000E+01 0.  1.
         25    2    1    2    0    0  0.00000000000E+00  0.00000000000E+00  0.14514864096E+03  0.19155406537E+03  0.12499932794E+03 0.  0.
    9000005    1    3    3    0    0  0.36457023358E+02  0.32185608829E+02  0.13271515350E+03  0.14134829301E+03  0.10000000000E+01 0.  0.
    9000005    1    3    3    0    0 -0.36457023358E+02 -0.32185608829E+02  0.12433487462E+02  0.50205772360E+02  0.10000000000E+01 0.  0.
<mgrwt>
<rscale>  0 0.12499933E+03</rscale>
<asrwt>0</asrwt>
<pdfrwt beam="2">  1        4 0.35696481E-02 0.12499933E+03</pdfrwt>
<pdfrwt beam="1">  1       -4 0.25900208E-01 0.12499933E+03</pdfrwt>
<totfact> 0.91578992E+03</totfact>
</mgrwt>
</event>
<event>
 5    1  0.3516911E-002  0.1250021E+03  0.7818608E-02  0.1235066E+00
          4   -1    0    0  501    0  0.00000000000E+00  0.00000000000E+00  0.61900337577E+02  0.61913364406E+02  0.12700000000E+01 0. -1.
         -4   -1    0    0    0  501 -0.00000000000E+00 -0.00000000000E+00 -0.63081542126E+02  0.63094325078E+02  0.12700000000E+01 0. -1.
         25    2    1    2    0    0  0.00000000000E+00  0.00000000000E+00 -0.11812045491E+01  0.12500768948E+03  0.12500210873E+03 0.  0.
    9000005    1    3    3    0    0 -0.57588752405E+02 -0.15677071921E+02 -0.19115651516E+02  0.62678888953E+02  0.10000000000E+01 0.  0.
    9000005    1    3    3    0    0  0.57588752405E+02  0.15677071921E+02  0.17934446967E+02  0.62328800530E+02  0.10000000000E+01 0.  0.
<mgrwt>
<rscale>  0 0.12500211E+03</rscale>
<asrwt>0</asrwt>
<pdfrwt beam="1">  1        4 0.95251142E-02 0.12500211E+03</pdfrwt>
<pdfrwt beam="2">  1       -4 0.97068380E-02 0.12500211E+03</pdfrwt>
<totfact> 0.10452197E+04</totfact>
</mgrwt>
</event>
<event>
 5    1  0.3516911E-002  0.1249947E+03  0.7818608E-02  0.1235078E+00
          4   -1    0    0  501    0  0.00000000000E+00  0.00000000000E+00  0.27871073095E+03  0.27871362444E+03  0.12700000000E+01 0. -1.
         -4   -1    0    0    0  501 -0.00000000000E+00 -0.00000000000E+00 -0.13982483636E+02  0.14040040906E+02  0.12700000000E+01 0. -1.
         25    2    1    2    0    0  0.00000000000E+00  0.00000000000E+00  0.26472824732E+03  0.29275366535E+03  0.12499465447E+03 0.  0.
    9000005    1    3    3    0    0  0.14720771254E+02  0.60699652210E+02  0.13690992294E+03  0.15048746089E+03  0.10000000000E+01 0.  0.
    9000005    1    3    3    0    0 -0.14720771254E+02 -0.60699652210E+02  0.12781832438E+03  0.14226620446E+03  0.10000000000E+01 0.  0.
<mgrwt>
<rscale>  0 0.12499465E+03</rscale>
<asrwt>0</asrwt>
<pdfrwt beam="1">  1        4 0.42883221E-01 0.12499465E+03</pdfrwt>
<pdfrwt beam="2">  1       -4 0.21558016E-02 0.12499465E+03</pdfrwt>
<totfact> 0.76525976E+03</totfact>
</mgrwt>
</event>
<event>
 5    1  0.3516911E-002  0.1250001E+03  0.7818608E-02  0.1235069E+00
         -4   -1    0    0    0  501 -0.00000000000E+00  0.00000000000E+00  0.18541718918E+04  0.18541723267E+04  0.12700000000E+01 0.  1.
          4   -1    0    0  501    0  0.00000000000E+00 -0.00000000000E+00 -0.19148672922E+01  0.22977416623E+01  0.12700000000E+01 0.  1.
         25    2    1    2    0    0  0.00000000000E+00  0.00000000000E+00  0.18522570245E+04  0.18564700684E+04  0.12500012011E+03 0.  0.
    9000005    1    3    3    0    0 -0.51607361788E+02 -0.32661213655E+02  0.72955576777E+03  0.73210838880E+03  0.10000000000E+01 0.  0.
    9000005    1    3    3    0    0  0.51607361788E+02  0.32661213655E+02  0.11227012567E+04  0.11243616796E+04  0.10000000000E+01 0.  0.
<mgrwt>
<rscale>  0 0.12500012E+03</rscale>
<asrwt>0</asrwt>
<pdfrwt beam="2">  1        4 0.32408074E-03 0.12500012E+03</pdfrwt>
<pdfrwt beam="1">  1       -4 0.28528632E+00 0.12500012E+03</pdfrwt>
<totfact> 0.11853159E+03</totfact>
</mgrwt>
</event>
<event>
 5    1  0.3516911E-002  0.1249986E+03  0.7818608E-02  0.1235072E+00
         -4   -1    0    0    0  501 -0.00000000000E+00  0.00000000000E+00  0.32408087593E+02  0.32432962268E+02  0.12700000000E+01 0.  1.
          4   -1    0    0  501    0  0.00000000000E+00 -0.00000000000E+00 -0.12045593836E+03  0.12046263316E+03  0.12700000000E+01 0.  1.
         25    2    1    2    0    0  0.00000000000E+00  0.00000000000E+00 -0.88047850772E+02  0.15289559543E+03  0.12499855629E+03 0.  0.
    9000005    1    3    3    0    0 -0.54188368057E+02  0.11056234855E+02 -0.84350903093E+01  0.55953286859E+02  0.10000000000E+01 0.  0.
    9000005    1    3    3    0    0  0.54188368057E+02 -0.11056234855E+02 -0.79612760462E+02  0.96942308567E+02  0.10000000000E+01 0.  0.
<mgrwt>
<rscale>  0 0.12499856E+03</rscale>
<asrwt>0</asrwt>
<pdfrwt beam="2">  1        4 0.18534111E-01 0.12499856E+03</pdfrwt>
<pdfrwt beam="1">  1       -4 0.49882881E-02 0.12499856E+03</pdfrwt>
<totfact> 0.98732812E+03</totfact>
</mgrwt>
</event>
<event>
 5    1  0.3516911E-002  0.1250346E+03  0.7818608E-02  0.1235015E+00
          4   -1    0    0  501    0  0.00000000000E+00  0.00000000000E+00  0.20706270270E+02  0.20745180850E+02  0.12700000000E+01 0. -1.
         -4   -1    0    0    0  501 -0.00000000000E+00 -0.00000000000E+00 -0.18853673683E+03  0.18854101420E+03  0.12700000000E+01 0. -1.
         25    2    1    2    0    0  0.00000000000E+00  0.00000000000E+00 -0.16783046656E+03  0.20928619505E+03  0.12503457894E+03 0.  0.
    9000005    1    3    3    0    0 -0.62317530669E+02 -0.20563791486E+01 -0.76484469160E+02  0.98684230486E+02  0.10000000000E+01 0.  0.
    9000005    1    3    3    0    0  0.62317530669E+02  0.20563791486E+01 -0.91345997404E+02  0.11060196457E+03  0.10000000000E+01 0.  0.
<mgrwt>
<rscale>  0 0.12503458E+03</rscale>
<asrwt>0</asrwt>
<pdfrwt beam="1">  1        4 0.31889023E-02 0.12503458E+03</pdfrwt>
<pdfrwt beam="2">  1       -4 0.29008973E-01 0.12503458E+03</pdfrwt>
<totfact> 0.88524130E+03</totfact>
</mgrwt>
</event>
<event>
 5    1  0.3516911E-002  0.1250028E+03  0.7818608E-02  0.1235065E+00
          4   -1    0    0  501    0  0.00000000000E+00  0.00000000000E+00  0.18271623393E+03  0.18272064756E+03  0.12700000000E+01 0. -1.
         -4   -1    0    0    0  501 -0.00000000000E+00 -0.00000000000E+00 -0.21356216948E+02  0.21393945459E+02  0.12700000000E+01 0. -1.
         25    2    1    2    0    0  0.00000000000E+00  0.00000000000E+00  0.16136001699E+03  0.20411459301E+03  0.12500284797E+03 0.  0.
    9000005    1    3    3    0    0  0.62048262616E+02 -0.35038625167E+01  0.69952095066E+02  0.93576490372E+02  0.10000000000E+01 0.  0.
    9000005    1    3    3    0    0 -0.62048262616E+02  0.35038625167E+01  0.91407921920E+02  0.11053810264E+03  0.10000000000E+01 0.  0.
<mgrwt>
<rscale>  0 0.12500285E+03</rscale>
<asrwt>0</asrwt>
<pdfrwt beam="1">  1        4 0.28113430E-01 0.12500285E+03</pdfrwt>
<pdfrwt beam="2">  1       -4 0.32888137E-02 0.12500285E+03</pdfrwt>
<totfact> 0.89440459E+03</totfact>
</mgrwt>
</event>
<event>
 5    1  0.3516911E-002  0.1250040E+03  0.7818608E-02  0.1235063E+00
          4   -1    0    0  501    0  0.00000000000E+00  0.00000000000E+00  0.11017060624E+02  0.11090019152E+02  0.12700000000E+01 0.  1.
         -4   -1    0    0    0  501 -0.00000000000E+00 -0.00000000000E+00 -0.35334219116E+03  0.35334447350E+03  0.12700000000E+01 0.  1.
         25    2    1    2    0    0  0.00000000000E+00  0.00000000000E+00 -0.34232513054E+03  0.36443449266E+03  0.12500401769E+03 0.  0.
    9000005    1    3    3    0    0 -0.78029481875E+01 -0.62004044563E+02 -0.17214504055E+03  0.18314011720E+03  0.10000000000E+01 0.  0.
    9000005    1    3    3    0    0  0.78029481875E+01  0.62004044563E+02 -0.17018008999E+03  0.18129437545E+03  0.10000000000E+01 0.  0.
<mgrwt>
<rscale>  0 0.12500402E+03</rscale>
<asrwt>0</asrwt>
<pdfrwt beam="1">  1        4 0.17007204E-02 0.12500402E+03</pdfrwt>
<pdfrwt beam="2">  1       -4 0.54366116E-01 0.12500402E+03</pdfrwt>
<totfact> 0.68159188E+03</totfact>
</mgrwt>
</event>
<event>
 5    1  0.3516911E-002  0.1250048E+03  0.7818608E-02  0.1235062E+00
          4   -1    0    0  501    0  0.00000000000E+00  0.00000000000E+00  0.10909328130E+03  0.10910067335E+03  0.12700000000E+01 0. -1.
         -4   -1    0    0    0  501 -0.00000000000E+00 -0.00000000000E+00 -0.35789411865E+02  0.35811937977E+02  0.12700000000E+01 0. -1.
         25    2    1    2    0    0  0.00000000000E+00  0.00000000000E+00  0.73303869439E+02  0.14491261133E+03  0.12500483050E+03 0.  0.
    9000005    1    3    3    0    0  0.50536597277E+02  0.12304630673E+02 -0.35092258557E+01  0.52140831087E+02  0.10000000000E+01 0.  0.
    9000005    1    3    3    0    0 -0.50536597277E+02 -0.12304630673E+02  0.76813095295E+02  0.92771780241E+02  0.10000000000E+01 0.  0.
<mgrwt>
<rscale>  0 0.12500483E+03</rscale>
<asrwt>0</asrwt>
<pdfrwt beam="1">  1        4 0.16785883E-01 0.12500483E+03</pdfrwt>
<pdfrwt beam="2">  1       -4 0.55083648E-02 0.12500483E+03</pdfrwt>
<totfact> 0.10031673E+04</totfact>
</mgrwt>
</event>
<event>
 5    1  0.3516911E-002  0.1249986E+03  0.7818608E-02  0.1235071E+00
         -4   -1    0    0    0  501 -0.00000000000E+00  0.00000000000E+00  0.44705345337E+03  0.44705525729E+03  0.12700000000E+01 0.  1.
          4   -1    0    0  501    0  0.00000000000E+00 -0.00000000000E+00 -0.86895967966E+01  0.87819128035E+01  0.12700000000E+01 0.  1.
         25    2    1    2    0    0  0.00000000000E+00  0.00000000000E+00  0.43836385658E+03  0.45583717010E+03  0.12499861955E+03 0.  0.
    9000005    1    3    3    0    0  0.61719613235E+02 -0.82923593165E+01  0.20020142392E+03  0.20966564817E+03  0.10000000000E+01 0.  0.
    9000005    1    3    3    0    0 -0.61719613235E+02  0.82923593165E+01  0.23816243266E+03  0.24617152193E+03  0.10000000000E+01 0.  0.
<mgrwt>
<rscale>  0 0.12499862E+03</rscale>
<asrwt>0</asrwt>
<pdfrwt beam="2">  1        4 0.13441010E-02 0.12499862E+03</pdfrwt>
<pdfrwt beam="1">  1       -4 0.68784694E-01 0.12499862E+03</pdfrwt>
<totfact> 0.59463242E+03</totfact>
</mgrwt>
</event>
<event>
 5    1  0.3516911E-002  0.1249980E+03  0.7818608E-02  0.1235072E+00
          4   -1    0    0  501    0  0.00000000000E+00  0.00000000000E+00  0.77438108547E+02  0.77448521970E+02  0.12700000000E+01 0.  1.
         -4   -1    0    0    0  501 -0.00000000000E+00 -0.00000000000E+00 -0.50420095359E+02  0.50436087437E+02  0.12700000000E+01 0.  1.
         25    2    1    2    0    0  0.00000000000E+00  0.00000000000E+00  0.27018013189E+02  0.12788460941E+03  0.12499800113E+03 0.  0.
    9000005    1    3    3    0    0 -0.18881043477E+02  0.59507003051E+02  0.10698225402E+02  0.63348474659E+02  0.10000000000E+01 0.  0.
    9000005    1    3    3    0    0  0.18881043477E+02 -0.59507003051E+02  0.16319787787E+02  0.64536134748E+02  0.10000000000E+01 0.  0.
<mgrwt>
<rscale>  0 0.12499800E+03</rscale>
<asrwt>0</asrwt>
<pdfrwt beam="1">  1        4 0.11915586E-01 0.12499800E+03</pdfrwt>
<pdfrwt beam="2">  1       -4 0.77589689E-02 0.12499800E+03</pdfrwt>
<totfact> 0.10390449E+04</totfact>
</mgrwt>
</event>
<event>
 5    1  0.3516911E-002  0.1250025E+03  0.7818608E-02  0.1235065E+00
         -4   -1    0    0    0  501 -0.00000000000E+00  0.00000000000E+00  0.15901113671E+04  0.15901118743E+04  0.12700000000E+01 0.  1.
          4   -1    0    0  501    0  0.00000000000E+00 -0.00000000000E+00 -0.22920132771E+01  0.26203482330E+01  0.12700000000E+01 0.  1.
         25    2    1    2    0    0  0.00000000000E+00  0.00000000000E+00  0.15878193539E+04  0.15927322225E+04  0.12500252882E+03 0.  0.
    9000005    1    3    3    0    0  0.29777060575E+02 -0.75291632063E+01  0.10045210055E+03  0.10504754228E+03  0.10000000000E+01 0.  0.
    9000005    1    3    3    0    0 -0.29777060575E+02  0.75291632063E+01  0.14873672533E+04  0.14876846803E+04  0.10000000000E+01 0.  0.
<mgrwt>
<rscale>  0 0.12500253E+03</rscale>
<asrwt>0</asrwt>
<pdfrwt beam="2">  1        4 0.37791310E-03 0.12500253E+03</pdfrwt>
<pdfrwt beam="1">  1       -4 0.24465773E+00 0.12500253E+03</pdfrwt>
<totfact> 0.16176888E+03</totfact>
</mgrwt>
</event>
<event>
 5    1  0.3516911E-002  0.1249948E+03  0.7818608E-02  0.1235077E+00
         -4   -1    0    0    0  501 -0.00000000000E+00  0.00000000000E+00  0.45051611765E+03  0.45051790771E+03  0.12700000000E+01 0.  1.
          4   -1    0    0  501    0  0.00000000000E+00 -0.00000000000E+00 -0.86215690858E+01  0.87146057571E+01  0.12700000000E+01 0.  1.
         25    2    1    2    0    0  0.00000000000E+00  0.00000000000E+00  0.44189454857E+03  0.45923251346E+03  0.12499483737E+03 0.  0.
    9000005    1    3    3    0    0  0.20074308756E+02  0.31791302527E+02  0.40432657091E+03  0.40607221123E+03  0.10000000000E+01 0.  0.
    9000005    1    3    3    0    0 -0.20074308756E+02 -0.31791302527E+02  0.37567977652E+02  0.53160302230E+02  0.10000000000E+01 0.  0.
<mgrwt>
<rscale>  0 0.12499484E+03</rscale>
<asrwt>0</asrwt>
<pdfrwt beam="2">  1        4 0.13336898E-02 0.12499484E+03</pdfrwt>
<pdfrwt beam="1">  1       -4 0.69317454E-01 0.12499484E+03</pdfrwt>
<totfact> 0.59178977E+03</totfact>
</mgrwt>
</event>
<event>
 5    1  0.3516911E-002  0.1250009E+03  0.7818608E-02  0.1235068E+00
          4   -1    0    0  501    0  0.00000000000E+00  0.00000000000E+00  0.38642052777E+02  0.38662916895E+02  0.12700000000E+01 0. -1.
         -4   -1    0    0    0  501 -0.00000000000E+00 -0.00000000000E+00 -0.10103743593E+03  0.10104541731E+03  0.12700000000E+01 0. -1.
         25    2    1    2    0    0  0.00000000000E+00  0.00000000000E+00 -0.62395383152E+02  0.13970833420E+03  0.12500093923E+03 0.  0.
    9000005    1    3    3    0    0 -0.26956158770E+02 -0.87579753620E+00  0.31807979653E+02  0.41715094229E+02  0.10000000000E+01 0.  0.
    9000005    1    3    3    0    0  0.26956158770E+02  0.87579753620E+00 -0.94203362806E+02  0.97993239975E+02  0.10000000000E+01 0.  0.
<mgrwt>
<rscale>  0 0.12500094E+03</rscale>
<asrwt>0</asrwt>
<pdfrwt beam="1">  1        4 0.59471501E-02 0.12500094E+03</pdfrwt>
<pdfrwt beam="2">  1       -4 0.15546440E-01 0.12500094E+03</pdfrwt>
<totfact> 0.10139420E+04</totfact>
</mgrwt>
</event>
<event>
 5    1  0.3516911E-002  0.1249976E+03  0.7818608E-02  0.1235073E+00
         -4   -1    0    0    0  501 -0.00000000000E+00  0.00000000000E+00  0.19387229096E+02  0.19428781537E+02  0.12700000000E+01 0.  1.
          4   -1    0    0  501    0  0.00000000000E+00 -0.00000000000E+00 -0.20121887429E+03  0.20122288208E+03  0.12700000000E+01 0.  1.
         25    2    1    2    0    0  0.00000000000E+00  0.00000000000E+00 -0.18183164520E+03  0.22065166361E+03  0.12499763782E+03 0.  0.
    9000005    1    3    3    0    0 -0.92525876891E+01 -0.36445136530E+02 -0.17902345557E+03  0.18293238095E+03  0.10000000000E+01 0.  0.
    9000005    1    3    3    0    0  0.92525876891E+01  0.36445136530E+02 -0.28081896244E+01  0.37719282663E+02  0.10000000000E+01 0.  0.
<mgrwt>
<rscale>  0 0.12499764E+03</rscale>
<asrwt>0</asrwt>
<pdfrwt beam="2">  1        4 0.30960253E-01 0.12499764E+03</pdfrwt>
<pdfrwt beam="1">  1       -4 0.29861554E-02 0.12499764E+03</pdfrwt>
<totfact> 0.86769916E+03</totfact>
</mgrwt>
</event>
<event>
 5    1  0.3516911E-002  0.1250028E+03  0.7818608E-02  0.1235065E+00
          4   -1    0    0  501    0  0.00000000000E+00  0.00000000000E+00  0.99799073047E+02  0.99807153456E+02  0.12700000000E+01 0.  1.
         -4   -1    0    0    0  501 -0.00000000000E+00 -0.00000000000E+00 -0.39122937629E+02  0.39143545429E+02  0.12700000000E+01 0.  1.
         25    2    1    2    0    0  0.00000000000E+00  0.00000000000E+00  0.60676135418E+02  0.13895069888E+03  0.12500281321E+03 0.  0.
    9000005    1    3    3    0    0  0.87675598671E+01  0.44122890655E+02 -0.17881039970E+02  0.48419326474E+02  0.10000000000E+01 0.  0.
    9000005    1    3    3    0    0 -0.87675598671E+01 -0.44122890655E+02  0.78557175388E+02  0.90531372411E+02  0.10000000000E+01 0.  0.
<mgrwt>
<rscale>  0 0.12500281E+03</rscale>
<asrwt>0</asrwt>
<pdfrwt beam="1">  1        4 0.15355910E-01 0.12500281E+03</pdfrwt>
<pdfrwt beam="2">  1       -4 0.60211203E-02 0.12500281E+03</pdfrwt>
<totfact> 0.10154736E+04</totfact>
</mgrwt>
</event>
<event>
 5    1  0.3516911E-002  0.1249992E+03  0.7818608E-02  0.1235071E+00
         -4   -1    0    0    0  501 -0.00000000000E+00  0.00000000000E+00  0.29199898291E+01  0.31842174238E+01  0.12700000000E+01 0. -1.
          4   -1    0    0  501    0  0.00000000000E+00 -0.00000000000E+00 -0.12795744247E+04  0.12795750550E+04  0.12700000000E+01 0. -1.
         25    2    1    2    0    0  0.00000000000E+00  0.00000000000E+00 -0.12766544349E+04  0.12827592724E+04  0.12499921913E+03 0.  0.
    9000005    1    3    3    0    0 -0.34195104869E+02 -0.40802346605E+02 -0.97417746847E+03  0.97563152714E+03  0.10000000000E+01 0.  0.
    9000005    1    3    3    0    0  0.34195104869E+02  0.40802346605E+02 -0.30247696645E+03  0.30712774527E+03  0.10000000000E+01 0.  0.
<mgrwt>
<rscale>  0 0.12499922E+03</rscale>
<asrwt>0</asrwt>
<pdfrwt beam="2">  1        4 0.19687755E+00 0.12499922E+03</pdfrwt>
<pdfrwt beam="1">  1       -4 0.46960391E-03 0.12499922E+03</pdfrwt>
<totfact> 0.22639572E+03</totfact>
</mgrwt>
</event>
<event>
 5    1  0.3516911E-002  0.1249992E+03  0.7818608E-02  0.1235071E+00
         -4   -1    0    0    0  501 -0.00000000000E+00  0.00000000000E+00  0.27343812268E+02  0.27373289341E+02  0.12700000000E+01 0. -1.
          4   -1    0    0  501    0  0.00000000000E+00 -0.00000000000E+00 -0.14274566133E+03  0.14275131078E+03  0.12700000000E+01 0. -1.
         25    2    1    2    0    0  0.00000000000E+00  0.00000000000E+00 -0.11540184906E+03  0.17012460012E+03  0.12499917119E+03 0.  0.
    9000005    1    3    3    0    0  0.32007410780E+02 -0.31965099232E+02  0.97967909456E+00  0.45257062265E+02  0.10000000000E+01 0.  0.
    9000005    1    3    3    0    0 -0.32007410780E+02  0.31965099232E+02 -0.11638152815E+03  0.12486753785E+03  0.10000000000E+01 0.  0.
<mgrwt>
<rscale>  0 0.12499917E+03</rscale>
<asrwt>0</asrwt>
<pdfrwt beam="2">  1        4 0.21963573E-01 0.12499917E+03</pdfrwt>
<pdfrwt beam="1">  1       -4 0.42094425E-02 0.12499917E+03</pdfrwt>
<totfact> 0.95427193E+03</totfact>
</mgrwt>
</event>
<event>
 5    1  0.3516911E-002  0.1249996E+03  0.7818608E-02  0.1235070E+00
          4   -1    0    0  501    0  0.00000000000E+00  0.00000000000E+00  0.81683179763E+03  0.81683278492E+03  0.12700000000E+01 0. -1.
         -4   -1    0    0    0  501 -0.00000000000E+00 -0.00000000000E+00 -0.46968362108E+01  0.48655082356E+01  0.12700000000E+01 0. -1.
         25    2    1    2    0    0  0.00000000000E+00  0.00000000000E+00  0.81213496142E+03  0.82169829316E+03  0.12499955766E+03 0.  0.
    9000005    1    3    3    0    0  0.58366641842E+02 -0.21004520474E+02  0.35627804263E+03  0.36163918264E+03  0.10000000000E+01 0.  0.
    9000005    1    3    3    0    0 -0.58366641842E+02  0.21004520474E+02  0.45585691879E+03  0.46005911052E+03  0.10000000000E+01 0.  0.
<mgrwt>
<rscale>  0 0.12499956E+03</rscale>
<asrwt>0</asrwt>
<pdfrwt beam="1">  1        4 0.12567946E+00 0.12499956E+03</pdfrwt>
<pdfrwt beam="2">  1       -4 0.73564103E-03 0.12499956E+03</pdfrwt>
<totfact> 0.37314587E+03</totfact>
</mgrwt>
</event>
<event>
 5    1  0.3516911E-002  0.1250115E+03  0.7818608E-02  0.1235051E+00
          4   -1    0    0  501    0  0.00000000000E+00  0.00000000000E+00  0.13983680598E+02  0.14041232961E+02  0.12700000000E+01 0.  1.
         -4   -1    0    0    0  501 -0.00000000000E+00 -0.00000000000E+00 -0.27876211350E+03  0.27876500645E+03  0.12700000000E+01 0.  1.
         25    2    1    2    0    0  0.00000000000E+00  0.00000000000E+00 -0.26477843290E+03  0.29280623941E+03  0.12501150071E+03 0.  0.
    9000005    1    3    3    0    0  0.27547651441E+02 -0.31466254347E+02 -0.23608361592E+02  0.48034914381E+02  0.10000000000E+01 0.  0.
    9000005    1    3    3    0    0 -0.27547651441E+02  0.31466254347E+02 -0.24117007131E+03  0.24477132503E+03  0.10000000000E+01 0.  0.
<mgrwt>
<rscale>  0 0.12501150E+03</rscale>
<asrwt>0</asrwt>
<pdfrwt beam="1">  1        4 0.21559853E-02 0.12501150E+03</pdfrwt>
<pdfrwt beam="2">  1       -4 0.42891125E-01 0.12501150E+03</pdfrwt>
<totfact> 0.76490625E+03</totfact>
</mgrwt>
</event>
<event>
 5    1  0.3516911E-002  0.1250462E+03  0.7818608E-02  0.1234997E+00
          4   -1    0    0  501    0  0.00000000000E+00  0.00000000000E+00  0.16566287435E+03  0.16566774230E+03  0.12700000000E+01 0.  1.
         -4   -1    0    0    0  501 -0.00000000000E+00 -0.00000000000E+00 -0.23574641092E+02  0.23608824677E+02  0.12700000000E+01 0.  1.
         25    2    1    2    0    0  0.00000000000E+00  0.00000000000E+00  0.14208823326E+03  0.18927656697E+03  0.12504620256E+03 0.  0.
    9000005    1    3    3    0    0  0.62511827885E+02  0.46619710624E+00  0.71707760786E+02  0.95136475246E+02  0.10000000000E+01 0.  0.
    9000005    1    3    3    0    0 -0.62511827885E+02 -0.46619710624E+00  0.70380472470E+02  0.94140091727E+02  0.10000000000E+01 0.  0.
<mgrwt>
<rscale>  0 0.12504620E+03</rscale>
<asrwt>0</asrwt>
<pdfrwt beam="1">  1        4 0.25489601E-01 0.12504620E+03</pdfrwt>
<pdfrwt beam="2">  1       -4 0.36298716E-02 0.12504620E+03</pdfrwt>
<totfact> 0.91878212E+03</totfact>
</mgrwt>
</event>
<event>
 5    1  0.3516911E-002  0.1249993E+03  0.7818608E-02  0.1235070E+00
          4   -1    0    0  501    0  0.00000000000E+00  0.00000000000E+00  0.56506547034E+02  0.56520817030E+02  0.12700000000E+01 0. -1.
         -4   -1    0    0    0  501 -0.00000000000E+00 -0.00000000000E+00 -0.69099548601E+02  0.69111218459E+02  0.12700000000E+01 0. -1.
         25    2    1    2    0    0  0.00000000000E+00  0.00000000000E+00 -0.12593001567E+02  0.12563203549E+03  0.12499929861E+03 0.  0.
    9000005    1    3    3    0    0  0.19722997212E+02 -0.56506713549E+02  0.11772289590E+02  0.61004853063E+02  0.10000000000E+01 0.  0.
    9000005    1    3    3    0    0 -0.19722997212E+02  0.56506713549E+02 -0.24365291158E+02  0.64627182426E+02  0.10000000000E+01 0.  0.
<mgrwt>
<rscale>  0 0.12499930E+03</rscale>
<asrwt>0</asrwt>
<pdfrwt beam="1">  1        4 0.86953103E-02 0.12499930E+03</pdfrwt>
<pdfrwt beam="2">  1       -4 0.10632695E-01 0.12499930E+03</pdfrwt>
<totfact> 0.10439206E+04</totfact>
</mgrwt>
</event>
<event>
 5    1  0.3516911E-002  0.1249892E+03  0.7818608E-02  0.1235086E+00
         -4   -1    0    0    0  501 -0.00000000000E+00  0.00000000000E+00  0.39252058047E+02  0.39272598093E+02  0.12700000000E+01 0.  1.
          4   -1    0    0  501    0  0.00000000000E+00 -0.00000000000E+00 -0.99449239490E+02  0.99457348321E+02  0.12700000000E+01 0.  1.
         25    2    1    2    0    0  0.00000000000E+00  0.00000000000E+00 -0.60197181443E+02  0.13872994641E+03  0.12498918905E+03 0.  0.
    9000005    1    3    3    0    0  0.50481370102E+02  0.10377558145E+02  0.91201921979E+01  0.52347305051E+02  0.10000000000E+01 0.  0.
    9000005    1    3    3    0    0 -0.50481370102E+02 -0.10377558145E+02 -0.69317373640E+02  0.86382641363E+02  0.10000000000E+01 0.  0.
<mgrwt>
<rscale>  0 0.12498919E+03</rscale>
<asrwt>0</asrwt>
<pdfrwt beam="2">  1        4 0.15302087E-01 0.12498919E+03</pdfrwt>
<pdfrwt beam="1">  1       -4 0.60409820E-02 0.12498919E+03</pdfrwt>
<totfact> 0.10162452E+04</totfact>
</mgrwt>
</event>
<event>
 5    1  0.3516911E-002  0.1249977E+03  0.7818608E-02  0.1235073E+00
         -4   -1    0    0    0  501 -0.00000000000E+00  0.00000000000E+00  0.91688245379E+01  0.92563623204E+01  0.12700000000E+01 0.  1.
          4   -1    0    0  501    0  0.00000000000E+00 -0.00000000000E+00 -0.42390770409E+03  0.42390960650E+03  0.12700000000E+01 0.  1.
         25    2    1    2    0    0  0.00000000000E+00  0.00000000000E+00 -0.41473887955E+03  0.43316596882E+03  0.12499767332E+03 0.  0.
    9000005    1    3    3    0    0 -0.33543027586E+02  0.40393278422E+02 -0.32480242310E+03  0.32902031198E+03  0.10000000000E+01 0.  0.
    9000005    1    3    3    0    0  0.33543027586E+02 -0.40393278422E+02 -0.89936456452E+02  0.10414565685E+03  0.10000000000E+01 0.  0.
<mgrwt>
<rscale>  0 0.12499767E+03</rscale>
<asrwt>0</asrwt>
<pdfrwt beam="2">  1        4 0.65223435E-01 0.12499767E+03</pdfrwt>
<pdfrwt beam="1">  1       -4 0.14174687E-02 0.12499767E+03</pdfrwt>
<totfact> 0.61453220E+03</totfact>
</mgrwt>
</event>
<event>
 5    1  0.3516911E-002  0.1249994E+03  0.7818608E-02  0.1235070E+00
          4   -1    0    0  501    0  0.00000000000E+00  0.00000000000E+00  0.65371575773E+03  0.65371699137E+03  0.12700000000E+01 0.  1.
         -4   -1    0    0    0  501 -0.00000000000E+00 -0.00000000000E+00 -0.59066641655E+01  0.60416538766E+01  0.12700000000E+01 0.  1.
         25    2    1    2    0    0  0.00000000000E+00  0.00000000000E+00  0.64780909356E+03  0.65975864525E+03  0.12499939308E+03 0.  0.
    9000005    1    3    3    0    0  0.97434853375E+01 -0.25251746233E+02  0.62119886983E+03  0.62178904949E+03  0.10000000000E+01 0.  0.
    9000005    1    3    3    0    0 -0.97434853375E+01  0.25251746233E+02  0.26610223739E+02  0.37969595754E+02  0.10000000000E+01 0.  0.
<mgrwt>
<rscale>  0 0.12499939E+03</rscale>
<asrwt>0</asrwt>
<pdfrwt beam="1">  1        4 0.10058218E+00 0.12499939E+03</pdfrwt>
<pdfrwt beam="2">  1       -4 0.91919586E-03 0.12499939E+03</pdfrwt>
<totfact> 0.45298221E+03</totfact>
</mgrwt>
</event>
<event>
 4    1  0.3516911E-002  0.1249018E+03  0.7818608E-02  0.1235223E+00
         -4   -1    0    0    0  501 -0.00000000000E+00  0.00000000000E+00  0.11219893891E+04  0.11219901079E+04  0.12700000000E+01 0. -1.
          4   -1    0    0  501    0  0.00000000000E+00 -0.00000000000E+00 -0.33593280715E+01  0.35913764898E+01  0.12700000000E+01 0. -1.
    9000005    1    1    2    0    0 -0.94234704989E+01  0.25000928069E+02  0.10679206564E+04  0.10682552956E+04  0.10000000000E+01 0.  0.
    9000005    1    1    2    0    0  0.94234704989E+01 -0.25000928069E+02  0.50709404649E+02  0.57326188784E+02  0.10000000000E+01 0.  0.
<mgrwt>
<rscale>  0 0.12490182E+03</rscale>
<asrwt>0</asrwt>
<pdfrwt beam="2">  1        4 0.53472453E-03 0.12490182E+03</pdfrwt>
<pdfrwt beam="1">  1       -4 0.17263177E+00 0.12490182E+03</pdfrwt>
<totfact> 0.26803833E+03</totfact>
</mgrwt>
</event>
<event>
 5    1  0.3516911E-002  0.1249994E+03  0.7818608E-02  0.1235070E+00
         -4   -1    0    0    0  501 -0.00000000000E+00  0.00000000000E+00  0.50669093225E+03  0.50669252385E+03  0.12700000000E+01 0. -1.
          4   -1    0    0  501    0  0.00000000000E+00 -0.00000000000E+00 -0.76553380528E+01  0.77599678287E+01  0.12700000000E+01 0. -1.
         25    2    1    2    0    0  0.00000000000E+00  0.00000000000E+00  0.49903559420E+03  0.51445249168E+03  0.12499936767E+03 0.  0.
    9000005    1    3    3    0    0  0.56356011371E+02  0.14967829477E+02  0.34202130182E+03  0.34695764415E+03  0.10000000000E+01 0.  0.
    9000005    1    3    3    0    0 -0.56356011371E+02 -0.14967829477E+02  0.15701429238E+03  0.16749484753E+03  0.10000000000E+01 0.  0.
<mgrwt>
<rscale>  0 0.12499937E+03</rscale>
<asrwt>0</asrwt>
<pdfrwt beam="2">  1        4 0.11859151E-02 0.12499937E+03</pdfrwt>
<pdfrwt beam="1">  1       -4 0.77960628E-01 0.12499937E+03</pdfrwt>
<totfact> 0.54760969E+03</totfact>
</mgrwt>
</event>
<event>
 5    1  0.3516911E-002  0.1249996E+03  0.7818608E-02  0.1235070E+00
          4   -1    0    0  501    0  0.00000000000E+00  0.00000000000E+00  0.22728988553E+02  0.22764442023E+02  0.12700000000E+01 0.  1.
         -4   -1    0    0    0  501 -0.00000000000E+00 -0.00000000000E+00 -0.17168928504E+03  0.17169398212E+03  0.12700000000E+01 0.  1.
         25    2    1    2    0    0  0.00000000000E+00  0.00000000000E+00 -0.14896029649E+03  0.19445842415E+03  0.12499963517E+03 0.  0.
    9000005    1    3    3    0    0  0.12182396486E+01 -0.39870786863E+02 -0.14931530065E+03  0.15455491827E+03  0.10000000000E+01 0.  0.
    9000005    1    3    3    0    0 -0.12182396486E+01  0.39870786863E+02  0.35500416815E+00  0.39903505872E+02  0.10000000000E+01 0.  0.
<mgrwt>
<rscale>  0 0.12499964E+03</rscale>
<asrwt>0</asrwt>
<pdfrwt beam="1">  1        4 0.34998561E-02 0.12499964E+03</pdfrwt>
<pdfrwt beam="2">  1       -4 0.26416824E-01 0.12499964E+03</pdfrwt>
<totfact> 0.91078043E+03</totfact>
</mgrwt>
</event>
<event>
 5    1  0.3516911E-002  0.1249984E+03  0.7818608E-02  0.1235072E+00
         -4   -1    0    0    0  501 -0.00000000000E+00  0.00000000000E+00  0.13733868013E+03  0.13734455198E+03  0.12700000000E+01 0. -1.
          4   -1    0    0  501    0  0.00000000000E+00 -0.00000000000E+00 -0.28421075282E+02  0.28449436201E+02  0.12700000000E+01 0. -1.
         25    2    1    2    0    0  0.00000000000E+00  0.00000000000E+00  0.10891760485E+03  0.16579398818E+03  0.12499840748E+03 0.  0.
    9000005    1    3    3    0    0  0.20957215634E+02 -0.40935928069E+02 -0.16607907374E+01  0.46029483159E+02  0.10000000000E+01 0.  0.
    9000005    1    3    3    0    0 -0.20957215634E+02  0.40935928069E+02  0.11057839558E+03  0.11976450503E+03  0.10000000000E+01 0.  0.
<mgrwt>
<rscale>  0 0.12499841E+03</rscale>
<asrwt>0</asrwt>
<pdfrwt beam="2">  1        4 0.43751064E-02 0.12499841E+03</pdfrwt>
<pdfrwt beam="1">  1       -4 0.21131661E-01 0.12499841E+03</pdfrwt>
<totfact> 0.96240677E+03</totfact>
</mgrwt>
</event>
<event>
 5    1  0.3516911E-002  0.1249974E+03  0.7818608E-02  0.1235073E+00
          4   -1    0    0  501    0  0.00000000000E+00  0.00000000000E+00  0.12120642004E+04  0.12120648657E+04  0.12700000000E+01 0.  1.
         -4   -1    0    0    0  501 -0.00000000000E+00 -0.00000000000E+00 -0.30968597175E+01  0.33471540314E+01  0.12700000000E+01 0.  1.
         25    2    1    2    0    0  0.00000000000E+00  0.00000000000E+00  0.12089673407E+04  0.12154120198E+04  0.12499738796E+03 0.  0.
    9000005    1    3    3    0    0 -0.15112961284E+02 -0.50255074214E+02  0.27458428560E+03  0.27955590493E+03  0.10000000000E+01 0.  0.
    9000005    1    3    3    0    0  0.15112961284E+02  0.50255074214E+02  0.93438305506E+03  0.93585611483E+03  0.10000000000E+01 0.  0.
<mgrwt>
<rscale>  0 0.12499739E+03</rscale>
<asrwt>0</asrwt>
<pdfrwt beam="1">  1        4 0.18649064E+00 0.12499739E+03</pdfrwt>
<pdfrwt beam="2">  1       -4 0.49574477E-03 0.12499739E+03</pdfrwt>
<totfact> 0.24314271E+03</totfact>
</mgrwt>
</event>
<event>
 5    1  0.3516911E-002  0.1249978E+03  0.7818608E-02  0.1235073E+00
         -4   -1    0    0    0  501 -0.00000000000E+00  0.00000000000E+00  0.55287083806E+02  0.55301668472E+02  0.12700000000E+01 0.  1.
          4   -1    0    0  501    0  0.00000000000E+00 -0.00000000000E+00 -0.70621870054E+02  0.70633288398E+02  0.12700000000E+01 0.  1.
         25    2    1    2    0    0  0.00000000000E+00  0.00000000000E+00 -0.15334786249E+02  0.12593495687E+03  0.12499783075E+03 0.  0.
    9000005    1    3    3    0    0  0.27183959561E+02 -0.51025776079E+02 -0.31562645670E+02  0.65877143863E+02  0.10000000000E+01 0.  0.
    9000005    1    3    3    0    0 -0.27183959561E+02  0.51025776079E+02  0.16227859421E+02  0.60057813007E+02  0.10000000000E+01 0.  0.
<mgrwt>
<rscale>  0 0.12499783E+03</rscale>
<asrwt>0</asrwt>
<pdfrwt beam="2">  1        4 0.10866903E-01 0.12499783E+03</pdfrwt>
<pdfrwt beam="1">  1       -4 0.85077054E-02 0.12499783E+03</pdfrwt>
<totfact> 0.10432893E+04</totfact>
</mgrwt>
</event>
<event>
 5    1  0.3516911E-002  0.1250010E+03  0.7818608E-02  0.1235068E+00
         -4   -1    0    0    0  501 -0.00000000000E+00  0.00000000000E+00  0.10154116266E+02  0.10233229067E+02  0.12700000000E+01 0. -1.
          4   -1    0    0  501    0  0.00000000000E+00 -0.00000000000E+00 -0.38312923481E+03  0.38313133971E+03  0.12700000000E+01 0. -1.
         25    2    1    2    0    0  0.00000000000E+00  0.00000000000E+00 -0.37297511854E+03  0.39336456877E+03  0.12500097965E+03 0.  0.
    9000005    1    3    3    0    0 -0.42894232648E+02  0.44860143332E+02 -0.16358571453E+03  0.17496752171E+03  0.10000000000E+01 0.  0.
    9000005    1    3    3    0    0  0.42894232648E+02 -0.44860143332E+02 -0.20938940401E+03  0.21839704706E+03  0.10000000000E+01 0.  0.
<mgrwt>
<rscale>  0 0.12500098E+03</rscale>
<asrwt>0</asrwt>
<pdfrwt beam="2">  1        4 0.58949196E-01 0.12500098E+03</pdfrwt>
<pdfrwt beam="1">  1       -4 0.15684195E-02 0.12500098E+03</pdfrwt>
<totfact> 0.65201894E+03</totfact>
</mgrwt>
</event>
<event>
 5    1  0.3516911E-002  0.1249837E+03  0.7818608E-02  0.1235095E+00
          4   -1    0    0  501    0  0.00000000000E+00  0.00000000000E+00  0.15825559700E+02  0.15876436623E+02  0.12700000000E+01 0.  1.
         -4   -1    0    0    0  501 -0.00000000000E+00 -0.00000000000E+00 -0.24631864782E+03  0.24632192181E+03  0.12700000000E+01 0.  1.
         25    2    1    2    0    0  0.00000000000E+00  0.00000000000E+00 -0.23049308812E+03  0.26219835844E+03  0.12498366091E+03 0.  0.
    9000005    1    3    3    0    0 -0.14735587122E+02  0.99740214247E+01 -0.24090142253E+03  0.24155975246E+03  0.10000000000E+01 0.  0.
    9000005    1    3    3    0    0  0.14735587122E+02 -0.99740214247E+01  0.10408334412E+02  0.20638605971E+02  0.10000000000E+01 0.  0.
<mgrwt>
<rscale>  0 0.12498366E+03</rscale>
<asrwt>0</asrwt>
<pdfrwt beam="1">  1        4 0.24388671E-02 0.12498366E+03</pdfrwt>
<pdfrwt beam="2">  1       -4 0.37899339E-01 0.12498366E+03</pdfrwt>
<totfact> 0.80627857E+03</totfact>
</mgrwt>
</event>
<event>
 5    1  0.3516911E-002  0.1250020E+03  0.7818608E-02  0.1235066E+00
          4   -1    0    0  501    0  0.00000000000E+00  0.00000000000E+00  0.13858671763E+03  0.13859253661E+03  0.12700000000E+01 0. -1.
         -4   -1    0    0    0  501 -0.00000000000E+00 -0.00000000000E+00 -0.28166491519E+02  0.28195108521E+02  0.12700000000E+01 0. -1.
         25    2    1    2    0    0  0.00000000000E+00  0.00000000000E+00  0.11042022611E+03  0.16678764513E+03  0.12500196892E+03 0.  0.
    9000005    1    3    3    0    0  0.25779915542E+02 -0.11961392646E+02  0.12947205255E+03  0.13255825644E+03  0.10000000000E+01 0.  0.
    9000005    1    3    3    0    0 -0.25779915542E+02  0.11961392646E+02 -0.19051826437E+02  0.34229388689E+02  0.10000000000E+01 0.  0.
<mgrwt>
<rscale>  0 0.12500197E+03</rscale>
<asrwt>0</asrwt>
<pdfrwt beam="1">  1        4 0.21323682E-01 0.12500197E+03</pdfrwt>
<pdfrwt beam="2">  1       -4 0.43359554E-02 0.12500197E+03</pdfrwt>
<totfact> 0.96045661E+03</totfact>
</mgrwt>
</event>
<event>
 5    1  0.3516911E-002  0.1249975E+03  0.7818608E-02  0.1235073E+00
         -4   -1    0    0    0  501 -0.00000000000E+00  0.00000000000E+00  0.10578688527E+03  0.10579450834E+03  0.12700000000E+01 0.  1.
          4   -1    0    0  501    0  0.00000000000E+00 -0.00000000000E+00 -0.36904307014E+02  0.36926153011E+02  0.12700000000E+01 0.  1.
         25    2    1    2    0    0  0.00000000000E+00  0.00000000000E+00  0.68882578259E+02  0.14272066135E+03  0.12499751033E+03 0.  0.
    9000005    1    3    3    0    0 -0.26856532403E+02 -0.56289919951E+02  0.38902448960E+02  0.73513461053E+02  0.10000000000E+01 0.  0.
    9000005    1    3    3    0    0  0.26856532403E+02  0.56289919951E+02  0.29980129299E+02  0.69207200302E+02  0.10000000000E+01 0.  0.
<mgrwt>
<rscale>  0 0.12499751E+03</rscale>
<asrwt>0</asrwt>
<pdfrwt beam="2">  1        4 0.56798527E-02 0.12499751E+03</pdfrwt>
<pdfrwt beam="1">  1       -4 0.16277172E-01 0.12499751E+03</pdfrwt>
<totfact> 0.10078072E+04</totfact>
</mgrwt>
</event>
<event>
 5    1  0.3516911E-002  0.1250068E+03  0.7818608E-02  0.1235059E+00
          4   -1    0    0  501    0  0.00000000000E+00  0.00000000000E+00  0.62214395717E+01  0.63497409667E+01  0.12700000000E+01 0.  1.
         -4   -1    0    0    0  501 -0.00000000000E+00 -0.00000000000E+00 -0.62139946365E+03  0.62140076145E+03  0.12700000000E+01 0.  1.
         25    2    1    2    0    0  0.00000000000E+00  0.00000000000E+00 -0.61517802408E+03  0.62775050242E+03  0.12500676769E+03 0.  0.
    9000005    1    3    3    0    0 -0.25725378276E+02 -0.43610533978E+02 -0.12362635369E+03  0.13359696512E+03  0.10000000000E+01 0.  0.
    9000005    1    3    3    0    0  0.25725378276E+02  0.43610533978E+02 -0.49155167039E+03  0.49415353730E+03  0.10000000000E+01 0.  0.
<mgrwt>
<rscale>  0 0.12500677E+03</rscale>
<asrwt>0</asrwt>
<pdfrwt beam="1">  1        4 0.96711421E-03 0.12500677E+03</pdfrwt>
<pdfrwt beam="2">  1       -4 0.95609838E-01 0.12500677E+03</pdfrwt>
<totfact> 0.47154523E+03</totfact>
</mgrwt>
</event>
<event>
 5    1  0.3516911E-002  0.1250023E+03  0.7818608E-02  0.1235066E+00
          4   -1    0    0  501    0  0.00000000000E+00  0.00000000000E+00  0.12346525293E+03  0.12347178455E+03  0.12700000000E+01 0.  1.
         -4   -1    0    0    0  501 -0.00000000000E+00 -0.00000000000E+00 -0.31619525371E+02  0.31645019904E+02  0.12700000000E+01 0.  1.
         25    2    1    2    0    0  0.00000000000E+00  0.00000000000E+00  0.91845727555E+02  0.15511680445E+03  0.12500234139E+03 0.  0.
    9000005    1    3    3    0    0  0.40553476535E+02 -0.46933396107E+02  0.36466810325E+02  0.71959407894E+02  0.10000000000E+01 0.  0.
    9000005    1    3    3    0    0 -0.40553476535E+02  0.46933396107E+02  0.55378917230E+02  0.83157396560E+02  0.10000000000E+01 0.  0.
<mgrwt>
<rscale>  0 0.12500234E+03</rscale>
<asrwt>0</asrwt>
<pdfrwt beam="1">  1        4 0.18997118E-01 0.12500234E+03</pdfrwt>
<pdfrwt beam="2">  1       -4 0.48670059E-02 0.12500234E+03</pdfrwt>
<totfact> 0.98287398E+03</totfact>
</mgrwt>
</event>
<event>
 5    1  0.3516911E-002  0.1249993E+03  0.7818608E-02  0.1235070E+00
          4   -1    0    0  501    0  0.00000000000E+00  0.00000000000E+00  0.17288651286E+03  0.17289117742E+03  0.12700000000E+01 0.  1.
         -4   -1    0    0    0  501 -0.00000000000E+00 -0.00000000000E+00 -0.22571230107E+02  0.22606930985E+02  0.12700000000E+01 0.  1.
         25    2    1    2    0    0  0.00000000000E+00  0.00000000000E+00  0.15031528275E+03  0.19549810840E+03  0.12499930464E+03 0.  0.
    9000005    1    3    3    0    0 -0.36029186797E+02  0.77524469368E+01 -0.37737501780E+01  0.37060004387E+02  0.10000000000E+01 0.  0.
    9000005    1    3    3    0    0  0.36029186797E+02 -0.77524469368E+01  0.15408903293E+03  0.15843810401E+03  0.10000000000E+01 0.  0.
<mgrwt>
<rscale>  0 0.12499930E+03</rscale>
<asrwt>0</asrwt>
<pdfrwt beam="1">  1        4 0.26601029E-01 0.12499930E+03</pdfrwt>
<pdfrwt beam="2">  1       -4 0.34756022E-02 0.12499930E+03</pdfrwt>
<totfact> 0.90900781E+03</totfact>
</mgrwt>
</event>
<event>
 5    1  0.3516911E-002  0.1249899E+03  0.7818608E-02  0.1235085E+00
         -4   -1    0    0    0  501 -0.00000000000E+00  0.00000000000E+00  0.49951703314E+02  0.49967845301E+02  0.12700000000E+01 0. -1.
          4   -1    0    0  501    0  0.00000000000E+00 -0.00000000000E+00 -0.78153946474E+02  0.78164264530E+02  0.12700000000E+01 0. -1.
         25    2    1    2    0    0  0.00000000000E+00  0.00000000000E+00 -0.28202243160E+02  0.12813210983E+03  0.12498988379E+03 0.  0.
    9000005    1    3    3    0    0 -0.15352699101E+02 -0.58232710855E+02  0.29871871747E+01  0.60304869375E+02  0.10000000000E+01 0.  0.
    9000005    1    3    3    0    0  0.15352699101E+02  0.58232710855E+02 -0.31189430335E+02  0.67827240455E+02  0.10000000000E+01 0.  0.
<mgrwt>
<rscale>  0 0.12498988E+03</rscale>
<asrwt>0</asrwt>
<pdfrwt beam="2">  1        4 0.12025719E-01 0.12498988E+03</pdfrwt>
<pdfrwt beam="1">  1       -4 0.76869128E-02 0.12498988E+03</pdfrwt>
<totfact> 0.10387007E+04</totfact>
</mgrwt>
</event>
<event>
 5    1  0.3516911E-002  0.1250016E+03  0.7818608E-02  0.1235067E+00
          4   -1    0    0  501    0  0.00000000000E+00  0.00000000000E+00  0.45176770086E+02  0.45194617549E+02  0.12700000000E+01 0. -1.
         -4   -1    0    0    0  501 -0.00000000000E+00 -0.00000000000E+00 -0.86428546446E+02  0.86437876771E+02  0.12700000000E+01 0. -1.
         25    2    1    2    0    0  0.00000000000E+00  0.00000000000E+00 -0.41251776359E+02  0.13163249432E+03  0.12500161802E+03 0.  0.
    9000005    1    3    3    0    0 -0.12502220278E+02 -0.61227823023E+02 -0.21096003567E+02  0.65963574725E+02  0.10000000000E+01 0.  0.
    9000005    1    3    3    0    0  0.12502220278E+02  0.61227823023E+02 -0.20155772793E+02  0.65668919596E+02  0.10000000000E+01 0.  0.
<mgrwt>
<rscale>  0 0.12500162E+03</rscale>
<asrwt>0</asrwt>
<pdfrwt beam="1">  1        4 0.69523629E-02 0.12500162E+03</pdfrwt>
<pdfrwt beam="2">  1       -4 0.13298790E-01 0.12500162E+03</pdfrwt>
<totfact> 0.10309172E+04</totfact>
</mgrwt>
</event>
<event>
 5    1  0.3516911E-002  0.1249977E+03  0.7818608E-02  0.1235073E+00
          4   -1    0    0  501    0  0.00000000000E+00  0.00000000000E+00  0.28030219082E+03  0.28030506788E+03  0.12700000000E+01 0. -1.
         -4   -1    0    0    0  501 -0.00000000000E+00 -0.00000000000E+00 -0.13903458296E+02  0.13961341361E+02  0.12700000000E+01 0. -1.
         25    2    1    2    0    0  0.00000000000E+00  0.00000000000E+00  0.26639873252E+03  0.29426640924E+03  0.12499773964E+03 0.  0.
    9000005    1    3    3    0    0 -0.98339738111E+01  0.40983983621E+02  0.24181623221E+03  0.24546381426E+03  0.10000000000E+01 0.  0.
    9000005    1    3    3    0    0  0.98339738111E+01 -0.40983983621E+02  0.24582500315E+02  0.48802594973E+02  0.10000000000E+01 0.  0.
<mgrwt>
<rscale>  0 0.12499774E+03</rscale>
<asrwt>0</asrwt>
<pdfrwt beam="1">  1        4 0.43128089E-01 0.12499774E+03</pdfrwt>
<pdfrwt beam="2">  1       -4 0.21436674E-02 0.12499774E+03</pdfrwt>
<totfact> 0.76327554E+03</totfact>
</mgrwt>
</event>
<event>
 4    1  0.3516911E-002  0.1248257E+03  0.7818608E-02  0.1235342E+00
         -4   -1    0    0    0  501 -0.00000000000E+00  0.00000000000E+00  0.64772245918E+03  0.64772370424E+03  0.12700000000E+01 0. -1.
          4   -1    0    0  501    0  0.00000000000E+00 -0.00000000000E+00 -0.59456240406E+01  0.60797487803E+01  0.12700000000E+01 0. -1.
    9000005    1    1    2    0    0 -0.38183281085E+02 -0.32690396279E+02  0.12718172167E+03  0.13675823664E+03  0.10000000000E+01 0.  0.
    9000005    1    1    2    0    0  0.38183281085E+02  0.32690396279E+02  0.51459511347E+03  0.51704521637E+03  0.10000000000E+01 0.  0.
<mgrwt>
<rscale>  0 0.12482567E+03</rscale>
<asrwt>0</asrwt>
<pdfrwt beam="2">  1        4 0.92512491E-03 0.12482567E+03</pdfrwt>
<pdfrwt beam="1">  1       -4 0.99659973E-01 0.12482567E+03</pdfrwt>
<totfact> 0.45812908E+03</totfact>
</mgrwt>
</event>
<event>
 5    1  0.3516911E-002  0.1249998E+03  0.7818608E-02  0.1235070E+00
         -4   -1    0    0    0  501 -0.00000000000E+00  0.00000000000E+00  0.63383728372E+02  0.63396450392E+02  0.12700000000E+01 0.  1.
          4   -1    0    0  501    0  0.00000000000E+00 -0.00000000000E+00 -0.61602904095E+02  0.61615993807E+02  0.12700000000E+01 0.  1.
         25    2    1    2    0    0  0.00000000000E+00  0.00000000000E+00  0.17808242777E+01  0.12501244420E+03  0.12499975948E+03 0.  0.
    9000005    1    3    3    0    0  0.33845927720E+02 -0.52146606272E+02  0.72486982580E+01  0.62596797005E+02  0.10000000000E+01 0.  0.
    9000005    1    3    3    0    0 -0.33845927720E+02  0.52146606272E+02 -0.54678739803E+01  0.62415647195E+02  0.10000000000E+01 0.  0.
<mgrwt>
<rscale>  0 0.12499976E+03</rscale>
<asrwt>0</asrwt>
<pdfrwt beam="2">  1        4 0.94793554E-02 0.12499976E+03</pdfrwt>
<pdfrwt beam="1">  1       -4 0.97533283E-02 0.12499976E+03</pdfrwt>
<totfact> 0.10452649E+04</totfact>
</mgrwt>
</event>
<event>
 5    1  0.3516911E-002  0.1250054E+03  0.7818608E-02  0.1235061E+00
          4   -1    0    0  501    0  0.00000000000E+00  0.00000000000E+00  0.35382797577E+03  0.35383025497E+03  0.12700000000E+01 0.  1.
         -4   -1    0    0    0  501 -0.00000000000E+00 -0.00000000000E+00 -0.11002076630E+02  0.11075133867E+02  0.12700000000E+01 0.  1.
         25    2    1    2    0    0  0.00000000000E+00  0.00000000000E+00  0.34282589914E+03  0.36490538884E+03  0.12500538263E+03 0.  0.
    9000005    1    3    3    0    0 -0.56170539854E+02 -0.43518049622E+01  0.25036515572E+03  0.25662770495E+03  0.10000000000E+01 0.  0.
    9000005    1    3    3    0    0  0.56170539854E+02  0.43518049622E+01  0.92460743421E+02  0.10827768389E+03  0.10000000000E+01 0.  0.
<mgrwt>
<rscale>  0 0.12500538E+03</rscale>
<asrwt>0</asrwt>
<pdfrwt beam="1">  1        4 0.54440872E-01 0.12500538E+03</pdfrwt>
<pdfrwt beam="2">  1       -4 0.16984222E-02 0.12500538E+03</pdfrwt>
<totfact> 0.68107206E+03</totfact>
</mgrwt>
</event>
<event>
 5    1  0.3516911E-002  0.1250347E+03  0.7818608E-02  0.1235015E+00
         -4   -1    0    0    0  501 -0.00000000000E+00  0.00000000000E+00  0.52595114802E+01  0.54106710314E+01  0.12700000000E+01 0.  1.
          4   -1    0    0  501    0  0.00000000000E+00 -0.00000000000E+00 -0.73243588958E+03  0.73243699063E+03  0.12700000000E+01 0.  1.
         25    2    1    2    0    0  0.00000000000E+00  0.00000000000E+00 -0.72717637810E+03  0.73784766167E+03  0.12503474299E+03 0.  0.
    9000005    1    3    3    0    0 -0.43207737459E+02 -0.45009808442E+02 -0.34101657014E+03  0.34667865891E+03  0.10000000000E+01 0.  0.
    9000005    1    3    3    0    0  0.43207737459E+02  0.45009808442E+02 -0.38615980796E+03  0.39116900276E+03  0.10000000000E+01 0.  0.
<mgrwt>
<rscale>  0 0.12503474E+03</rscale>
<asrwt>0</asrwt>
<pdfrwt beam="2">  1        4 0.11269408E+00 0.12503474E+03</pdfrwt>
<pdfrwt beam="1">  1       -4 0.82086855E-03 0.12503474E+03</pdfrwt>
<totfact> 0.41131007E+03</totfact>
</mgrwt>
</event>
<event>
 5    1  0.3516911E-002  0.1249994E+03  0.7818608E-02  0.1235070E+00
          4   -1    0    0  501    0  0.00000000000E+00  0.00000000000E+00  0.12915253013E+03  0.12915877415E+03  0.12700000000E+01 0.  1.
         -4   -1    0    0    0  501 -0.00000000000E+00 -0.00000000000E+00 -0.30224622369E+02  0.30251292491E+02  0.12700000000E+01 0.  1.
         25    2    1    2    0    0  0.00000000000E+00  0.00000000000E+00  0.98927907761E+02  0.15941006664E+03  0.12499935364E+03 0.  0.
    9000005    1    3    3    0    0 -0.16524679419E+02  0.58586321870E+02  0.67489651921E+02  0.90891557675E+02  0.10000000000E+01 0.  0.
    9000005    1    3    3    0    0  0.16524679419E+02 -0.58586321870E+02  0.31438255839E+02  0.68518508962E+02  0.10000000000E+01 0.  0.
<mgrwt>
<rscale>  0 0.12499935E+03</rscale>
<asrwt>0</asrwt>
<pdfrwt beam="1">  1        4 0.19872152E-01 0.12499935E+03</pdfrwt>
<pdfrwt beam="2">  1       -4 0.46524737E-02 0.12499935E+03</pdfrwt>
<totfact> 0.97458056E+03</totfact>
</mgrwt>
</event>
<event>
 5    1  0.3516911E-002  0.1249977E+03  0.7818608E-02  0.1235073E+00
         -4   -1    0    0    0  501 -0.00000000000E+00  0.00000000000E+00  0.99040112241E+03  0.99040193667E+03  0.12700000000E+01 0.  1.
          4   -1    0    0  501    0  0.00000000000E+00 -0.00000000000E+00 -0.38408883196E+01  0.40454076536E+01  0.12700000000E+01 0.  1.
         25    2    1    2    0    0  0.00000000000E+00  0.00000000000E+00  0.98656023409E+03  0.99444734432E+03  0.12499770060E+03 0.  0.
    9000005    1    3    3    0    0 -0.28952253977E+02 -0.34537643630E+02  0.83768348894E+03  0.83889552954E+03  0.10000000000E+01 0.  0.
    9000005    1    3    3    0    0  0.28952253977E+02  0.34537643630E+02  0.14887674514E+03  0.15555181478E+03  0.10000000000E+01 0.  0.
<mgrwt>
<rscale>  0 0.12499770E+03</rscale>
<asrwt>0</asrwt>
<pdfrwt beam="2">  1        4 0.60670028E-03 0.12499770E+03</pdfrwt>
<pdfrwt beam="1">  1       -4 0.15238533E+00 0.12499770E+03</pdfrwt>
<totfact> 0.30790046E+03</totfact>
</mgrwt>
</event>
<event>
 5    1  0.3516911E-002  0.1250062E+03  0.7818608E-02  0.1235060E+00
         -4   -1    0    0    0  501 -0.00000000000E+00  0.00000000000E+00  0.16322203105E+02  0.16371536708E+02  0.12700000000E+01 0.  1.
          4   -1    0    0  501    0  0.00000000000E+00 -0.00000000000E+00 -0.23893291136E+03  0.23893628655E+03  0.12700000000E+01 0.  1.
         25    2    1    2    0    0  0.00000000000E+00  0.00000000000E+00 -0.22261070826E+03  0.25530782326E+03  0.12500622860E+03 0.  0.
    9000005    1    3    3    0    0  0.16735337681E+02  0.48653562039E+02 -0.38854819355E+02  0.64482072031E+02  0.10000000000E+01 0.  0.
    9000005    1    3    3    0    0 -0.16735337681E+02 -0.48653562039E+02 -0.18375588890E+03  0.19082575123E+03  0.10000000000E+01 0.  0.
<mgrwt>
<rscale>  0 0.12500623E+03</rscale>
<asrwt>0</asrwt>
<pdfrwt beam="2">  1        4 0.36762961E-01 0.12500623E+03</pdfrwt>
<pdfrwt beam="1">  1       -4 0.25151629E-02 0.12500623E+03</pdfrwt>
<totfact> 0.81557773E+03</totfact>
</mgrwt>
</event>
<event>
 5    1  0.3516911E-002  0.1250017E+03  0.7818608E-02  0.1235067E+00
         -4   -1    0    0    0  501 -0.00000000000E+00  0.00000000000E+00  0.29724602061E+03  0.29724873367E+03  0.12700000000E+01 0.  1.
          4   -1    0    0  501    0  0.00000000000E+00 -0.00000000000E+00 -0.13108375600E+02  0.13169753637E+02  0.12700000000E+01 0.  1.
         25    2    1    2    0    0  0.00000000000E+00  0.00000000000E+00  0.28413764501E+03  0.31041848731E+03  0.12500174379E+03 0.  0.
    9000005    1    3    3    0    0  0.53905700568E+02 -0.21323462933E+02  0.20003407574E+03  0.20826700670E+03  0.10000000000E+01 0.  0.
    9000005    1    3    3    0    0 -0.53905700568E+02  0.21323462933E+02  0.84103569275E+02  0.10215148061E+03  0.10000000000E+01 0.  0.
<mgrwt>
<rscale>  0 0.12500174E+03</rscale>
<asrwt>0</asrwt>
<pdfrwt beam="2">  1        4 0.20216031E-02 0.12500174E+03</pdfrwt>
<pdfrwt beam="1">  1       -4 0.45735090E-01 0.12500174E+03</pdfrwt>
<totfact> 0.74307396E+03</totfact>
</mgrwt>
</event>
<event>
 5    1  0.3516911E-002  0.1249983E+03  0.7818608E-02  0.1235072E+00
          4   -1    0    0  501    0  0.00000000000E+00  0.00000000000E+00  0.19362409519E+03  0.19362826018E+03  0.12700000000E+01 0.  1.
         -4   -1    0    0    0  501 -0.00000000000E+00 -0.00000000000E+00 -0.20149477841E+02  0.20189461540E+02  0.12700000000E+01 0.  1.
         25    2    1    2    0    0  0.00000000000E+00  0.00000000000E+00  0.17347461735E+03  0.21381772172E+03  0.12499830101E+03 0.  0.
    9000005    1    3    3    0    0 -0.15650756792E+02 -0.46766504961E+02  0.21084324686E+02  0.53643274713E+02  0.10000000000E+01 0.  0.
    9000005    1    3    3    0    0  0.15650756792E+02  0.46766504961E+02  0.15239029266E+03  0.16017444700E+03  0.10000000000E+01 0.  0.
<mgrwt>
<rscale>  0 0.12499830E+03</rscale>
<asrwt>0</asrwt>
<pdfrwt beam="1">  1        4 0.29791719E-01 0.12499830E+03</pdfrwt>
<pdfrwt beam="2">  1       -4 0.31033157E-02 0.12499830E+03</pdfrwt>
<totfact> 0.87859503E+03</totfact>
</mgrwt>
</event>
<event>
 5    1  0.3516911E-002  0.1249944E+03  0.7818608E-02  0.1235078E+00
          4   -1    0    0  501    0  0.00000000000E+00  0.00000000000E+00  0.19523741862E+02  0.19565004378E+02  0.12700000000E+01 0. -1.
         -4   -1    0    0    0  501 -0.00000000000E+00 -0.00000000000E+00 -0.19980440463E+03  0.19980844079E+03  0.12700000000E+01 0. -1.
         25    2    1    2    0    0  0.00000000000E+00  0.00000000000E+00 -0.18028066277E+03  0.21937344517E+03  0.12499436417E+03 0.  0.
    9000005    1    3    3    0    0  0.81285759032E+00  0.59533015336E+02 -0.12344302206E+03  0.13705480782E+03  0.10000000000E+01 0.  0.
    9000005    1    3    3    0    0 -0.81285759032E+00 -0.59533015336E+02 -0.56837640713E+02  0.82318637345E+02  0.10000000000E+01 0.  0.
<mgrwt>
<rscale>  0 0.12499436E+03</rscale>
<asrwt>0</asrwt>
<pdfrwt beam="1">  1        4 0.30071372E-02 0.12499436E+03</pdfrwt>
<pdfrwt beam="2">  1       -4 0.30742622E-01 0.12499436E+03</pdfrwt>
<totfact> 0.86978541E+03</totfact>
</mgrwt>
</event>
<event>
 5    1  0.3516911E-002  0.1249952E+03  0.7818608E-02  0.1235077E+00
          4   -1    0    0  501    0  0.00000000000E+00  0.00000000000E+00  0.30399917259E+02  0.30426433727E+02  0.12700000000E+01 0. -1.
         -4   -1    0    0    0  501 -0.00000000000E+00 -0.00000000000E+00 -0.12839995078E+03  0.12840623139E+03  0.12700000000E+01 0. -1.
         25    2    1    2    0    0  0.00000000000E+00  0.00000000000E+00 -0.98000033519E+02  0.15883266512E+03  0.12499523566E+03 0.  0.
    9000005    1    3    3    0    0 -0.22460411482E+01  0.63647637658E+01  0.29941616726E+02  0.30709205961E+02  0.10000000000E+01 0.  0.
    9000005    1    3    3    0    0  0.22460411482E+01 -0.63647637658E+01 -0.12794165024E+03  0.12812345916E+03  0.10000000000E+01 0.  0.
<mgrwt>
<rscale>  0 0.12499524E+03</rscale>
<asrwt>0</asrwt>
<pdfrwt beam="1">  1        4 0.46794333E-02 0.12499524E+03</pdfrwt>
<pdfrwt beam="2">  1       -4 0.19756361E-01 0.12499524E+03</pdfrwt>
<totfact> 0.97578762E+03</totfact>
</mgrwt>
</event>
<event>
 5    1  0.3516911E-002  0.1249985E+03  0.7818608E-02  0.1235072E+00
         -4   -1    0    0    0  501 -0.00000000000E+00  0.00000000000E+00  0.57380990302E+02  0.57395042887E+02  0.12700000000E+01 0. -1.
          4   -1    0    0  501    0  0.00000000000E+00 -0.00000000000E+00 -0.68045750981E+02  0.68057601534E+02  0.12700000000E+01 0. -1.
         25    2    1    2    0    0  0.00000000000E+00  0.00000000000E+00 -0.10664760679E+02  0.12545264442E+03  0.12499851548E+03 0.  0.
    9000005    1    3    3    0    0  0.58927995124E+02 -0.50410090931E+01 -0.25585806095E+02  0.64448071000E+02  0.10000000000E+01 0.  0.
    9000005    1    3    3    0    0 -0.58927995124E+02  0.50410090931E+01  0.14921045416E+02  0.61004573422E+02  0.10000000000E+01 0.  0.
<mgrwt>
<rscale>  0 0.12499852E+03</rscale>
<asrwt>0</asrwt>
<pdfrwt beam="2">  1        4 0.10470570E-01 0.12499852E+03</pdfrwt>
<pdfrwt beam="1">  1       -4 0.88298372E-02 0.12499852E+03</pdfrwt>
<totfact> 0.10443351E+04</totfact>
</mgrwt>
</event>
<event>
 5    1  0.3516911E-002  0.1249989E+03  0.7818608E-02  0.1235071E+00
         -4   -1    0    0    0  501 -0.00000000000E+00  0.00000000000E+00  0.16205329645E+04  0.16205334621E+04  0.12700000000E+01 0. -1.
          4   -1    0    0  501    0  0.00000000000E+00 -0.00000000000E+00 -0.22426144593E+01  0.25772503978E+01  0.12700000000E+01 0. -1.
         25    2    1    2    0    0  0.00000000000E+00  0.00000000000E+00  0.16182903500E+04  0.16231107125E+04  0.12499891254E+03 0.  0.
    9000005    1    3    3    0    0  0.32312004328E+02 -0.42597606816E+02  0.12292174688E+04  0.12303801068E+04  0.10000000000E+01 0.  0.
    9000005    1    3    3    0    0 -0.32312004328E+02  0.42597606816E+02  0.38907288120E+03  0.39273060565E+03  0.10000000000E+01 0.  0.
<mgrwt>
<rscale>  0 0.12499891E+03</rscale>
<asrwt>0</asrwt>
<pdfrwt beam="2">  1        4 0.37079500E-03 0.12499891E+03</pdfrwt>
<pdfrwt beam="1">  1       -4 0.24933996E+00 0.12499891E+03</pdfrwt>
<totfact> 0.15632161E+03</totfact>
</mgrwt>
</event>
<event>
 5    1  0.3516911E-002  0.1250005E+03  0.7818608E-02  0.1235069E+00
          4   -1    0    0  501    0  0.00000000000E+00  0.00000000000E+00  0.64333834409E+02  0.64346368582E+02  0.12700000000E+01 0. -1.
         -4   -1    0    0    0  501 -0.00000000000E+00 -0.00000000000E+00 -0.60693787468E+02  0.60707073206E+02  0.12700000000E+01 0. -1.
         25    2    1    2    0    0  0.00000000000E+00  0.00000000000E+00  0.36400469407E+01  0.12505344179E+03  0.12500045344E+03 0.  0.
    9000005    1    3    3    0    0 -0.17052185924E+02  0.28401428848E+02 -0.51191684412E+02  0.60983659765E+02  0.10000000000E+01 0.  0.
    9000005    1    3    3    0    0  0.17052185924E+02 -0.28401428848E+02  0.54831731353E+02  0.64069782023E+02  0.10000000000E+01 0.  0.
<mgrwt>
<rscale>  0 0.12500045E+03</rscale>
<asrwt>0</asrwt>
<pdfrwt beam="1">  1        4 0.98994992E-02 0.12500045E+03</pdfrwt>
<pdfrwt beam="2">  1       -4 0.93394919E-02 0.12500045E+03</pdfrwt>
<totfact> 0.10451595E+04</totfact>
</mgrwt>
</event>
<event>
 5    1  0.3516911E-002  0.1249958E+03  0.7818608E-02  0.1235076E+00
          4   -1    0    0  501    0  0.00000000000E+00  0.00000000000E+00  0.21376022548E+03  0.21376399813E+03  0.12700000000E+01 0.  1.
         -4   -1    0    0    0  501 -0.00000000000E+00 -0.00000000000E+00 -0.18246745710E+02  0.18290889235E+02  0.12700000000E+01 0.  1.
         25    2    1    2    0    0  0.00000000000E+00  0.00000000000E+00  0.19551347977E+03  0.23205488736E+03  0.12499579985E+03 0.  0.
    9000005    1    3    3    0    0  0.35598937836E+02 -0.39329582783E+02  0.15907434587E+03  0.16768943905E+03  0.10000000000E+01 0.  0.
    9000005    1    3    3    0    0 -0.35598937836E+02  0.39329582783E+02  0.36439133901E+02  0.64365448312E+02  0.10000000000E+01 0.  0.
<mgrwt>
<rscale>  0 0.12499580E+03</rscale>
<asrwt>0</asrwt>
<pdfrwt beam="1">  1        4 0.32889874E-01 0.12499580E+03</pdfrwt>
<pdfrwt beam="2">  1       -4 0.28108776E-02 0.12499580E+03</pdfrwt>
<totfact> 0.85003027E+03</totfact>
</mgrwt>
</event>
<event>
 5    1  0.3516911E-002  0.1250000E+03  0.7818608E-02  0.1235069E+00
         -4   -1    0    0    0  501 -0.00000000000E+00  0.00000000000E+00  0.60032366304E+02  0.60045798388E+02  0.12700000000E+01 0.  1.
          4   -1    0    0  501    0  0.00000000000E+00 -0.00000000000E+00 -0.65042201068E+02  0.65054598760E+02  0.12700000000E+01 0.  1.
         25    2    1    2    0    0  0.00000000000E+00  0.00000000000E+00 -0.50098347646E+01  0.12510039715E+03  0.12500004369E+03 0.  0.
    9000005    1    3    3    0    0  0.25319540152E+02  0.36669403134E+02 -0.46352515128E+02  0.64306141996E+02  0.10000000000E+01 0.  0.
    9000005    1    3    3    0    0 -0.25319540152E+02 -0.36669403134E+02  0.41342680364E+02  0.60794255151E+02  0.10000000000E+01 0.  0.
<mgrwt>
<rscale>  0 0.12500004E+03</rscale>
<asrwt>0</asrwt>
<pdfrwt beam="2">  1        4 0.10008479E-01 0.12500004E+03</pdfrwt>
<pdfrwt beam="1">  1       -4 0.92377356E-02 0.12500004E+03</pdfrwt>
<totfact> 0.10450672E+04</totfact>
</mgrwt>
</event>
<event>
 5    1  0.3516911E-002  0.1250006E+03  0.7818608E-02  0.1235068E+00
          4   -1    0    0  501    0  0.00000000000E+00  0.00000000000E+00  0.14666811840E+02  0.14721693841E+02  0.12700000000E+01 0. -1.
         -4   -1    0    0    0  501 -0.00000000000E+00 -0.00000000000E+00 -0.26578151676E+03  0.26578455100E+03  0.12700000000E+01 0. -1.
         25    2    1    2    0    0  0.00000000000E+00  0.00000000000E+00 -0.25111470492E+03  0.28050624484E+03  0.12500063347E+03 0.  0.
    9000005    1    3    3    0    0 -0.29853189230E+02  0.94920028560E+01 -0.42136022976E+01  0.31623811752E+02  0.10000000000E+01 0.  0.
    9000005    1    3    3    0    0  0.29853189230E+02 -0.94920028560E+01 -0.24690110262E+03  0.24888243309E+03  0.10000000000E+01 0.  0.
<mgrwt>
<rscale>  0 0.12500063E+03</rscale>
<asrwt>0</asrwt>
<pdfrwt beam="1">  1        4 0.22608879E-02 0.12500063E+03</pdfrwt>
<pdfrwt beam="2">  1       -4 0.40893916E-01 0.12500063E+03</pdfrwt>
<totfact> 0.78109931E+03</totfact>
</mgrwt>
</event>
<event>
 5    1  0.3516911E-002  0.1250002E+03  0.7818608E-02  0.1235069E+00
          4   -1    0    0  501    0  0.00000000000E+00  0.00000000000E+00  0.18666009250E+03  0.18666441287E+03  0.12700000000E+01 0. -1.
         -4   -1    0    0    0  501 -0.00000000000E+00 -0.00000000000E+00 -0.20903314042E+02  0.20941858512E+02  0.12700000000E+01 0. -1.
         25    2    1    2    0    0  0.00000000000E+00  0.00000000000E+00  0.16575677846E+03  0.20760627138E+03  0.12500021725E+03 0.  0.
    9000005    1    3    3    0    0 -0.20299380276E+02  0.72007097611E+01 -0.14551908448E+02  0.26012941013E+02  0.10000000000E+01 0.  0.
    9000005    1    3    3    0    0  0.20299380276E+02 -0.72007097611E+01  0.18030868690E+03  0.18159333037E+03  0.10000000000E+01 0.  0.
<mgrwt>
<rscale>  0 0.12500022E+03</rscale>
<asrwt>0</asrwt>
<pdfrwt beam="1">  1        4 0.28720233E-01 0.12500022E+03</pdfrwt>
<pdfrwt beam="2">  1       -4 0.32191920E-02 0.12500022E+03</pdfrwt>
<totfact> 0.88867876E+03</totfact>
</mgrwt>
</event>
<event>
 5    1  0.3516911E-002  0.1249999E+03  0.7818608E-02  0.1235069E+00
          4   -1    0    0  501    0  0.00000000000E+00  0.00000000000E+00  0.29958814712E+02  0.29985721251E+02  0.12700000000E+01 0. -1.
         -4   -1    0    0    0  501 -0.00000000000E+00 -0.00000000000E+00 -0.13029855419E+03  0.13030474329E+03  0.12700000000E+01 0. -1.
         25    2    1    2    0    0  0.00000000000E+00  0.00000000000E+00 -0.10033973948E+03  0.16029046454E+03  0.12499987882E+03 0.  0.
    9000005    1    3    3    0    0 -0.19488523453E+02  0.58798467499E+02 -0.39581553332E+02  0.73517084347E+02  0.10000000000E+01 0.  0.
    9000005    1    3    3    0    0  0.19488523453E+02 -0.58798467499E+02 -0.60758186145E+02  0.86773380194E+02  0.10000000000E+01 0.  0.
<mgrwt>
<rscale>  0 0.12499988E+03</rscale>
<asrwt>0</asrwt>
<pdfrwt beam="1">  1        4 0.46115943E-02 0.12499988E+03</pdfrwt>
<pdfrwt beam="2">  1       -4 0.20048477E-01 0.12499988E+03</pdfrwt>
<totfact> 0.97287080E+03</totfact>
</mgrwt>
</event>
<event>
 5    1  0.3516911E-002  0.1250009E+03  0.7818608E-02  0.1235068E+00
          4   -1    0    0  501    0  0.00000000000E+00  0.00000000000E+00  0.25355837525E+02  0.25387622902E+02  0.12700000000E+01 0. -1.
         -4   -1    0    0    0  501 -0.00000000000E+00 -0.00000000000E+00 -0.15392850884E+03  0.15393374787E+03  0.12700000000E+01 0. -1.
         25    2    1    2    0    0  0.00000000000E+00  0.00000000000E+00 -0.12857267131E+03  0.17932137077E+03  0.12500088882E+03 0.  0.
    9000005    1    3    3    0    0  0.56262854681E+02 -0.16574961458E+02 -0.95223242665E+02  0.11184231806E+03  0.10000000000E+01 0.  0.
    9000005    1    3    3    0    0 -0.56262854681E+02  0.16574961458E+02 -0.33349428645E+02  0.67479052714E+02  0.10000000000E+01 0.  0.
<mgrwt>
<rscale>  0 0.12500089E+03</rscale>
<asrwt>0</asrwt>
<pdfrwt beam="1">  1        4 0.39037462E-02 0.12500089E+03</pdfrwt>
<pdfrwt beam="2">  1       -4 0.23684156E-01 0.12500089E+03</pdfrwt>
<totfact> 0.93737433E+03</totfact>
</mgrwt>
</event>
<event>
 5    1  0.3516911E-002  0.1250010E+03  0.7818608E-02  0.1235068E+00
         -4   -1    0    0    0  501 -0.00000000000E+00  0.00000000000E+00  0.89736123921E+01  0.90630358801E+01  0.12700000000E+01 0. -1.
          4   -1    0    0  501    0  0.00000000000E+00 -0.00000000000E+00 -0.43306216642E+03  0.43306402862E+03  0.12700000000E+01 0. -1.
         25    2    1    2    0    0  0.00000000000E+00  0.00000000000E+00 -0.42408855403E+03  0.44212706450E+03  0.12500095802E+03 0.  0.
    9000005    1    3    3    0    0 -0.22472953532E+02  0.46195803146E+02 -0.86183899226E+02  0.10033817994E+03  0.10000000000E+01 0.  0.
    9000005    1    3    3    0    0  0.22472953532E+02 -0.46195803146E+02 -0.33790465480E+03  0.34178888455E+03  0.10000000000E+01 0.  0.
<mgrwt>
<rscale>  0 0.12500096E+03</rscale>
<asrwt>0</asrwt>
<pdfrwt beam="2">  1        4 0.66631955E-01 0.12500096E+03</pdfrwt>
<pdfrwt beam="1">  1       -4 0.13875781E-02 0.12500096E+03</pdfrwt>
<totfact> 0.60650647E+03</totfact>
</mgrwt>
</event>
<event>
 5    1  0.3516911E-002  0.1249992E+03  0.7818608E-02  0.1235071E+00
          4   -1    0    0  501    0  0.00000000000E+00  0.00000000000E+00  0.18217453767E+04  0.18217458194E+04  0.12700000000E+01 0. -1.
         -4   -1    0    0    0  501 -0.00000000000E+00 -0.00000000000E+00 -0.19556720033E+01  0.23318561243E+01  0.12700000000E+01 0. -1.
         25    2    1    2    0    0  0.00000000000E+00  0.00000000000E+00  0.18197897047E+04  0.18240776755E+04  0.12499918781E+03 0.  0.
    9000005    1    3    3    0    0  0.50266900602E+02 -0.36517411547E+02  0.81209469467E+03  0.81446858488E+03  0.10000000000E+01 0.  0.
    9000005    1    3    3    0    0 -0.50266900602E+02  0.36517411547E+02  0.10076950100E+04  0.10096090906E+04  0.10000000000E+01 0.  0.
<mgrwt>
<rscale>  0 0.12499919E+03</rscale>
<asrwt>0</asrwt>
<pdfrwt beam="1">  1        4 0.28029715E+00 0.12499919E+03</pdfrwt>
<pdfrwt beam="2">  1       -4 0.32984430E-03 0.12499919E+03</pdfrwt>
<totfact> 0.12336439E+03</totfact>
</mgrwt>
</event>
<event>
 5    1  0.3516911E-002  0.1250004E+03  0.7818608E-02  0.1235069E+00
          4   -1    0    0  501    0  0.00000000000E+00  0.00000000000E+00  0.28692564323E+02  0.28720657155E+02  0.12700000000E+01 0.  1.
         -4   -1    0    0    0  501 -0.00000000000E+00 -0.00000000000E+00 -0.13604474768E+03  0.13605067538E+03  0.12700000000E+01 0.  1.
         25    2    1    2    0    0  0.00000000000E+00  0.00000000000E+00 -0.10735218335E+03  0.16477133253E+03  0.12500040301E+03 0.  0.
    9000005    1    3    3    0    0 -0.12738085397E+02  0.53496224896E+02 -0.92805219146E+02  0.10787916202E+03  0.10000000000E+01 0.  0.
    9000005    1    3    3    0    0  0.12738085397E+02 -0.53496224896E+02 -0.14546964208E+02  0.56892170510E+02  0.10000000000E+01 0.  0.
<mgrwt>
<rscale>  0 0.12500040E+03</rscale>
<asrwt>0</asrwt>
<pdfrwt beam="1">  1        4 0.44168577E-02 0.12500040E+03</pdfrwt>
<pdfrwt beam="2">  1       -4 0.20932578E-01 0.12500040E+03</pdfrwt>
<totfact> 0.96429843E+03</totfact>
</mgrwt>
</event>
<event>
 5    1  0.3516911E-002  0.1249998E+03  0.7818608E-02  0.1235070E+00
         -4   -1    0    0    0  501 -0.00000000000E+00  0.00000000000E+00  0.88133747578E+02  0.88142897401E+02  0.12700000000E+01 0.  1.
          4   -1    0    0  501    0  0.00000000000E+00 -0.00000000000E+00 -0.44301178597E+02  0.44319378664E+02  0.12700000000E+01 0.  1.
         25    2    1    2    0    0  0.00000000000E+00  0.00000000000E+00  0.43832568981E+02  0.13246227606E+03  0.12499984191E+03 0.  0.
    9000005    1    3    3    0    0 -0.44749553999E+01 -0.41563124978E+02  0.71140686335E+02  0.82519790572E+02  0.10000000000E+01 0.  0.
    9000005    1    3    3    0    0  0.44749553999E+01  0.41563124978E+02 -0.27308117355E+02  0.49942485493E+02  0.10000000000E+01 0.  0.
<mgrwt>
<rscale>  0 0.12499984E+03</rscale>
<asrwt>0</asrwt>
<pdfrwt beam="2">  1        4 0.68176699E-02 0.12499984E+03</pdfrwt>
<pdfrwt beam="1">  1       -4 0.13561142E-01 0.12499984E+03</pdfrwt>
<totfact> 0.10291878E+04</totfact>
</mgrwt>
</event>
<event>
 5    1  0.3516911E-002  0.1250008E+03  0.7818608E-02  0.1235068E+00
          4   -1    0    0  501    0  0.00000000000E+00  0.00000000000E+00  0.38631734003E+02  0.38652603691E+02  0.12700000000E+01 0. -1.
         -4   -1    0    0    0  501 -0.00000000000E+00 -0.00000000000E+00 -0.10106413774E+03  0.10107211701E+03  0.12700000000E+01 0. -1.
         25    2    1    2    0    0  0.00000000000E+00  0.00000000000E+00 -0.62432403736E+02  0.13972472070E+03  0.12500077015E+03 0.  0.
    9000005    1    3    3    0    0 -0.17399663579E+02 -0.56799291231E+02 -0.95301842632E+01  0.60172520215E+02  0.10000000000E+01 0.  0.
    9000005    1    3    3    0    0  0.17399663579E+02  0.56799291231E+02 -0.52902219473E+02  0.79552200486E+02  0.10000000000E+01 0.  0.
<mgrwt>
<rscale>  0 0.12500077E+03</rscale>
<asrwt>0</asrwt>
<pdfrwt beam="1">  1        4 0.59455629E-02 0.12500077E+03</pdfrwt>
<pdfrwt beam="2">  1       -4 0.15550548E-01 0.12500077E+03</pdfrwt>
<totfact> 0.10139118E+04</totfact>
</mgrwt>
</event>
<event>
 5    1  0.3516911E-002  0.1249956E+03  0.7818608E-02  0.1235076E+00
         -4   -1    0    0    0  501 -0.00000000000E+00  0.00000000000E+00  0.24628035698E+03  0.24628363148E+03  0.12700000000E+01 0.  1.
          4   -1    0    0  501    0  0.00000000000E+00 -0.00000000000E+00 -0.15831063249E+02  0.15881922541E+02  0.12700000000E+01 0.  1.
         25    2    1    2    0    0  0.00000000000E+00  0.00000000000E+00  0.23044929373E+03  0.26216555402E+03  0.12499560286E+03 0.  0.
    9000005    1    3    3    0    0 -0.36266892843E+02 -0.35890323021E+02  0.19089313480E+03  0.19759704380E+03  0.10000000000E+01 0.  0.
    9000005    1    3    3    0    0  0.36266892843E+02  0.35890323021E+02  0.39556158928E+02  0.64568510221E+02  0.10000000000E+01 0.  0.
<mgrwt>
<rscale>  0 0.12499560E+03</rscale>
<asrwt>0</asrwt>
<pdfrwt beam="2">  1        4 0.24397123E-02 0.12499560E+03</pdfrwt>
<pdfrwt beam="1">  1       -4 0.37893450E-01 0.12499560E+03</pdfrwt>
<totfact> 0.80611001E+03</totfact>
</mgrwt>
</event>
<event>
 5    1  0.3516911E-002  0.1249706E+03  0.7818608E-02  0.1235115E+00
          4   -1    0    0  501    0  0.00000000000E+00  0.00000000000E+00  0.21449550113E+02  0.21487114745E+02  0.12700000000E+01 0. -1.
         -4   -1    0    0    0  501 -0.00000000000E+00 -0.00000000000E+00 -0.18182853774E+03  0.18183297291E+03  0.12700000000E+01 0. -1.
         25    2    1    2    0    0  0.00000000000E+00  0.00000000000E+00 -0.16037898762E+03  0.20332008765E+03  0.12497055001E+03 0.  0.
    9000005    1    3    3    0    0  0.55356441972E+02  0.16326577339E+02 -0.11911790901E+03  0.13236679735E+03  0.10000000000E+01 0.  0.
    9000005    1    3    3    0    0 -0.55356441972E+02 -0.16326577339E+02 -0.41261078617E+02  0.70953290297E+02  0.10000000000E+01 0.  0.
<mgrwt>
<rscale>  0 0.12497055E+03</rscale>
<asrwt>0</asrwt>
<pdfrwt beam="1">  1        4 0.33031617E-02 0.12497055E+03</pdfrwt>
<pdfrwt beam="2">  1       -4 0.27976851E-01 0.12497055E+03</pdfrwt>
<totfact> 0.89637593E+03</totfact>
</mgrwt>
</event>
<event>
 5    1  0.3516911E-002  0.1249997E+03  0.7818608E-02  0.1235070E+00
          4   -1    0    0  501    0  0.00000000000E+00  0.00000000000E+00  0.48198869690E+02  0.48215598507E+02  0.12700000000E+01 0.  1.
         -4   -1    0    0    0  501 -0.00000000000E+00 -0.00000000000E+00 -0.81008259182E+02  0.81018213728E+02  0.12700000000E+01 0.  1.
         25    2    1    2    0    0  0.00000000000E+00  0.00000000000E+00 -0.32809389492E+02  0.12923381224E+03  0.12499968874E+03 0.  0.
    9000005    1    3    3    0    0  0.59706591525E+02 -0.12177804564E+02 -0.20768942574E+01  0.60979418539E+02  0.10000000000E+01 0.  0.
    9000005    1    3    3    0    0 -0.59706591525E+02  0.12177804564E+02 -0.30732495234E+02  0.68254393697E+02  0.10000000000E+01 0.  0.
<mgrwt>
<rscale>  0 0.12499969E+03</rscale>
<asrwt>0</asrwt>
<pdfrwt beam="1">  1        4 0.74172633E-02 0.12499969E+03</pdfrwt>
<pdfrwt beam="2">  1       -4 0.12464862E-01 0.12499969E+03</pdfrwt>
<totfact> 0.10360998E+04</totfact>
</mgrwt>
</event>
<event>
 5    1  0.3516911E-002  0.1249997E+03  0.7818608E-02  0.1235070E+00
          4   -1    0    0  501    0  0.00000000000E+00  0.00000000000E+00  0.22043650627E+02  0.22080204550E+02  0.12700000000E+01 0. -1.
         -4   -1    0    0    0  501 -0.00000000000E+00 -0.00000000000E+00 -0.17701867695E+03  0.17702323262E+03  0.12700000000E+01 0. -1.
         25    2    1    2    0    0  0.00000000000E+00  0.00000000000E+00 -0.15497502632E+03  0.19910343717E+03  0.12499967964E+03 0.  0.
    9000005    1    3    3    0    0 -0.36533790522E+02  0.47407260446E+02 -0.10611702849E+03  0.12183591395E+03  0.10000000000E+01 0.  0.
    9000005    1    3    3    0    0  0.36533790522E+02 -0.47407260446E+02 -0.48857997834E+02  0.77267523224E+02  0.10000000000E+01 0.  0.
<mgrwt>
<rscale>  0 0.12499968E+03</rscale>
<asrwt>0</asrwt>
<pdfrwt beam="1">  1        4 0.33944933E-02 0.12499968E+03</pdfrwt>
<pdfrwt beam="2">  1       -4 0.27236804E-01 0.12499968E+03</pdfrwt>
<totfact> 0.90287587E+03</totfact>
</mgrwt>
</event>
<event>
 5    1  0.3516911E-002  0.1250017E+03  0.7818608E-02  0.1235067E+00
          4   -1    0    0  501    0  0.00000000000E+00  0.00000000000E+00  0.77864997759E+02  0.77875354099E+02  0.12700000000E+01 0. -1.
         -4   -1    0    0    0  501 -0.00000000000E+00 -0.00000000000E+00 -0.50146579897E+02  0.50162659174E+02  0.12700000000E+01 0. -1.
         25    2    1    2    0    0  0.00000000000E+00  0.00000000000E+00  0.27718417861E+02  0.12803801327E+03  0.12500168860E+03 0.  0.
    9000005    1    3    3    0    0  0.59156782945E+02  0.18501006042E+02  0.22024244581E+02  0.65786621302E+02  0.10000000000E+01 0.  0.
    9000005    1    3    3    0    0 -0.59156782945E+02 -0.18501006042E+02  0.56941732804E+01  0.62251391971E+02  0.10000000000E+01 0.  0.
<mgrwt>
<rscale>  0 0.12500169E+03</rscale>
<asrwt>0</asrwt>
<pdfrwt beam="1">  1        4 0.11981264E-01 0.12500169E+03</pdfrwt>
<pdfrwt beam="2">  1       -4 0.77168920E-02 0.12500169E+03</pdfrwt>
<totfact> 0.10386271E+04</totfact>
</mgrwt>
</event>
<event>
 5    1  0.3516911E-002  0.1250018E+03  0.7818608E-02  0.1235066E+00
         -4   -1    0    0    0  501 -0.00000000000E+00  0.00000000000E+00  0.91670604263E+02  0.91679401099E+02  0.12700000000E+01 0. -1.
          4   -1    0    0  501    0  0.00000000000E+00 -0.00000000000E+00 -0.42592712713E+02  0.42611642497E+02  0.12700000000E+01 0. -1.
         25    2    1    2    0    0  0.00000000000E+00  0.00000000000E+00  0.49077891550E+02  0.13429104360E+03  0.12500177979E+03 0.  0.
    9000005    1    3    3    0    0  0.99999559291E+01 -0.60758154055E+02  0.35999848889E+02  0.71334013786E+02  0.10000000000E+01 0.  0.
    9000005    1    3    3    0    0 -0.99999559291E+01  0.60758154055E+02  0.13078042661E+02  0.62957029810E+02  0.10000000000E+01 0.  0.
<mgrwt>
<rscale>  0 0.12500178E+03</rscale>
<asrwt>0</asrwt>
<pdfrwt beam="2">  1        4 0.65548579E-02 0.12500178E+03</pdfrwt>
<pdfrwt beam="1">  1       -4 0.14105303E-01 0.12500178E+03</pdfrwt>
<totfact> 0.10252624E+04</totfact>
</mgrwt>
</event>
<event>
 5    1  0.3516911E-002  0.1250063E+03  0.7818608E-02  0.1235059E+00
          4   -1    0    0  501    0  0.00000000000E+00  0.00000000000E+00  0.10840360092E+04  0.10840367532E+04  0.12700000000E+01 0. -1.
         -4   -1    0    0    0  501 -0.00000000000E+00 -0.00000000000E+00 -0.34911379942E+01  0.37149622467E+01  0.12700000000E+01 0. -1.
         25    2    1    2    0    0  0.00000000000E+00  0.00000000000E+00  0.10805448712E+04  0.10877517154E+04  0.12500630233E+03 0.  0.
    9000005    1    3    3    0    0 -0.43064095053E+02  0.44963916428E+02  0.49311195235E+03  0.49702783385E+03  0.10000000000E+01 0.  0.
    9000005    1    3    3    0    0  0.43064095053E+02 -0.44963916428E+02  0.58743291889E+03  0.59072388157E+03  0.10000000000E+01 0.  0.
<mgrwt>
<rscale>  0 0.12500630E+03</rscale>
<asrwt>0</asrwt>
<pdfrwt beam="1">  1        4 0.16679242E+00 0.12500630E+03</pdfrwt>
<pdfrwt beam="2">  1       -4 0.55437139E-03 0.12500630E+03</pdfrwt>
<totfact> 0.27840752E+03</totfact>
</mgrwt>
</event>
<event>
 5    1  0.3516911E-002  0.1250061E+03  0.7818608E-02  0.1235060E+00
         -4   -1    0    0    0  501 -0.00000000000E+00  0.00000000000E+00  0.76184905731E+02  0.76195490425E+02  0.12700000000E+01 0.  1.
          4   -1    0    0  501    0  0.00000000000E+00 -0.00000000000E+00 -0.51256294842E+02  0.51272026106E+02  0.12700000000E+01 0.  1.
         25    2    1    2    0    0  0.00000000000E+00  0.00000000000E+00  0.24928610888E+02  0.12746751653E+03  0.12500612837E+03 0.  0.
    9000005    1    3    3    0    0 -0.19953186801E+02  0.57163356569E+02 -0.33278617772E+01  0.60645310303E+02  0.10000000000E+01 0.  0.
    9000005    1    3    3    0    0  0.19953186801E+02 -0.57163356569E+02  0.28256472665E+02  0.66822206228E+02  0.10000000000E+01 0.  0.
<mgrwt>
<rscale>  0 0.12500613E+03</rscale>
<asrwt>0</asrwt>
<pdfrwt beam="2">  1        4 0.78876081E-02 0.12500613E+03</pdfrwt>
<pdfrwt beam="1">  1       -4 0.11722779E-01 0.12500613E+03</pdfrwt>
<totfact> 0.10397566E+04</totfact>
</mgrwt>
</event>
<event>
 5    1  0.3516911E-002  0.1249983E+03  0.7818608E-02  0.1235072E+00
          4   -1    0    0  501    0  0.00000000000E+00  0.00000000000E+00  0.13370373332E+02  0.13430554085E+02  0.12700000000E+01 0.  1.
         -4   -1    0    0    0  501 -0.00000000000E+00 -0.00000000000E+00 -0.29143178815E+03  0.29143455534E+03  0.12700000000E+01 0.  1.
         25    2    1    2    0    0  0.00000000000E+00  0.00000000000E+00 -0.27806141482E+03  0.30486510942E+03  0.12499833812E+03 0.  0.
    9000005    1    3    3    0    0 -0.57810654368E+02  0.13287273900E+02 -0.18698097138E+03  0.19616703868E+03  0.10000000000E+01 0.  0.
    9000005    1    3    3    0    0  0.57810654368E+02 -0.13287273900E+02 -0.91080443438E+02  0.10869807074E+03  0.10000000000E+01 0.  0.
<mgrwt>
<rscale>  0 0.12499834E+03</rscale>
<asrwt>0</asrwt>
<pdfrwt beam="1">  1        4 0.20618229E-02 0.12499834E+03</pdfrwt>
<pdfrwt beam="2">  1       -4 0.44840497E-01 0.12499834E+03</pdfrwt>
<totfact> 0.74995361E+03</totfact>
</mgrwt>
</event>
<event>
 5    1  0.3516911E-002  0.1249956E+03  0.7818608E-02  0.1235076E+00
         -4   -1    0    0    0  501 -0.00000000000E+00  0.00000000000E+00  0.59003934505E+02  0.59017600655E+02  0.12700000000E+01 0. -1.
          4   -1    0    0  501    0  0.00000000000E+00 -0.00000000000E+00 -0.66171099672E+02  0.66183285894E+02  0.12700000000E+01 0. -1.
         25    2    1    2    0    0  0.00000000000E+00  0.00000000000E+00 -0.71671651671E+01  0.12520088655E+03  0.12499557487E+03 0.  0.
    9000005    1    3    3    0    0  0.35377773495E+02  0.41221177491E+02  0.27357301799E+02  0.60829222360E+02  0.10000000000E+01 0.  0.
    9000005    1    3    3    0    0 -0.35377773495E+02 -0.41221177491E+02 -0.34524466966E+02  0.64371664189E+02  0.10000000000E+01 0.  0.
<mgrwt>
<rscale>  0 0.12499557E+03</rscale>
<asrwt>0</asrwt>
<pdfrwt beam="2">  1        4 0.10182158E-01 0.12499557E+03</pdfrwt>
<pdfrwt beam="1">  1       -4 0.90795171E-02 0.12499557E+03</pdfrwt>
<totfact> 0.10449546E+04</totfact>
</mgrwt>
</event>
<event>
 5    1  0.3516911E-002  0.1250032E+03  0.7818608E-02  0.1235064E+00
         -4   -1    0    0    0  501 -0.00000000000E+00  0.00000000000E+00  0.55467772773E+01  0.56903109023E+01  0.12700000000E+01 0. -1.
          4   -1    0    0  501    0  0.00000000000E+00 -0.00000000000E+00 -0.69513362139E+03  0.69513478152E+03  0.12700000000E+01 0. -1.
         25    2    1    2    0    0  0.00000000000E+00  0.00000000000E+00 -0.68958684411E+03  0.70082509242E+03  0.12500317837E+03 0.  0.
    9000005    1    3    3    0    0 -0.20586633391E+02  0.95977484468E+01 -0.18387641375E+02  0.29240923463E+02  0.10000000000E+01 0.  0.
    9000005    1    3    3    0    0  0.20586633391E+02 -0.95977484468E+01 -0.67119920273E+03  0.67158416896E+03  0.10000000000E+01 0.  0.
<mgrwt>
<rscale>  0 0.12500318E+03</rscale>
<asrwt>0</asrwt>
<pdfrwt beam="2">  1        4 0.10695470E+00 0.12500318E+03</pdfrwt>
<pdfrwt beam="1">  1       -4 0.86448119E-03 0.12500318E+03</pdfrwt>
<totfact> 0.43040200E+03</totfact>
</mgrwt>
</event>
<event>
 5    1  0.3516911E-002  0.1250018E+03  0.7818608E-02  0.1235067E+00
         -4   -1    0    0    0  501 -0.00000000000E+00  0.00000000000E+00  0.35501497072E+02  0.35524205753E+02  0.12700000000E+01 0.  1.
          4   -1    0    0  501    0  0.00000000000E+00 -0.00000000000E+00 -0.10997213860E+03  0.10997947157E+03  0.12700000000E+01 0.  1.
         25    2    1    2    0    0  0.00000000000E+00  0.00000000000E+00 -0.74470641525E+02  0.14550367733E+03  0.12500177465E+03 0.  0.
    9000005    1    3    3    0    0  0.28162594496E+02 -0.83848063629E+01  0.26964229447E+02  0.39893688425E+02  0.10000000000E+01 0.  0.
    9000005    1    3    3    0    0 -0.28162594496E+02  0.83848063629E+01 -0.10143487097E+03  0.10560998890E+03  0.10000000000E+01 0.  0.
<mgrwt>
<rscale>  0 0.12500177E+03</rscale>
<asrwt>0</asrwt>
<pdfrwt beam="2">  1        4 0.16921101E-01 0.12500177E+03</pdfrwt>
<pdfrwt beam="1">  1       -4 0.54640797E-02 0.12500177E+03</pdfrwt>
<totfact> 0.10020364E+04</totfact>
</mgrwt>
</event>
<event>
 5    1  0.3516911E-002  0.1249922E+03  0.7818608E-02  0.1235081E+00
         -4   -1    0    0    0  501 -0.00000000000E+00  0.00000000000E+00  0.37949558117E+02  0.37970802747E+02  0.12700000000E+01 0.  1.
          4   -1    0    0  501    0  0.00000000000E+00 -0.00000000000E+00 -0.10286590791E+03  0.10287374743E+03  0.12700000000E+01 0.  1.
         25    2    1    2    0    0  0.00000000000E+00  0.00000000000E+00 -0.64916349792E+02  0.14084455018E+03  0.12499221913E+03 0.  0.
    9000005    1    3    3    0    0  0.25915823533E+02 -0.53707687349E+02 -0.53497511769E+02  0.80119469265E+02  0.10000000000E+01 0.  0.
    9000005    1    3    3    0    0 -0.25915823533E+02  0.53707687349E+02 -0.11418838023E+02  0.60725080911E+02  0.10000000000E+01 0.  0.
<mgrwt>
<rscale>  0 0.12499222E+03</rscale>
<asrwt>0</asrwt>
<pdfrwt beam="2">  1        4 0.15827761E-01 0.12499222E+03</pdfrwt>
<pdfrwt beam="1">  1       -4 0.58406308E-02 0.12499222E+03</pdfrwt>
<totfact> 0.10117885E+04</totfact>
</mgrwt>
</event>
<event>
 5    1  0.3516911E-002  0.1249978E+03  0.7818608E-02  0.1235073E+00
         -4   -1    0    0    0  501 -0.00000000000E+00  0.00000000000E+00  0.47424878221E+01  0.49095917084E+01  0.12700000000E+01 0. -1.
          4   -1    0    0  501    0  0.00000000000E+00 -0.00000000000E+00 -0.80921518289E+03  0.80921617947E+03  0.12700000000E+01 0. -1.
         25    2    1    2    0    0  0.00000000000E+00  0.00000000000E+00 -0.80447269507E+03  0.81412577118E+03  0.12499781674E+03 0.  0.
    9000005    1    3    3    0    0  0.68432175077E+01 -0.17892173439E+02 -0.78965225059E+03  0.78988520455E+03  0.10000000000E+01 0.  0.
    9000005    1    3    3    0    0 -0.68432175077E+01  0.17892173439E+02 -0.14820444473E+02  0.24240566632E+02  0.10000000000E+01 0.  0.
<mgrwt>
<rscale>  0 0.12499782E+03</rscale>
<asrwt>0</asrwt>
<pdfrwt beam="2">  1        4 0.12450747E+00 0.12499782E+03</pdfrwt>
<pdfrwt beam="1">  1       -4 0.74254496E-03 0.12499782E+03</pdfrwt>
<totfact> 0.37643668E+03</totfact>
</mgrwt>
</event>
<event>
 5    1  0.3516911E-002  0.1249999E+03  0.7818608E-02  0.1235069E+00
         -4   -1    0    0    0  501 -0.00000000000E+00  0.00000000000E+00  0.47266954091E+03  0.47267124707E+03  0.12700000000E+01 0.  1.
          4   -1    0    0  501    0  0.00000000000E+00 -0.00000000000E+00 -0.82136965904E+01  0.83113002400E+01  0.12700000000E+01 0.  1.
         25    2    1    2    0    0  0.00000000000E+00  0.00000000000E+00  0.46445584432E+03  0.48098254731E+03  0.12499991797E+03 0.  0.
    9000005    1    3    3    0    0 -0.19714859209E+02 -0.20041290083E+02  0.44698265920E+03  0.44786697424E+03  0.10000000000E+01 0.  0.
    9000005    1    3    3    0    0  0.19714859209E+02  0.20041290083E+02  0.17473185117E+02  0.33115573073E+02  0.10000000000E+01 0.  0.
<mgrwt>
<rscale>  0 0.12499992E+03</rscale>
<asrwt>0</asrwt>
<pdfrwt beam="2">  1        4 0.12712846E-02 0.12499992E+03</pdfrwt>
<pdfrwt beam="1">  1       -4 0.72726045E-01 0.12499992E+03</pdfrwt>
<totfact> 0.57370773E+03</totfact>
</mgrwt>
</event>
<event>
 5    1  0.3516911E-002  0.1249988E+03  0.7818608E-02  0.1235071E+00
          4   -1    0    0  501    0  0.00000000000E+00  0.00000000000E+00  0.69436226927E+01  0.70588098217E+01  0.12700000000E+01 0. -1.
         -4   -1    0    0    0  501 -0.00000000000E+00 -0.00000000000E+00 -0.55781185445E+03  0.55781330019E+03  0.12700000000E+01 0. -1.
         25    2    1    2    0    0  0.00000000000E+00  0.00000000000E+00 -0.55086823176E+03  0.56487211001E+03  0.12499876762E+03 0.  0.
    9000005    1    3    3    0    0  0.51312179635E+02 -0.30293538338E+02 -0.36052318942E+03  0.36541566518E+03  0.10000000000E+01 0.  0.
    9000005    1    3    3    0    0 -0.51312179635E+02  0.30293538338E+02 -0.19034504233E+03  0.19945644483E+03  0.10000000000E+01 0.  0.
<mgrwt>
<rscale>  0 0.12499877E+03</rscale>
<asrwt>0</asrwt>
<pdfrwt beam="1">  1        4 0.10772218E-02 0.12499877E+03</pdfrwt>
<pdfrwt beam="2">  1       -4 0.85826145E-01 0.12499877E+03</pdfrwt>
<totfact> 0.51164212E+03</totfact>
</mgrwt>
</event>
<event>
 5    1  0.3516911E-002  0.1250055E+03  0.7818608E-02  0.1235061E+00
         -4   -1    0    0    0  501 -0.00000000000E+00  0.00000000000E+00  0.11793267292E+04  0.11793274130E+04  0.12700000000E+01 0.  1.
          4   -1    0    0  501    0  0.00000000000E+00 -0.00000000000E+00 -0.31901280080E+01  0.34336302520E+01  0.12700000000E+01 0.  1.
         25    2    1    2    0    0  0.00000000000E+00  0.00000000000E+00  0.11761366012E+04  0.11827610433E+04  0.12500552317E+03 0.  0.
    9000005    1    3    3    0    0  0.28543042449E+02  0.17234869853E+01  0.62292254056E+02  0.68549256707E+02  0.10000000000E+01 0.  0.
    9000005    1    3    3    0    0 -0.28543042449E+02 -0.17234869853E+01  0.11138443472E+04  0.11142117866E+04  0.10000000000E+01 0.  0.
<mgrwt>
<rscale>  0 0.12500552E+03</rscale>
<asrwt>0</asrwt>
<pdfrwt beam="2">  1        4 0.50957260E-03 0.12500552E+03</pdfrwt>
<pdfrwt beam="1">  1       -4 0.18145362E+00 0.12500552E+03</pdfrwt>
<totfact> 0.25165465E+03</totfact>
</mgrwt>
</event>
<event>
 5    1  0.3516911E-002  0.1250002E+03  0.7818608E-02  0.1235069E+00
          4   -1    0    0  501    0  0.00000000000E+00  0.00000000000E+00  0.17882746091E+03  0.17883197050E+03  0.12700000000E+01 0.  1.
         -4   -1    0    0    0  501 -0.00000000000E+00 -0.00000000000E+00 -0.21820506431E+02  0.21857433539E+02  0.12700000000E+01 0.  1.
         25    2    1    2    0    0  0.00000000000E+00  0.00000000000E+00  0.15700695448E+03  0.20068940404E+03  0.12500021256E+03 0.  0.
    9000005    1    3    3    0    0 -0.50866140482E+01 -0.60462205358E+02  0.54489852665E+02  0.81557930103E+02  0.10000000000E+01 0.  0.
    9000005    1    3    3    0    0  0.50866140482E+01  0.60462205358E+02  0.10251710181E+03  0.11913147394E+03  0.10000000000E+01 0.  0.
<mgrwt>
<rscale>  0 0.12500021E+03</rscale>
<asrwt>0</asrwt>
<pdfrwt beam="1">  1        4 0.27515103E-01 0.12500021E+03</pdfrwt>
<pdfrwt beam="2">  1       -4 0.33601886E-02 0.12500021E+03</pdfrwt>
<totfact> 0.90018935E+03</totfact>
</mgrwt>
</event>
<event>
 5    1  0.3516911E-002  0.1250003E+03  0.7818608E-02  0.1235069E+00
          4   -1    0    0  501    0  0.00000000000E+00  0.00000000000E+00  0.56604885263E+02  0.56619130474E+02  0.12700000000E+01 0.  1.
         -4   -1    0    0    0  501 -0.00000000000E+00 -0.00000000000E+00 -0.68980577307E+02  0.68992267288E+02  0.12700000000E+01 0.  1.
         25    2    1    2    0    0  0.00000000000E+00  0.00000000000E+00 -0.12375692043E+02  0.12561139776E+03  0.12500026198E+03 0.  0.
    9000005    1    3    3    0    0  0.58438303668E+02 -0.17172913640E+02 -0.20231942036E+02  0.64189374331E+02  0.10000000000E+01 0.  0.
    9000005    1    3    3    0    0 -0.58438303668E+02  0.17172913640E+02  0.78562499929E+01  0.61422023431E+02  0.10000000000E+01 0.  0.
<mgrwt>
<rscale>  0 0.12500026E+03</rscale>
<asrwt>0</asrwt>
<pdfrwt beam="1">  1        4 0.87104390E-02 0.12500026E+03</pdfrwt>
<pdfrwt beam="2">  1       -4 0.10614391E-01 0.12500026E+03</pdfrwt>
<totfact> 0.10439434E+04</totfact>
</mgrwt>
</event>
<event>
 5    1  0.3516911E-002  0.1249985E+03  0.7818608E-02  0.1235072E+00
          4   -1    0    0  501    0  0.00000000000E+00  0.00000000000E+00  0.22842164118E+02  0.22877442200E+02  0.12700000000E+01 0.  1.
         -4   -1    0    0    0  501 -0.00000000000E+00 -0.00000000000E+00 -0.17083683841E+03  0.17084155893E+03  0.12700000000E+01 0.  1.
         25    2    1    2    0    0  0.00000000000E+00  0.00000000000E+00 -0.14799467429E+03  0.19371900113E+03  0.12499851111E+03 0.  0.
    9000005    1    3    3    0    0 -0.48463510693E+02  0.25277403780E+02 -0.27054435739E+02  0.60996733550E+02  0.10000000000E+01 0.  0.
    9000005    1    3    3    0    0  0.48463510693E+02 -0.25277403780E+02 -0.12094023855E+03  0.13272226758E+03  0.10000000000E+01 0.  0.
<mgrwt>
<rscale>  0 0.12499851E+03</rscale>
<asrwt>0</asrwt>
<pdfrwt beam="1">  1        4 0.35172560E-02 0.12499851E+03</pdfrwt>
<pdfrwt beam="2">  1       -4 0.26285667E-01 0.12499851E+03</pdfrwt>
<totfact> 0.91207258E+03</totfact>
</mgrwt>
</event>
<event>
 5    1  0.3516911E-002  0.1250070E+03  0.7818608E-02  0.1235058E+00
          4   -1    0    0  501    0  0.00000000000E+00  0.00000000000E+00  0.47354701306E+02  0.47371728233E+02  0.12700000000E+01 0.  1.
         -4   -1    0    0    0  501 -0.00000000000E+00 -0.00000000000E+00 -0.82461675368E+02  0.82471454483E+02  0.12700000000E+01 0.  1.
         25    2    1    2    0    0  0.00000000000E+00  0.00000000000E+00 -0.35106974062E+02  0.12984318272E+03  0.12500700968E+03 0.  0.
    9000005    1    3    3    0    0  0.43915886637E+02  0.27885654552E+02  0.18419796144E+02  0.55195142168E+02  0.10000000000E+01 0.  0.
    9000005    1    3    3    0    0 -0.43915886637E+02 -0.27885654552E+02 -0.53526770207E+02  0.74648040548E+02  0.10000000000E+01 0.  0.
<mgrwt>
<rscale>  0 0.12500701E+03</rscale>
<asrwt>0</asrwt>
<pdfrwt beam="1">  1        4 0.72874007E-02 0.12500701E+03</pdfrwt>
<pdfrwt beam="2">  1       -4 0.12688474E-01 0.12500701E+03</pdfrwt>
<totfact> 0.10346226E+04</totfact>
</mgrwt>
</event>
<event>
 5    1  0.3516911E-002  0.1249997E+03  0.7818608E-02  0.1235070E+00
         -4   -1    0    0    0  501 -0.00000000000E+00  0.00000000000E+00  0.10819020224E+02  0.10893305219E+02  0.12700000000E+01 0.  1.
          4   -1    0    0  501    0  0.00000000000E+00 -0.00000000000E+00 -0.35974134424E+03  0.35974358598E+03  0.12700000000E+01 0.  1.
         25    2    1    2    0    0  0.00000000000E+00  0.00000000000E+00 -0.34892232402E+03  0.37063689120E+03  0.12499966769E+03 0.  0.
    9000005    1    3    3    0    0 -0.55237131767E+02  0.11270390656E+02 -0.94509601872E+02  0.11005102125E+03  0.10000000000E+01 0.  0.
    9000005    1    3    3    0    0  0.55237131767E+02 -0.11270390656E+02 -0.25441272215E+03  0.26058586996E+03  0.10000000000E+01 0.  0.
<mgrwt>
<rscale>  0 0.12499967E+03</rscale>
<asrwt>0</asrwt>
<pdfrwt beam="2">  1        4 0.55350700E-01 0.12499967E+03</pdfrwt>
<pdfrwt beam="1">  1       -4 0.16703516E-02 0.12499967E+03</pdfrwt>
<totfact> 0.67512859E+03</totfact>
</mgrwt>
</event>
<event>
 5    1  0.3516911E-002  0.1250068E+03  0.7818608E-02  0.1235059E+00
          4   -1    0    0  501    0  0.00000000000E+00  0.00000000000E+00  0.94945580283E+01  0.95791195917E+01  0.12700000000E+01 0. -1.
         -4   -1    0    0    0  501 -0.00000000000E+00 -0.00000000000E+00 -0.40955505912E+03  0.40955702821E+03  0.12700000000E+01 0. -1.
         25    2    1    2    0    0  0.00000000000E+00  0.00000000000E+00 -0.40006050110E+03  0.41913614780E+03  0.12500682323E+03 0.  0.
    9000005    1    3    3    0    0  0.96995649144E+01 -0.25061942036E+02 -0.38920946351E+03  0.39013739757E+03  0.10000000000E+01 0.  0.
    9000005    1    3    3    0    0 -0.96995649144E+01  0.25061942036E+02 -0.10851037588E+02  0.28998750230E+02  0.10000000000E+01 0.  0.
<mgrwt>
<rscale>  0 0.12500682E+03</rscale>
<asrwt>0</asrwt>
<pdfrwt beam="1">  1        4 0.14673578E-02 0.12500682E+03</pdfrwt>
<pdfrwt beam="2">  1       -4 0.63015113E-01 0.12500682E+03</pdfrwt>
<totfact> 0.62723797E+03</totfact>
</mgrwt>
</event>
<event>
 5    1  0.3516911E-002  0.1249771E+03  0.7818608E-02  0.1235105E+00
         -4   -1    0    0    0  501 -0.00000000000E+00  0.00000000000E+00  0.10020083297E+03  0.10020888099E+03  0.12700000000E+01 0.  1.
          4   -1    0    0  501    0  0.00000000000E+00 -0.00000000000E+00 -0.38949933567E+02  0.38970632851E+02  0.12700000000E+01 0.  1.
         25    2    1    2    0    0  0.00000000000E+00  0.00000000000E+00  0.61250899408E+02  0.13917951384E+03  0.12497705547E+03 0.  0.
    9000005    1    3    3    0    0 -0.18306778062E+02  0.61297692221E+01  0.96801413551E+02  0.98712845462E+02  0.10000000000E+01 0.  0.
    9000005    1    3    3    0    0  0.18306778062E+02 -0.61297692221E+01 -0.35550514143E+02  0.40466668377E+02  0.10000000000E+01 0.  0.
<mgrwt>
<rscale>  0 0.12497706E+03</rscale>
<asrwt>0</asrwt>
<pdfrwt beam="2">  1        4 0.59945089E-02 0.12497706E+03</pdfrwt>
<pdfrwt beam="1">  1       -4 0.15417724E-01 0.12497706E+03</pdfrwt>
<totfact> 0.10155868E+04</totfact>
</mgrwt>
</event>
<event>
 5    1  0.3516911E-002  0.1250012E+03  0.7818608E-02  0.1235067E+00
         -4   -1    0    0    0  501 -0.00000000000E+00  0.00000000000E+00  0.18616293324E+02  0.18659562619E+02  0.12700000000E+01 0. -1.
          4   -1    0    0  501    0  0.00000000000E+00 -0.00000000000E+00 -0.20954498365E+03  0.20954883219E+03  0.12700000000E+01 0. -1.
         25    2    1    2    0    0  0.00000000000E+00  0.00000000000E+00 -0.19092869033E+03  0.22820839481E+03  0.12500122668E+03 0.  0.
    9000005    1    3    3    0    0  0.48736703262E+02 -0.63214408920E+01 -0.24990978249E+02  0.55143230352E+02  0.10000000000E+01 0.  0.
    9000005    1    3    3    0    0 -0.48736703262E+02  0.63214408920E+01 -0.16593771208E+03  0.17306516446E+03  0.10000000000E+01 0.  0.
<mgrwt>
<rscale>  0 0.12500123E+03</rscale>
<asrwt>0</asrwt>
<pdfrwt beam="2">  1        4 0.32241313E-01 0.12500123E+03</pdfrwt>
<pdfrwt beam="1">  1       -4 0.28676697E-02 0.12500123E+03</pdfrwt>
<totfact> 0.85583119E+03</totfact>
</mgrwt>
</event>
<event>
 5    1  0.3516911E-002  0.1249951E+03  0.7818608E-02  0.1235077E+00
         -4   -1    0    0    0  501 -0.00000000000E+00  0.00000000000E+00  0.75964736586E+02  0.75975351955E+02  0.12700000000E+01 0. -1.
          4   -1    0    0  501    0  0.00000000000E+00 -0.00000000000E+00 -0.51395772898E+02  0.51411461483E+02  0.12700000000E+01 0. -1.
         25    2    1    2    0    0  0.00000000000E+00  0.00000000000E+00  0.24568963688E+02  0.12738681344E+03  0.12499506495E+03 0.  0.
    9000005    1    3    3    0    0 -0.41554625883E+02 -0.33917826252E+02 -0.20387262927E+02  0.57392040908E+02  0.10000000000E+01 0.  0.
    9000005    1    3    3    0    0  0.41554625883E+02  0.33917826252E+02  0.44956226615E+02  0.69994772529E+02  0.10000000000E+01 0.  0.
<mgrwt>
<rscale>  0 0.12499506E+03</rscale>
<asrwt>0</asrwt>
<pdfrwt beam="2">  1        4 0.79090654E-02 0.12499506E+03</pdfrwt>
<pdfrwt beam="1">  1       -4 0.11688906E-01 0.12499506E+03</pdfrwt>
<totfact> 0.10401911E+04</totfact>
</mgrwt>
</event>
<event>
 5    1  0.3516911E-002  0.1249987E+03  0.7818608E-02  0.1235071E+00
         -4   -1    0    0    0  501 -0.00000000000E+00  0.00000000000E+00  0.89141874024E+02  0.89150920379E+02  0.12700000000E+01 0. -1.
          4   -1    0    0  501    0  0.00000000000E+00 -0.00000000000E+00 -0.43799226741E+02  0.43817635298E+02  0.12700000000E+01 0. -1.
         25    2    1    2    0    0  0.00000000000E+00  0.00000000000E+00  0.45342647283E+02  0.13296855568E+03  0.12499872454E+03 0.  0.
    9000005    1    3    3    0    0 -0.56506647483E+02  0.12248462555E+02 -0.25499638220E+01  0.57883748671E+02  0.10000000000E+01 0.  0.
    9000005    1    3    3    0    0  0.56506647483E+02 -0.12248462555E+02  0.47892611105E+02  0.75084807006E+02  0.10000000000E+01 0.  0.
<mgrwt>
<rscale>  0 0.12499872E+03</rscale>
<asrwt>0</asrwt>
<pdfrwt beam="2">  1        4 0.67404546E-02 0.12499872E+03</pdfrwt>
<pdfrwt beam="1">  1       -4 0.13716246E-01 0.12499872E+03</pdfrwt>
<totfact> 0.10281364E+04</totfact>
</mgrwt>
</event>
<event>
 5    1  0.3516911E-002  0.1249922E+03  0.7818608E-02  0.1235082E+00
         -4   -1    0    0    0  501 -0.00000000000E+00  0.00000000000E+00  0.66802393110E+02  0.66814464192E+02  0.12700000000E+01 0.  1.
          4   -1    0    0  501    0  0.00000000000E+00 -0.00000000000E+00 -0.58443108920E+02  0.58456906181E+02  0.12700000000E+01 0.  1.
         25    2    1    2    0    0  0.00000000000E+00  0.00000000000E+00  0.83592841901E+01  0.12527137037E+03  0.12499215416E+03 0.  0.
    9000005    1    3    3    0    0  0.22000179632E+02 -0.33909962763E+02  0.51939700128E+02  0.65822685511E+02  0.10000000000E+01 0.  0.
    9000005    1    3    3    0    0 -0.22000179632E+02  0.33909962763E+02 -0.43580415938E+02  0.59448684861E+02  0.10000000000E+01 0.  0.
<mgrwt>
<rscale>  0 0.12499215E+03</rscale>
<asrwt>0</asrwt>
<pdfrwt beam="2">  1        4 0.89932374E-02 0.12499215E+03</pdfrwt>
<pdfrwt beam="1">  1       -4 0.10279281E-01 0.12499215E+03</pdfrwt>
<totfact> 0.10448824E+04</totfact>
</mgrwt>
</event>
<event>
 5    1  0.3516911E-002  0.1249985E+03  0.7818608E-02  0.1235072E+00
          4   -1    0    0  501    0  0.00000000000E+00  0.00000000000E+00  0.34261579363E+03  0.34261814743E+03  0.12700000000E+01 0.  1.
         -4   -1    0    0    0  501 -0.00000000000E+00 -0.00000000000E+00 -0.11363219085E+02  0.11433969039E+02  0.12700000000E+01 0.  1.
         25    2    1    2    0    0  0.00000000000E+00  0.00000000000E+00  0.33125257455E+03  0.35405211647E+03  0.12499853211E+03 0.  0.
    9000005    1    3    3    0    0 -0.20754850122E+02 -0.23909313658E+02  0.31823041783E+03  0.31980309241E+03  0.10000000000E+01 0.  0.
    9000005    1    3    3    0    0  0.20754850122E+02  0.23909313658E+02  0.13022156717E+02  0.34249024056E+02  0.10000000000E+01 0.  0.
<mgrwt>
<rscale>  0 0.12499853E+03</rscale>
<asrwt>0</asrwt>
<pdfrwt beam="1">  1        4 0.52715742E-01 0.12499853E+03</pdfrwt>
<pdfrwt beam="2">  1       -4 0.17538110E-02 0.12499853E+03</pdfrwt>
<totfact> 0.69283313E+03</totfact>
</mgrwt>
</event>
<event>
 5    1  0.3516911E-002  0.1250136E+03  0.7818608E-02  0.1235048E+00
         -4   -1    0    0    0  501 -0.00000000000E+00  0.00000000000E+00  0.20612706970E+02  0.20651793835E+02  0.12700000000E+01 0.  1.
          4   -1    0    0  501    0  0.00000000000E+00 -0.00000000000E+00 -0.18932741496E+03  0.18933167446E+03  0.12700000000E+01 0.  1.
         25    2    1    2    0    0  0.00000000000E+00  0.00000000000E+00 -0.16871470799E+03  0.20998346830E+03  0.12501361633E+03 0.  0.
    9000005    1    3    3    0    0  0.53756602085E+02  0.28512683259E+02 -0.60404572473E+02  0.85746473688E+02  0.10000000000E+01 0.  0.
    9000005    1    3    3    0    0 -0.53756602085E+02 -0.28512683259E+02 -0.10831013552E+03  0.12423699461E+03  0.10000000000E+01 0.  0.
<mgrwt>
<rscale>  0 0.12501362E+03</rscale>
<asrwt>0</asrwt>
<pdfrwt beam="2">  1        4 0.29130628E-01 0.12501362E+03</pdfrwt>
<pdfrwt beam="1">  1       -4 0.31745202E-02 0.12501362E+03</pdfrwt>
<totfact> 0.88451653E+03</totfact>
</mgrwt>
</event>
<event>
 5    1  0.3516911E-002  0.1250006E+03  0.7818608E-02  0.1235068E+00
         -4   -1    0    0    0  501 -0.00000000000E+00  0.00000000000E+00  0.64534766610E+02  0.64547261765E+02  0.12700000000E+01 0.  1.
          4   -1    0    0  501    0  0.00000000000E+00 -0.00000000000E+00 -0.60504926933E+02  0.60518254132E+02  0.12700000000E+01 0.  1.
         25    2    1    2    0    0  0.00000000000E+00  0.00000000000E+00  0.40298396765E+01  0.12506551590E+03  0.12500057463E+03 0.  0.
    9000005    1    3    3    0    0  0.32916266846E+02  0.51507737309E+02  0.15012368962E+02  0.62951559533E+02  0.10000000000E+01 0.  0.
    9000005    1    3    3    0    0 -0.32916266846E+02 -0.51507737309E+02 -0.10982529286E+02  0.62113956365E+02  0.10000000000E+01 0.  0.
<mgrwt>
<rscale>  0 0.12500057E+03</rscale>
<asrwt>0</asrwt>
<pdfrwt beam="2">  1        4 0.93104366E-02 0.12500057E+03</pdfrwt>
<pdfrwt beam="1">  1       -4 0.99304120E-02 0.12500057E+03</pdfrwt>
<totfact> 0.10451304E+04</totfact>
</mgrwt>
</event>
<event>
 5    1  0.3516911E-002  0.1250026E+03  0.7818608E-02  0.1235065E+00
          4   -1    0    0  501    0  0.00000000000E+00  0.00000000000E+00  0.21076282397E+03  0.21076665028E+03  0.12700000000E+01 0.  1.
         -4   -1    0    0    0  501 -0.00000000000E+00 -0.00000000000E+00 -0.18508876523E+02  0.18552396345E+02  0.12700000000E+01 0.  1.
         25    2    1    2    0    0  0.00000000000E+00  0.00000000000E+00  0.19225394745E+03  0.22931904662E+03  0.12500257931E+03 0.  0.
    9000005    1    3    3    0    0  0.32912029623E+02 -0.18238855413E+02  0.18766085957E+03  0.19139868274E+03  0.10000000000E+01 0.  0.
    9000005    1    3    3    0    0 -0.32912029623E+02  0.18238855413E+02  0.45930878830E+01  0.37920363883E+02  0.10000000000E+01 0.  0.
<mgrwt>
<rscale>  0 0.12500258E+03</rscale>
<asrwt>0</asrwt>
<pdfrwt beam="1">  1        4 0.32428690E-01 0.12500258E+03</pdfrwt>
<pdfrwt beam="2">  1       -4 0.28511617E-02 0.12500258E+03</pdfrwt>
<totfact> 0.85409353E+03</totfact>
</mgrwt>
</event>
<event>
 5    1  0.3516911E-002  0.1249990E+03  0.7818608E-02  0.1235071E+00
          4   -1    0    0  501    0  0.00000000000E+00  0.00000000000E+00  0.29581656915E+02  0.29608906192E+02  0.12700000000E+01 0.  1.
         -4   -1    0    0    0  501 -0.00000000000E+00 -0.00000000000E+00 -0.13195658025E+03  0.13196269159E+03  0.12700000000E+01 0.  1.
         25    2    1    2    0    0  0.00000000000E+00  0.00000000000E+00 -0.10237492333E+03  0.16157159778E+03  0.12499902512E+03 0.  0.
    9000005    1    3    3    0    0  0.42729510266E+02  0.44643091313E+02 -0.39174614834E+02  0.73174224266E+02  0.10000000000E+01 0.  0.
    9000005    1    3    3    0    0 -0.42729510266E+02 -0.44643091313E+02 -0.63200308498E+02  0.88397373512E+02  0.10000000000E+01 0.  0.
<mgrwt>
<rscale>  0 0.12499903E+03</rscale>
<asrwt>0</asrwt>
<pdfrwt beam="1">  1        4 0.45535904E-02 0.12499903E+03</pdfrwt>
<pdfrwt beam="2">  1       -4 0.20303578E-01 0.12499903E+03</pdfrwt>
<totfact> 0.97042773E+03</totfact>
</mgrwt>
</event>
<event>
 5    1  0.3516911E-002  0.1249980E+03  0.7818608E-02  0.1235072E+00
         -4   -1    0    0    0  501 -0.00000000000E+00  0.00000000000E+00  0.11404516217E+02  0.11475011553E+02  0.12700000000E+01 0. -1.
          4   -1    0    0  501    0  0.00000000000E+00 -0.00000000000E+00 -0.34137979017E+03  0.34138215248E+03  0.12700000000E+01 0. -1.
         25    2    1    2    0    0  0.00000000000E+00  0.00000000000E+00 -0.32997527395E+03  0.35285716404E+03  0.12499798716E+03 0.  0.
    9000005    1    3    3    0    0 -0.11643630080E+02 -0.60066598349E+02 -0.20086781277E+03  0.20998201962E+03  0.10000000000E+01 0.  0.
    9000005    1    3    3    0    0  0.11643630080E+02  0.60066598349E+02 -0.12910746118E+03  0.14287514442E+03  0.10000000000E+01 0.  0.
<mgrwt>
<rscale>  0 0.12499799E+03</rscale>
<asrwt>0</asrwt>
<pdfrwt beam="2">  1        4 0.52525564E-01 0.12499799E+03</pdfrwt>
<pdfrwt beam="1">  1       -4 0.17601457E-02 0.12499799E+03</pdfrwt>
<totfact> 0.69414468E+03</totfact>
</mgrwt>
</event>
<event>
 5    1  0.3516911E-002  0.1250025E+03  0.7818608E-02  0.1235065E+00
          4   -1    0    0  501    0  0.00000000000E+00  0.00000000000E+00  0.26267212881E+03  0.26267519897E+03  0.12700000000E+01 0.  1.
         -4   -1    0    0    0  501 -0.00000000000E+00 -0.00000000000E+00 -0.14841526485E+02  0.14895764781E+02  0.12700000000E+01 0.  1.
         25    2    1    2    0    0  0.00000000000E+00  0.00000000000E+00  0.24783060233E+03  0.27757096375E+03  0.12500252985E+03 0.  0.
    9000005    1    3    3    0    0  0.80993218654E+01  0.55460550055E+02  0.18528922051E+03  0.19358348810E+03  0.10000000000E+01 0.  0.
    9000005    1    3    3    0    0 -0.80993218654E+01 -0.55460550055E+02  0.62541381816E+02  0.83987475652E+02  0.10000000000E+01 0.  0.
<mgrwt>
<rscale>  0 0.12500253E+03</rscale>
<asrwt>0</asrwt>
<pdfrwt beam="1">  1        4 0.40415506E-01 0.12500253E+03</pdfrwt>
<pdfrwt beam="2">  1       -4 0.22877201E-02 0.12500253E+03</pdfrwt>
<totfact> 0.78496867E+03</totfact>
</mgrwt>
</event>
<event>
 5    1  0.3516911E-002  0.1249997E+03  0.7818608E-02  0.1235070E+00
         -4   -1    0    0    0  501 -0.00000000000E+00  0.00000000000E+00  0.18588499383E+03  0.18588933222E+03  0.12700000000E+01 0.  1.
          4   -1    0    0  501    0  0.00000000000E+00 -0.00000000000E+00 -0.20990446373E+02  0.21028831136E+02  0.12700000000E+01 0.  1.
         25    2    1    2    0    0  0.00000000000E+00  0.00000000000E+00  0.16489454746E+03  0.20691816335E+03  0.12499965817E+03 0.  0.
    9000005    1    3    3    0    0  0.43863136076E+02 -0.43024514796E+02  0.10133169268E+03  0.11850820867E+03  0.10000000000E+01 0.  0.
    9000005    1    3    3    0    0 -0.43863136076E+02  0.43024514796E+02  0.63562854777E+02  0.88409954684E+02  0.10000000000E+01 0.  0.
<mgrwt>
<rscale>  0 0.12499966E+03</rscale>
<asrwt>0</asrwt>
<pdfrwt beam="2">  1        4 0.32325859E-02 0.12499966E+03</pdfrwt>
<pdfrwt beam="1">  1       -4 0.28600978E-01 0.12499966E+03</pdfrwt>
<totfact> 0.88982351E+03</totfact>
</mgrwt>
</event>
<event>
 5    1  0.3516911E-002  0.1249979E+03  0.7818608E-02  0.1235073E+00
          4   -1    0    0  501    0  0.00000000000E+00  0.00000000000E+00  0.25866152295E+02  0.25897311338E+02  0.12700000000E+01 0. -1.
         -4   -1    0    0    0  501 -0.00000000000E+00 -0.00000000000E+00 -0.15088801972E+03  0.15089336432E+03  0.12700000000E+01 0. -1.
         25    2    1    2    0    0  0.00000000000E+00  0.00000000000E+00 -0.12502186743E+03  0.17679067566E+03  0.12499790264E+03 0.  0.
    9000005    1    3    3    0    0 -0.55877498020E+02 -0.11102027426E+02 -0.26187509209E+02  0.62708336260E+02  0.10000000000E+01 0.  0.
    9000005    1    3    3    0    0  0.55877498020E+02  0.11102027426E+02 -0.98834358220E+02  0.11408233940E+03  0.10000000000E+01 0.  0.
<mgrwt>
<rscale>  0 0.12499790E+03</rscale>
<asrwt>0</asrwt>
<pdfrwt beam="1">  1        4 0.39822161E-02 0.12499790E+03</pdfrwt>
<pdfrwt beam="2">  1       -4 0.23216349E-01 0.12499790E+03</pdfrwt>
<totfact> 0.94202334E+03</totfact>
</mgrwt>
</event>
<event>
 5    1  0.3516911E-002  0.1249861E+03  0.7818608E-02  0.1235091E+00
         -4   -1    0    0    0  501 -0.00000000000E+00  0.00000000000E+00  0.63782259163E+03  0.63782385600E+03  0.12700000000E+01 0.  1.
          4   -1    0    0  501    0  0.00000000000E+00 -0.00000000000E+00 -0.60558531925E+01  0.61875890207E+01  0.12700000000E+01 0.  1.
         25    2    1    2    0    0  0.00000000000E+00  0.00000000000E+00  0.63176673843E+03  0.64401144503E+03  0.12498611736E+03 0.  0.
    9000005    1    3    3    0    0 -0.58776307542E+02  0.19809349117E+02  0.35489340484E+03  0.36027405324E+03  0.10000000000E+01 0.  0.
    9000005    1    3    3    0    0  0.58776307542E+02 -0.19809349117E+02  0.27687333360E+03  0.28373739179E+03  0.10000000000E+01 0.  0.
<mgrwt>
<rscale>  0 0.12498612E+03</rscale>
<asrwt>0</asrwt>
<pdfrwt beam="2">  1        4 0.94190060E-03 0.12498612E+03</pdfrwt>
<pdfrwt beam="1">  1       -4 0.98136774E-01 0.12498612E+03</pdfrwt>
<totfact> 0.46216278E+03</totfact>
</mgrwt>
</event>
<event>
 5    1  0.3516911E-002  0.1250009E+03  0.7818608E-02  0.1235068E+00
         -4   -1    0    0    0  501 -0.00000000000E+00  0.00000000000E+00  0.18485151926E+03  0.18485588190E+03  0.12700000000E+01 0.  1.
          4   -1    0    0  501    0  0.00000000000E+00 -0.00000000000E+00 -0.21108446602E+02  0.21146617175E+02  0.12700000000E+01 0.  1.
         25    2    1    2    0    0  0.00000000000E+00  0.00000000000E+00  0.16374307266E+03  0.20600249908E+03  0.12500094312E+03 0.  0.
    9000005    1    3    3    0    0  0.26654835379E+02 -0.27652327546E+02  0.62998739054E+00  0.38425621035E+02  0.10000000000E+01 0.  0.
    9000005    1    3    3    0    0 -0.26654835379E+02  0.27652327546E+02  0.16311308527E+03  0.16757687804E+03  0.10000000000E+01 0.  0.
<mgrwt>
<rscale>  0 0.12500094E+03</rscale>
<asrwt>0</asrwt>
<pdfrwt beam="2">  1        4 0.32507252E-02 0.12500094E+03</pdfrwt>
<pdfrwt beam="1">  1       -4 0.28441967E-01 0.12500094E+03</pdfrwt>
<totfact> 0.89131035E+03</totfact>
</mgrwt>
</event>
<event>
 5    1  0.3516911E-002  0.1249993E+03  0.7818608E-02  0.1235070E+00
         -4   -1    0    0    0  501 -0.00000000000E+00  0.00000000000E+00  0.20924453817E+03  0.20924839223E+03  0.12700000000E+01 0. -1.
          4   -1    0    0  501    0  0.00000000000E+00 -0.00000000000E+00 -0.18642508121E+02  0.18685716712E+02  0.12700000000E+01 0. -1.
         25    2    1    2    0    0  0.00000000000E+00  0.00000000000E+00  0.19060203004E+03  0.22793410894E+03  0.12499929665E+03 0.  0.
    9000005    1    3    3    0    0  0.92300620158E+01 -0.61349589474E+02  0.10897590667E+03  0.12540221054E+03  0.10000000000E+01 0.  0.
    9000005    1    3    3    0    0 -0.92300620158E+01  0.61349589474E+02  0.81626123378E+02  0.10253189841E+03  0.10000000000E+01 0.  0.
<mgrwt>
<rscale>  0 0.12499930E+03</rscale>
<asrwt>0</asrwt>
<pdfrwt beam="2">  1        4 0.28716982E-02 0.12499930E+03</pdfrwt>
<pdfrwt beam="1">  1       -4 0.32195090E-01 0.12499930E+03</pdfrwt>
<totfact> 0.85629170E+03</totfact>
</mgrwt>
</event>
<event>
 5    1  0.3516911E-002  0.1249605E+03  0.7818608E-02  0.1235131E+00
          4   -1    0    0  501    0  0.00000000000E+00  0.00000000000E+00  0.78100447318E+02  0.78110772441E+02  0.12700000000E+01 0.  1.
         -4   -1    0    0    0  501 -0.00000000000E+00 -0.00000000000E+00 -0.49962442833E+02  0.49978581351E+02  0.12700000000E+01 0.  1.
         25    2    1    2    0    0  0.00000000000E+00  0.00000000000E+00  0.28138004486E+02  0.12808935379E+03  0.12496053480E+03 0.  0.
    9000005    1    3    3    0    0 -0.38737054029E+02 -0.39054341676E+02  0.44424384848E+02  0.70712989809E+02  0.10000000000E+01 0.  0.
    9000005    1    3    3    0    0  0.38737054029E+02  0.39054341676E+02 -0.16286380362E+02  0.57376363983E+02  0.10000000000E+01 0.  0.
<mgrwt>
<rscale>  0 0.12496053E+03</rscale>
<asrwt>0</asrwt>
<pdfrwt beam="1">  1        4 0.12017489E-01 0.12496053E+03</pdfrwt>
<pdfrwt beam="2">  1       -4 0.76885654E-02 0.12496053E+03</pdfrwt>
<totfact> 0.10394816E+04</totfact>
</mgrwt>
</event>
<event>
 5    1  0.3516911E-002  0.1249885E+03  0.7818608E-02  0.1235087E+00
          4   -1    0    0  501    0  0.00000000000E+00  0.00000000000E+00  0.42311881822E+02  0.42330937190E+02  0.12700000000E+01 0.  1.
         -4   -1    0    0    0  501 -0.00000000000E+00 -0.00000000000E+00 -0.92259214356E+02  0.92267955075E+02  0.12700000000E+01 0.  1.
         25    2    1    2    0    0  0.00000000000E+00  0.00000000000E+00 -0.49947332534E+02  0.13459889226E+03  0.12498850256E+03 0.  0.
    9000005    1    3    3    0    0  0.19530320396E+02 -0.17138280578E+02 -0.86170763025E+02  0.90008635565E+02  0.10000000000E+01 0.  0.
    9000005    1    3    3    0    0 -0.19530320396E+02  0.17138280578E+02  0.36223430491E+02  0.44590256699E+02  0.10000000000E+01 0.  0.
<mgrwt>
<rscale>  0 0.12498850E+03</rscale>
<asrwt>0</asrwt>
<pdfrwt beam="1">  1        4 0.65116585E-02 0.12498850E+03</pdfrwt>
<pdfrwt beam="2">  1       -4 0.14195863E-01 0.12498850E+03</pdfrwt>
<totfact> 0.10249190E+04</totfact>
</mgrwt>
</event>
<event>
 5    1  0.3516911E-002  0.1249511E+03  0.7818608E-02  0.1235146E+00
          4   -1    0    0  501    0  0.00000000000E+00  0.00000000000E+00  0.14070957255E+02  0.14128154093E+02  0.12700000000E+01 0.  1.
         -4   -1    0    0    0  501 -0.00000000000E+00 -0.00000000000E+00 -0.27677230595E+03  0.27677521971E+03  0.12700000000E+01 0.  1.
         25    2    1    2    0    0  0.00000000000E+00  0.00000000000E+00 -0.26270134870E+03  0.29090337380E+03  0.12495108755E+03 0.  0.
    9000005    1    3    3    0    0  0.39278998260E+02  0.42971511579E+02 -0.78629628034E+02  0.97841754463E+02  0.10000000000E+01 0.  0.
    9000005    1    3    3    0    0 -0.39278998260E+02 -0.42971511579E+02 -0.18407172067E+03  0.19306161934E+03  0.10000000000E+01 0.  0.
<mgrwt>
<rscale>  0 0.12495109E+03</rscale>
<asrwt>0</asrwt>
<pdfrwt beam="1">  1        4 0.21693868E-02 0.12495109E+03</pdfrwt>
<pdfrwt beam="2">  1       -4 0.42584975E-01 0.12495109E+03</pdfrwt>
<totfact> 0.76837708E+03</totfact>
</mgrwt>
</event>
<event>
 5    1  0.3516911E-002  0.1250094E+03  0.7818608E-02  0.1235055E+00
         -4   -1    0    0    0  501 -0.00000000000E+00  0.00000000000E+00  0.84006933348E+03  0.84007029346E+03  0.12700000000E+01 0.  1.
          4   -1    0    0  501    0  0.00000000000E+00 -0.00000000000E+00 -0.45629321728E+01  0.47363751978E+01  0.12700000000E+01 0.  1.
         25    2    1    2    0    0  0.00000000000E+00  0.00000000000E+00  0.83550640131E+03  0.84480666866E+03  0.12500944278E+03 0.  0.
    9000005    1    3    3    0    0  0.27531525215E+02  0.18532254349E+01  0.79670576404E+03  0.79718410282E+03  0.10000000000E+01 0.  0.
    9000005    1    3    3    0    0 -0.27531525215E+02 -0.18532254349E+01  0.38800637269E+02  0.47622565845E+02  0.10000000000E+01 0.  0.
<mgrwt>
<rscale>  0 0.12500944E+03</rscale>
<asrwt>0</asrwt>
<pdfrwt beam="2">  1        4 0.71540505E-03 0.12500944E+03</pdfrwt>
<pdfrwt beam="1">  1       -4 0.12925488E+00 0.12500944E+03</pdfrwt>
<totfact> 0.36333287E+03</totfact>
</mgrwt>
</event>
<event>
 5    1  0.3516911E-002  0.1250091E+03  0.7818608E-02  0.1235055E+00
          4   -1    0    0  501    0  0.00000000000E+00  0.00000000000E+00  0.50246747410E+02  0.50262794643E+02  0.12700000000E+01 0. -1.
         -4   -1    0    0    0  501 -0.00000000000E+00 -0.00000000000E+00 -0.77719010055E+02  0.77729385846E+02  0.12700000000E+01 0. -1.
         25    2    1    2    0    0  0.00000000000E+00  0.00000000000E+00 -0.27472262645E+02  0.12799218049E+03  0.12500909187E+03 0.  0.
    9000005    1    3    3    0    0  0.34989056979E+02  0.20669725114E+02  0.34876841872E+02  0.53561793692E+02  0.10000000000E+01 0.  0.
    9000005    1    3    3    0    0 -0.34989056979E+02 -0.20669725114E+02 -0.62349104517E+02  0.74430386796E+02  0.10000000000E+01 0.  0.
<mgrwt>
<rscale>  0 0.12500909E+03</rscale>
<asrwt>0</asrwt>
<pdfrwt beam="1">  1        4 0.77323014E-02 0.12500909E+03</pdfrwt>
<pdfrwt beam="2">  1       -4 0.11958803E-01 0.12500909E+03</pdfrwt>
<totfact> 0.10385525E+04</totfact>
</mgrwt>
</event>
<event>
 5    1  0.3516911E-002  0.1250004E+03  0.7818608E-02  0.1235069E+00
          4   -1    0    0  501    0  0.00000000000E+00  0.00000000000E+00  0.36986733703E+03  0.36986951740E+03  0.12700000000E+01 0. -1.
         -4   -1    0    0    0  501 -0.00000000000E+00 -0.00000000000E+00 -0.10520881883E+02  0.10597256985E+02  0.12700000000E+01 0. -1.
         25    2    1    2    0    0  0.00000000000E+00  0.00000000000E+00  0.35934645514E+03  0.38046677438E+03  0.12500036634E+03 0.  0.
    9000005    1    3    3    0    0 -0.10886991082E+02  0.50944556615E+02  0.28473239871E+03  0.28946055569E+03  0.10000000000E+01 0.  0.
    9000005    1    3    3    0    0  0.10886991082E+02 -0.50944556615E+02  0.74614056429E+02  0.91006218690E+02  0.10000000000E+01 0.  0.
<mgrwt>
<rscale>  0 0.12500037E+03</rscale>
<asrwt>0</asrwt>
<pdfrwt beam="1">  1        4 0.56908705E-01 0.12500037E+03</pdfrwt>
<pdfrwt beam="2">  1       -4 0.16246401E-02 0.12500037E+03</pdfrwt>
<totfact> 0.66497411E+03</totfact>
</mgrwt>
</event>
<event>
 5    1  0.3516911E-002  0.1249952E+03  0.7818608E-02  0.1235077E+00
          4   -1    0    0  501    0  0.00000000000E+00  0.00000000000E+00  0.18559516505E+01  0.22488789494E+01  0.12700000000E+01 0. -1.
         -4   -1    0    0    0  501 -0.00000000000E+00 -0.00000000000E+00 -0.19027052552E+04  0.19027056791E+04  0.12700000000E+01 0. -1.
         25    2    1    2    0    0  0.00000000000E+00  0.00000000000E+00 -0.19008493036E+04  0.19049545580E+04  0.12499517277E+03 0.  0.
    9000005    1    3    3    0    0 -0.51370751200E+01  0.29418290724E+02 -0.11385943251E+03  0.11771489176E+03  0.10000000000E+01 0.  0.
    9000005    1    3    3    0    0  0.51370751200E+01 -0.29418290724E+02 -0.17869898711E+04  0.17872396663E+04  0.10000000000E+01 0.  0.
<mgrwt>
<rscale>  0 0.12499517E+03</rscale>
<asrwt>0</asrwt>
<pdfrwt beam="1">  1        4 0.31579032E-03 0.12499517E+03</pdfrwt>
<pdfrwt beam="2">  1       -4 0.29275273E+00 0.12499517E+03</pdfrwt>
<totfact> 0.11154558E+03</totfact>
</mgrwt>
</event>
<event>
 5    1  0.3516911E-002  0.1249978E+03  0.7818608E-02  0.1235073E+00
         -4   -1    0    0    0  501 -0.00000000000E+00  0.00000000000E+00  0.23295399467E+02  0.23329992206E+02  0.12700000000E+01 0. -1.
          4   -1    0    0  501    0  0.00000000000E+00 -0.00000000000E+00 -0.16751607010E+03  0.16752088419E+03  0.12700000000E+01 0. -1.
         25    2    1    2    0    0  0.00000000000E+00  0.00000000000E+00 -0.14422067063E+03  0.19085087640E+03  0.12499782072E+03 0.  0.
    9000005    1    3    3    0    0  0.16145511319E+02  0.18931774525E+02 -0.15963432258E+03  0.16156486798E+03  0.10000000000E+01 0.  0.
    9000005    1    3    3    0    0 -0.16145511319E+02 -0.18931774525E+02  0.15413651947E+02  0.29286008414E+02  0.10000000000E+01 0.  0.
<mgrwt>
<rscale>  0 0.12499782E+03</rscale>
<asrwt>0</asrwt>
<pdfrwt beam="2">  1        4 0.25774734E-01 0.12499782E+03</pdfrwt>
<pdfrwt beam="1">  1       -4 0.35869390E-02 0.12499782E+03</pdfrwt>
<totfact> 0.91703952E+03</totfact>
</mgrwt>
</event>
<event>
 5    1  0.3516911E-002  0.1249991E+03  0.7818608E-02  0.1235071E+00
         -4   -1    0    0    0  501 -0.00000000000E+00  0.00000000000E+00  0.10883352728E+03  0.10884093697E+03  0.12700000000E+01 0.  1.
          4   -1    0    0  501    0  0.00000000000E+00 -0.00000000000E+00 -0.35871612633E+02  0.35894087158E+02  0.12700000000E+01 0.  1.
         25    2    1    2    0    0  0.00000000000E+00  0.00000000000E+00  0.72961914649E+02  0.14473502413E+03  0.12499914488E+03 0.  0.
    9000005    1    3    3    0    0 -0.48279594806E+02  0.24559690141E+02  0.39831551959E+00  0.54178005775E+02  0.10000000000E+01 0.  0.
    9000005    1    3    3    0    0  0.48279594806E+02 -0.24559690141E+02  0.72563599130E+02  0.90557018354E+02  0.10000000000E+01 0.  0.
<mgrwt>
<rscale>  0 0.12499914E+03</rscale>
<asrwt>0</asrwt>
<pdfrwt beam="2">  1        4 0.55210085E-02 0.12499914E+03</pdfrwt>
<pdfrwt beam="1">  1       -4 0.16745918E-01 0.12499914E+03</pdfrwt>
<totfact> 0.10036568E+04</totfact>
</mgrwt>
</event>
<event>
 5    1  0.3516911E-002  0.1250010E+03  0.7818608E-02  0.1235068E+00
          4   -1    0    0  501    0  0.00000000000E+00  0.00000000000E+00  0.85475624411E+01  0.86413959338E+01  0.12700000000E+01 0. -1.
         -4   -1    0    0    0  501 -0.00000000000E+00 -0.00000000000E+00 -0.45441977706E+03  0.45442155174E+03  0.12700000000E+01 0. -1.
         25    2    1    2    0    0  0.00000000000E+00  0.00000000000E+00 -0.44587221462E+03  0.46306294767E+03  0.12500104694E+03 0.  0.
    9000005    1    3    3    0    0  0.60582098123E+02  0.10927767229E+02 -0.26278437396E+03  0.26990041480E+03  0.10000000000E+01 0.  0.
    9000005    1    3    3    0    0 -0.60582098123E+02 -0.10927767229E+02 -0.18308784066E+03  0.19316253288E+03  0.10000000000E+01 0.  0.
<mgrwt>
<rscale>  0 0.12500105E+03</rscale>
<asrwt>0</asrwt>
<pdfrwt beam="1">  1        4 0.13223644E-02 0.12500105E+03</pdfrwt>
<pdfrwt beam="2">  1       -4 0.69918071E-01 0.12500105E+03</pdfrwt>
<totfact> 0.58847276E+03</totfact>
</mgrwt>
</event>
<event>
 5    1  0.3516911E-002  0.1249783E+03  0.7818608E-02  0.1235103E+00
          4   -1    0    0  501    0  0.00000000000E+00  0.00000000000E+00  0.76907388058E+01  0.77948934168E+01  0.12700000000E+01 0. -1.
         -4   -1    0    0    0  501 -0.00000000000E+00 -0.00000000000E+00 -0.50421961972E+03  0.50422121912E+03  0.12700000000E+01 0. -1.
         25    2    1    2    0    0  0.00000000000E+00  0.00000000000E+00 -0.49652888092E+03  0.51201611254E+03  0.12497827777E+03 0.  0.
    9000005    1    3    3    0    0  0.32157639324E+02 -0.43814171459E+02 -0.12198487276E+03  0.13354813578E+03  0.10000000000E+01 0.  0.
    9000005    1    3    3    0    0 -0.32157639324E+02  0.43814171459E+02 -0.37454400815E+03  0.37846797676E+03  0.10000000000E+01 0.  0.
<mgrwt>
<rscale>  0 0.12497828E+03</rscale>
<asrwt>0</asrwt>
<pdfrwt beam="1">  1        4 0.11913259E-02 0.12497828E+03</pdfrwt>
<pdfrwt beam="2">  1       -4 0.77580358E-01 0.12497828E+03</pdfrwt>
<totfact> 0.54970222E+03</totfact>
</mgrwt>
</event>
<event>
 5    1  0.3516911E-002  0.1250005E+03  0.7818608E-02  0.1235068E+00
          4   -1    0    0  501    0  0.00000000000E+00  0.00000000000E+00  0.72763535360E+02  0.72774617677E+02  0.12700000000E+01 0. -1.
         -4   -1    0    0    0  501 -0.00000000000E+00 -0.00000000000E+00 -0.53661945554E+02  0.53676971791E+02  0.12700000000E+01 0. -1.
         25    2    1    2    0    0  0.00000000000E+00  0.00000000000E+00  0.19101589806E+02  0.12645158947E+03  0.12500053498E+03 0.  0.
    9000005    1    3    3    0    0  0.11063544288E+02 -0.61502632619E+02  0.10111854868E+02  0.63310547621E+02  0.10000000000E+01 0.  0.
    9000005    1    3    3    0    0 -0.11063544288E+02  0.61502632619E+02  0.89897349377E+01  0.63141041847E+02  0.10000000000E+01 0.  0.
<mgrwt>
<rscale>  0 0.12500053E+03</rscale>
<asrwt>0</asrwt>
<pdfrwt beam="1">  1        4 0.11196398E-01 0.12500053E+03</pdfrwt>
<pdfrwt beam="2">  1       -4 0.82576923E-02 0.12500053E+03</pdfrwt>
<totfact> 0.10420958E+04</totfact>
</mgrwt>
</event>
<event>
 5    1  0.3516911E-002  0.1250015E+03  0.7818608E-02  0.1235067E+00
          4   -1    0    0  501    0  0.00000000000E+00  0.00000000000E+00  0.66709792904E+03  0.66709913794E+03  0.12700000000E+01 0. -1.
         -4   -1    0    0    0  501 -0.00000000000E+00 -0.00000000000E+00 -0.57856404760E+01  0.59233888711E+01  0.12700000000E+01 0. -1.
         25    2    1    2    0    0  0.00000000000E+00  0.00000000000E+00  0.66131228857E+03  0.67302252681E+03  0.12500151431E+03 0.  0.
    9000005    1    3    3    0    0  0.42693373464E+02 -0.39091954242E+02  0.45743343176E+03  0.46108269271E+03  0.10000000000E+01 0.  0.
    9000005    1    3    3    0    0 -0.42693373464E+02  0.39091954242E+02  0.20387885681E+03  0.21193983410E+03  0.10000000000E+01 0.  0.
<mgrwt>
<rscale>  0 0.12500151E+03</rscale>
<asrwt>0</asrwt>
<pdfrwt beam="1">  1        4 0.10264114E+00 0.12500151E+03</pdfrwt>
<pdfrwt beam="2">  1       -4 0.90078759E-03 0.12500151E+03</pdfrwt>
<totfact> 0.44548090E+03</totfact>
</mgrwt>
</event>
<event>
 5    1  0.3516911E-002  0.1249983E+03  0.7818608E-02  0.1235072E+00
         -4   -1    0    0    0  501 -0.00000000000E+00  0.00000000000E+00  0.34891024003E+02  0.34914129747E+02  0.12700000000E+01 0.  1.
          4   -1    0    0  501    0  0.00000000000E+00 -0.00000000000E+00 -0.11188887430E+03  0.11189608166E+03  0.12700000000E+01 0.  1.
         25    2    1    2    0    0  0.00000000000E+00  0.00000000000E+00 -0.76997850294E+02  0.14681021141E+03  0.12499827688E+03 0.  0.
    9000005    1    3    3    0    0 -0.10127844575E+02  0.38450068796E+01  0.33785527584E+02  0.35493931703E+02  0.10000000000E+01 0.  0.
    9000005    1    3    3    0    0  0.10127844575E+02 -0.38450068796E+01 -0.11078337788E+03  0.11131627971E+03  0.10000000000E+01 0.  0.
<mgrwt>
<rscale>  0 0.12499828E+03</rscale>
<asrwt>0</asrwt>
<pdfrwt beam="2">  1        4 0.17216005E-01 0.12499828E+03</pdfrwt>
<pdfrwt beam="1">  1       -4 0.53701817E-02 0.12499828E+03</pdfrwt>
<totfact> 0.99947255E+03</totfact>
</mgrwt>
</event>
<event>
 5    1  0.3516911E-002  0.1249937E+03  0.7818608E-02  0.1235079E+00
          4   -1    0    0  501    0  0.00000000000E+00  0.00000000000E+00  0.36696686085E+03  0.36696905845E+03  0.12700000000E+01 0.  1.
         -4   -1    0    0    0  501 -0.00000000000E+00 -0.00000000000E+00 -0.10603503255E+02  0.10679287489E+02  0.12700000000E+01 0.  1.
         25    2    1    2    0    0  0.00000000000E+00  0.00000000000E+00  0.35636335759E+03  0.37764834594E+03  0.12499372207E+03 0.  0.
    9000005    1    3    3    0    0 -0.22377959200E+02  0.53357540940E+02  0.24949150245E+03  0.25611483757E+03  0.10000000000E+01 0.  0.
    9000005    1    3    3    0    0  0.22377959200E+02 -0.53357540940E+02  0.10687185515E+03  0.12153350836E+03  0.10000000000E+01 0.  0.
<mgrwt>
<rscale>  0 0.12499372E+03</rscale>
<asrwt>0</asrwt>
<pdfrwt beam="1">  1        4 0.56462446E-01 0.12499372E+03</pdfrwt>
<pdfrwt beam="2">  1       -4 0.16373066E-02 0.12499372E+03</pdfrwt>
<totfact> 0.66795556E+03</totfact>
</mgrwt>
</event>
<event>
 5    1  0.3516911E-002  0.1250033E+03  0.7818608E-02  0.1235064E+00
          4   -1    0    0  501    0  0.00000000000E+00  0.00000000000E+00  0.10548210339E+03  0.10548974848E+03  0.12700000000E+01 0.  1.
         -4   -1    0    0    0  501 -0.00000000000E+00 -0.00000000000E+00 -0.37014401203E+02  0.37036182260E+02  0.12700000000E+01 0.  1.
         25    2    1    2    0    0  0.00000000000E+00  0.00000000000E+00  0.68467702185E+02  0.14252593074E+03  0.12500325872E+03 0.  0.
    9000005    1    3    3    0    0 -0.58951654767E+02 -0.92596642990E+01  0.55393740059E+02  0.81427915486E+02  0.10000000000E+01 0.  0.
    9000005    1    3    3    0    0  0.58951654767E+02  0.92596642990E+01  0.13073962126E+02  0.61098015257E+02  0.10000000000E+01 0.  0.
<mgrwt>
<rscale>  0 0.12500326E+03</rscale>
<asrwt>0</asrwt>
<pdfrwt beam="1">  1        4 0.16230279E-01 0.12500326E+03</pdfrwt>
<pdfrwt beam="2">  1       -4 0.56967869E-02 0.12500326E+03</pdfrwt>
<totfact> 0.10080760E+04</totfact>
</mgrwt>
</event>
<event>
 5    1  0.3516911E-002  0.1250005E+03  0.7818608E-02  0.1235068E+00
          4   -1    0    0  501    0  0.00000000000E+00  0.00000000000E+00  0.26511438891E+03  0.26511743079E+03  0.12700000000E+01 0.  1.
         -4   -1    0    0    0  501 -0.00000000000E+00 -0.00000000000E+00 -0.14703835311E+02  0.14758579635E+02  0.12700000000E+01 0.  1.
         25    2    1    2    0    0  0.00000000000E+00  0.00000000000E+00  0.25041055360E+03  0.27987601042E+03  0.12500054342E+03 0.  0.
    9000005    1    3    3    0    0  0.49720296262E+02 -0.29669257127E+02  0.17785323107E+03  0.18704316208E+03  0.10000000000E+01 0.  0.
    9000005    1    3    3    0    0 -0.49720296262E+02  0.29669257127E+02  0.72557322532E+02  0.92832848345E+02  0.10000000000E+01 0.  0.
<mgrwt>
<rscale>  0 0.12500054E+03</rscale>
<asrwt>0</asrwt>
<pdfrwt beam="1">  1        4 0.40791271E-01 0.12500054E+03</pdfrwt>
<pdfrwt beam="2">  1       -4 0.22665738E-02 0.12500054E+03</pdfrwt>
<totfact> 0.78193605E+03</totfact>
</mgrwt>
</event>
<event>
 5    1  0.3516911E-002  0.1249995E+03  0.7818608E-02  0.1235070E+00
         -4   -1    0    0    0  501 -0.00000000000E+00  0.00000000000E+00  0.18101005938E+01  0.22111906656E+01  0.12700000000E+01 0.  1.
          4   -1    0    0  501    0  0.00000000000E+00 -0.00000000000E+00 -0.19423680939E+04  0.19423685090E+04  0.12700000000E+01 0.  1.
         25    2    1    2    0    0  0.00000000000E+00  0.00000000000E+00 -0.19405579933E+04  0.19445796997E+04  0.12499953325E+03 0.  0.
    9000005    1    3    3    0    0 -0.45632722283E+02 -0.21970889304E+02 -0.40077738924E+03  0.40396606423E+03  0.10000000000E+01 0.  0.
    9000005    1    3    3    0    0  0.45632722283E+02  0.21970889304E+02 -0.15397806040E+04  0.15406136355E+04  0.10000000000E+01 0.  0.
<mgrwt>
<rscale>  0 0.12499953E+03</rscale>
<asrwt>0</asrwt>
<pdfrwt beam="2">  1        4 0.29885524E+00 0.12499953E+03</pdfrwt>
<pdfrwt beam="1">  1       -4 0.30936359E-03 0.12499953E+03</pdfrwt>
<totfact> 0.10602252E+03</totfact>
</mgrwt>
</event>
<event>
 5    1  0.3516911E-002  0.1250013E+03  0.7818608E-02  0.1235067E+00
         -4   -1    0    0    0  501 -0.00000000000E+00  0.00000000000E+00  0.49272577914E+01  0.50882972931E+01  0.12700000000E+01 0.  1.
          4   -1    0    0  501    0  0.00000000000E+00 -0.00000000000E+00 -0.77989119663E+03  0.77989223068E+03  0.12700000000E+01 0.  1.
         25    2    1    2    0    0  0.00000000000E+00  0.00000000000E+00 -0.77496393884E+03  0.78498052797E+03  0.12500129120E+03 0.  0.
    9000005    1    3    3    0    0 -0.24066423084E+02  0.88810911686E+01 -0.74533376204E+03  0.74577575942E+03  0.10000000000E+01 0.  0.
    9000005    1    3    3    0    0  0.24066423084E+02 -0.88810911686E+01 -0.29630176791E+02  0.39204768550E+02  0.10000000000E+01 0.  0.
<mgrwt>
<rscale>  0 0.12500129E+03</rscale>
<asrwt>0</asrwt>
<pdfrwt beam="2">  1        4 0.11999563E+00 0.12500129E+03</pdfrwt>
<pdfrwt beam="1">  1       -4 0.77050748E-03 0.12500129E+03</pdfrwt>
<totfact> 0.38943023E+03</totfact>
</mgrwt>
</event>
<event>
 5    1  0.3516911E-002  0.1250000E+03  0.7818608E-02  0.1235069E+00
         -4   -1    0    0    0  501 -0.00000000000E+00  0.00000000000E+00  0.56893434293E+02  0.56907607274E+02  0.12700000000E+01 0.  1.
          4   -1    0    0  501    0  0.00000000000E+00 -0.00000000000E+00 -0.68630455842E+02  0.68642205451E+02  0.12700000000E+01 0.  1.
         25    2    1    2    0    0  0.00000000000E+00  0.00000000000E+00 -0.11737021550E+02  0.12554981272E+03  0.12499999120E+03 0.  0.
    9000005    1    3    3    0    0 -0.58524543657E+01 -0.46833274017E+02 -0.47007708588E+02  0.66620803387E+02  0.10000000000E+01 0.  0.
    9000005    1    3    3    0    0  0.58524543657E+01  0.46833274017E+02  0.35270687038E+02  0.58929009337E+02  0.10000000000E+01 0.  0.
<mgrwt>
<rscale>  0 0.12499999E+03</rscale>
<asrwt>0</asrwt>
<pdfrwt beam="2">  1        4 0.10560526E-01 0.12499999E+03</pdfrwt>
<pdfrwt beam="1">  1       -4 0.87548300E-02 0.12499999E+03</pdfrwt>
<totfact> 0.10440856E+04</totfact>
</mgrwt>
</event>
<event>
 5    1  0.3516911E-002  0.1249982E+03  0.7818608E-02  0.1235072E+00
         -4   -1    0    0    0  501 -0.00000000000E+00  0.00000000000E+00  0.16564231983E+03  0.16564718838E+03  0.12700000000E+01 0. -1.
          4   -1    0    0  501    0  0.00000000000E+00 -0.00000000000E+00 -0.23559460909E+02  0.23593666487E+02  0.12700000000E+01 0. -1.
         25    2    1    2    0    0  0.00000000000E+00  0.00000000000E+00  0.14208285892E+03  0.18924085487E+03  0.12499824940E+03 0.  0.
    9000005    1    3    3    0    0  0.65916851783E+01  0.58738213230E+02  0.10175303558E+03  0.11767883521E+03  0.10000000000E+01 0.  0.
    9000005    1    3    3    0    0 -0.65916851783E+01 -0.58738213230E+02  0.40329823345E+02  0.71562019661E+02  0.10000000000E+01 0.  0.
<mgrwt>
<rscale>  0 0.12499825E+03</rscale>
<asrwt>0</asrwt>
<pdfrwt beam="2">  1        4 0.36275380E-02 0.12499825E+03</pdfrwt>
<pdfrwt beam="1">  1       -4 0.25486440E-01 0.12499825E+03</pdfrwt>
<totfact> 0.91983177E+03</totfact>
</mgrwt>
</event>
<event>
 5    1  0.3516911E-002  0.1250012E+03  0.7818608E-02  0.1235067E+00
         -4   -1    0    0    0  501 -0.00000000000E+00  0.00000000000E+00  0.36631597677E+02  0.36653606212E+02  0.12700000000E+01 0.  1.
          4   -1    0    0  501    0  0.00000000000E+00 -0.00000000000E+00 -0.10658027903E+03  0.10658784536E+03  0.12700000000E+01 0.  1.
         25    2    1    2    0    0  0.00000000000E+00  0.00000000000E+00 -0.69948681354E+02  0.14324145157E+03  0.12500118170E+03 0.  0.
    9000005    1    3    3    0    0 -0.25293752978E+02 -0.51105268823E+02 -0.56736725868E+01  0.57312415773E+02  0.10000000000E+01 0.  0.
    9000005    1    3    3    0    0  0.25293752978E+02  0.51105268823E+02 -0.64275008767E+02  0.85929035798E+02  0.10000000000E+01 0.  0.
<mgrwt>
<rscale>  0 0.12500118E+03</rscale>
<asrwt>0</asrwt>
<pdfrwt beam="2">  1        4 0.16399241E-01 0.12500118E+03</pdfrwt>
<pdfrwt beam="1">  1       -4 0.56379055E-02 0.12500118E+03</pdfrwt>
<totfact> 0.10066573E+04</totfact>
</mgrwt>
</event>
<event>
 5    1  0.3516911E-002  0.1249968E+03  0.7818608E-02  0.1235074E+00
          4   -1    0    0  501    0  0.00000000000E+00  0.00000000000E+00  0.10343103856E+02  0.10420781994E+02  0.12700000000E+01 0. -1.
         -4   -1    0    0    0  501 -0.00000000000E+00 -0.00000000000E+00 -0.37615605127E+03  0.37615819519E+03  0.12700000000E+01 0. -1.
         25    2    1    2    0    0  0.00000000000E+00  0.00000000000E+00 -0.36581294742E+03  0.38657897719E+03  0.12499677237E+03 0.  0.
    9000005    1    3    3    0    0 -0.25895465445E+02  0.46507504441E+02 -0.28414378990E+03  0.28908859617E+03  0.10000000000E+01 0.  0.
    9000005    1    3    3    0    0  0.25895465445E+02 -0.46507504441E+02 -0.81669157521E+02  0.97490381014E+02  0.10000000000E+01 0.  0.
<mgrwt>
<rscale>  0 0.12499677E+03</rscale>
<asrwt>0</asrwt>
<pdfrwt beam="1">  1        4 0.15973872E-02 0.12499677E+03</pdfrwt>
<pdfrwt beam="2">  1       -4 0.57876291E-01 0.12499677E+03</pdfrwt>
<totfact> 0.65884075E+03</totfact>
</mgrwt>
</event>
<event>
 5    1  0.3516911E-002  0.1249962E+03  0.7818608E-02  0.1235075E+00
          4   -1    0    0  501    0  0.00000000000E+00  0.00000000000E+00  0.24976079385E+03  0.24976402272E+03  0.12700000000E+01 0. -1.
         -4   -1    0    0    0  501 -0.00000000000E+00 -0.00000000000E+00 -0.15609889689E+02  0.15661467240E+02  0.12700000000E+01 0. -1.
         25    2    1    2    0    0  0.00000000000E+00  0.00000000000E+00  0.23415090416E+03  0.26542548996E+03  0.12499617914E+03 0.  0.
    9000005    1    3    3    0    0  0.47888880203E+02  0.17593733774E+02  0.40450089448E+02  0.65116004573E+02  0.10000000000E+01 0.  0.
    9000005    1    3    3    0    0 -0.47888880203E+02 -0.17593733774E+02  0.19370081472E+03  0.20030948539E+03  0.10000000000E+01 0.  0.
<mgrwt>
<rscale>  0 0.12499618E+03</rscale>
<asrwt>0</asrwt>
<pdfrwt beam="1">  1        4 0.38428953E-01 0.12499618E+03</pdfrwt>
<pdfrwt beam="2">  1       -4 0.24057374E-02 0.12499618E+03</pdfrwt>
<totfact> 0.80157462E+03</totfact>
</mgrwt>
</event>
<event>
 5    1  0.3516911E-002  0.1249982E+03  0.7818608E-02  0.1235072E+00
         -4   -1    0    0    0  501 -0.00000000000E+00  0.00000000000E+00  0.66210182812E+03  0.66210304613E+03  0.12700000000E+01 0. -1.
          4   -1    0    0  501    0  0.00000000000E+00 -0.00000000000E+00 -0.58300124015E+01  0.59667365119E+01  0.12700000000E+01 0. -1.
         25    2    1    2    0    0  0.00000000000E+00  0.00000000000E+00  0.65627181571E+03  0.66806978264E+03  0.12499815350E+03 0.  0.
    9000005    1    3    3    0    0 -0.60664519625E+01 -0.60442438222E+02  0.40651176742E+03  0.41102665027E+03  0.10000000000E+01 0.  0.
    9000005    1    3    3    0    0  0.60664519625E+01  0.60442438222E+02  0.24976004829E+03  0.25704313237E+03  0.10000000000E+01 0.  0.
<mgrwt>
<rscale>  0 0.12499815E+03</rscale>
<asrwt>0</asrwt>
<pdfrwt beam="2">  1        4 0.90753613E-03 0.12499815E+03</pdfrwt>
<pdfrwt beam="1">  1       -4 0.10187241E+00 0.12499815E+03</pdfrwt>
<totfact> 0.44828478E+03</totfact>
</mgrwt>
</event>
<event>
 5    1  0.3516911E-002  0.1250023E+03  0.7818608E-02  0.1235066E+00
         -4   -1    0    0    0  501 -0.00000000000E+00  0.00000000000E+00  0.40310095290E+02  0.40330096483E+02  0.12700000000E+01 0.  1.
          4   -1    0    0  501    0  0.00000000000E+00 -0.00000000000E+00 -0.96860383382E+02  0.96868708925E+02  0.12700000000E+01 0.  1.
         25    2    1    2    0    0  0.00000000000E+00  0.00000000000E+00 -0.56550288091E+02  0.13719880541E+03  0.12500230847E+03 0.  0.
    9000005    1    3    3    0    0  0.19597469684E+02  0.24697115765E+02  0.30946735473E+02  0.44189464599E+02  0.10000000000E+01 0.  0.
    9000005    1    3    3    0    0 -0.19597469684E+02 -0.24697115765E+02 -0.87497023564E+02  0.93009340809E+02  0.10000000000E+01 0.  0.
<mgrwt>
<rscale>  0 0.12500231E+03</rscale>
<asrwt>0</asrwt>
<pdfrwt beam="2">  1        4 0.14903776E-01 0.12500231E+03</pdfrwt>
<pdfrwt beam="1">  1       -4 0.62037322E-02 0.12500231E+03</pdfrwt>
<totfact> 0.10191400E+04</totfact>
</mgrwt>
</event>
<event>
 5    1  0.3516911E-002  0.1250014E+03  0.7818608E-02  0.1235067E+00
         -4   -1    0    0    0  501 -0.00000000000E+00  0.00000000000E+00  0.84142083144E+02  0.84151666981E+02  0.12700000000E+01 0. -1.
          4   -1    0    0  501    0  0.00000000000E+00 -0.00000000000E+00 -0.46404578897E+02  0.46421954317E+02  0.12700000000E+01 0. -1.
         25    2    1    2    0    0  0.00000000000E+00  0.00000000000E+00  0.37737504247E+02  0.13057362130E+03  0.12500140540E+03 0.  0.
    9000005    1    3    3    0    0  0.10586054962E+02 -0.58454813469E+02 -0.13946476952E+01  0.59430419985E+02  0.10000000000E+01 0.  0.
    9000005    1    3    3    0    0 -0.10586054962E+02  0.58454813469E+02  0.39132151942E+02  0.71143201313E+02  0.10000000000E+01 0.  0.
<mgrwt>
<rscale>  0 0.12500141E+03</rscale>
<asrwt>0</asrwt>
<pdfrwt beam="2">  1        4 0.71412399E-02 0.12500141E+03</pdfrwt>
<pdfrwt beam="1">  1       -4 0.12947009E-01 0.12500141E+03</pdfrwt>
<totfact> 0.10331911E+04</totfact>
</mgrwt>
</event>
<event>
 5    1  0.3516911E-002  0.1249950E+03  0.7818608E-02  0.1235077E+00
          4   -1    0    0  501    0  0.00000000000E+00  0.00000000000E+00  0.12463846997E+03  0.12464494011E+03  0.12700000000E+01 0.  1.
         -4   -1    0    0    0  501 -0.00000000000E+00 -0.00000000000E+00 -0.31317965026E+02  0.31343704845E+02  0.12700000000E+01 0.  1.
         25    2    1    2    0    0  0.00000000000E+00  0.00000000000E+00  0.93320504943E+02  0.15598864496E+03  0.12499496275E+03 0.  0.
    9000005    1    3    3    0    0 -0.51956303368E+02  0.26949829067E+02  0.73978436353E+02  0.94337478192E+02  0.10000000000E+01 0.  0.
    9000005    1    3    3    0    0  0.51956303368E+02 -0.26949829067E+02  0.19342068590E+02  0.61651166767E+02  0.10000000000E+01 0.  0.
<mgrwt>
<rscale>  0 0.12499496E+03</rscale>
<asrwt>0</asrwt>
<pdfrwt beam="1">  1        4 0.19177627E-01 0.12499496E+03</pdfrwt>
<pdfrwt beam="2">  1       -4 0.48206262E-02 0.12499496E+03</pdfrwt>
<totfact> 0.98132880E+03</totfact>
</mgrwt>
</event>
<event>
 5    1  0.3516911E-002  0.1249999E+03  0.7818608E-02  0.1235069E+00
         -4   -1    0    0    0  501 -0.00000000000E+00  0.00000000000E+00  0.61591029044E+02  0.61604121280E+02  0.12700000000E+01 0. -1.
          4   -1    0    0  501    0  0.00000000000E+00 -0.00000000000E+00 -0.63396053327E+02  0.63408772875E+02  0.12700000000E+01 0. -1.
         25    2    1    2    0    0  0.00000000000E+00  0.00000000000E+00 -0.18050242833E+01  0.12501289415E+03  0.12499986237E+03 0.  0.
    9000005    1    3    3    0    0  0.50590417509E+02 -0.54962285155E+01  0.35373056273E+02  0.61982674851E+02  0.10000000000E+01 0.  0.
    9000005    1    3    3    0    0 -0.50590417509E+02  0.54962285155E+01 -0.37178080557E+02  0.63030219304E+02  0.10000000000E+01 0.  0.
<mgrwt>
<rscale>  0 0.12499986E+03</rscale>
<asrwt>0</asrwt>
<pdfrwt beam="2">  1        4 0.97552244E-02 0.12499986E+03</pdfrwt>
<pdfrwt beam="1">  1       -4 0.94775285E-02 0.12499986E+03</pdfrwt>
<totfact> 0.10452615E+04</totfact>
</mgrwt>
</event>
<event>
 5    1  0.3516911E-002  0.1250007E+03  0.7818608E-02  0.1235068E+00
          4   -1    0    0  501    0  0.00000000000E+00  0.00000000000E+00  0.14466793908E+03  0.14467351347E+03  0.12700000000E+01 0.  1.
         -4   -1    0    0    0  501 -0.00000000000E+00 -0.00000000000E+00 -0.26980752154E+02  0.27010625442E+02  0.12700000000E+01 0.  1.
         25    2    1    2    0    0  0.00000000000E+00  0.00000000000E+00  0.11768718693E+03  0.17168413891E+03  0.12500067834E+03 0.  0.
    9000005    1    3    3    0    0 -0.39309936789E+02  0.44312777506E+02  0.31498205552E+02  0.67097170832E+02  0.10000000000E+01 0.  0.
    9000005    1    3    3    0    0  0.39309936789E+02 -0.44312777506E+02  0.86188981379E+02  0.10458696808E+03  0.10000000000E+01 0.  0.
<mgrwt>
<rscale>  0 0.12500068E+03</rscale>
<asrwt>0</asrwt>
<pdfrwt beam="1">  1        4 0.22259333E-01 0.12500068E+03</pdfrwt>
<pdfrwt beam="2">  1       -4 0.41536117E-02 0.12500068E+03</pdfrwt>
<totfact> 0.95134216E+03</totfact>
</mgrwt>
</event>
<event>
 5    1  0.3516911E-002  0.1249865E+03  0.7818608E-02  0.1235090E+00
         -4   -1    0    0    0  501 -0.00000000000E+00  0.00000000000E+00  0.31445388168E+03  0.31445644628E+03  0.12700000000E+01 0.  1.
          4   -1    0    0  501    0  0.00000000000E+00 -0.00000000000E+00 -0.12384561256E+02  0.12449508324E+02  0.12700000000E+01 0.  1.
         25    2    1    2    0    0  0.00000000000E+00  0.00000000000E+00  0.30206932043E+03  0.32690595460E+03  0.12498651452E+03 0.  0.
    9000005    1    3    3    0    0  0.25184596958E+02  0.56631978218E+02  0.13028074481E+03  0.14427583772E+03  0.10000000000E+01 0.  0.
    9000005    1    3    3    0    0 -0.25184596958E+02 -0.56631978218E+02  0.17178857561E+03  0.18263011688E+03  0.10000000000E+01 0.  0.
<mgrwt>
<rscale>  0 0.12498651E+03</rscale>
<asrwt>0</asrwt>
<pdfrwt beam="2">  1        4 0.19105104E-02 0.12498651E+03</pdfrwt>
<pdfrwt beam="1">  1       -4 0.48382712E-01 0.12498651E+03</pdfrwt>
<totfact> 0.72363833E+03</totfact>
</mgrwt>
</event>
<event>
 5    1  0.3516911E-002  0.1250172E+03  0.7818608E-02  0.1235042E+00
          4   -1    0    0  501    0  0.00000000000E+00  0.00000000000E+00  0.21265321725E+02  0.21303211215E+02  0.12700000000E+01 0. -1.
         -4   -1    0    0    0  501 -0.00000000000E+00 -0.00000000000E+00 -0.18353805475E+03  0.18354244861E+03  0.12700000000E+01 0. -1.
         25    2    1    2    0    0  0.00000000000E+00  0.00000000000E+00 -0.16227273302E+03  0.20484565982E+03  0.12501721667E+03 0.  0.
    9000005    1    3    3    0    0  0.44258183275E+02  0.20724943101E+01 -0.89058667842E+01  0.45203943220E+02  0.10000000000E+01 0.  0.
    9000005    1    3    3    0    0 -0.44258183275E+02 -0.20724943101E+01 -0.15336686624E+03  0.15964171660E+03  0.10000000000E+01 0.  0.
<mgrwt>
<rscale>  0 0.12501722E+03</rscale>
<asrwt>0</asrwt>
<pdfrwt beam="1">  1        4 0.32748407E-02 0.12501722E+03</pdfrwt>
<pdfrwt beam="2">  1       -4 0.28239875E-01 0.12501722E+03</pdfrwt>
<totfact> 0.89290243E+03</totfact>
</mgrwt>
</event>
<event>
 5    1  0.3516911E-002  0.1249679E+03  0.7818608E-02  0.1235119E+00
         -4   -1    0    0    0  501 -0.00000000000E+00  0.00000000000E+00  0.14874411960E+03  0.14874954123E+03  0.12700000000E+01 0.  1.
          4   -1    0    0  501    0  0.00000000000E+00 -0.00000000000E+00 -0.26226802425E+02  0.26257533499E+02  0.12700000000E+01 0.  1.
         25    2    1    2    0    0  0.00000000000E+00  0.00000000000E+00  0.12251731718E+03  0.17500707473E+03  0.12496792867E+03 0.  0.
    9000005    1    3    3    0    0  0.23249727725E+02 -0.50334494081E+02  0.20934104781E+02  0.59273500627E+02  0.10000000000E+01 0.  0.
    9000005    1    3    3    0    0 -0.23249727725E+02  0.50334494081E+02  0.10158321239E+03  0.11573357410E+03  0.10000000000E+01 0.  0.
<mgrwt>
<rscale>  0 0.12496793E+03</rscale>
<asrwt>0</asrwt>
<pdfrwt beam="2">  1        4 0.40376736E-02 0.12496793E+03</pdfrwt>
<pdfrwt beam="1">  1       -4 0.22886492E-01 0.12496793E+03</pdfrwt>
<totfact> 0.94591583E+03</totfact>
</mgrwt>
</event>
<event>
 5    1  0.3516911E-002  0.1250123E+03  0.7818608E-02  0.1235050E+00
         -4   -1    0    0    0  501 -0.00000000000E+00  0.00000000000E+00  0.46052023501E+02  0.46069531889E+02  0.12700000000E+01 0. -1.
          4   -1    0    0  501    0  0.00000000000E+00 -0.00000000000E+00 -0.84800813724E+02  0.84810323123E+02  0.12700000000E+01 0. -1.
         25    2    1    2    0    0  0.00000000000E+00  0.00000000000E+00 -0.38748790224E+02  0.13087985501E+03  0.12501227022E+03 0.  0.
    9000005    1    3    3    0    0 -0.51584729895E+02  0.29356941287E+02 -0.39868755433E+02  0.71507566172E+02  0.10000000000E+01 0.  0.
    9000005    1    3    3    0    0  0.51584729895E+02 -0.29356941287E+02  0.11199652090E+01  0.59372288841E+02  0.10000000000E+01 0.  0.
<mgrwt>
<rscale>  0 0.12501227E+03</rscale>
<asrwt>0</asrwt>
<pdfrwt beam="2">  1        4 0.13048357E-01 0.12501227E+03</pdfrwt>
<pdfrwt beam="1">  1       -4 0.70870050E-02 0.12501227E+03</pdfrwt>
<totfact> 0.10322808E+04</totfact>
</mgrwt>
</event>
<event>
 5    1  0.3516911E-002  0.1250048E+03  0.7818608E-02  0.1235062E+00
         -4   -1    0    0    0  501 -0.00000000000E+00  0.00000000000E+00  0.32589232733E+01  0.34976393327E+01  0.12700000000E+01 0. -1.
          4   -1    0    0  501    0  0.00000000000E+00 -0.00000000000E+00 -0.11561322163E+04  0.11561329138E+04  0.12700000000E+01 0. -1.
         25    2    1    2    0    0  0.00000000000E+00  0.00000000000E+00 -0.11528732930E+04  0.11596305531E+04  0.12500476023E+03 0.  0.
    9000005    1    3    3    0    0 -0.60070497390E+02 -0.59104118259E+01 -0.42623733493E+03  0.43049118842E+03  0.10000000000E+01 0.  0.
    9000005    1    3    3    0    0  0.60070497390E+02  0.59104118259E+01 -0.72663595806E+03  0.72913936471E+03  0.10000000000E+01 0.  0.
<mgrwt>
<rscale>  0 0.12500476E+03</rscale>
<asrwt>0</asrwt>
<pdfrwt beam="2">  1        4 0.17788459E+00 0.12500476E+03</pdfrwt>
<pdfrwt beam="1">  1       -4 0.51979017E-03 0.12500476E+03</pdfrwt>
<totfact> 0.25791905E+03</totfact>
</mgrwt>
</event>
<event>
 5    1  0.3516911E-002  0.1250034E+03  0.7818608E-02  0.1235064E+00
          4   -1    0    0  501    0  0.00000000000E+00  0.00000000000E+00  0.65814720589E+02  0.65826972786E+02  0.12700000000E+01 0.  1.
         -4   -1    0    0    0  501 -0.00000000000E+00 -0.00000000000E+00 -0.59330844501E+02  0.59344435369E+02  0.12700000000E+01 0.  1.
         25    2    1    2    0    0  0.00000000000E+00  0.00000000000E+00  0.64838760876E+01  0.12517140816E+03  0.12500336304E+03 0.  0.
    9000005    1    3    3    0    0  0.27219786432E+02 -0.13192845231E+02  0.58000846397E+02  0.65422214281E+02  0.10000000000E+01 0.  0.
    9000005    1    3    3    0    0 -0.27219786432E+02  0.13192845231E+02 -0.51516970310E+02  0.59749193874E+02  0.10000000000E+01 0.  0.
<mgrwt>
<rscale>  0 0.12500336E+03</rscale>
<asrwt>0</asrwt>
<pdfrwt beam="1">  1        4 0.10127330E-01 0.12500336E+03</pdfrwt>
<pdfrwt beam="2">  1       -4 0.91298102E-02 0.12500336E+03</pdfrwt>
<totfact> 0.10448347E+04</totfact>
</mgrwt>
</event>
<event>
 5    1  0.3516911E-002  0.1249996E+03  0.7818608E-02  0.1235070E+00
          4   -1    0    0  501    0  0.00000000000E+00  0.00000000000E+00  0.62919255814E+03  0.62919383986E+03  0.12700000000E+01 0. -1.
         -4   -1    0    0    0  501 -0.00000000000E+00 -0.00000000000E+00 -0.61420650500E+01  0.62719903602E+01  0.12700000000E+01 0. -1.
         25    2    1    2    0    0  0.00000000000E+00  0.00000000000E+00  0.62305049309E+03  0.63546583022E+03  0.12499961775E+03 0.  0.
    9000005    1    3    3    0    0  0.60719251441E+02  0.27611127580E+01  0.38533146148E+03  0.39009715001E+03  0.10000000000E+01 0.  0.
    9000005    1    3    3    0    0 -0.60719251441E+02 -0.27611127580E+01  0.23771903161E+03  0.24536868021E+03  0.10000000000E+01 0.  0.
<mgrwt>
<rscale>  0 0.12499962E+03</rscale>
<asrwt>0</asrwt>
<pdfrwt beam="1">  1        4 0.96808955E-01 0.12499962E+03</pdfrwt>
<pdfrwt beam="2">  1       -4 0.95502586E-03 0.12499962E+03</pdfrwt>
<totfact> 0.46703183E+03</totfact>
</mgrwt>
</event>
<event>
 5    1  0.3516911E-002  0.1250049E+03  0.7818608E-02  0.1235062E+00
         -4   -1    0    0    0  501 -0.00000000000E+00  0.00000000000E+00  0.26032261989E+02  0.26063222446E+02  0.12700000000E+01 0.  1.
          4   -1    0    0  501    0  0.00000000000E+00 -0.00000000000E+00 -0.14994316152E+03  0.14994853980E+03  0.12700000000E+01 0.  1.
         25    2    1    2    0    0  0.00000000000E+00  0.00000000000E+00 -0.12391089953E+03  0.17601176224E+03  0.12500491760E+03 0.  0.
    9000005    1    3    3    0    0 -0.56043807262E+02 -0.27590901379E+02 -0.59362522526E+02  0.86180480690E+02  0.10000000000E+01 0.  0.
    9000005    1    3    3    0    0  0.56043807262E+02  0.27590901379E+02 -0.64548377006E+02  0.89831281553E+02  0.10000000000E+01 0.  0.
<mgrwt>
<rscale>  0 0.12500492E+03</rscale>
<asrwt>0</asrwt>
<pdfrwt beam="2">  1        4 0.23070973E-01 0.12500492E+03</pdfrwt>
<pdfrwt beam="1">  1       -4 0.40077588E-02 0.12500492E+03</pdfrwt>
<totfact> 0.94329459E+03</totfact>
</mgrwt>
</event>
<event>
 5    1  0.3516911E-002  0.1250515E+03  0.7818608E-02  0.1234989E+00
          4   -1    0    0  501    0  0.00000000000E+00  0.00000000000E+00  0.30716188944E+03  0.30716451492E+03  0.12700000000E+01 0.  1.
         -4   -1    0    0    0  501 -0.00000000000E+00 -0.00000000000E+00 -0.12693349674E+02  0.12756724734E+02  0.12700000000E+01 0.  1.
         25    2    1    2    0    0  0.00000000000E+00  0.00000000000E+00  0.29446853977E+03  0.31992123965E+03  0.12505150406E+03 0.  0.
    9000005    1    3    3    0    0  0.60711722697E+02  0.11048856447E+02  0.17287864754E+03  0.18356474955E+03  0.10000000000E+01 0.  0.
    9000005    1    3    3    0    0 -0.60711722697E+02 -0.11048856447E+02  0.12158989222E+03  0.13635649010E+03  0.10000000000E+01 0.  0.
<mgrwt>
<rscale>  0 0.12505150E+03</rscale>
<asrwt>0</asrwt>
<pdfrwt beam="1">  1        4 0.47260748E-01 0.12505150E+03</pdfrwt>
<pdfrwt beam="2">  1       -4 0.19579002E-02 0.12505150E+03</pdfrwt>
<totfact> 0.73082024E+03</totfact>
</mgrwt>
</event>
<event>
 5    1  0.3516911E-002  0.1249985E+03  0.7818608E-02  0.1235072E+00
         -4   -1    0    0    0  501 -0.00000000000E+00  0.00000000000E+00  0.14234392190E+03  0.14234958729E+03  0.12700000000E+01 0. -1.
          4   -1    0    0  501    0  0.00000000000E+00 -0.00000000000E+00 -0.27420788158E+02  0.27450182571E+02  0.12700000000E+01 0. -1.
         25    2    1    2    0    0  0.00000000000E+00  0.00000000000E+00  0.11492313374E+03  0.16979976986E+03  0.12499854069E+03 0.  0.
    9000005    1    3    3    0    0  0.14094509716E+02  0.17191324714E+02 -0.21874486337E+02  0.31204006186E+02  0.10000000000E+01 0.  0.
    9000005    1    3    3    0    0 -0.14094509716E+02 -0.17191324714E+02  0.13679762008E+03  0.13859576367E+03  0.10000000000E+01 0.  0.
<mgrwt>
<rscale>  0 0.12499854E+03</rscale>
<asrwt>0</asrwt>
<pdfrwt beam="2">  1        4 0.42212797E-02 0.12499854E+03</pdfrwt>
<pdfrwt beam="1">  1       -4 0.21901762E-01 0.12499854E+03</pdfrwt>
<totfact> 0.95489097E+03</totfact>
</mgrwt>
</event>
<event>
 5    1  0.3516911E-002  0.1250009E+03  0.7818608E-02  0.1235068E+00
         -4   -1    0    0    0  501 -0.00000000000E+00  0.00000000000E+00  0.24384997367E+03  0.24385328080E+03  0.12700000000E+01 0.  1.
          4   -1    0    0  501    0  0.00000000000E+00 -0.00000000000E+00 -0.15990704876E+02  0.16041058021E+02  0.12700000000E+01 0.  1.
         25    2    1    2    0    0  0.00000000000E+00  0.00000000000E+00  0.22785926879E+03  0.25989433882E+03  0.12500088391E+03 0.  0.
    9000005    1    3    3    0    0  0.20580515152E+02  0.66796357018E+01 -0.79641951560E+01  0.23078204902E+02  0.10000000000E+01 0.  0.
    9000005    1    3    3    0    0 -0.20580515152E+02 -0.66796357018E+01  0.23582346395E+03  0.23681613392E+03  0.10000000000E+01 0.  0.
<mgrwt>
<rscale>  0 0.12500088E+03</rscale>
<asrwt>0</asrwt>
<pdfrwt beam="2">  1        4 0.24642361E-02 0.12500088E+03</pdfrwt>
<pdfrwt beam="1">  1       -4 0.37519509E-01 0.12500088E+03</pdfrwt>
<totfact> 0.80919297E+03</totfact>
</mgrwt>
</event>
<event>
 5    1  0.3516911E-002  0.1249989E+03  0.7818608E-02  0.1235071E+00
         -4   -1    0    0    0  501 -0.00000000000E+00  0.00000000000E+00  0.27348958788E+02  0.27378430320E+02  0.12700000000E+01 0.  1.
          4   -1    0    0  501    0  0.00000000000E+00 -0.00000000000E+00 -0.14271810308E+03  0.14272375362E+03  0.12700000000E+01 0.  1.
         25    2    1    2    0    0  0.00000000000E+00  0.00000000000E+00 -0.11536914429E+03  0.17010218394E+03  0.12499885410E+03 0.  0.
    9000005    1    3    3    0    0 -0.37652826803E+02 -0.37115222787E+02 -0.12348235982E+02  0.54302431444E+02  0.10000000000E+01 0.  0.
    9000005    1    3    3    0    0  0.37652826803E+02  0.37115222787E+02 -0.10302090831E+03  0.11579975250E+03  0.10000000000E+01 0.  0.
<mgrwt>
<rscale>  0 0.12499885E+03</rscale>
<asrwt>0</asrwt>
<pdfrwt beam="2">  1        4 0.21959332E-01 0.12499885E+03</pdfrwt>
<pdfrwt beam="1">  1       -4 0.42102339E-02 0.12499885E+03</pdfrwt>
<totfact> 0.95432049E+03</totfact>
</mgrwt>
</event>
<event>
 5    1  0.3516911E-002  0.1249949E+03  0.7818608E-02  0.1235077E+00
          4   -1    0    0  501    0  0.00000000000E+00  0.00000000000E+00  0.10077936969E+03  0.10078737151E+03  0.12700000000E+01 0. -1.
         -4   -1    0    0    0  501 -0.00000000000E+00 -0.00000000000E+00 -0.38737316400E+02  0.38758129236E+02  0.12700000000E+01 0. -1.
         25    2    1    2    0    0  0.00000000000E+00  0.00000000000E+00  0.62042053291E+02  0.13954550074E+03  0.12499492150E+03 0.  0.
    9000005    1    3    3    0    0  0.15826716298E+02 -0.59204880323E+02  0.44659044197E+02  0.75836225061E+02  0.10000000000E+01 0.  0.
    9000005    1    3    3    0    0 -0.15826716298E+02  0.59204880323E+02  0.17383009094E+02  0.63709275683E+02  0.10000000000E+01 0.  0.
<mgrwt>
<rscale>  0 0.12499492E+03</rscale>
<asrwt>0</asrwt>
<pdfrwt beam="1">  1        4 0.15506735E-01 0.12499492E+03</pdfrwt>
<pdfrwt beam="2">  1       -4 0.59618036E-02 0.12499492E+03</pdfrwt>
<totfact> 0.10144175E+04</totfact>
</mgrwt>
</event>
<event>
 5    1  0.3516911E-002  0.1250023E+03  0.7818608E-02  0.1235066E+00
         -4   -1    0    0    0  501 -0.00000000000E+00  0.00000000000E+00  0.22205582680E+02  0.22241870473E+02  0.12700000000E+01 0. -1.
          4   -1    0    0  501    0  0.00000000000E+00 -0.00000000000E+00 -0.17573734034E+03  0.17574192923E+03  0.12700000000E+01 0. -1.
         25    2    1    2    0    0  0.00000000000E+00  0.00000000000E+00 -0.15353175766E+03  0.19798379970E+03  0.12500233732E+03 0.  0.
    9000005    1    3    3    0    0 -0.60814567626E+02  0.78121679530E+01 -0.57631241446E+02  0.84153440775E+02  0.10000000000E+01 0.  0.
    9000005    1    3    3    0    0  0.60814567626E+02 -0.78121679530E+01 -0.95900516210E+02  0.11383035893E+03  0.10000000000E+01 0.  0.
<mgrwt>
<rscale>  0 0.12500234E+03</rscale>
<asrwt>0</asrwt>
<pdfrwt beam="2">  1        4 0.27039657E-01 0.12500234E+03</pdfrwt>
<pdfrwt beam="1">  1       -4 0.34193880E-02 0.12500234E+03</pdfrwt>
<totfact> 0.90471684E+03</totfact>
</mgrwt>
</event>
<event>
 5    1  0.3516911E-002  0.1250015E+03  0.7818608E-02  0.1235067E+00
         -4   -1    0    0    0  501 -0.00000000000E+00  0.00000000000E+00  0.18358890827E+03  0.18359330092E+03  0.12700000000E+01 0.  1.
          4   -1    0    0  501    0  0.00000000000E+00 -0.00000000000E+00 -0.21254049781E+02  0.21291959329E+02  0.12700000000E+01 0.  1.
         25    2    1    2    0    0  0.00000000000E+00  0.00000000000E+00  0.16233485849E+03  0.20488526024E+03  0.12500145433E+03 0.  0.
    9000005    1    3    3    0    0  0.32554415033E+02 -0.41158475205E+02  0.25547114312E+02  0.58373496289E+02  0.10000000000E+01 0.  0.
    9000005    1    3    3    0    0 -0.32554415033E+02  0.41158475205E+02  0.13678774418E+03  0.14651176396E+03  0.10000000000E+01 0.  0.
<mgrwt>
<rscale>  0 0.12500145E+03</rscale>
<asrwt>0</asrwt>
<pdfrwt beam="2">  1        4 0.32731078E-02 0.12500145E+03</pdfrwt>
<pdfrwt beam="1">  1       -4 0.28247702E-01 0.12500145E+03</pdfrwt>
<totfact> 0.89315151E+03</totfact>
</mgrwt>
</event>
<event>
 5    1  0.3516911E-002  0.1249975E+03  0.7818608E-02  0.1235073E+00
         -4   -1    0    0    0  501 -0.00000000000E+00  0.00000000000E+00  0.10822709701E+02  0.10896969545E+02  0.12700000000E+01 0.  1.
          4   -1    0    0  501    0  0.00000000000E+00 -0.00000000000E+00 -0.35960718698E+03  0.35960942956E+03  0.12700000000E+01 0.  1.
         25    2    1    2    0    0  0.00000000000E+00  0.00000000000E+00 -0.34878447728E+03  0.37050639911E+03  0.12499752072E+03 0.  0.
    9000005    1    3    3    0    0 -0.47488544270E+02  0.40552907631E+02 -0.18127694957E+03  0.19173427602E+03  0.10000000000E+01 0.  0.
    9000005    1    3    3    0    0  0.47488544270E+02 -0.40552907631E+02 -0.16750752771E+03  0.17877212309E+03  0.10000000000E+01 0.  0.
<mgrwt>
<rscale>  0 0.12499752E+03</rscale>
<asrwt>0</asrwt>
<pdfrwt beam="2">  1        4 0.55330058E-01 0.12499752E+03</pdfrwt>
<pdfrwt beam="1">  1       -4 0.16709173E-02 0.12499752E+03</pdfrwt>
<totfact> 0.67529697E+03</totfact>
</mgrwt>
</event>
<event>
 5    1  0.3516911E-002  0.1250009E+03  0.7818608E-02  0.1235068E+00
          4   -1    0    0  501    0  0.00000000000E+00  0.00000000000E+00  0.31424753499E+03  0.31425010127E+03  0.12700000000E+01 0. -1.
         -4   -1    0    0    0  501 -0.00000000000E+00 -0.00000000000E+00 -0.12395596596E+02  0.12460486145E+02  0.12700000000E+01 0. -1.
         25    2    1    2    0    0  0.00000000000E+00  0.00000000000E+00  0.30185193839E+03  0.32671058741E+03  0.12500086086E+03 0.  0.
    9000005    1    3    3    0    0  0.30588843541E+02  0.49619923821E+02  0.20980542458E+03  0.21775474822E+03  0.10000000000E+01 0.  0.
    9000005    1    3    3    0    0 -0.30588843541E+02 -0.49619923821E+02  0.92046513812E+02  0.10895583919E+03  0.10000000000E+01 0.  0.
<mgrwt>
<rscale>  0 0.12500086E+03</rscale>
<asrwt>0</asrwt>
<pdfrwt beam="1">  1        4 0.48350961E-01 0.12500086E+03</pdfrwt>
<pdfrwt beam="2">  1       -4 0.19122039E-02 0.12500086E+03</pdfrwt>
<totfact> 0.72363655E+03</totfact>
</mgrwt>
</event>
<event>
 5    1  0.3516911E-002  0.1249984E+03  0.7818608E-02  0.1235072E+00
          4   -1    0    0  501    0  0.00000000000E+00  0.00000000000E+00  0.13777865835E+03  0.13778451145E+03  0.12700000000E+01 0.  1.
         -4   -1    0    0    0  501 -0.00000000000E+00 -0.00000000000E+00 -0.28330221067E+02  0.28358672848E+02  0.12700000000E+01 0.  1.
         25    2    1    2    0    0  0.00000000000E+00  0.00000000000E+00  0.10944843728E+03  0.16614318430E+03  0.12499838905E+03 0.  0.
    9000005    1    3    3    0    0  0.44547690443E+01  0.23811069649E+02 -0.21842208009E+02  0.32632714502E+02  0.10000000000E+01 0.  0.
    9000005    1    3    3    0    0 -0.44547690443E+01 -0.23811069649E+02  0.13129064529E+03  0.13351046980E+03  0.10000000000E+01 0.  0.
<mgrwt>
<rscale>  0 0.12499839E+03</rscale>
<asrwt>0</asrwt>
<pdfrwt beam="1">  1        4 0.21199355E-01 0.12499839E+03</pdfrwt>
<pdfrwt beam="2">  1       -4 0.43611344E-02 0.12499839E+03</pdfrwt>
<totfact> 0.96174809E+03</totfact>
</mgrwt>
</event>
<event>
 5    1  0.3516911E-002  0.1249932E+03  0.7818608E-02  0.1235080E+00
          4   -1    0    0  501    0  0.00000000000E+00  0.00000000000E+00  0.39456199690E+02  0.39476633519E+02  0.12700000000E+01 0. -1.
         -4   -1    0    0    0  501 -0.00000000000E+00 -0.00000000000E+00 -0.98941230356E+02  0.98949380818E+02  0.12700000000E+01 0. -1.
         25    2    1    2    0    0  0.00000000000E+00  0.00000000000E+00 -0.59485030666E+02  0.13842601434E+03  0.12499317010E+03 0.  0.
    9000005    1    3    3    0    0 -0.13012831503E+02 -0.10971821107E+02 -0.96329921820E+02  0.97827237924E+02  0.10000000000E+01 0.  0.
    9000005    1    3    3    0    0  0.13012831503E+02  0.10971821107E+02  0.36844891153E+02  0.40598776413E+02  0.10000000000E+01 0.  0.
<mgrwt>
<rscale>  0 0.12499317E+03</rscale>
<asrwt>0</asrwt>
<pdfrwt beam="1">  1        4 0.60723834E-02 0.12499317E+03</pdfrwt>
<pdfrwt beam="2">  1       -4 0.15223927E-01 0.12499317E+03</pdfrwt>
<totfact> 0.10167877E+04</totfact>
</mgrwt>
</event>
<event>
 5    1  0.3516911E-002  0.1250001E+03  0.7818608E-02  0.1235069E+00
         -4   -1    0    0    0  501 -0.00000000000E+00  0.00000000000E+00  0.13300186622E+02  0.13360683523E+02  0.12700000000E+01 0.  1.
          4   -1    0    0  501    0  0.00000000000E+00 -0.00000000000E+00 -0.29297091053E+03  0.29297366318E+03  0.12700000000E+01 0.  1.
         25    2    1    2    0    0  0.00000000000E+00  0.00000000000E+00 -0.27967072391E+03  0.30633434670E+03  0.12500007263E+03 0.  0.
    9000005    1    3    3    0    0  0.34098016389E+02 -0.27128562380E+02 -0.24961406508E+03  0.25339063736E+03  0.10000000000E+01 0.  0.
    9000005    1    3    3    0    0 -0.34098016389E+02  0.27128562380E+02 -0.30056658828E+02  0.52943709337E+02  0.10000000000E+01 0.  0.
<mgrwt>
<rscale>  0 0.12500007E+03</rscale>
<asrwt>0</asrwt>
<pdfrwt beam="2">  1        4 0.45077308E-01 0.12500007E+03</pdfrwt>
<pdfrwt beam="1">  1       -4 0.20510481E-02 0.12500007E+03</pdfrwt>
<totfact> 0.74810960E+03</totfact>
</mgrwt>
</event>
<event>
 5    1  0.3516911E-002  0.1250019E+03  0.7818608E-02  0.1235066E+00
          4   -1    0    0  501    0  0.00000000000E+00  0.00000000000E+00  0.29349203636E+02  0.29376668532E+02  0.12700000000E+01 0. -1.
         -4   -1    0    0    0  501 -0.00000000000E+00 -0.00000000000E+00 -0.13300682716E+03  0.13301289024E+03  0.12700000000E+01 0. -1.
         25    2    1    2    0    0  0.00000000000E+00  0.00000000000E+00 -0.10365762352E+03  0.16238955878E+03  0.12500186353E+03 0.  0.
    9000005    1    3    3    0    0  0.31587988339E+02 -0.19214214133E+02  0.13622730574E+02  0.39415299318E+02  0.10000000000E+01 0.  0.
    9000005    1    3    3    0    0 -0.31587988339E+02  0.19214214133E+02 -0.11728035410E+03  0.12297425946E+03  0.10000000000E+01 0.  0.
<mgrwt>
<rscale>  0 0.12500186E+03</rscale>
<asrwt>0</asrwt>
<pdfrwt beam="1">  1        4 0.45178412E-02 0.12500186E+03</pdfrwt>
<pdfrwt beam="2">  1       -4 0.20465168E-01 0.12500186E+03</pdfrwt>
<totfact> 0.96880008E+03</totfact>
</mgrwt>
</event>
<event>
 5    1  0.3516911E-002  0.1250026E+03  0.7818608E-02  0.1235065E+00
          4   -1    0    0  501    0  0.00000000000E+00  0.00000000000E+00  0.40204519468E+02  0.40224573157E+02  0.12700000000E+01 0.  1.
         -4   -1    0    0    0  501 -0.00000000000E+00 -0.00000000000E+00 -0.97115132997E+02  0.97123436703E+02  0.12700000000E+01 0.  1.
         25    2    1    2    0    0  0.00000000000E+00  0.00000000000E+00 -0.56910613528E+02  0.13734800986E+03  0.12500263149E+03 0.  0.
    9000005    1    3    3    0    0  0.33329007319E+02 -0.49020297520E+02 -0.50198621957E+02  0.77683421295E+02  0.10000000000E+01 0.  0.
    9000005    1    3    3    0    0 -0.33329007319E+02  0.49020297520E+02 -0.67119915717E+01  0.59664588565E+02  0.10000000000E+01 0.  0.
<mgrwt>
<rscale>  0 0.12500263E+03</rscale>
<asrwt>0</asrwt>
<pdfrwt beam="1">  1        4 0.61874921E-02 0.12500263E+03</pdfrwt>
<pdfrwt beam="2">  1       -4 0.14942971E-01 0.12500263E+03</pdfrwt>
<totfact> 0.10188210E+04</totfact>
</mgrwt>
</event>
<event>
 5    1  0.3516911E-002  0.1250058E+03  0.7818608E-02  0.1235060E+00
         -4   -1    0    0    0  501 -0.00000000000E+00  0.00000000000E+00  0.75941668143E+02  0.75952286735E+02  0.12700000000E+01 0. -1.
          4   -1    0    0  501    0  0.00000000000E+00 -0.00000000000E+00 -0.51420203229E+02  0.51435884362E+02  0.12700000000E+01 0. -1.
         25    2    1    2    0    0  0.00000000000E+00  0.00000000000E+00  0.24521464914E+02  0.12738817110E+03  0.12500577544E+03 0.  0.
    9000005    1    3    3    0    0 -0.62180489552E+02  0.40643902347E+01  0.74077863884E+01  0.62759922308E+02  0.10000000000E+01 0.  0.
    9000005    1    3    3    0    0  0.62180489552E+02 -0.40643902347E+01  0.17113678525E+02  0.64628248790E+02  0.10000000000E+01 0.  0.
<mgrwt>
<rscale>  0 0.12500578E+03</rscale>
<asrwt>0</asrwt>
<pdfrwt beam="2">  1        4 0.79128236E-02 0.12500578E+03</pdfrwt>
<pdfrwt beam="1">  1       -4 0.11685357E-01 0.12500578E+03</pdfrwt>
<totfact> 0.10399367E+04</totfact>
</mgrwt>
</event>
<event>
 5    1  0.3516911E-002  0.1249998E+03  0.7818608E-02  0.1235070E+00
          4   -1    0    0  501    0  0.00000000000E+00  0.00000000000E+00  0.55203847818E+03  0.55203993903E+03  0.12700000000E+01 0.  1.
         -4   -1    0    0    0  501 -0.00000000000E+00 -0.00000000000E+00 -0.70175557443E+01  0.71315488236E+01  0.12700000000E+01 0.  1.
         25    2    1    2    0    0  0.00000000000E+00  0.00000000000E+00  0.54502092243E+03  0.55917148786E+03  0.12499978777E+03 0.  0.
    9000005    1    3    3    0    0 -0.81952820994E+01 -0.56815998541E+02  0.16202465290E+03  0.17189592341E+03  0.10000000000E+01 0.  0.
    9000005    1    3    3    0    0  0.81952820994E+01  0.56815998541E+02  0.38299626953E+03  0.38727556444E+03  0.10000000000E+01 0.  0.
<mgrwt>
<rscale>  0 0.12499979E+03</rscale>
<asrwt>0</asrwt>
<pdfrwt beam="1">  1        4 0.84937903E-01 0.12499979E+03</pdfrwt>
<pdfrwt beam="2">  1       -4 0.10885047E-02 0.12499979E+03</pdfrwt>
<totfact> 0.51550823E+03</totfact>
</mgrwt>
</event>
<event>
 5    1  0.3516911E-002  0.1250004E+03  0.7818608E-02  0.1235069E+00
          4   -1    0    0  501    0  0.00000000000E+00  0.00000000000E+00  0.53825506324E+02  0.53840486913E+02  0.12700000000E+01 0. -1.
         -4   -1    0    0    0  501 -0.00000000000E+00 -0.00000000000E+00 -0.72542319745E+02  0.72553435852E+02  0.12700000000E+01 0. -1.
         25    2    1    2    0    0  0.00000000000E+00  0.00000000000E+00 -0.18716813421E+02  0.12639392277E+03  0.12500041843E+03 0.  0.
    9000005    1    3    3    0    0  0.39468974314E+02 -0.48425312146E+02 -0.77707555846E+01  0.62961856963E+02  0.10000000000E+01 0.  0.
    9000005    1    3    3    0    0 -0.39468974314E+02  0.48425312146E+02 -0.10946057837E+02  0.63432065803E+02  0.10000000000E+01 0.  0.
<mgrwt>
<rscale>  0 0.12500042E+03</rscale>
<asrwt>0</asrwt>
<pdfrwt beam="1">  1        4 0.82828546E-02 0.12500042E+03</pdfrwt>
<pdfrwt beam="2">  1       -4 0.11162364E-01 0.12500042E+03</pdfrwt>
<totfact> 0.10422244E+04</totfact>
</mgrwt>
</event>
<event>
 5    1  0.3516911E-002  0.1250011E+03  0.7818608E-02  0.1235068E+00
          4   -1    0    0  501    0  0.00000000000E+00  0.00000000000E+00  0.35642105556E+03  0.35642331818E+03  0.12700000000E+01 0.  1.
         -4   -1    0    0    0  501 -0.00000000000E+00 -0.00000000000E+00 -0.10920749708E+02  0.10994347374E+02  0.12700000000E+01 0.  1.
         25    2    1    2    0    0  0.00000000000E+00  0.00000000000E+00  0.34550030585E+03  0.36741766556E+03  0.12500111848E+03 0.  0.
    9000005    1    3    3    0    0  0.33426267639E+02 -0.42903517121E+02  0.82283558337E+02  0.98638791164E+02  0.10000000000E+01 0.  0.
    9000005    1    3    3    0    0 -0.33426267639E+02  0.42903517121E+02  0.26321674751E+03  0.26877887439E+03  0.10000000000E+01 0.  0.
<mgrwt>
<rscale>  0 0.12500112E+03</rscale>
<asrwt>0</asrwt>
<pdfrwt beam="1">  1        4 0.54839846E-01 0.12500112E+03</pdfrwt>
<pdfrwt beam="2">  1       -4 0.16859507E-02 0.12500112E+03</pdfrwt>
<totfact> 0.67848284E+03</totfact>
</mgrwt>
</event>
<event>
 5    1  0.3516911E-002  0.1249961E+03  0.7818608E-02  0.1235075E+00
          4   -1    0    0  501    0  0.00000000000E+00  0.00000000000E+00  0.22364284880E+03  0.22364645475E+03  0.12700000000E+01 0. -1.
         -4   -1    0    0    0  501 -0.00000000000E+00 -0.00000000000E+00 -0.17438532956E+02  0.17484717089E+02  0.12700000000E+01 0. -1.
         25    2    1    2    0    0  0.00000000000E+00  0.00000000000E+00  0.20620431585E+03  0.24113117183E+03  0.12499608857E+03 0.  0.
    9000005    1    3    3    0    0 -0.15918971252E+02 -0.28197182359E+02  0.20620600467E+03  0.20873526559E+03  0.10000000000E+01 0.  0.
    9000005    1    3    3    0    0  0.15918971252E+02  0.28197182359E+02 -0.16888222288E-02  0.32395906247E+02  0.10000000000E+01 0.  0.
<mgrwt>
<rscale>  0 0.12499609E+03</rscale>
<asrwt>0</asrwt>
<pdfrwt beam="1">  1        4 0.34410421E-01 0.12499609E+03</pdfrwt>
<pdfrwt beam="2">  1       -4 0.26866814E-02 0.12499609E+03</pdfrwt>
<totfact> 0.83636480E+03</totfact>
</mgrwt>
</event>
<event>
 5    1  0.3516911E-002  0.1250048E+03  0.7818608E-02  0.1235062E+00
          4   -1    0    0  501    0  0.00000000000E+00  0.00000000000E+00  0.14482834477E+03  0.14483391297E+03  0.12700000000E+01 0.  1.
         -4   -1    0    0    0  501 -0.00000000000E+00 -0.00000000000E+00 -0.26952635261E+02  0.26982539679E+02  0.12700000000E+01 0.  1.
         25    2    1    2    0    0  0.00000000000E+00  0.00000000000E+00  0.11787570950E+03  0.17181645265E+03  0.12500484195E+03 0.  0.
    9000005    1    3    3    0    0  0.32852004767E+02  0.53121995845E+02  0.61805205121E+02  0.87875389273E+02  0.10000000000E+01 0.  0.
    9000005    1    3    3    0    0 -0.32852004767E+02 -0.53121995845E+02  0.56070504382E+02  0.83941063381E+02  0.10000000000E+01 0.  0.
<mgrwt>
<rscale>  0 0.12500484E+03</rscale>
<asrwt>0</asrwt>
<pdfrwt beam="1">  1        4 0.22284013E-01 0.12500484E+03</pdfrwt>
<pdfrwt beam="2">  1       -4 0.41492879E-02 0.12500484E+03</pdfrwt>
<totfact> 0.95100821E+03</totfact>
</mgrwt>
</event>
<event>
 5    1  0.3516911E-002  0.1250000E+03  0.7818608E-02  0.1235069E+00
          4   -1    0    0  501    0  0.00000000000E+00  0.00000000000E+00  0.82221326138E+02  0.82231133836E+02  0.12700000000E+01 0. -1.
         -4   -1    0    0    0  501 -0.00000000000E+00 -0.00000000000E+00 -0.47487827250E+02  0.47504806461E+02  0.12700000000E+01 0. -1.
         25    2    1    2    0    0  0.00000000000E+00  0.00000000000E+00  0.34733498889E+02  0.12973594030E+03  0.12499999304E+03 0.  0.
    9000005    1    3    3    0    0 -0.26563872474E+02 -0.35684555435E+02  0.62918342365E+02  0.77063250797E+02  0.10000000000E+01 0.  0.
    9000005    1    3    3    0    0  0.26563872474E+02  0.35684555435E+02 -0.28184843476E+02  0.52672689500E+02  0.10000000000E+01 0.  0.
<mgrwt>
<rscale>  0 0.12499999E+03</rscale>
<asrwt>0</asrwt>
<pdfrwt beam="1">  1        4 0.12651495E-01 0.12499999E+03</pdfrwt>
<pdfrwt beam="2">  1       -4 0.73078801E-02 0.12499999E+03</pdfrwt>
<totfact> 0.10350161E+04</totfact>
</mgrwt>
</event>
<event>
 5    1  0.3516911E-002  0.1249919E+03  0.7818608E-02  0.1235082E+00
          4   -1    0    0  501    0  0.00000000000E+00  0.00000000000E+00  0.23306570334E+03  0.23306916350E+03  0.12700000000E+01 0. -1.
         -4   -1    0    0    0  501 -0.00000000000E+00 -0.00000000000E+00 -0.16730480219E+02  0.16778613421E+02  0.12700000000E+01 0. -1.
         25    2    1    2    0    0  0.00000000000E+00  0.00000000000E+00  0.21633522312E+03  0.24984777692E+03  0.12499193121E+03 0.  0.
    9000005    1    3    3    0    0 -0.38140541170E+02 -0.35493596800E+02  0.17713003280E+03  0.18463625000E+03  0.10000000000E+01 0.  0.
    9000005    1    3    3    0    0  0.38140541170E+02  0.35493596800E+02  0.39205190315E+02  0.65211526912E+02  0.10000000000E+01 0.  0.
<mgrwt>
<rscale>  0 0.12499193E+03</rscale>
<asrwt>0</asrwt>
<pdfrwt beam="1">  1        4 0.35860229E-01 0.12499193E+03</pdfrwt>
<pdfrwt beam="2">  1       -4 0.25778889E-02 0.12499193E+03</pdfrwt>
<totfact> 0.82367039E+03</totfact>
</mgrwt>
</event>
<event>
 5    1  0.3516911E-002  0.1250048E+03  0.7818608E-02  0.1235062E+00
          4   -1    0    0  501    0  0.00000000000E+00  0.00000000000E+00  0.50893261044E+03  0.50893419503E+03  0.12700000000E+01 0.  1.
         -4   -1    0    0    0  501 -0.00000000000E+00 -0.00000000000E+00 -0.76218236412E+01  0.77269072478E+01  0.12700000000E+01 0.  1.
         25    2    1    2    0    0  0.00000000000E+00  0.00000000000E+00  0.50131078680E+03  0.51666110227E+03  0.12500475849E+03 0.  0.
    9000005    1    3    3    0    0  0.51797002474E+01 -0.53929147320E+02  0.12190551599E+03  0.13340591087E+03  0.10000000000E+01 0.  0.
    9000005    1    3    3    0    0 -0.51797002474E+01  0.53929147320E+02  0.37940527080E+03  0.38325519141E+03  0.10000000000E+01 0.  0.
<mgrwt>
<rscale>  0 0.12500476E+03</rscale>
<asrwt>0</asrwt>
<pdfrwt beam="1">  1        4 0.78305532E-01 0.12500476E+03</pdfrwt>
<pdfrwt beam="2">  1       -4 0.11807935E-02 0.12500476E+03</pdfrwt>
<totfact> 0.54588741E+03</totfact>
</mgrwt>
</event>
<event>
 5    1  0.3516911E-002  0.1249958E+03  0.7818608E-02  0.1235076E+00
         -4   -1    0    0    0  501 -0.00000000000E+00  0.00000000000E+00  0.61900387832E+02  0.61913414651E+02  0.12700000000E+01 0.  1.
          4   -1    0    0  501    0  0.00000000000E+00 -0.00000000000E+00 -0.63075132273E+02  0.63087916523E+02  0.12700000000E+01 0.  1.
         25    2    1    2    0    0  0.00000000000E+00  0.00000000000E+00 -0.11747444413E+01  0.12500133117E+03  0.12499581101E+03 0.  0.
    9000005    1    3    3    0    0 -0.20679583237E+02  0.47742006535E+02 -0.35201670741E+02  0.62825965761E+02  0.10000000000E+01 0.  0.
    9000005    1    3    3    0    0  0.20679583237E+02 -0.47742006535E+02  0.34026926300E+02  0.62175365413E+02  0.10000000000E+01 0.  0.
<mgrwt>
<rscale>  0 0.12499581E+03</rscale>
<asrwt>0</asrwt>
<pdfrwt beam="2">  1        4 0.97058520E-02 0.12499581E+03</pdfrwt>
<pdfrwt beam="1">  1       -4 0.95251220E-02 0.12499581E+03</pdfrwt>
<totfact> 0.10453823E+04</totfact>
</mgrwt>
</event>
<event>
 5    1  0.3516911E-002  0.1250015E+03  0.7818608E-02  0.1235067E+00
          4   -1    0    0  501    0  0.00000000000E+00  0.00000000000E+00  0.24198458452E+03  0.24198791715E+03  0.12700000000E+01 0. -1.
         -4   -1    0    0    0  501 -0.00000000000E+00 -0.00000000000E+00 -0.16114518425E+02  0.16164485889E+02  0.12700000000E+01 0. -1.
         25    2    1    2    0    0  0.00000000000E+00  0.00000000000E+00  0.22587006609E+03  0.25815240304E+03  0.12500150573E+03 0.  0.
    9000005    1    3    3    0    0 -0.16736814584E+02 -0.57899268324E+02  0.78818805379E+02  0.99226258199E+02  0.10000000000E+01 0.  0.
    9000005    1    3    3    0    0  0.16736814584E+02  0.57899268324E+02  0.14705126071E+03  0.15892614484E+03  0.10000000000E+01 0.  0.
<mgrwt>
<rscale>  0 0.12500151E+03</rscale>
<asrwt>0</asrwt>
<pdfrwt beam="1">  1        4 0.37232496E-01 0.12500151E+03</pdfrwt>
<pdfrwt beam="2">  1       -4 0.24832568E-02 0.12500151E+03</pdfrwt>
<totfact> 0.81163326E+03</totfact>
</mgrwt>
</event>
<event>
 5    1  0.3516911E-002  0.1250007E+03  0.7818608E-02  0.1235068E+00
         -4   -1    0    0    0  501 -0.00000000000E+00  0.00000000000E+00  0.10853456328E+02  0.10927507230E+02  0.12700000000E+01 0.  1.
          4   -1    0    0  501    0  0.00000000000E+00 -0.00000000000E+00 -0.35861341436E+03  0.35861566315E+03  0.12700000000E+01 0.  1.
         25    2    1    2    0    0  0.00000000000E+00  0.00000000000E+00 -0.34775995803E+03  0.36954317038E+03  0.12500066546E+03 0.  0.
    9000005    1    3    3    0    0 -0.53764721745E+02 -0.30683656957E+02 -0.19916644688E+03  0.20856750867E+03  0.10000000000E+01 0.  0.
    9000005    1    3    3    0    0  0.53764721745E+02  0.30683656957E+02 -0.14859351115E+03  0.16097566171E+03  0.10000000000E+01 0.  0.
<mgrwt>
<rscale>  0 0.12500067E+03</rscale>
<asrwt>0</asrwt>
<pdfrwt beam="2">  1        4 0.55177155E-01 0.12500067E+03</pdfrwt>
<pdfrwt beam="1">  1       -4 0.16756320E-02 0.12500067E+03</pdfrwt>
<totfact> 0.67625766E+03</totfact>
</mgrwt>
</event>
<event>
 5    1  0.3516911E-002  0.1249991E+03  0.7818608E-02  0.1235071E+00
          4   -1    0    0  501    0  0.00000000000E+00  0.00000000000E+00  0.25304374244E+02  0.25336224183E+02  0.12700000000E+01 0.  1.
         -4   -1    0    0    0  501 -0.00000000000E+00 -0.00000000000E+00 -0.15423676785E+03  0.15424199641E+03  0.12700000000E+01 0.  1.
         25    2    1    2    0    0  0.00000000000E+00  0.00000000000E+00 -0.12893239360E+03  0.17957822059E+03  0.12499910076E+03 0.  0.
    9000005    1    3    3    0    0 -0.57174238629E+02 -0.21630990228E+02 -0.83109310962E+02  0.10317437119E+03  0.10000000000E+01 0.  0.
    9000005    1    3    3    0    0  0.57174238629E+02  0.21630990228E+02 -0.45823082640E+02  0.76403849403E+02  0.10000000000E+01 0.  0.
<mgrwt>
<rscale>  0 0.12499910E+03</rscale>
<asrwt>0</asrwt>
<pdfrwt beam="1">  1        4 0.38958329E-02 0.12499910E+03</pdfrwt>
<pdfrwt beam="2">  1       -4 0.23731585E-01 0.12499910E+03</pdfrwt>
<totfact> 0.93694869E+03</totfact>
</mgrwt>
</event>
<event>
 5    1  0.3516911E-002  0.1249981E+03  0.7818608E-02  0.1235072E+00
         -4   -1    0    0    0  501 -0.00000000000E+00  0.00000000000E+00  0.81830455185E+01  0.82810104431E+01  0.12700000000E+01 0.  1.
          4   -1    0    0  501    0  0.00000000000E+00 -0.00000000000E+00 -0.47440520946E+03  0.47440690938E+03  0.12700000000E+01 0.  1.
         25    2    1    2    0    0  0.00000000000E+00  0.00000000000E+00 -0.46622216394E+03  0.48268791982E+03  0.12499808714E+03 0.  0.
    9000005    1    3    3    0    0 -0.59878405518E+02 -0.81869522328E+01 -0.17172792855E+03  0.18205474748E+03  0.10000000000E+01 0.  0.
    9000005    1    3    3    0    0  0.59878405518E+02  0.81869522328E+01 -0.29449423539E+03  0.30063317234E+03  0.10000000000E+01 0.  0.
<mgrwt>
<rscale>  0 0.12499809E+03</rscale>
<asrwt>0</asrwt>
<pdfrwt beam="2">  1        4 0.72993062E-01 0.12499809E+03</pdfrwt>
<pdfrwt beam="1">  1       -4 0.12665970E-02 0.12499809E+03</pdfrwt>
<totfact> 0.57235460E+03</totfact>
</mgrwt>
</event>
<event>
 5    1  0.3516911E-002  0.1249935E+03  0.7818608E-02  0.1235080E+00
          4   -1    0    0  501    0  0.00000000000E+00  0.00000000000E+00  0.19326301825E+01  0.23125655498E+01  0.12700000000E+01 0. -1.
         -4   -1    0    0    0  501 -0.00000000000E+00 -0.00000000000E+00 -0.18397428468E+04  0.18397432852E+04  0.12700000000E+01 0. -1.
         25    2    1    2    0    0  0.00000000000E+00  0.00000000000E+00 -0.18378102167E+04  0.18420558507E+04  0.12499345900E+03 0.  0.
    9000005    1    3    3    0    0  0.14505764313E+02 -0.16279686830E+02 -0.17819319688E+04  0.17820656517E+04  0.10000000000E+01 0.  0.
    9000005    1    3    3    0    0 -0.14505764313E+02  0.16279686830E+02 -0.55878247842E+02  0.59990199062E+02  0.10000000000E+01 0.  0.
<mgrwt>
<rscale>  0 0.12499346E+03</rscale>
<asrwt>0</asrwt>
<pdfrwt beam="1">  1        4 0.32658871E-03 0.12499346E+03</pdfrwt>
<pdfrwt beam="2">  1       -4 0.28306535E+00 0.12499346E+03</pdfrwt>
<totfact> 0.12068485E+03</totfact>
</mgrwt>
</event>
<event>
 5    1  0.3516911E-002  0.1249977E+03  0.7818608E-02  0.1235073E+00
         -4   -1    0    0    0  501 -0.00000000000E+00  0.00000000000E+00  0.12644240168E+03  0.12644877952E+03  0.12700000000E+01 0. -1.
          4   -1    0    0  501    0  0.00000000000E+00 -0.00000000000E+00 -0.30872162411E+02  0.30898273607E+02  0.12700000000E+01 0. -1.
         25    2    1    2    0    0  0.00000000000E+00  0.00000000000E+00  0.95570239264E+02  0.15734705312E+03  0.12499769795E+03 0.  0.
    9000005    1    3    3    0    0 -0.49810092629E+02 -0.13261983654E+02  0.92258005340E+02  0.10568569008E+03  0.10000000000E+01 0.  0.
    9000005    1    3    3    0    0  0.49810092629E+02  0.13261983654E+02  0.33122339240E+01  0.51661363045E+02  0.10000000000E+01 0.  0.
<mgrwt>
<rscale>  0 0.12499770E+03</rscale>
<asrwt>0</asrwt>
<pdfrwt beam="2">  1        4 0.47520626E-02 0.12499770E+03</pdfrwt>
<pdfrwt beam="1">  1       -4 0.19455176E-01 0.12499770E+03</pdfrwt>
<totfact> 0.97861769E+03</totfact>
</mgrwt>
</event>
<event>
 5    1  0.3516911E-002  0.1249959E+03  0.7818608E-02  0.1235076E+00
         -4   -1    0    0    0  501 -0.00000000000E+00  0.00000000000E+00  0.28761824635E+03  0.28762105022E+03  0.12700000000E+01 0.  1.
          4   -1    0    0  501    0  0.00000000000E+00 -0.00000000000E+00 -0.13547919112E+02  0.13607314660E+02  0.12700000000E+01 0.  1.
         25    2    1    2    0    0  0.00000000000E+00  0.00000000000E+00  0.27407032724E+03  0.30122836488E+03  0.12499593409E+03 0.  0.
    9000005    1    3    3    0    0  0.21087976479E+02  0.14871597672E+02 -0.12060590471E+00  0.25824053034E+02  0.10000000000E+01 0.  0.
    9000005    1    3    3    0    0 -0.21087976479E+02 -0.14871597672E+02  0.27419093314E+03  0.27540431185E+03  0.10000000000E+01 0.  0.
<mgrwt>
<rscale>  0 0.12499593E+03</rscale>
<asrwt>0</asrwt>
<pdfrwt beam="2">  1        4 0.20890798E-02 0.12499593E+03</pdfrwt>
<pdfrwt beam="1">  1       -4 0.44253746E-01 0.12499593E+03</pdfrwt>
<totfact> 0.75451821E+03</totfact>
</mgrwt>
</event>
<event>
 5    1  0.3516911E-002  0.1249945E+03  0.7818608E-02  0.1235078E+00
         -4   -1    0    0    0  501 -0.00000000000E+00  0.00000000000E+00  0.12835934015E+03  0.12836562275E+03  0.12700000000E+01 0.  1.
          4   -1    0    0  501    0  0.00000000000E+00 -0.00000000000E+00 -0.30409184006E+02  0.30435692401E+02  0.12700000000E+01 0.  1.
         25    2    1    2    0    0  0.00000000000E+00  0.00000000000E+00  0.97950156146E+02  0.15880131515E+03  0.12499449830E+03 0.  0.
    9000005    1    3    3    0    0  0.21982454676E+02  0.49580689597E+02  0.95407932559E+01  0.55077216982E+02  0.10000000000E+01 0.  0.
    9000005    1    3    3    0    0 -0.21982454676E+02 -0.49580689597E+02  0.88409362890E+02  0.10372409817E+03  0.10000000000E+01 0.  0.
<mgrwt>
<rscale>  0 0.12499450E+03</rscale>
<asrwt>0</asrwt>
<pdfrwt beam="2">  1        4 0.46808584E-02 0.12499450E+03</pdfrwt>
<pdfrwt beam="1">  1       -4 0.19750113E-01 0.12499450E+03</pdfrwt>
<totfact> 0.97586449E+03</totfact>
</mgrwt>
</event>
<event>
 5    1  0.3516911E-002  0.1250034E+03  0.7818608E-02  0.1235064E+00
          4   -1    0    0  501    0  0.00000000000E+00  0.00000000000E+00  0.93621949321E+02  0.93630562824E+02  0.12700000000E+01 0. -1.
         -4   -1    0    0    0  501 -0.00000000000E+00 -0.00000000000E+00 -0.41705723062E+02  0.41725055256E+02  0.12700000000E+01 0. -1.
         25    2    1    2    0    0  0.00000000000E+00  0.00000000000E+00  0.51916226260E+02  0.13535561808E+03  0.12500339514E+03 0.  0.
    9000005    1    3    3    0    0 -0.29172709423E+02  0.42656339887E+02  0.64008748517E+02  0.82272292993E+02  0.10000000000E+01 0.  0.
    9000005    1    3    3    0    0  0.29172709423E+02 -0.42656339887E+02 -0.12092522258E+02  0.53083325086E+02  0.10000000000E+01 0.  0.
<mgrwt>
<rscale>  0 0.12500340E+03</rscale>
<asrwt>0</asrwt>
<pdfrwt beam="1">  1        4 0.14405526E-01 0.12500340E+03</pdfrwt>
<pdfrwt beam="2">  1       -4 0.64184148E-02 0.12500340E+03</pdfrwt>
<totfact> 0.10229798E+04</totfact>
</mgrwt>
</event>
<event>
 5    1  0.3516911E-002  0.1250018E+03  0.7818608E-02  0.1235067E+00
         -4   -1    0    0    0  501 -0.00000000000E+00  0.00000000000E+00  0.34119513700E+03  0.34119750059E+03  0.12700000000E+01 0. -1.
          4   -1    0    0  501    0  0.00000000000E+00 -0.00000000000E+00 -0.11411422959E+02  0.11481875890E+02  0.12700000000E+01 0. -1.
         25    2    1    2    0    0  0.00000000000E+00  0.00000000000E+00  0.32978371404E+03  0.35267937648E+03  0.12500177819E+03 0.  0.
    9000005    1    3    3    0    0  0.61328122186E+02  0.12009200451E+02  0.16477651071E+03  0.17623183012E+03  0.10000000000E+01 0.  0.
    9000005    1    3    3    0    0 -0.61328122186E+02 -0.12009200451E+02  0.16500720333E+03  0.17644754636E+03  0.10000000000E+01 0.  0.
<mgrwt>
<rscale>  0 0.12500178E+03</rscale>
<asrwt>0</asrwt>
<pdfrwt beam="2">  1        4 0.17612048E-02 0.12500178E+03</pdfrwt>
<pdfrwt beam="1">  1       -4 0.52497160E-01 0.12500178E+03</pdfrwt>
<totfact> 0.69428061E+03</totfact>
</mgrwt>
</event>
<event>
 5    1  0.3516911E-002  0.1249961E+03  0.7818608E-02  0.1235075E+00
         -4   -1    0    0    0  501 -0.00000000000E+00  0.00000000000E+00  0.12093008785E+02  0.12159513208E+02  0.12700000000E+01 0.  1.
          4   -1    0    0  501    0  0.00000000000E+00 -0.00000000000E+00 -0.32204368226E+03  0.32204618642E+03  0.12700000000E+01 0.  1.
         25    2    1    2    0    0  0.00000000000E+00  0.00000000000E+00 -0.30995067348E+03  0.33420569963E+03  0.12499611863E+03 0.  0.
    9000005    1    3    3    0    0 -0.32768803003E+02 -0.52682452458E+02 -0.17494294736E+03  0.18562130825E+03  0.10000000000E+01 0.  0.
    9000005    1    3    3    0    0  0.32768803003E+02  0.52682452458E+02 -0.13500772612E+03  0.14858439138E+03  0.10000000000E+01 0.  0.
<mgrwt>
<rscale>  0 0.12499612E+03</rscale>
<asrwt>0</asrwt>
<pdfrwt beam="2">  1        4 0.49550484E-01 0.12499612E+03</pdfrwt>
<pdfrwt beam="1">  1       -4 0.18657715E-02 0.12499612E+03</pdfrwt>
<totfact> 0.71503952E+03</totfact>
</mgrwt>
</event>
<event>
 5    1  0.3516911E-002  0.1249990E+03  0.7818608E-02  0.1235071E+00
          4   -1    0    0  501    0  0.00000000000E+00  0.00000000000E+00  0.64016108627E+02  0.64028704999E+02  0.12700000000E+01 0. -1.
         -4   -1    0    0    0  501 -0.00000000000E+00 -0.00000000000E+00 -0.60993634594E+02  0.61006855033E+02  0.12700000000E+01 0. -1.
         25    2    1    2    0    0  0.00000000000E+00  0.00000000000E+00  0.30224740329E+01  0.12503556003E+03  0.12499902369E+03 0.  0.
    9000005    1    3    3    0    0  0.45089033026E+02  0.22735373912E+02 -0.35313526973E+02  0.61627618106E+02  0.10000000000E+01 0.  0.
    9000005    1    3    3    0    0 -0.45089033026E+02 -0.22735373912E+02  0.38336001006E+02  0.63407941926E+02  0.10000000000E+01 0.  0.
<mgrwt>
<rscale>  0 0.12499902E+03</rscale>
<asrwt>0</asrwt>
<pdfrwt beam="1">  1        4 0.98506179E-02 0.12499902E+03</pdfrwt>
<pdfrwt beam="2">  1       -4 0.93856221E-02 0.12499902E+03</pdfrwt>
<totfact> 0.10452321E+04</totfact>
</mgrwt>
</event>
<event>
 5    1  0.3516911E-002  0.1249976E+03  0.7818608E-02  0.1235073E+00
          4   -1    0    0  501    0  0.00000000000E+00  0.00000000000E+00  0.79812667666E+01  0.80816779940E+01  0.12700000000E+01 0.  1.
         -4   -1    0    0    0  501 -0.00000000000E+00 -0.00000000000E+00 -0.48624761870E+03  0.48624927721E+03  0.12700000000E+01 0.  1.
         25    2    1    2    0    0  0.00000000000E+00  0.00000000000E+00 -0.47826635193E+03  0.49433095520E+03  0.12499755952E+03 0.  0.
    9000005    1    3    3    0    0  0.27622673319E+02  0.44597837165E+02 -0.37342612390E+03  0.37709421789E+03  0.10000000000E+01 0.  0.
    9000005    1    3    3    0    0 -0.27622673319E+02 -0.44597837165E+02 -0.10484022803E+03  0.11723673731E+03  0.10000000000E+01 0.  0.
<mgrwt>
<rscale>  0 0.12499756E+03</rscale>
<asrwt>0</asrwt>
<pdfrwt beam="1">  1        4 0.12357391E-02 0.12499756E+03</pdfrwt>
<pdfrwt beam="2">  1       -4 0.74815154E-01 0.12499756E+03</pdfrwt>
<totfact> 0.56309945E+03</totfact>
</mgrwt>
</event>
<event>
 5    1  0.3516911E-002  0.1249992E+03  0.7818608E-02  0.1235070E+00
          4   -1    0    0  501    0  0.00000000000E+00  0.00000000000E+00  0.33077708169E+03  0.33077951972E+03  0.12700000000E+01 0.  1.
         -4   -1    0    0    0  501 -0.00000000000E+00 -0.00000000000E+00 -0.11772531613E+02  0.11840836144E+02  0.12700000000E+01 0.  1.
         25    2    1    2    0    0  0.00000000000E+00  0.00000000000E+00  0.31900455007E+03  0.34262035587E+03  0.12499922115E+03 0.  0.
    9000005    1    3    3    0    0  0.33954671052E+02  0.51969904121E+02  0.17915544541E+03  0.18960871351E+03  0.10000000000E+01 0.  0.
    9000005    1    3    3    0    0 -0.33954671052E+02 -0.51969904121E+02  0.13984910467E+03  0.15301164236E+03  0.10000000000E+01 0.  0.
<mgrwt>
<rscale>  0 0.12499922E+03</rscale>
<asrwt>0</asrwt>
<pdfrwt beam="1">  1        4 0.50894222E-01 0.12499922E+03</pdfrwt>
<pdfrwt beam="2">  1       -4 0.18166005E-02 0.12499922E+03</pdfrwt>
<totfact> 0.70545325E+03</totfact>
</mgrwt>
</event>
<event>
 5    1  0.3516911E-002  0.1250003E+03  0.7818608E-02  0.1235069E+00
         -4   -1    0    0    0  501 -0.00000000000E+00  0.00000000000E+00  0.12120466418E+02  0.12186821005E+02  0.12700000000E+01 0.  1.
          4   -1    0    0  501    0  0.00000000000E+00 -0.00000000000E+00 -0.32133957335E+03  0.32134208299E+03  0.12700000000E+01 0.  1.
         25    2    1    2    0    0  0.00000000000E+00  0.00000000000E+00 -0.30921910693E+03  0.33352890400E+03  0.12500029483E+03 0.  0.
    9000005    1    3    3    0    0 -0.39206531013E+02 -0.36596351181E+02 -0.24019360908E+03  0.24611057441E+03  0.10000000000E+01 0.  0.
    9000005    1    3    3    0    0  0.39206531013E+02  0.36596351181E+02 -0.69025497853E+02  0.87418329586E+02  0.10000000000E+01 0.  0.
<mgrwt>
<rscale>  0 0.12500029E+03</rscale>
<asrwt>0</asrwt>
<pdfrwt beam="2">  1        4 0.49442148E-01 0.12500029E+03</pdfrwt>
<pdfrwt beam="1">  1       -4 0.18699846E-02 0.12500029E+03</pdfrwt>
<totfact> 0.71574952E+03</totfact>
</mgrwt>
</event>
<event>
 5    1  0.3516911E-002  0.1249999E+03  0.7818608E-02  0.1235069E+00
         -4   -1    0    0    0  501 -0.00000000000E+00  0.00000000000E+00  0.25416541246E+03  0.25416858538E+03  0.12700000000E+01 0.  1.
          4   -1    0    0  501    0  0.00000000000E+00 -0.00000000000E+00 -0.15339396490E+02  0.15391880479E+02  0.12700000000E+01 0.  1.
         25    2    1    2    0    0  0.00000000000E+00  0.00000000000E+00  0.23882601597E+03  0.26956046586E+03  0.12499991539E+03 0.  0.
    9000005    1    3    3    0    0  0.61912323489E+02 -0.54648855187E+01  0.13342915612E+03  0.14719830324E+03  0.10000000000E+01 0.  0.
    9000005    1    3    3    0    0 -0.61912323489E+02  0.54648855187E+01  0.10539685986E+03  0.12236216262E+03  0.10000000000E+01 0.  0.
<mgrwt>
<rscale>  0 0.12499992E+03</rscale>
<asrwt>0</asrwt>
<pdfrwt beam="2">  1        4 0.23641885E-02 0.12499992E+03</pdfrwt>
<pdfrwt beam="1">  1       -4 0.39106652E-01 0.12499992E+03</pdfrwt>
<totfact> 0.79582977E+03</totfact>
</mgrwt>
</event>
<event>
 5    1  0.3516911E-002  0.1249998E+03  0.7818608E-02  0.1235070E+00
          4   -1    0    0  501    0  0.00000000000E+00  0.00000000000E+00  0.27337130689E+02  0.27366614959E+02  0.12700000000E+01 0. -1.
         -4   -1    0    0    0  501 -0.00000000000E+00 -0.00000000000E+00 -0.14278201915E+03  0.14278766716E+03  0.12700000000E+01 0. -1.
         25    2    1    2    0    0  0.00000000000E+00  0.00000000000E+00 -0.11544488846E+03  0.17015428212E+03  0.12499982980E+03 0.  0.
    9000005    1    3    3    0    0 -0.17999382333E+02  0.55769599076E+02 -0.87265138539E+02  0.10512102715E+03  0.10000000000E+01 0.  0.
    9000005    1    3    3    0    0  0.17999382333E+02 -0.55769599076E+02 -0.28179749922E+02  0.65033254963E+02  0.10000000000E+01 0.  0.
<mgrwt>
<rscale>  0 0.12499983E+03</rscale>
<asrwt>0</asrwt>
<pdfrwt beam="1">  1        4 0.42084150E-02 0.12499983E+03</pdfrwt>
<pdfrwt beam="2">  1       -4 0.21969167E-01 0.12499983E+03</pdfrwt>
<totfact> 0.95420253E+03</totfact>
</mgrwt>
</event>
<event>
 4    1  0.3516911E-002  0.1249233E+03  0.7818608E-02  0.1235189E+00
         -4   -1    0    0    0  501 -0.00000000000E+00  0.00000000000E+00  0.10772100761E+03  0.10772849382E+03  0.12700000000E+01 0. -1.
          4   -1    0    0  501    0  0.00000000000E+00 -0.00000000000E+00 -0.36198273991E+02  0.36220545826E+02  0.12700000000E+01 0. -1.
    9000005    1    1    2    0    0 -0.90570520338E+01 -0.14619575204E+02 -0.33421668427E+02  0.37600134190E+02  0.10000000000E+01 0.  0.
    9000005    1    1    2    0    0  0.90570520338E+01  0.14619575204E+02  0.10494440204E+03  0.10634890545E+03  0.10000000000E+01 0.  0.
<mgrwt>
<rscale>  0 0.12492327E+03</rscale>
<asrwt>0</asrwt>
<pdfrwt beam="2">  1        4 0.55712544E-02 0.12492327E+03</pdfrwt>
<pdfrwt beam="1">  1       -4 0.16574752E-01 0.12492327E+03</pdfrwt>
<totfact> 0.10069774E+04</totfact>
</mgrwt>
</event>
<event>
 5    1  0.3516911E-002  0.1249983E+03  0.7818608E-02  0.1235072E+00
         -4   -1    0    0    0  501 -0.00000000000E+00  0.00000000000E+00  0.31832669243E+03  0.31832922582E+03  0.12700000000E+01 0.  1.
          4   -1    0    0  501    0  0.00000000000E+00 -0.00000000000E+00 -0.12235408723E+02  0.12301143305E+02  0.12700000000E+01 0.  1.
         25    2    1    2    0    0  0.00000000000E+00  0.00000000000E+00  0.30609128371E+03  0.33063036913E+03  0.12499826810E+03 0.  0.
    9000005    1    3    3    0    0  0.14509150251E+02 -0.59108609578E+02  0.11556395952E+03  0.13061535862E+03  0.10000000000E+01 0.  0.
    9000005    1    3    3    0    0 -0.14509150251E+02  0.59108609578E+02  0.19052732418E+03  0.20001501050E+03  0.10000000000E+01 0.  0.
<mgrwt>
<rscale>  0 0.12499827E+03</rscale>
<asrwt>0</asrwt>
<pdfrwt beam="2">  1        4 0.18876223E-02 0.12499827E+03</pdfrwt>
<pdfrwt beam="1">  1       -4 0.48978580E-01 0.12499827E+03</pdfrwt>
<totfact> 0.71912134E+03</totfact>
</mgrwt>
</event>
<event>
 5    1  0.3516911E-002  0.1250022E+03  0.7818608E-02  0.1235066E+00
          4   -1    0    0  501    0  0.00000000000E+00  0.00000000000E+00  0.12500312836E+03  0.12500957963E+03  0.12700000000E+01 0.  1.
         -4   -1    0    0    0  501 -0.00000000000E+00 -0.00000000000E+00 -0.31230162698E+02  0.31255974823E+02  0.12700000000E+01 0.  1.
         25    2    1    2    0    0  0.00000000000E+00  0.00000000000E+00  0.93772965659E+02  0.15626555445E+03  0.12500221766E+03 0.  0.
    9000005    1    3    3    0    0  0.56857135037E+02  0.59286801948E+01  0.78450155060E+02  0.97073734257E+02  0.10000000000E+01 0.  0.
    9000005    1    3    3    0    0 -0.56857135037E+02 -0.59286801948E+01  0.15322810599E+02  0.59191820196E+02  0.10000000000E+01 0.  0.
<mgrwt>
<rscale>  0 0.12500222E+03</rscale>
<asrwt>0</asrwt>
<pdfrwt beam="1">  1        4 0.19233732E-01 0.12500222E+03</pdfrwt>
<pdfrwt beam="2">  1       -4 0.48071222E-02 0.12500222E+03</pdfrwt>
<totfact> 0.98062736E+03</totfact>
</mgrwt>
</event>
<event>
 5    1  0.3516911E-002  0.1250074E+03  0.7818608E-02  0.1235058E+00
          4   -1    0    0  501    0  0.00000000000E+00  0.00000000000E+00  0.21491768470E+03  0.21492143703E+03  0.12700000000E+01 0. -1.
         -4   -1    0    0    0  501 -0.00000000000E+00 -0.00000000000E+00 -0.18151607387E+02  0.18195981719E+02  0.12700000000E+01 0. -1.
         25    2    1    2    0    0  0.00000000000E+00  0.00000000000E+00  0.19676607731E+03  0.23311741875E+03  0.12500736676E+03 0.  0.
    9000005    1    3    3    0    0 -0.28104320428E+02  0.60648017806E+01 -0.50952667676E+01  0.29216371965E+02  0.10000000000E+01 0.  0.
    9000005    1    3    3    0    0  0.28104320428E+02 -0.60648017806E+01  0.20186134408E+03  0.20390104679E+03  0.10000000000E+01 0.  0.
<mgrwt>
<rscale>  0 0.12500737E+03</rscale>
<asrwt>0</asrwt>
<pdfrwt beam="1">  1        4 0.33067961E-01 0.12500737E+03</pdfrwt>
<pdfrwt beam="2">  1       -4 0.27962571E-02 0.12500737E+03</pdfrwt>
<totfact> 0.84819263E+03</totfact>
</mgrwt>
</event>
<event>
 5    1  0.3516911E-002  0.1250029E+03  0.7818608E-02  0.1235065E+00
         -4   -1    0    0    0  501 -0.00000000000E+00  0.00000000000E+00  0.18726962418E+01  0.22627176611E+01  0.12700000000E+01 0. -1.
          4   -1    0    0  501    0  0.00000000000E+00 -0.00000000000E+00 -0.18888673149E+04  0.18888677418E+04  0.12700000000E+01 0. -1.
         25    2    1    2    0    0  0.00000000000E+00  0.00000000000E+00 -0.18869946186E+04  0.18911304595E+04  0.12500289613E+03 0.  0.
    9000005    1    3    3    0    0  0.13263461055E+02  0.27716937672E+02 -0.12022905399E+03  0.12409743534E+03  0.10000000000E+01 0.  0.
    9000005    1    3    3    0    0 -0.13263461055E+02 -0.27716937672E+02 -0.17667655646E+04  0.17670330242E+04  0.10000000000E+01 0.  0.
<mgrwt>
<rscale>  0 0.12500290E+03</rscale>
<asrwt>0</asrwt>
<pdfrwt beam="2">  1        4 0.29062363E+00 0.12500290E+03</pdfrwt>
<pdfrwt beam="1">  1       -4 0.31814312E-03 0.12500290E+03</pdfrwt>
<totfact> 0.11349336E+03</totfact>
</mgrwt>
</event>
<event>
 5    1  0.3516911E-002  0.1250143E+03  0.7818608E-02  0.1235047E+00
         -4   -1    0    0    0  501 -0.00000000000E+00  0.00000000000E+00  0.14321254798E+03  0.14321817901E+03  0.12700000000E+01 0. -1.
          4   -1    0    0  501    0  0.00000000000E+00 -0.00000000000E+00 -0.27261176074E+02  0.27290742404E+02  0.12700000000E+01 0. -1.
         25    2    1    2    0    0  0.00000000000E+00  0.00000000000E+00  0.11595137190E+03  0.17050892141E+03  0.12501428572E+03 0.  0.
    9000005    1    3    3    0    0 -0.15394929533E+02  0.90798390799E+01  0.13965925810E+03  0.14080183133E+03  0.10000000000E+01 0.  0.
    9000005    1    3    3    0    0  0.15394929533E+02 -0.90798390799E+01 -0.23707886197E+02  0.29707090080E+02  0.10000000000E+01 0.  0.
<mgrwt>
<rscale>  0 0.12501429E+03</rscale>
<asrwt>0</asrwt>
<pdfrwt beam="2">  1        4 0.41967346E-02 0.12501429E+03</pdfrwt>
<pdfrwt beam="1">  1       -4 0.22035407E-01 0.12501429E+03</pdfrwt>
<totfact> 0.95323299E+03</totfact>
</mgrwt>
</event>
<event>
 5    1  0.3516911E-002  0.1250000E+03  0.7818608E-02  0.1235069E+00
         -4   -1    0    0    0  501 -0.00000000000E+00  0.00000000000E+00  0.11505178240E+03  0.11505879164E+03  0.12700000000E+01 0.  1.
          4   -1    0    0  501    0  0.00000000000E+00 -0.00000000000E+00 -0.33932165509E+02  0.33955923726E+02  0.12700000000E+01 0.  1.
         25    2    1    2    0    0  0.00000000000E+00  0.00000000000E+00  0.81119616894E+02  0.14901471537E+03  0.12499997261E+03 0.  0.
    9000005    1    3    3    0    0 -0.30473213049E+02  0.30632426324E+02  0.94380813550E+02  0.10380607026E+03  0.10000000000E+01 0.  0.
    9000005    1    3    3    0    0  0.30473213049E+02 -0.30632426324E+02 -0.13261196656E+02  0.45208645111E+02  0.10000000000E+01 0.  0.
<mgrwt>
<rscale>  0 0.12499997E+03</rscale>
<asrwt>0</asrwt>
<pdfrwt beam="2">  1        4 0.52226998E-02 0.12499997E+03</pdfrwt>
<pdfrwt beam="1">  1       -4 0.17702641E-01 0.12499997E+03</pdfrwt>
<totfact> 0.99500524E+03</totfact>
</mgrwt>
</event>
<event>
 5    1  0.3516911E-002  0.1249992E+03  0.7818608E-02  0.1235071E+00
          4   -1    0    0  501    0  0.00000000000E+00  0.00000000000E+00  0.16020021094E+03  0.16020524487E+03  0.12700000000E+01 0.  1.
         -4   -1    0    0    0  501 -0.00000000000E+00 -0.00000000000E+00 -0.24361287891E+02  0.24394369180E+02  0.12700000000E+01 0.  1.
         25    2    1    2    0    0  0.00000000000E+00  0.00000000000E+00  0.13583892305E+03  0.18459961405E+03  0.12499921797E+03 0.  0.
    9000005    1    3    3    0    0  0.53941974777E+02 -0.12643167238E+02  0.11060950088E+03  0.12371357244E+03  0.10000000000E+01 0.  0.
    9000005    1    3    3    0    0 -0.53941974777E+02  0.12643167238E+02  0.25229422171E+02  0.60886041617E+02  0.10000000000E+01 0.  0.
<mgrwt>
<rscale>  0 0.12499922E+03</rscale>
<asrwt>0</asrwt>
<pdfrwt beam="1">  1        4 0.24649119E-01 0.12499922E+03</pdfrwt>
<pdfrwt beam="2">  1       -4 0.37508223E-02 0.12499922E+03</pdfrwt>
<totfact> 0.92797174E+03</totfact>
</mgrwt>
</event>
<event>
 5    1  0.3516911E-002  0.1249697E+03  0.7818608E-02  0.1235117E+00
          4   -1    0    0  501    0  0.00000000000E+00  0.00000000000E+00  0.15996935087E+02  0.16047268682E+02  0.12700000000E+01 0.  1.
         -4   -1    0    0    0  501 -0.00000000000E+00 -0.00000000000E+00 -0.24363375162E+03  0.24363706169E+03  0.12700000000E+01 0.  1.
         25    2    1    2    0    0  0.00000000000E+00  0.00000000000E+00 -0.22763681654E+03  0.25968433037E+03  0.12496972113E+03 0.  0.
    9000005    1    3    3    0    0  0.84593505408E+01  0.61838484887E+02 -0.11962150369E+03  0.13492910350E+03  0.10000000000E+01 0.  0.
    9000005    1    3    3    0    0 -0.84593505408E+01 -0.61838484887E+02 -0.10801531284E+03  0.12475522688E+03  0.10000000000E+01 0.  0.
<mgrwt>
<rscale>  0 0.12496972E+03</rscale>
<asrwt>0</asrwt>
<pdfrwt beam="1">  1        4 0.24651936E-02 0.12496972E+03</pdfrwt>
<pdfrwt beam="2">  1       -4 0.37486239E-01 0.12496972E+03</pdfrwt>
<totfact> 0.81004968E+03</totfact>
</mgrwt>
</event>
<event>
 5    1  0.3516911E-002  0.1249992E+03  0.7818608E-02  0.1235071E+00
          4   -1    0    0  501    0  0.00000000000E+00  0.00000000000E+00  0.19570296314E+03  0.19570708388E+03  0.12700000000E+01 0. -1.
         -4   -1    0    0    0  501 -0.00000000000E+00 -0.00000000000E+00 -0.19935295478E+02  0.19975707893E+02  0.12700000000E+01 0. -1.
         25    2    1    2    0    0  0.00000000000E+00  0.00000000000E+00  0.17576766766E+03  0.21568279177E+03  0.12499917469E+03 0.  0.
    9000005    1    3    3    0    0  0.23147542262E+02  0.11243656928E+02 -0.10376855968E+02  0.27765224179E+02  0.10000000000E+01 0.  0.
    9000005    1    3    3    0    0 -0.23147542262E+02 -0.11243656928E+02  0.18614452363E+03  0.18791756759E+03  0.10000000000E+01 0.  0.
<mgrwt>
<rscale>  0 0.12499917E+03</rscale>
<asrwt>0</asrwt>
<pdfrwt beam="1">  1        4 0.30111576E-01 0.12499917E+03</pdfrwt>
<pdfrwt beam="2">  1       -4 0.30703939E-02 0.12499917E+03</pdfrwt>
<totfact> 0.87557747E+03</totfact>
</mgrwt>
</event>
<event>
 5    1  0.3516911E-002  0.1249995E+03  0.7818608E-02  0.1235070E+00
          4   -1    0    0  501    0  0.00000000000E+00  0.00000000000E+00  0.24433821536E+03  0.24434151589E+03  0.12700000000E+01 0. -1.
         -4   -1    0    0    0  501 -0.00000000000E+00 -0.00000000000E+00 -0.15958301544E+02  0.16008756609E+02  0.12700000000E+01 0. -1.
         25    2    1    2    0    0  0.00000000000E+00  0.00000000000E+00  0.22837991382E+03  0.26035027250E+03  0.12499951741E+03 0.  0.
    9000005    1    3    3    0    0  0.30867246449E+02  0.13428625996E+02  0.22385154566E+03  0.22637055770E+03  0.10000000000E+01 0.  0.
    9000005    1    3    3    0    0 -0.30867246449E+02 -0.13428625996E+02  0.45283681592E+01  0.33979714796E+02  0.10000000000E+01 0.  0.
<mgrwt>
<rscale>  0 0.12499952E+03</rscale>
<asrwt>0</asrwt>
<pdfrwt beam="1">  1        4 0.37594625E-01 0.12499952E+03</pdfrwt>
<pdfrwt beam="2">  1       -4 0.24592587E-02 0.12499952E+03</pdfrwt>
<totfact> 0.80857801E+03</totfact>
</mgrwt>
</event>
<event>
 5    1  0.3516911E-002  0.1250002E+03  0.7818608E-02  0.1235069E+00
          4   -1    0    0  501    0  0.00000000000E+00  0.00000000000E+00  0.70410475275E+02  0.70421927895E+02  0.12700000000E+01 0.  1.
         -4   -1    0    0    0  501 -0.00000000000E+00 -0.00000000000E+00 -0.55455197747E+02  0.55469738210E+02  0.12700000000E+01 0.  1.
         25    2    1    2    0    0  0.00000000000E+00  0.00000000000E+00  0.14955277528E+02  0.12589166611E+03  0.12500020508E+03 0.  0.
    9000005    1    3    3    0    0  0.59380104170E+02 -0.18169238422E+02  0.41730657016E+00  0.62107102177E+02  0.10000000000E+01 0.  0.
    9000005    1    3    3    0    0 -0.59380104170E+02  0.18169238422E+02  0.14537970958E+02  0.63784563929E+02  0.10000000000E+01 0.  0.
<mgrwt>
<rscale>  0 0.12500021E+03</rscale>
<asrwt>0</asrwt>
<pdfrwt beam="1">  1        4 0.10834380E-01 0.12500021E+03</pdfrwt>
<pdfrwt beam="2">  1       -4 0.85335683E-02 0.12500021E+03</pdfrwt>
<totfact> 0.10433284E+04</totfact>
</mgrwt>
</event>
<event>
 5    1  0.3516911E-002  0.1249959E+03  0.7818608E-02  0.1235076E+00
         -4   -1    0    0    0  501 -0.00000000000E+00  0.00000000000E+00  0.14738664143E+02  0.14793279579E+02  0.12700000000E+01 0.  1.
          4   -1    0    0  501    0  0.00000000000E+00 -0.00000000000E+00 -0.26447063717E+03  0.26447368645E+03  0.12700000000E+01 0.  1.
         25    2    1    2    0    0  0.00000000000E+00  0.00000000000E+00 -0.24973197302E+03  0.27926696603E+03  0.12499591979E+03 0.  0.
    9000005    1    3    3    0    0  0.27773159956E+02  0.37908568863E+02 -0.32839721609E+02  0.57339823182E+02  0.10000000000E+01 0.  0.
    9000005    1    3    3    0    0 -0.27773159956E+02 -0.37908568863E+02 -0.21689225141E+03  0.22192714284E+03  0.10000000000E+01 0.  0.
<mgrwt>
<rscale>  0 0.12499592E+03</rscale>
<asrwt>0</asrwt>
<pdfrwt beam="2">  1        4 0.40692223E-01 0.12499592E+03</pdfrwt>
<pdfrwt beam="1">  1       -4 0.22719227E-02 0.12499592E+03</pdfrwt>
<totfact> 0.78282502E+03</totfact>
</mgrwt>
</event>
<event>
 5    1  0.3516911E-002  0.1250012E+03  0.7818608E-02  0.1235067E+00
          4   -1    0    0  501    0  0.00000000000E+00  0.00000000000E+00  0.19455077447E+03  0.19455491961E+03  0.12700000000E+01 0. -1.
         -4   -1    0    0    0  501 -0.00000000000E+00 -0.00000000000E+00 -0.20054249019E+02  0.20094422204E+02  0.12700000000E+01 0. -1.
         25    2    1    2    0    0  0.00000000000E+00  0.00000000000E+00  0.17449652545E+03  0.21464934182E+03  0.12500121019E+03 0.  0.
    9000005    1    3    3    0    0 -0.79640743688E+01 -0.51391176108E+02  0.27742499060E+02  0.58950196916E+02  0.10000000000E+01 0.  0.
    9000005    1    3    3    0    0  0.79640743688E+01  0.51391176108E+02  0.14675402639E+03  0.15569914490E+03  0.10000000000E+01 0.  0.
<mgrwt>
<rscale>  0 0.12500121E+03</rscale>
<asrwt>0</asrwt>
<pdfrwt beam="1">  1        4 0.29934298E-01 0.12500121E+03</pdfrwt>
<pdfrwt beam="2">  1       -4 0.30886781E-02 0.12500121E+03</pdfrwt>
<totfact> 0.87719793E+03</totfact>
</mgrwt>
</event>
<event>
 5    1  0.3516911E-002  0.1249721E+03  0.7818608E-02  0.1235113E+00
         -4   -1    0    0    0  501 -0.00000000000E+00  0.00000000000E+00  0.62692541685E+02  0.62705403937E+02  0.12700000000E+01 0. -1.
          4   -1    0    0  501    0  0.00000000000E+00 -0.00000000000E+00 -0.62254559569E+02  0.62267512293E+02  0.12700000000E+01 0. -1.
         25    2    1    2    0    0  0.00000000000E+00  0.00000000000E+00  0.43798211581E+00  0.12497291623E+03  0.12497214875E+03 0.  0.
    9000005    1    3    3    0    0  0.57969769864E+02 -0.55846772633E+01 -0.22404734078E+02  0.62407170640E+02  0.10000000000E+01 0.  0.
    9000005    1    3    3    0    0 -0.57969769864E+02  0.55846772633E+01  0.22842716194E+02  0.62565745590E+02  0.10000000000E+01 0.  0.
<mgrwt>
<rscale>  0 0.12497215E+03</rscale>
<asrwt>0</asrwt>
<pdfrwt beam="2">  1        4 0.95796103E-02 0.12497215E+03</pdfrwt>
<pdfrwt beam="1">  1       -4 0.96469922E-02 0.12497215E+03</pdfrwt>
<totfact> 0.10460034E+04</totfact>
</mgrwt>
</event>
<event>
 5    1  0.3516911E-002  0.1250152E+03  0.7818608E-02  0.1235046E+00
         -4   -1    0    0    0  501 -0.00000000000E+00  0.00000000000E+00  0.19082591283E+03  0.19083013889E+03  0.12700000000E+01 0. -1.
          4   -1    0    0  501    0  0.00000000000E+00 -0.00000000000E+00 -0.20451062030E+02  0.20490457246E+02  0.12700000000E+01 0. -1.
         25    2    1    2    0    0  0.00000000000E+00  0.00000000000E+00  0.17037485080E+03  0.21132059614E+03  0.12501521733E+03 0.  0.
    9000005    1    3    3    0    0  0.62270544012E+02  0.22156473387E+01  0.76963277976E+02  0.99029671823E+02  0.10000000000E+01 0.  0.
    9000005    1    3    3    0    0 -0.62270544012E+02 -0.22156473387E+01  0.93411572828E+02  0.11229092431E+03  0.10000000000E+01 0.  0.
<mgrwt>
<rscale>  0 0.12501522E+03</rscale>
<asrwt>0</asrwt>
<pdfrwt beam="2">  1        4 0.31496727E-02 0.12501522E+03</pdfrwt>
<pdfrwt beam="1">  1       -4 0.29361189E-01 0.12501522E+03</pdfrwt>
<totfact> 0.88230646E+03</totfact>
</mgrwt>
</event>
<event>
 5    1  0.3516911E-002  0.1250028E+03  0.7818608E-02  0.1235065E+00
          4   -1    0    0  501    0  0.00000000000E+00  0.00000000000E+00  0.10324632731E+02  0.10402448800E+02  0.12700000000E+01 0. -1.
         -4   -1    0    0    0  501 -0.00000000000E+00 -0.00000000000E+00 -0.37686014839E+03  0.37686228830E+03  0.12700000000E+01 0. -1.
         25    2    1    2    0    0  0.00000000000E+00  0.00000000000E+00 -0.36653551566E+03  0.38726473710E+03  0.12500276942E+03 0.  0.
    9000005    1    3    3    0    0 -0.61490017739E+02 -0.79303345921E+01 -0.15897016170E+03  0.17063535624E+03  0.10000000000E+01 0.  0.
    9000005    1    3    3    0    0  0.61490017739E+02  0.79303345921E+01 -0.20756535396E+03  0.21662938086E+03  0.10000000000E+01 0.  0.
<mgrwt>
<rscale>  0 0.12500277E+03</rscale>
<asrwt>0</asrwt>
<pdfrwt beam="1">  1        4 0.15945558E-02 0.12500277E+03</pdfrwt>
<pdfrwt beam="2">  1       -4 0.57984624E-01 0.12500277E+03</pdfrwt>
<totfact> 0.65806522E+03</totfact>
</mgrwt>
</event>
<event>
 5    1  0.3516911E-002  0.1249997E+03  0.7818608E-02  0.1235070E+00
         -4   -1    0    0    0  501 -0.00000000000E+00  0.00000000000E+00  0.10123090850E+02  0.10202444234E+02  0.12700000000E+01 0.  1.
          4   -1    0    0  501    0  0.00000000000E+00 -0.00000000000E+00 -0.38428637699E+03  0.38428847555E+03  0.12700000000E+01 0.  1.
         25    2    1    2    0    0  0.00000000000E+00  0.00000000000E+00 -0.37416328614E+03  0.39449091978E+03  0.12499968438E+03 0.  0.
    9000005    1    3    3    0    0 -0.47525170668E+02 -0.12635182425E+02 -0.65386035424E+02  0.81820677768E+02  0.10000000000E+01 0.  0.
    9000005    1    3    3    0    0  0.47525170668E+02  0.12635182425E+02 -0.30877725071E+03  0.31267024201E+03  0.10000000000E+01 0.  0.
<mgrwt>
<rscale>  0 0.12499968E+03</rscale>
<asrwt>0</asrwt>
<pdfrwt beam="2">  1        4 0.59127235E-01 0.12499968E+03</pdfrwt>
<pdfrwt beam="1">  1       -4 0.15636644E-02 0.12499968E+03</pdfrwt>
<totfact> 0.65092604E+03</totfact>
</mgrwt>
</event>
<event>
 5    1  0.3516911E-002  0.1250004E+03  0.7818608E-02  0.1235069E+00
         -4   -1    0    0    0  501 -0.00000000000E+00  0.00000000000E+00  0.22799452944E+03  0.22799806656E+03  0.12700000000E+01 0.  1.
          4   -1    0    0  501    0  0.00000000000E+00 -0.00000000000E+00 -0.17105992146E+02  0.17153071658E+02  0.12700000000E+01 0.  1.
         25    2    1    2    0    0  0.00000000000E+00  0.00000000000E+00  0.21088853729E+03  0.24515113822E+03  0.12500042163E+03 0.  0.
    9000005    1    3    3    0    0 -0.13367994823E+02 -0.58921522295E+02  0.74136984675E+02  0.95643826627E+02  0.10000000000E+01 0.  0.
    9000005    1    3    3    0    0  0.13367994823E+02  0.58921522295E+02  0.13675155262E+03  0.14950731159E+03  0.10000000000E+01 0.  0.
<mgrwt>
<rscale>  0 0.12500042E+03</rscale>
<asrwt>0</asrwt>
<pdfrwt beam="2">  1        4 0.26355848E-02 0.12500042E+03</pdfrwt>
<pdfrwt beam="1">  1       -4 0.35079974E-01 0.12500042E+03</pdfrwt>
<totfact> 0.83035349E+03</totfact>
</mgrwt>
</event>
<event>
 5    1  0.3516911E-002  0.1250030E+03  0.7818608E-02  0.1235065E+00
         -4   -1    0    0    0  501 -0.00000000000E+00  0.00000000000E+00  0.51742655506E+02  0.51758238946E+02  0.12700000000E+01 0.  1.
          4   -1    0    0  501    0  0.00000000000E+00 -0.00000000000E+00 -0.75465157681E+02  0.75475843314E+02  0.12700000000E+01 0.  1.
         25    2    1    2    0    0  0.00000000000E+00  0.00000000000E+00 -0.23722502175E+02  0.12723408226E+03  0.12500301828E+03 0.  0.
    9000005    1    3    3    0    0 -0.19113946077E+02  0.58820111217E+02 -0.27408423105E+01  0.61916561878E+02  0.10000000000E+01 0.  0.
    9000005    1    3    3    0    0  0.19113946077E+02 -0.58820111217E+02 -0.20981659865E+02  0.65317520382E+02  0.10000000000E+01 0.  0.
<mgrwt>
<rscale>  0 0.12500302E+03</rscale>
<asrwt>0</asrwt>
<pdfrwt beam="2">  1        4 0.11612045E-01 0.12500302E+03</pdfrwt>
<pdfrwt beam="1">  1       -4 0.79624293E-02 0.12500302E+03</pdfrwt>
<totfact> 0.10403355E+04</totfact>
</mgrwt>
</event>
<event>
 5    1  0.3516911E-002  0.1249995E+03  0.7818608E-02  0.1235070E+00
          4   -1    0    0  501    0  0.00000000000E+00  0.00000000000E+00  0.35611815500E+03  0.35612041955E+03  0.12700000000E+01 0.  1.
         -4   -1    0    0    0  501 -0.00000000000E+00 -0.00000000000E+00 -0.10929817137E+02  0.11003354154E+02  0.12700000000E+01 0.  1.
         25    2    1    2    0    0  0.00000000000E+00  0.00000000000E+00  0.34518833786E+03  0.36712377370E+03  0.12499950649E+03 0.  0.
    9000005    1    3    3    0    0  0.17079746057E+02  0.56329987252E+02  0.11095672610E+03  0.12560724603E+03  0.10000000000E+01 0.  0.
    9000005    1    3    3    0    0 -0.17079746057E+02 -0.56329987252E+02  0.23423161176E+03  0.24151652767E+03  0.10000000000E+01 0.  0.
<mgrwt>
<rscale>  0 0.12499951E+03</rscale>
<asrwt>0</asrwt>
<pdfrwt beam="1">  1        4 0.54793231E-01 0.12499951E+03</pdfrwt>
<pdfrwt beam="2">  1       -4 0.16873415E-02 0.12499951E+03</pdfrwt>
<totfact> 0.67881666E+03</totfact>
</mgrwt>
</event>
<event>
 5    1  0.3516911E-002  0.1249981E+03  0.7818608E-02  0.1235072E+00
         -4   -1    0    0    0  501 -0.00000000000E+00  0.00000000000E+00  0.64705022311E+02  0.64717484594E+02  0.12700000000E+01 0.  1.
          4   -1    0    0  501    0  0.00000000000E+00 -0.00000000000E+00 -0.60343352139E+02  0.60356715014E+02  0.12700000000E+01 0.  1.
         25    2    1    2    0    0  0.00000000000E+00  0.00000000000E+00  0.43616701722E+01  0.12507419961E+03  0.12499812495E+03 0.  0.
    9000005    1    3    3    0    0 -0.21041339669E+02 -0.53838723394E+02 -0.21577808724E+02  0.61708572671E+02  0.10000000000E+01 0.  0.
    9000005    1    3    3    0    0  0.21041339669E+02  0.53838723394E+02  0.25939478896E+02  0.63365626938E+02  0.10000000000E+01 0.  0.
<mgrwt>
<rscale>  0 0.12499812E+03</rscale>
<asrwt>0</asrwt>
<pdfrwt beam="2">  1        4 0.92855792E-02 0.12499812E+03</pdfrwt>
<pdfrwt beam="1">  1       -4 0.99566053E-02 0.12499812E+03</pdfrwt>
<totfact> 0.10451694E+04</totfact>
</mgrwt>
</event>
<event>
 5    1  0.3516911E-002  0.1250028E+03  0.7818608E-02  0.1235065E+00
          4   -1    0    0  501    0  0.00000000000E+00  0.00000000000E+00  0.92699800625E+03  0.92699887621E+03  0.12700000000E+01 0.  1.
         -4   -1    0    0    0  501 -0.00000000000E+00 -0.00000000000E+00 -0.41174789143E+01  0.43088899510E+01  0.12700000000E+01 0.  1.
         25    2    1    2    0    0  0.00000000000E+00  0.00000000000E+00  0.92288052733E+03  0.93130776616E+03  0.12500275026E+03 0.  0.
    9000005    1    3    3    0    0 -0.51682041924E+02 -0.20468343342E+02  0.67418970356E+03  0.67647819101E+03  0.10000000000E+01 0.  0.
    9000005    1    3    3    0    0  0.51682041924E+02  0.20468343342E+02  0.24869082378E+03  0.25482957514E+03  0.10000000000E+01 0.  0.
<mgrwt>
<rscale>  0 0.12500275E+03</rscale>
<asrwt>0</asrwt>
<pdfrwt beam="1">  1        4 0.14262982E+00 0.12500275E+03</pdfrwt>
<pdfrwt beam="2">  1       -4 0.64824935E-03 0.12500275E+03</pdfrwt>
<totfact> 0.32987085E+03</totfact>
</mgrwt>
</event>
<event>
 5    1  0.3516911E-002  0.1249931E+03  0.7818608E-02  0.1235080E+00
         -4   -1    0    0    0  501 -0.00000000000E+00  0.00000000000E+00  0.12314890398E+03  0.12315545238E+03  0.12700000000E+01 0. -1.
          4   -1    0    0  501    0  0.00000000000E+00 -0.00000000000E+00 -0.31696134970E+02  0.31721567932E+02  0.12700000000E+01 0. -1.
         25    2    1    2    0    0  0.00000000000E+00  0.00000000000E+00  0.91452769011E+02  0.15487702031E+03  0.12499312966E+03 0.  0.
    9000005    1    3    3    0    0 -0.61484696199E+02 -0.10805819404E+02  0.42290965386E+02  0.75409942003E+02  0.10000000000E+01 0.  0.
    9000005    1    3    3    0    0  0.61484696199E+02  0.10805819404E+02  0.49161803625E+02  0.79467078312E+02  0.10000000000E+01 0.  0.
<mgrwt>
<rscale>  0 0.12499313E+03</rscale>
<asrwt>0</asrwt>
<pdfrwt beam="2">  1        4 0.48787885E-02 0.12499313E+03</pdfrwt>
<pdfrwt beam="1">  1       -4 0.18948446E-01 0.12499313E+03</pdfrwt>
<totfact> 0.98354843E+03</totfact>
</mgrwt>
</event>
<event>
 5    1  0.3516911E-002  0.1250152E+03  0.7818608E-02  0.1235046E+00
         -4   -1    0    0    0  501 -0.00000000000E+00  0.00000000000E+00  0.95170646904E+03  0.95170731641E+03  0.12700000000E+01 0. -1.
          4   -1    0    0  501    0  0.00000000000E+00 -0.00000000000E+00 -0.40063818742E+01  0.42028556628E+01  0.12700000000E+01 0. -1.
         25    2    1    2    0    0  0.00000000000E+00  0.00000000000E+00  0.94770008716E+03  0.95591017207E+03  0.12501520652E+03 0.  0.
    9000005    1    3    3    0    0  0.37686948881E+02 -0.36306577027E+02  0.73514129378E+03  0.73700216789E+03  0.10000000000E+01 0.  0.
    9000005    1    3    3    0    0 -0.37686948881E+02  0.36306577027E+02  0.21255879338E+03  0.21890800419E+03  0.10000000000E+01 0.  0.
<mgrwt>
<rscale>  0 0.12501521E+03</rscale>
<asrwt>0</asrwt>
<pdfrwt beam="2">  1        4 0.63154528E-03 0.12501521E+03</pdfrwt>
<pdfrwt beam="1">  1       -4 0.14643149E+00 0.12501521E+03</pdfrwt>
<totfact> 0.32096424E+03</totfact>
</mgrwt>
</event>
<event>
 5    1  0.3516911E-002  0.1250007E+03  0.7818608E-02  0.1235068E+00
         -4   -1    0    0    0  501 -0.00000000000E+00  0.00000000000E+00  0.13319857672E+03  0.13320463108E+03  0.12700000000E+01 0.  1.
          4   -1    0    0  501    0  0.00000000000E+00 -0.00000000000E+00 -0.29306356575E+02  0.29333861588E+02  0.12700000000E+01 0.  1.
         25    2    1    2    0    0  0.00000000000E+00  0.00000000000E+00  0.10389222015E+03  0.16253849267E+03  0.12500067276E+03 0.  0.
    9000005    1    3    3    0    0  0.36927768094E+02 -0.44998623041E+02  0.22387323205E+02  0.62375703381E+02  0.10000000000E+01 0.  0.
    9000005    1    3    3    0    0 -0.36927768094E+02  0.44998623041E+02  0.81504896942E+02  0.10016278929E+03  0.10000000000E+01 0.  0.
<mgrwt>
<rscale>  0 0.12500067E+03</rscale>
<asrwt>0</asrwt>
<pdfrwt beam="2">  1        4 0.45112517E-02 0.12500067E+03</pdfrwt>
<pdfrwt beam="1">  1       -4 0.20494670E-01 0.12500067E+03</pdfrwt>
<totfact> 0.96854140E+03</totfact>
</mgrwt>
</event>
<event>
 5    1  0.3516911E-002  0.1249969E+03  0.7818608E-02  0.1235074E+00
         -4   -1    0    0    0  501 -0.00000000000E+00  0.00000000000E+00  0.14909860973E+03  0.14910401847E+03  0.12700000000E+01 0.  1.
          4   -1    0    0  501    0  0.00000000000E+00 -0.00000000000E+00 -0.26176516963E+02  0.26207307002E+02  0.12700000000E+01 0.  1.
         25    2    1    2    0    0  0.00000000000E+00  0.00000000000E+00  0.12292209276E+03  0.17531132547E+03  0.12499687975E+03 0.  0.
    9000005    1    3    3    0    0 -0.84876382062E+01  0.60023638609E+02  0.82739619984E+02  0.10257544496E+03  0.10000000000E+01 0.  0.
    9000005    1    3    3    0    0  0.84876382062E+01 -0.60023638609E+02  0.40182472781E+02  0.72735880506E+02  0.10000000000E+01 0.  0.
<mgrwt>
<rscale>  0 0.12499688E+03</rscale>
<asrwt>0</asrwt>
<pdfrwt beam="2">  1        4 0.40299410E-02 0.12499688E+03</pdfrwt>
<pdfrwt beam="1">  1       -4 0.22941032E-01 0.12499688E+03</pdfrwt>
<totfact> 0.94474465E+03</totfact>
</mgrwt>
</event>
<event>
 5    1  0.3516911E-002  0.1250023E+03  0.7818608E-02  0.1235066E+00
         -4   -1    0    0    0  501 -0.00000000000E+00  0.00000000000E+00  0.43527160306E+03  0.43527345581E+03  0.12700000000E+01 0.  1.
          4   -1    0    0  501    0  0.00000000000E+00 -0.00000000000E+00 -0.89277968497E+01  0.90176746775E+01  0.12700000000E+01 0.  1.
         25    2    1    2    0    0  0.00000000000E+00  0.00000000000E+00  0.42634380621E+03  0.44429113048E+03  0.12500227011E+03 0.  0.
    9000005    1    3    3    0    0  0.25508626464E+02 -0.19519843027E+02  0.40370427050E+03  0.40498129872E+03  0.10000000000E+01 0.  0.
    9000005    1    3    3    0    0 -0.25508626464E+02  0.19519843027E+02  0.22639535708E+02  0.39309831759E+02  0.10000000000E+01 0.  0.
<mgrwt>
<rscale>  0 0.12500227E+03</rscale>
<asrwt>0</asrwt>
<pdfrwt beam="2">  1        4 0.13805634E-02 0.12500227E+03</pdfrwt>
<pdfrwt beam="1">  1       -4 0.66971919E-01 0.12500227E+03</pdfrwt>
<totfact> 0.60458538E+03</totfact>
</mgrwt>
</event>
<event>
 5    1  0.3516911E-002  0.1249990E+03  0.7818608E-02  0.1235071E+00
         -4   -1    0    0    0  501 -0.00000000000E+00  0.00000000000E+00  0.91272709375E+01  0.92152034577E+01  0.12700000000E+01 0.  1.
          4   -1    0    0  501    0  0.00000000000E+00 -0.00000000000E+00 -0.42582821510E+03  0.42583010893E+03  0.12700000000E+01 0.  1.
         25    2    1    2    0    0  0.00000000000E+00  0.00000000000E+00 -0.41670094416E+03  0.43504531239E+03  0.12499898787E+03 0.  0.
    9000005    1    3    3    0    0  0.17422529125E+02 -0.20117091388E+02 -0.40513709352E+03  0.40601146096E+03  0.10000000000E+01 0.  0.
    9000005    1    3    3    0    0 -0.17422529125E+02  0.20117091388E+02 -0.11563850639E+02  0.29033851426E+02  0.10000000000E+01 0.  0.
<mgrwt>
<rscale>  0 0.12499899E+03</rscale>
<asrwt>0</asrwt>
<pdfrwt beam="2">  1        4 0.65518927E-01 0.12499899E+03</pdfrwt>
<pdfrwt beam="1">  1       -4 0.14111056E-02 0.12499899E+03</pdfrwt>
<totfact> 0.61282687E+03</totfact>
</mgrwt>
</event>
<event>
 5    1  0.3516911E-002  0.1250024E+03  0.7818608E-02  0.1235066E+00
         -4   -1    0    0    0  501 -0.00000000000E+00  0.00000000000E+00  0.24957559099E+03  0.24957882225E+03  0.12700000000E+01 0. -1.
          4   -1    0    0  501    0  0.00000000000E+00 -0.00000000000E+00 -0.15623061269E+02  0.15674595478E+02  0.12700000000E+01 0. -1.
         25    2    1    2    0    0  0.00000000000E+00  0.00000000000E+00  0.23395252972E+03  0.26525341773E+03  0.12500235780E+03 0.  0.
    9000005    1    3    3    0    0 -0.36119685341E+02 -0.25328738636E+02  0.21090196980E+03  0.21546883194E+03  0.10000000000E+01 0.  0.
    9000005    1    3    3    0    0  0.36119685341E+02  0.25328738636E+02  0.23050559915E+02  0.49784585791E+02  0.10000000000E+01 0.  0.
<mgrwt>
<rscale>  0 0.12500236E+03</rscale>
<asrwt>0</asrwt>
<pdfrwt beam="2">  1        4 0.24077606E-02 0.12500236E+03</pdfrwt>
<pdfrwt beam="1">  1       -4 0.38400458E-01 0.12500236E+03</pdfrwt>
<totfact> 0.80170217E+03</totfact>
</mgrwt>
</event>
<event>
 5    1  0.3516911E-002  0.1250047E+03  0.7818608E-02  0.1235062E+00
          4   -1    0    0  501    0  0.00000000000E+00  0.00000000000E+00  0.27789940452E+02  0.27818944810E+02  0.12700000000E+01 0.  1.
         -4   -1    0    0    0  501 -0.00000000000E+00 -0.00000000000E+00 -0.14046892389E+03  0.14047466490E+03  0.12700000000E+01 0.  1.
         25    2    1    2    0    0  0.00000000000E+00  0.00000000000E+00 -0.11267898344E+03  0.16829360971E+03  0.12500474295E+03 0.  0.
    9000005    1    3    3    0    0  0.44859004471E+02 -0.12385475670E+01  0.22156744936E+01  0.44941890210E+02  0.10000000000E+01 0.  0.
    9000005    1    3    3    0    0 -0.44859004471E+02  0.12385475670E+01 -0.11489465793E+03  0.12335171950E+03  0.10000000000E+01 0.  0.
<mgrwt>
<rscale>  0 0.12500474E+03</rscale>
<asrwt>0</asrwt>
<pdfrwt beam="1">  1        4 0.42780482E-02 0.12500474E+03</pdfrwt>
<pdfrwt beam="2">  1       -4 0.21613276E-01 0.12500474E+03</pdfrwt>
<totfact> 0.95757046E+03</totfact>
</mgrwt>
</event>
<event>
 5    1  0.3516911E-002  0.1249841E+03  0.7818608E-02  0.1235094E+00
          4   -1    0    0  501    0  0.00000000000E+00  0.00000000000E+00  0.30723509273E+02  0.30749746699E+02  0.12700000000E+01 0.  1.
         -4   -1    0    0    0  501 -0.00000000000E+00 -0.00000000000E+00 -0.12702595442E+03  0.12703230297E+03  0.12700000000E+01 0.  1.
         25    2    1    2    0    0  0.00000000000E+00  0.00000000000E+00 -0.96302445148E+02  0.15778204966E+03  0.12498405600E+03 0.  0.
    9000005    1    3    3    0    0 -0.28612809735E+02 -0.12089154816E+02  0.20292446966E+02  0.37116356892E+02  0.10000000000E+01 0.  0.
    9000005    1    3    3    0    0  0.28612809735E+02  0.12089154816E+02 -0.11659489211E+03  0.12066569277E+03  0.10000000000E+01 0.  0.
<mgrwt>
<rscale>  0 0.12498406E+03</rscale>
<asrwt>0</asrwt>
<pdfrwt beam="1">  1        4 0.47292004E-02 0.12498406E+03</pdfrwt>
<pdfrwt beam="2">  1       -4 0.19544961E-01 0.12498406E+03</pdfrwt>
<totfact> 0.97807156E+03</totfact>
</mgrwt>
</event>
<event>
 5    1  0.3516911E-002  0.1250013E+03  0.7818608E-02  0.1235067E+00
         -4   -1    0    0    0  501 -0.00000000000E+00  0.00000000000E+00  0.57814718895E+01  0.59193172925E+01  0.12700000000E+01 0.  1.
          4   -1    0    0  501    0  0.00000000000E+00 -0.00000000000E+00 -0.66756542085E+03  0.66756662889E+03  0.12700000000E+01 0.  1.
         25    2    1    2    0    0  0.00000000000E+00  0.00000000000E+00 -0.66178394896E+03  0.67348594619E+03  0.12500129844E+03 0.  0.
    9000005    1    3    3    0    0 -0.83270822759E+01 -0.35222314211E+02 -0.60537433689E+03  0.60645613154E+03  0.10000000000E+01 0.  0.
    9000005    1    3    3    0    0  0.83270822759E+01  0.35222314211E+02 -0.56409612064E+02  0.67029814642E+02  0.10000000000E+01 0.  0.
<mgrwt>
<rscale>  0 0.12500130E+03</rscale>
<asrwt>0</asrwt>
<pdfrwt beam="2">  1        4 0.10271301E+00 0.12500130E+03</pdfrwt>
<pdfrwt beam="1">  1       -4 0.90015416E-03 0.12500130E+03</pdfrwt>
<totfact> 0.44522531E+03</totfact>
</mgrwt>
</event>
<event>
 5    1  0.3516911E-002  0.1250045E+03  0.7818608E-02  0.1235062E+00
         -4   -1    0    0    0  501 -0.00000000000E+00  0.00000000000E+00  0.20818421199E+01  0.24386403204E+01  0.12700000000E+01 0. -1.
          4   -1    0    0  501    0  0.00000000000E+00 -0.00000000000E+00 -0.17280112075E+04  0.17280116742E+04  0.12700000000E+01 0. -1.
         25    2    1    2    0    0  0.00000000000E+00  0.00000000000E+00 -0.17259293654E+04  0.17304503145E+04  0.12500446679E+03 0.  0.
    9000005    1    3    3    0    0 -0.86642630881E+01 -0.38670683673E+02 -0.15318945290E+04  0.15324073672E+04  0.10000000000E+01 0.  0.
    9000005    1    3    3    0    0  0.86642630881E+01  0.38670683673E+02 -0.19403483640E+03  0.19804294728E+03  0.10000000000E+01 0.  0.
<mgrwt>
<rscale>  0 0.12500447E+03</rscale>
<asrwt>0</asrwt>
<pdfrwt beam="2">  1        4 0.26587430E+00 0.12500447E+03</pdfrwt>
<pdfrwt beam="1">  1       -4 0.34776670E-03 0.12500447E+03</pdfrwt>
<totfact> 0.13804773E+03</totfact>
</mgrwt>
</event>
<event>
 5    1  0.3516911E-002  0.1249994E+03  0.7818608E-02  0.1235070E+00
         -4   -1    0    0    0  501 -0.00000000000E+00  0.00000000000E+00  0.15768628219E+03  0.15769139638E+03  0.12700000000E+01 0. -1.
          4   -1    0    0  501    0  0.00000000000E+00 -0.00000000000E+00 -0.24750269830E+02  0.24782831894E+02  0.12700000000E+01 0. -1.
         25    2    1    2    0    0  0.00000000000E+00  0.00000000000E+00  0.13293601236E+03  0.18247422827E+03  0.12499944240E+03 0.  0.
    9000005    1    3    3    0    0 -0.25556853637E+02  0.28257170635E+02 -0.58414127194E+01  0.38558300827E+02  0.10000000000E+01 0.  0.
    9000005    1    3    3    0    0  0.25556853637E+02 -0.28257170635E+02  0.13877742508E+03  0.14391592745E+03  0.10000000000E+01 0.  0.
<mgrwt>
<rscale>  0 0.12499944E+03</rscale>
<asrwt>0</asrwt>
<pdfrwt beam="2">  1        4 0.38106319E-02 0.12499944E+03</pdfrwt>
<pdfrwt beam="1">  1       -4 0.24262326E-01 0.12499944E+03</pdfrwt>
<totfact> 0.93174685E+03</totfact>
</mgrwt>
</event>
<event>
 5    1  0.3516911E-002  0.1249985E+03  0.7818608E-02  0.1235072E+00
         -4   -1    0    0    0  501 -0.00000000000E+00  0.00000000000E+00  0.58159547936E+02  0.58173412450E+02  0.12700000000E+01 0.  1.
          4   -1    0    0  501    0  0.00000000000E+00 -0.00000000000E+00 -0.67134874452E+02  0.67146885763E+02  0.12700000000E+01 0.  1.
         25    2    1    2    0    0  0.00000000000E+00  0.00000000000E+00 -0.89753265156E+01  0.12532029821E+03  0.12499848262E+03 0.  0.
    9000005    1    3    3    0    0  0.20023584310E+02 -0.58816360380E+02 -0.11201693861E+02  0.63141001911E+02  0.10000000000E+01 0.  0.
    9000005    1    3    3    0    0 -0.20023584310E+02  0.58816360380E+02  0.22263673459E+01  0.62179296302E+02  0.10000000000E+01 0.  0.
<mgrwt>
<rscale>  0 0.12499848E+03</rscale>
<asrwt>0</asrwt>
<pdfrwt beam="2">  1        4 0.10330433E-01 0.12499848E+03</pdfrwt>
<pdfrwt beam="1">  1       -4 0.89496132E-02 0.12499848E+03</pdfrwt>
<totfact> 0.10446268E+04</totfact>
</mgrwt>
</event>
<event>
 5    1  0.3516911E-002  0.1249972E+03  0.7818608E-02  0.1235074E+00
          4   -1    0    0  501    0  0.00000000000E+00  0.00000000000E+00  0.49516957110E+01  0.51119654160E+01  0.12700000000E+01 0.  1.
         -4   -1    0    0    0  501 -0.00000000000E+00 -0.00000000000E+00 -0.77611268173E+03  0.77611372082E+03  0.12700000000E+01 0.  1.
         25    2    1    2    0    0  0.00000000000E+00  0.00000000000E+00 -0.77116098602E+03  0.78122568624E+03  0.12499722587E+03 0.  0.
    9000005    1    3    3    0    0 -0.36164264670E+00  0.25854650953E+01  0.46413785006E+01  0.54182847423E+01  0.10000000000E+01 0.  0.
    9000005    1    3    3    0    0  0.36164264670E+00 -0.25854650953E+01 -0.77580236452E+03  0.77580740150E+03  0.10000000000E+01 0.  0.
<mgrwt>
<rscale>  0 0.12499723E+03</rscale>
<asrwt>0</asrwt>
<pdfrwt beam="1">  1        4 0.77420832E-03 0.12499723E+03</pdfrwt>
<pdfrwt beam="2">  1       -4 0.11941426E+00 0.12499723E+03</pdfrwt>
<totfact> 0.39119123E+03</totfact>
</mgrwt>
</event>
<event>
 5    1  0.3516911E-002  0.1249986E+03  0.7818608E-02  0.1235071E+00
         -4   -1    0    0    0  501 -0.00000000000E+00  0.00000000000E+00  0.19653369227E+02  0.19694360156E+02  0.12700000000E+01 0. -1.
          4   -1    0    0  501    0  0.00000000000E+00 -0.00000000000E+00 -0.19850276487E+03  0.19850682749E+03  0.12700000000E+01 0. -1.
         25    2    1    2    0    0  0.00000000000E+00  0.00000000000E+00 -0.17884939564E+03  0.21820118765E+03  0.12499860787E+03 0.  0.
    9000005    1    3    3    0    0  0.29891025527E+02 -0.50633090950E+02 -0.12637186064E+03  0.13938446996E+03  0.10000000000E+01 0.  0.
    9000005    1    3    3    0    0 -0.29891025527E+02  0.50633090950E+02 -0.52477535004E+02  0.78816717683E+02  0.10000000000E+01 0.  0.
<mgrwt>
<rscale>  0 0.12499861E+03</rscale>
<asrwt>0</asrwt>
<pdfrwt beam="2">  1        4 0.30542351E-01 0.12499861E+03</pdfrwt>
<pdfrwt beam="1">  1       -4 0.30270611E-02 0.12499861E+03</pdfrwt>
<totfact> 0.87156502E+03</totfact>
</mgrwt>
</event>
<event>
 5    1  0.3516911E-002  0.1250031E+03  0.7818608E-02  0.1235064E+00
         -4   -1    0    0    0  501 -0.00000000000E+00  0.00000000000E+00  0.50773508205E+01  0.52337741023E+01  0.12700000000E+01 0. -1.
          4   -1    0    0  501    0  0.00000000000E+00 -0.00000000000E+00 -0.75755793864E+03  0.75755900318E+03  0.12700000000E+01 0. -1.
         25    2    1    2    0    0  0.00000000000E+00  0.00000000000E+00 -0.75248058782E+03  0.76279277728E+03  0.12500314407E+03 0.  0.
    9000005    1    3    3    0    0 -0.28305557845E+00  0.53158277276E+02 -0.17574239718E+03  0.18360902137E+03  0.10000000000E+01 0.  0.
    9000005    1    3    3    0    0  0.28305557845E+00 -0.53158277276E+02 -0.57673819064E+03  0.57918375591E+03  0.10000000000E+01 0.  0.
<mgrwt>
<rscale>  0 0.12500314E+03</rscale>
<asrwt>0</asrwt>
<pdfrwt beam="2">  1        4 0.11655940E+00 0.12500314E+03</pdfrwt>
<pdfrwt beam="1">  1       -4 0.79324594E-03 0.12500314E+03</pdfrwt>
<totfact> 0.39966886E+03</totfact>
</mgrwt>
</event>
<event>
 5    1  0.3516911E-002  0.1249987E+03  0.7818608E-02  0.1235071E+00
         -4   -1    0    0    0  501 -0.00000000000E+00  0.00000000000E+00  0.14330738288E+02  0.14386902372E+02  0.12700000000E+01 0. -1.
          4   -1    0    0  501    0  0.00000000000E+00 -0.00000000000E+00 -0.27198214926E+03  0.27198511433E+03  0.12700000000E+01 0. -1.
         25    2    1    2    0    0  0.00000000000E+00  0.00000000000E+00 -0.25765141097E+03  0.28637201670E+03  0.12499872949E+03 0.  0.
    9000005    1    3    3    0    0  0.33877934311E+01 -0.55673885442E+02 -0.19338604998E+03  0.20127151559E+03  0.10000000000E+01 0.  0.
    9000005    1    3    3    0    0 -0.33877934311E+01  0.55673885442E+02 -0.64265360998E+02  0.85100501107E+02  0.10000000000E+01 0.  0.
<mgrwt>
<rscale>  0 0.12499873E+03</rscale>
<asrwt>0</asrwt>
<pdfrwt beam="2">  1        4 0.41847952E-01 0.12499873E+03</pdfrwt>
<pdfrwt beam="1">  1       -4 0.22092776E-02 0.12499873E+03</pdfrwt>
<totfact> 0.77342923E+03</totfact>
</mgrwt>
</event>
<event>
 5    1  0.3516911E-002  0.1249999E+03  0.7818608E-02  0.1235069E+00
          4   -1    0    0  501    0  0.00000000000E+00  0.00000000000E+00  0.22070873922E+03  0.22071239310E+03  0.12700000000E+01 0.  1.
         -4   -1    0    0    0  501 -0.00000000000E+00 -0.00000000000E+00 -0.17672044422E+02  0.17717619876E+02  0.12700000000E+01 0.  1.
         25    2    1    2    0    0  0.00000000000E+00  0.00000000000E+00  0.20303669480E+03  0.23843001298E+03  0.12499988661E+03 0.  0.
    9000005    1    3    3    0    0  0.59988935182E+02  0.38772325365E+01  0.13408691198E+03  0.14694898856E+03  0.10000000000E+01 0.  0.
    9000005    1    3    3    0    0 -0.59988935182E+02 -0.38772325365E+01  0.68949782823E+02  0.91481024414E+02  0.10000000000E+01 0.  0.
<mgrwt>
<rscale>  0 0.12499989E+03</rscale>
<asrwt>0</asrwt>
<pdfrwt beam="1">  1        4 0.33958976E-01 0.12499989E+03</pdfrwt>
<pdfrwt beam="2">  1       -4 0.27225631E-02 0.12499989E+03</pdfrwt>
<totfact> 0.84031959E+03</totfact>
</mgrwt>
</event>
<event>
 5    1  0.3516911E-002  0.1250003E+03  0.7818608E-02  0.1235069E+00
          4   -1    0    0  501    0  0.00000000000E+00  0.00000000000E+00  0.47980305142E+02  0.47997110137E+02  0.12700000000E+01 0.  1.
         -4   -1    0    0    0  501 -0.00000000000E+00 -0.00000000000E+00 -0.81377951932E+02  0.81387861261E+02  0.12700000000E+01 0.  1.
         25    2    1    2    0    0  0.00000000000E+00  0.00000000000E+00 -0.33397646790E+02  0.12938497140E+03  0.12500027205E+03 0.  0.
    9000005    1    3    3    0    0 -0.17568621808E+02  0.58089128869E+02 -0.12673609799E+01  0.60709221448E+02  0.10000000000E+01 0.  0.
    9000005    1    3    3    0    0  0.17568621808E+02 -0.58089128869E+02 -0.32130285810E+02  0.68675749950E+02  0.10000000000E+01 0.  0.
<mgrwt>
<rscale>  0 0.12500027E+03</rscale>
<asrwt>0</asrwt>
<pdfrwt beam="1">  1        4 0.73836404E-02 0.12500027E+03</pdfrwt>
<pdfrwt beam="2">  1       -4 0.12521740E-01 0.12500027E+03</pdfrwt>
<totfact> 0.10357618E+04</totfact>
</mgrwt>
</event>
<event>
 5    1  0.3516911E-002  0.1250026E+03  0.7818608E-02  0.1235065E+00
          4   -1    0    0  501    0  0.00000000000E+00  0.00000000000E+00  0.11050141027E+04  0.11050148325E+04  0.12700000000E+01 0.  1.
         -4   -1    0    0    0  501 -0.00000000000E+00 -0.00000000000E+00 -0.34203520691E+01  0.36485213823E+01  0.12700000000E+01 0.  1.
         25    2    1    2    0    0  0.00000000000E+00  0.00000000000E+00  0.11015937506E+04  0.11086633539E+04  0.12500256331E+03 0.  0.
    9000005    1    3    3    0    0  0.30711904598E+02  0.24735654546E+02  0.98077444229E+03  0.98156740998E+03  0.10000000000E+01 0.  0.
    9000005    1    3    3    0    0 -0.30711904598E+02 -0.24735654546E+02  0.12081930831E+03  0.12709594387E+03  0.10000000000E+01 0.  0.
<mgrwt>
<rscale>  0 0.12500256E+03</rscale>
<asrwt>0</asrwt>
<pdfrwt beam="1">  1        4 0.17001998E+00 0.12500256E+03</pdfrwt>
<pdfrwt beam="2">  1       -4 0.54381500E-03 0.12500256E+03</pdfrwt>
<totfact> 0.27229657E+03</totfact>
</mgrwt>
</event>
<event>
 5    1  0.3516911E-002  0.1249956E+03  0.7818608E-02  0.1235076E+00
         -4   -1    0    0    0  501 -0.00000000000E+00  0.00000000000E+00  0.17070719982E+02  0.17117896504E+02  0.12700000000E+01 0. -1.
          4   -1    0    0  501    0  0.00000000000E+00 -0.00000000000E+00 -0.22844673765E+03  0.22845026777E+03  0.12700000000E+01 0. -1.
         25    2    1    2    0    0  0.00000000000E+00  0.00000000000E+00 -0.21137601767E+03  0.24556816427E+03  0.12499560976E+03 0.  0.
    9000005    1    3    3    0    0  0.19962249581E+02  0.52479896228E+02 -0.15957522354E+03  0.16916820885E+03  0.10000000000E+01 0.  0.
    9000005    1    3    3    0    0 -0.19962249581E+02 -0.52479896228E+02 -0.51800794123E+02  0.76399955420E+02  0.10000000000E+01 0.  0.
<mgrwt>
<rscale>  0 0.12499561E+03</rscale>
<asrwt>0</asrwt>
<pdfrwt beam="2">  1        4 0.35149550E-01 0.12499561E+03</pdfrwt>
<pdfrwt beam="1">  1       -4 0.26301653E-02 0.12499561E+03</pdfrwt>
<totfact> 0.82983134E+03</totfact>
</mgrwt>
</event>
<event>
 5    1  0.3516911E-002  0.1250136E+03  0.7818608E-02  0.1235048E+00
          4   -1    0    0  501    0  0.00000000000E+00  0.00000000000E+00  0.16823278291E+03  0.16823757650E+03  0.12700000000E+01 0. -1.
         -4   -1    0    0    0  501 -0.00000000000E+00 -0.00000000000E+00 -0.23201869368E+02  0.23236601347E+02  0.12700000000E+01 0. -1.
         25    2    1    2    0    0  0.00000000000E+00  0.00000000000E+00  0.14503091354E+03  0.19147417784E+03  0.12501357886E+03 0.  0.
    9000005    1    3    3    0    0  0.30579193779E+02 -0.15796216642E+02 -0.73863298169E+01  0.35215982458E+02  0.10000000000E+01 0.  0.
    9000005    1    3    3    0    0 -0.30579193779E+02  0.15796216642E+02  0.15241724336E+03  0.15625819539E+03  0.10000000000E+01 0.  0.
<mgrwt>
<rscale>  0 0.12501358E+03</rscale>
<asrwt>0</asrwt>
<pdfrwt beam="1">  1        4 0.25885007E-01 0.12501358E+03</pdfrwt>
<pdfrwt beam="2">  1       -4 0.35725588E-02 0.12501358E+03</pdfrwt>
<totfact> 0.91563594E+03</totfact>
</mgrwt>
</event>
<event>
 4    1  0.3516911E-002  0.1253825E+03  0.7818608E-02  0.1234473E+00
         -4   -1    0    0    0  501 -0.00000000000E+00  0.00000000000E+00  0.19810881085E+03  0.19811288155E+03  0.12700000000E+01 0. -1.
          4   -1    0    0  501    0  0.00000000000E+00 -0.00000000000E+00 -0.19813953004E+02  0.19854612403E+02  0.12700000000E+01 0. -1.
    9000005    1    1    2    0    0 -0.39769742611E+02 -0.43527484014E+02  0.12614429483E+03  0.13924675009E+03  0.10000000000E+01 0.  0.
    9000005    1    1    2    0    0  0.39769742611E+02  0.43527484014E+02  0.52150563017E+02  0.78720743866E+02  0.10000000000E+01 0.  0.
<mgrwt>
<rscale>  0 0.12538250E+03</rscale>
<asrwt>0</asrwt>
<pdfrwt beam="2">  1        4 0.30517413E-02 0.12538250E+03</pdfrwt>
<pdfrwt beam="1">  1       -4 0.30481719E-01 0.12538250E+03</pdfrwt>
<totfact> 0.86450082E+03</totfact>
</mgrwt>
</event>
<event>
 5    1  0.3516911E-002  0.1250152E+03  0.7818608E-02  0.1235046E+00
          4   -1    0    0  501    0  0.00000000000E+00  0.00000000000E+00  0.86085678920E+01  0.87017435696E+01  0.12700000000E+01 0. -1.
         -4   -1    0    0    0  501 -0.00000000000E+00 -0.00000000000E+00 -0.45133624331E+03  0.45133803011E+03  0.12700000000E+01 0. -1.
         25    2    1    2    0    0  0.00000000000E+00  0.00000000000E+00 -0.44272767541E+03  0.46003977368E+03  0.12501519423E+03 0.  0.
    9000005    1    3    3    0    0  0.18965536444E+02 -0.39651330086E+02 -0.57856604258E+02  0.72665715481E+02  0.10000000000E+01 0.  0.
    9000005    1    3    3    0    0 -0.18965536444E+02  0.39651330086E+02 -0.38487107116E+03  0.38737405820E+03  0.10000000000E+01 0.  0.
<mgrwt>
<rscale>  0 0.12501519E+03</rscale>
<asrwt>0</asrwt>
<pdfrwt beam="1">  1        4 0.13317002E-02 0.12501519E+03</pdfrwt>
<pdfrwt beam="2">  1       -4 0.69443632E-01 0.12501519E+03</pdfrwt>
<totfact> 0.59084051E+03</totfact>
</mgrwt>
</event>
<event>
 5    1  0.3516911E-002  0.1249987E+03  0.7818608E-02  0.1235071E+00
          4   -1    0    0  501    0  0.00000000000E+00  0.00000000000E+00  0.25571871579E+01  0.28551893388E+01  0.12700000000E+01 0. -1.
         -4   -1    0    0    0  501 -0.00000000000E+00 -0.00000000000E+00 -0.14431230195E+04  0.14431235783E+04  0.12700000000E+01 0. -1.
         25    2    1    2    0    0  0.00000000000E+00  0.00000000000E+00 -0.14405658323E+04  0.14459787676E+04  0.12499871686E+03 0.  0.
    9000005    1    3    3    0    0  0.35388043337E+02 -0.33334164678E+02 -0.26607485198E+03  0.27048162045E+03  0.10000000000E+01 0.  0.
    9000005    1    3    3    0    0 -0.35388043337E+02  0.33334164678E+02 -0.11744909803E+04  0.11754971472E+04  0.10000000000E+01 0.  0.
<mgrwt>
<rscale>  0 0.12499872E+03</rscale>
<asrwt>0</asrwt>
<pdfrwt beam="1">  1        4 0.41638079E-03 0.12499872E+03</pdfrwt>
<pdfrwt beam="2">  1       -4 0.22204128E+00 0.12499872E+03</pdfrwt>
<totfact> 0.19015859E+03</totfact>
</mgrwt>
</event>
<event>
 5    1  0.3516911E-002  0.1249985E+03  0.7818608E-02  0.1235072E+00
         -4   -1    0    0    0  501 -0.00000000000E+00  0.00000000000E+00  0.66806212126E+01  0.68002646850E+01  0.12700000000E+01 0. -1.
          4   -1    0    0  501    0  0.00000000000E+00 -0.00000000000E+00 -0.57938996527E+03  0.57939135717E+03  0.12700000000E+01 0. -1.
         25    2    1    2    0    0  0.00000000000E+00  0.00000000000E+00 -0.57270934406E+03  0.58619162185E+03  0.12499849901E+03 0.  0.
    9000005    1    3    3    0    0 -0.38086714265E+02 -0.20371388929E+02 -0.74565587314E+02  0.86177828366E+02  0.10000000000E+01 0.  0.
    9000005    1    3    3    0    0  0.38086714265E+02  0.20371388929E+02 -0.49814375675E+03  0.50001379349E+03  0.10000000000E+01 0.  0.
<mgrwt>
<rscale>  0 0.12499850E+03</rscale>
<asrwt>0</asrwt>
<pdfrwt beam="2">  1        4 0.89146189E-01 0.12499850E+03</pdfrwt>
<pdfrwt beam="1">  1       -4 0.10370988E-02 0.12499850E+03</pdfrwt>
<totfact> 0.49752653E+03</totfact>
</mgrwt>
</event>
<event>
 5    1  0.3516911E-002  0.1250036E+03  0.7818608E-02  0.1235064E+00
         -4   -1    0    0    0  501 -0.00000000000E+00  0.00000000000E+00  0.32785887895E+02  0.32810476148E+02  0.12700000000E+01 0. -1.
          4   -1    0    0  501    0  0.00000000000E+00 -0.00000000000E+00 -0.11907846025E+03  0.11908523249E+03  0.12700000000E+01 0. -1.
         25    2    1    2    0    0  0.00000000000E+00  0.00000000000E+00 -0.86292572358E+02  0.15189570863E+03  0.12500359298E+03 0.  0.
    9000005    1    3    3    0    0 -0.10923068539E+02  0.60358536253E+02 -0.57677555041E+02  0.84203127497E+02  0.10000000000E+01 0.  0.
    9000005    1    3    3    0    0  0.10923068539E+02 -0.60358536253E+02 -0.28615017318E+02  0.67692581137E+02  0.10000000000E+01 0.  0.
<mgrwt>
<rscale>  0 0.12500359E+03</rscale>
<asrwt>0</asrwt>
<pdfrwt beam="2">  1        4 0.18322175E-01 0.12500359E+03</pdfrwt>
<pdfrwt beam="1">  1       -4 0.50463952E-02 0.12500359E+03</pdfrwt>
<totfact> 0.98919154E+03</totfact>
</mgrwt>
</event>
<event>
 5    1  0.3516911E-002  0.1250043E+03  0.7818608E-02  0.1235063E+00
         -4   -1    0    0    0  501 -0.00000000000E+00  0.00000000000E+00  0.81620853140E+02  0.81630732982E+02  0.12700000000E+01 0. -1.
          4   -1    0    0  501    0  0.00000000000E+00 -0.00000000000E+00 -0.47840549784E+02  0.47857403854E+02  0.12700000000E+01 0. -1.
         25    2    1    2    0    0  0.00000000000E+00  0.00000000000E+00  0.33780303356E+02  0.12948813684E+03  0.12500427467E+03 0.  0.
    9000005    1    3    3    0    0 -0.19147902445E+02  0.37935458861E+02  0.64357131261E+02  0.77127048117E+02  0.10000000000E+01 0.  0.
    9000005    1    3    3    0    0  0.19147902445E+02 -0.37935458861E+02 -0.30576827906E+02  0.52361088719E+02  0.10000000000E+01 0.  0.
<mgrwt>
<rscale>  0 0.12500427E+03</rscale>
<asrwt>0</asrwt>
<pdfrwt beam="2">  1        4 0.73621411E-02 0.12500427E+03</pdfrwt>
<pdfrwt beam="1">  1       -4 0.12559111E-01 0.12500427E+03</pdfrwt>
<totfact> 0.10354470E+04</totfact>
</mgrwt>
</event>
<event>
 5    1  0.3516911E-002  0.1250001E+03  0.7818608E-02  0.1235069E+00
         -4   -1    0    0    0  501 -0.00000000000E+00  0.00000000000E+00  0.57114177149E+03  0.57114318349E+03  0.12700000000E+01 0. -1.
          4   -1    0    0  501    0  0.00000000000E+00 -0.00000000000E+00 -0.67789928438E+01  0.68969300400E+01  0.12700000000E+01 0. -1.
         25    2    1    2    0    0  0.00000000000E+00  0.00000000000E+00  0.56436277865E+03  0.57804011353E+03  0.12500010769E+03 0.  0.
    9000005    1    3    3    0    0 -0.49328926318E+02  0.14471057863E+02  0.11787151264E+03  0.12859800923E+03  0.10000000000E+01 0.  0.
    9000005    1    3    3    0    0  0.49328926318E+02 -0.14471057863E+02  0.44649126601E+03  0.44944210429E+03  0.10000000000E+01 0.  0.
<mgrwt>
<rscale>  0 0.12500011E+03</rscale>
<asrwt>0</asrwt>
<pdfrwt beam="2">  1        4 0.10521028E-02 0.12500011E+03</pdfrwt>
<pdfrwt beam="1">  1       -4 0.87877137E-01 0.12500011E+03</pdfrwt>
<totfact> 0.50283668E+03</totfact>
</mgrwt>
</event>
<event>
 5    1  0.3516911E-002  0.1250005E+03  0.7818608E-02  0.1235069E+00
         -4   -1    0    0    0  501 -0.00000000000E+00  0.00000000000E+00  0.25922320579E+02  0.25953412188E+02  0.12700000000E+01 0. -1.
          4   -1    0    0  501    0  0.00000000000E+00 -0.00000000000E+00 -0.15056766771E+03  0.15057302368E+03  0.12700000000E+01 0. -1.
         25    2    1    2    0    0  0.00000000000E+00  0.00000000000E+00 -0.12464534713E+03  0.17652643587E+03  0.12500047999E+03 0.  0.
    9000005    1    3    3    0    0  0.57853319916E+01 -0.61759120862E+02 -0.73042510530E+02  0.95832496682E+02  0.10000000000E+01 0.  0.
    9000005    1    3    3    0    0 -0.57853319916E+01  0.61759120862E+02 -0.51602836602E+02  0.80693939186E+02  0.10000000000E+01 0.  0.
<mgrwt>
<rscale>  0 0.12500048E+03</rscale>
<asrwt>0</asrwt>
<pdfrwt beam="2">  1        4 0.23167060E-01 0.12500048E+03</pdfrwt>
<pdfrwt beam="1">  1       -4 0.39908531E-02 0.12500048E+03</pdfrwt>
<totfact> 0.94245005E+03</totfact>
</mgrwt>
</event>
<event>
 5    1  0.3516911E-002  0.1250009E+03  0.7818608E-02  0.1235068E+00
          4   -1    0    0  501    0  0.00000000000E+00  0.00000000000E+00  0.25080245185E+01  0.28112429610E+01  0.12700000000E+01 0.  1.
         -4   -1    0    0    0  501 -0.00000000000E+00 -0.00000000000E+00 -0.14684360140E+04  0.14684365632E+04  0.12700000000E+01 0.  1.
         25    2    1    2    0    0  0.00000000000E+00  0.00000000000E+00 -0.14659279895E+04  0.14712478062E+04  0.12500094703E+03 0.  0.
    9000005    1    3    3    0    0 -0.32098865004E+02  0.15621145997E+02 -0.12925315307E+03  0.13409599142E+03  0.10000000000E+01 0.  0.
    9000005    1    3    3    0    0  0.32098865004E+02 -0.15621145997E+02 -0.13366748364E+04  0.13371518148E+04  0.10000000000E+01 0.  0.
<mgrwt>
<rscale>  0 0.12500095E+03</rscale>
<asrwt>0</asrwt>
<pdfrwt beam="1">  1        4 0.40921784E-03 0.12500095E+03</pdfrwt>
<pdfrwt beam="2">  1       -4 0.22593595E+00 0.12500095E+03</pdfrwt>
<totfact> 0.18501403E+03</totfact>
</mgrwt>
</event>
<event>
 5    1  0.3516911E-002  0.1249997E+03  0.7818608E-02  0.1235070E+00
          4   -1    0    0  501    0  0.00000000000E+00  0.00000000000E+00  0.20434998373E+03  0.20435393011E+03  0.12700000000E+01 0. -1.
         -4   -1    0    0    0  501 -0.00000000000E+00 -0.00000000000E+00 -0.19090158607E+02  0.19132356249E+02  0.12700000000E+01 0. -1.
         25    2    1    2    0    0  0.00000000000E+00  0.00000000000E+00  0.18525982513E+03  0.22348628636E+03  0.12499966954E+03 0.  0.
    9000005    1    3    3    0    0 -0.19598754338E+02 -0.59067149802E+02  0.82486071681E+02  0.10333436688E+03  0.10000000000E+01 0.  0.
    9000005    1    3    3    0    0  0.19598754338E+02  0.59067149802E+02  0.10277375345E+03  0.12015191948E+03  0.10000000000E+01 0.  0.
<mgrwt>
<rscale>  0 0.12499967E+03</rscale>
<asrwt>0</asrwt>
<pdfrwt beam="1">  1        4 0.31442008E-01 0.12499967E+03</pdfrwt>
<pdfrwt beam="2">  1       -4 0.29404971E-02 0.12499967E+03</pdfrwt>
<totfact> 0.86320316E+03</totfact>
</mgrwt>
</event>
<event>
 5    1  0.3516911E-002  0.1250003E+03  0.7818608E-02  0.1235069E+00
         -4   -1    0    0    0  501 -0.00000000000E+00  0.00000000000E+00  0.19894230340E+02  0.19934726004E+02  0.12700000000E+01 0.  1.
          4   -1    0    0  501    0  0.00000000000E+00 -0.00000000000E+00 -0.19610977235E+03  0.19611388454E+03  0.12700000000E+01 0.  1.
         25    2    1    2    0    0  0.00000000000E+00  0.00000000000E+00 -0.17621554201E+03  0.21604861054E+03  0.12500033949E+03 0.  0.
    9000005    1    3    3    0    0 -0.17996238624E+02  0.33634622258E+02 -0.25550441782E+01  0.38245008430E+02  0.10000000000E+01 0.  0.
    9000005    1    3    3    0    0  0.17996238624E+02 -0.33634622258E+02 -0.17366049783E+03  0.17780360211E+03  0.10000000000E+01 0.  0.
<mgrwt>
<rscale>  0 0.12500034E+03</rscale>
<asrwt>0</asrwt>
<pdfrwt beam="2">  1        4 0.30174164E-01 0.12500034E+03</pdfrwt>
<pdfrwt beam="1">  1       -4 0.30640823E-02 0.12500034E+03</pdfrwt>
<totfact> 0.87496830E+03</totfact>
</mgrwt>
</event>
<event>
 5    1  0.3516911E-002  0.1249990E+03  0.7818608E-02  0.1235071E+00
         -4   -1    0    0    0  501 -0.00000000000E+00  0.00000000000E+00  0.53950002262E+03  0.53950151742E+03  0.12700000000E+01 0.  1.
          4   -1    0    0  501    0  0.00000000000E+00 -0.00000000000E+00 -0.71831813563E+01  0.72945866502E+01  0.12700000000E+01 0.  1.
         25    2    1    2    0    0  0.00000000000E+00  0.00000000000E+00  0.53231684126E+03  0.54679610407E+03  0.12499903976E+03 0.  0.
    9000005    1    3    3    0    0  0.49395967275E+02  0.42078318381E+01  0.99728500666E+02  0.11137522739E+03  0.10000000000E+01 0.  0.
    9000005    1    3    3    0    0 -0.49395967275E+02 -0.42078318381E+01  0.43258834059E+03  0.43542087668E+03  0.10000000000E+01 0.  0.
<mgrwt>
<rscale>  0 0.12499904E+03</rscale>
<asrwt>0</asrwt>
<pdfrwt beam="2">  1        4 0.11137894E-02 0.12499904E+03</pdfrwt>
<pdfrwt beam="1">  1       -4 0.83008693E-01 0.12499904E+03</pdfrwt>
<totfact> 0.52409088E+03</totfact>
</mgrwt>
</event>
<event>
 5    1  0.3516911E-002  0.1249995E+03  0.7818608E-02  0.1235070E+00
         -4   -1    0    0    0  501 -0.00000000000E+00  0.00000000000E+00  0.68908083547E+02  0.68919785824E+02  0.12700000000E+01 0. -1.
          4   -1    0    0  501    0  0.00000000000E+00 -0.00000000000E+00 -0.56663707021E+02  0.56677937448E+02  0.12700000000E+01 0. -1.
         25    2    1    2    0    0  0.00000000000E+00  0.00000000000E+00  0.12244376525E+02  0.12559772327E+03  0.12499945334E+03 0.  0.
    9000005    1    3    3    0    0 -0.86161509784E+01  0.60639592159E+02 -0.63394954246E+01  0.61583986532E+02  0.10000000000E+01 0.  0.
    9000005    1    3    3    0    0  0.86161509784E+01 -0.60639592159E+02  0.18583871950E+02  0.64013736741E+02  0.10000000000E+01 0.  0.
<mgrwt>
<rscale>  0 0.12499945E+03</rscale>
<asrwt>0</asrwt>
<pdfrwt beam="2">  1        4 0.87194882E-02 0.12499945E+03</pdfrwt>
<pdfrwt beam="1">  1       -4 0.10603238E-01 0.12499945E+03</pdfrwt>
<totfact> 0.10439926E+04</totfact>
</mgrwt>
</event>
<event>
 5    1  0.3516911E-002  0.1249807E+03  0.7818608E-02  0.1235099E+00
          4   -1    0    0  501    0  0.00000000000E+00  0.00000000000E+00  0.63722041572E+01  0.64975292090E+01  0.12700000000E+01 0.  1.
         -4   -1    0    0    0  501 -0.00000000000E+00 -0.00000000000E+00 -0.60673135572E+03  0.60673268489E+03  0.12700000000E+01 0.  1.
         25    2    1    2    0    0  0.00000000000E+00  0.00000000000E+00 -0.60035915157E+03  0.61323021410E+03  0.12498073699E+03 0.  0.
    9000005    1    3    3    0    0  0.78310568577E+01  0.11154193138E+02 -0.59937362388E+03  0.59952938417E+03  0.10000000000E+01 0.  0.
    9000005    1    3    3    0    0 -0.78310568577E+01 -0.11154193138E+02 -0.98552768486E+00  0.13700829935E+02  0.10000000000E+01 0.  0.
<mgrwt>
<rscale>  0 0.12498074E+03</rscale>
<asrwt>0</asrwt>
<pdfrwt beam="1">  1        4 0.99008221E-03 0.12498074E+03</pdfrwt>
<pdfrwt beam="2">  1       -4 0.93352983E-01 0.12498074E+03</pdfrwt>
<totfact> 0.48063300E+03</totfact>
</mgrwt>
</event>
<event>
 5    1  0.3516911E-002  0.1250017E+03  0.7818608E-02  0.1235067E+00
         -4   -1    0    0    0  501 -0.00000000000E+00  0.00000000000E+00  0.48990750278E+02  0.49007208784E+02  0.12700000000E+01 0. -1.
          4   -1    0    0  501    0  0.00000000000E+00 -0.00000000000E+00 -0.79701729673E+02  0.79711847381E+02  0.12700000000E+01 0. -1.
         25    2    1    2    0    0  0.00000000000E+00  0.00000000000E+00 -0.30710979394E+02  0.12871905616E+03  0.12500172465E+03 0.  0.
    9000005    1    3    3    0    0 -0.47437310155E+01 -0.61834120135E+02 -0.23291585146E+02  0.66252994917E+02  0.10000000000E+01 0.  0.
    9000005    1    3    3    0    0  0.47437310155E+01  0.61834120135E+02 -0.74193942484E+01  0.62466061248E+02  0.10000000000E+01 0.  0.
<mgrwt>
<rscale>  0 0.12500172E+03</rscale>
<asrwt>0</asrwt>
<pdfrwt beam="2">  1        4 0.12263849E-01 0.12500172E+03</pdfrwt>
<pdfrwt beam="1">  1       -4 0.75390828E-02 0.12500172E+03</pdfrwt>
<totfact> 0.10371584E+04</totfact>
</mgrwt>
</event>
<event>
 5    1  0.3516911E-002  0.1249919E+03  0.7818608E-02  0.1235082E+00
          4   -1    0    0  501    0  0.00000000000E+00  0.00000000000E+00  0.27336674987E+03  0.27336969992E+03  0.12700000000E+01 0.  1.
         -4   -1    0    0    0  501 -0.00000000000E+00 -0.00000000000E+00 -0.14256297742E+02  0.14312753939E+02  0.12700000000E+01 0.  1.
         25    2    1    2    0    0  0.00000000000E+00  0.00000000000E+00  0.25911045213E+03  0.28768245386E+03  0.12499187116E+03 0.  0.
    9000005    1    3    3    0    0  0.39943689678E+02  0.13103047163E+01  0.24011699390E+03  0.24342223810E+03  0.10000000000E+01 0.  0.
    9000005    1    3    3    0    0 -0.39943689678E+02 -0.13103047163E+01  0.18993458232E+02  0.44260215761E+02  0.10000000000E+01 0.  0.
<mgrwt>
<rscale>  0 0.12499187E+03</rscale>
<asrwt>0</asrwt>
<pdfrwt beam="1">  1        4 0.42060992E-01 0.12499187E+03</pdfrwt>
<pdfrwt beam="2">  1       -4 0.21978463E-02 0.12499187E+03</pdfrwt>
<totfact> 0.77184309E+03</totfact>
</mgrwt>
</event>
<event>
 5    1  0.3516911E-002  0.1250051E+03  0.7818608E-02  0.1235061E+00
         -4   -1    0    0    0  501 -0.00000000000E+00  0.00000000000E+00  0.64180707194E+01  0.65425172342E+01  0.12700000000E+01 0.  1.
          4   -1    0    0  501    0  0.00000000000E+00 -0.00000000000E+00 -0.60271329986E+03  0.60271463789E+03  0.12700000000E+01 0.  1.
         25    2    1    2    0    0  0.00000000000E+00  0.00000000000E+00 -0.59629522914E+03  0.60925715513E+03  0.12500512300E+03 0.  0.
    9000005    1    3    3    0    0  0.10273955762E+02 -0.55029025319E+02 -0.16274360788E+03  0.17210528667E+03  0.10000000000E+01 0.  0.
    9000005    1    3    3    0    0 -0.10273955762E+02  0.55029025319E+02 -0.43355162127E+03  0.43715186846E+03  0.10000000000E+01 0.  0.
<mgrwt>
<rscale>  0 0.12500512E+03</rscale>
<asrwt>0</asrwt>
<pdfrwt beam="2">  1        4 0.92734755E-01 0.12500512E+03</pdfrwt>
<pdfrwt beam="1">  1       -4 0.99707170E-03 0.12500512E+03</pdfrwt>
<totfact> 0.48283032E+03</totfact>
</mgrwt>
</event>
<event>
 5    1  0.3516911E-002  0.1250009E+03  0.7818608E-02  0.1235068E+00
         -4   -1    0    0    0  501 -0.00000000000E+00  0.00000000000E+00  0.10275117680E+03  0.10275902507E+03  0.12700000000E+01 0.  1.
          4   -1    0    0  501    0  0.00000000000E+00 -0.00000000000E+00 -0.37997237818E+02  0.38018455805E+02  0.12700000000E+01 0.  1.
         25    2    1    2    0    0  0.00000000000E+00  0.00000000000E+00  0.64753938977E+02  0.14077748087E+03  0.12500090603E+03 0.  0.
    9000005    1    3    3    0    0 -0.58576689500E+02  0.11759369177E+02  0.53014481649E+02  0.79881453296E+02  0.10000000000E+01 0.  0.
    9000005    1    3    3    0    0  0.58576689500E+02 -0.11759369177E+02  0.11739457328E+02  0.60896027577E+02  0.10000000000E+01 0.  0.
<mgrwt>
<rscale>  0 0.12500091E+03</rscale>
<asrwt>0</asrwt>
<pdfrwt beam="2">  1        4 0.58479647E-02 0.12500091E+03</pdfrwt>
<pdfrwt beam="1">  1       -4 0.15810109E-01 0.12500091E+03</pdfrwt>
<totfact> 0.10117291E+04</totfact>
</mgrwt>
</event>
<event>
 5    1  0.3516911E-002  0.1250001E+03  0.7818608E-02  0.1235069E+00
          4   -1    0    0  501    0  0.00000000000E+00  0.00000000000E+00  0.23613775431E+03  0.23614116946E+03  0.12700000000E+01 0.  1.
         -4   -1    0    0    0  501 -0.00000000000E+00 -0.00000000000E+00 -0.16514354509E+02  0.16563115796E+02  0.12700000000E+01 0.  1.
         25    2    1    2    0    0  0.00000000000E+00  0.00000000000E+00  0.21962339980E+03  0.25270428525E+03  0.12500007217E+03 0.  0.
    9000005    1    3    3    0    0  0.34861040192E+01 -0.40858750708E+02  0.20514331112E+03  0.20920413124E+03  0.10000000000E+01 0.  0.
    9000005    1    3    3    0    0 -0.34861040192E+01  0.40858750708E+02  0.14480088682E+02  0.43500154010E+02  0.10000000000E+01 0.  0.
<mgrwt>
<rscale>  0 0.12500007E+03</rscale>
<asrwt>0</asrwt>
<pdfrwt beam="1">  1        4 0.36332895E-01 0.12500007E+03</pdfrwt>
<pdfrwt beam="2">  1       -4 0.25446838E-02 0.12500007E+03</pdfrwt>
<totfact> 0.81940810E+03</totfact>
</mgrwt>
</event>
<event>
 5    1  0.3516911E-002  0.1250036E+03  0.7818608E-02  0.1235064E+00
         -4   -1    0    0    0  501 -0.00000000000E+00  0.00000000000E+00  0.17066512802E+03  0.17066985329E+03  0.12700000000E+01 0. -1.
          4   -1    0    0  501    0  0.00000000000E+00 -0.00000000000E+00 -0.22867060234E+02  0.22902299966E+02  0.12700000000E+01 0. -1.
         25    2    1    2    0    0  0.00000000000E+00  0.00000000000E+00  0.14779806779E+03  0.19357215326E+03  0.12500363865E+03 0.  0.
    9000005    1    3    3    0    0 -0.84377243573E+01 -0.10031830781E+02 -0.20721787554E+02  0.24540279147E+02  0.10000000000E+01 0.  0.
    9000005    1    3    3    0    0  0.84377243573E+01  0.10031830781E+02  0.16851985534E+03  0.16903187411E+03  0.10000000000E+01 0.  0.
<mgrwt>
<rscale>  0 0.12500364E+03</rscale>
<asrwt>0</asrwt>
<pdfrwt beam="2">  1        4 0.35210835E-02 0.12500364E+03</pdfrwt>
<pdfrwt beam="1">  1       -4 0.26259248E-01 0.12500364E+03</pdfrwt>
<totfact> 0.91222027E+03</totfact>
</mgrwt>
</event>
<event>
 5    1  0.3516911E-002  0.1249979E+03  0.7818608E-02  0.1235073E+00
         -4   -1    0    0    0  501 -0.00000000000E+00  0.00000000000E+00  0.11295362077E+02  0.11366534408E+02  0.12700000000E+01 0. -1.
          4   -1    0    0  501    0  0.00000000000E+00 -0.00000000000E+00 -0.34465787234E+03  0.34466021218E+03  0.12700000000E+01 0. -1.
         25    2    1    2    0    0  0.00000000000E+00  0.00000000000E+00 -0.33336251026E+03  0.35602674659E+03  0.12499792416E+03 0.  0.
    9000005    1    3    3    0    0  0.51094782029E+02 -0.20497266864E+02 -0.25090051984E+03  0.25687134047E+03  0.10000000000E+01 0.  0.
    9000005    1    3    3    0    0 -0.51094782029E+02  0.20497266864E+02 -0.82461990421E+02  0.99155406124E+02  0.10000000000E+01 0.  0.
<mgrwt>
<rscale>  0 0.12499792E+03</rscale>
<asrwt>0</asrwt>
<pdfrwt beam="2">  1        4 0.53029935E-01 0.12499792E+03</pdfrwt>
<pdfrwt beam="1">  1       -4 0.17434031E-02 0.12499792E+03</pdfrwt>
<totfact> 0.69069765E+03</totfact>
</mgrwt>
</event>
<event>
 5    1  0.3516911E-002  0.1249989E+03  0.7818608E-02  0.1235071E+00
         -4   -1    0    0    0  501 -0.00000000000E+00  0.00000000000E+00  0.49835185396E+02  0.49851365111E+02  0.12700000000E+01 0. -1.
          4   -1    0    0  501    0  0.00000000000E+00 -0.00000000000E+00 -0.78347998633E+02  0.78358291136E+02  0.12700000000E+01 0. -1.
         25    2    1    2    0    0  0.00000000000E+00  0.00000000000E+00 -0.28512813237E+02  0.12820965625E+03  0.12499894174E+03 0.  0.
    9000005    1    3    3    0    0 -0.76256262188E+01 -0.44191040502E+02  0.30383745673E+02  0.54177211418E+02  0.10000000000E+01 0.  0.
    9000005    1    3    3    0    0  0.76256262188E+01  0.44191040502E+02 -0.58896558910E+02  0.74032444829E+02  0.10000000000E+01 0.  0.
<mgrwt>
<rscale>  0 0.12499894E+03</rscale>
<asrwt>0</asrwt>
<pdfrwt beam="2">  1        4 0.12055574E-01 0.12499894E+03</pdfrwt>
<pdfrwt beam="1">  1       -4 0.76689880E-02 0.12499894E+03</pdfrwt>
<totfact> 0.10383210E+04</totfact>
</mgrwt>
</event>
<event>
 5    1  0.3516911E-002  0.1249996E+03  0.7818608E-02  0.1235070E+00
          4   -1    0    0  501    0  0.00000000000E+00  0.00000000000E+00  0.77805421337E+02  0.77815785606E+02  0.12700000000E+01 0.  1.
         -4   -1    0    0    0  501 -0.00000000000E+00 -0.00000000000E+00 -0.50183283810E+02  0.50199351330E+02  0.12700000000E+01 0.  1.
         25    2    1    2    0    0  0.00000000000E+00  0.00000000000E+00  0.27622137527E+02  0.12801513694E+03  0.12499957121E+03 0.  0.
    9000005    1    3    3    0    0 -0.27796504783E+02  0.39201974493E+02 -0.27099892183E+02  0.55180110897E+02  0.10000000000E+01 0.  0.
    9000005    1    3    3    0    0  0.27796504783E+02 -0.39201974493E+02  0.54722029711E+02  0.72835026038E+02  0.10000000000E+01 0.  0.
<mgrwt>
<rscale>  0 0.12499957E+03</rscale>
<asrwt>0</asrwt>
<pdfrwt beam="1">  1        4 0.11972098E-01 0.12499957E+03</pdfrwt>
<pdfrwt beam="2">  1       -4 0.77225384E-02 0.12499957E+03</pdfrwt>
<totfact> 0.10387261E+04</totfact>
</mgrwt>
</event>
<event>
 5    1  0.3516911E-002  0.1250008E+03  0.7818608E-02  0.1235068E+00
         -4   -1    0    0    0  501 -0.00000000000E+00  0.00000000000E+00  0.80095205977E+01  0.81095819994E+01  0.12700000000E+01 0. -1.
          4   -1    0    0  501    0  0.00000000000E+00 -0.00000000000E+00 -0.48457855463E+03  0.48458021886E+03  0.12700000000E+01 0. -1.
         25    2    1    2    0    0  0.00000000000E+00  0.00000000000E+00 -0.47656903404E+03  0.49268980086E+03  0.12500078267E+03 0.  0.
    9000005    1    3    3    0    0 -0.44852138438E+02 -0.41088953163E+02 -0.18181204122E+03  0.19172019906E+03  0.10000000000E+01 0.  0.
    9000005    1    3    3    0    0  0.44852138438E+02  0.41088953163E+02 -0.29475699282E+03  0.30096960180E+03  0.10000000000E+01 0.  0.
<mgrwt>
<rscale>  0 0.12500078E+03</rscale>
<asrwt>0</asrwt>
<pdfrwt beam="2">  1        4 0.74558349E-01 0.12500078E+03</pdfrwt>
<pdfrwt beam="1">  1       -4 0.12400594E-02 0.12500078E+03</pdfrwt>
<totfact> 0.56435081E+03</totfact>
</mgrwt>
</event>
<event>
 5    1  0.3516911E-002  0.1250030E+03  0.7818608E-02  0.1235065E+00
         -4   -1    0    0    0  501 -0.00000000000E+00  0.00000000000E+00  0.24259101650E+02  0.24292322097E+02  0.12700000000E+01 0. -1.
          4   -1    0    0  501    0  0.00000000000E+00 -0.00000000000E+00 -0.16088378136E+03  0.16088879391E+03  0.12700000000E+01 0. -1.
         25    2    1    2    0    0  0.00000000000E+00  0.00000000000E+00 -0.13662467971E+03  0.18518111600E+03  0.12500297044E+03 0.  0.
    9000005    1    3    3    0    0  0.29215331097E+02 -0.19791941940E+02 -0.14471910334E+03  0.14896266448E+03  0.10000000000E+01 0.  0.
    9000005    1    3    3    0    0 -0.29215331097E+02  0.19791941940E+02  0.80944236319E+01  0.36218451523E+02  0.10000000000E+01 0.  0.
<mgrwt>
<rscale>  0 0.12500297E+03</rscale>
<asrwt>0</asrwt>
<pdfrwt beam="2">  1        4 0.24754291E-01 0.12500297E+03</pdfrwt>
<pdfrwt beam="1">  1       -4 0.37351106E-02 0.12500297E+03</pdfrwt>
<totfact> 0.92686442E+03</totfact>
</mgrwt>
</event>
<event>
 5    1  0.3516911E-002  0.1250237E+03  0.7818608E-02  0.1235032E+00
          4   -1    0    0  501    0  0.00000000000E+00  0.00000000000E+00  0.57749624339E+02  0.57763587244E+02  0.12700000000E+01 0.  1.
         -4   -1    0    0    0  501 -0.00000000000E+00 -0.00000000000E+00 -0.67638720961E+02  0.67650642815E+02  0.12700000000E+01 0.  1.
         25    2    1    2    0    0  0.00000000000E+00  0.00000000000E+00 -0.98890966222E+01  0.12541423006E+03  0.12502373722E+03 0.  0.
    9000005    1    3    3    0    0 -0.50851361727E+02  0.11243194901E+02 -0.39613502744E+02  0.65440813112E+02  0.10000000000E+01 0.  0.
    9000005    1    3    3    0    0  0.50851361727E+02 -0.11243194901E+02  0.29724406121E+02  0.59973416948E+02  0.10000000000E+01 0.  0.
<mgrwt>
<rscale>  0 0.12502374E+03</rscale>
<asrwt>0</asrwt>
<pdfrwt beam="1">  1        4 0.88865487E-02 0.12502374E+03</pdfrwt>
<pdfrwt beam="2">  1       -4 0.10407948E-01 0.12502374E+03</pdfrwt>
<totfact> 0.10438263E+04</totfact>
</mgrwt>
</event>
<event>
 5    1  0.3516911E-002  0.1249981E+03  0.7818608E-02  0.1235072E+00
         -4   -1    0    0    0  501 -0.00000000000E+00  0.00000000000E+00  0.22945357502E+02  0.22980477168E+02  0.12700000000E+01 0.  1.
          4   -1    0    0  501    0  0.00000000000E+00 -0.00000000000E+00 -0.17006860200E+03  0.17007334384E+03  0.12700000000E+01 0.  1.
         25    2    1    2    0    0  0.00000000000E+00  0.00000000000E+00 -0.14712324449E+03  0.19305382101E+03  0.12499811493E+03 0.  0.
    9000005    1    3    3    0    0 -0.43627326706E+02  0.30664272436E+02 -0.12388074776E+03  0.13487431522E+03  0.10000000000E+01 0.  0.
    9000005    1    3    3    0    0  0.43627326706E+02 -0.30664272436E+02 -0.23242496730E+02  0.58179505788E+02  0.10000000000E+01 0.  0.
<mgrwt>
<rscale>  0 0.12499811E+03</rscale>
<asrwt>0</asrwt>
<pdfrwt beam="2">  1        4 0.26167466E-01 0.12499811E+03</pdfrwt>
<pdfrwt beam="1">  1       -4 0.35331214E-02 0.12499811E+03</pdfrwt>
<totfact> 0.91322514E+03</totfact>
</mgrwt>
</event>
<event>
 5    1  0.3516911E-002  0.1249993E+03  0.7818608E-02  0.1235070E+00
         -4   -1    0    0    0  501 -0.00000000000E+00  0.00000000000E+00  0.39577179959E+02  0.39597551358E+02  0.12700000000E+01 0.  1.
          4   -1    0    0  501    0  0.00000000000E+00 -0.00000000000E+00 -0.98648523998E+02  0.98656698642E+02  0.12700000000E+01 0.  1.
         25    2    1    2    0    0  0.00000000000E+00  0.00000000000E+00 -0.59071344039E+02  0.13825425000E+03  0.12499925582E+03 0.  0.
    9000005    1    3    3    0    0  0.46005817323E+01  0.54890526708E+02  0.31078602453E+01  0.55179652680E+02  0.10000000000E+01 0.  0.
    9000005    1    3    3    0    0 -0.46005817323E+01 -0.54890526708E+02 -0.62179204284E+02  0.83074597320E+02  0.10000000000E+01 0.  0.
<mgrwt>
<rscale>  0 0.12499926E+03</rscale>
<asrwt>0</asrwt>
<pdfrwt beam="2">  1        4 0.15178892E-01 0.12499926E+03</pdfrwt>
<pdfrwt beam="1">  1       -4 0.60909928E-02 0.12499926E+03</pdfrwt>
<totfact> 0.10170067E+04</totfact>
</mgrwt>
</event>
<event>
 5    1  0.3516911E-002  0.1250015E+03  0.7818608E-02  0.1235067E+00
          4   -1    0    0  501    0  0.00000000000E+00  0.00000000000E+00  0.30292814021E+01  0.32847291841E+01  0.12700000000E+01 0. -1.
         -4   -1    0    0    0  501 -0.00000000000E+00 -0.00000000000E+00 -0.12371019411E+04  0.12371025930E+04  0.12700000000E+01 0. -1.
         25    2    1    2    0    0  0.00000000000E+00  0.00000000000E+00 -0.12340726597E+04  0.12403873221E+04  0.12500151834E+03 0.  0.
    9000005    1    3    3    0    0  0.33439113193E+02  0.17317942782E+02 -0.12215328303E+03  0.12783000426E+03  0.10000000000E+01 0.  0.
    9000005    1    3    3    0    0 -0.33439113193E+02 -0.17317942782E+02 -0.11119193766E+04  0.11125573179E+04  0.10000000000E+01 0.  0.
<mgrwt>
<rscale>  0 0.12500152E+03</rscale>
<asrwt>0</asrwt>
<pdfrwt beam="1">  1        4 0.48574426E-03 0.12500152E+03</pdfrwt>
<pdfrwt beam="2">  1       -4 0.19034269E+00 0.12500152E+03</pdfrwt>
<totfact> 0.23678685E+03</totfact>
</mgrwt>
</event>
<event>
 5    1  0.3516911E-002  0.1249982E+03  0.7818608E-02  0.1235072E+00
         -4   -1    0    0    0  501 -0.00000000000E+00  0.00000000000E+00  0.25010291932E+01  0.28050039261E+01  0.12700000000E+01 0.  1.
          4   -1    0    0  501    0  0.00000000000E+00 -0.00000000000E+00 -0.14720339712E+04  0.14720345191E+04  0.12700000000E+01 0.  1.
         25    2    1    2    0    0  0.00000000000E+00  0.00000000000E+00 -0.14695329420E+04  0.14748395230E+04  0.12499820351E+03 0.  0.
    9000005    1    3    3    0    0 -0.11792580543E+02  0.34410743407E+02 -0.13343047081E+04  0.13348008160E+04  0.10000000000E+01 0.  0.
    9000005    1    3    3    0    0  0.11792580543E+02 -0.34410743407E+02 -0.13522823391E+03  0.14003870702E+03  0.10000000000E+01 0.  0.
<mgrwt>
<rscale>  0 0.12499820E+03</rscale>
<asrwt>0</asrwt>
<pdfrwt beam="2">  1        4 0.22648954E+00 0.12499820E+03</pdfrwt>
<pdfrwt beam="1">  1       -4 0.40819971E-03 0.12499820E+03</pdfrwt>
<totfact> 0.18430458E+03</totfact>
</mgrwt>
</event>
<event>
 5    1  0.3516911E-002  0.1249979E+03  0.7818608E-02  0.1235073E+00
          4   -1    0    0  501    0  0.00000000000E+00  0.00000000000E+00  0.59997916926E+03  0.59998051339E+03  0.12700000000E+01 0.  1.
         -4   -1    0    0    0  501 -0.00000000000E+00 -0.00000000000E+00 -0.64471277145E+01  0.65710239511E+01  0.12700000000E+01 0.  1.
         25    2    1    2    0    0  0.00000000000E+00  0.00000000000E+00  0.59353204155E+03  0.60655153734E+03  0.12499793241E+03 0.  0.
    9000005    1    3    3    0    0 -0.53230539656E+02 -0.22356486881E+02  0.41280229049E+03  0.41682134529E+03  0.10000000000E+01 0.  0.
    9000005    1    3    3    0    0  0.53230539656E+02  0.22356486881E+02  0.18072975106E+03  0.18973019205E+03  0.10000000000E+01 0.  0.
<mgrwt>
<rscale>  0 0.12499793E+03</rscale>
<asrwt>0</asrwt>
<pdfrwt beam="1">  1        4 0.92314101E-01 0.12499793E+03</pdfrwt>
<pdfrwt beam="2">  1       -4 0.10014999E-02 0.12499793E+03</pdfrwt>
<totfact> 0.48458857E+03</totfact>
</mgrwt>
</event>
<event>
 5    1  0.3516911E-002  0.1249983E+03  0.7818608E-02  0.1235072E+00
         -4   -1    0    0    0  501 -0.00000000000E+00  0.00000000000E+00  0.23662468911E+02  0.23696525799E+02  0.12700000000E+01 0.  1.
          4   -1    0    0  501    0  0.00000000000E+00 -0.00000000000E+00 -0.16492246642E+03  0.16492735622E+03  0.12700000000E+01 0.  1.
         25    2    1    2    0    0  0.00000000000E+00  0.00000000000E+00 -0.14125999751E+03  0.18862388202E+03  0.12499832788E+03 0.  0.
    9000005    1    3    3    0    0 -0.15660115859E+02 -0.23842570636E+02 -0.15453208351E+03  0.15714602202E+03  0.10000000000E+01 0.  0.
    9000005    1    3    3    0    0  0.15660115859E+02  0.23842570636E+02  0.13272086001E+02  0.31477859998E+02  0.10000000000E+01 0.  0.
<mgrwt>
<rscale>  0 0.12499833E+03</rscale>
<asrwt>0</asrwt>
<pdfrwt beam="2">  1        4 0.25375682E-01 0.12499833E+03</pdfrwt>
<pdfrwt beam="1">  1       -4 0.36433758E-02 0.12499833E+03</pdfrwt>
<totfact> 0.92090757E+03</totfact>
</mgrwt>
</event>
<event>
 5    1  0.3516911E-002  0.1250002E+03  0.7818608E-02  0.1235069E+00
         -4   -1    0    0    0  501 -0.00000000000E+00  0.00000000000E+00  0.21030917049E+02  0.21069228081E+02  0.12700000000E+01 0.  1.
          4   -1    0    0  501    0  0.00000000000E+00 -0.00000000000E+00 -0.18552961289E+03  0.18553395959E+03  0.12700000000E+01 0.  1.
         25    2    1    2    0    0  0.00000000000E+00  0.00000000000E+00 -0.16449869584E+03  0.20660318767E+03  0.12500022488E+03 0.  0.
    9000005    1    3    3    0    0  0.38885742241E+02  0.28168461908E+02 -0.16142627431E+02  0.50667026913E+02  0.10000000000E+01 0.  0.
    9000005    1    3    3    0    0 -0.38885742241E+02 -0.28168461908E+02 -0.14835606841E+03  0.15593616076E+03  0.10000000000E+01 0.  0.
<mgrwt>
<rscale>  0 0.12500022E+03</rscale>
<asrwt>0</asrwt>
<pdfrwt beam="2">  1        4 0.28546298E-01 0.12500022E+03</pdfrwt>
<pdfrwt beam="1">  1       -4 0.32388072E-02 0.12500022E+03</pdfrwt>
<totfact> 0.89033200E+03</totfact>
</mgrwt>
</event>
<event>
 5    1  0.3516911E-002  0.1249994E+03  0.7818608E-02  0.1235070E+00
         -4   -1    0    0    0  501 -0.00000000000E+00  0.00000000000E+00  0.10287174274E+03  0.10287958181E+03  0.12700000000E+01 0.  1.
          4   -1    0    0  501    0  0.00000000000E+00 -0.00000000000E+00 -0.37951752745E+02  0.37972996147E+02  0.12700000000E+01 0.  1.
         25    2    1    2    0    0  0.00000000000E+00  0.00000000000E+00  0.64919989991E+02  0.14085257796E+03  0.12499937447E+03 0.  0.
    9000005    1    3    3    0    0  0.25877748808E+02 -0.56860890983E+02  0.34202790375E+02  0.71229556198E+02  0.10000000000E+01 0.  0.
    9000005    1    3    3    0    0 -0.25877748808E+02  0.56860890983E+02  0.30717199617E+02  0.69623021760E+02  0.10000000000E+01 0.  0.
<mgrwt>
<rscale>  0 0.12499937E+03</rscale>
<asrwt>0</asrwt>
<pdfrwt beam="2">  1        4 0.58409684E-02 0.12499937E+03</pdfrwt>
<pdfrwt beam="1">  1       -4 0.15828659E-01 0.12499937E+03</pdfrwt>
<totfact> 0.10116089E+04</totfact>
</mgrwt>
</event>
<event>
 4    1  0.3516911E-002  0.1250651E+03  0.7818608E-02  0.1234968E+00
          4   -1    0    0  501    0  0.00000000000E+00  0.00000000000E+00  0.28781711603E+02  0.28809717507E+02  0.12700000000E+01 0. -1.
         -4   -1    0    0    0  501 -0.00000000000E+00 -0.00000000000E+00 -0.13576431085E+03  0.13577025079E+03  0.12700000000E+01 0. -1.
    9000005    1    1    2    0    0 -0.98322906421E+01  0.27039677262E+02 -0.12654161331E+03  0.12977518247E+03  0.10000000000E+01 0.  0.
    9000005    1    1    2    0    0  0.98322906421E+01 -0.27039677262E+02  0.19559014063E+02  0.34804785832E+02  0.10000000000E+01 0.  0.
<mgrwt>
<rscale>  0 0.12506514E+03</rscale>
<asrwt>0</asrwt>
<pdfrwt beam="1">  1        4 0.44305669E-02 0.12506514E+03</pdfrwt>
<pdfrwt beam="2">  1       -4 0.20889428E-01 0.12506514E+03</pdfrwt>
<totfact> 0.96325961E+03</totfact>
</mgrwt>
</event>
<event>
 5    1  0.3516911E-002  0.1250042E+03  0.7818608E-02  0.1235063E+00
         -4   -1    0    0    0  501 -0.00000000000E+00  0.00000000000E+00  0.91117031173E+02  0.91125881449E+02  0.12700000000E+01 0. -1.
          4   -1    0    0  501    0  0.00000000000E+00 -0.00000000000E+00 -0.42853208872E+02  0.42872023636E+02  0.12700000000E+01 0. -1.
         25    2    1    2    0    0  0.00000000000E+00  0.00000000000E+00  0.48263822301E+02  0.13399790508E+03  0.12500416803E+03 0.  0.
    9000005    1    3    3    0    0  0.38086798383E+01 -0.52360593655E+02 -0.12209681214E+02  0.53909313902E+02  0.10000000000E+01 0.  0.
    9000005    1    3    3    0    0 -0.38086798383E+01  0.52360593655E+02  0.60473503516E+02  0.80088591182E+02  0.10000000000E+01 0.  0.
<mgrwt>
<rscale>  0 0.12500417E+03</rscale>
<asrwt>0</asrwt>
<pdfrwt beam="2">  1        4 0.65949295E-02 0.12500417E+03</pdfrwt>
<pdfrwt beam="1">  1       -4 0.14020133E-01 0.12500417E+03</pdfrwt>
<totfact> 0.10258271E+04</totfact>
</mgrwt>
</event>
<event>
 5    1  0.3516911E-002  0.1250027E+03  0.7818608E-02  0.1235065E+00
         -4   -1    0    0    0  501 -0.00000000000E+00  0.00000000000E+00  0.20368293871E+03  0.20368689802E+03  0.12700000000E+01 0.  1.
          4   -1    0    0  501    0  0.00000000000E+00 -0.00000000000E+00 -0.19153751947E+02  0.19195809794E+02  0.12700000000E+01 0.  1.
         25    2    1    2    0    0  0.00000000000E+00  0.00000000000E+00  0.18452918677E+03  0.22288270781E+03  0.12500272266E+03 0.  0.
    9000005    1    3    3    0    0 -0.44047061007E+02 -0.41869298298E+02  0.11824039328E+03  0.13294725392E+03  0.10000000000E+01 0.  0.
    9000005    1    3    3    0    0  0.44047061007E+02  0.41869298298E+02  0.66288793491E+02  0.89935453887E+02  0.10000000000E+01 0.  0.
<mgrwt>
<rscale>  0 0.12500272E+03</rscale>
<asrwt>0</asrwt>
<pdfrwt beam="2">  1        4 0.29502709E-02 0.12500272E+03</pdfrwt>
<pdfrwt beam="1">  1       -4 0.31339376E-01 0.12500272E+03</pdfrwt>
<totfact> 0.86408990E+03</totfact>
</mgrwt>
</event>
<event>
 5    1  0.3516911E-002  0.1250024E+03  0.7818608E-02  0.1235066E+00
          4   -1    0    0  501    0  0.00000000000E+00  0.00000000000E+00  0.13982738409E+02  0.14040294634E+02  0.12700000000E+01 0. -1.
         -4   -1    0    0    0  501 -0.00000000000E+00 -0.00000000000E+00 -0.27874008235E+03  0.27874297554E+03  0.12700000000E+01 0. -1.
         25    2    1    2    0    0  0.00000000000E+00  0.00000000000E+00 -0.26475734394E+03  0.29278327017E+03  0.12500236845E+03 0.  0.
    9000005    1    3    3    0    0  0.30202540663E+02  0.26066596143E+02 -0.19714708955E+02  0.44512140436E+02  0.10000000000E+01 0.  0.
    9000005    1    3    3    0    0 -0.30202540663E+02 -0.26066596143E+02 -0.24504263499E+03  0.24827112973E+03  0.10000000000E+01 0.  0.
<mgrwt>
<rscale>  0 0.12500237E+03</rscale>
<asrwt>0</asrwt>
<pdfrwt beam="1">  1        4 0.21558407E-02 0.12500237E+03</pdfrwt>
<pdfrwt beam="2">  1       -4 0.42887735E-01 0.12500237E+03</pdfrwt>
<totfact> 0.76509079E+03</totfact>
</mgrwt>
</event>
<event>
 5    1  0.3516911E-002  0.1249859E+03  0.7818608E-02  0.1235091E+00
         -4   -1    0    0    0  501 -0.00000000000E+00  0.00000000000E+00  0.56618213158E+03  0.56618355595E+03  0.12700000000E+01 0.  1.
          4   -1    0    0  501    0  0.00000000000E+00 -0.00000000000E+00 -0.68378205569E+01  0.69547602380E+01  0.12700000000E+01 0.  1.
         25    2    1    2    0    0  0.00000000000E+00  0.00000000000E+00  0.55934431103E+03  0.57313831618E+03  0.12498588401E+03 0.  0.
    9000005    1    3    3    0    0 -0.39165222872E+02 -0.48641043300E+02  0.26994238951E+03  0.27707356321E+03  0.10000000000E+01 0.  0.
    9000005    1    3    3    0    0  0.39165222872E+02  0.48641043300E+02  0.28940192152E+03  0.29606475298E+03  0.10000000000E+01 0.  0.
<mgrwt>
<rscale>  0 0.12498588E+03</rscale>
<asrwt>0</asrwt>
<pdfrwt beam="2">  1        4 0.10610775E-02 0.12498588E+03</pdfrwt>
<pdfrwt beam="1">  1       -4 0.87114037E-01 0.12498588E+03</pdfrwt>
<totfact> 0.50623999E+03</totfact>
</mgrwt>
</event>
<event>
 5    1  0.3516911E-002  0.1249981E+03  0.7818608E-02  0.1235072E+00
          4   -1    0    0  501    0  0.00000000000E+00  0.00000000000E+00  0.22375870865E+02  0.22411882941E+02  0.12700000000E+01 0. -1.
         -4   -1    0    0    0  501 -0.00000000000E+00 -0.00000000000E+00 -0.17439018384E+03  0.17439480818E+03  0.12700000000E+01 0. -1.
         25    2    1    2    0    0  0.00000000000E+00  0.00000000000E+00 -0.15201431298E+03  0.19680669112E+03  0.12499808927E+03 0.  0.
    9000005    1    3    3    0    0  0.27932512908E+02 -0.38193780435E+02 -0.14027478697E+03  0.14804393267E+03  0.10000000000E+01 0.  0.
    9000005    1    3    3    0    0 -0.27932512908E+02  0.38193780435E+02 -0.11739526013E+02  0.48762758457E+02  0.10000000000E+01 0.  0.
<mgrwt>
<rscale>  0 0.12499809E+03</rscale>
<asrwt>0</asrwt>
<pdfrwt beam="1">  1        4 0.34455677E-02 0.12499809E+03</pdfrwt>
<pdfrwt beam="2">  1       -4 0.26832384E-01 0.12499809E+03</pdfrwt>
<totfact> 0.90680154E+03</totfact>
</mgrwt>
</event>
<event>
 5    1  0.3516911E-002  0.1249992E+03  0.7818608E-02  0.1235071E+00
         -4   -1    0    0    0  501 -0.00000000000E+00  0.00000000000E+00  0.95089962347E+02  0.95098442885E+02  0.12700000000E+01 0. -1.
          4   -1    0    0  501    0  0.00000000000E+00 -0.00000000000E+00 -0.41058831981E+02  0.41078468614E+02  0.12700000000E+01 0. -1.
         25    2    1    2    0    0  0.00000000000E+00  0.00000000000E+00  0.54031130366E+02  0.13617691150E+03  0.12499915270E+03 0.  0.
    9000005    1    3    3    0    0  0.26775464726E+02 -0.52592801967E+02  0.49402305619E+02  0.76970878457E+02  0.10000000000E+01 0.  0.
    9000005    1    3    3    0    0 -0.26775464726E+02  0.52592801967E+02  0.46288247469E+01  0.59206033042E+02  0.10000000000E+01 0.  0.
<mgrwt>
<rscale>  0 0.12499915E+03</rscale>
<asrwt>0</asrwt>
<pdfrwt beam="2">  1        4 0.63189063E-02 0.12499915E+03</pdfrwt>
<pdfrwt beam="1">  1       -4 0.14631388E-01 0.12499915E+03</pdfrwt>
<totfact> 0.10213519E+04</totfact>
</mgrwt>
</event>
<event>
 5    1  0.3516911E-002  0.1250003E+03  0.7818608E-02  0.1235069E+00
          4   -1    0    0  501    0  0.00000000000E+00  0.00000000000E+00  0.90601395616E+02  0.90610296256E+02  0.12700000000E+01 0.  1.
         -4   -1    0    0    0  501 -0.00000000000E+00 -0.00000000000E+00 -0.43094522629E+02  0.43113232082E+02  0.12700000000E+01 0.  1.
         25    2    1    2    0    0  0.00000000000E+00  0.00000000000E+00  0.47506872988E+02  0.13372352834E+03  0.12500031620E+03 0.  0.
    9000005    1    3    3    0    0  0.32947114457E+02  0.25461776219E+02  0.73604240677E+02  0.84571854922E+02  0.10000000000E+01 0.  0.
    9000005    1    3    3    0    0 -0.32947114457E+02 -0.25461776219E+02 -0.26097367690E+02  0.49151673416E+02  0.10000000000E+01 0.  0.
<mgrwt>
<rscale>  0 0.12500032E+03</rscale>
<asrwt>0</asrwt>
<pdfrwt beam="1">  1        4 0.13940800E-01 0.12500032E+03</pdfrwt>
<pdfrwt beam="2">  1       -4 0.66320505E-02 0.12500032E+03</pdfrwt>
<totfact> 0.10264973E+04</totfact>
</mgrwt>
</event>
<event>
 5    1  0.3516911E-002  0.1250053E+03  0.7818608E-02  0.1235061E+00
          4   -1    0    0  501    0  0.00000000000E+00  0.00000000000E+00  0.12776107592E+03  0.12776738793E+03  0.12700000000E+01 0.  1.
         -4   -1    0    0    0  501 -0.00000000000E+00 -0.00000000000E+00 -0.30556988588E+02  0.30583368872E+02  0.12700000000E+01 0.  1.
         25    2    1    2    0    0  0.00000000000E+00  0.00000000000E+00  0.97204087328E+02  0.15835075680E+03  0.12500531024E+03 0.  0.
    9000005    1    3    3    0    0 -0.25241030189E+02 -0.53443055820E+02  0.74324042172E+02  0.94964904387E+02  0.10000000000E+01 0.  0.
    9000005    1    3    3    0    0  0.25241030189E+02  0.53443055820E+02  0.22880045155E+02  0.63385852418E+02  0.10000000000E+01 0.  0.
<mgrwt>
<rscale>  0 0.12500531E+03</rscale>
<asrwt>0</asrwt>
<pdfrwt beam="1">  1        4 0.19658065E-01 0.12500531E+03</pdfrwt>
<pdfrwt beam="2">  1       -4 0.47035900E-02 0.12500531E+03</pdfrwt>
<totfact> 0.97650033E+03</totfact>
</mgrwt>
</event>
<event>
 5    1  0.3516911E-002  0.1250007E+03  0.7818608E-02  0.1235068E+00
          4   -1    0    0  501    0  0.00000000000E+00  0.00000000000E+00  0.10008259208E+03  0.10009064960E+03  0.12700000000E+01 0. -1.
         -4   -1    0    0    0  501 -0.00000000000E+00 -0.00000000000E+00 -0.39010736693E+02  0.39031403733E+02  0.12700000000E+01 0. -1.
         25    2    1    2    0    0  0.00000000000E+00  0.00000000000E+00  0.61071855387E+02  0.13912205333E+03  0.12500069681E+03 0.  0.
    9000005    1    3    3    0    0  0.58163538998E+02  0.53723781329E+01  0.55258747758E+02  0.80413860244E+02  0.10000000000E+01 0.  0.
    9000005    1    3    3    0    0 -0.58163538998E+02 -0.53723781329E+01  0.58131076292E+01  0.58708193090E+02  0.10000000000E+01 0.  0.
<mgrwt>
<rscale>  0 0.12500070E+03</rscale>
<asrwt>0</asrwt>
<pdfrwt beam="1">  1        4 0.15399531E-01 0.12500070E+03</pdfrwt>
<pdfrwt beam="2">  1       -4 0.60038616E-02 0.12500070E+03</pdfrwt>
<totfact> 0.10151655E+04</totfact>
</mgrwt>
</event>
<event>
 5    1  0.3516911E-002  0.1250007E+03  0.7818608E-02  0.1235068E+00
          4   -1    0    0  501    0  0.00000000000E+00  0.00000000000E+00  0.53115682564E+03  0.53115834392E+03  0.12700000000E+01 0.  1.
         -4   -1    0    0    0  501 -0.00000000000E+00 -0.00000000000E+00 -0.72979470296E+01  0.74076265326E+01  0.12700000000E+01 0.  1.
         25    2    1    2    0    0  0.00000000000E+00  0.00000000000E+00  0.52385887861E+03  0.53856597046E+03  0.12500071935E+03 0.  0.
    9000005    1    3    3    0    0  0.14753589853E+02 -0.25254230423E+02  0.49986845709E+03  0.50072439422E+03  0.10000000000E+01 0.  0.
    9000005    1    3    3    0    0 -0.14753589853E+02  0.25254230423E+02  0.23990421511E+02  0.37841576237E+02  0.10000000000E+01 0.  0.
<mgrwt>
<rscale>  0 0.12500072E+03</rscale>
<asrwt>0</asrwt>
<pdfrwt beam="1">  1        4 0.81724977E-01 0.12500072E+03</pdfrwt>
<pdfrwt beam="2">  1       -4 0.11313149E-02 0.12500072E+03</pdfrwt>
<totfact> 0.52990714E+03</totfact>
</mgrwt>
</event>
<event>
 5    1  0.3516911E-002  0.1250029E+03  0.7818608E-02  0.1235065E+00
         -4   -1    0    0    0  501 -0.00000000000E+00  0.00000000000E+00  0.83695100408E+02  0.83704735424E+02  0.12700000000E+01 0.  1.
          4   -1    0    0  501    0  0.00000000000E+00 -0.00000000000E+00 -0.46653576242E+02  0.46670858961E+02  0.12700000000E+01 0.  1.
         25    2    1    2    0    0  0.00000000000E+00  0.00000000000E+00  0.37041524167E+02  0.13037559438E+03  0.12500288436E+03 0.  0.
    9000005    1    3    3    0    0 -0.33344724377E+02 -0.52588693066E+02  0.24038612208E+02  0.66755495347E+02  0.10000000000E+01 0.  0.
    9000005    1    3    3    0    0  0.33344724377E+02  0.52588693066E+02  0.13002911958E+02  0.63620099037E+02  0.10000000000E+01 0.  0.
<mgrwt>
<rscale>  0 0.12500288E+03</rscale>
<asrwt>0</asrwt>
<pdfrwt beam="2">  1        4 0.71795438E-02 0.12500288E+03</pdfrwt>
<pdfrwt beam="1">  1       -4 0.12878240E-01 0.12500288E+03</pdfrwt>
<totfact> 0.10335806E+04</totfact>
</mgrwt>
</event>
<event>
 5    1  0.3516911E-002  0.1249991E+03  0.7818608E-02  0.1235071E+00
          4   -1    0    0  501    0  0.00000000000E+00  0.00000000000E+00  0.11517313631E+04  0.11517320633E+04  0.12700000000E+01 0.  1.
         -4   -1    0    0    0  501 -0.00000000000E+00 -0.00000000000E+00 -0.32719662489E+01  0.35097953123E+01  0.12700000000E+01 0.  1.
         25    2    1    2    0    0  0.00000000000E+00  0.00000000000E+00  0.11484593969E+04  0.11552418587E+04  0.12499906276E+03 0.  0.
    9000005    1    3    3    0    0  0.60777976873E+02  0.13648242448E+02  0.52806181467E+03  0.53172409868E+03  0.10000000000E+01 0.  0.
    9000005    1    3    3    0    0 -0.60777976873E+02 -0.13648242448E+02  0.62039758221E+03  0.62351775998E+03  0.10000000000E+01 0.  0.
<mgrwt>
<rscale>  0 0.12499906E+03</rscale>
<asrwt>0</asrwt>
<pdfrwt beam="1">  1        4 0.17720792E+00 0.12499906E+03</pdfrwt>
<pdfrwt beam="2">  1       -4 0.52172745E-03 0.12499906E+03</pdfrwt>
<totfact> 0.25915743E+03</totfact>
</mgrwt>
</event>
<event>
 5    1  0.3516911E-002  0.1250033E+03  0.7818608E-02  0.1235064E+00
         -4   -1    0    0    0  501 -0.00000000000E+00  0.00000000000E+00  0.29025744161E+02  0.29053514832E+02  0.12700000000E+01 0.  1.
          4   -1    0    0  501    0  0.00000000000E+00 -0.00000000000E+00 -0.13449079838E+03  0.13449679457E+03  0.12700000000E+01 0.  1.
         25    2    1    2    0    0  0.00000000000E+00  0.00000000000E+00 -0.10546505422E+03  0.16355030940E+03  0.12500330413E+03 0.  0.
    9000005    1    3    3    0    0  0.47155999022E+02 -0.35098797970E+02 -0.24982705793E+02  0.63880743980E+02  0.10000000000E+01 0.  0.
    9000005    1    3    3    0    0 -0.47155999022E+02  0.35098797970E+02 -0.80482348425E+02  0.99669565418E+02  0.10000000000E+01 0.  0.
<mgrwt>
<rscale>  0 0.12500330E+03</rscale>
<asrwt>0</asrwt>
<pdfrwt beam="2">  1        4 0.20693489E-01 0.12500330E+03</pdfrwt>
<pdfrwt beam="1">  1       -4 0.44680966E-02 0.12500330E+03</pdfrwt>
<totfact> 0.96655471E+03</totfact>
</mgrwt>
</event>
<event>
 5    1  0.3516911E-002  0.1250043E+03  0.7818608E-02  0.1235063E+00
         -4   -1    0    0    0  501 -0.00000000000E+00  0.00000000000E+00  0.32172499062E+02  0.32197555744E+02  0.12700000000E+01 0. -1.
          4   -1    0    0  501    0  0.00000000000E+00 -0.00000000000E+00 -0.12134846172E+03  0.12135510728E+03  0.12700000000E+01 0. -1.
         25    2    1    2    0    0  0.00000000000E+00  0.00000000000E+00 -0.89175962660E+02  0.15355266302E+03  0.12500427195E+03 0.  0.
    9000005    1    3    3    0    0  0.57696227342E+02  0.14700597220E+02 -0.21263170277E+02  0.63230408969E+02  0.10000000000E+01 0.  0.
    9000005    1    3    3    0    0 -0.57696227342E+02 -0.14700597220E+02 -0.67912792382E+02  0.90322254053E+02  0.10000000000E+01 0.  0.
<mgrwt>
<rscale>  0 0.12500427E+03</rscale>
<asrwt>0</asrwt>
<pdfrwt beam="2">  1        4 0.18671433E-01 0.12500427E+03</pdfrwt>
<pdfrwt beam="1">  1       -4 0.49520539E-02 0.12500427E+03</pdfrwt>
<totfact> 0.98590708E+03</totfact>
</mgrwt>
</event>
<event>
 5    1  0.3516911E-002  0.1249973E+03  0.7818608E-02  0.1235074E+00
          4   -1    0    0  501    0  0.00000000000E+00  0.00000000000E+00  0.96171641302E+02  0.96180026464E+02  0.12700000000E+01 0. -1.
         -4   -1    0    0    0  501 -0.00000000000E+00 -0.00000000000E+00 -0.40595641711E+02  0.40615502286E+02  0.12700000000E+01 0. -1.
         25    2    1    2    0    0  0.00000000000E+00  0.00000000000E+00  0.55575999591E+02  0.13679552875E+03  0.12499729979E+03 0.  0.
    9000005    1    3    3    0    0  0.21114118867E+02  0.47684206045E+02 -0.98928364965E+01  0.53089148944E+02  0.10000000000E+01 0.  0.
    9000005    1    3    3    0    0 -0.21114118867E+02 -0.47684206045E+02  0.65468836087E+02  0.83706379806E+02  0.10000000000E+01 0.  0.
<mgrwt>
<rscale>  0 0.12499730E+03</rscale>
<asrwt>0</asrwt>
<pdfrwt beam="1">  1        4 0.14797809E-01 0.12499730E+03</pdfrwt>
<pdfrwt beam="2">  1       -4 0.62476563E-02 0.12499730E+03</pdfrwt>
<totfact> 0.10200984E+04</totfact>
</mgrwt>
</event>
<event>
 4    1  0.3516911E-002  0.1249328E+03  0.7818608E-02  0.1235174E+00
         -4   -1    0    0    0  501 -0.00000000000E+00  0.00000000000E+00  0.13222732906E+02  0.13283582556E+02  0.12700000000E+01 0. -1.
          4   -1    0    0  501    0  0.00000000000E+00 -0.00000000000E+00 -0.29436201223E+03  0.29436475187E+03  0.12700000000E+01 0. -1.
    9000005    1    1    2    0    0  0.13702090866E+02 -0.57596655447E+02 -0.18956857738E+03  0.19860102603E+03  0.10000000000E+01 0.  0.
    9000005    1    1    2    0    0 -0.13702090866E+02  0.57596655447E+02 -0.91570701945E+02  0.10904730839E+03  0.10000000000E+01 0.  0.
<mgrwt>
<rscale>  0 0.12493280E+03</rscale>
<asrwt>0</asrwt>
<pdfrwt beam="2">  1        4 0.45291350E-01 0.12493280E+03</pdfrwt>
<pdfrwt beam="1">  1       -4 0.20391583E-02 0.12493280E+03</pdfrwt>
<totfact> 0.74760780E+03</totfact>
</mgrwt>
</event>
<event>
 5    1  0.3516911E-002  0.1249804E+03  0.7818608E-02  0.1235100E+00
         -4   -1    0    0    0  501 -0.00000000000E+00  0.00000000000E+00  0.39531646068E+02  0.39552040919E+02  0.12700000000E+01 0. -1.
          4   -1    0    0  501    0  0.00000000000E+00 -0.00000000000E+00 -0.98732281849E+02  0.98740449559E+02  0.12700000000E+01 0. -1.
         25    2    1    2    0    0  0.00000000000E+00  0.00000000000E+00 -0.59200635781E+02  0.13829249048E+03  0.12498038905E+03 0.  0.
    9000005    1    3    3    0    0  0.58343916952E+02 -0.40632502647E+01 -0.53931082480E+02  0.79561826937E+02  0.10000000000E+01 0.  0.
    9000005    1    3    3    0    0 -0.58343916952E+02  0.40632502647E+01 -0.52695533005E+01  0.58730663542E+02  0.10000000000E+01 0.  0.
<mgrwt>
<rscale>  0 0.12498039E+03</rscale>
<asrwt>0</asrwt>
<pdfrwt beam="2">  1        4 0.15191779E-01 0.12498039E+03</pdfrwt>
<pdfrwt beam="1">  1       -4 0.60839888E-02 0.12498039E+03</pdfrwt>
<totfact> 0.10173593E+04</totfact>
</mgrwt>
</event>
<event>
 5    1  0.3516911E-002  0.1249993E+03  0.7818608E-02  0.1235070E+00
          4   -1    0    0  501    0  0.00000000000E+00  0.00000000000E+00  0.26909588043E+02  0.26939540246E+02  0.12700000000E+01 0. -1.
         -4   -1    0    0    0  501 -0.00000000000E+00 -0.00000000000E+00 -0.14504691721E+03  0.14505247703E+03  0.12700000000E+01 0. -1.
         25    2    1    2    0    0  0.00000000000E+00  0.00000000000E+00 -0.11813732917E+03  0.17199201728E+03  0.12499930185E+03 0.  0.
    9000005    1    3    3    0    0  0.25446863482E+02 -0.31503865596E+02  0.64177328402E+01  0.41014920497E+02  0.10000000000E+01 0.  0.
    9000005    1    3    3    0    0 -0.25446863482E+02  0.31503865596E+02 -0.12455506201E+03  0.13097709678E+03  0.10000000000E+01 0.  0.
<mgrwt>
<rscale>  0 0.12499930E+03</rscale>
<asrwt>0</asrwt>
<pdfrwt beam="1">  1        4 0.41426684E-02 0.12499930E+03</pdfrwt>
<pdfrwt beam="2">  1       -4 0.22317642E-01 0.12499930E+03</pdfrwt>
<totfact> 0.95080140E+03</totfact>
</mgrwt>
</event>
<event>
 5    1  0.3516911E-002  0.1249996E+03  0.7818608E-02  0.1235070E+00
          4   -1    0    0  501    0  0.00000000000E+00  0.00000000000E+00  0.17565428490E+02  0.17611279852E+02  0.12700000000E+01 0.  1.
         -4   -1    0    0    0  501 -0.00000000000E+00 -0.00000000000E+00 -0.22204376677E+03  0.22204739868E+03  0.12700000000E+01 0.  1.
         25    2    1    2    0    0  0.00000000000E+00  0.00000000000E+00 -0.20447833828E+03  0.23965867854E+03  0.12499956548E+03 0.  0.
    9000005    1    3    3    0    0 -0.21718779429E+02  0.58595209849E+02 -0.10157820766E+03  0.11926540265E+03  0.10000000000E+01 0.  0.
    9000005    1    3    3    0    0  0.21718779429E+02 -0.58595209849E+02 -0.10290013062E+03  0.12039327589E+03  0.10000000000E+01 0.  0.
<mgrwt>
<rscale>  0 0.12499957E+03</rscale>
<asrwt>0</asrwt>
<pdfrwt beam="1">  1        4 0.27061802E-02 0.12499957E+03</pdfrwt>
<pdfrwt beam="2">  1       -4 0.34164384E-01 0.12499957E+03</pdfrwt>
<totfact> 0.83849040E+03</totfact>
</mgrwt>
</event>
<event>
 5    1  0.3516911E-002  0.1250022E+03  0.7818608E-02  0.1235066E+00
         -4   -1    0    0    0  501 -0.00000000000E+00  0.00000000000E+00  0.19097920607E+02  0.19140101137E+02  0.12700000000E+01 0.  1.
          4   -1    0    0  501    0  0.00000000000E+00 -0.00000000000E+00 -0.20427547699E+03  0.20427942481E+03  0.12700000000E+01 0.  1.
         25    2    1    2    0    0  0.00000000000E+00  0.00000000000E+00 -0.18517755639E+03  0.22341952595E+03  0.12500222872E+03 0.  0.
    9000005    1    3    3    0    0  0.15690141264E+02 -0.43803205745E+02 -0.16715444014E+03  0.17351227111E+03  0.10000000000E+01 0.  0.
    9000005    1    3    3    0    0 -0.15690141264E+02  0.43803205745E+02 -0.18023116246E+02  0.49907254840E+02  0.10000000000E+01 0.  0.
<mgrwt>
<rscale>  0 0.12500223E+03</rscale>
<asrwt>0</asrwt>
<pdfrwt beam="2">  1        4 0.31430543E-01 0.12500223E+03</pdfrwt>
<pdfrwt beam="1">  1       -4 0.29416901E-02 0.12500223E+03</pdfrwt>
<totfact> 0.86325834E+03</totfact>
</mgrwt>
</event>
<event>
 5    1  0.3516911E-002  0.1249999E+03  0.7818608E-02  0.1235069E+00
         -4   -1    0    0    0  501 -0.00000000000E+00  0.00000000000E+00  0.10235758409E+04  0.10235766288E+04  0.12700000000E+01 0. -1.
          4   -1    0    0  501    0  0.00000000000E+00 -0.00000000000E+00 -0.37097993881E+01  0.39211620089E+01  0.12700000000E+01 0. -1.
         25    2    1    2    0    0  0.00000000000E+00  0.00000000000E+00  0.10198660415E+04  0.10274977908E+04  0.12499986974E+03 0.  0.
    9000005    1    3    3    0    0 -0.30832238880E+01 -0.24785471560E+01  0.10225858782E+04  0.10225940190E+04  0.10000000000E+01 0.  0.
    9000005    1    3    3    0    0  0.30832238880E+01  0.24785471560E+01 -0.27198367036E+01  0.49037717364E+01  0.10000000000E+01 0.  0.
<mgrwt>
<rscale>  0 0.12499987E+03</rscale>
<asrwt>0</asrwt>
<pdfrwt beam="2">  1        4 0.58705717E-03 0.12499987E+03</pdfrwt>
<pdfrwt beam="1">  1       -4 0.15748965E+00 0.12499987E+03</pdfrwt>
<totfact> 0.29707960E+03</totfact>
</mgrwt>
</event>
<event>
 5    1  0.3516911E-002  0.1249968E+03  0.7818608E-02  0.1235074E+00
          4   -1    0    0  501    0  0.00000000000E+00  0.00000000000E+00  0.22754627904E+02  0.22790041489E+02  0.12700000000E+01 0.  1.
         -4   -1    0    0    0  501 -0.00000000000E+00 -0.00000000000E+00 -0.17148831600E+03  0.17149301858E+03  0.12700000000E+01 0.  1.
         25    2    1    2    0    0  0.00000000000E+00  0.00000000000E+00 -0.14873368809E+03  0.19428306007E+03  0.12499678979E+03 0.  0.
    9000005    1    3    3    0    0  0.99008823703E+01 -0.45693492906E+02 -0.13881195945E+03  0.14647758481E+03  0.10000000000E+01 0.  0.
    9000005    1    3    3    0    0 -0.99008823703E+01  0.45693492906E+02 -0.99217286396E+01  0.47805475260E+02  0.10000000000E+01 0.  0.
<mgrwt>
<rscale>  0 0.12499679E+03</rscale>
<asrwt>0</asrwt>
<pdfrwt beam="1">  1        4 0.35037980E-02 0.12499679E+03</pdfrwt>
<pdfrwt beam="2">  1       -4 0.26385903E-01 0.12499679E+03</pdfrwt>
<totfact> 0.91113920E+03</totfact>
</mgrwt>
</event>
<event>
 5    1  0.3516911E-002  0.1250030E+03  0.7818608E-02  0.1235065E+00
         -4   -1    0    0    0  501 -0.00000000000E+00  0.00000000000E+00  0.11289904716E+03  0.11290619004E+03  0.12700000000E+01 0.  1.
          4   -1    0    0  501    0  0.00000000000E+00 -0.00000000000E+00 -0.34581244444E+02  0.34604557031E+02  0.12700000000E+01 0.  1.
         25    2    1    2    0    0  0.00000000000E+00  0.00000000000E+00  0.78317802719E+02  0.14751074707E+03  0.12500296908E+03 0.  0.
    9000005    1    3    3    0    0 -0.10419409925E+01 -0.53850497815E+02  0.17588116678E+01  0.53898563751E+02  0.10000000000E+01 0.  0.
    9000005    1    3    3    0    0  0.10419409925E+01  0.53850497815E+02  0.76558991051E+02  0.93612183324E+02  0.10000000000E+01 0.  0.
<mgrwt>
<rscale>  0 0.12500297E+03</rscale>
<asrwt>0</asrwt>
<pdfrwt beam="2">  1        4 0.53225341E-02 0.12500297E+03</pdfrwt>
<pdfrwt beam="1">  1       -4 0.17371427E-01 0.12500297E+03</pdfrwt>
<totfact> 0.99795557E+03</totfact>
</mgrwt>
</event>
<event>
 5    1  0.3516911E-002  0.1249978E+03  0.7818608E-02  0.1235073E+00
          4   -1    0    0  501    0  0.00000000000E+00  0.00000000000E+00  0.25389685096E+03  0.25390002723E+03  0.12700000000E+01 0.  1.
         -4   -1    0    0    0  501 -0.00000000000E+00 -0.00000000000E+00 -0.15355158972E+02  0.15407589268E+02  0.12700000000E+01 0.  1.
         25    2    1    2    0    0  0.00000000000E+00  0.00000000000E+00  0.23854169199E+03  0.26930761650E+03  0.12499781393E+03 0.  0.
    9000005    1    3    3    0    0 -0.69835471936E+01  0.13980655605E+02  0.24962931297E+03  0.25012001630E+03  0.10000000000E+01 0.  0.
    9000005    1    3    3    0    0  0.69835471936E+01 -0.13980655605E+02 -0.11087620974E+02  0.19187600200E+02  0.10000000000E+01 0.  0.
<mgrwt>
<rscale>  0 0.12499781E+03</rscale>
<asrwt>0</asrwt>
<pdfrwt beam="1">  1        4 0.39065332E-01 0.12499781E+03</pdfrwt>
<pdfrwt beam="2">  1       -4 0.23666095E-02 0.12499781E+03</pdfrwt>
<totfact> 0.79621227E+03</totfact>
</mgrwt>
</event>
<event>
 5    1  0.3516911E-002  0.1250019E+03  0.7818608E-02  0.1235066E+00
         -4   -1    0    0    0  501 -0.00000000000E+00  0.00000000000E+00  0.24555953797E+01  0.27645702503E+01  0.12700000000E+01 0. -1.
          4   -1    0    0  501    0  0.00000000000E+00 -0.00000000000E+00 -0.14963365876E+04  0.14963371265E+04  0.12700000000E+01 0. -1.
         25    2    1    2    0    0  0.00000000000E+00  0.00000000000E+00 -0.14938809922E+04  0.14991016968E+04  0.12500191371E+03 0.  0.
    9000005    1    3    3    0    0 -0.16237515754E+02  0.28551014677E+02 -0.10934837325E+03  0.11417917538E+03  0.10000000000E+01 0.  0.
    9000005    1    3    3    0    0  0.16237515754E+02 -0.28551014677E+02 -0.13845326189E+04  0.13849225214E+04  0.10000000000E+01 0.  0.
<mgrwt>
<rscale>  0 0.12500191E+03</rscale>
<asrwt>0</asrwt>
<pdfrwt beam="2">  1        4 0.23022875E+00 0.12500191E+03</pdfrwt>
<pdfrwt beam="1">  1       -4 0.40159385E-03 0.12500191E+03</pdfrwt>
<totfact> 0.17947447E+03</totfact>
</mgrwt>
</event>
<event>
 5    1  0.3516911E-002  0.1249971E+03  0.7818608E-02  0.1235074E+00
         -4   -1    0    0    0  501 -0.00000000000E+00  0.00000000000E+00  0.48828086860E+01  0.50452671548E+01  0.12700000000E+01 0.  1.
          4   -1    0    0  501    0  0.00000000000E+00 -0.00000000000E+00 -0.78671026511E+03  0.78671129020E+03  0.12700000000E+01 0.  1.
         25    2    1    2    0    0  0.00000000000E+00  0.00000000000E+00 -0.78182745642E+03  0.79175655736E+03  0.12499709796E+03 0.  0.
    9000005    1    3    3    0    0  0.52924295871E+02  0.19206368775E+02 -0.56266317748E+03  0.56547388710E+03  0.10000000000E+01 0.  0.
    9000005    1    3    3    0    0 -0.52924295871E+02 -0.19206368775E+02 -0.21916427894E+03  0.22628267025E+03  0.10000000000E+01 0.  0.
<mgrwt>
<rscale>  0 0.12499710E+03</rscale>
<asrwt>0</asrwt>
<pdfrwt beam="2">  1        4 0.12104483E+00 0.12499710E+03</pdfrwt>
<pdfrwt beam="1">  1       -4 0.76377762E-03 0.12499710E+03</pdfrwt>
<totfact> 0.38637873E+03</totfact>
</mgrwt>
</event>
<event>
 5    1  0.3516911E-002  0.1250091E+03  0.7818608E-02  0.1235055E+00
         -4   -1    0    0    0  501 -0.00000000000E+00  0.00000000000E+00  0.14383393061E+03  0.14383953732E+03  0.12700000000E+01 0.  1.
          4   -1    0    0  501    0  0.00000000000E+00 -0.00000000000E+00 -0.27141017079E+02  0.27170714162E+02  0.12700000000E+01 0.  1.
         25    2    1    2    0    0  0.00000000000E+00  0.00000000000E+00  0.11669291353E+03  0.17101025148E+03  0.12500907984E+03 0.  0.
    9000005    1    3    3    0    0  0.45639352736E+02  0.28536026371E+02  0.10179066923E+03  0.11515031768E+03  0.10000000000E+01 0.  0.
    9000005    1    3    3    0    0 -0.45639352736E+02 -0.28536026371E+02  0.14902244307E+02  0.55859933804E+02  0.10000000000E+01 0.  0.
<mgrwt>
<rscale>  0 0.12500908E+03</rscale>
<asrwt>0</asrwt>
<pdfrwt beam="2">  1        4 0.41782568E-02 0.12500908E+03</pdfrwt>
<pdfrwt beam="1">  1       -4 0.22131012E-01 0.12500908E+03</pdfrwt>
<totfact> 0.95241265E+03</totfact>
</mgrwt>
</event>
<event>
 5    1  0.3516911E-002  0.1250011E+03  0.7818608E-02  0.1235068E+00
         -4   -1    0    0    0  501 -0.00000000000E+00  0.00000000000E+00  0.34244955383E+02  0.34268496745E+02  0.12700000000E+01 0.  1.
          4   -1    0    0  501    0  0.00000000000E+00 -0.00000000000E+00 -0.11400355415E+03  0.11401062783E+03  0.12700000000E+01 0.  1.
         25    2    1    2    0    0  0.00000000000E+00  0.00000000000E+00 -0.79758598767E+02  0.14827912458E+03  0.12500105883E+03 0.  0.
    9000005    1    3    3    0    0 -0.85958637273E+01  0.37542382712E+02  0.18499223819E+02  0.42738046924E+02  0.10000000000E+01 0.  0.
    9000005    1    3    3    0    0  0.85958637273E+01 -0.37542382712E+02 -0.98257822586E+02  0.10554107765E+03  0.10000000000E+01 0.  0.
<mgrwt>
<rscale>  0 0.12500106E+03</rscale>
<asrwt>0</asrwt>
<pdfrwt beam="2">  1        4 0.17541363E-01 0.12500106E+03</pdfrwt>
<pdfrwt beam="1">  1       -4 0.52708097E-02 0.12500106E+03</pdfrwt>
<totfact> 0.99645466E+03</totfact>
</mgrwt>
</event>
<event>
 5    1  0.3516911E-002  0.1249997E+03  0.7818608E-02  0.1235070E+00
          4   -1    0    0  501    0  0.00000000000E+00  0.00000000000E+00  0.10774657815E+04  0.10774665300E+04  0.12700000000E+01 0.  1.
         -4   -1    0    0    0  501 -0.00000000000E+00 -0.00000000000E+00 -0.35133922566E+01  0.37358834496E+01  0.12700000000E+01 0.  1.
         25    2    1    2    0    0  0.00000000000E+00  0.00000000000E+00  0.10739523893E+04  0.10812024134E+04  0.12499969768E+03 0.  0.
    9000005    1    3    3    0    0  0.11726996864E+02  0.19067405666E+02  0.10416397254E+04  0.10418807062E+04  0.10000000000E+01 0.  0.
    9000005    1    3    3    0    0 -0.11726996864E+02 -0.19067405666E+02  0.32312663853E+02  0.39321707231E+02  0.10000000000E+01 0.  0.
<mgrwt>
<rscale>  0 0.12499970E+03</rscale>
<asrwt>0</asrwt>
<pdfrwt beam="1">  1        4 0.16578109E+00 0.12499970E+03</pdfrwt>
<pdfrwt beam="2">  1       -4 0.55769432E-03 0.12499970E+03</pdfrwt>
<totfact> 0.28040349E+03</totfact>
</mgrwt>
</event>
<event>
 5    1  0.3516911E-002  0.1250001E+03  0.7818608E-02  0.1235069E+00
          4   -1    0    0  501    0  0.00000000000E+00  0.00000000000E+00  0.76720707963E+02  0.76731218746E+02  0.12700000000E+01 0. -1.
         -4   -1    0    0    0  501 -0.00000000000E+00 -0.00000000000E+00 -0.50893370384E+02  0.50909213793E+02  0.12700000000E+01 0. -1.
         25    2    1    2    0    0  0.00000000000E+00  0.00000000000E+00  0.25827337579E+02  0.12764043254E+03  0.12500011461E+03 0.  0.
    9000005    1    3    3    0    0 -0.25366960693E+02  0.11888980964E+02  0.69954368159E+02  0.75362087204E+02  0.10000000000E+01 0.  0.
    9000005    1    3    3    0    0  0.25366960693E+02 -0.11888980964E+02 -0.44127030581E+02  0.52278345336E+02  0.10000000000E+01 0.  0.
<mgrwt>
<rscale>  0 0.12500011E+03</rscale>
<asrwt>0</asrwt>
<pdfrwt beam="1">  1        4 0.11805213E-01 0.12500011E+03</pdfrwt>
<pdfrwt beam="2">  1       -4 0.78317765E-02 0.12500011E+03</pdfrwt>
<totfact> 0.10395234E+04</totfact>
</mgrwt>
</event>
<event>
 5    1  0.3516911E-002  0.1249979E+03  0.7818608E-02  0.1235073E+00
          4   -1    0    0  501    0  0.00000000000E+00  0.00000000000E+00  0.13820407420E+02  0.13878636866E+02  0.12700000000E+01 0. -1.
         -4   -1    0    0    0  501 -0.00000000000E+00 -0.00000000000E+00 -0.28198035862E+03  0.28198321855E+03  0.12700000000E+01 0. -1.
         25    2    1    2    0    0  0.00000000000E+00  0.00000000000E+00 -0.26815995120E+03  0.29586185542E+03  0.12499791225E+03 0.  0.
    9000005    1    3    3    0    0  0.11841635366E+02  0.37979125534E+02 -0.20012370918E+02  0.44543611150E+02  0.10000000000E+01 0.  0.
    9000005    1    3    3    0    0 -0.11841635366E+02 -0.37979125534E+02 -0.24814758028E+03  0.25131824427E+03  0.10000000000E+01 0.  0.
<mgrwt>
<rscale>  0 0.12499791E+03</rscale>
<asrwt>0</asrwt>
<pdfrwt beam="1">  1        4 0.21309159E-02 0.12499791E+03</pdfrwt>
<pdfrwt beam="2">  1       -4 0.43386289E-01 0.12499791E+03</pdfrwt>
<totfact> 0.76124400E+03</totfact>
</mgrwt>
</event>
<event>
 5    1  0.3516911E-002  0.1250066E+03  0.7818608E-02  0.1235059E+00
         -4   -1    0    0    0  501 -0.00000000000E+00  0.00000000000E+00  0.86507970100E+01  0.87435226831E+01  0.12700000000E+01 0.  1.
          4   -1    0    0  501    0  0.00000000000E+00 -0.00000000000E+00 -0.44909484914E+03  0.44909664486E+03  0.12700000000E+01 0.  1.
         25    2    1    2    0    0  0.00000000000E+00  0.00000000000E+00 -0.44044405213E+03  0.45784016754E+03  0.12500662366E+03 0.  0.
    9000005    1    3    3    0    0 -0.23465704882E+01 -0.62432108737E+02 -0.22588343946E+03  0.23436638585E+03  0.10000000000E+01 0.  0.
    9000005    1    3    3    0    0  0.23465704882E+01  0.62432108737E+02 -0.21456061266E+03  0.22347378169E+03  0.10000000000E+01 0.  0.
<mgrwt>
<rscale>  0 0.12500662E+03</rscale>
<asrwt>0</asrwt>
<pdfrwt beam="2">  1        4 0.69098768E-01 0.12500662E+03</pdfrwt>
<pdfrwt beam="1">  1       -4 0.13381631E-02 0.12500662E+03</pdfrwt>
<totfact> 0.59281930E+03</totfact>
</mgrwt>
</event>
<event>
 5    1  0.3516911E-002  0.1250060E+03  0.7818608E-02  0.1235060E+00
          4   -1    0    0  501    0  0.00000000000E+00  0.00000000000E+00  0.53510500360E+03  0.53510651068E+03  0.12700000000E+01 0. -1.
         -4   -1    0    0    0  501 -0.00000000000E+00 -0.00000000000E+00 -0.72439113131E+01  0.73543967198E+01  0.12700000000E+01 0. -1.
         25    2    1    2    0    0  0.00000000000E+00  0.00000000000E+00  0.52786109228E+03  0.54246090740E+03  0.12500601310E+03 0.  0.
    9000005    1    3    3    0    0 -0.34223881885E+02 -0.35212596591E+02  0.96175894386E+02  0.10799075752E+03  0.10000000000E+01 0.  0.
    9000005    1    3    3    0    0  0.34223881885E+02  0.35212596591E+02  0.43168519790E+03  0.43447014988E+03  0.10000000000E+01 0.  0.
<mgrwt>
<rscale>  0 0.12500601E+03</rscale>
<asrwt>0</asrwt>
<pdfrwt beam="1">  1        4 0.82332465E-01 0.12500601E+03</pdfrwt>
<pdfrwt beam="2">  1       -4 0.11230627E-02 0.12500601E+03</pdfrwt>
<totfact> 0.52707173E+03</totfact>
</mgrwt>
</event>
<event>
 5    1  0.3516911E-002  0.1249986E+03  0.7818608E-02  0.1235071E+00
         -4   -1    0    0    0  501 -0.00000000000E+00  0.00000000000E+00  0.18588179369E+03  0.18588613215E+03  0.12700000000E+01 0. -1.
          4   -1    0    0  501    0  0.00000000000E+00 -0.00000000000E+00 -0.20990464474E+02  0.21028849204E+02  0.12700000000E+01 0. -1.
         25    2    1    2    0    0  0.00000000000E+00  0.00000000000E+00  0.16489132922E+03  0.20691498136E+03  0.12499863622E+03 0.  0.
    9000005    1    3    3    0    0 -0.30626122359E+02  0.39201131493E+02  0.14505326421E+03  0.15334972299E+03  0.10000000000E+01 0.  0.
    9000005    1    3    3    0    0  0.30626122359E+02 -0.39201131493E+02  0.19838065007E+02  0.53565258371E+02  0.10000000000E+01 0.  0.
<mgrwt>
<rscale>  0 0.12499864E+03</rscale>
<asrwt>0</asrwt>
<pdfrwt beam="2">  1        4 0.32325887E-02 0.12499864E+03</pdfrwt>
<pdfrwt beam="1">  1       -4 0.28600485E-01 0.12499864E+03</pdfrwt>
<totfact> 0.88984910E+03</totfact>
</mgrwt>
</event>
<event>
 5    1  0.3516911E-002  0.1250076E+03  0.7818608E-02  0.1235057E+00
         -4   -1    0    0    0  501 -0.00000000000E+00  0.00000000000E+00  0.98036593837E+03  0.98036676097E+03  0.12700000000E+01 0. -1.
          4   -1    0    0  501    0  0.00000000000E+00 -0.00000000000E+00 -0.38829324266E+01  0.40853475041E+01  0.12700000000E+01 0. -1.
         25    2    1    2    0    0  0.00000000000E+00  0.00000000000E+00  0.97648300595E+03  0.98445210848E+03  0.12500757171E+03 0.  0.
    9000005    1    3    3    0    0 -0.31886899246E+02 -0.53010458980E+02  0.41831658407E+03  0.42286717491E+03  0.10000000000E+01 0.  0.
    9000005    1    3    3    0    0  0.31886899246E+02  0.53010458980E+02  0.55816642187E+03  0.56158493357E+03  0.10000000000E+01 0.  0.
<mgrwt>
<rscale>  0 0.12500757E+03</rscale>
<asrwt>0</asrwt>
<pdfrwt beam="2">  1        4 0.61300763E-03 0.12500757E+03</pdfrwt>
<pdfrwt beam="1">  1       -4 0.15084123E+00 0.12500757E+03</pdfrwt>
<totfact> 0.31118325E+03</totfact>
</mgrwt>
</event>
<event>
 5    1  0.3516911E-002  0.1249839E+03  0.7818608E-02  0.1235094E+00
          4   -1    0    0  501    0  0.00000000000E+00  0.00000000000E+00  0.16589317797E+03  0.16589803916E+03  0.12700000000E+01 0.  1.
         -4   -1    0    0    0  501 -0.00000000000E+00 -0.00000000000E+00 -0.23518387908E+02  0.23552653137E+02  0.12700000000E+01 0.  1.
         25    2    1    2    0    0  0.00000000000E+00  0.00000000000E+00  0.14237479006E+03  0.18945069230E+03  0.12498393483E+03 0.  0.
    9000005    1    3    3    0    0 -0.26454707232E+02 -0.32392948148E+02  0.81945348419E+00  0.41842874286E+02  0.10000000000E+01 0.  0.
    9000005    1    3    3    0    0  0.26454707232E+02  0.32392948148E+02  0.14155533658E+03  0.14760781801E+03  0.10000000000E+01 0.  0.
<mgrwt>
<rscale>  0 0.12498393E+03</rscale>
<asrwt>0</asrwt>
<pdfrwt beam="1">  1        4 0.25525038E-01 0.12498393E+03</pdfrwt>
<pdfrwt beam="2">  1       -4 0.36212232E-02 0.12498393E+03</pdfrwt>
<totfact> 0.91976075E+03</totfact>
</mgrwt>
</event>
<event>
 5    1  0.3516911E-002  0.1249771E+03  0.7818608E-02  0.1235105E+00
          4   -1    0    0  501    0  0.00000000000E+00  0.00000000000E+00  0.14219287398E+03  0.14219854539E+03  0.12700000000E+01 0. -1.
         -4   -1    0    0    0  501 -0.00000000000E+00 -0.00000000000E+00 -0.27440511772E+02  0.27469885080E+02  0.12700000000E+01 0. -1.
         25    2    1    2    0    0  0.00000000000E+00  0.00000000000E+00  0.11475236221E+03  0.16966843047E+03  0.12497708456E+03 0.  0.
    9000005    1    3    3    0    0 -0.30815923016E+02 -0.53471085550E+02  0.70611165830E+02  0.93785472442E+02  0.10000000000E+01 0.  0.
    9000005    1    3    3    0    0  0.30815923016E+02  0.53471085550E+02  0.44141196376E+02  0.75882958026E+02  0.10000000000E+01 0.  0.
<mgrwt>
<rscale>  0 0.12497708E+03</rscale>
<asrwt>0</asrwt>
<pdfrwt beam="1">  1        4 0.21878522E-01 0.12497708E+03</pdfrwt>
<pdfrwt beam="2">  1       -4 0.42243130E-02 0.12497708E+03</pdfrwt>
<totfact> 0.95559616E+03</totfact>
</mgrwt>
</event>
<event>
 5    1  0.3516911E-002  0.1250066E+03  0.7818608E-02  0.1235059E+00
          4   -1    0    0  501    0  0.00000000000E+00  0.00000000000E+00  0.29247536888E+03  0.29247812620E+03  0.12700000000E+01 0.  1.
         -4   -1    0    0    0  501 -0.00000000000E+00 -0.00000000000E+00 -0.13324218665E+02  0.13384606944E+02  0.12700000000E+01 0.  1.
         25    2    1    2    0    0  0.00000000000E+00  0.00000000000E+00  0.27915115022E+03  0.30586273314E+03  0.12500658725E+03 0.  0.
    9000005    1    3    3    0    0 -0.33423998568E+02 -0.52770344114E+02  0.13481296078E+03  0.14858468055E+03  0.10000000000E+01 0.  0.
    9000005    1    3    3    0    0  0.33423998568E+02  0.52770344114E+02  0.14433818943E+03  0.15727805259E+03  0.10000000000E+01 0.  0.
<mgrwt>
<rscale>  0 0.12500659E+03</rscale>
<asrwt>0</asrwt>
<pdfrwt beam="1">  1        4 0.45001063E-01 0.12500659E+03</pdfrwt>
<pdfrwt beam="2">  1       -4 0.20547374E-02 0.12500659E+03</pdfrwt>
<totfact> 0.74858323E+03</totfact>
</mgrwt>
</event>
<event>
 5    1  0.3516911E-002  0.1249878E+03  0.7818608E-02  0.1235088E+00
         -4   -1    0    0    0  501 -0.00000000000E+00  0.00000000000E+00  0.12266360716E+02  0.12331930311E+02  0.12700000000E+01 0. -1.
          4   -1    0    0  501    0  0.00000000000E+00 -0.00000000000E+00 -0.31747440091E+03  0.31747694111E+03  0.12700000000E+01 0. -1.
         25    2    1    2    0    0  0.00000000000E+00  0.00000000000E+00 -0.30520804020E+03  0.32980887142E+03  0.12498777486E+03 0.  0.
    9000005    1    3    3    0    0  0.33163826398E+02  0.22809960026E+02 -0.26486233757E+02  0.48193923231E+02  0.10000000000E+01 0.  0.
    9000005    1    3    3    0    0 -0.33163826398E+02 -0.22809960026E+02 -0.27872180644E+03  0.28161494819E+03  0.10000000000E+01 0.  0.
<mgrwt>
<rscale>  0 0.12498777E+03</rscale>
<asrwt>0</asrwt>
<pdfrwt beam="2">  1        4 0.48847449E-01 0.12498777E+03</pdfrwt>
<pdfrwt beam="1">  1       -4 0.18923719E-02 0.12498777E+03</pdfrwt>
<totfact> 0.72023988E+03</totfact>
</mgrwt>
</event>
<event>
 5    1  0.3516911E-002  0.1249994E+03  0.7818608E-02  0.1235070E+00
         -4   -1    0    0    0  501 -0.00000000000E+00  0.00000000000E+00  0.81177921895E+01  0.82165351597E+01  0.12700000000E+01 0. -1.
          4   -1    0    0  501    0  0.00000000000E+00 -0.00000000000E+00 -0.47818323909E+03  0.47818492558E+03  0.12700000000E+01 0. -1.
         25    2    1    2    0    0  0.00000000000E+00  0.00000000000E+00 -0.47006544690E+03  0.48640146074E+03  0.12499942654E+03 0.  0.
    9000005    1    3    3    0    0 -0.17561839145E+02 -0.21194155070E+02 -0.16721090909E+02  0.32221193095E+02  0.10000000000E+01 0.  0.
    9000005    1    3    3    0    0  0.17561839145E+02  0.21194155070E+02 -0.45334435599E+03  0.45418026764E+03  0.10000000000E+01 0.  0.
<mgrwt>
<rscale>  0 0.12499943E+03</rscale>
<asrwt>0</asrwt>
<pdfrwt beam="2">  1        4 0.73574355E-01 0.12499943E+03</pdfrwt>
<pdfrwt beam="1">  1       -4 0.12566168E-02 0.12499943E+03</pdfrwt>
<totfact> 0.56935828E+03</totfact>
</mgrwt>
</event>
<event>
 5    1  0.3516911E-002  0.1249968E+03  0.7818608E-02  0.1235074E+00
          4   -1    0    0  501    0  0.00000000000E+00  0.00000000000E+00  0.14890525948E+01  0.19570839609E+01  0.12700000000E+01 0.  1.
         -4   -1    0    0    0  501 -0.00000000000E+00 -0.00000000000E+00 -0.22664474996E+04  0.22664478555E+04  0.12700000000E+01 0.  1.
         25    2    1    2    0    0  0.00000000000E+00  0.00000000000E+00 -0.22649584470E+04  0.22684049394E+04  0.12499680937E+03 0.  0.
    9000005    1    3    3    0    0  0.39614559527E+01  0.21483993559E+02 -0.69978810819E+02  0.73316362950E+02  0.10000000000E+01 0.  0.
    9000005    1    3    3    0    0 -0.39614559527E+01 -0.21483993559E+02 -0.21949796362E+04  0.21950885765E+04  0.10000000000E+01 0.  0.
<mgrwt>
<rscale>  0 0.12499681E+03</rscale>
<asrwt>0</asrwt>
<pdfrwt beam="1">  1        4 0.26511661E-03 0.12499681E+03</pdfrwt>
<pdfrwt beam="2">  1       -4 0.34871787E+00 0.12499681E+03</pdfrwt>
<totfact> 0.67527482E+02</totfact>
</mgrwt>
</event>
<event>
 5    1  0.3516911E-002  0.1249928E+03  0.7818608E-02  0.1235081E+00
         -4   -1    0    0    0  501 -0.00000000000E+00  0.00000000000E+00  0.18342423794E+03  0.18342863452E+03  0.12700000000E+01 0. -1.
          4   -1    0    0  501    0  0.00000000000E+00 -0.00000000000E+00 -0.21270200017E+02  0.21308080832E+02  0.12700000000E+01 0. -1.
         25    2    1    2    0    0  0.00000000000E+00  0.00000000000E+00  0.16215403792E+03  0.20473671536E+03  0.12499276219E+03 0.  0.
    9000005    1    3    3    0    0 -0.15832123935E+02  0.25115726277E+02 -0.89876568057E+01  0.31036008596E+02  0.10000000000E+01 0.  0.
    9000005    1    3    3    0    0  0.15832123935E+02 -0.25115726277E+02  0.17114169473E+03  0.17370070676E+03  0.10000000000E+01 0.  0.
<mgrwt>
<rscale>  0 0.12499276E+03</rscale>
<asrwt>0</asrwt>
<pdfrwt beam="2">  1        4 0.32755906E-02 0.12499276E+03</pdfrwt>
<pdfrwt beam="1">  1       -4 0.28222365E-01 0.12499276E+03</pdfrwt>
<totfact> 0.89357189E+03</totfact>
</mgrwt>
</event>
<event>
 5    1  0.3516911E-002  0.1249993E+03  0.7818608E-02  0.1235070E+00
          4   -1    0    0  501    0  0.00000000000E+00  0.00000000000E+00  0.10730785527E+03  0.10731537030E+03  0.12700000000E+01 0.  1.
         -4   -1    0    0    0  501 -0.00000000000E+00 -0.00000000000E+00 -0.36382014988E+02  0.36404174412E+02  0.12700000000E+01 0.  1.
         25    2    1    2    0    0  0.00000000000E+00  0.00000000000E+00  0.70925840287E+02  0.14371954472E+03  0.12499933085E+03 0.  0.
    9000005    1    3    3    0    0  0.12856385663E+02 -0.33313776072E+02  0.94428071644E+02  0.10095917513E+03  0.10000000000E+01 0.  0.
    9000005    1    3    3    0    0 -0.12856385663E+02  0.33313776072E+02 -0.23502231357E+02  0.42760369587E+02  0.10000000000E+01 0.  0.
<mgrwt>
<rscale>  0 0.12499933E+03</rscale>
<asrwt>0</asrwt>
<pdfrwt beam="1">  1        4 0.16511184E-01 0.12499933E+03</pdfrwt>
<pdfrwt beam="2">  1       -4 0.55995157E-02 0.12499933E+03</pdfrwt>
<totfact> 0.10057221E+04</totfact>
</mgrwt>
</event>
<event>
 5    1  0.3516911E-002  0.1249991E+03  0.7818608E-02  0.1235071E+00
          4   -1    0    0  501    0  0.00000000000E+00  0.00000000000E+00  0.40183256771E+03  0.40183457464E+03  0.12700000000E+01 0. -1.
         -4   -1    0    0    0  501 -0.00000000000E+00 -0.00000000000E+00 -0.96774300365E+01  0.97604073742E+01  0.12700000000E+01 0. -1.
         25    2    1    2    0    0  0.00000000000E+00  0.00000000000E+00  0.39215513768E+03  0.41159498201E+03  0.12499910884E+03 0.  0.
    9000005    1    3    3    0    0 -0.49424491206E+02 -0.26793309410E+02  0.10623027577E+03  0.12019373216E+03  0.10000000000E+01 0.  0.
    9000005    1    3    3    0    0  0.49424491206E+02  0.26793309410E+02  0.28592486190E+03  0.29140124985E+03  0.10000000000E+01 0.  0.
<mgrwt>
<rscale>  0 0.12499911E+03</rscale>
<asrwt>0</asrwt>
<pdfrwt beam="1">  1        4 0.61826946E-01 0.12499911E+03</pdfrwt>
<pdfrwt beam="2">  1       -4 0.14953723E-02 0.12499911E+03</pdfrwt>
<totfact> 0.63441722E+03</totfact>
</mgrwt>
</event>
<event>
 5    1  0.3516911E-002  0.1250176E+03  0.7818608E-02  0.1235042E+00
         -4   -1    0    0    0  501 -0.00000000000E+00  0.00000000000E+00  0.13301098882E+03  0.13301705172E+03  0.12700000000E+01 0.  1.
          4   -1    0    0  501    0  0.00000000000E+00 -0.00000000000E+00 -0.29355666617E+02  0.29383125473E+02  0.12700000000E+01 0.  1.
         25    2    1    2    0    0  0.00000000000E+00  0.00000000000E+00  0.10365532220E+03  0.16240017719E+03  0.12501756568E+03 0.  0.
    9000005    1    3    3    0    0  0.14552895652E+02 -0.50247427528E+02  0.73989901623E+01  0.52842556718E+02  0.10000000000E+01 0.  0.
    9000005    1    3    3    0    0 -0.14552895652E+02  0.50247427528E+02  0.96256332042E+02  0.10955762047E+03  0.10000000000E+01 0.  0.
<mgrwt>
<rscale>  0 0.12501757E+03</rscale>
<asrwt>0</asrwt>
<pdfrwt beam="2">  1        4 0.45188350E-02 0.12501757E+03</pdfrwt>
<pdfrwt beam="1">  1       -4 0.20465808E-01 0.12501757E+03</pdfrwt>
<totfact> 0.96843803E+03</totfact>
</mgrwt>
</event>
<event>
 5    1  0.3516911E-002  0.1250422E+03  0.7818608E-02  0.1235003E+00
         -4   -1    0    0    0  501 -0.00000000000E+00  0.00000000000E+00  0.17184054602E+02  0.17230920827E+02  0.12700000000E+01 0.  1.
          4   -1    0    0  501    0  0.00000000000E+00 -0.00000000000E+00 -0.22711327027E+03  0.22711682111E+03  0.12700000000E+01 0.  1.
         25    2    1    2    0    0  0.00000000000E+00  0.00000000000E+00 -0.20992921567E+03  0.24434774194E+03  0.12504216649E+03 0.  0.
    9000005    1    3    3    0    0  0.41148477632E+02 -0.46857203605E+02 -0.96426386295E+02  0.11483833295E+03  0.10000000000E+01 0.  0.
    9000005    1    3    3    0    0 -0.41148477632E+02  0.46857203605E+02 -0.11350282937E+03  0.12950940899E+03  0.10000000000E+01 0.  0.
<mgrwt>
<rscale>  0 0.12504217E+03</rscale>
<asrwt>0</asrwt>
<pdfrwt beam="2">  1        4 0.34944379E-01 0.12504217E+03</pdfrwt>
<pdfrwt beam="1">  1       -4 0.26475791E-02 0.12504217E+03</pdfrwt>
<totfact> 0.83075987E+03</totfact>
</mgrwt>
</event>
<event>
 5    1  0.3516911E-002  0.1249708E+03  0.7818608E-02  0.1235115E+00
         -4   -1    0    0    0  501 -0.00000000000E+00  0.00000000000E+00  0.14477167843E+02  0.14532766040E+02  0.12700000000E+01 0.  1.
          4   -1    0    0  501    0  0.00000000000E+00 -0.00000000000E+00 -0.26912124106E+03  0.26912423765E+03  0.12700000000E+01 0.  1.
         25    2    1    2    0    0  0.00000000000E+00  0.00000000000E+00 -0.25464407322E+03  0.28365700369E+03  0.12497076345E+03 0.  0.
    9000005    1    3    3    0    0 -0.32290009902E+02  0.50640012204E+02 -0.88246921207E+02  0.10675005704E+03  0.10000000000E+01 0.  0.
    9000005    1    3    3    0    0  0.32290009902E+02 -0.50640012204E+02 -0.16639715201E+03  0.17690694665E+03  0.10000000000E+01 0.  0.
<mgrwt>
<rscale>  0 0.12497076E+03</rscale>
<asrwt>0</asrwt>
<pdfrwt beam="2">  1        4 0.41407771E-01 0.12497076E+03</pdfrwt>
<pdfrwt beam="1">  1       -4 0.22317641E-02 0.12497076E+03</pdfrwt>
<totfact> 0.77746203E+03</totfact>
</mgrwt>
</event>
<event>
 5    1  0.3516911E-002  0.1249909E+03  0.7818608E-02  0.1235084E+00
          4   -1    0    0  501    0  0.00000000000E+00  0.00000000000E+00  0.30599169617E+01  0.33130034429E+01  0.12700000000E+01 0. -1.
         -4   -1    0    0    0  501 -0.00000000000E+00 -0.00000000000E+00 -0.12254573499E+04  0.12254580080E+04  0.12700000000E+01 0. -1.
         25    2    1    2    0    0  0.00000000000E+00  0.00000000000E+00 -0.12223974329E+04  0.12287710114E+04  0.12499085751E+03 0.  0.
    9000005    1    3    3    0    0 -0.28528268211E+02  0.55097737985E+02 -0.68414349944E+03  0.68695192746E+03  0.10000000000E+01 0.  0.
    9000005    1    3    3    0    0  0.28528268211E+02 -0.55097737985E+02 -0.53825393350E+03  0.54181908396E+03  0.10000000000E+01 0.  0.
<mgrwt>
<rscale>  0 0.12499086E+03</rscale>
<asrwt>0</asrwt>
<pdfrwt beam="1">  1        4 0.49027624E-03 0.12499086E+03</pdfrwt>
<pdfrwt beam="2">  1       -4 0.18855104E+00 0.12499086E+03</pdfrwt>
<totfact> 0.23976698E+03</totfact>
</mgrwt>
</event>
<event>
 5    1  0.3516911E-002  0.1250007E+03  0.7818608E-02  0.1235068E+00
          4   -1    0    0  501    0  0.00000000000E+00  0.00000000000E+00  0.52108384994E+01  0.53633700102E+01  0.12700000000E+01 0.  1.
         -4   -1    0    0    0  501 -0.00000000000E+00 -0.00000000000E+00 -0.73868074075E+03  0.73868183249E+03  0.12700000000E+01 0.  1.
         25    2    1    2    0    0  0.00000000000E+00  0.00000000000E+00 -0.73346990225E+03  0.74404520250E+03  0.12500066344E+03 0.  0.
    9000005    1    3    3    0    0  0.61001919297E+02 -0.37513810816E+01 -0.44434028940E+03  0.44852491547E+03  0.10000000000E+01 0.  0.
    9000005    1    3    3    0    0 -0.61001919297E+02  0.37513810816E+01 -0.28912961286E+03  0.29552028703E+03  0.10000000000E+01 0.  0.
<mgrwt>
<rscale>  0 0.12500066E+03</rscale>
<asrwt>0</asrwt>
<pdfrwt beam="1">  1        4 0.81348522E-03 0.12500066E+03</pdfrwt>
<pdfrwt beam="2">  1       -4 0.11365493E+00 0.12500066E+03</pdfrwt>
<totfact> 0.40860017E+03</totfact>
</mgrwt>
</event>
<event>
 5    1  0.3516911E-002  0.1249693E+03  0.7818608E-02  0.1235117E+00
          4   -1    0    0  501    0  0.00000000000E+00  0.00000000000E+00  0.31481193578E+02  0.31506800046E+02  0.12700000000E+01 0.  1.
         -4   -1    0    0    0  501 -0.00000000000E+00 -0.00000000000E+00 -0.12394181946E+03  0.12394832597E+03  0.12700000000E+01 0.  1.
         25    2    1    2    0    0  0.00000000000E+00  0.00000000000E+00 -0.92460625877E+02  0.15545512601E+03  0.12496931170E+03 0.  0.
    9000005    1    3    3    0    0 -0.37837967592E+02 -0.49363015810E+02 -0.53580456897E+02  0.82099235579E+02  0.10000000000E+01 0.  0.
    9000005    1    3    3    0    0  0.37837967592E+02  0.49363015810E+02 -0.38880168980E+02  0.73355890433E+02  0.10000000000E+01 0.  0.
<mgrwt>
<rscale>  0 0.12496931E+03</rscale>
<asrwt>0</asrwt>
<pdfrwt beam="1">  1        4 0.48457309E-02 0.12496931E+03</pdfrwt>
<pdfrwt beam="2">  1       -4 0.19070442E-01 0.12496931E+03</pdfrwt>
<totfact> 0.98294047E+03</totfact>
</mgrwt>
</event>
<event>
 5    1  0.3516911E-002  0.1249972E+03  0.7818608E-02  0.1235074E+00
         -4   -1    0    0    0  501 -0.00000000000E+00  0.00000000000E+00  0.34669625921E+02  0.34692879118E+02  0.12700000000E+01 0. -1.
          4   -1    0    0  501    0  0.00000000000E+00 -0.00000000000E+00 -0.11260097875E+03  0.11260814053E+03  0.12700000000E+01 0. -1.
         25    2    1    2    0    0  0.00000000000E+00  0.00000000000E+00 -0.77931352826E+02  0.14730101965E+03  0.12499717852E+03 0.  0.
    9000005    1    3    3    0    0  0.42406648123E+02 -0.27610387796E+01 -0.92957108963E+02  0.10221531806E+03  0.10000000000E+01 0.  0.
    9000005    1    3    3    0    0 -0.42406648123E+02  0.27610387796E+01  0.15025756137E+02  0.45085701588E+02  0.10000000000E+01 0.  0.
<mgrwt>
<rscale>  0 0.12499718E+03</rscale>
<asrwt>0</asrwt>
<pdfrwt beam="2">  1        4 0.17325567E-01 0.12499718E+03</pdfrwt>
<pdfrwt beam="1">  1       -4 0.53361283E-02 0.12499718E+03</pdfrwt>
<totfact> 0.99850788E+03</totfact>
</mgrwt>
</event>
<event>
 5    1  0.3516911E-002  0.1249991E+03  0.7818608E-02  0.1235071E+00
         -4   -1    0    0    0  501 -0.00000000000E+00  0.00000000000E+00  0.47097108424E+01  0.48779377015E+01  0.12700000000E+01 0. -1.
          4   -1    0    0  501    0  0.00000000000E+00 -0.00000000000E+00 -0.81466939505E+03  0.81467038496E+03  0.12700000000E+01 0. -1.
         25    2    1    2    0    0  0.00000000000E+00  0.00000000000E+00 -0.80995968421E+03  0.81954832267E+03  0.12499905254E+03 0.  0.
    9000005    1    3    3    0    0  0.39209795558E+02 -0.12997096134E+02 -0.97535533969E+02  0.10592692275E+03  0.10000000000E+01 0.  0.
    9000005    1    3    3    0    0 -0.39209795558E+02  0.12997096134E+02 -0.71242415024E+03  0.71362139992E+03  0.10000000000E+01 0.  0.
<mgrwt>
<rscale>  0 0.12499905E+03</rscale>
<asrwt>0</asrwt>
<pdfrwt beam="2">  1        4 0.12534666E+00 0.12499905E+03</pdfrwt>
<pdfrwt beam="1">  1       -4 0.73758822E-03 0.12499905E+03</pdfrwt>
<totfact> 0.37407602E+03</totfact>
</mgrwt>
</event>
<event>
 5    1  0.3516911E-002  0.1249999E+03  0.7818608E-02  0.1235069E+00
          4   -1    0    0  501    0  0.00000000000E+00  0.00000000000E+00  0.18283443493E+02  0.18327498628E+02  0.12700000000E+01 0.  1.
         -4   -1    0    0    0  501 -0.00000000000E+00 -0.00000000000E+00 -0.21334624744E+03  0.21335002741E+03  0.12700000000E+01 0.  1.
         25    2    1    2    0    0  0.00000000000E+00  0.00000000000E+00 -0.19506280395E+03  0.23167752604E+03  0.12499991435E+03 0.  0.
    9000005    1    3    3    0    0  0.56981390452E+02 -0.29290088643E+01 -0.50285994479E+02  0.76060102495E+02  0.10000000000E+01 0.  0.
    9000005    1    3    3    0    0 -0.56981390452E+02  0.29290088643E+01 -0.14477680947E+03  0.15561742354E+03  0.10000000000E+01 0.  0.
<mgrwt>
<rscale>  0 0.12499991E+03</rscale>
<asrwt>0</asrwt>
<pdfrwt beam="1">  1        4 0.28165172E-02 0.12499991E+03</pdfrwt>
<pdfrwt beam="2">  1       -4 0.32826178E-01 0.12499991E+03</pdfrwt>
<totfact> 0.85052838E+03</totfact>
</mgrwt>
</event>
<event>
 5    1  0.3516911E-002  0.1249895E+03  0.7818608E-02  0.1235086E+00
          4   -1    0    0  501    0  0.00000000000E+00  0.00000000000E+00  0.11293546958E+02  0.11364730656E+02  0.12700000000E+01 0. -1.
         -4   -1    0    0    0  501 -0.00000000000E+00 -0.00000000000E+00 -0.34466671594E+03  0.34466905572E+03  0.12700000000E+01 0. -1.
         25    2    1    2    0    0  0.00000000000E+00  0.00000000000E+00 -0.33337316898E+03  0.35603378638E+03  0.12498954856E+03 0.  0.
    9000005    1    3    3    0    0 -0.18675752897E+02 -0.57702318727E+02 -0.20953325370E+03  0.21813648420E+03  0.10000000000E+01 0.  0.
    9000005    1    3    3    0    0  0.18675752897E+02  0.57702318727E+02 -0.12383991528E+03  0.13789730218E+03  0.10000000000E+01 0.  0.
<mgrwt>
<rscale>  0 0.12498955E+03</rscale>
<asrwt>0</asrwt>
<pdfrwt beam="1">  1        4 0.17431247E-02 0.12498955E+03</pdfrwt>
<pdfrwt beam="2">  1       -4 0.53031296E-01 0.12498955E+03</pdfrwt>
<totfact> 0.69081802E+03</totfact>
</mgrwt>
</event>
<event>
 5    1  0.3516911E-002  0.1249991E+03  0.7818608E-02  0.1235071E+00
          4   -1    0    0  501    0  0.00000000000E+00  0.00000000000E+00  0.55481957892E+02  0.55496491345E+02  0.12700000000E+01 0.  1.
         -4   -1    0    0    0  501 -0.00000000000E+00 -0.00000000000E+00 -0.70375284939E+02  0.70386743284E+02  0.12700000000E+01 0.  1.
         25    2    1    2    0    0  0.00000000000E+00  0.00000000000E+00 -0.14893327046E+02  0.12588323463E+03  0.12499911028E+03 0.  0.
    9000005    1    3    3    0    0 -0.43889966271E+02 -0.25889873178E+02 -0.43876822357E+02  0.67251693009E+02  0.10000000000E+01 0.  0.
    9000005    1    3    3    0    0  0.43889966271E+02  0.25889873178E+02  0.28983495311E+02  0.58631541621E+02  0.10000000000E+01 0.  0.
<mgrwt>
<rscale>  0 0.12499911E+03</rscale>
<asrwt>0</asrwt>
<pdfrwt beam="1">  1        4 0.85376852E-02 0.12499911E+03</pdfrwt>
<pdfrwt beam="2">  1       -4 0.10828966E-01 0.12499911E+03</pdfrwt>
<totfact> 0.10433727E+04</totfact>
</mgrwt>
</event>
<event>
 5    1  0.3516911E-002  0.1249966E+03  0.7818608E-02  0.1235075E+00
          4   -1    0    0  501    0  0.00000000000E+00  0.00000000000E+00  0.30002248366E+03  0.30002517161E+03  0.12700000000E+01 0.  1.
         -4   -1    0    0    0  501 -0.00000000000E+00 -0.00000000000E+00 -0.12985434547E+02  0.13047390941E+02  0.12700000000E+01 0.  1.
         25    2    1    2    0    0  0.00000000000E+00  0.00000000000E+00  0.28703704911E+03  0.31307256255E+03  0.12499664740E+03 0.  0.
    9000005    1    3    3    0    0 -0.18047665542E+02  0.59514981104E+01 -0.55848557209E+01  0.19832528197E+02  0.10000000000E+01 0.  0.
    9000005    1    3    3    0    0  0.18047665542E+02 -0.59514981104E+01  0.29262190483E+03  0.29324003436E+03  0.10000000000E+01 0.  0.
<mgrwt>
<rscale>  0 0.12499665E+03</rscale>
<asrwt>0</asrwt>
<pdfrwt beam="1">  1        4 0.46162277E-01 0.12499665E+03</pdfrwt>
<pdfrwt beam="2">  1       -4 0.20027318E-02 0.12499665E+03</pdfrwt>
<totfact> 0.73993198E+03</totfact>
</mgrwt>
</event>
<event>
 5    1  0.3516911E-002  0.1249969E+03  0.7818608E-02  0.1235074E+00
          4   -1    0    0  501    0  0.00000000000E+00  0.00000000000E+00  0.11926061920E+02  0.11993492107E+02  0.12700000000E+01 0.  1.
         -4   -1    0    0    0  501 -0.00000000000E+00 -0.00000000000E+00 -0.32653078186E+03  0.32653325160E+03  0.12700000000E+01 0.  1.
         25    2    1    2    0    0  0.00000000000E+00  0.00000000000E+00 -0.31460471994E+03  0.33852674371E+03  0.12499690555E+03 0.  0.
    9000005    1    3    3    0    0 -0.37331415072E+02  0.38865127680E+02 -0.24298527860E+03  0.24889149909E+03  0.10000000000E+01 0.  0.
    9000005    1    3    3    0    0  0.37331415072E+02 -0.38865127680E+02 -0.71619441341E+02  0.89635244624E+02  0.10000000000E+01 0.  0.
<mgrwt>
<rscale>  0 0.12499691E+03</rscale>
<asrwt>0</asrwt>
<pdfrwt beam="1">  1        4 0.18401559E-02 0.12499691E+03</pdfrwt>
<pdfrwt beam="2">  1       -4 0.50240875E-01 0.12499691E+03</pdfrwt>
<totfact> 0.71010343E+03</totfact>
</mgrwt>
</event>
<event>
 5    1  0.3516911E-002  0.1250000E+03  0.7818608E-02  0.1235069E+00
         -4   -1    0    0    0  501 -0.00000000000E+00  0.00000000000E+00  0.52293606277E+02  0.52309025583E+02  0.12700000000E+01 0. -1.
          4   -1    0    0  501    0  0.00000000000E+00 -0.00000000000E+00 -0.74666548692E+02  0.74677348598E+02  0.12700000000E+01 0. -1.
         25    2    1    2    0    0  0.00000000000E+00  0.00000000000E+00 -0.22372942416E+02  0.12698637418E+03  0.12499996270E+03 0.  0.
    9000005    1    3    3    0    0  0.33339484997E+02 -0.52406836857E+02 -0.18169558976E+02  0.64723494055E+02  0.10000000000E+01 0.  0.
    9000005    1    3    3    0    0 -0.33339484997E+02  0.52406836857E+02 -0.42033834395E+01  0.62262880126E+02  0.10000000000E+01 0.  0.
<mgrwt>
<rscale>  0 0.12499996E+03</rscale>
<asrwt>0</asrwt>
<pdfrwt beam="2">  1        4 0.11489178E-01 0.12499996E+03</pdfrwt>
<pdfrwt beam="1">  1       -4 0.80471871E-02 0.12499996E+03</pdfrwt>
<totfact> 0.10409450E+04</totfact>
</mgrwt>
</event>
<event>
 5    1  0.3516911E-002  0.1250042E+03  0.7818608E-02  0.1235063E+00
          4   -1    0    0  501    0  0.00000000000E+00  0.00000000000E+00  0.38654099500E+02  0.38674957119E+02  0.12700000000E+01 0.  1.
         -4   -1    0    0    0  501 -0.00000000000E+00 -0.00000000000E+00 -0.10101123875E+03  0.10101922220E+03  0.12700000000E+01 0.  1.
         25    2    1    2    0    0  0.00000000000E+00  0.00000000000E+00 -0.62357139253E+02  0.13969417932E+03  0.12500420361E+03 0.  0.
    9000005    1    3    3    0    0  0.44065007066E+02 -0.39650853570E+02 -0.53292898077E+02  0.79718555067E+02  0.10000000000E+01 0.  0.
    9000005    1    3    3    0    0 -0.44065007066E+02  0.39650853570E+02 -0.90642411758E+01  0.59975624254E+02  0.10000000000E+01 0.  0.
<mgrwt>
<rscale>  0 0.12500420E+03</rscale>
<asrwt>0</asrwt>
<pdfrwt beam="1">  1        4 0.59490031E-02 0.12500420E+03</pdfrwt>
<pdfrwt beam="2">  1       -4 0.15542409E-01 0.12500420E+03</pdfrwt>
<totfact> 0.10138968E+04</totfact>
</mgrwt>
</event>
<event>
 5    1  0.3516911E-002  0.1250080E+03  0.7818608E-02  0.1235057E+00
          4   -1    0    0  501    0  0.00000000000E+00  0.00000000000E+00  0.41476865094E+02  0.41496303908E+02  0.12700000000E+01 0.  1.
         -4   -1    0    0    0  501 -0.00000000000E+00 -0.00000000000E+00 -0.94145220745E+02  0.94153786377E+02  0.12700000000E+01 0.  1.
         25    2    1    2    0    0  0.00000000000E+00  0.00000000000E+00 -0.52668355651E+02  0.13565009028E+03  0.12500796498E+03 0.  0.
    9000005    1    3    3    0    0  0.29129902185E+02 -0.94988807508E+01 -0.85441165284E+02  0.90774295160E+02  0.10000000000E+01 0.  0.
    9000005    1    3    3    0    0 -0.29129902185E+02  0.94988807508E+01  0.32772809633E+02  0.44875795124E+02  0.10000000000E+01 0.  0.
<mgrwt>
<rscale>  0 0.12500796E+03</rscale>
<asrwt>0</asrwt>
<pdfrwt beam="1">  1        4 0.63832104E-02 0.12500796E+03</pdfrwt>
<pdfrwt beam="2">  1       -4 0.14486034E-01 0.12500796E+03</pdfrwt>
<totfact> 0.10222551E+04</totfact>
</mgrwt>
</event>
<event>
 5    1  0.3516911E-002  0.1249912E+03  0.7818608E-02  0.1235083E+00
         -4   -1    0    0    0  501 -0.00000000000E+00  0.00000000000E+00  0.41115718879E+01  0.43032456808E+01  0.12700000000E+01 0.  1.
          4   -1    0    0  501    0  0.00000000000E+00 -0.00000000000E+00 -0.92809931439E+03  0.92810018331E+03  0.12700000000E+01 0.  1.
         25    2    1    2    0    0  0.00000000000E+00  0.00000000000E+00 -0.92398774250E+03  0.93240342900E+03  0.12499122414E+03 0.  0.
    9000005    1    3    3    0    0  0.15503304723E+02 -0.60080356068E+02 -0.40682202110E+03  0.41152783441E+03  0.10000000000E+01 0.  0.
    9000005    1    3    3    0    0 -0.15503304723E+02  0.60080356068E+02 -0.51716572140E+03  0.52087559459E+03  0.10000000000E+01 0.  0.
<mgrwt>
<rscale>  0 0.12499122E+03</rscale>
<asrwt>0</asrwt>
<pdfrwt beam="2">  1        4 0.14279916E+00 0.12499122E+03</pdfrwt>
<pdfrwt beam="1">  1       -4 0.64736124E-03 0.12499122E+03</pdfrwt>
<totfact> 0.32955422E+03</totfact>
</mgrwt>
</event>
<event>
 5    1  0.3516911E-002  0.1249996E+03  0.7818608E-02  0.1235070E+00
          4   -1    0    0  501    0  0.00000000000E+00  0.00000000000E+00  0.86281599587E+01  0.87211263191E+01  0.12700000000E+01 0.  1.
         -4   -1    0    0    0  501 -0.00000000000E+00 -0.00000000000E+00 -0.45021006387E+03  0.45021185514E+03  0.12700000000E+01 0.  1.
         25    2    1    2    0    0  0.00000000000E+00  0.00000000000E+00 -0.44158190391E+03  0.45893298146E+03  0.12499961444E+03 0.  0.
    9000005    1    3    3    0    0  0.44998024992E+01 -0.52645089884E+02 -0.34330341853E+03  0.34734707554E+03  0.10000000000E+01 0.  0.
    9000005    1    3    3    0    0 -0.44998024992E+01  0.52645089884E+02 -0.98278485387E+02  0.11158590593E+03  0.10000000000E+01 0.  0.
<mgrwt>
<rscale>  0 0.12499961E+03</rscale>
<asrwt>0</asrwt>
<pdfrwt beam="1">  1        4 0.13346986E-02 0.12499961E+03</pdfrwt>
<pdfrwt beam="2">  1       -4 0.69270358E-01 0.12499961E+03</pdfrwt>
<totfact> 0.59198179E+03</totfact>
</mgrwt>
</event>
<event>
 5    1  0.3516911E-002  0.1249977E+03  0.7818608E-02  0.1235073E+00
          4   -1    0    0  501    0  0.00000000000E+00  0.00000000000E+00  0.42380064754E+02  0.42399089478E+02  0.12700000000E+01 0. -1.
         -4   -1    0    0    0  501 -0.00000000000E+00 -0.00000000000E+00 -0.92124455763E+02  0.92133209266E+02  0.12700000000E+01 0. -1.
         25    2    1    2    0    0  0.00000000000E+00  0.00000000000E+00 -0.49744391008E+02  0.13453229874E+03  0.12499773985E+03 0.  0.
    9000005    1    3    3    0    0  0.58276687454E+02 -0.14309273380E+01 -0.49103722796E+02  0.76225949952E+02  0.10000000000E+01 0.  0.
    9000005    1    3    3    0    0 -0.58276687454E+02  0.14309273380E+01 -0.64066821258E+00  0.58306348792E+02  0.10000000000E+01 0.  0.
<mgrwt>
<rscale>  0 0.12499774E+03</rscale>
<asrwt>0</asrwt>
<pdfrwt beam="1">  1        4 0.65221468E-02 0.12499774E+03</pdfrwt>
<pdfrwt beam="2">  1       -4 0.14175130E-01 0.12499774E+03</pdfrwt>
<totfact> 0.10248461E+04</totfact>
</mgrwt>
</event>
<event>
 5    1  0.3516911E-002  0.1249890E+03  0.7818608E-02  0.1235086E+00
          4   -1    0    0  501    0  0.00000000000E+00  0.00000000000E+00  0.32704674254E+02  0.32729323520E+02  0.12700000000E+01 0. -1.
         -4   -1    0    0    0  501 -0.00000000000E+00 -0.00000000000E+00 -0.11934612775E+03  0.11935288479E+03  0.12700000000E+01 0. -1.
         25    2    1    2    0    0  0.00000000000E+00  0.00000000000E+00 -0.86641453492E+02  0.15208220831E+03  0.12498902600E+03 0.  0.
    9000005    1    3    3    0    0  0.12131464837E+01  0.30786597696E+02  0.22825592781E+02  0.38357450488E+02  0.10000000000E+01 0.  0.
    9000005    1    3    3    0    0 -0.12131464837E+01 -0.30786597696E+02 -0.10946704627E+03  0.11372475782E+03  0.10000000000E+01 0.  0.
<mgrwt>
<rscale>  0 0.12498903E+03</rscale>
<asrwt>0</asrwt>
<pdfrwt beam="1">  1        4 0.50339043E-02 0.12498903E+03</pdfrwt>
<pdfrwt beam="2">  1       -4 0.18363358E-01 0.12498903E+03</pdfrwt>
<totfact> 0.98914671E+03</totfact>
</mgrwt>
</event>
<event>
 5    1  0.3516911E-002  0.1249998E+03  0.7818608E-02  0.1235070E+00
         -4   -1    0    0    0  501 -0.00000000000E+00  0.00000000000E+00  0.12984435483E+02  0.13046396622E+02  0.12700000000E+01 0. -1.
          4   -1    0    0  501    0  0.00000000000E+00 -0.00000000000E+00 -0.30006064159E+03  0.30006332920E+03  0.12700000000E+01 0. -1.
         25    2    1    2    0    0  0.00000000000E+00  0.00000000000E+00 -0.28707620611E+03  0.31310972582E+03  0.12499980917E+03 0.  0.
    9000005    1    3    3    0    0  0.58420840370E+02 -0.60472196223E+01 -0.90067556026E+02  0.10753012649E+03  0.10000000000E+01 0.  0.
    9000005    1    3    3    0    0 -0.58420840370E+02  0.60472196223E+01 -0.19700865008E+03  0.20557959933E+03  0.10000000000E+01 0.  0.
<mgrwt>
<rscale>  0 0.12499981E+03</rscale>
<asrwt>0</asrwt>
<pdfrwt beam="2">  1        4 0.46168144E-01 0.12499981E+03</pdfrwt>
<pdfrwt beam="1">  1       -4 0.20025787E-02 0.12499981E+03</pdfrwt>
<totfact> 0.73983511E+03</totfact>
</mgrwt>
</event>
<event>
 5    1  0.3516911E-002  0.1249976E+03  0.7818608E-02  0.1235073E+00
          4   -1    0    0  501    0  0.00000000000E+00  0.00000000000E+00  0.25830804993E+03  0.25831117196E+03  0.12700000000E+01 0. -1.
         -4   -1    0    0    0  501 -0.00000000000E+00 -0.00000000000E+00 -0.15091981091E+02  0.15145322488E+02  0.12700000000E+01 0. -1.
         25    2    1    2    0    0  0.00000000000E+00  0.00000000000E+00  0.24321606884E+03  0.27345649445E+03  0.12499759283E+03 0.  0.
    9000005    1    3    3    0    0 -0.42742712244E+02 -0.30254333302E+02  0.47006850727E+02  0.70376900676E+02  0.10000000000E+01 0.  0.
    9000005    1    3    3    0    0  0.42742712244E+02  0.30254333302E+02  0.19620921811E+03  0.20307959377E+03  0.10000000000E+01 0.  0.
<mgrwt>
<rscale>  0 0.12499759E+03</rscale>
<asrwt>0</asrwt>
<pdfrwt beam="1">  1        4 0.39744047E-01 0.12499759E+03</pdfrwt>
<pdfrwt beam="2">  1       -4 0.23261864E-02 0.12499759E+03</pdfrwt>
<totfact> 0.79058032E+03</totfact>
</mgrwt>
</event>
<event>
 5    1  0.3516911E-002  0.1250073E+03  0.7818608E-02  0.1235058E+00
          4   -1    0    0  501    0  0.00000000000E+00  0.00000000000E+00  0.11156911945E+03  0.11157634747E+03  0.12700000000E+01 0.  1.
         -4   -1    0    0    0  501 -0.00000000000E+00 -0.00000000000E+00 -0.34996127708E+02  0.35019164105E+02  0.12700000000E+01 0.  1.
         25    2    1    2    0    0  0.00000000000E+00  0.00000000000E+00  0.76572991743E+02  0.14659551158E+03  0.12500728359E+03 0.  0.
    9000005    1    3    3    0    0 -0.60332377402E+02 -0.11718291050E+02  0.51574289203E+02  0.80238528245E+02  0.10000000000E+01 0.  0.
    9000005    1    3    3    0    0  0.60332377402E+02  0.11718291050E+02  0.24998702539E+02  0.66356983331E+02  0.10000000000E+01 0.  0.
<mgrwt>
<rscale>  0 0.12500728E+03</rscale>
<asrwt>0</asrwt>
<pdfrwt beam="1">  1        4 0.17166808E-01 0.12500728E+03</pdfrwt>
<pdfrwt beam="2">  1       -4 0.53863477E-02 0.12500728E+03</pdfrwt>
<totfact> 0.99970320E+03</totfact>
</mgrwt>
</event>
<event>
 5    1  0.3516911E-002  0.1250006E+03  0.7818608E-02  0.1235068E+00
         -4   -1    0    0    0  501 -0.00000000000E+00  0.00000000000E+00  0.40415216558E+02  0.40435165753E+02  0.12700000000E+01 0.  1.
          4   -1    0    0  501    0  0.00000000000E+00 -0.00000000000E+00 -0.96605957839E+02  0.96614305307E+02  0.12700000000E+01 0.  1.
         25    2    1    2    0    0  0.00000000000E+00  0.00000000000E+00 -0.56190741281E+02  0.13704947106E+03  0.12500063245E+03 0.  0.
    9000005    1    3    3    0    0 -0.27332533465E+02  0.54620771486E+02 -0.13600052596E+02  0.62581606675E+02  0.10000000000E+01 0.  0.
    9000005    1    3    3    0    0  0.27332533465E+02 -0.54620771486E+02 -0.42590688685E+02  0.74467864385E+02  0.10000000000E+01 0.  0.
<mgrwt>
<rscale>  0 0.12500063E+03</rscale>
<asrwt>0</asrwt>
<pdfrwt beam="2">  1        4 0.14864632E-01 0.12500063E+03</pdfrwt>
<pdfrwt beam="1">  1       -4 0.62199023E-02 0.12500063E+03</pdfrwt>
<totfact> 0.10194906E+04</totfact>
</mgrwt>
</event>
<event>
 5    1  0.3516911E-002  0.1249973E+03  0.7818608E-02  0.1235073E+00
         -4   -1    0    0    0  501 -0.00000000000E+00  0.00000000000E+00  0.17820405756E+02  0.17865602741E+02  0.12700000000E+01 0.  1.
          4   -1    0    0  501    0  0.00000000000E+00 -0.00000000000E+00 -0.21886695275E+03  0.21887063738E+03  0.12700000000E+01 0.  1.
         25    2    1    2    0    0  0.00000000000E+00  0.00000000000E+00 -0.20104654700E+03  0.23673624012E+03  0.12499733328E+03 0.  0.
    9000005    1    3    3    0    0 -0.60702528709E+01  0.39515783581E+02 -0.19148593370E+03  0.19561750414E+03  0.10000000000E+01 0.  0.
    9000005    1    3    3    0    0  0.60702528709E+01 -0.39515783581E+02 -0.95606132965E+01  0.41118735979E+02  0.10000000000E+01 0.  0.
<mgrwt>
<rscale>  0 0.12499733E+03</rscale>
<asrwt>0</asrwt>
<pdfrwt beam="2">  1        4 0.33675597E-01 0.12499733E+03</pdfrwt>
<pdfrwt beam="1">  1       -4 0.27453612E-02 0.12499733E+03</pdfrwt>
<totfact> 0.84290873E+03</totfact>
</mgrwt>
</event>
<event>
 5    1  0.3516911E-002  0.1250003E+03  0.7818608E-02  0.1235069E+00
         -4   -1    0    0    0  501 -0.00000000000E+00  0.00000000000E+00  0.12267425300E+01  0.17657285281E+01  0.12700000000E+01 0.  1.
          4   -1    0    0  501    0  0.00000000000E+00 -0.00000000000E+00 -0.26101936526E+04  0.26101939616E+04  0.12700000000E+01 0.  1.
         25    2    1    2    0    0  0.00000000000E+00  0.00000000000E+00 -0.26089669101E+04  0.26119596901E+04  0.12500033925E+03 0.  0.
    9000005    1    3    3    0    0 -0.34459249799E+02 -0.41109126744E+02 -0.63456092111E+03  0.63682490749E+03  0.10000000000E+01 0.  0.
    9000005    1    3    3    0    0  0.34459249799E+02  0.41109126744E+02 -0.19744059890E+04  0.19751347826E+04  0.10000000000E+01 0.  0.
<mgrwt>
<rscale>  0 0.12500034E+03</rscale>
<asrwt>0</asrwt>
<pdfrwt beam="2">  1        4 0.40160609E+00 0.12500034E+03</pdfrwt>
<pdfrwt beam="1">  1       -4 0.23021594E-03 0.12500034E+03</pdfrwt>
<totfact> 0.38483843E+02</totfact>
</mgrwt>
</event>
<event>
 5    1  0.3516911E-002  0.1249991E+03  0.7818608E-02  0.1235071E+00
          4   -1    0    0  501    0  0.00000000000E+00  0.00000000000E+00  0.22141819351E+03  0.22142183568E+03  0.12700000000E+01 0. -1.
         -4   -1    0    0    0  501 -0.00000000000E+00 -0.00000000000E+00 -0.17615062429E+02  0.17660784931E+02  0.12700000000E+01 0. -1.
         25    2    1    2    0    0  0.00000000000E+00  0.00000000000E+00  0.20380313108E+03  0.23908262062E+03  0.12499913296E+03 0.  0.
    9000005    1    3    3    0    0 -0.23500930039E+02 -0.31304843748E+02  0.87303984776E+01  0.40118659154E+02  0.10000000000E+01 0.  0.
    9000005    1    3    3    0    0  0.23500930039E+02  0.31304843748E+02  0.19507273260E+03  0.19896396146E+03  0.10000000000E+01 0.  0.
<mgrwt>
<rscale>  0 0.12499913E+03</rscale>
<asrwt>0</asrwt>
<pdfrwt beam="1">  1        4 0.34068137E-01 0.12499913E+03</pdfrwt>
<pdfrwt beam="2">  1       -4 0.27138067E-02 0.12499913E+03</pdfrwt>
<totfact> 0.83935804E+03</totfact>
</mgrwt>
</event>
<event>
 5    1  0.3516911E-002  0.1250002E+03  0.7818608E-02  0.1235069E+00
         -4   -1    0    0    0  501 -0.00000000000E+00  0.00000000000E+00  0.60314377752E+02  0.60327747046E+02  0.12700000000E+01 0. -1.
          4   -1    0    0  501    0  0.00000000000E+00 -0.00000000000E+00 -0.64738292137E+02  0.64750748017E+02  0.12700000000E+01 0. -1.
         25    2    1    2    0    0  0.00000000000E+00  0.00000000000E+00 -0.44239143843E+01  0.12507849506E+03  0.12500023563E+03 0.  0.
    9000005    1    3    3    0    0 -0.45132463900E+02 -0.40571444272E+02 -0.17130461073E+02  0.63066901657E+02  0.10000000000E+01 0.  0.
    9000005    1    3    3    0    0  0.45132463900E+02  0.40571444272E+02  0.12706546689E+02  0.62011593406E+02  0.10000000000E+01 0.  0.
<mgrwt>
<rscale>  0 0.12500024E+03</rscale>
<asrwt>0</asrwt>
<pdfrwt beam="2">  1        4 0.99617238E-02 0.12500024E+03</pdfrwt>
<pdfrwt beam="1">  1       -4 0.92811216E-02 0.12500024E+03</pdfrwt>
<totfact> 0.10451102E+04</totfact>
</mgrwt>
</event>
<event>
 5    1  0.3516911E-002  0.1250002E+03  0.7818608E-02  0.1235069E+00
         -4   -1    0    0    0  501 -0.00000000000E+00  0.00000000000E+00  0.11175800604E+02  0.11247729511E+02  0.12700000000E+01 0.  1.
          4   -1    0    0  501    0  0.00000000000E+00 -0.00000000000E+00 -0.34833456870E+03  0.34833688385E+03  0.12700000000E+01 0.  1.
         25    2    1    2    0    0  0.00000000000E+00  0.00000000000E+00 -0.33715876810E+03  0.35958461336E+03  0.12500023705E+03 0.  0.
    9000005    1    3    3    0    0  0.16907238877E+02 -0.21639072536E+02 -0.70968580603E+01  0.28380795989E+02  0.10000000000E+01 0.  0.
    9000005    1    3    3    0    0 -0.16907238877E+02  0.21639072536E+02 -0.33006191004E+03  0.33120381737E+03  0.10000000000E+01 0.  0.
<mgrwt>
<rscale>  0 0.12500024E+03</rscale>
<asrwt>0</asrwt>
<pdfrwt beam="2">  1        4 0.53595637E-01 0.12500024E+03</pdfrwt>
<pdfrwt beam="1">  1       -4 0.17250653E-02 0.12500024E+03</pdfrwt>
<totfact> 0.68682488E+03</totfact>
</mgrwt>
</event>
<event>
 5    1  0.3516911E-002  0.1250002E+03  0.7818608E-02  0.1235069E+00
         -4   -1    0    0    0  501 -0.00000000000E+00  0.00000000000E+00  0.12866429201E+03  0.12867055972E+03  0.12700000000E+01 0.  1.
          4   -1    0    0  501    0  0.00000000000E+00 -0.00000000000E+00 -0.30339840928E+02  0.30366409856E+02  0.12700000000E+01 0.  1.
         25    2    1    2    0    0  0.00000000000E+00  0.00000000000E+00  0.98324451083E+02  0.15903696958E+03  0.12500024004E+03 0.  0.
    9000005    1    3    3    0    0  0.32655370919E+02  0.52962741729E+02  0.56563402070E+02  0.84094254947E+02  0.10000000000E+01 0.  0.
    9000005    1    3    3    0    0 -0.32655370919E+02 -0.52962741729E+02  0.41761049013E+02  0.74942714629E+02  0.10000000000E+01 0.  0.
<mgrwt>
<rscale>  0 0.12500024E+03</rscale>
<asrwt>0</asrwt>
<pdfrwt beam="2">  1        4 0.46701938E-02 0.12500024E+03</pdfrwt>
<pdfrwt beam="1">  1       -4 0.19797032E-01 0.12500024E+03</pdfrwt>
<totfact> 0.97528245E+03</totfact>
</mgrwt>
</event>
<event>
 5    1  0.3516911E-002  0.1250042E+03  0.7818608E-02  0.1235063E+00
          4   -1    0    0  501    0  0.00000000000E+00  0.00000000000E+00  0.62548756135E+02  0.62561647948E+02  0.12700000000E+01 0. -1.
         -4   -1    0    0    0  501 -0.00000000000E+00 -0.00000000000E+00 -0.62429707992E+02  0.62442624384E+02  0.12700000000E+01 0. -1.
         25    2    1    2    0    0  0.00000000000E+00  0.00000000000E+00  0.11904814232E+00  0.12500427233E+03  0.12500421564E+03 0.  0.
    9000005    1    3    3    0    0 -0.38616295067E+02  0.40882867511E+02  0.27315478566E+02  0.62528093445E+02  0.10000000000E+01 0.  0.
    9000005    1    3    3    0    0  0.38616295067E+02 -0.40882867511E+02 -0.27196430423E+02  0.62476178887E+02  0.10000000000E+01 0.  0.
<mgrwt>
<rscale>  0 0.12500422E+03</rscale>
<asrwt>0</asrwt>
<pdfrwt beam="1">  1        4 0.96248709E-02 0.12500422E+03</pdfrwt>
<pdfrwt beam="2">  1       -4 0.96065557E-02 0.12500422E+03</pdfrwt>
<totfact> 0.10451774E+04</totfact>
</mgrwt>
</event>
<event>
 5    1  0.3516911E-002  0.1249967E+03  0.7818608E-02  0.1235074E+00
          4   -1    0    0  501    0  0.00000000000E+00  0.00000000000E+00  0.29511278795E+03  0.29511552062E+03  0.12700000000E+01 0.  1.
         -4   -1    0    0    0  501 -0.00000000000E+00 -0.00000000000E+00 -0.13202507895E+02  0.13263450332E+02  0.12700000000E+01 0.  1.
         25    2    1    2    0    0  0.00000000000E+00  0.00000000000E+00  0.28191028005E+03  0.30837897095E+03  0.12499673486E+03 0.  0.
    9000005    1    3    3    0    0 -0.15002245227E+02 -0.34778062717E+02  0.26357912691E+03  0.26628844727E+03  0.10000000000E+01 0.  0.
    9000005    1    3    3    0    0  0.15002245227E+02  0.34778062717E+02  0.18331153147E+02  0.42090523682E+02  0.10000000000E+01 0.  0.
<mgrwt>
<rscale>  0 0.12499673E+03</rscale>
<asrwt>0</asrwt>
<pdfrwt beam="1">  1        4 0.45406866E-01 0.12499673E+03</pdfrwt>
<pdfrwt beam="2">  1       -4 0.20360531E-02 0.12499673E+03</pdfrwt>
<totfact> 0.74565074E+03</totfact>
</mgrwt>
</event>
<event>
 5    1  0.3516911E-002  0.1250460E+03  0.7818608E-02  0.1234997E+00
         -4   -1    0    0    0  501 -0.00000000000E+00  0.00000000000E+00  0.12584060470E+03  0.12584701304E+03  0.12700000000E+01 0. -1.
          4   -1    0    0  501    0  0.00000000000E+00 -0.00000000000E+00 -0.31043934800E+02  0.31069901639E+02  0.12700000000E+01 0. -1.
         25    2    1    2    0    0  0.00000000000E+00  0.00000000000E+00  0.94796669903E+02  0.15691691468E+03  0.12504602948E+03 0.  0.
    9000005    1    3    3    0    0  0.24970968566E+02  0.38302070314E+02  0.10089670982E+03  0.11077790355E+03  0.10000000000E+01 0.  0.
    9000005    1    3    3    0    0 -0.24970968566E+02 -0.38302070314E+02 -0.61000399201E+01  0.46139011135E+02  0.10000000000E+01 0.  0.
<mgrwt>
<rscale>  0 0.12504603E+03</rscale>
<asrwt>0</asrwt>
<pdfrwt beam="2">  1        4 0.47784805E-02 0.12504603E+03</pdfrwt>
<pdfrwt beam="1">  1       -4 0.19362583E-01 0.12504603E+03</pdfrwt>
<totfact> 0.97839197E+03</totfact>
</mgrwt>
</event>
<event>
 5    1  0.3516911E-002  0.1249992E+03  0.7818608E-02  0.1235071E+00
          4   -1    0    0  501    0  0.00000000000E+00  0.00000000000E+00  0.32622624740E+03  0.32622871944E+03  0.12700000000E+01 0. -1.
         -4   -1    0    0    0  501 -0.00000000000E+00 -0.00000000000E+00 -0.11937700304E+02  0.12005065121E+02  0.12700000000E+01 0. -1.
         25    2    1    2    0    0  0.00000000000E+00  0.00000000000E+00  0.31428854709E+03  0.33823378456E+03  0.12499920875E+03 0.  0.
    9000005    1    3    3    0    0  0.64515809698E+01 -0.51982590887E+02  0.64929953426E+02  0.83430878602E+02  0.10000000000E+01 0.  0.
    9000005    1    3    3    0    0 -0.64515809698E+01  0.51982590887E+02  0.24935859366E+03  0.25480290596E+03  0.10000000000E+01 0.  0.
<mgrwt>
<rscale>  0 0.12499921E+03</rscale>
<asrwt>0</asrwt>
<pdfrwt beam="1">  1        4 0.50194018E-01 0.12499921E+03</pdfrwt>
<pdfrwt beam="2">  1       -4 0.18419416E-02 0.12499921E+03</pdfrwt>
<totfact> 0.71039927E+03</totfact>
</mgrwt>
</event>
<event>
 5    1  0.3516911E-002  0.1250014E+03  0.7818608E-02  0.1235067E+00
          4   -1    0    0  501    0  0.00000000000E+00  0.00000000000E+00  0.28442907874E+03  0.28443191405E+03  0.12700000000E+01 0. -1.
         -4   -1    0    0    0  501 -0.00000000000E+00 -0.00000000000E+00 -0.13701683030E+02  0.13760414887E+02  0.12700000000E+01 0. -1.
         25    2    1    2    0    0  0.00000000000E+00  0.00000000000E+00  0.27072739571E+03  0.29819232894E+03  0.12500136900E+03 0.  0.
    9000005    1    3    3    0    0  0.13191127019E+02 -0.45617167306E+02  0.23227552956E+03  0.23708195506E+03  0.10000000000E+01 0.  0.
    9000005    1    3    3    0    0 -0.13191127019E+02  0.45617167306E+02  0.38451866153E+02  0.61110373880E+02  0.10000000000E+01 0.  0.
<mgrwt>
<rscale>  0 0.12500137E+03</rscale>
<asrwt>0</asrwt>
<pdfrwt beam="1">  1        4 0.43763053E-01 0.12500137E+03</pdfrwt>
<pdfrwt beam="2">  1       -4 0.21126873E-02 0.12500137E+03</pdfrwt>
<totfact> 0.75823846E+03</totfact>
</mgrwt>
</event>
<event>
 5    1  0.3516911E-002  0.1249991E+03  0.7818608E-02  0.1235071E+00
          4   -1    0    0  501    0  0.00000000000E+00  0.00000000000E+00  0.68389113391E+02  0.68400904456E+02  0.12700000000E+01 0. -1.
         -4   -1    0    0    0  501 -0.00000000000E+00 -0.00000000000E+00 -0.57093447207E+02  0.57107570549E+02  0.12700000000E+01 0. -1.
         25    2    1    2    0    0  0.00000000000E+00  0.00000000000E+00  0.11295666183E+02  0.12550847501E+03  0.12499914089E+03 0.  0.
    9000005    1    3    3    0    0  0.61319713451E+02  0.18200667129E+01  0.17603340282E+02  0.63830223951E+02  0.10000000000E+01 0.  0.
    9000005    1    3    3    0    0 -0.61319713451E+02 -0.18200667129E+01 -0.63076740986E+01  0.61678251054E+02  0.10000000000E+01 0.  0.
<mgrwt>
<rscale>  0 0.12499914E+03</rscale>
<asrwt>0</asrwt>
<pdfrwt beam="1">  1        4 0.10523395E-01 0.12499914E+03</pdfrwt>
<pdfrwt beam="2">  1       -4 0.87856008E-02 0.12499914E+03</pdfrwt>
<totfact> 0.10441969E+04</totfact>
</mgrwt>
</event>
<event>
 5    1  0.3516911E-002  0.1249938E+03  0.7818608E-02  0.1235079E+00
          4   -1    0    0  501    0  0.00000000000E+00  0.00000000000E+00  0.22666243039E+03  0.22666598830E+03  0.12700000000E+01 0.  1.
         -4   -1    0    0    0  501 -0.00000000000E+00 -0.00000000000E+00 -0.17204975786E+02  0.17251785177E+02  0.12700000000E+01 0.  1.
         25    2    1    2    0    0  0.00000000000E+00  0.00000000000E+00  0.20945745460E+03  0.24391777347E+03  0.12499381956E+03 0.  0.
    9000005    1    3    3    0    0 -0.26213800375E+01  0.59613120510E+02  0.68520837768E+02  0.90866390809E+02  0.10000000000E+01 0.  0.
    9000005    1    3    3    0    0  0.26213800375E+01 -0.59613120510E+02  0.14093661684E+03  0.15305138266E+03  0.10000000000E+01 0.  0.
<mgrwt>
<rscale>  0 0.12499382E+03</rscale>
<asrwt>0</asrwt>
<pdfrwt beam="1">  1        4 0.34875016E-01 0.12499382E+03</pdfrwt>
<pdfrwt beam="2">  1       -4 0.26507939E-02 0.12499382E+03</pdfrwt>
<totfact> 0.83228787E+03</totfact>
</mgrwt>
</event>
<event>
 5    1  0.3516911E-002  0.1250040E+03  0.7818608E-02  0.1235063E+00
          4   -1    0    0  501    0  0.00000000000E+00  0.00000000000E+00  0.23017173520E+03  0.23017523886E+03  0.12700000000E+01 0. -1.
         -4   -1    0    0    0  501 -0.00000000000E+00 -0.00000000000E+00 -0.16944710449E+02  0.16992236822E+02  0.12700000000E+01 0. -1.
         25    2    1    2    0    0  0.00000000000E+00  0.00000000000E+00  0.21322702475E+03  0.24716747568E+03  0.12500398774E+03 0.  0.
    9000005    1    3    3    0    0  0.30142641449E+02 -0.47005030387E+02  0.51128170659E+02  0.75717511515E+02  0.10000000000E+01 0.  0.
    9000005    1    3    3    0    0 -0.30142641449E+02  0.47005030387E+02  0.16209885409E+03  0.17144996417E+03  0.10000000000E+01 0.  0.
<mgrwt>
<rscale>  0 0.12500399E+03</rscale>
<asrwt>0</asrwt>
<pdfrwt beam="1">  1        4 0.35414961E-01 0.12500399E+03</pdfrwt>
<pdfrwt beam="2">  1       -4 0.26108039E-02 0.12500399E+03</pdfrwt>
<totfact> 0.82733995E+03</totfact>
</mgrwt>
</event>
<event>
 5    1  0.3516911E-002  0.1249982E+03  0.7818608E-02  0.1235072E+00
         -4   -1    0    0    0  501 -0.00000000000E+00  0.00000000000E+00  0.14656344877E+02  0.14711265927E+02  0.12700000000E+01 0.  1.
          4   -1    0    0  501    0  0.00000000000E+00 -0.00000000000E+00 -0.26596027113E+03  0.26596330333E+03  0.12700000000E+01 0.  1.
         25    2    1    2    0    0  0.00000000000E+00  0.00000000000E+00 -0.25130392625E+03  0.28067456926E+03  0.12499820190E+03 0.  0.
    9000005    1    3    3    0    0  0.10228294878E+02  0.88804096502E+01 -0.26263523196E+03  0.26298620640E+03  0.10000000000E+01 0.  0.
    9000005    1    3    3    0    0 -0.10228294878E+02 -0.88804096502E+01  0.11331305704E+02  0.17688362859E+02  0.10000000000E+01 0.  0.
<mgrwt>
<rscale>  0 0.12499820E+03</rscale>
<asrwt>0</asrwt>
<pdfrwt beam="2">  1        4 0.40921419E-01 0.12499820E+03</pdfrwt>
<pdfrwt beam="1">  1       -4 0.22592804E-02 0.12499820E+03</pdfrwt>
<totfact> 0.78091870E+03</totfact>
</mgrwt>
</event>
<event>
 5    1  0.3516911E-002  0.1250025E+03  0.7818608E-02  0.1235065E+00
         -4   -1    0    0    0  501 -0.00000000000E+00  0.00000000000E+00  0.67154678768E+02  0.67166686537E+02  0.12700000000E+01 0.  1.
          4   -1    0    0  501    0  0.00000000000E+00 -0.00000000000E+00 -0.58146161516E+02  0.58160029221E+02  0.12700000000E+01 0.  1.
         25    2    1    2    0    0  0.00000000000E+00  0.00000000000E+00  0.90085172521E+01  0.12532671576E+03  0.12500252917E+03 0.  0.
    9000005    1    3    3    0    0  0.51614516082E+02  0.19700336245E+02 -0.24781881153E+02  0.60558262458E+02  0.10000000000E+01 0.  0.
    9000005    1    3    3    0    0 -0.51614516082E+02 -0.19700336245E+02  0.33790398405E+02  0.64768453300E+02  0.10000000000E+01 0.  0.
<mgrwt>
<rscale>  0 0.12500253E+03</rscale>
<asrwt>0</asrwt>
<pdfrwt beam="2">  1        4 0.89475537E-02 0.12500253E+03</pdfrwt>
<pdfrwt beam="1">  1       -4 0.10333479E-01 0.12500253E+03</pdfrwt>
<totfact> 0.10445173E+04</totfact>
</mgrwt>
</event>
<event>
 5    1  0.3516911E-002  0.1250001E+03  0.7818608E-02  0.1235069E+00
          4   -1    0    0  501    0  0.00000000000E+00  0.00000000000E+00  0.21133942266E+03  0.21134323852E+03  0.12700000000E+01 0. -1.
         -4   -1    0    0    0  501 -0.00000000000E+00 -0.00000000000E+00 -0.18457519694E+02  0.18501160322E+02  0.12700000000E+01 0. -1.
         25    2    1    2    0    0  0.00000000000E+00  0.00000000000E+00  0.19288190296E+03  0.22984439884E+03  0.12500007676E+03 0.  0.
    9000005    1    3    3    0    0 -0.53684001294E+02 -0.22376577496E+02  0.54407356098E+02  0.79648249277E+02  0.10000000000E+01 0.  0.
    9000005    1    3    3    0    0  0.53684001294E+02  0.22376577496E+02  0.13847454686E+03  0.15019614957E+03  0.10000000000E+01 0.  0.
<mgrwt>
<rscale>  0 0.12500008E+03</rscale>
<asrwt>0</asrwt>
<pdfrwt beam="1">  1        4 0.32517408E-01 0.12500008E+03</pdfrwt>
<pdfrwt beam="2">  1       -4 0.28432689E-02 0.12500008E+03</pdfrwt>
<totfact> 0.85333348E+03</totfact>
</mgrwt>
</event>
<event>
 5    1  0.3516911E-002  0.1249997E+03  0.7818608E-02  0.1235070E+00
         -4   -1    0    0    0  501 -0.00000000000E+00  0.00000000000E+00  0.13620040378E+03  0.13620632471E+03  0.12700000000E+01 0.  1.
          4   -1    0    0  501    0  0.00000000000E+00 -0.00000000000E+00 -0.28659435323E+02  0.28687560597E+02  0.12700000000E+01 0.  1.
         25    2    1    2    0    0  0.00000000000E+00  0.00000000000E+00  0.10754096846E+03  0.16489388530E+03  0.12499973405E+03 0.  0.
    9000005    1    3    3    0    0  0.50254375935E+02 -0.36182740268E+02  0.42691131896E+02  0.75221178776E+02  0.10000000000E+01 0.  0.
    9000005    1    3    3    0    0 -0.50254375935E+02  0.36182740268E+02  0.64849836564E+02  0.89672706529E+02  0.10000000000E+01 0.  0.
<mgrwt>
<rscale>  0 0.12499973E+03</rscale>
<asrwt>0</asrwt>
<pdfrwt beam="2">  1        4 0.44117628E-02 0.12499973E+03</pdfrwt>
<pdfrwt beam="1">  1       -4 0.20956527E-01 0.12499973E+03</pdfrwt>
<totfact> 0.96408068E+03</totfact>
</mgrwt>
</event>
<event>
 5    1  0.3516911E-002  0.1250017E+03  0.7818608E-02  0.1235067E+00
         -4   -1    0    0    0  501 -0.00000000000E+00  0.00000000000E+00  0.21071525280E+02  0.21109762614E+02  0.12700000000E+01 0.  1.
          4   -1    0    0  501    0  0.00000000000E+00 -0.00000000000E+00 -0.18517696864E+03  0.18518132361E+03  0.12700000000E+01 0.  1.
         25    2    1    2    0    0  0.00000000000E+00  0.00000000000E+00 -0.16410544336E+03  0.20629108622E+03  0.12500166285E+03 0.  0.
    9000005    1    3    3    0    0 -0.47549322335E+02  0.37372851689E+02 -0.56080132030E+02  0.82484236715E+02  0.10000000000E+01 0.  0.
    9000005    1    3    3    0    0  0.47549322335E+02 -0.37372851689E+02 -0.10802531133E+03  0.12380684951E+03  0.10000000000E+01 0.  0.
<mgrwt>
<rscale>  0 0.12500166E+03</rscale>
<asrwt>0</asrwt>
<pdfrwt beam="2">  1        4 0.28492040E-01 0.12500166E+03</pdfrwt>
<pdfrwt beam="1">  1       -4 0.32450496E-02 0.12500166E+03</pdfrwt>
<totfact> 0.89081887E+03</totfact>
</mgrwt>
</event>
<event>
 5    1  0.3516911E-002  0.1250035E+03  0.7818608E-02  0.1235064E+00
          4   -1    0    0  501    0  0.00000000000E+00  0.00000000000E+00  0.89947463855E+02  0.89956429198E+02  0.12700000000E+01 0. -1.
         -4   -1    0    0    0  501 -0.00000000000E+00 -0.00000000000E+00 -0.43410142166E+02  0.43428715648E+02  0.12700000000E+01 0. -1.
         25    2    1    2    0    0  0.00000000000E+00  0.00000000000E+00  0.46537321690E+02  0.13338514485E+03  0.12500349817E+03 0.  0.
    9000005    1    3    3    0    0 -0.15182897132E+02  0.21096373339E+02 -0.37374140044E+02  0.45534642607E+02  0.10000000000E+01 0.  0.
    9000005    1    3    3    0    0  0.15182897132E+02 -0.21096373339E+02  0.83911461733E+02  0.87850502238E+02  0.10000000000E+01 0.  0.
<mgrwt>
<rscale>  0 0.12500350E+03</rscale>
<asrwt>0</asrwt>
<pdfrwt beam="1">  1        4 0.13840190E-01 0.12500350E+03</pdfrwt>
<pdfrwt beam="2">  1       -4 0.66806018E-02 0.12500350E+03</pdfrwt>
<totfact> 0.10271411E+04</totfact>
</mgrwt>
</event>
<event>
 5    1  0.3516911E-002  0.1249972E+03  0.7818608E-02  0.1235074E+00
         -4   -1    0    0    0  501 -0.00000000000E+00  0.00000000000E+00  0.38180867739E+03  0.38181078957E+03  0.12700000000E+01 0. -1.
          4   -1    0    0  501    0  0.00000000000E+00 -0.00000000000E+00 -0.10188892431E+02  0.10267737286E+02  0.12700000000E+01 0. -1.
         25    2    1    2    0    0  0.00000000000E+00  0.00000000000E+00  0.37161978496E+03  0.39207852686E+03  0.12499722656E+03 0.  0.
    9000005    1    3    3    0    0 -0.34259997260E+02  0.36584500965E+02  0.68743239534E+02  0.85081173621E+02  0.10000000000E+01 0.  0.
    9000005    1    3    3    0    0  0.34259997260E+02 -0.36584500965E+02  0.30287654543E+03  0.30699735324E+03  0.10000000000E+01 0.  0.
<mgrwt>
<rscale>  0 0.12499723E+03</rscale>
<asrwt>0</asrwt>
<pdfrwt beam="2">  1        4 0.15737494E-02 0.12499723E+03</pdfrwt>
<pdfrwt beam="1">  1       -4 0.58746024E-01 0.12499723E+03</pdfrwt>
<totfact> 0.65334583E+03</totfact>
</mgrwt>
</event>
<event>
 5    1  0.3516911E-002  0.1249998E+03  0.7818608E-02  0.1235070E+00
         -4   -1    0    0    0  501 -0.00000000000E+00  0.00000000000E+00  0.13831803700E+03  0.13832386728E+03  0.12700000000E+01 0.  1.
          4   -1    0    0  501    0  0.00000000000E+00 -0.00000000000E+00 -0.28220266073E+02  0.28248828600E+02  0.12700000000E+01 0.  1.
         25    2    1    2    0    0  0.00000000000E+00  0.00000000000E+00  0.11009777092E+03  0.16657269588E+03  0.12499977540E+03 0.  0.
    9000005    1    3    3    0    0 -0.19064985508E+02 -0.27529037623E+01 -0.24171900813E+02  0.30924633231E+02  0.10000000000E+01 0.  0.
    9000005    1    3    3    0    0  0.19064985508E+02  0.27529037623E+01  0.13426967174E+03  0.13564806265E+03  0.10000000000E+01 0.  0.
<mgrwt>
<rscale>  0 0.12499978E+03</rscale>
<asrwt>0</asrwt>
<pdfrwt beam="2">  1        4 0.43442250E-02 0.12499978E+03</pdfrwt>
<pdfrwt beam="1">  1       -4 0.21282343E-01 0.12499978E+03</pdfrwt>
<totfact> 0.96090860E+03</totfact>
</mgrwt>
</event>
<event>
 5    1  0.3516911E-002  0.1250058E+03  0.7818608E-02  0.1235060E+00
          4   -1    0    0  501    0  0.00000000000E+00  0.00000000000E+00  0.62556199912E+02  0.62569090192E+02  0.12700000000E+01 0. -1.
         -4   -1    0    0    0  501 -0.00000000000E+00 -0.00000000000E+00 -0.62423906597E+02  0.62436824189E+02  0.12700000000E+01 0. -1.
         25    2    1    2    0    0  0.00000000000E+00  0.00000000000E+00  0.13229331506E+00  0.12500591438E+03  0.12500584438E+03 0.  0.
    9000005    1    3    3    0    0  0.26691555156E+02 -0.44328868767E+02  0.35110817220E+02  0.62540044841E+02  0.10000000000E+01 0.  0.
    9000005    1    3    3    0    0 -0.26691555156E+02  0.44328868767E+02 -0.34978523905E+02  0.62465869540E+02  0.10000000000E+01 0.  0.
<mgrwt>
<rscale>  0 0.12500584E+03</rscale>
<asrwt>0</asrwt>
<pdfrwt beam="1">  1        4 0.96260160E-02 0.12500584E+03</pdfrwt>
<pdfrwt beam="2">  1       -4 0.96056631E-02 0.12500584E+03</pdfrwt>
<totfact> 0.10451353E+04</totfact>
</mgrwt>
</event>
<event>
 5    1  0.3516911E-002  0.1249989E+03  0.7818608E-02  0.1235071E+00
          4   -1    0    0  501    0  0.00000000000E+00  0.00000000000E+00  0.35622010939E+02  0.35644642842E+02  0.12700000000E+01 0.  1.
         -4   -1    0    0    0  501 -0.00000000000E+00 -0.00000000000E+00 -0.10959524820E+03  0.10960260640E+03  0.12700000000E+01 0.  1.
         25    2    1    2    0    0  0.00000000000E+00  0.00000000000E+00 -0.73973237265E+02  0.14524724924E+03  0.12499889432E+03 0.  0.
    9000005    1    3    3    0    0  0.47323684522E+02 -0.40773786754E+02 -0.39048318524E+02  0.73673631529E+02  0.10000000000E+01 0.  0.
    9000005    1    3    3    0    0 -0.47323684522E+02  0.40773786754E+02 -0.34924918741E+02  0.71573617710E+02  0.10000000000E+01 0.  0.
<mgrwt>
<rscale>  0 0.12499889E+03</rscale>
<asrwt>0</asrwt>
<pdfrwt beam="1">  1        4 0.54826164E-02 0.12499889E+03</pdfrwt>
<pdfrwt beam="2">  1       -4 0.16863114E-01 0.12499889E+03</pdfrwt>
<totfact> 0.10026217E+04</totfact>
</mgrwt>
</event>
<event>
 5    1  0.3516911E-002  0.1250050E+03  0.7818608E-02  0.1235061E+00
          4   -1    0    0  501    0  0.00000000000E+00  0.00000000000E+00  0.89016906685E+02  0.89025965739E+02  0.12700000000E+01 0. -1.
         -4   -1    0    0    0  501 -0.00000000000E+00 -0.00000000000E+00 -0.43865150292E+02  0.43883531195E+02  0.12700000000E+01 0. -1.
         25    2    1    2    0    0  0.00000000000E+00  0.00000000000E+00  0.45151756393E+02  0.13290949693E+03  0.12500501298E+03 0.  0.
    9000005    1    3    3    0    0  0.38146011364E+02  0.47135320277E+02  0.38655211753E+02  0.71917188462E+02  0.10000000000E+01 0.  0.
    9000005    1    3    3    0    0 -0.38146011364E+02 -0.47135320277E+02  0.64965446406E+01  0.60992308473E+02  0.10000000000E+01 0.  0.
<mgrwt>
<rscale>  0 0.12500501E+03</rscale>
<asrwt>0</asrwt>
<pdfrwt beam="1">  1        4 0.13697019E-01 0.12500501E+03</pdfrwt>
<pdfrwt beam="2">  1       -4 0.67505955E-02 0.12500501E+03</pdfrwt>
<totfact> 0.10281161E+04</totfact>
</mgrwt>
</event>
<event>
 5    1  0.3516911E-002  0.1249959E+03  0.7818608E-02  0.1235076E+00
          4   -1    0    0  501    0  0.00000000000E+00  0.00000000000E+00  0.80975606889E+03  0.80975706481E+03  0.12700000000E+01 0. -1.
         -4   -1    0    0    0  501 -0.00000000000E+00 -0.00000000000E+00 -0.47390599095E+01  0.49062805491E+01  0.12700000000E+01 0. -1.
         25    2    1    2    0    0  0.00000000000E+00  0.00000000000E+00  0.80501700898E+03  0.81466334536E+03  0.12499592601E+03 0.  0.
    9000005    1    3    3    0    0  0.28067630420E+02 -0.25001942182E+02  0.72786958924E+03  0.72884019368E+03  0.10000000000E+01 0.  0.
    9000005    1    3    3    0    0 -0.28067630420E+02  0.25001942182E+02  0.77147419749E+02  0.85823151679E+02  0.10000000000E+01 0.  0.
<mgrwt>
<rscale>  0 0.12499593E+03</rscale>
<asrwt>0</asrwt>
<pdfrwt beam="1">  1        4 0.12459086E+00 0.12499593E+03</pdfrwt>
<pdfrwt beam="2">  1       -4 0.74202548E-03 0.12499593E+03</pdfrwt>
<totfact> 0.37621771E+03</totfact>
</mgrwt>
</event>
<event>
 5    1  0.3516911E-002  0.1249942E+03  0.7818608E-02  0.1235078E+00
         -4   -1    0    0    0  501 -0.00000000000E+00  0.00000000000E+00  0.46598314919E+03  0.46598487982E+03  0.12700000000E+01 0.  1.
          4   -1    0    0  501    0  0.00000000000E+00 -0.00000000000E+00 -0.83321723776E+01  0.84284041509E+01  0.12700000000E+01 0.  1.
         25    2    1    2    0    0  0.00000000000E+00  0.00000000000E+00  0.45765097681E+03  0.47441328398E+03  0.12499418962E+03 0.  0.
    9000005    1    3    3    0    0  0.41942511754E+02  0.35990808894E+02  0.33950623105E+03  0.34397673401E+03  0.10000000000E+01 0.  0.
    9000005    1    3    3    0    0 -0.41942511754E+02 -0.35990808894E+02  0.11814474575E+03  0.13043654996E+03  0.10000000000E+01 0.  0.
<mgrwt>
<rscale>  0 0.12499419E+03</rscale>
<asrwt>0</asrwt>
<pdfrwt beam="2">  1        4 0.12894082E-02 0.12499419E+03</pdfrwt>
<pdfrwt beam="1">  1       -4 0.71697251E-01 0.12499419E+03</pdfrwt>
<totfact> 0.57913112E+03</totfact>
</mgrwt>
</event>
<event>
 5    1  0.3516911E-002  0.1250036E+03  0.7818608E-02  0.1235064E+00
          4   -1    0    0  501    0  0.00000000000E+00  0.00000000000E+00  0.23831425764E+01  0.27004200672E+01  0.12700000000E+01 0. -1.
         -4   -1    0    0    0  501 -0.00000000000E+00 -0.00000000000E+00 -0.15365870938E+04  0.15365876186E+04  0.12700000000E+01 0. -1.
         25    2    1    2    0    0  0.00000000000E+00  0.00000000000E+00 -0.15342039512E+04  0.15392880387E+04  0.12500360848E+03 0.  0.
    9000005    1    3    3    0    0 -0.18423626407E+02  0.56229537972E+02 -0.51950750903E+03  0.52286732819E+03  0.10000000000E+01 0.  0.
    9000005    1    3    3    0    0  0.18423626407E+02 -0.56229537972E+02 -0.10146964422E+04  0.10164207105E+04  0.10000000000E+01 0.  0.
<mgrwt>
<rscale>  0 0.12500361E+03</rscale>
<asrwt>0</asrwt>
<pdfrwt beam="1">  1        4 0.39108488E-03 0.12500361E+03</pdfrwt>
<pdfrwt beam="2">  1       -4 0.23642172E+00 0.12500361E+03</pdfrwt>
<totfact> 0.17169647E+03</totfact>
</mgrwt>
</event>
<event>
 5    1  0.3516911E-002  0.1249996E+03  0.7818608E-02  0.1235070E+00
          4   -1    0    0  501    0  0.00000000000E+00  0.00000000000E+00  0.55152044675E+02  0.55166665042E+02  0.12700000000E+01 0.  1.
         -4   -1    0    0    0  501 -0.00000000000E+00 -0.00000000000E+00 -0.70796730022E+02  0.70808120169E+02  0.12700000000E+01 0.  1.
         25    2    1    2    0    0  0.00000000000E+00  0.00000000000E+00 -0.15644685347E+02  0.12597478521E+03  0.12499956132E+03 0.  0.
    9000005    1    3    3    0    0  0.84045198379E+01 -0.58748126395E+02  0.11907016304E+02  0.60537222813E+02  0.10000000000E+01 0.  0.
    9000005    1    3    3    0    0 -0.84045198379E+01  0.58748126395E+02 -0.27551701651E+02  0.65437562398E+02  0.10000000000E+01 0.  0.
<mgrwt>
<rscale>  0 0.12499956E+03</rscale>
<asrwt>0</asrwt>
<pdfrwt beam="1">  1        4 0.84869307E-02 0.12499956E+03</pdfrwt>
<pdfrwt beam="2">  1       -4 0.10893805E-01 0.12499956E+03</pdfrwt>
<totfact> 0.10431613E+04</totfact>
</mgrwt>
</event>
<event>
 5    1  0.3516911E-002  0.1249949E+03  0.7818608E-02  0.1235077E+00
          4   -1    0    0  501    0  0.00000000000E+00  0.00000000000E+00  0.81634534503E+02  0.81644412690E+02  0.12700000000E+01 0. -1.
         -4   -1    0    0    0  501 -0.00000000000E+00 -0.00000000000E+00 -0.47825329035E+02  0.47842188467E+02  0.12700000000E+01 0. -1.
         25    2    1    2    0    0  0.00000000000E+00  0.00000000000E+00  0.33809205468E+02  0.12948660116E+03  0.12499486991E+03 0.  0.
    9000005    1    3    3    0    0 -0.95374674122E+01 -0.24366221715E+02  0.75691110503E+02  0.80092573030E+02  0.10000000000E+01 0.  0.
    9000005    1    3    3    0    0  0.95374674122E+01  0.24366221715E+02 -0.41881905035E+02  0.49394028128E+02  0.10000000000E+01 0.  0.
<mgrwt>
<rscale>  0 0.12499487E+03</rscale>
<asrwt>0</asrwt>
<pdfrwt beam="1">  1        4 0.12561216E-01 0.12499487E+03</pdfrwt>
<pdfrwt beam="2">  1       -4 0.73597997E-02 0.12499487E+03</pdfrwt>
<totfact> 0.10356702E+04</totfact>
</mgrwt>
</event>
<event>
 5    1  0.3516911E-002  0.1249988E+03  0.7818608E-02  0.1235071E+00
          4   -1    0    0  501    0  0.00000000000E+00  0.00000000000E+00  0.57415365112E+02  0.57429409286E+02  0.12700000000E+01 0. -1.
         -4   -1    0    0    0  501 -0.00000000000E+00 -0.00000000000E+00 -0.68005359386E+02  0.68017216976E+02  0.12700000000E+01 0. -1.
         25    2    1    2    0    0  0.00000000000E+00  0.00000000000E+00 -0.10589994274E+02  0.12544662626E+03  0.12499883224E+03 0.  0.
    9000005    1    3    3    0    0  0.22399015141E+02 -0.48031237946E+02  0.27936483171E+02  0.59917967171E+02  0.10000000000E+01 0.  0.
    9000005    1    3    3    0    0 -0.22399015141E+02  0.48031237946E+02 -0.38526477445E+02  0.65528659091E+02  0.10000000000E+01 0.  0.
<mgrwt>
<rscale>  0 0.12499883E+03</rscale>
<asrwt>0</asrwt>
<pdfrwt beam="1">  1        4 0.88351256E-02 0.12499883E+03</pdfrwt>
<pdfrwt beam="2">  1       -4 0.10464355E-01 0.12499883E+03</pdfrwt>
<totfact> 0.10443409E+04</totfact>
</mgrwt>
</event>
<event>
 4    1  0.3516911E-002  0.1248662E+03  0.7818608E-02  0.1235278E+00
         -4   -1    0    0    0  501 -0.00000000000E+00  0.00000000000E+00  0.16154782772E+02  0.16204626080E+02  0.12700000000E+01 0.  1.
          4   -1    0    0  501    0  0.00000000000E+00 -0.00000000000E+00 -0.24086107978E+03  0.24086442796E+03  0.12700000000E+01 0.  1.
    9000005    1    1    2    0    0  0.26085132552E+02  0.54955189221E+02 -0.83502080781E+02  0.10331555767E+03  0.10000000000E+01 0.  0.
    9000005    1    1    2    0    0 -0.26085132552E+02 -0.54955189221E+02 -0.14120421623E+03  0.15375349636E+03  0.10000000000E+01 0.  0.
<mgrwt>
<rscale>  0 0.12486624E+03</rscale>
<asrwt>0</asrwt>
<pdfrwt beam="2">  1        4 0.37059640E-01 0.12486624E+03</pdfrwt>
<pdfrwt beam="1">  1       -4 0.24894430E-02 0.12486624E+03</pdfrwt>
<totfact> 0.81561794E+03</totfact>
</mgrwt>
</event>
<event>
 5    1  0.3516911E-002  0.1250102E+03  0.7818608E-02  0.1235053E+00
         -4   -1    0    0    0  501 -0.00000000000E+00  0.00000000000E+00  0.29443226362E+02  0.29470603635E+02  0.12700000000E+01 0. -1.
          4   -1    0    0  501    0  0.00000000000E+00 -0.00000000000E+00 -0.13260011920E+03  0.13260620088E+03  0.12700000000E+01 0. -1.
         25    2    1    2    0    0  0.00000000000E+00  0.00000000000E+00 -0.10315689284E+03  0.16207680451E+03  0.12501018367E+03 0.  0.
    9000005    1    3    3    0    0  0.21537822060E+02 -0.50488600227E+02 -0.90320203103E+02  0.10569633684E+03  0.10000000000E+01 0.  0.
    9000005    1    3    3    0    0 -0.21537822060E+02  0.50488600227E+02 -0.12836689732E+02  0.56380467676E+02  0.10000000000E+01 0.  0.
<mgrwt>
<rscale>  0 0.12501018E+03</rscale>
<asrwt>0</asrwt>
<pdfrwt beam="2">  1        4 0.20402592E-01 0.12501018E+03</pdfrwt>
<pdfrwt beam="1">  1       -4 0.45323010E-02 0.12501018E+03</pdfrwt>
<totfact> 0.96921699E+03</totfact>
</mgrwt>
</event>
<event>
 5    1  0.3516911E-002  0.1250023E+03  0.7818608E-02  0.1235066E+00
          4   -1    0    0  501    0  0.00000000000E+00  0.00000000000E+00  0.24394616254E+03  0.24394946837E+03  0.12700000000E+01 0.  1.
         -4   -1    0    0    0  501 -0.00000000000E+00 -0.00000000000E+00 -0.15984751128E+02  0.16035122968E+02  0.12700000000E+01 0.  1.
         25    2    1    2    0    0  0.00000000000E+00  0.00000000000E+00  0.22796141141E+03  0.25998459133E+03  0.12500233054E+03 0.  0.
    9000005    1    3    3    0    0  0.16632308315E+02 -0.57090486585E+02  0.15395681008E+03  0.16504440829E+03  0.10000000000E+01 0.  0.
    9000005    1    3    3    0    0 -0.16632308315E+02  0.57090486585E+02  0.74004601330E+02  0.94940183044E+02  0.10000000000E+01 0.  0.
<mgrwt>
<rscale>  0 0.12500233E+03</rscale>
<asrwt>0</asrwt>
<pdfrwt beam="1">  1        4 0.37534308E-01 0.12500233E+03</pdfrwt>
<pdfrwt beam="2">  1       -4 0.24633216E-02 0.12500233E+03</pdfrwt>
<totfact> 0.80904025E+03</totfact>
</mgrwt>
</event>
<event>
 5    1  0.3516911E-002  0.1250027E+03  0.7818608E-02  0.1235065E+00
          4   -1    0    0  501    0  0.00000000000E+00  0.00000000000E+00  0.91449942966E+02  0.91458761026E+02  0.12700000000E+01 0.  1.
         -4   -1    0    0    0  501 -0.00000000000E+00 -0.00000000000E+00 -0.42696122816E+02  0.42715006772E+02  0.12700000000E+01 0.  1.
         25    2    1    2    0    0  0.00000000000E+00  0.00000000000E+00  0.48753820150E+02  0.13417376780E+03  0.12500265992E+03 0.  0.
    9000005    1    3    3    0    0  0.32664918353E+02 -0.41451135956E+02  0.60302221568E+02  0.80140822863E+02  0.10000000000E+01 0.  0.
    9000005    1    3    3    0    0 -0.32664918353E+02  0.41451135956E+02 -0.11548401419E+02  0.54032944935E+02  0.10000000000E+01 0.  0.
<mgrwt>
<rscale>  0 0.12500266E+03</rscale>
<asrwt>0</asrwt>
<pdfrwt beam="1">  1        4 0.14071353E-01 0.12500266E+03</pdfrwt>
<pdfrwt beam="2">  1       -4 0.65707653E-02 0.12500266E+03</pdfrwt>
<totfact> 0.10254900E+04</totfact>
</mgrwt>
</event>
<event>
 5    1  0.3516911E-002  0.1249972E+03  0.7818608E-02  0.1235074E+00
          4   -1    0    0  501    0  0.00000000000E+00  0.00000000000E+00  0.97461186320E+01  0.98285160827E+01  0.12700000000E+01 0. -1.
         -4   -1    0    0    0  501 -0.00000000000E+00 -0.00000000000E+00 -0.39901239572E+03  0.39901441683E+03  0.12700000000E+01 0. -1.
         25    2    1    2    0    0  0.00000000000E+00  0.00000000000E+00 -0.38926627709E+03  0.40884293292E+03  0.12499723723E+03 0.  0.
    9000005    1    3    3    0    0 -0.46340465305E+02  0.13140531014E+02 -0.32484961092E+03  0.32840277403E+03  0.10000000000E+01 0.  0.
    9000005    1    3    3    0    0  0.46340465305E+02 -0.13140531014E+02 -0.64416666175E+02  0.80440158883E+02  0.10000000000E+01 0.  0.
<mgrwt>
<rscale>  0 0.12499724E+03</rscale>
<asrwt>0</asrwt>
<pdfrwt beam="1">  1        4 0.15058969E-02 0.12499724E+03</pdfrwt>
<pdfrwt beam="2">  1       -4 0.61393004E-01 0.12499724E+03</pdfrwt>
<totfact> 0.63705618E+03</totfact>
</mgrwt>
</event>
<event>
 5    1  0.3516911E-002  0.1249977E+03  0.7818608E-02  0.1235073E+00
         -4   -1    0    0    0  501 -0.00000000000E+00  0.00000000000E+00  0.15316464503E+02  0.15369026803E+02  0.12700000000E+01 0. -1.
          4   -1    0    0  501    0  0.00000000000E+00 -0.00000000000E+00 -0.25453567073E+03  0.25453883902E+03  0.12700000000E+01 0. -1.
         25    2    1    2    0    0  0.00000000000E+00  0.00000000000E+00 -0.23921920622E+03  0.26990786583E+03  0.12499770962E+03 0.  0.
    9000005    1    3    3    0    0 -0.44517896023E+02  0.33066935946E+02 -0.18181256568E+03  0.19008438747E+03  0.10000000000E+01 0.  0.
    9000005    1    3    3    0    0  0.44517896023E+02 -0.33066935946E+02 -0.57406640541E+02  0.79823478359E+02  0.10000000000E+01 0.  0.
<mgrwt>
<rscale>  0 0.12499771E+03</rscale>
<asrwt>0</asrwt>
<pdfrwt beam="2">  1        4 0.39163618E-01 0.12499771E+03</pdfrwt>
<pdfrwt beam="1">  1       -4 0.23606663E-02 0.12499771E+03</pdfrwt>
<totfact> 0.79539483E+03</totfact>
</mgrwt>
</event>
<event>
 5    1  0.3516911E-002  0.1249989E+03  0.7818608E-02  0.1235071E+00
          4   -1    0    0  501    0  0.00000000000E+00  0.00000000000E+00  0.27214236362E+02  0.27243853633E+02  0.12700000000E+01 0. -1.
         -4   -1    0    0    0  501 -0.00000000000E+00 -0.00000000000E+00 -0.14342407936E+03  0.14342970209E+03  0.12700000000E+01 0. -1.
         25    2    1    2    0    0  0.00000000000E+00  0.00000000000E+00 -0.11620984300E+03  0.17067355572E+03  0.12499894004E+03 0.  0.
    9000005    1    3    3    0    0 -0.22131109987E+02  0.57872514471E+02 -0.46998099994E+02  0.77774259003E+02  0.10000000000E+01 0.  0.
    9000005    1    3    3    0    0  0.22131109987E+02 -0.57872514471E+02 -0.69211743005E+02  0.92899296715E+02  0.10000000000E+01 0.  0.
<mgrwt>
<rscale>  0 0.12499894E+03</rscale>
<asrwt>0</asrwt>
<pdfrwt beam="1">  1        4 0.41895164E-02 0.12499894E+03</pdfrwt>
<pdfrwt beam="2">  1       -4 0.22067953E-01 0.12499894E+03</pdfrwt>
<totfact> 0.95325511E+03</totfact>
</mgrwt>
</event>
<event>
 4    1  0.3516911E-002  0.1251696E+03  0.7818608E-02  0.1234804E+00
         -4   -1    0    0    0  501 -0.00000000000E+00  0.00000000000E+00  0.26582411433E+03  0.26582714809E+03  0.12700000000E+01 0.  1.
          4   -1    0    0  501    0  0.00000000000E+00 -0.00000000000E+00 -0.14704282484E+02  0.14759025149E+02  0.12700000000E+01 0.  1.
    9000005    1    1    2    0    0 -0.35178927046E+01  0.94791113150E+01  0.26399194038E+03  0.26418738370E+03  0.10000000000E+01 0.  0.
    9000005    1    1    2    0    0  0.35178927046E+01 -0.94791113150E+01 -0.12872108529E+02  0.16398789540E+02  0.10000000000E+01 0.  0.
<mgrwt>
<rscale>  0 0.12516961E+03</rscale>
<asrwt>0</asrwt>
<pdfrwt beam="2">  1        4 0.22666418E-02 0.12516961E+03</pdfrwt>
<pdfrwt beam="1">  1       -4 0.40900459E-01 0.12516961E+03</pdfrwt>
<totfact> 0.77806743E+03</totfact>
</mgrwt>
</event>
<event>
 5    1  0.3516911E-002  0.1250042E+03  0.7818608E-02  0.1235063E+00
         -4   -1    0    0    0  501 -0.00000000000E+00  0.00000000000E+00  0.18367505366E+03  0.18367944424E+03  0.12700000000E+01 0. -1.
          4   -1    0    0  501    0  0.00000000000E+00 -0.00000000000E+00 -0.21245010877E+02  0.21282936525E+02  0.12700000000E+01 0. -1.
         25    2    1    2    0    0  0.00000000000E+00  0.00000000000E+00  0.16243004278E+03  0.20496238077E+03  0.12500423485E+03 0.  0.
    9000005    1    3    3    0    0  0.10482561419E+02 -0.13777835027E+02 -0.17242831236E+02  0.24454612263E+02  0.10000000000E+01 0.  0.
    9000005    1    3    3    0    0 -0.10482561419E+02  0.13777835027E+02  0.17967287402E+03  0.18050776851E+03  0.10000000000E+01 0.  0.
<mgrwt>
<rscale>  0 0.12500423E+03</rscale>
<asrwt>0</asrwt>
<pdfrwt beam="2">  1        4 0.32717182E-02 0.12500423E+03</pdfrwt>
<pdfrwt beam="1">  1       -4 0.28260956E-01 0.12500423E+03</pdfrwt>
<totfact> 0.89296796E+03</totfact>
</mgrwt>
</event>
<event>
 5    1  0.3516911E-002  0.1250261E+03  0.7818608E-02  0.1235029E+00
          4   -1    0    0  501    0  0.00000000000E+00  0.00000000000E+00  0.24302653980E+02  0.24335814974E+02  0.12700000000E+01 0.  1.
         -4   -1    0    0    0  501 -0.00000000000E+00 -0.00000000000E+00 -0.16065529341E+03  0.16066031308E+03  0.12700000000E+01 0.  1.
         25    2    1    2    0    0  0.00000000000E+00  0.00000000000E+00 -0.13635263943E+03  0.18499612806E+03  0.12502609774E+03 0.  0.
    9000005    1    3    3    0    0  0.62198337346E+02 -0.53389304450E+01 -0.63557520394E+02  0.89093746950E+02  0.10000000000E+01 0.  0.
    9000005    1    3    3    0    0 -0.62198337346E+02  0.53389304450E+01 -0.72795119032E+02  0.95902381106E+02  0.10000000000E+01 0.  0.
<mgrwt>
<rscale>  0 0.12502610E+03</rscale>
<asrwt>0</asrwt>
<pdfrwt beam="1">  1        4 0.37418069E-02 0.12502610E+03</pdfrwt>
<pdfrwt beam="2">  1       -4 0.24719135E-01 0.12502610E+03</pdfrwt>
<totfact> 0.92671125E+03</totfact>
</mgrwt>
</event>
<event>
 5    1  0.3516911E-002  0.1249810E+03  0.7818608E-02  0.1235099E+00
         -4   -1    0    0    0  501 -0.00000000000E+00  0.00000000000E+00  0.23636864299E+02  0.23670958026E+02  0.12700000000E+01 0.  1.
          4   -1    0    0  501    0  0.00000000000E+00 -0.00000000000E+00 -0.16505520469E+03  0.16506009056E+03  0.12700000000E+01 0.  1.
         25    2    1    2    0    0  0.00000000000E+00  0.00000000000E+00 -0.14141834039E+03  0.18873104858E+03  0.12498104537E+03 0.  0.
    9000005    1    3    3    0    0  0.85622059470E+01 -0.49242243217E+02 -0.14087197858E+02  0.51938030683E+02  0.10000000000E+01 0.  0.
    9000005    1    3    3    0    0 -0.85622059470E+01  0.49242243217E+02 -0.12733114253E+03  0.13679301790E+03  0.10000000000E+01 0.  0.
<mgrwt>
<rscale>  0 0.12498105E+03</rscale>
<asrwt>0</asrwt>
<pdfrwt beam="2">  1        4 0.25396106E-01 0.12498105E+03</pdfrwt>
<pdfrwt beam="1">  1       -4 0.36394392E-02 0.12498105E+03</pdfrwt>
<totfact> 0.92107684E+03</totfact>
</mgrwt>
</event>
<event>
 5    1  0.3516911E-002  0.1249998E+03  0.7818608E-02  0.1235070E+00
          4   -1    0    0  501    0  0.00000000000E+00  0.00000000000E+00  0.33020453186E+02  0.33044866902E+02  0.12700000000E+01 0.  1.
         -4   -1    0    0    0  501 -0.00000000000E+00 -0.00000000000E+00 -0.11822591506E+03  0.11823273613E+03  0.12700000000E+01 0.  1.
         25    2    1    2    0    0  0.00000000000E+00  0.00000000000E+00 -0.85205461878E+02  0.15127760303E+03  0.12499976978E+03 0.  0.
    9000005    1    3    3    0    0  0.18270200482E+02  0.32231675146E+02 -0.10350659139E+03  0.10994223743E+03  0.10000000000E+01 0.  0.
    9000005    1    3    3    0    0 -0.18270200482E+02 -0.32231675146E+02  0.18301129514E+02  0.41335365607E+02  0.10000000000E+01 0.  0.
<mgrwt>
<rscale>  0 0.12499977E+03</rscale>
<asrwt>0</asrwt>
<pdfrwt beam="1">  1        4 0.50824725E-02 0.12499977E+03</pdfrwt>
<pdfrwt beam="2">  1       -4 0.18191005E-01 0.12499977E+03</pdfrwt>
<totfact> 0.99050148E+03</totfact>
</mgrwt>
</event>
<event>
 5    1  0.3516911E-002  0.1249999E+03  0.7818608E-02  0.1235070E+00
         -4   -1    0    0    0  501 -0.00000000000E+00  0.00000000000E+00  0.10370063112E+02  0.10447540809E+02  0.12700000000E+01 0. -1.
          4   -1    0    0  501    0  0.00000000000E+00 -0.00000000000E+00 -0.37520392248E+03  0.37520607184E+03  0.12700000000E+01 0. -1.
         25    2    1    2    0    0  0.00000000000E+00  0.00000000000E+00 -0.36483385937E+03  0.38565361265E+03  0.12499985603E+03 0.  0.
    9000005    1    3    3    0    0  0.29537308081E+02 -0.44972110512E+02 -0.84352258762E+02  0.10005621845E+03  0.10000000000E+01 0.  0.
    9000005    1    3    3    0    0 -0.29537308081E+02  0.44972110512E+02 -0.28048160061E+03  0.28559739420E+03  0.10000000000E+01 0.  0.
<mgrwt>
<rscale>  0 0.12499986E+03</rscale>
<asrwt>0</asrwt>
<pdfrwt beam="2">  1        4 0.57729795E-01 0.12499986E+03</pdfrwt>
<pdfrwt beam="1">  1       -4 0.16015198E-02 0.12499986E+03</pdfrwt>
<totfact> 0.65972650E+03</totfact>
</mgrwt>
</event>
<event>
 5    1  0.3516911E-002  0.1249896E+03  0.7818608E-02  0.1235086E+00
          4   -1    0    0  501    0  0.00000000000E+00  0.00000000000E+00  0.75668639853E+01  0.76727003442E+01  0.12700000000E+01 0.  1.
         -4   -1    0    0    0  501 -0.00000000000E+00 -0.00000000000E+00 -0.51245394828E+03  0.51245552198E+03  0.12700000000E+01 0.  1.
         25    2    1    2    0    0  0.00000000000E+00  0.00000000000E+00 -0.50488708429E+03  0.52012822232E+03  0.12498959865E+03 0.  0.
    9000005    1    3    3    0    0  0.33881031839E+02  0.27213829388E+02 -0.43929253529E+03  0.44143793266E+03  0.10000000000E+01 0.  0.
    9000005    1    3    3    0    0 -0.33881031839E+02 -0.27213829388E+02 -0.65594549002E+02  0.78690289663E+02  0.10000000000E+01 0.  0.
<mgrwt>
<rscale>  0 0.12498960E+03</rscale>
<asrwt>0</asrwt>
<pdfrwt beam="1">  1        4 0.11723956E-02 0.12498960E+03</pdfrwt>
<pdfrwt beam="2">  1       -4 0.78847304E-01 0.12498960E+03</pdfrwt>
<totfact> 0.54348231E+03</totfact>
</mgrwt>
</event>
<event>
 5    1  0.3516911E-002  0.1250313E+03  0.7818608E-02  0.1235020E+00
          4   -1    0    0  501    0  0.00000000000E+00  0.00000000000E+00  0.11077872485E+04  0.11077879765E+04  0.12700000000E+01 0.  1.
         -4   -1    0    0    0  501 -0.00000000000E+00 -0.00000000000E+00 -0.34128928315E+01  0.36415295522E+01  0.12700000000E+01 0.  1.
         25    2    1    2    0    0  0.00000000000E+00  0.00000000000E+00  0.11043743557E+04  0.11114295061E+04  0.12503131379E+03 0.  0.
    9000005    1    3    3    0    0  0.35247983026E+02  0.19234524165E+02  0.97801835294E+03  0.97884283003E+03  0.10000000000E+01 0.  0.
    9000005    1    3    3    0    0 -0.35247983026E+02 -0.19234524165E+02  0.12635600278E+03  0.13258667605E+03  0.10000000000E+01 0.  0.
<mgrwt>
<rscale>  0 0.12503131E+03</rscale>
<asrwt>0</asrwt>
<pdfrwt beam="1">  1        4 0.17044630E+00 0.12503131E+03</pdfrwt>
<pdfrwt beam="2">  1       -4 0.54270435E-03 0.12503131E+03</pdfrwt>
<totfact> 0.27132765E+03</totfact>
</mgrwt>
</event>
<event>
 5    1  0.3516911E-002  0.1249948E+03  0.7818608E-02  0.1235077E+00
          4   -1    0    0  501    0  0.00000000000E+00  0.00000000000E+00  0.44240591064E+02  0.44258816045E+02  0.12700000000E+01 0.  1.
         -4   -1    0    0    0  501 -0.00000000000E+00 -0.00000000000E+00 -0.88247302487E+02  0.88256440537E+02  0.12700000000E+01 0.  1.
         25    2    1    2    0    0  0.00000000000E+00  0.00000000000E+00 -0.44006711423E+02  0.13251525658E+03  0.12499481020E+03 0.  0.
    9000005    1    3    3    0    0  0.29393755238E+02 -0.39946491980E+02 -0.62306549789E+02  0.79641830812E+02  0.10000000000E+01 0.  0.
    9000005    1    3    3    0    0 -0.29393755238E+02  0.39946491980E+02  0.18299838366E+02  0.52873425770E+02  0.10000000000E+01 0.  0.
<mgrwt>
<rscale>  0 0.12499481E+03</rscale>
<asrwt>0</asrwt>
<pdfrwt beam="1">  1        4 0.68083496E-02 0.12499481E+03</pdfrwt>
<pdfrwt beam="2">  1       -4 0.13578613E-01 0.12499481E+03</pdfrwt>
<totfact> 0.10291918E+04</totfact>
</mgrwt>
</event>
<event>
 5    1  0.3516911E-002  0.1249923E+03  0.7818608E-02  0.1235081E+00
          4   -1    0    0  501    0  0.00000000000E+00  0.00000000000E+00  0.86531815816E+02  0.86541135008E+02  0.12700000000E+01 0. -1.
         -4   -1    0    0    0  501 -0.00000000000E+00 -0.00000000000E+00 -0.45116144096E+02  0.45134015532E+02  0.12700000000E+01 0. -1.
         25    2    1    2    0    0  0.00000000000E+00  0.00000000000E+00  0.41415671721E+02  0.13167515054E+03  0.12499234939E+03 0.  0.
    9000005    1    3    3    0    0 -0.16885093846E+02 -0.30887693863E+02  0.75097849949E+02  0.82944819569E+02  0.10000000000E+01 0.  0.
    9000005    1    3    3    0    0  0.16885093846E+02  0.30887693863E+02 -0.33682178228E+02  0.48730330971E+02  0.10000000000E+01 0.  0.
<mgrwt>
<rscale>  0 0.12499235E+03</rscale>
<asrwt>0</asrwt>
<pdfrwt beam="1">  1        4 0.13314679E-01 0.12499235E+03</pdfrwt>
<pdfrwt beam="2">  1       -4 0.69430369E-02 0.12499235E+03</pdfrwt>
<totfact> 0.10310416E+04</totfact>
</mgrwt>
</event>
<event>
 5    1  0.3516911E-002  0.1249961E+03  0.7818608E-02  0.1235075E+00
          4   -1    0    0  501    0  0.00000000000E+00  0.00000000000E+00  0.15355962813E+02  0.15408390374E+02  0.12700000000E+01 0. -1.
         -4   -1    0    0    0  501 -0.00000000000E+00 -0.00000000000E+00 -0.25387650909E+03  0.25387968561E+03  0.12700000000E+01 0. -1.
         25    2    1    2    0    0  0.00000000000E+00  0.00000000000E+00 -0.23852054627E+03  0.26928807599E+03  0.12499606743E+03 0.  0.
    9000005    1    3    3    0    0 -0.50529474845E+02  0.32524834214E+01 -0.40362057649E+02  0.64760344148E+02  0.10000000000E+01 0.  0.
    9000005    1    3    3    0    0  0.50529474845E+02 -0.32524834214E+01 -0.19815848862E+03  0.20452773184E+03  0.10000000000E+01 0.  0.
<mgrwt>
<rscale>  0 0.12499607E+03</rscale>
<asrwt>0</asrwt>
<pdfrwt beam="1">  1        4 0.23667332E-02 0.12499607E+03</pdfrwt>
<pdfrwt beam="2">  1       -4 0.39062199E-01 0.12499607E+03</pdfrwt>
<totfact> 0.79626993E+03</totfact>
</mgrwt>
</event>
<event>
 5    1  0.3516911E-002  0.1249964E+03  0.7818608E-02  0.1235075E+00
         -4   -1    0    0    0  501 -0.00000000000E+00  0.00000000000E+00  0.16138164160E+03  0.16138663868E+03  0.12700000000E+01 0. -1.
          4   -1    0    0  501    0  0.00000000000E+00 -0.00000000000E+00 -0.24181632206E+02  0.24214958933E+02  0.12700000000E+01 0. -1.
         25    2    1    2    0    0  0.00000000000E+00  0.00000000000E+00  0.13720000939E+03  0.18560159761E+03  0.12499644179E+03 0.  0.
    9000005    1    3    3    0    0 -0.30905846850E+02 -0.53972863283E+02  0.59594107951E+02  0.86143479399E+02  0.10000000000E+01 0.  0.
    9000005    1    3    3    0    0  0.30905846850E+02  0.53972863283E+02  0.77605901440E+02  0.99458118214E+02  0.10000000000E+01 0.  0.
<mgrwt>
<rscale>  0 0.12499644E+03</rscale>
<asrwt>0</asrwt>
<pdfrwt beam="2">  1        4 0.37231992E-02 0.12499644E+03</pdfrwt>
<pdfrwt beam="1">  1       -4 0.24830892E-01 0.12499644E+03</pdfrwt>
<totfact> 0.92625691E+03</totfact>
</mgrwt>
</event>
<event>
 5    1  0.3516911E-002  0.1250019E+03  0.7818608E-02  0.1235066E+00
         -4   -1    0    0    0  501 -0.00000000000E+00  0.00000000000E+00  0.26252079498E+02  0.26282781016E+02  0.12700000000E+01 0. -1.
          4   -1    0    0  501    0  0.00000000000E+00 -0.00000000000E+00 -0.14868192693E+03  0.14868735082E+03  0.12700000000E+01 0. -1.
         25    2    1    2    0    0  0.00000000000E+00  0.00000000000E+00 -0.12242984743E+03  0.17497013184E+03  0.12500191796E+03 0.  0.
    9000005    1    3    3    0    0  0.43089360331E+02  0.73226361269E+01 -0.12373575975E+03  0.13123205483E+03  0.10000000000E+01 0.  0.
    9000005    1    3    3    0    0 -0.43089360331E+02 -0.73226361269E+01  0.13059123204E+01  0.43738077011E+02  0.10000000000E+01 0.  0.
<mgrwt>
<rscale>  0 0.12500192E+03</rscale>
<asrwt>0</asrwt>
<pdfrwt beam="2">  1        4 0.22876921E-01 0.12500192E+03</pdfrwt>
<pdfrwt beam="1">  1       -4 0.40415604E-02 0.12500192E+03</pdfrwt>
<totfact> 0.94526244E+03</totfact>
</mgrwt>
</event>
<event>
 5    1  0.3516911E-002  0.1250017E+03  0.7818608E-02  0.1235067E+00
         -4   -1    0    0    0  501 -0.00000000000E+00  0.00000000000E+00  0.13160620790E+02  0.13221756297E+02  0.12700000000E+01 0. -1.
          4   -1    0    0  501    0  0.00000000000E+00 -0.00000000000E+00 -0.29607144042E+03  0.29607416424E+03  0.12700000000E+01 0. -1.
         25    2    1    2    0    0  0.00000000000E+00  0.00000000000E+00 -0.28291081963E+03  0.30929592054E+03  0.12500173838E+03 0.  0.
    9000005    1    3    3    0    0 -0.19442656233E+02  0.23008455210E+02 -0.27693395724E+03  0.27856924196E+03  0.10000000000E+01 0.  0.
    9000005    1    3    3    0    0  0.19442656233E+02 -0.23008455210E+02 -0.59768623872E+01  0.30726678580E+02  0.10000000000E+01 0.  0.
<mgrwt>
<rscale>  0 0.12500174E+03</rscale>
<asrwt>0</asrwt>
<pdfrwt beam="2">  1        4 0.45554360E-01 0.12500174E+03</pdfrwt>
<pdfrwt beam="1">  1       -4 0.20296234E-02 0.12500174E+03</pdfrwt>
<totfact> 0.74444508E+03</totfact>
</mgrwt>
</event>
<event>
 5    1  0.3516911E-002  0.1250010E+03  0.7818608E-02  0.1235068E+00
         -4   -1    0    0    0  501 -0.00000000000E+00  0.00000000000E+00  0.45253565193E+02  0.45271382381E+02  0.12700000000E+01 0. -1.
          4   -1    0    0  501    0  0.00000000000E+00 -0.00000000000E+00 -0.86281083994E+02  0.86290430264E+02  0.12700000000E+01 0. -1.
         25    2    1    2    0    0  0.00000000000E+00  0.00000000000E+00 -0.41027518801E+02  0.13156181265E+03  0.12500101299E+03 0.  0.
    9000005    1    3    3    0    0  0.49782532505E+02  0.32788612385E+02 -0.40257893189E+02  0.71938109571E+02  0.10000000000E+01 0.  0.
    9000005    1    3    3    0    0 -0.49782532505E+02 -0.32788612385E+02 -0.76962561256E+00  0.59623703074E+02  0.10000000000E+01 0.  0.
<mgrwt>
<rscale>  0 0.12500101E+03</rscale>
<asrwt>0</asrwt>
<pdfrwt beam="2">  1        4 0.13276102E-01 0.12500101E+03</pdfrwt>
<pdfrwt beam="1">  1       -4 0.69641765E-02 0.12500101E+03</pdfrwt>
<totfact> 0.10310824E+04</totfact>
</mgrwt>
</event>
<event>
 5    1  0.3516911E-002  0.1249811E+03  0.7818608E-02  0.1235099E+00
         -4   -1    0    0    0  501 -0.00000000000E+00  0.00000000000E+00  0.18062432836E+02  0.18107025707E+02  0.12700000000E+01 0. -1.
          4   -1    0    0  501    0  0.00000000000E+00 -0.00000000000E+00 -0.21588550770E+03  0.21588924321E+03  0.12700000000E+01 0. -1.
         25    2    1    2    0    0  0.00000000000E+00  0.00000000000E+00 -0.19782307487E+03  0.23399626892E+03  0.12498113825E+03 0.  0.
    9000005    1    3    3    0    0  0.17862620887E+02 -0.56786679388E+01  0.12683999468E+02  0.22654013706E+02  0.10000000000E+01 0.  0.
    9000005    1    3    3    0    0 -0.17862620887E+02  0.56786679388E+01 -0.21050707433E+03  0.21134225521E+03  0.10000000000E+01 0.  0.
<mgrwt>
<rscale>  0 0.12498114E+03</rscale>
<asrwt>0</asrwt>
<pdfrwt beam="2">  1        4 0.33216871E-01 0.12498114E+03</pdfrwt>
<pdfrwt beam="1">  1       -4 0.27825535E-02 0.12498114E+03</pdfrwt>
<totfact> 0.84735364E+03</totfact>
</mgrwt>
</event>
<event>
 5    1  0.3516911E-002  0.1250020E+03  0.7818608E-02  0.1235066E+00
          4   -1    0    0  501    0  0.00000000000E+00  0.00000000000E+00  0.29120480586E+03  0.29120757520E+03  0.12700000000E+01 0. -1.
         -4   -1    0    0    0  501 -0.00000000000E+00 -0.00000000000E+00 -0.13381635422E+02  0.13441765753E+02  0.12700000000E+01 0. -1.
         25    2    1    2    0    0  0.00000000000E+00  0.00000000000E+00  0.27782317043E+03  0.30464934095E+03  0.12500202763E+03 0.  0.
    9000005    1    3    3    0    0 -0.47125613407E+02  0.10064335336E+02  0.41936618265E+02  0.63888921076E+02  0.10000000000E+01 0.  0.
    9000005    1    3    3    0    0  0.47125613407E+02 -0.10064335336E+02  0.23588655217E+03  0.24076041988E+03  0.10000000000E+01 0.  0.
<mgrwt>
<rscale>  0 0.12500203E+03</rscale>
<asrwt>0</asrwt>
<pdfrwt beam="1">  1        4 0.44805579E-01 0.12500203E+03</pdfrwt>
<pdfrwt beam="2">  1       -4 0.20635515E-02 0.12500203E+03</pdfrwt>
<totfact> 0.75015932E+03</totfact>
</mgrwt>
</event>
<event>
 5    1  0.3516911E-002  0.1250002E+03  0.7818608E-02  0.1235069E+00
         -4   -1    0    0    0  501 -0.00000000000E+00  0.00000000000E+00  0.78735387819E+02  0.78745629688E+02  0.12700000000E+01 0.  1.
          4   -1    0    0  501    0  0.00000000000E+00 -0.00000000000E+00 -0.49590909324E+02  0.49607168712E+02  0.12700000000E+01 0.  1.
         25    2    1    2    0    0  0.00000000000E+00  0.00000000000E+00  0.29144478495E+02  0.12835279840E+03  0.12500016092E+03 0.  0.
    9000005    1    3    3    0    0 -0.54987686248E+02 -0.19328051117E+02  0.37716541395E+02  0.69431669242E+02  0.10000000000E+01 0.  0.
    9000005    1    3    3    0    0  0.54987686248E+02  0.19328051117E+02 -0.85720628999E+01  0.58921129158E+02  0.10000000000E+01 0.  0.
<mgrwt>
<rscale>  0 0.12500016E+03</rscale>
<asrwt>0</asrwt>
<pdfrwt beam="2">  1        4 0.76314092E-02 0.12500016E+03</pdfrwt>
<pdfrwt beam="1">  1       -4 0.12115175E-01 0.12500016E+03</pdfrwt>
<totfact> 0.10379838E+04</totfact>
</mgrwt>
</event>
<event>
 5    1  0.3516911E-002  0.1249989E+03  0.7818608E-02  0.1235071E+00
          4   -1    0    0  501    0  0.00000000000E+00  0.00000000000E+00  0.63172131322E+01  0.64436078216E+01  0.12700000000E+01 0.  1.
         -4   -1    0    0    0  501 -0.00000000000E+00 -0.00000000000E+00 -0.61208799785E+03  0.61208931538E+03  0.12700000000E+01 0.  1.
         25    2    1    2    0    0  0.00000000000E+00  0.00000000000E+00 -0.60577078471E+03  0.61853292321E+03  0.12499893390E+03 0.  0.
    9000005    1    3    3    0    0  0.14032042341E+02 -0.42939354652E+02 -0.51655234407E+03  0.51852484082E+03  0.10000000000E+01 0.  0.
    9000005    1    3    3    0    0 -0.14032042341E+02  0.42939354652E+02 -0.89218440646E+02  0.10000808238E+03  0.10000000000E+01 0.  0.
<mgrwt>
<rscale>  0 0.12499893E+03</rscale>
<asrwt>0</asrwt>
<pdfrwt beam="1">  1        4 0.98170344E-03 0.12499893E+03</pdfrwt>
<pdfrwt beam="2">  1       -4 0.94177162E-01 0.12499893E+03</pdfrwt>
<totfact> 0.47719405E+03</totfact>
</mgrwt>
</event>
<event>
 5    1  0.3516911E-002  0.1250018E+03  0.7818608E-02  0.1235067E+00
         -4   -1    0    0    0  501 -0.00000000000E+00  0.00000000000E+00  0.21294207374E+02  0.21332045558E+02  0.12700000000E+01 0. -1.
          4   -1    0    0  501    0  0.00000000000E+00 -0.00000000000E+00 -0.18324416445E+03  0.18324856535E+03  0.12700000000E+01 0. -1.
         25    2    1    2    0    0  0.00000000000E+00  0.00000000000E+00 -0.16194995707E+03  0.20458061091E+03  0.12500175105E+03 0.  0.
    9000005    1    3    3    0    0 -0.52048899207E+02 -0.21304406616E+02 -0.12556786040E+03  0.13759089074E+03  0.10000000000E+01 0.  0.
    9000005    1    3    3    0    0  0.52048899207E+02  0.21304406616E+02 -0.36382096675E+02  0.66989720170E+02  0.10000000000E+01 0.  0.
<mgrwt>
<rscale>  0 0.12500175E+03</rscale>
<asrwt>0</asrwt>
<pdfrwt beam="2">  1        4 0.28194658E-01 0.12500175E+03</pdfrwt>
<pdfrwt beam="1">  1       -4 0.32792812E-02 0.12500175E+03</pdfrwt>
<totfact> 0.89365158E+03</totfact>
</mgrwt>
</event>
<event>
 5    1  0.3516911E-002  0.1249995E+03  0.7818608E-02  0.1235070E+00
          4   -1    0    0  501    0  0.00000000000E+00  0.00000000000E+00  0.12211367548E+02  0.12277230852E+02  0.12700000000E+01 0. -1.
         -4   -1    0    0    0  501 -0.00000000000E+00 -0.00000000000E+00 -0.31895648856E+03  0.31895901695E+03  0.12700000000E+01 0. -1.
         25    2    1    2    0    0  0.00000000000E+00  0.00000000000E+00 -0.30674512101E+03  0.33123624780E+03  0.12499953038E+03 0.  0.
    9000005    1    3    3    0    0 -0.60617696816E+02  0.48224247114E+01 -0.19154029206E+03  0.20096378885E+03  0.10000000000E+01 0.  0.
    9000005    1    3    3    0    0  0.60617696816E+02 -0.48224247114E+01 -0.11520482895E+03  0.13027245895E+03  0.10000000000E+01 0.  0.
<mgrwt>
<rscale>  0 0.12499953E+03</rscale>
<asrwt>0</asrwt>
<pdfrwt beam="1">  1        4 0.18839331E-02 0.12499953E+03</pdfrwt>
<pdfrwt beam="2">  1       -4 0.49075484E-01 0.12499953E+03</pdfrwt>
<totfact> 0.71840105E+03</totfact>
</mgrwt>
</event>
<event>
 5    1  0.3516911E-002  0.1249997E+03  0.7818608E-02  0.1235070E+00
         -4   -1    0    0    0  501 -0.00000000000E+00  0.00000000000E+00  0.52992968244E+02  0.53008184116E+02  0.12700000000E+01 0.  1.
          4   -1    0    0  501    0  0.00000000000E+00 -0.00000000000E+00 -0.73680957901E+02  0.73691902250E+02  0.12700000000E+01 0.  1.
         25    2    1    2    0    0  0.00000000000E+00  0.00000000000E+00 -0.20687989657E+02  0.12670008637E+03  0.12499967588E+03 0.  0.
    9000005    1    3    3    0    0 -0.49999456294E+02  0.32477274668E+02  0.86326177199E+01  0.60251482042E+02  0.10000000000E+01 0.  0.
    9000005    1    3    3    0    0  0.49999456294E+02 -0.32477274668E+02 -0.29320607377E+02  0.66448604324E+02  0.10000000000E+01 0.  0.
<mgrwt>
<rscale>  0 0.12499968E+03</rscale>
<asrwt>0</asrwt>
<pdfrwt beam="2">  1        4 0.11337544E-01 0.12499968E+03</pdfrwt>
<pdfrwt beam="1">  1       -4 0.81547767E-02 0.12499968E+03</pdfrwt>
<totfact> 0.10415744E+04</totfact>
</mgrwt>
</event>
<event>
 5    1  0.3516911E-002  0.1250076E+03  0.7818608E-02  0.1235057E+00
         -4   -1    0    0    0  501 -0.00000000000E+00  0.00000000000E+00  0.68187709844E+02  0.68199535730E+02  0.12700000000E+01 0.  1.
          4   -1    0    0  501    0  0.00000000000E+00 -0.00000000000E+00 -0.57269809733E+02  0.57283889592E+02  0.12700000000E+01 0.  1.
         25    2    1    2    0    0  0.00000000000E+00  0.00000000000E+00  0.10917900111E+02  0.12548342532E+03  0.12500755772E+03 0.  0.
    9000005    1    3    3    0    0 -0.20359742667E+02  0.45304104531E+02 -0.32616185612E+02  0.59428920339E+02  0.10000000000E+01 0.  0.
    9000005    1    3    3    0    0  0.20359742667E+02 -0.45304104531E+02  0.43534085723E+02  0.66054504983E+02  0.10000000000E+01 0.  0.
<mgrwt>
<rscale>  0 0.12500756E+03</rscale>
<asrwt>0</asrwt>
<pdfrwt beam="2">  1        4 0.88127327E-02 0.12500756E+03</pdfrwt>
<pdfrwt beam="1">  1       -4 0.10492410E-01 0.12500756E+03</pdfrwt>
<totfact> 0.10440541E+04</totfact>
</mgrwt>
</event>
<event>
 5    1  0.3516911E-002  0.1249999E+03  0.7818608E-02  0.1235069E+00
          4   -1    0    0  501    0  0.00000000000E+00  0.00000000000E+00  0.47259916118E+02  0.47276977182E+02  0.12700000000E+01 0.  1.
         -4   -1    0    0    0  501 -0.00000000000E+00 -0.00000000000E+00 -0.82617631030E+02  0.82627391687E+02  0.12700000000E+01 0.  1.
         25    2    1    2    0    0  0.00000000000E+00  0.00000000000E+00 -0.35357714911E+02  0.12990436887E+03  0.12499990819E+03 0.  0.
    9000005    1    3    3    0    0  0.61797774485E+02  0.75773433230E+01 -0.12095617502E+02  0.63432523408E+02  0.10000000000E+01 0.  0.
    9000005    1    3    3    0    0 -0.61797774485E+02 -0.75773433230E+01 -0.23262097410E+02  0.66471845461E+02  0.10000000000E+01 0.  0.
<mgrwt>
<rscale>  0 0.12499991E+03</rscale>
<asrwt>0</asrwt>
<pdfrwt beam="1">  1        4 0.72728195E-02 0.12499991E+03</pdfrwt>
<pdfrwt beam="2">  1       -4 0.12712468E-01 0.12499991E+03</pdfrwt>
<totfact> 0.10346575E+04</totfact>
</mgrwt>
</event>
<event>
 5    1  0.3516911E-002  0.1250396E+03  0.7818608E-02  0.1235007E+00
          4   -1    0    0  501    0  0.00000000000E+00  0.00000000000E+00  0.11487750128E+03  0.11488452115E+03  0.12700000000E+01 0.  1.
         -4   -1    0    0    0  501 -0.00000000000E+00 -0.00000000000E+00 -0.34005261890E+02  0.34028969073E+02  0.12700000000E+01 0.  1.
         25    2    1    2    0    0  0.00000000000E+00  0.00000000000E+00  0.80872239393E+02  0.14891349023E+03  0.12503962759E+03 0.  0.
    9000005    1    3    3    0    0 -0.42573389812E+01 -0.60794153935E+02  0.57009875804E+02  0.83457654095E+02  0.10000000000E+01 0.  0.
    9000005    1    3    3    0    0  0.42573389812E+01  0.60794153935E+02  0.23862363589E+02  0.65455836133E+02  0.10000000000E+01 0.  0.
<mgrwt>
<rscale>  0 0.12503963E+03</rscale>
<asrwt>0</asrwt>
<pdfrwt beam="1">  1        4 0.17675825E-01 0.12503963E+03</pdfrwt>
<pdfrwt beam="2">  1       -4 0.52339424E-02 0.12503963E+03</pdfrwt>
<totfact> 0.99432004E+03</totfact>
</mgrwt>
</event>
<event>
 5    1  0.3516911E-002  0.1249624E+03  0.7818608E-02  0.1235128E+00
         -4   -1    0    0    0  501 -0.00000000000E+00  0.00000000000E+00  0.47846212711E+01  0.49503030925E+01  0.12700000000E+01 0. -1.
          4   -1    0    0  501    0  0.00000000000E+00 -0.00000000000E+00 -0.80187440179E+03  0.80187540749E+03  0.12700000000E+01 0. -1.
         25    2    1    2    0    0  0.00000000000E+00  0.00000000000E+00 -0.79708978052E+03  0.80682571058E+03  0.12496243059E+03 0.  0.
    9000005    1    3    3    0    0 -0.49639735574E+02 -0.11673163392E+02 -0.63156594397E+03  0.63362205428E+03  0.10000000000E+01 0.  0.
    9000005    1    3    3    0    0  0.49639735574E+02  0.11673163392E+02 -0.16552383655E+03  0.17320365631E+03  0.10000000000E+01 0.  0.
<mgrwt>
<rscale>  0 0.12496243E+03</rscale>
<asrwt>0</asrwt>
<pdfrwt beam="2">  1        4 0.12337801E+00 0.12496243E+03</pdfrwt>
<pdfrwt beam="1">  1       -4 0.74891834E-03 0.12496243E+03</pdfrwt>
<totfact> 0.37993020E+03</totfact>
</mgrwt>
</event>
<event>
 5    1  0.3516911E-002  0.1250007E+03  0.7818608E-02  0.1235068E+00
         -4   -1    0    0    0  501 -0.00000000000E+00  0.00000000000E+00  0.98314040643E+02  0.98322243096E+02  0.12700000000E+01 0. -1.
          4   -1    0    0  501    0  0.00000000000E+00 -0.00000000000E+00 -0.39712811353E+02  0.39733113212E+02  0.12700000000E+01 0. -1.
         25    2    1    2    0    0  0.00000000000E+00  0.00000000000E+00  0.58601229290E+02  0.13805535631E+03  0.12500070932E+03 0.  0.
    9000005    1    3    3    0    0 -0.44704100069E+02  0.30313050192E+02  0.64015021720E+02  0.83763121842E+02  0.10000000000E+01 0.  0.
    9000005    1    3    3    0    0  0.44704100069E+02 -0.30313050192E+02 -0.54137924301E+01  0.54292234467E+02  0.10000000000E+01 0.  0.
<mgrwt>
<rscale>  0 0.12500071E+03</rscale>
<asrwt>0</asrwt>
<pdfrwt beam="2">  1        4 0.61118561E-02 0.12500071E+03</pdfrwt>
<pdfrwt beam="1">  1       -4 0.15127429E-01 0.12500071E+03</pdfrwt>
<totfact> 0.10173887E+04</totfact>
</mgrwt>
</event>
<event>
 5    1  0.3516911E-002  0.1250006E+03  0.7818608E-02  0.1235068E+00
          4   -1    0    0  501    0  0.00000000000E+00  0.00000000000E+00  0.56927523538E+01  0.58326948627E+01  0.12700000000E+01 0. -1.
         -4   -1    0    0    0  501 -0.00000000000E+00 -0.00000000000E+00 -0.67771434380E+03  0.67771553375E+03  0.12700000000E+01 0. -1.
         25    2    1    2    0    0  0.00000000000E+00  0.00000000000E+00 -0.67202159144E+03  0.68354822861E+03  0.12500064590E+03 0.  0.
    9000005    1    3    3    0    0  0.32758883478E+02  0.45326405166E+02 -0.48850474086E+03  0.49169656221E+03  0.10000000000E+01 0.  0.
    9000005    1    3    3    0    0 -0.32758883478E+02 -0.45326405166E+02 -0.18351685059E+03  0.19185166640E+03  0.10000000000E+01 0.  0.
<mgrwt>
<rscale>  0 0.12500065E+03</rscale>
<asrwt>0</asrwt>
<pdfrwt beam="1">  1        4 0.88666494E-03 0.12500065E+03</pdfrwt>
<pdfrwt beam="2">  1       -4 0.10427454E+00 0.12500065E+03</pdfrwt>
<totfact> 0.43968908E+03</totfact>
</mgrwt>
</event>
<event>
 5    1  0.3516911E-002  0.1250022E+03  0.7818608E-02  0.1235066E+00
          4   -1    0    0  501    0  0.00000000000E+00  0.00000000000E+00  0.43930439866E+02  0.43948793462E+02  0.12700000000E+01 0.  1.
         -4   -1    0    0    0  501 -0.00000000000E+00 -0.00000000000E+00 -0.88880678449E+02  0.88889751386E+02  0.12700000000E+01 0.  1.
         25    2    1    2    0    0  0.00000000000E+00  0.00000000000E+00 -0.44950238583E+02  0.13283854485E+03  0.12500222018E+03 0.  0.
    9000005    1    3    3    0    0  0.26475713776E+01  0.50603340521E+02 -0.61342267045E+02  0.79571234956E+02  0.10000000000E+01 0.  0.
    9000005    1    3    3    0    0 -0.26475713776E+01 -0.50603340521E+02  0.16392028462E+02  0.53267309893E+02  0.10000000000E+01 0.  0.
<mgrwt>
<rscale>  0 0.12500222E+03</rscale>
<asrwt>0</asrwt>
<pdfrwt beam="1">  1        4 0.67606390E-02 0.12500222E+03</pdfrwt>
<pdfrwt beam="2">  1       -4 0.13676060E-01 0.12500222E+03</pdfrwt>
<totfact> 0.10283318E+04</totfact>
</mgrwt>
</event>
<event>
 5    1  0.3516911E-002  0.1250019E+03  0.7818608E-02  0.1235066E+00
         -4   -1    0    0    0  501 -0.00000000000E+00  0.00000000000E+00  0.18321125847E+03  0.18321566016E+03  0.12700000000E+01 0. -1.
          4   -1    0    0  501    0  0.00000000000E+00 -0.00000000000E+00 -0.21298085040E+02  0.21335916347E+02  0.12700000000E+01 0. -1.
         25    2    1    2    0    0  0.00000000000E+00  0.00000000000E+00  0.16191317343E+03  0.20455157651E+03  0.12500188688E+03 0.  0.
    9000005    1    3    3    0    0  0.47468386921E+02  0.24566197054E+02  0.13394681287E+03  0.14422029841E+03  0.10000000000E+01 0.  0.
    9000005    1    3    3    0    0 -0.47468386921E+02 -0.24566197054E+02  0.27966360553E+02  0.60331278100E+02  0.10000000000E+01 0.  0.
<mgrwt>
<rscale>  0 0.12500189E+03</rscale>
<asrwt>0</asrwt>
<pdfrwt beam="2">  1        4 0.32798772E-02 0.12500189E+03</pdfrwt>
<pdfrwt beam="1">  1       -4 0.28189596E-01 0.12500189E+03</pdfrwt>
<totfact> 0.89369711E+03</totfact>
</mgrwt>
</event>
<event>
 5    1  0.3516911E-002  0.1250005E+03  0.7818608E-02  0.1235069E+00
         -4   -1    0    0    0  501 -0.00000000000E+00  0.00000000000E+00  0.11678694126E+02  0.11747544275E+02  0.12700000000E+01 0.  1.
          4   -1    0    0  501    0  0.00000000000E+00 -0.00000000000E+00 -0.33342613136E+03  0.33342855002E+03  0.12700000000E+01 0.  1.
         25    2    1    2    0    0  0.00000000000E+00  0.00000000000E+00 -0.32174743723E+03  0.34517609430E+03  0.12500049084E+03 0.  0.
    9000005    1    3    3    0    0  0.33512191359E+01  0.13755372188E+02  0.72053781094E+01  0.15917236174E+02  0.10000000000E+01 0.  0.
    9000005    1    3    3    0    0 -0.33512191359E+01 -0.13755372188E+02 -0.32895281534E+03  0.32925885812E+03  0.10000000000E+01 0.  0.
<mgrwt>
<rscale>  0 0.12500049E+03</rscale>
<asrwt>0</asrwt>
<pdfrwt beam="2">  1        4 0.51301803E-01 0.12500049E+03</pdfrwt>
<pdfrwt beam="1">  1       -4 0.18022046E-02 0.12500049E+03</pdfrwt>
<totfact> 0.70257765E+03</totfact>
</mgrwt>
</event>
<event>
 5    1  0.3516911E-002  0.1250031E+03  0.7818608E-02  0.1235064E+00
          4   -1    0    0  501    0  0.00000000000E+00  0.00000000000E+00  0.10178878838E+03  0.10179671085E+03  0.12700000000E+01 0.  1.
         -4   -1    0    0    0  501 -0.00000000000E+00 -0.00000000000E+00 -0.38357987625E+02  0.38379006171E+02  0.12700000000E+01 0.  1.
         25    2    1    2    0    0  0.00000000000E+00  0.00000000000E+00  0.63430800755E+02  0.14017571702E+03  0.12500306059E+03 0.  0.
    9000005    1    3    3    0    0 -0.88880113408E+01  0.37407031206E+02  0.86961448083E+02  0.95087203040E+02  0.10000000000E+01 0.  0.
    9000005    1    3    3    0    0  0.88880113408E+01 -0.37407031206E+02 -0.23530647328E+02  0.45088513980E+02  0.10000000000E+01 0.  0.
<mgrwt>
<rscale>  0 0.12500306E+03</rscale>
<asrwt>0</asrwt>
<pdfrwt beam="1">  1        4 0.15662040E-01 0.12500306E+03</pdfrwt>
<pdfrwt beam="2">  1       -4 0.59034551E-02 0.12500306E+03</pdfrwt>
<totfact> 0.10129247E+04</totfact>
</mgrwt>
</event>
<event>
 5    1  0.3516911E-002  0.1250020E+03  0.7818608E-02  0.1235066E+00
         -4   -1    0    0    0  501 -0.00000000000E+00  0.00000000000E+00  0.36265988376E+02  0.36288218652E+02  0.12700000000E+01 0. -1.
          4   -1    0    0  501    0  0.00000000000E+00 -0.00000000000E+00 -0.10765558698E+03  0.10766307774E+03  0.12700000000E+01 0. -1.
         25    2    1    2    0    0  0.00000000000E+00  0.00000000000E+00 -0.71389598608E+02  0.14395129639E+03  0.12500200376E+03 0.  0.
    9000005    1    3    3    0    0 -0.16989439302E+02 -0.66910677537E+01 -0.10452073591E+03  0.10610841470E+03  0.10000000000E+01 0.  0.
    9000005    1    3    3    0    0  0.16989439302E+02  0.66910677537E+01  0.33131137305E+02  0.37842881689E+02  0.10000000000E+01 0.  0.
<mgrwt>
<rscale>  0 0.12500200E+03</rscale>
<asrwt>0</asrwt>
<pdfrwt beam="2">  1        4 0.16564684E-01 0.12500200E+03</pdfrwt>
<pdfrwt beam="1">  1       -4 0.55816691E-02 0.12500200E+03</pdfrwt>
<totfact> 0.10051886E+04</totfact>
</mgrwt>
</event>
<event>
 5    1  0.3516911E-002  0.1249958E+03  0.7818608E-02  0.1235076E+00
          4   -1    0    0  501    0  0.00000000000E+00  0.00000000000E+00  0.11921585940E+03  0.11922262383E+03  0.12700000000E+01 0. -1.
         -4   -1    0    0    0  501 -0.00000000000E+00 -0.00000000000E+00 -0.32744014361E+02  0.32768634034E+02  0.12700000000E+01 0. -1.
         25    2    1    2    0    0  0.00000000000E+00  0.00000000000E+00  0.86471845040E+02  0.15199125786E+03  0.12499584986E+03 0.  0.
    9000005    1    3    3    0    0  0.15286371098E+01  0.21969560427E+02  0.11434672503E+03  0.11645244455E+03  0.10000000000E+01 0.  0.
    9000005    1    3    3    0    0 -0.15286371098E+01 -0.21969560427E+02 -0.27874879993E+02  0.35538813309E+02  0.10000000000E+01 0.  0.
<mgrwt>
<rscale>  0 0.12499585E+03</rscale>
<asrwt>0</asrwt>
<pdfrwt beam="1">  1        4 0.18343315E-01 0.12499585E+03</pdfrwt>
<pdfrwt beam="2">  1       -4 0.50399549E-02 0.12499585E+03</pdfrwt>
<totfact> 0.98917479E+03</totfact>
</mgrwt>
</event>
<event>
 5    1  0.3516911E-002  0.1250035E+03  0.7818608E-02  0.1235064E+00
         -4   -1    0    0    0  501 -0.00000000000E+00  0.00000000000E+00  0.46301856249E+02  0.46319270203E+02  0.12700000000E+01 0.  1.
          4   -1    0    0  501    0  0.00000000000E+00 -0.00000000000E+00 -0.84331569051E+02  0.84341131357E+02  0.12700000000E+01 0.  1.
         25    2    1    2    0    0  0.00000000000E+00  0.00000000000E+00 -0.38029712802E+02  0.13066040156E+03  0.12500352587E+03 0.  0.
    9000005    1    3    3    0    0  0.14849479727E+02 -0.60396371392E+02 -0.12636098036E+02  0.63473614196E+02  0.10000000000E+01 0.  0.
    9000005    1    3    3    0    0 -0.14849479727E+02  0.60396371392E+02 -0.25393614765E+02  0.67186787364E+02  0.10000000000E+01 0.  0.
<mgrwt>
<rscale>  0 0.12500353E+03</rscale>
<asrwt>0</asrwt>
<pdfrwt beam="2">  1        4 0.12976163E-01 0.12500353E+03</pdfrwt>
<pdfrwt beam="1">  1       -4 0.71254376E-02 0.12500353E+03</pdfrwt>
<totfact> 0.10329553E+04</totfact>
</mgrwt>
</event>
<event>
 5    1  0.3516911E-002  0.1249983E+03  0.7818608E-02  0.1235072E+00
         -4   -1    0    0    0  501 -0.00000000000E+00  0.00000000000E+00  0.47308006668E+03  0.47308177136E+03  0.12700000000E+01 0. -1.
          4   -1    0    0  501    0  0.00000000000E+00 -0.00000000000E+00 -0.82062671625E+01  0.83039581371E+01  0.12700000000E+01 0. -1.
         25    2    1    2    0    0  0.00000000000E+00  0.00000000000E+00  0.46487379952E+03  0.48138572949E+03  0.12499828432E+03 0.  0.
    9000005    1    3    3    0    0 -0.39214385687E+02  0.22982936240E+00  0.45059236865E+02  0.59742411177E+02  0.10000000000E+01 0.  0.
    9000005    1    3    3    0    0  0.39214385687E+02 -0.22982936240E+00  0.41981456265E+03  0.42164331832E+03  0.10000000000E+01 0.  0.
<mgrwt>
<rscale>  0 0.12499828E+03</rscale>
<asrwt>0</asrwt>
<pdfrwt beam="2">  1        4 0.12701488E-02 0.12499828E+03</pdfrwt>
<pdfrwt beam="1">  1       -4 0.72789175E-01 0.12499828E+03</pdfrwt>
<totfact> 0.57340265E+03</totfact>
</mgrwt>
</event>
<event>
 5    1  0.3516911E-002  0.1249986E+03  0.7818608E-02  0.1235071E+00
          4   -1    0    0  501    0  0.00000000000E+00  0.00000000000E+00  0.73435567532E+02  0.73446548447E+02  0.12700000000E+01 0. -1.
         -4   -1    0    0    0  501 -0.00000000000E+00 -0.00000000000E+00 -0.53169196261E+02  0.53184361715E+02  0.12700000000E+01 0. -1.
         25    2    1    2    0    0  0.00000000000E+00  0.00000000000E+00  0.20266371271E+02  0.12663091016E+03  0.12499864641E+03 0.  0.
    9000005    1    3    3    0    0 -0.43802778143E+01 -0.43779272691E+02 -0.34823708113E+02  0.56120425852E+02  0.10000000000E+01 0.  0.
    9000005    1    3    3    0    0  0.43802778143E+01  0.43779272691E+02  0.55090079384E+02  0.70510484310E+02  0.10000000000E+01 0.  0.
<mgrwt>
<rscale>  0 0.12499865E+03</rscale>
<asrwt>0</asrwt>
<pdfrwt beam="1">  1        4 0.11299791E-01 0.12499865E+03</pdfrwt>
<pdfrwt beam="2">  1       -4 0.81818876E-02 0.12499865E+03</pdfrwt>
<totfact> 0.10417493E+04</totfact>
</mgrwt>
</event>
<event>
 5    1  0.3516911E-002  0.1249751E+03  0.7818608E-02  0.1235108E+00
          4   -1    0    0  501    0  0.00000000000E+00  0.00000000000E+00  0.23843769599E+03  0.23844107819E+03  0.12700000000E+01 0.  1.
         -4   -1    0    0    0  501 -0.00000000000E+00 -0.00000000000E+00 -0.16348038452E+02  0.16397294327E+02  0.12700000000E+01 0.  1.
         25    2    1    2    0    0  0.00000000000E+00  0.00000000000E+00  0.22208965754E+03  0.25483837252E+03  0.12497511801E+03 0.  0.
    9000005    1    3    3    0    0 -0.29030448391E+02  0.52852240205E+02  0.77689977805E+02  0.98350693337E+02  0.10000000000E+01 0.  0.
    9000005    1    3    3    0    0  0.29030448391E+02 -0.52852240205E+02  0.14439967973E+03  0.15648767918E+03  0.10000000000E+01 0.  0.
<mgrwt>
<rscale>  0 0.12497512E+03</rscale>
<asrwt>0</asrwt>
<pdfrwt beam="1">  1        4 0.36686772E-01 0.12497512E+03</pdfrwt>
<pdfrwt beam="2">  1       -4 0.25191319E-02 0.12497512E+03</pdfrwt>
<totfact> 0.81681171E+03</totfact>
</mgrwt>
</event>
<event>
 5    1  0.3516911E-002  0.1250010E+03  0.7818608E-02  0.1235068E+00
         -4   -1    0    0    0  501 -0.00000000000E+00  0.00000000000E+00  0.10416832706E+04  0.10416840448E+04  0.12700000000E+01 0. -1.
          4   -1    0    0  501    0  0.00000000000E+00 -0.00000000000E+00 -0.36416766838E+01  0.38567744385E+01  0.12700000000E+01 0. -1.
         25    2    1    2    0    0  0.00000000000E+00  0.00000000000E+00  0.10380415939E+04  0.10455408192E+04  0.12500101580E+03 0.  0.
    9000005    1    3    3    0    0  0.28598538153E+02  0.41731593724E+02  0.82587752671E+03  0.82742618488E+03  0.10000000000E+01 0.  0.
    9000005    1    3    3    0    0 -0.28598538153E+02 -0.41731593724E+02  0.21216406721E+03  0.21811463434E+03  0.10000000000E+01 0.  0.
<mgrwt>
<rscale>  0 0.12500102E+03</rscale>
<asrwt>0</asrwt>
<pdfrwt beam="2">  1        4 0.57686303E-03 0.12500102E+03</pdfrwt>
<pdfrwt beam="1">  1       -4 0.16027570E+00 0.12500102E+03</pdfrwt>
<totfact> 0.29133737E+03</totfact>
</mgrwt>
</event>
<event>
 5    1  0.3516911E-002  0.1249996E+03  0.7818608E-02  0.1235070E+00
          4   -1    0    0  501    0  0.00000000000E+00  0.00000000000E+00  0.18172727319E+03  0.18173171083E+03  0.12700000000E+01 0. -1.
         -4   -1    0    0    0  501 -0.00000000000E+00 -0.00000000000E+00 -0.21471535990E+02  0.21509062224E+02  0.12700000000E+01 0. -1.
         25    2    1    2    0    0  0.00000000000E+00  0.00000000000E+00  0.16025573720E+03  0.20324077306E+03  0.12499964210E+03 0.  0.
    9000005    1    3    3    0    0 -0.24275414476E+02  0.57300116036E+02  0.70840317965E+02  0.94297135137E+02  0.10000000000E+01 0.  0.
    9000005    1    3    3    0    0  0.24275414476E+02 -0.57300116036E+02  0.89415419236E+02  0.10894363792E+03  0.10000000000E+01 0.  0.
<mgrwt>
<rscale>  0 0.12499964E+03</rscale>
<asrwt>0</asrwt>
<pdfrwt beam="1">  1        4 0.27961270E-01 0.12499964E+03</pdfrwt>
<pdfrwt beam="2">  1       -4 0.33065412E-02 0.12499964E+03</pdfrwt>
<totfact> 0.89592504E+03</totfact>
</mgrwt>
</event>
<event>
 5    1  0.3516911E-002  0.1250000E+03  0.7818608E-02  0.1235069E+00
         -4   -1    0    0    0  501 -0.00000000000E+00  0.00000000000E+00  0.44543038211E+02  0.44561139495E+02  0.12700000000E+01 0.  1.
          4   -1    0    0  501    0  0.00000000000E+00 -0.00000000000E+00 -0.87655574784E+02  0.87664774514E+02  0.12700000000E+01 0.  1.
         25    2    1    2    0    0  0.00000000000E+00  0.00000000000E+00 -0.43112536573E+02  0.13222591401E+03  0.12500000610E+03 0.  0.
    9000005    1    3    3    0    0  0.23731052742E+02 -0.57759916035E+02 -0.18991305573E+02  0.65276645532E+02  0.10000000000E+01 0.  0.
    9000005    1    3    3    0    0 -0.23731052742E+02  0.57759916035E+02 -0.24121231000E+02  0.66949268477E+02  0.10000000000E+01 0.  0.
<mgrwt>
<rscale>  0 0.12500001E+03</rscale>
<asrwt>0</asrwt>
<pdfrwt beam="2">  1        4 0.13487573E-01 0.12500001E+03</pdfrwt>
<pdfrwt beam="1">  1       -4 0.68548752E-02 0.12500001E+03</pdfrwt>
<totfact> 0.10296877E+04</totfact>
</mgrwt>
</event>
<event>
 5    1  0.3516911E-002  0.1249995E+03  0.7818608E-02  0.1235070E+00
         -4   -1    0    0    0  501 -0.00000000000E+00  0.00000000000E+00  0.92899442601E+03  0.92899529410E+03  0.12700000000E+01 0.  1.
          4   -1    0    0  501    0  0.00000000000E+00 -0.00000000000E+00 -0.41079923753E+01  0.42998257355E+01  0.12700000000E+01 0.  1.
         25    2    1    2    0    0  0.00000000000E+00  0.00000000000E+00  0.92488643363E+03  0.93329511983E+03  0.12499946234E+03 0.  0.
    9000005    1    3    3    0    0  0.24359922866E+02  0.49854598623E+02  0.67707176696E+03  0.67934237647E+03  0.10000000000E+01 0.  0.
    9000005    1    3    3    0    0 -0.24359922866E+02 -0.49854598623E+02  0.24781466667E+03  0.25395274336E+03  0.10000000000E+01 0.  0.
<mgrwt>
<rscale>  0 0.12499946E+03</rscale>
<asrwt>0</asrwt>
<pdfrwt beam="2">  1        4 0.64682176E-03 0.12499946E+03</pdfrwt>
<pdfrwt beam="1">  1       -4 0.14293710E+00 0.12499946E+03</pdfrwt>
<totfact> 0.32916957E+03</totfact>
</mgrwt>
</event>
<event>
 5    1  0.3516911E-002  0.1250131E+03  0.7818608E-02  0.1235049E+00
         -4   -1    0    0    0  501 -0.00000000000E+00  0.00000000000E+00  0.68327159962E+01  0.69497415697E+01  0.12700000000E+01 0. -1.
          4   -1    0    0  501    0  0.00000000000E+00 -0.00000000000E+00 -0.56684521978E+03  0.56684664248E+03  0.12700000000E+01 0. -1.
         25    2    1    2    0    0  0.00000000000E+00  0.00000000000E+00 -0.56001250379E+03  0.57379638405E+03  0.12501314311E+03 0.  0.
    9000005    1    3    3    0    0 -0.17372803677E+02  0.21824240485E+02 -0.23302209512E+02  0.36360758360E+02  0.10000000000E+01 0.  0.
    9000005    1    3    3    0    0  0.17372803677E+02 -0.21824240485E+02 -0.53671029428E+03  0.53743562569E+03  0.10000000000E+01 0.  0.
<mgrwt>
<rscale>  0 0.12501314E+03</rscale>
<asrwt>0</asrwt>
<pdfrwt beam="2">  1        4 0.87216031E-01 0.12501314E+03</pdfrwt>
<pdfrwt beam="1">  1       -4 0.10602989E-02 0.12501314E+03</pdfrwt>
<totfact> 0.50550001E+03</totfact>
</mgrwt>
</event>
<event>
 5    1  0.3516911E-002  0.1249991E+03  0.7818608E-02  0.1235071E+00
          4   -1    0    0  501    0  0.00000000000E+00  0.00000000000E+00  0.17172157008E+02  0.17219055616E+02  0.12700000000E+01 0. -1.
         -4   -1    0    0    0  501 -0.00000000000E+00 -0.00000000000E+00 -0.22711362299E+03  0.22711717383E+03  0.12700000000E+01 0. -1.
         25    2    1    2    0    0  0.00000000000E+00  0.00000000000E+00 -0.20994146599E+03  0.24433622945E+03  0.12499909552E+03 0.  0.
    9000005    1    3    3    0    0  0.84894884615E+01  0.33966290974E+02 -0.20615216882E+03  0.20910642516E+03  0.10000000000E+01 0.  0.
    9000005    1    3    3    0    0 -0.84894884615E+01 -0.33966290974E+02 -0.37892971703E+01  0.35229804285E+02  0.10000000000E+01 0.  0.
<mgrwt>
<rscale>  0 0.12499910E+03</rscale>
<asrwt>0</asrwt>
<pdfrwt beam="1">  1        4 0.26457512E-02 0.12499910E+03</pdfrwt>
<pdfrwt beam="2">  1       -4 0.34944436E-01 0.12499910E+03</pdfrwt>
<totfact> 0.83157449E+03</totfact>
</mgrwt>
</event>
<event>
 5    1  0.3516911E-002  0.1249965E+03  0.7818608E-02  0.1235075E+00
          4   -1    0    0  501    0  0.00000000000E+00  0.00000000000E+00  0.41740526639E+03  0.41740719844E+03  0.12700000000E+01 0. -1.
         -4   -1    0    0    0  501 -0.00000000000E+00 -0.00000000000E+00 -0.93128394091E+01  0.93990360069E+01  0.12700000000E+01 0. -1.
         25    2    1    2    0    0  0.00000000000E+00  0.00000000000E+00  0.40809242698E+03  0.42680623444E+03  0.12499653117E+03 0.  0.
    9000005    1    3    3    0    0  0.24319973112E+01 -0.14659202735E+02 -0.32092304100E+01  0.15235025289E+02  0.10000000000E+01 0.  0.
    9000005    1    3    3    0    0 -0.24319973112E+01  0.14659202735E+02  0.41130165739E+03  0.41157120915E+03  0.10000000000E+01 0.  0.
<mgrwt>
<rscale>  0 0.12499653E+03</rscale>
<asrwt>0</asrwt>
<pdfrwt beam="1">  1        4 0.64222966E-01 0.12499653E+03</pdfrwt>
<pdfrwt beam="2">  1       -4 0.14395238E-02 0.12499653E+03</pdfrwt>
<totfact> 0.62031305E+03</totfact>
</mgrwt>
</event>
<event>
 5    1  0.3516911E-002  0.1250042E+03  0.7818608E-02  0.1235063E+00
          4   -1    0    0  501    0  0.00000000000E+00  0.00000000000E+00  0.40480106626E+03  0.40480305847E+03  0.12700000000E+01 0.  1.
         -4   -1    0    0    0  501 -0.00000000000E+00 -0.00000000000E+00 -0.96066371225E+01  0.96902206788E+01  0.12700000000E+01 0.  1.
         25    2    1    2    0    0  0.00000000000E+00  0.00000000000E+00  0.39519442914E+03  0.41449327915E+03  0.12500416648E+03 0.  0.
    9000005    1    3    3    0    0  0.32822844623E+02 -0.14224509948E+01  0.21322326165E+02  0.39179128232E+02  0.10000000000E+01 0.  0.
    9000005    1    3    3    0    0 -0.32822844623E+02  0.14224509948E+01  0.37387210297E+03  0.37531415091E+03  0.10000000000E+01 0.  0.
<mgrwt>
<rscale>  0 0.12500417E+03</rscale>
<asrwt>0</asrwt>
<pdfrwt beam="1">  1        4 0.62283669E-01 0.12500417E+03</pdfrwt>
<pdfrwt beam="2">  1       -4 0.14845269E-02 0.12500417E+03</pdfrwt>
<totfact> 0.63161376E+03</totfact>
</mgrwt>
</event>
<event>
 5    1  0.3516911E-002  0.1249984E+03  0.7818608E-02  0.1235072E+00
         -4   -1    0    0    0  501 -0.00000000000E+00  0.00000000000E+00  0.39214189976E+03  0.39214395628E+03  0.12700000000E+01 0. -1.
          4   -1    0    0  501    0  0.00000000000E+00 -0.00000000000E+00 -0.99184966505E+01  0.99994737764E+01  0.12700000000E+01 0. -1.
         25    2    1    2    0    0  0.00000000000E+00  0.00000000000E+00  0.38222340311E+03  0.40214343006E+03  0.12499843380E+03 0.  0.
    9000005    1    3    3    0    0  0.49104827569E+02  0.12840575072E+02  0.30839519128E+03  0.31254561022E+03  0.10000000000E+01 0.  0.
    9000005    1    3    3    0    0 -0.49104827569E+02 -0.12840575072E+02  0.73828211828E+02  0.89597819842E+02  0.10000000000E+01 0.  0.
<mgrwt>
<rscale>  0 0.12499843E+03</rscale>
<asrwt>0</asrwt>
<pdfrwt beam="2">  1        4 0.15323099E-02 0.12499843E+03</pdfrwt>
<pdfrwt beam="1">  1       -4 0.60335906E-01 0.12499843E+03</pdfrwt>
<totfact> 0.64347080E+03</totfact>
</mgrwt>
</event>
<event>
 5    1  0.3516911E-002  0.1249990E+03  0.7818608E-02  0.1235071E+00
          4   -1    0    0  501    0  0.00000000000E+00  0.00000000000E+00  0.25754621463E+02  0.25785915277E+02  0.12700000000E+01 0.  1.
         -4   -1    0    0    0  501 -0.00000000000E+00 -0.00000000000E+00 -0.15154326044E+03  0.15154858193E+03  0.12700000000E+01 0.  1.
         25    2    1    2    0    0  0.00000000000E+00  0.00000000000E+00 -0.12578863898E+03  0.17733449721E+03  0.12499896881E+03 0.  0.
    9000005    1    3    3    0    0 -0.48520171819E+02 -0.38268901181E+02 -0.49702074017E+02  0.79309596093E+02  0.10000000000E+01 0.  0.
    9000005    1    3    3    0    0  0.48520171819E+02  0.38268901181E+02 -0.76086564962E+02  0.98024901115E+02  0.10000000000E+01 0.  0.
<mgrwt>
<rscale>  0 0.12499897E+03</rscale>
<asrwt>0</asrwt>
<pdfrwt beam="1">  1        4 0.39650661E-02 0.12499897E+03</pdfrwt>
<pdfrwt beam="2">  1       -4 0.23317164E-01 0.12499897E+03</pdfrwt>
<totfact> 0.94101191E+03</totfact>
</mgrwt>
</event>
<event>
 5    1  0.3516911E-002  0.1249995E+03  0.7818608E-02  0.1235070E+00
         -4   -1    0    0    0  501 -0.00000000000E+00  0.00000000000E+00  0.29100960080E+02  0.29128659041E+02  0.12700000000E+01 0.  1.
          4   -1    0    0  501    0  0.00000000000E+00 -0.00000000000E+00 -0.13413529965E+03  0.13414131173E+03  0.12700000000E+01 0.  1.
         25    2    1    2    0    0  0.00000000000E+00  0.00000000000E+00 -0.10503433957E+03  0.16326997077E+03  0.12499948346E+03 0.  0.
    9000005    1    3    3    0    0  0.23169893914E+02 -0.45653643291E+02 -0.57112630728E+01  0.51523952251E+02  0.10000000000E+01 0.  0.
    9000005    1    3    3    0    0 -0.23169893914E+02  0.45653643291E+02 -0.99323076496E+02  0.11174601852E+03  0.10000000000E+01 0.  0.
<mgrwt>
<rscale>  0 0.12499948E+03</rscale>
<asrwt>0</asrwt>
<pdfrwt beam="2">  1        4 0.20638793E-01 0.12499948E+03</pdfrwt>
<pdfrwt beam="1">  1       -4 0.44796640E-02 0.12499948E+03</pdfrwt>
<totfact> 0.96717162E+03</totfact>
</mgrwt>
</event>
<event>
 4    1  0.3516911E-002  0.1251636E+03  0.7818608E-02  0.1234814E+00
          4   -1    0    0  501    0  0.00000000000E+00  0.00000000000E+00  0.26298640406E+02  0.26329287632E+02  0.12700000000E+01 0.  1.
         -4   -1    0    0    0  501 -0.00000000000E+00 -0.00000000000E+00 -0.14880325722E+03  0.14880867670E+03  0.12700000000E+01 0.  1.
    9000005    1    1    2    0    0 -0.17974336388E+02 -0.27090232976E+02  0.13560021641E+02  0.35239632208E+02  0.10000000000E+01 0.  0.
    9000005    1    1    2    0    0  0.17974336388E+02  0.27090232976E+02 -0.13606463846E+03  0.13989833212E+03  0.10000000000E+01 0.  0.
<mgrwt>
<rscale>  0 0.12516359E+03</rscale>
<asrwt>0</asrwt>
<pdfrwt beam="1">  1        4 0.40487191E-02 0.12516359E+03</pdfrwt>
<pdfrwt beam="2">  1       -4 0.22895583E-01 0.12516359E+03</pdfrwt>
<totfact> 0.94153608E+03</totfact>
</mgrwt>
</event>
<event>
 5    1  0.3516911E-002  0.1250015E+03  0.7818608E-02  0.1235067E+00
         -4   -1    0    0    0  501 -0.00000000000E+00  0.00000000000E+00  0.20371142781E+02  0.20410692252E+02  0.12700000000E+01 0.  1.
          4   -1    0    0  501    0  0.00000000000E+00 -0.00000000000E+00 -0.19153105141E+03  0.19153526190E+03  0.12700000000E+01 0.  1.
         25    2    1    2    0    0  0.00000000000E+00  0.00000000000E+00 -0.17115990862E+03  0.21194595416E+03  0.12500149264E+03 0.  0.
    9000005    1    3    3    0    0 -0.58236494113E+02 -0.20119308089E+02 -0.10328746788E+03  0.12027292640E+03  0.10000000000E+01 0.  0.
    9000005    1    3    3    0    0  0.58236494113E+02  0.20119308089E+02 -0.67872440747E+02  0.91673027754E+02  0.10000000000E+01 0.  0.
<mgrwt>
<rscale>  0 0.12500149E+03</rscale>
<asrwt>0</asrwt>
<pdfrwt beam="2">  1        4 0.29469681E-01 0.12500149E+03</pdfrwt>
<pdfrwt beam="1">  1       -4 0.31373882E-02 0.12500149E+03</pdfrwt>
<totfact> 0.88156123E+03</totfact>
</mgrwt>
</event>
<event>
 5    1  0.3516911E-002  0.1249984E+03  0.7818608E-02  0.1235072E+00
          4   -1    0    0  501    0  0.00000000000E+00  0.00000000000E+00  0.22244865125E+03  0.22245227656E+03  0.12700000000E+01 0.  1.
         -4   -1    0    0    0  501 -0.00000000000E+00 -0.00000000000E+00 -0.17533040333E+02  0.17578976174E+02  0.12700000000E+01 0.  1.
         25    2    1    2    0    0  0.00000000000E+00  0.00000000000E+00  0.20491561092E+03  0.24003125273E+03  0.12499837874E+03 0.  0.
    9000005    1    3    3    0    0  0.35476889503E+02 -0.38688339018E+02  0.37345153131E+02  0.64428702665E+02  0.10000000000E+01 0.  0.
    9000005    1    3    3    0    0 -0.35476889503E+02  0.38688339018E+02  0.16757045779E+03  0.17560255006E+03  0.10000000000E+01 0.  0.
<mgrwt>
<rscale>  0 0.12499838E+03</rscale>
<asrwt>0</asrwt>
<pdfrwt beam="1">  1        4 0.34226680E-01 0.12499838E+03</pdfrwt>
<pdfrwt beam="2">  1       -4 0.27012034E-02 0.12499838E+03</pdfrwt>
<totfact> 0.83795742E+03</totfact>
</mgrwt>
</event>
<event>
 5    1  0.3516911E-002  0.1250029E+03  0.7818608E-02  0.1235065E+00
          4   -1    0    0  501    0  0.00000000000E+00  0.00000000000E+00  0.60423448629E+02  0.60436793795E+02  0.12700000000E+01 0. -1.
         -4   -1    0    0    0  501 -0.00000000000E+00 -0.00000000000E+00 -0.64624161954E+02  0.64636639828E+02  0.12700000000E+01 0. -1.
         25    2    1    2    0    0  0.00000000000E+00  0.00000000000E+00 -0.42007133246E+01  0.12507343362E+03  0.12500287119E+03 0.  0.
    9000005    1    3    3    0    0  0.29337473155E+01  0.44357293362E+02 -0.46048414562E+02  0.64012755224E+02  0.10000000000E+01 0.  0.
    9000005    1    3    3    0    0 -0.29337473155E+01 -0.44357293362E+02  0.41847701237E+02  0.61060678399E+02  0.10000000000E+01 0.  0.
<mgrwt>
<rscale>  0 0.12500287E+03</rscale>
<asrwt>0</asrwt>
<pdfrwt beam="1">  1        4 0.92979015E-02 0.12500287E+03</pdfrwt>
<pdfrwt beam="2">  1       -4 0.99441652E-02 0.12500287E+03</pdfrwt>
<totfact> 0.10450590E+04</totfact>
</mgrwt>
</event>
<event>
 5    1  0.3516911E-002  0.1250019E+03  0.7818608E-02  0.1235066E+00
          4   -1    0    0  501    0  0.00000000000E+00  0.00000000000E+00  0.15204493237E+03  0.15205023631E+03  0.12700000000E+01 0.  1.
         -4   -1    0    0    0  501 -0.00000000000E+00 -0.00000000000E+00 -0.25670732918E+02  0.25702128872E+02  0.12700000000E+01 0.  1.
         25    2    1    2    0    0  0.00000000000E+00  0.00000000000E+00  0.12637419946E+03  0.17775236518E+03  0.12500186014E+03 0.  0.
    9000005    1    3    3    0    0 -0.39630730242E+02 -0.39156749975E+01 -0.52971003195E+01  0.40186895401E+02  0.10000000000E+01 0.  0.
    9000005    1    3    3    0    0  0.39630730242E+02  0.39156749975E+01  0.13167129978E+03  0.13756546978E+03  0.10000000000E+01 0.  0.
<mgrwt>
<rscale>  0 0.12500186E+03</rscale>
<asrwt>0</asrwt>
<pdfrwt beam="1">  1        4 0.23394352E-01 0.12500186E+03</pdfrwt>
<pdfrwt beam="2">  1       -4 0.39521665E-02 0.12500186E+03</pdfrwt>
<totfact> 0.94019233E+03</totfact>
</mgrwt>
</event>
<event>
 5    1  0.3516911E-002  0.1250010E+03  0.7818608E-02  0.1235068E+00
         -4   -1    0    0    0  501 -0.00000000000E+00  0.00000000000E+00  0.12418879808E+03  0.12419529165E+03  0.12700000000E+01 0.  1.
          4   -1    0    0  501    0  0.00000000000E+00 -0.00000000000E+00 -0.31434484174E+02  0.31460128659E+02  0.12700000000E+01 0.  1.
         25    2    1    2    0    0  0.00000000000E+00  0.00000000000E+00  0.92754313903E+02  0.15565542031E+03  0.12500098849E+03 0.  0.
    9000005    1    3    3    0    0 -0.35258439933E+02 -0.11878233439E+02 -0.16146236896E+02  0.40570321444E+02  0.10000000000E+01 0.  0.
    9000005    1    3    3    0    0  0.35258439933E+02  0.11878233439E+02  0.10890055080E+03  0.11508509886E+03  0.10000000000E+01 0.  0.
<mgrwt>
<rscale>  0 0.12500099E+03</rscale>
<asrwt>0</asrwt>
<pdfrwt beam="2">  1        4 0.48385466E-02 0.12500099E+03</pdfrwt>
<pdfrwt beam="1">  1       -4 0.19108441E-01 0.12500099E+03</pdfrwt>
<totfact> 0.98184802E+03</totfact>
</mgrwt>
</event>
<event>
 5    1  0.3516911E-002  0.1250086E+03  0.7818608E-02  0.1235056E+00
          4   -1    0    0  501    0  0.00000000000E+00  0.00000000000E+00  0.92231073137E+03  0.92231160575E+03  0.12700000000E+01 0. -1.
         -4   -1    0    0    0  501 -0.00000000000E+00 -0.00000000000E+00 -0.41397816765E+01  0.43302069614E+01  0.12700000000E+01 0. -1.
         25    2    1    2    0    0  0.00000000000E+00  0.00000000000E+00  0.91817094969E+03  0.92664181271E+03  0.12500862451E+03 0.  0.
    9000005    1    3    3    0    0  0.28639372562E+02  0.17955099622E+00  0.87083938163E+03  0.87131077951E+03  0.10000000000E+01 0.  0.
    9000005    1    3    3    0    0 -0.28639372562E+02 -0.17955099622E+00  0.47331568064E+02  0.55331033198E+02  0.10000000000E+01 0.  0.
<mgrwt>
<rscale>  0 0.12500862E+03</rscale>
<asrwt>0</asrwt>
<pdfrwt beam="1">  1        4 0.14190884E+00 0.12500862E+03</pdfrwt>
<pdfrwt beam="2">  1       -4 0.65160408E-03 0.12500862E+03</pdfrwt>
<totfact> 0.33153779E+03</totfact>
</mgrwt>
</event>
<event>
 5    1  0.3516911E-002  0.1249838E+03  0.7818608E-02  0.1235095E+00
          4   -1    0    0  501    0  0.00000000000E+00  0.00000000000E+00  0.14349185025E+04  0.14349190645E+04  0.12700000000E+01 0.  1.
         -4   -1    0    0    0  501 -0.00000000000E+00 -0.00000000000E+00 -0.25728210240E+01  0.28691998922E+01  0.12700000000E+01 0.  1.
         25    2    1    2    0    0  0.00000000000E+00  0.00000000000E+00  0.14323456814E+04  0.14377882644E+04  0.12498376707E+03 0.  0.
    9000005    1    3    3    0    0 -0.36073287113E+02  0.50977653164E+02  0.69250646589E+03  0.69531734371E+03  0.10000000000E+01 0.  0.
    9000005    1    3    3    0    0  0.36073287113E+02 -0.50977653164E+02  0.73983921555E+03  0.74247092066E+03  0.10000000000E+01 0.  0.
<mgrwt>
<rscale>  0 0.12498377E+03</rscale>
<asrwt>0</asrwt>
<pdfrwt beam="1">  1        4 0.22077963E+00 0.12498377E+03</pdfrwt>
<pdfrwt beam="2">  1       -4 0.41866004E-03 0.12498377E+03</pdfrwt>
<totfact> 0.19191046E+03</totfact>
</mgrwt>
</event>
<event>
 5    1  0.3516911E-002  0.1250015E+03  0.7818608E-02  0.1235067E+00
          4   -1    0    0  501    0  0.00000000000E+00  0.00000000000E+00  0.19777330236E+03  0.19777737996E+03  0.12700000000E+01 0.  1.
         -4   -1    0    0    0  501 -0.00000000000E+00 -0.00000000000E+00 -0.19726924128E+02  0.19767762532E+02  0.12700000000E+01 0.  1.
         25    2    1    2    0    0  0.00000000000E+00  0.00000000000E+00  0.17804637823E+03  0.21754514249E+03  0.12500150488E+03 0.  0.
    9000005    1    3    3    0    0  0.50235126475E+02 -0.11829073123E+02  0.15035256875E+03  0.15896663119E+03  0.10000000000E+01 0.  0.
    9000005    1    3    3    0    0 -0.50235126475E+02  0.11829073123E+02  0.27693809477E+02  0.58578511302E+02  0.10000000000E+01 0.  0.
<mgrwt>
<rscale>  0 0.12500150E+03</rscale>
<asrwt>0</asrwt>
<pdfrwt beam="1">  1        4 0.30430116E-01 0.12500150E+03</pdfrwt>
<pdfrwt beam="2">  1       -4 0.30383666E-02 0.12500150E+03</pdfrwt>
<totfact> 0.87255362E+03</totfact>
</mgrwt>
</event>
<event>
 5    1  0.3516911E-002  0.1250015E+03  0.7818608E-02  0.1235067E+00
          4   -1    0    0  501    0  0.00000000000E+00  0.00000000000E+00  0.27238595471E+02  0.27268186284E+02  0.12700000000E+01 0.  1.
         -4   -1    0    0    0  501 -0.00000000000E+00 -0.00000000000E+00 -0.14330175062E+03  0.14330737814E+03  0.12700000000E+01 0.  1.
         25    2    1    2    0    0  0.00000000000E+00  0.00000000000E+00 -0.11606315514E+03  0.17057556442E+03  0.12500146878E+03 0.  0.
    9000005    1    3    3    0    0 -0.15427908793E+02  0.19439758442E+02 -0.13629542283E+03  0.13854012727E+03  0.10000000000E+01 0.  0.
    9000005    1    3    3    0    0  0.15427908793E+02 -0.19439758442E+02  0.20232267689E+02  0.32035437157E+02  0.10000000000E+01 0.  0.
<mgrwt>
<rscale>  0 0.12500147E+03</rscale>
<asrwt>0</asrwt>
<pdfrwt beam="1">  1        4 0.41932624E-02 0.12500147E+03</pdfrwt>
<pdfrwt beam="2">  1       -4 0.22049132E-01 0.12500147E+03</pdfrwt>
<totfact> 0.95338325E+03</totfact>
</mgrwt>
</event>
<event>
 5    1  0.3516911E-002  0.1250029E+03  0.7818608E-02  0.1235065E+00
         -4   -1    0    0    0  501 -0.00000000000E+00  0.00000000000E+00  0.52592889688E+02  0.52608221275E+02  0.12700000000E+01 0.  1.
          4   -1    0    0  501    0  0.00000000000E+00 -0.00000000000E+00 -0.74245239938E+02  0.74256101120E+02  0.12700000000E+01 0.  1.
         25    2    1    2    0    0  0.00000000000E+00  0.00000000000E+00 -0.21652350250E+02  0.12686432240E+03  0.12500292807E+03 0.  0.
    9000005    1    3    3    0    0 -0.62366144136E+01 -0.48530795359E+02  0.28628147765E+02  0.56698362428E+02  0.10000000000E+01 0.  0.
    9000005    1    3    3    0    0  0.62366144136E+01  0.48530795359E+02 -0.50280498015E+02  0.70165959968E+02  0.10000000000E+01 0.  0.
<mgrwt>
<rscale>  0 0.12500293E+03</rscale>
<asrwt>0</asrwt>
<pdfrwt beam="2">  1        4 0.11424359E-01 0.12500293E+03</pdfrwt>
<pdfrwt beam="1">  1       -4 0.80932286E-02 0.12500293E+03</pdfrwt>
<totfact> 0.10411407E+04</totfact>
</mgrwt>
</event>
<event>
 5    1  0.3516911E-002  0.1249962E+03  0.7818608E-02  0.1235075E+00
          4   -1    0    0  501    0  0.00000000000E+00  0.00000000000E+00  0.49144096355E+02  0.49160503522E+02  0.12700000000E+01 0.  1.
         -4   -1    0    0    0  501 -0.00000000000E+00 -0.00000000000E+00 -0.79446062614E+02  0.79456212878E+02  0.12700000000E+01 0.  1.
         25    2    1    2    0    0  0.00000000000E+00  0.00000000000E+00 -0.30301966260E+02  0.12861671640E+03  0.12499620226E+03 0.  0.
    9000005    1    3    3    0    0 -0.33350107642E+02 -0.51239266299E+02 -0.18410692120E+01  0.61172556154E+02  0.10000000000E+01 0.  0.
    9000005    1    3    3    0    0  0.33350107642E+02  0.51239266299E+02 -0.28460897048E+02  0.67444160246E+02  0.10000000000E+01 0.  0.
<mgrwt>
<rscale>  0 0.12499620E+03</rscale>
<asrwt>0</asrwt>
<pdfrwt beam="1">  1        4 0.75626731E-02 0.12499620E+03</pdfrwt>
<pdfrwt beam="2">  1       -4 0.12224514E-01 0.12499620E+03</pdfrwt>
<totfact> 0.10375080E+04</totfact>
</mgrwt>
</event>
<event>
 5    1  0.3516911E-002  0.1249977E+03  0.7818608E-02  0.1235073E+00
          4   -1    0    0  501    0  0.00000000000E+00  0.00000000000E+00  0.42801270757E+02  0.42820108342E+02  0.12700000000E+01 0. -1.
         -4   -1    0    0    0  501 -0.00000000000E+00 -0.00000000000E+00 -0.91218045380E+02  0.91226885856E+02  0.12700000000E+01 0. -1.
         25    2    1    2    0    0  0.00000000000E+00  0.00000000000E+00 -0.48416774623E+02  0.13404699420E+03  0.12499765033E+03 0.  0.
    9000005    1    3    3    0    0 -0.55757991320E+02  0.60725261000E+01  0.53414087949E+01  0.56350331118E+02  0.10000000000E+01 0.  0.
    9000005    1    3    3    0    0  0.55757991320E+02 -0.60725261000E+01 -0.53758183418E+02  0.77696663079E+02  0.10000000000E+01 0.  0.
<mgrwt>
<rscale>  0 0.12499765E+03</rscale>
<asrwt>0</asrwt>
<pdfrwt beam="1">  1        4 0.65869400E-02 0.12499765E+03</pdfrwt>
<pdfrwt beam="2">  1       -4 0.14035674E-01 0.12499765E+03</pdfrwt>
<totfact> 0.10258741E+04</totfact>
</mgrwt>
</event>
<event>
 5    1  0.3516911E-002  0.1249979E+03  0.7818608E-02  0.1235073E+00
          4   -1    0    0  501    0  0.00000000000E+00  0.00000000000E+00  0.11460269473E+02  0.11530423947E+02  0.12700000000E+01 0.  1.
         -4   -1    0    0    0  501 -0.00000000000E+00 -0.00000000000E+00 -0.33972873545E+03  0.33973110924E+03  0.12700000000E+01 0.  1.
         25    2    1    2    0    0  0.00000000000E+00  0.00000000000E+00 -0.32826846597E+03  0.35126153319E+03  0.12499791577E+03 0.  0.
    9000005    1    3    3    0    0  0.14506280805E+02  0.55930599720E+02 -0.23101646320E+03  0.23813498365E+03  0.10000000000E+01 0.  0.
    9000005    1    3    3    0    0 -0.14506280805E+02 -0.55930599720E+02 -0.97252002773E+02  0.11312654954E+03  0.10000000000E+01 0.  0.
<mgrwt>
<rscale>  0 0.12499792E+03</rscale>
<asrwt>0</asrwt>
<pdfrwt beam="1">  1        4 0.17686977E-02 0.12499792E+03</pdfrwt>
<pdfrwt beam="2">  1       -4 0.52271531E-01 0.12499792E+03</pdfrwt>
<totfact> 0.69589207E+03</totfact>
</mgrwt>
</event>
<event>
 5    1  0.3516911E-002  0.1249985E+03  0.7818608E-02  0.1235072E+00
          4   -1    0    0  501    0  0.00000000000E+00  0.00000000000E+00  0.28441044249E+02  0.28469385275E+02  0.12700000000E+01 0.  1.
         -4   -1    0    0    0  501 -0.00000000000E+00 -0.00000000000E+00 -0.13724255667E+03  0.13724843264E+03  0.12700000000E+01 0.  1.
         25    2    1    2    0    0  0.00000000000E+00  0.00000000000E+00 -0.10880151242E+03  0.16571781791E+03  0.12499850426E+03 0.  0.
    9000005    1    3    3    0    0  0.57861275825E+02 -0.23588976408E+02 -0.53222792438E+02  0.82085520544E+02  0.10000000000E+01 0.  0.
    9000005    1    3    3    0    0 -0.57861275825E+02  0.23588976408E+02 -0.55578719982E+02  0.83632297367E+02  0.10000000000E+01 0.  0.
<mgrwt>
<rscale>  0 0.12499850E+03</rscale>
<asrwt>0</asrwt>
<pdfrwt beam="1">  1        4 0.43781774E-02 0.12499850E+03</pdfrwt>
<pdfrwt beam="2">  1       -4 0.21116871E-01 0.12499850E+03</pdfrwt>
<totfact> 0.96254856E+03</totfact>
</mgrwt>
</event>
<event>
 5    1  0.3516911E-002  0.1250229E+03  0.7818608E-02  0.1235034E+00
          4   -1    0    0  501    0  0.00000000000E+00  0.00000000000E+00  0.23829062690E+01  0.27002115263E+01  0.12700000000E+01 0.  1.
         -4   -1    0    0    0  501 -0.00000000000E+00 -0.00000000000E+00 -0.15371954084E+04  0.15371959330E+04  0.12700000000E+01 0.  1.
         25    2    1    2    0    0  0.00000000000E+00  0.00000000000E+00 -0.15348125021E+04  0.15398961446E+04  0.12502287512E+03 0.  0.
    9000005    1    3    3    0    0  0.33207455047E+02 -0.43562473123E+02 -0.39661684020E+03  0.40038274446E+03  0.10000000000E+01 0.  0.
    9000005    1    3    3    0    0 -0.33207455047E+02  0.43562473123E+02 -0.11381956619E+04  0.11395134001E+04  0.10000000000E+01 0.  0.
<mgrwt>
<rscale>  0 0.12502288E+03</rscale>
<asrwt>0</asrwt>
<pdfrwt beam="1">  1        4 0.39105064E-03 0.12502288E+03</pdfrwt>
<pdfrwt beam="2">  1       -4 0.23651531E+00 0.12502288E+03</pdfrwt>
<totfact> 0.17150866E+03</totfact>
</mgrwt>
</event>
<event>
 5    1  0.3516911E-002  0.1249974E+03  0.7818608E-02  0.1235073E+00
          4   -1    0    0  501    0  0.00000000000E+00  0.00000000000E+00  0.15119245345E+03  0.15119778728E+03  0.12700000000E+01 0.  1.
         -4   -1    0    0    0  501 -0.00000000000E+00 -0.00000000000E+00 -0.25813803454E+02  0.25845025610E+02  0.12700000000E+01 0.  1.
         25    2    1    2    0    0  0.00000000000E+00  0.00000000000E+00  0.12537864999E+03  0.17704281289E+03  0.12499740686E+03 0.  0.
    9000005    1    3    3    0    0 -0.55685153672E+02 -0.27987934582E+02  0.69168682102E+02  0.93109974790E+02  0.10000000000E+01 0.  0.
    9000005    1    3    3    0    0  0.55685153672E+02  0.27987934582E+02  0.56209967890E+02  0.83932838102E+02  0.10000000000E+01 0.  0.
<mgrwt>
<rscale>  0 0.12499741E+03</rscale>
<asrwt>0</asrwt>
<pdfrwt beam="1">  1        4 0.23263190E-01 0.12499741E+03</pdfrwt>
<pdfrwt beam="2">  1       -4 0.39741663E-02 0.12499741E+03</pdfrwt>
<totfact> 0.94157506E+03</totfact>
</mgrwt>
</event>
<event>
 5    1  0.3516911E-002  0.1249968E+03  0.7818608E-02  0.1235074E+00
          4   -1    0    0  501    0  0.00000000000E+00  0.00000000000E+00  0.30742162638E+03  0.30742424964E+03  0.12700000000E+01 0. -1.
         -4   -1    0    0    0  501 -0.00000000000E+00 -0.00000000000E+00 -0.12671414732E+02  0.12734898952E+02  0.12700000000E+01 0. -1.
         25    2    1    2    0    0  0.00000000000E+00  0.00000000000E+00  0.29475021165E+03  0.32015914859E+03  0.12499677260E+03 0.  0.
    9000005    1    3    3    0    0 -0.54732301332E+02 -0.61930773993E+01  0.71780037511E+02  0.90483991965E+02  0.10000000000E+01 0.  0.
    9000005    1    3    3    0    0  0.54732301332E+02  0.61930773993E+01  0.22297017414E+03  0.22967515663E+03  0.10000000000E+01 0.  0.
<mgrwt>
<rscale>  0 0.12499677E+03</rscale>
<asrwt>0</asrwt>
<pdfrwt beam="1">  1        4 0.47300717E-01 0.12499677E+03</pdfrwt>
<pdfrwt beam="2">  1       -4 0.19545337E-02 0.12499677E+03</pdfrwt>
<totfact> 0.73142434E+03</totfact>
</mgrwt>
</event>
<event>
 5    1  0.3516911E-002  0.1250576E+03  0.7818608E-02  0.1234979E+00
          4   -1    0    0  501    0  0.00000000000E+00  0.00000000000E+00  0.33311181891E+02  0.33335382688E+02  0.12700000000E+01 0. -1.
         -4   -1    0    0    0  501 -0.00000000000E+00 -0.00000000000E+00 -0.11730326270E+03  0.11731013741E+03  0.12700000000E+01 0. -1.
         25    2    1    2    0    0  0.00000000000E+00  0.00000000000E+00 -0.83992080809E+02  0.15064552010E+03  0.12505759908E+03 0.  0.
    9000005    1    3    3    0    0 -0.43615764049E+02  0.39184304623E+02 -0.68142056875E+02  0.89900414446E+02  0.10000000000E+01 0.  0.
    9000005    1    3    3    0    0  0.43615764049E+02 -0.39184304623E+02 -0.15850023934E+02  0.60745105656E+02  0.10000000000E+01 0.  0.
<mgrwt>
<rscale>  0 0.12505760E+03</rscale>
<asrwt>0</asrwt>
<pdfrwt beam="1">  1        4 0.51271877E-02 0.12505760E+03</pdfrwt>
<pdfrwt beam="2">  1       -4 0.18049046E-01 0.12505760E+03</pdfrwt>
<totfact> 0.99046736E+03</totfact>
</mgrwt>
</event>
<event>
 5    1  0.3516911E-002  0.1249995E+03  0.7818608E-02  0.1235070E+00
         -4   -1    0    0    0  501 -0.00000000000E+00  0.00000000000E+00  0.15247093091E+03  0.15247622002E+03  0.12700000000E+01 0.  1.
          4   -1    0    0  501    0  0.00000000000E+00 -0.00000000000E+00 -0.25597938203E+02  0.25629423330E+02  0.12700000000E+01 0.  1.
         25    2    1    2    0    0  0.00000000000E+00  0.00000000000E+00  0.12687299271E+03  0.17810564335E+03  0.12499945566E+03 0.  0.
    9000005    1    3    3    0    0  0.32980686028E+02 -0.23243647212E+02 -0.45577802777E+01  0.40617313397E+02  0.10000000000E+01 0.  0.
    9000005    1    3    3    0    0 -0.32980686028E+02  0.23243647212E+02  0.13143077299E+03  0.13748832996E+03  0.10000000000E+01 0.  0.
<mgrwt>
<rscale>  0 0.12499946E+03</rscale>
<asrwt>0</asrwt>
<pdfrwt beam="2">  1        4 0.39409731E-02 0.12499946E+03</pdfrwt>
<pdfrwt beam="1">  1       -4 0.23459895E-01 0.12499946E+03</pdfrwt>
<totfact> 0.93960256E+03</totfact>
</mgrwt>
</event>
<event>
 5    1  0.3516911E-002  0.1250008E+03  0.7818608E-02  0.1235068E+00
         -4   -1    0    0    0  501 -0.00000000000E+00  0.00000000000E+00  0.34271393078E+01  0.36548849278E+01  0.12700000000E+01 0.  1.
          4   -1    0    0  501    0  0.00000000000E+00 -0.00000000000E+00 -0.11029303260E+04  0.11029310572E+04  0.12700000000E+01 0.  1.
         25    2    1    2    0    0  0.00000000000E+00  0.00000000000E+00 -0.10995031867E+04  0.11065859421E+04  0.12500075897E+03 0.  0.
    9000005    1    3    3    0    0  0.15207144704E+00 -0.61417217544E+02 -0.65192176444E+03  0.65480919717E+03  0.10000000000E+01 0.  0.
    9000005    1    3    3    0    0 -0.15207144704E+00  0.61417217544E+02 -0.44758142226E+03  0.45177674496E+03  0.10000000000E+01 0.  0.
<mgrwt>
<rscale>  0 0.12500076E+03</rscale>
<asrwt>0</asrwt>
<pdfrwt beam="2">  1        4 0.16969889E+00 0.12500076E+03</pdfrwt>
<pdfrwt beam="1">  1       -4 0.54482822E-03 0.12500076E+03</pdfrwt>
<totfact> 0.27291036E+03</totfact>
</mgrwt>
</event>
<event>
 5    1  0.3516911E-002  0.1250004E+03  0.7818608E-02  0.1235069E+00
         -4   -1    0    0    0  501 -0.00000000000E+00  0.00000000000E+00  0.83255961701E+02  0.83265647531E+02  0.12700000000E+01 0.  1.
          4   -1    0    0  501    0  0.00000000000E+00 -0.00000000000E+00 -0.46897831193E+02  0.46915023933E+02  0.12700000000E+01 0.  1.
         25    2    1    2    0    0  0.00000000000E+00  0.00000000000E+00  0.36358130508E+02  0.13018067146E+03  0.12500037427E+03 0.  0.
    9000005    1    3    3    0    0 -0.28610223295E+02  0.28847616875E+02  0.67628861336E+02  0.78901158178E+02  0.10000000000E+01 0.  0.
    9000005    1    3    3    0    0  0.28610223295E+02 -0.28847616875E+02 -0.31270730828E+02  0.51279513286E+02  0.10000000000E+01 0.  0.
<mgrwt>
<rscale>  0 0.12500037E+03</rscale>
<asrwt>0</asrwt>
<pdfrwt beam="2">  1        4 0.72171185E-02 0.12500037E+03</pdfrwt>
<pdfrwt beam="1">  1       -4 0.12810677E-01 0.12500037E+03</pdfrwt>
<totfact> 0.10340557E+04</totfact>
</mgrwt>
</event>
<event>
 5    1  0.3516911E-002  0.1250010E+03  0.7818608E-02  0.1235068E+00
         -4   -1    0    0    0  501 -0.00000000000E+00  0.00000000000E+00  0.27450095658E+03  0.27450389445E+03  0.12700000000E+01 0.  1.
          4   -1    0    0  501    0  0.00000000000E+00 -0.00000000000E+00 -0.14199250101E+02  0.14255932219E+02  0.12700000000E+01 0.  1.
         25    2    1    2    0    0  0.00000000000E+00  0.00000000000E+00  0.26030170648E+03  0.28875982667E+03  0.12500103639E+03 0.  0.
    9000005    1    3    3    0    0  0.34400956815E+02  0.35061513500E+02  0.21939748892E+03  0.22483103368E+03  0.10000000000E+01 0.  0.
    9000005    1    3    3    0    0 -0.34400956815E+02 -0.35061513500E+02  0.40904217563E+02  0.63928792990E+02  0.10000000000E+01 0.  0.
<mgrwt>
<rscale>  0 0.12500104E+03</rscale>
<asrwt>0</asrwt>
<pdfrwt beam="2">  1        4 0.21890861E-02 0.12500104E+03</pdfrwt>
<pdfrwt beam="1">  1       -4 0.42235503E-01 0.12500104E+03</pdfrwt>
<totfact> 0.77028994E+03</totfact>
</mgrwt>
</event>
<event>
 5    1  0.3516911E-002  0.1250008E+03  0.7818608E-02  0.1235068E+00
         -4   -1    0    0    0  501 -0.00000000000E+00  0.00000000000E+00  0.22768968054E+03  0.22769322239E+03  0.12700000000E+01 0. -1.
          4   -1    0    0  501    0  0.00000000000E+00 -0.00000000000E+00 -0.17129072216E+02  0.17176088465E+02  0.12700000000E+01 0. -1.
         25    2    1    2    0    0  0.00000000000E+00  0.00000000000E+00  0.21056060832E+03  0.24486931086E+03  0.12500083849E+03 0.  0.
    9000005    1    3    3    0    0  0.24559970662E+02  0.33821994514E+02  0.19628536824E+03  0.20068897642E+03  0.10000000000E+01 0.  0.
    9000005    1    3    3    0    0 -0.24559970662E+02 -0.33821994514E+02  0.14275240087E+02  0.44180334441E+02  0.10000000000E+01 0.  0.
<mgrwt>
<rscale>  0 0.12500084E+03</rscale>
<asrwt>0</asrwt>
<pdfrwt beam="2">  1        4 0.26391311E-02 0.12500084E+03</pdfrwt>
<pdfrwt beam="1">  1       -4 0.35033068E-01 0.12500084E+03</pdfrwt>
<totfact> 0.83075922E+03</totfact>
</mgrwt>
</event>
<event>
 5    1  0.3516911E-002  0.1249968E+03  0.7818608E-02  0.1235074E+00
         -4   -1    0    0    0  501 -0.00000000000E+00  0.00000000000E+00  0.25295760910E+02  0.25327621681E+02  0.12700000000E+01 0.  1.
          4   -1    0    0  501    0  0.00000000000E+00 -0.00000000000E+00 -0.15428348708E+03  0.15428871406E+03  0.12700000000E+01 0.  1.
         25    2    1    2    0    0  0.00000000000E+00  0.00000000000E+00 -0.12898772617E+03  0.17961633574E+03  0.12499677821E+03 0.  0.
    9000005    1    3    3    0    0 -0.15471345483E+02 -0.20730774122E+02  0.17248271770E+02  0.31106758201E+02  0.10000000000E+01 0.  0.
    9000005    1    3    3    0    0  0.15471345483E+02  0.20730774122E+02 -0.14623599794E+03  0.14850957754E+03  0.10000000000E+01 0.  0.
<mgrwt>
<rscale>  0 0.12499678E+03</rscale>
<asrwt>0</asrwt>
<pdfrwt beam="2">  1        4 0.23738773E-01 0.12499678E+03</pdfrwt>
<pdfrwt beam="1">  1       -4 0.38945085E-02 0.12499678E+03</pdfrwt>
<totfact> 0.93692878E+03</totfact>
</mgrwt>
</event>
<event>
 5    1  0.3516911E-002  0.1249933E+03  0.7818608E-02  0.1235080E+00
          4   -1    0    0  501    0  0.00000000000E+00  0.00000000000E+00  0.76482943920E+01  0.77530192252E+01  0.12700000000E+01 0.  1.
         -4   -1    0    0    0  501 -0.00000000000E+00 -0.00000000000E+00 -0.50710232770E+03  0.50710391800E+03  0.12700000000E+01 0.  1.
         25    2    1    2    0    0  0.00000000000E+00  0.00000000000E+00 -0.49945403330E+03  0.51485693723E+03  0.12499333754E+03 0.  0.
    9000005    1    3    3    0    0  0.43346651228E+02 -0.28585898852E+02 -0.39293510794E+03  0.39635222320E+03  0.10000000000E+01 0.  0.
    9000005    1    3    3    0    0 -0.43346651228E+02  0.28585898852E+02 -0.10651892537E+03  0.11850471403E+03  0.10000000000E+01 0.  0.
<mgrwt>
<rscale>  0 0.12499334E+03</rscale>
<asrwt>0</asrwt>
<pdfrwt beam="1">  1        4 0.11848392E-02 0.12499334E+03</pdfrwt>
<pdfrwt beam="2">  1       -4 0.78023895E-01 0.12499334E+03</pdfrwt>
<totfact> 0.54737825E+03</totfact>
</mgrwt>
</event>
<event>
 5    1  0.3516911E-002  0.1250045E+03  0.7818608E-02  0.1235062E+00
         -4   -1    0    0    0  501 -0.00000000000E+00  0.00000000000E+00  0.14413598302E+03  0.14414157798E+03  0.12700000000E+01 0. -1.
          4   -1    0    0  501    0  0.00000000000E+00 -0.00000000000E+00 -0.27082098128E+02  0.27111859749E+02  0.12700000000E+01 0. -1.
         25    2    1    2    0    0  0.00000000000E+00  0.00000000000E+00  0.11705388489E+03  0.17125343773E+03  0.12500451178E+03 0.  0.
    9000005    1    3    3    0    0  0.15095595188E+02  0.15467417514E+02 -0.21805818372E+02  0.30718263517E+02  0.10000000000E+01 0.  0.
    9000005    1    3    3    0    0 -0.15095595188E+02 -0.15467417514E+02  0.13885970327E+03  0.14053517421E+03  0.10000000000E+01 0.  0.
<mgrwt>
<rscale>  0 0.12500451E+03</rscale>
<asrwt>0</asrwt>
<pdfrwt beam="2">  1        4 0.41691963E-02 0.12500451E+03</pdfrwt>
<pdfrwt beam="1">  1       -4 0.22177487E-01 0.12500451E+03</pdfrwt>
<totfact> 0.95205887E+03</totfact>
</mgrwt>
</event>
<event>
 5    1  0.3516911E-002  0.1249981E+03  0.7818608E-02  0.1235072E+00
          4   -1    0    0  501    0  0.00000000000E+00  0.00000000000E+00  0.39838099471E+02  0.39858337515E+02  0.12700000000E+01 0.  1.
         -4   -1    0    0    0  501 -0.00000000000E+00 -0.00000000000E+00 -0.98000951631E+02  0.98009180287E+02  0.12700000000E+01 0.  1.
         25    2    1    2    0    0  0.00000000000E+00  0.00000000000E+00 -0.58162852160E+02  0.13786751780E+03  0.12499814036E+03 0.  0.
    9000005    1    3    3    0    0 -0.47283756616E+02 -0.40199496303E+02 -0.37139852693E+02  0.72333407225E+02  0.10000000000E+01 0.  0.
    9000005    1    3    3    0    0  0.47283756616E+02  0.40199496303E+02 -0.21022999467E+02  0.65534110578E+02  0.10000000000E+01 0.  0.
<mgrwt>
<rscale>  0 0.12499814E+03</rscale>
<asrwt>0</asrwt>
<pdfrwt beam="1">  1        4 0.61311282E-02 0.12499814E+03</pdfrwt>
<pdfrwt beam="2">  1       -4 0.15079259E-01 0.12499814E+03</pdfrwt>
<totfact> 0.10178402E+04</totfact>
</mgrwt>
</event>
<event>
 5    1  0.3516911E-002  0.1250000E+03  0.7818608E-02  0.1235069E+00
         -4   -1    0    0    0  501 -0.00000000000E+00  0.00000000000E+00  0.12775605397E+04  0.12775611709E+04  0.12700000000E+01 0.  1.
          4   -1    0    0  501    0  0.00000000000E+00 -0.00000000000E+00 -0.29250506168E+01  0.31888589042E+01  0.12700000000E+01 0.  1.
         25    2    1    2    0    0  0.00000000000E+00  0.00000000000E+00  0.12746354891E+04  0.12807500298E+04  0.12500003568E+03 0.  0.
    9000005    1    3    3    0    0 -0.17028049119E+02  0.55975995106E+02  0.41237533924E+03  0.41650652684E+03  0.10000000000E+01 0.  0.
    9000005    1    3    3    0    0  0.17028049119E+02 -0.55975995106E+02  0.86226014981E+03  0.86424350297E+03  0.10000000000E+01 0.  0.
<mgrwt>
<rscale>  0 0.12500004E+03</rscale>
<asrwt>0</asrwt>
<pdfrwt beam="2">  1        4 0.47034927E-03 0.12500004E+03</pdfrwt>
<pdfrwt beam="1">  1       -4 0.19656813E+00 0.12500004E+03</pdfrwt>
<totfact> 0.22687439E+03</totfact>
</mgrwt>
</event>
<event>
 5    1  0.3516911E-002  0.1249575E+03  0.7818608E-02  0.1235136E+00
         -4   -1    0    0    0  501 -0.00000000000E+00  0.00000000000E+00  0.80166614131E+02  0.80176673174E+02  0.12700000000E+01 0.  1.
          4   -1    0    0  501    0  0.00000000000E+00 -0.00000000000E+00 -0.48672106727E+02  0.48688672946E+02  0.12700000000E+01 0.  1.
         25    2    1    2    0    0  0.00000000000E+00  0.00000000000E+00  0.31494507404E+02  0.12886534612E+03  0.12495748651E+03 0.  0.
    9000005    1    3    3    0    0 -0.25417874383E+02  0.37764284466E+02 -0.28373705953E+02  0.53649573240E+02  0.10000000000E+01 0.  0.
    9000005    1    3    3    0    0  0.25417874383E+02 -0.37764284466E+02  0.59868213357E+02  0.75215772880E+02  0.10000000000E+01 0.  0.
<mgrwt>
<rscale>  0 0.12495749E+03</rscale>
<asrwt>0</asrwt>
<pdfrwt beam="2">  1        4 0.74900645E-02 0.12495749E+03</pdfrwt>
<pdfrwt beam="1">  1       -4 0.12335373E-01 0.12495749E+03</pdfrwt>
<totfact> 0.10378799E+04</totfact>
</mgrwt>
</event>
<event>
 5    1  0.3516911E-002  0.1250055E+03  0.7818608E-02  0.1235061E+00
         -4   -1    0    0    0  501 -0.00000000000E+00  0.00000000000E+00  0.13755382027E+03  0.13755968294E+03  0.12700000000E+01 0. -1.
          4   -1    0    0  501    0  0.00000000000E+00 -0.00000000000E+00 -0.28379800907E+02  0.28408203032E+02  0.12700000000E+01 0. -1.
         25    2    1    2    0    0  0.00000000000E+00  0.00000000000E+00  0.10917401936E+03  0.16596788597E+03  0.12500549056E+03 0.  0.
    9000005    1    3    3    0    0 -0.44758894530E+02 -0.43282737709E+02  0.47457065014E+02  0.78293850607E+02  0.10000000000E+01 0.  0.
    9000005    1    3    3    0    0  0.44758894530E+02  0.43282737709E+02  0.61716954348E+02  0.87674035365E+02  0.10000000000E+01 0.  0.
<mgrwt>
<rscale>  0 0.12500549E+03</rscale>
<asrwt>0</asrwt>
<pdfrwt beam="2">  1        4 0.43687590E-02 0.12500549E+03</pdfrwt>
<pdfrwt beam="1">  1       -4 0.21164762E-01 0.12500549E+03</pdfrwt>
<totfact> 0.96192540E+03</totfact>
</mgrwt>
</event>
<event>
 5    1  0.3516911E-002  0.1249995E+03  0.7818608E-02  0.1235070E+00
          4   -1    0    0  501    0  0.00000000000E+00  0.00000000000E+00  0.18688205029E+02  0.18731308209E+02  0.12700000000E+01 0.  1.
         -4   -1    0    0    0  501 -0.00000000000E+00 -0.00000000000E+00 -0.20873476922E+03  0.20873863270E+03  0.12700000000E+01 0.  1.
         25    2    1    2    0    0  0.00000000000E+00  0.00000000000E+00 -0.19004656420E+03  0.22746994091E+03  0.12499950982E+03 0.  0.
    9000005    1    3    3    0    0 -0.11260883551E+02  0.60522700729E+02 -0.11457324821E+03  0.13006857425E+03  0.10000000000E+01 0.  0.
    9000005    1    3    3    0    0  0.11260883551E+02 -0.60522700729E+02 -0.75473315982E+02  0.97401366660E+02  0.10000000000E+01 0.  0.
<mgrwt>
<rscale>  0 0.12499951E+03</rscale>
<asrwt>0</asrwt>
<pdfrwt beam="1">  1        4 0.28787214E-02 0.12499951E+03</pdfrwt>
<pdfrwt beam="2">  1       -4 0.32116653E-01 0.12499951E+03</pdfrwt>
<totfact> 0.85700548E+03</totfact>
</mgrwt>
</event>
<event>
 5    1  0.3516911E-002  0.1249989E+03  0.7818608E-02  0.1235071E+00
         -4   -1    0    0    0  501 -0.00000000000E+00  0.00000000000E+00  0.63153909894E+01  0.64418214310E+01  0.12700000000E+01 0.  1.
          4   -1    0    0  501    0  0.00000000000E+00 -0.00000000000E+00 -0.61226080579E+03  0.61226212295E+03  0.12700000000E+01 0.  1.
         25    2    1    2    0    0  0.00000000000E+00  0.00000000000E+00 -0.60594541480E+03  0.61870394439E+03  0.12499890032E+03 0.  0.
    9000005    1    3    3    0    0  0.21514958629E+02 -0.24720374211E+02 -0.39605759287E+02  0.51416014185E+02  0.10000000000E+01 0.  0.
    9000005    1    3    3    0    0 -0.21514958629E+02  0.24720374211E+02 -0.56633965551E+03  0.56728793020E+03  0.10000000000E+01 0.  0.
<mgrwt>
<rscale>  0 0.12499890E+03</rscale>
<asrwt>0</asrwt>
<pdfrwt beam="2">  1        4 0.94203750E-01 0.12499890E+03</pdfrwt>
<pdfrwt beam="1">  1       -4 0.98142584E-03 0.12499890E+03</pdfrwt>
<totfact> 0.47709022E+03</totfact>
</mgrwt>
</event>
<event>
 5    1  0.3516911E-002  0.1250044E+03  0.7818608E-02  0.1235062E+00
          4   -1    0    0  501    0  0.00000000000E+00  0.00000000000E+00  0.14121855705E+03  0.14122426759E+03  0.12700000000E+01 0. -1.
         -4   -1    0    0    0  501 -0.00000000000E+00 -0.00000000000E+00 -0.27642101706E+02  0.27671261025E+02  0.12700000000E+01 0. -1.
         25    2    1    2    0    0  0.00000000000E+00  0.00000000000E+00  0.11357645535E+03  0.16889552862E+03  0.12500435343E+03 0.  0.
    9000005    1    3    3    0    0 -0.62305122266E+02 -0.48499009358E+01  0.56424944120E+02  0.84203468567E+02  0.10000000000E+01 0.  0.
    9000005    1    3    3    0    0  0.62305122266E+02  0.48499009358E+01  0.57151511228E+02  0.84692060049E+02  0.10000000000E+01 0.  0.
<mgrwt>
<rscale>  0 0.12500435E+03</rscale>
<asrwt>0</asrwt>
<pdfrwt beam="1">  1        4 0.21728614E-01 0.12500435E+03</pdfrwt>
<pdfrwt beam="2">  1       -4 0.42553134E-02 0.12500435E+03</pdfrwt>
<totfact> 0.95645335E+03</totfact>
</mgrwt>
</event>
<event>
 5    1  0.3516911E-002  0.1250010E+03  0.7818608E-02  0.1235068E+00
          4   -1    0    0  501    0  0.00000000000E+00  0.00000000000E+00  0.14682041174E+02  0.14736866459E+02  0.12700000000E+01 0.  1.
         -4   -1    0    0    0  501 -0.00000000000E+00 -0.00000000000E+00 -0.26550838704E+03  0.26551142440E+03  0.12700000000E+01 0.  1.
         25    2    1    2    0    0  0.00000000000E+00  0.00000000000E+00 -0.25082634587E+03  0.28024829086E+03  0.12500099500E+03 0.  0.
    9000005    1    3    3    0    0 -0.29087552745E+02  0.11529521853E+02 -0.24669302910E+03  0.24867140206E+03  0.10000000000E+01 0.  0.
    9000005    1    3    3    0    0  0.29087552745E+02 -0.11529521853E+02 -0.41333167711E+01  0.31576888802E+02  0.10000000000E+01 0.  0.
<mgrwt>
<rscale>  0 0.12500099E+03</rscale>
<asrwt>0</asrwt>
<pdfrwt beam="1">  1        4 0.22632267E-02 0.12500099E+03</pdfrwt>
<pdfrwt beam="2">  1       -4 0.40851892E-01 0.12500099E+03</pdfrwt>
<totfact> 0.78143468E+03</totfact>
</mgrwt>
</event>
<event>
 5    1  0.3516911E-002  0.1250061E+03  0.7818608E-02  0.1235060E+00
          4   -1    0    0  501    0  0.00000000000E+00  0.00000000000E+00  0.33441801498E+02  0.33465907839E+02  0.12700000000E+01 0.  1.
         -4   -1    0    0    0  501 -0.00000000000E+00 -0.00000000000E+00 -0.11674910374E+03  0.11675601109E+03  0.12700000000E+01 0.  1.
         25    2    1    2    0    0  0.00000000000E+00  0.00000000000E+00 -0.83307302243E+02  0.15022191892E+03  0.12500607312E+03 0.  0.
    9000005    1    3    3    0    0  0.36395999098E+02  0.44295319013E+02 -0.11758045106E+02  0.58532005446E+02  0.10000000000E+01 0.  0.
    9000005    1    3    3    0    0 -0.36395999098E+02 -0.44295319013E+02 -0.71549257137E+02  0.91689913478E+02  0.10000000000E+01 0.  0.
<mgrwt>
<rscale>  0 0.12500607E+03</rscale>
<asrwt>0</asrwt>
<pdfrwt beam="1">  1        4 0.51472783E-02 0.12500607E+03</pdfrwt>
<pdfrwt beam="2">  1       -4 0.17963786E-01 0.12500607E+03</pdfrwt>
<totfact> 0.99245915E+03</totfact>
</mgrwt>
</event>
<event>
 5    1  0.3516911E-002  0.1249810E+03  0.7818608E-02  0.1235099E+00
         -4   -1    0    0    0  501 -0.00000000000E+00  0.00000000000E+00  0.28036508044E+02  0.28065257585E+02  0.12700000000E+01 0.  1.
          4   -1    0    0  501    0  0.00000000000E+00 -0.00000000000E+00 -0.13918192131E+03  0.13918771541E+03  0.12700000000E+01 0.  1.
         25    2    1    2    0    0  0.00000000000E+00  0.00000000000E+00 -0.11114541327E+03  0.16725297299E+03  0.12498101489E+03 0.  0.
    9000005    1    3    3    0    0  0.18926295535E+02 -0.42387474614E+02  0.39592305596E+00  0.46433386931E+02  0.10000000000E+01 0.  0.
    9000005    1    3    3    0    0 -0.18926295535E+02  0.42387474614E+02 -0.11154133632E+03  0.12081958606E+03  0.10000000000E+01 0.  0.
<mgrwt>
<rscale>  0 0.12498101E+03</rscale>
<asrwt>0</asrwt>
<pdfrwt beam="2">  1        4 0.21415260E-01 0.12498101E+03</pdfrwt>
<pdfrwt beam="1">  1       -4 0.43159662E-02 0.12498101E+03</pdfrwt>
<totfact> 0.96003337E+03</totfact>
</mgrwt>
</event>
<event>
 5    1  0.3516911E-002  0.1249915E+03  0.7818608E-02  0.1235083E+00
          4   -1    0    0  501    0  0.00000000000E+00  0.00000000000E+00  0.11380941373E+02  0.11451581836E+02  0.12700000000E+01 0. -1.
         -4   -1    0    0    0  501 -0.00000000000E+00 -0.00000000000E+00 -0.34204689662E+03  0.34204925433E+03  0.12700000000E+01 0. -1.
         25    2    1    2    0    0  0.00000000000E+00  0.00000000000E+00 -0.33066595525E+03  0.35350083617E+03  0.12499146855E+03 0.  0.
    9000005    1    3    3    0    0 -0.69038396958E+01 -0.16098470993E+02  0.43093404914E+01  0.18066382768E+02  0.10000000000E+01 0.  0.
    9000005    1    3    3    0    0  0.69038396958E+01  0.16098470993E+02 -0.33497529574E+03  0.33543445340E+03  0.10000000000E+01 0.  0.
<mgrwt>
<rscale>  0 0.12499147E+03</rscale>
<asrwt>0</asrwt>
<pdfrwt beam="1">  1        4 0.17565296E-02 0.12499147E+03</pdfrwt>
<pdfrwt beam="2">  1       -4 0.52628207E-01 0.12499147E+03</pdfrwt>
<totfact> 0.69354225E+03</totfact>
</mgrwt>
</event>
<event>
 5    1  0.3516911E-002  0.1249995E+03  0.7818608E-02  0.1235070E+00
         -4   -1    0    0    0  501 -0.00000000000E+00  0.00000000000E+00  0.17801707124E+03  0.17802160136E+03  0.12700000000E+01 0.  1.
          4   -1    0    0  501    0  0.00000000000E+00 -0.00000000000E+00 -0.21919743627E+02  0.21956503835E+02  0.12700000000E+01 0.  1.
         25    2    1    2    0    0  0.00000000000E+00  0.00000000000E+00  0.15609732761E+03  0.19997810520E+03  0.12499946749E+03 0.  0.
    9000005    1    3    3    0    0 -0.23687100527E+02 -0.49986696598E+02  0.12456686493E+03  0.13629986209E+03  0.10000000000E+01 0.  0.
    9000005    1    3    3    0    0  0.23687100527E+02  0.49986696598E+02  0.31530462682E+02  0.63678243107E+02  0.10000000000E+01 0.  0.
<mgrwt>
<rscale>  0 0.12499947E+03</rscale>
<asrwt>0</asrwt>
<pdfrwt beam="2">  1        4 0.33754446E-02 0.12499947E+03</pdfrwt>
<pdfrwt beam="1">  1       -4 0.27390417E-01 0.12499947E+03</pdfrwt>
<totfact> 0.90140274E+03</totfact>
</mgrwt>
</event>
<event>
 5    1  0.3516911E-002  0.1249870E+03  0.7818608E-02  0.1235090E+00
         -4   -1    0    0    0  501 -0.00000000000E+00  0.00000000000E+00  0.29090143618E+01  0.31741557235E+01  0.12700000000E+01 0.  1.
          4   -1    0    0  501    0  0.00000000000E+00 -0.00000000000E+00 -0.12837474588E+04  0.12837480870E+04  0.12700000000E+01 0.  1.
         25    2    1    2    0    0  0.00000000000E+00  0.00000000000E+00 -0.12808384445E+04  0.12869222428E+04  0.12498695158E+03 0.  0.
    9000005    1    3    3    0    0 -0.39752973099E+01  0.33388529696E+02 -0.11827049165E+04  0.11831832134E+04  0.10000000000E+01 0.  0.
    9000005    1    3    3    0    0  0.39752973099E+01 -0.33388529696E+02 -0.98133527926E+02  0.10373902933E+03  0.10000000000E+01 0.  0.
<mgrwt>
<rscale>  0 0.12498695E+03</rscale>
<asrwt>0</asrwt>
<pdfrwt beam="2">  1        4 0.19751962E+00 0.12498695E+03</pdfrwt>
<pdfrwt beam="1">  1       -4 0.46798551E-03 0.12498695E+03</pdfrwt>
<totfact> 0.22545779E+03</totfact>
</mgrwt>
</event>
<event>
 5    1  0.3516911E-002  0.1249967E+03  0.7818608E-02  0.1235074E+00
          4   -1    0    0  501    0  0.00000000000E+00  0.00000000000E+00  0.17155011875E+03  0.17155481964E+03  0.12700000000E+01 0. -1.
         -4   -1    0    0    0  501 -0.00000000000E+00 -0.00000000000E+00 -0.22746379480E+02  0.22781805886E+02  0.12700000000E+01 0. -1.
         25    2    1    2    0    0  0.00000000000E+00  0.00000000000E+00  0.14880373927E+03  0.19433662553E+03  0.12499668476E+03 0.  0.
    9000005    1    3    3    0    0 -0.56779733972E+02  0.25339541070E+02  0.64691030339E+02  0.89732713867E+02  0.10000000000E+01 0.  0.
    9000005    1    3    3    0    0  0.56779733972E+02 -0.25339541070E+02  0.84112708930E+02  0.10460391166E+03  0.10000000000E+01 0.  0.
<mgrwt>
<rscale>  0 0.12499668E+03</rscale>
<asrwt>0</asrwt>
<pdfrwt beam="1">  1        4 0.26395412E-01 0.12499668E+03</pdfrwt>
<pdfrwt beam="2">  1       -4 0.35025298E-02 0.12499668E+03</pdfrwt>
<totfact> 0.91104946E+03</totfact>
</mgrwt>
</event>
<event>
 5    1  0.3516911E-002  0.1249917E+03  0.7818608E-02  0.1235082E+00
          4   -1    0    0  501    0  0.00000000000E+00  0.00000000000E+00  0.11237806059E+01  0.16958133300E+01  0.12700000000E+01 0. -1.
         -4   -1    0    0    0  501 -0.00000000000E+00 -0.00000000000E+00 -0.27698501397E+04  0.27698504308E+04  0.12700000000E+01 0. -1.
         25    2    1    2    0    0  0.00000000000E+00  0.00000000000E+00 -0.27687263591E+04  0.27715462442E+04  0.12499172813E+03 0.  0.
    9000005    1    3    3    0    0 -0.41632145030E+02 -0.46599130219E+02 -0.13813400091E+04  0.13827530275E+04  0.10000000000E+01 0.  0.
    9000005    1    3    3    0    0  0.41632145030E+02  0.46599130219E+02 -0.13873863500E+04  0.13887932166E+04  0.10000000000E+01 0.  0.
<mgrwt>
<rscale>  0 0.12499173E+03</rscale>
<asrwt>0</asrwt>
<pdfrwt beam="1">  1        4 0.21691646E-03 0.12499173E+03</pdfrwt>
<pdfrwt beam="2">  1       -4 0.42617046E+00 0.12499173E+03</pdfrwt>
<totfact> 0.28706679E+02</totfact>
</mgrwt>
</event>
<event>
 5    1  0.3516911E-002  0.1249903E+03  0.7818608E-02  0.1235084E+00
          4   -1    0    0  501    0  0.00000000000E+00  0.00000000000E+00  0.74914472890E+02  0.74925237059E+02  0.12700000000E+01 0. -1.
         -4   -1    0    0    0  501 -0.00000000000E+00 -0.00000000000E+00 -0.52112492508E+02  0.52127965387E+02  0.12700000000E+01 0. -1.
         25    2    1    2    0    0  0.00000000000E+00  0.00000000000E+00  0.22801980382E+02  0.12705320245E+03  0.12499034340E+03 0.  0.
    9000005    1    3    3    0    0  0.29296763722E+02 -0.22953209790E+02 -0.39622012808E+02  0.54369606428E+02  0.10000000000E+01 0.  0.
    9000005    1    3    3    0    0 -0.29296763722E+02  0.22953209790E+02  0.62423993190E+02  0.72683596017E+02  0.10000000000E+01 0.  0.
<mgrwt>
<rscale>  0 0.12499034E+03</rscale>
<asrwt>0</asrwt>
<pdfrwt beam="1">  1        4 0.11527322E-01 0.12499034E+03</pdfrwt>
<pdfrwt beam="2">  1       -4 0.80193248E-02 0.12499034E+03</pdfrwt>
<totfact> 0.10410259E+04</totfact>
</mgrwt>
</event>
<event>
 5    1  0.3516911E-002  0.1250011E+03  0.7818608E-02  0.1235067E+00
         -4   -1    0    0    0  501 -0.00000000000E+00  0.00000000000E+00  0.20008889800E+02  0.20049153873E+02  0.12700000000E+01 0. -1.
          4   -1    0    0  501    0  0.00000000000E+00 -0.00000000000E+00 -0.19499072053E+03  0.19499485633E+03  0.12700000000E+01 0. -1.
         25    2    1    2    0    0  0.00000000000E+00  0.00000000000E+00 -0.17498183073E+03  0.21504401020E+03  0.12500114094E+03 0.  0.
    9000005    1    3    3    0    0 -0.31608428122E+02  0.53887382125E+02 -0.90144156207E+02  0.10968095358E+03  0.10000000000E+01 0.  0.
    9000005    1    3    3    0    0  0.31608428122E+02 -0.53887382125E+02 -0.84837674527E+02  0.10536305662E+03  0.10000000000E+01 0.  0.
<mgrwt>
<rscale>  0 0.12500114E+03</rscale>
<asrwt>0</asrwt>
<pdfrwt beam="2">  1        4 0.30001987E-01 0.12500114E+03</pdfrwt>
<pdfrwt beam="1">  1       -4 0.30817062E-02 0.12500114E+03</pdfrwt>
<totfact> 0.87656462E+03</totfact>
</mgrwt>
</event>
<event>
 5    1  0.3516911E-002  0.1250015E+03  0.7818608E-02  0.1235067E+00
          4   -1    0    0  501    0  0.00000000000E+00  0.00000000000E+00  0.10217031243E+03  0.10217820532E+03  0.12700000000E+01 0. -1.
         -4   -1    0    0    0  501 -0.00000000000E+00 -0.00000000000E+00 -0.38213729988E+02  0.38234827835E+02  0.12700000000E+01 0. -1.
         25    2    1    2    0    0  0.00000000000E+00  0.00000000000E+00  0.63956582442E+02  0.14041303315E+03  0.12500150176E+03 0.  0.
    9000005    1    3    3    0    0  0.33007015500E+02  0.27206208973E+02 -0.19198705357E+02  0.46895961087E+02  0.10000000000E+01 0.  0.
    9000005    1    3    3    0    0 -0.33007015500E+02 -0.27206208973E+02  0.83155287799E+02  0.93517072066E+02  0.10000000000E+01 0.  0.
<mgrwt>
<rscale>  0 0.12500150E+03</rscale>
<asrwt>0</asrwt>
<pdfrwt beam="1">  1        4 0.15720740E-01 0.12500150E+03</pdfrwt>
<pdfrwt beam="2">  1       -4 0.58812655E-02 0.12500150E+03</pdfrwt>
<totfact> 0.10124690E+04</totfact>
</mgrwt>
</event>
<event>
 5    1  0.3516911E-002  0.1249963E+03  0.7818608E-02  0.1235075E+00
          4   -1    0    0  501    0  0.00000000000E+00  0.00000000000E+00  0.24085211156E+03  0.24085545985E+03  0.12700000000E+01 0.  1.
         -4   -1    0    0    0  501 -0.00000000000E+00 -0.00000000000E+00 -0.16189174419E+02  0.16238912168E+02  0.12700000000E+01 0.  1.
         25    2    1    2    0    0  0.00000000000E+00  0.00000000000E+00  0.22466293714E+03  0.25709437202E+03  0.12499632315E+03 0.  0.
    9000005    1    3    3    0    0 -0.24272204036E+02 -0.41682529431E+02  0.19404807839E+03  0.19995556975E+03  0.10000000000E+01 0.  0.
    9000005    1    3    3    0    0  0.24272204036E+02  0.41682529431E+02  0.30614858747E+02  0.57138802268E+02  0.10000000000E+01 0.  0.
<mgrwt>
<rscale>  0 0.12499632E+03</rscale>
<asrwt>0</asrwt>
<pdfrwt beam="1">  1        4 0.37058251E-01 0.12499632E+03</pdfrwt>
<pdfrwt beam="2">  1       -4 0.24947260E-02 0.12499632E+03</pdfrwt>
<totfact> 0.81322220E+03</totfact>
</mgrwt>
</event>
<event>
 5    1  0.3516911E-002  0.1249987E+03  0.7818608E-02  0.1235071E+00
          4   -1    0    0  501    0  0.00000000000E+00  0.00000000000E+00  0.28677885090E+02  0.28705992288E+02  0.12700000000E+01 0.  1.
         -4   -1    0    0    0  501 -0.00000000000E+00 -0.00000000000E+00 -0.13611059778E+03  0.13611652261E+03  0.12700000000E+01 0.  1.
         25    2    1    2    0    0  0.00000000000E+00  0.00000000000E+00 -0.10743271269E+03  0.16482251490E+03  0.12499869464E+03 0.  0.
    9000005    1    3    3    0    0 -0.18746606824E+02 -0.51843472187E+02 -0.14913215483E+02  0.57119041237E+02  0.10000000000E+01 0.  0.
    9000005    1    3    3    0    0  0.18746606824E+02  0.51843472187E+02 -0.92519497209E+02  0.10770347367E+03  0.10000000000E+01 0.  0.
<mgrwt>
<rscale>  0 0.12499869E+03</rscale>
<asrwt>0</asrwt>
<pdfrwt beam="1">  1        4 0.44146002E-02 0.12499869E+03</pdfrwt>
<pdfrwt beam="2">  1       -4 0.20942709E-01 0.12499869E+03</pdfrwt>
<totfact> 0.96423843E+03</totfact>
</mgrwt>
</event>
<event>
 5    1  0.3516911E-002  0.1249989E+03  0.7818608E-02  0.1235071E+00
          4   -1    0    0  501    0  0.00000000000E+00  0.00000000000E+00  0.14223203011E+03  0.14223769996E+03  0.12700000000E+01 0. -1.
         -4   -1    0    0    0  501 -0.00000000000E+00 -0.00000000000E+00 -0.27442537352E+02  0.27471908494E+02  0.12700000000E+01 0. -1.
         25    2    1    2    0    0  0.00000000000E+00  0.00000000000E+00  0.11478949276E+03  0.16970960846E+03  0.12499889421E+03 0.  0.
    9000005    1    3    3    0    0 -0.90434648601E+01  0.69321010319E+00 -0.26550796746E+02  0.28075070877E+02  0.10000000000E+01 0.  0.
    9000005    1    3    3    0    0  0.90434648601E+01 -0.69321010319E+00  0.14134028951E+03  0.14163453758E+03  0.10000000000E+01 0.  0.
<mgrwt>
<rscale>  0 0.12499889E+03</rscale>
<asrwt>0</asrwt>
<pdfrwt beam="1">  1        4 0.21884547E-01 0.12499889E+03</pdfrwt>
<pdfrwt beam="2">  1       -4 0.42246241E-02 0.12499889E+03</pdfrwt>
<totfact> 0.95505159E+03</totfact>
</mgrwt>
</event>
<event>
 5    1  0.3516911E-002  0.1250015E+03  0.7818608E-02  0.1235067E+00
         -4   -1    0    0    0  501 -0.00000000000E+00  0.00000000000E+00  0.17199901169E+02  0.17246724333E+02  0.12700000000E+01 0.  1.
          4   -1    0    0  501    0  0.00000000000E+00 -0.00000000000E+00 -0.22675683976E+03  0.22676039618E+03  0.12700000000E+01 0.  1.
         25    2    1    2    0    0  0.00000000000E+00  0.00000000000E+00 -0.20955693859E+03  0.24400712052E+03  0.12500145740E+03 0.  0.
    9000005    1    3    3    0    0  0.48254995615E+02 -0.36988731343E+02 -0.13297372594E+03  0.14621806536E+03  0.10000000000E+01 0.  0.
    9000005    1    3    3    0    0 -0.48254995615E+02  0.36988731343E+02 -0.76583212651E+02  0.97789055155E+02  0.10000000000E+01 0.  0.
<mgrwt>
<rscale>  0 0.12500146E+03</rscale>
<asrwt>0</asrwt>
<pdfrwt beam="2">  1        4 0.34889541E-01 0.12500146E+03</pdfrwt>
<pdfrwt beam="1">  1       -4 0.26500141E-02 0.12500146E+03</pdfrwt>
<totfact> 0.83201473E+03</totfact>
</mgrwt>
</event>
<event>
 5    1  0.3516911E-002  0.1250023E+03  0.7818608E-02  0.1235066E+00
         -4   -1    0    0    0  501 -0.00000000000E+00  0.00000000000E+00  0.72913474107E+01  0.74011247162E+01  0.12700000000E+01 0. -1.
          4   -1    0    0  501    0  0.00000000000E+00 -0.00000000000E+00 -0.53164353014E+03  0.53164504704E+03  0.12700000000E+01 0. -1.
         25    2    1    2    0    0  0.00000000000E+00  0.00000000000E+00 -0.52435218273E+03  0.53904617175E+03  0.12500225498E+03 0.  0.
    9000005    1    3    3    0    0  0.25145349631E+02  0.50172204452E+02 -0.14361926428E+03  0.15419802781E+03  0.10000000000E+01 0.  0.
    9000005    1    3    3    0    0 -0.25145349631E+02 -0.50172204452E+02 -0.38073291845E+03  0.38484814394E+03  0.10000000000E+01 0.  0.
<mgrwt>
<rscale>  0 0.12500225E+03</rscale>
<asrwt>0</asrwt>
<pdfrwt beam="2">  1        4 0.81799843E-01 0.12500225E+03</pdfrwt>
<pdfrwt beam="1">  1       -4 0.11303073E-02 0.12500225E+03</pdfrwt>
<totfact> 0.52954614E+03</totfact>
</mgrwt>
</event>
<event>
 5    1  0.3516911E-002  0.1250001E+03  0.7818608E-02  0.1235069E+00
         -4   -1    0    0    0  501 -0.00000000000E+00  0.00000000000E+00  0.76307116812E+03  0.76307222496E+03  0.12700000000E+01 0. -1.
          4   -1    0    0  501    0  0.00000000000E+00 -0.00000000000E+00 -0.50392800352E+01  0.51968493603E+01  0.12700000000E+01 0. -1.
         25    2    1    2    0    0  0.00000000000E+00  0.00000000000E+00  0.75803188808E+03  0.76826907433E+03  0.12500010886E+03 0.  0.
    9000005    1    3    3    0    0 -0.12505613959E+02 -0.40545305876E+02  0.66099918311E+03  0.66236034927E+03  0.10000000000E+01 0.  0.
    9000005    1    3    3    0    0  0.12505613959E+02  0.40545305876E+02  0.97032704970E+02  0.10590872506E+03  0.10000000000E+01 0.  0.
<mgrwt>
<rscale>  0 0.12500011E+03</rscale>
<asrwt>0</asrwt>
<pdfrwt beam="2">  1        4 0.78747591E-03 0.12500011E+03</pdfrwt>
<pdfrwt beam="1">  1       -4 0.11740776E+00 0.12500011E+03</pdfrwt>
<totfact> 0.39715100E+03</totfact>
</mgrwt>
</event>
<event>
 5    1  0.3516911E-002  0.1249984E+03  0.7818608E-02  0.1235072E+00
          4   -1    0    0  501    0  0.00000000000E+00  0.00000000000E+00  0.43430637271E+03  0.43430822958E+03  0.12700000000E+01 0. -1.
         -4   -1    0    0    0  501 -0.00000000000E+00 -0.00000000000E+00 -0.89472838175E+01  0.90369678383E+01  0.12700000000E+01 0. -1.
         25    2    1    2    0    0  0.00000000000E+00  0.00000000000E+00  0.42535908889E+03  0.44334519741E+03  0.12499843825E+03 0.  0.
    9000005    1    3    3    0    0  0.49557375674E+02 -0.98670564674E+01  0.34308726300E+03  0.34678979559E+03  0.10000000000E+01 0.  0.
    9000005    1    3    3    0    0 -0.49557375674E+02  0.98670564674E+01  0.82271825889E+02  0.96555401828E+02  0.10000000000E+01 0.  0.
<mgrwt>
<rscale>  0 0.12499844E+03</rscale>
<asrwt>0</asrwt>
<pdfrwt beam="1">  1        4 0.66823405E-01 0.12499844E+03</pdfrwt>
<pdfrwt beam="2">  1       -4 0.13835468E-02 0.12499844E+03</pdfrwt>
<totfact> 0.60546750E+03</totfact>
</mgrwt>
</event>
<event>
 5    1  0.3516911E-002  0.1249978E+03  0.7818608E-02  0.1235073E+00
         -4   -1    0    0    0  501 -0.00000000000E+00  0.00000000000E+00  0.80577453874E+02  0.80587461635E+02  0.12700000000E+01 0.  1.
          4   -1    0    0  501    0  0.00000000000E+00 -0.00000000000E+00 -0.48455182764E+02  0.48471823122E+02  0.12700000000E+01 0.  1.
         25    2    1    2    0    0  0.00000000000E+00  0.00000000000E+00  0.32122271110E+02  0.12905928476E+03  0.12499783470E+03 0.  0.
    9000005    1    3    3    0    0 -0.55826185699E+02 -0.25946912275E+02  0.27148265243E+02  0.67289178714E+02  0.10000000000E+01 0.  0.
    9000005    1    3    3    0    0  0.55826185699E+02  0.25946912275E+02  0.49740058667E+01  0.61770106043E+02  0.10000000000E+01 0.  0.
<mgrwt>
<rscale>  0 0.12499783E+03</rscale>
<asrwt>0</asrwt>
<pdfrwt beam="2">  1        4 0.74566934E-02 0.12499783E+03</pdfrwt>
<pdfrwt beam="1">  1       -4 0.12398581E-01 0.12499783E+03</pdfrwt>
<totfact> 0.10365180E+04</totfact>
</mgrwt>
</event>
<event>
 5    1  0.3516911E-002  0.1249979E+03  0.7818608E-02  0.1235073E+00
          4   -1    0    0  501    0  0.00000000000E+00  0.00000000000E+00  0.12224969829E+02  0.12290760242E+02  0.12700000000E+01 0. -1.
         -4   -1    0    0    0  501 -0.00000000000E+00 -0.00000000000E+00 -0.31859492841E+03  0.31859745967E+03  0.12700000000E+01 0. -1.
         25    2    1    2    0    0  0.00000000000E+00  0.00000000000E+00 -0.30636995858E+03  0.33088821991E+03  0.12499785020E+03 0.  0.
    9000005    1    3    3    0    0 -0.23293845869E+02  0.21744457118E+02 -0.29548483589E+03  0.29719978619E+03  0.10000000000E+01 0.  0.
    9000005    1    3    3    0    0  0.23293845869E+02 -0.21744457118E+02 -0.10885122692E+02  0.33688433723E+02  0.10000000000E+01 0.  0.
<mgrwt>
<rscale>  0 0.12499785E+03</rscale>
<asrwt>0</asrwt>
<pdfrwt beam="1">  1        4 0.18860203E-02 0.12499785E+03</pdfrwt>
<pdfrwt beam="2">  1       -4 0.49019854E-01 0.12499785E+03</pdfrwt>
<totfact> 0.71882986E+03</totfact>
</mgrwt>
</event>
<event>
 5    1  0.3516911E-002  0.1249932E+03  0.7818608E-02  0.1235080E+00
          4   -1    0    0  501    0  0.00000000000E+00  0.00000000000E+00  0.12648486807E+03  0.12649124377E+03  0.12700000000E+01 0. -1.
         -4   -1    0    0    0  501 -0.00000000000E+00 -0.00000000000E+00 -0.30859543038E+02  0.30885664903E+02  0.12700000000E+01 0. -1.
         25    2    1    2    0    0  0.00000000000E+00  0.00000000000E+00  0.95625325034E+02  0.15737690868E+03  0.12499315420E+03 0.  0.
    9000005    1    3    3    0    0 -0.34367478669E+02  0.45465716777E+02  0.80074890806E+02  0.98291622887E+02  0.10000000000E+01 0.  0.
    9000005    1    3    3    0    0  0.34367478669E+02 -0.45465716777E+02  0.15550434227E+02  0.59085285788E+02  0.10000000000E+01 0.  0.
<mgrwt>
<rscale>  0 0.12499315E+03</rscale>
<asrwt>0</asrwt>
<pdfrwt beam="1">  1        4 0.19461711E-01 0.12499315E+03</pdfrwt>
<pdfrwt beam="2">  1       -4 0.47501218E-02 0.12499315E+03</pdfrwt>
<totfact> 0.97865955E+03</totfact>
</mgrwt>
</event>
<event>
 5    1  0.3516911E-002  0.1250012E+03  0.7818608E-02  0.1235067E+00
         -4   -1    0    0    0  501 -0.00000000000E+00  0.00000000000E+00  0.38242488868E+02  0.38263570858E+02  0.12700000000E+01 0.  1.
          4   -1    0    0  501    0  0.00000000000E+00 -0.00000000000E+00 -0.10209305109E+03  0.10210094995E+03  0.12700000000E+01 0.  1.
         25    2    1    2    0    0  0.00000000000E+00  0.00000000000E+00 -0.63850562223E+02  0.14036452081E+03  0.12500121762E+03 0.  0.
    9000005    1    3    3    0    0 -0.42157510860E+01 -0.38241270497E+02 -0.87223760929E+02  0.95337043152E+02  0.10000000000E+01 0.  0.
    9000005    1    3    3    0    0  0.42157510860E+01  0.38241270497E+02  0.23373198706E+02  0.45027477657E+02  0.10000000000E+01 0.  0.
<mgrwt>
<rscale>  0 0.12500122E+03</rscale>
<asrwt>0</asrwt>
<pdfrwt beam="2">  1        4 0.15708852E-01 0.12500122E+03</pdfrwt>
<pdfrwt beam="1">  1       -4 0.58856891E-02 0.12500122E+03</pdfrwt>
<totfact> 0.10125759E+04</totfact>
</mgrwt>
</event>
<event>
 5    1  0.3516911E-002  0.1249988E+03  0.7818608E-02  0.1235071E+00
          4   -1    0    0  501    0  0.00000000000E+00  0.00000000000E+00  0.17553913130E+02  0.17599794492E+02  0.12700000000E+01 0.  1.
         -4   -1    0    0    0  501 -0.00000000000E+00 -0.00000000000E+00 -0.22218628192E+03  0.22218991150E+03  0.12700000000E+01 0.  1.
         25    2    1    2    0    0  0.00000000000E+00  0.00000000000E+00 -0.20463236879E+03  0.23978970599E+03  0.12499878697E+03 0.  0.
    9000005    1    3    3    0    0 -0.43918936137E+02 -0.37133632369E+02 -0.55428868015E+02  0.79882031858E+02  0.10000000000E+01 0.  0.
    9000005    1    3    3    0    0  0.43918936137E+02  0.37133632369E+02 -0.14920350077E+03  0.15990767413E+03  0.10000000000E+01 0.  0.
<mgrwt>
<rscale>  0 0.12499879E+03</rscale>
<asrwt>0</asrwt>
<pdfrwt beam="1">  1        4 0.27044107E-02 0.12499879E+03</pdfrwt>
<pdfrwt beam="2">  1       -4 0.34186311E-01 0.12499879E+03</pdfrwt>
<totfact> 0.83830965E+03</totfact>
</mgrwt>
</event>
<event>
 5    1  0.3516911E-002  0.1249851E+03  0.7818608E-02  0.1235093E+00
         -4   -1    0    0    0  501 -0.00000000000E+00  0.00000000000E+00  0.85770787453E+02  0.85780189323E+02  0.12700000000E+01 0. -1.
          4   -1    0    0  501    0  0.00000000000E+00 -0.00000000000E+00 -0.45511293227E+02  0.45529009556E+02  0.12700000000E+01 0. -1.
         25    2    1    2    0    0  0.00000000000E+00  0.00000000000E+00  0.40259494227E+02  0.13130919888E+03  0.12498511445E+03 0.  0.
    9000005    1    3    3    0    0  0.25674374022E+01  0.62426763507E+02  0.19297734029E+02  0.65399503633E+02  0.10000000000E+01 0.  0.
    9000005    1    3    3    0    0 -0.25674374022E+01 -0.62426763507E+02  0.20961760198E+02  0.65909695246E+02  0.10000000000E+01 0.  0.
<mgrwt>
<rscale>  0 0.12498511E+03</rscale>
<asrwt>0</asrwt>
<pdfrwt beam="2">  1        4 0.70038234E-02 0.12498511E+03</pdfrwt>
<pdfrwt beam="1">  1       -4 0.13197592E-01 0.12498511E+03</pdfrwt>
<totfact> 0.10319930E+04</totfact>
</mgrwt>
</event>
<event>
 5    1  0.3516911E-002  0.1250020E+03  0.7818608E-02  0.1235066E+00
         -4   -1    0    0    0  501 -0.00000000000E+00  0.00000000000E+00  0.26258060691E+02  0.26288755225E+02  0.12700000000E+01 0.  1.
          4   -1    0    0  501    0  0.00000000000E+00 -0.00000000000E+00 -0.14864829933E+03  0.14865372446E+03  0.12700000000E+01 0.  1.
         25    2    1    2    0    0  0.00000000000E+00  0.00000000000E+00 -0.12239023864E+03  0.17494247968E+03  0.12500200271E+03 0.  0.
    9000005    1    3    3    0    0  0.13820249566E+02  0.53284935014E+02 -0.10259556895E+03  0.11643510796E+03  0.10000000000E+01 0.  0.
    9000005    1    3    3    0    0 -0.13820249566E+02 -0.53284935014E+02 -0.19794669693E+02  0.58507371721E+02  0.10000000000E+01 0.  0.
<mgrwt>
<rscale>  0 0.12500200E+03</rscale>
<asrwt>0</asrwt>
<pdfrwt beam="2">  1        4 0.22871747E-01 0.12500200E+03</pdfrwt>
<pdfrwt beam="1">  1       -4 0.40424802E-02 0.12500200E+03</pdfrwt>
<totfact> 0.94531129E+03</totfact>
</mgrwt>
</event>
<event>
 5    1  0.3516911E-002  0.1249993E+03  0.7818608E-02  0.1235070E+00
         -4   -1    0    0    0  501 -0.00000000000E+00  0.00000000000E+00  0.19228118484E+03  0.19228537891E+03  0.12700000000E+01 0. -1.
          4   -1    0    0  501    0  0.00000000000E+00 -0.00000000000E+00 -0.20290792330E+02  0.20330498109E+02  0.12700000000E+01 0. -1.
         25    2    1    2    0    0  0.00000000000E+00  0.00000000000E+00  0.17199039251E+03  0.21261587702E+03  0.12499926418E+03 0.  0.
    9000005    1    3    3    0    0  0.13375101572E+02  0.60969846814E+02  0.80895660843E+02  0.10218279457E+03  0.10000000000E+01 0.  0.
    9000005    1    3    3    0    0 -0.13375101572E+02 -0.60969846814E+02  0.91094731668E+02  0.11043308245E+03  0.10000000000E+01 0.  0.
<mgrwt>
<rscale>  0 0.12499926E+03</rscale>
<asrwt>0</asrwt>
<pdfrwt beam="2">  1        4 0.31250372E-02 0.12499926E+03</pdfrwt>
<pdfrwt beam="1">  1       -4 0.29585098E-01 0.12499926E+03</pdfrwt>
<totfact> 0.88051895E+03</totfact>
</mgrwt>
</event>
<event>
 5    1  0.3516911E-002  0.1249987E+03  0.7818608E-02  0.1235071E+00
         -4   -1    0    0    0  501 -0.00000000000E+00  0.00000000000E+00  0.56141474883E+02  0.56155837648E+02  0.12700000000E+01 0. -1.
          4   -1    0    0  501    0  0.00000000000E+00 -0.00000000000E+00 -0.69548159914E+02  0.69559754509E+02  0.12700000000E+01 0. -1.
         25    2    1    2    0    0  0.00000000000E+00  0.00000000000E+00 -0.13406685031E+02  0.12571559216E+03  0.12499868363E+03 0.  0.
    9000005    1    3    3    0    0  0.53468701394E+00 -0.33153251402E+02  0.46569725498E+02  0.57176597500E+02  0.10000000000E+01 0.  0.
    9000005    1    3    3    0    0 -0.53468701394E+00  0.33153251402E+02 -0.59976410529E+02  0.68538994658E+02  0.10000000000E+01 0.  0.
<mgrwt>
<rscale>  0 0.12499868E+03</rscale>
<asrwt>0</asrwt>
<pdfrwt beam="2">  1        4 0.10701714E-01 0.12499868E+03</pdfrwt>
<pdfrwt beam="1">  1       -4 0.86391467E-02 0.12499868E+03</pdfrwt>
<totfact> 0.10437511E+04</totfact>
</mgrwt>
</event>
<event>
 5    1  0.3516911E-002  0.1250057E+03  0.7818608E-02  0.1235060E+00
          4   -1    0    0  501    0  0.00000000000E+00  0.00000000000E+00  0.87403045877E+02  0.87412272185E+02  0.12700000000E+01 0.  1.
         -4   -1    0    0    0  501 -0.00000000000E+00 -0.00000000000E+00 -0.44675853566E+02  0.44693901059E+02  0.12700000000E+01 0.  1.
         25    2    1    2    0    0  0.00000000000E+00  0.00000000000E+00  0.42727192311E+02  0.13210617324E+03  0.12500571206E+03 0.  0.
    9000005    1    3    3    0    0  0.39862601198E+02 -0.39649029969E+02  0.50199638583E+02  0.75379548059E+02  0.10000000000E+01 0.  0.
    9000005    1    3    3    0    0 -0.39862601198E+02  0.39649029969E+02 -0.74724462720E+01  0.56726625186E+02  0.10000000000E+01 0.  0.
<mgrwt>
<rscale>  0 0.12500571E+03</rscale>
<asrwt>0</asrwt>
<pdfrwt beam="1">  1        4 0.13448720E-01 0.12500571E+03</pdfrwt>
<pdfrwt beam="2">  1       -4 0.68753064E-02 0.12500571E+03</pdfrwt>
<totfact> 0.10298106E+04</totfact>
</mgrwt>
</event>
<event>
 5    1  0.3516911E-002  0.1249997E+03  0.7818608E-02  0.1235070E+00
         -4   -1    0    0    0  501 -0.00000000000E+00  0.00000000000E+00  0.13233229799E+03  0.13233839198E+03  0.12700000000E+01 0.  1.
          4   -1    0    0  501    0  0.00000000000E+00 -0.00000000000E+00 -0.29497915001E+02  0.29525241564E+02  0.12700000000E+01 0.  1.
         25    2    1    2    0    0  0.00000000000E+00  0.00000000000E+00  0.10283438299E+03  0.16186363355E+03  0.12499970216E+03 0.  0.
    9000005    1    3    3    0    0 -0.33219292149E+02  0.28283848296E+02 -0.65181382922E+01  0.44124636793E+02  0.10000000000E+01 0.  0.
    9000005    1    3    3    0    0  0.33219292149E+02 -0.28283848296E+02  0.10935252128E+03  0.11773899675E+03  0.10000000000E+01 0.  0.
<mgrwt>
<rscale>  0 0.12499970E+03</rscale>
<asrwt>0</asrwt>
<pdfrwt beam="2">  1        4 0.45407116E-02 0.12499970E+03</pdfrwt>
<pdfrwt beam="1">  1       -4 0.20361386E-01 0.12499970E+03</pdfrwt>
<totfact> 0.96985339E+03</totfact>
</mgrwt>
</event>
<event>
 5    1  0.3516911E-002  0.1249994E+03  0.7818608E-02  0.1235070E+00
          4   -1    0    0  501    0  0.00000000000E+00  0.00000000000E+00  0.11568658524E+03  0.11569355602E+03  0.12700000000E+01 0.  1.
         -4   -1    0    0    0  501 -0.00000000000E+00 -0.00000000000E+00 -0.33745568643E+02  0.33769458139E+02  0.12700000000E+01 0.  1.
         25    2    1    2    0    0  0.00000000000E+00  0.00000000000E+00  0.81941016593E+02  0.14946301416E+03  0.12499944960E+03 0.  0.
    9000005    1    3    3    0    0 -0.65288300982E+01  0.51720949777E+02 -0.23436088360E+00  0.52141511229E+02  0.10000000000E+01 0.  0.
    9000005    1    3    3    0    0  0.65288300982E+01 -0.51720949777E+02  0.82175377477E+02  0.97321502926E+02  0.10000000000E+01 0.  0.
<mgrwt>
<rscale>  0 0.12499945E+03</rscale>
<asrwt>0</asrwt>
<pdfrwt beam="1">  1        4 0.17800310E-01 0.12499945E+03</pdfrwt>
<pdfrwt beam="2">  1       -4 0.51939999E-02 0.12499945E+03</pdfrwt>
<totfact> 0.99412077E+03</totfact>
</mgrwt>
</event>
<event>
 5    1  0.3516911E-002  0.1249960E+03  0.7818608E-02  0.1235076E+00
         -4   -1    0    0    0  501 -0.00000000000E+00  0.00000000000E+00  0.57225844514E+02  0.57239935188E+02  0.12700000000E+01 0.  1.
          4   -1    0    0  501    0  0.00000000000E+00 -0.00000000000E+00 -0.68227439332E+02  0.68239258332E+02  0.12700000000E+01 0.  1.
         25    2    1    2    0    0  0.00000000000E+00  0.00000000000E+00 -0.11001594818E+02  0.12547919352E+03  0.12499597161E+03 0.  0.
    9000005    1    3    3    0    0 -0.11347906946E+02 -0.60328001879E+02  0.62386589705E+01  0.61710320600E+02  0.10000000000E+01 0.  0.
    9000005    1    3    3    0    0  0.11347906946E+02  0.60328001879E+02 -0.17240253789E+02  0.63768872920E+02  0.10000000000E+01 0.  0.
<mgrwt>
<rscale>  0 0.12499597E+03</rscale>
<asrwt>0</asrwt>
<pdfrwt beam="2">  1        4 0.10498522E-01 0.12499597E+03</pdfrwt>
<pdfrwt beam="1">  1       -4 0.88059691E-02 0.12499597E+03</pdfrwt>
<totfact> 0.10443363E+04</totfact>
</mgrwt>
</event>
<event>
 5    1  0.3516911E-002  0.1249985E+03  0.7818608E-02  0.1235072E+00
          4   -1    0    0  501    0  0.00000000000E+00  0.00000000000E+00  0.35623098692E+02  0.35645729904E+02  0.12700000000E+01 0. -1.
         -4   -1    0    0    0  501 -0.00000000000E+00 -0.00000000000E+00 -0.10959123358E+03  0.10959859204E+03  0.12700000000E+01 0. -1.
         25    2    1    2    0    0  0.00000000000E+00  0.00000000000E+00 -0.73968134884E+02  0.14524432194E+03  0.12499851230E+03 0.  0.
    9000005    1    3    3    0    0 -0.30780477294E+01 -0.37439254380E+02 -0.95012551715E+02  0.10217415099E+03  0.10000000000E+01 0.  0.
    9000005    1    3    3    0    0  0.30780477294E+01  0.37439254380E+02  0.21044416831E+02  0.43070170956E+02  0.10000000000E+01 0.  0.
<mgrwt>
<rscale>  0 0.12499851E+03</rscale>
<asrwt>0</asrwt>
<pdfrwt beam="1">  1        4 0.54827836E-02 0.12499851E+03</pdfrwt>
<pdfrwt beam="2">  1       -4 0.16862497E-01 0.12499851E+03</pdfrwt>
<totfact> 0.10026363E+04</totfact>
</mgrwt>
</event>
<event>
 5    1  0.3516911E-002  0.1250014E+03  0.7818608E-02  0.1235067E+00
          4   -1    0    0  501    0  0.00000000000E+00  0.00000000000E+00  0.65718408564E+02  0.65730678714E+02  0.12700000000E+01 0.  1.
         -4   -1    0    0    0  501 -0.00000000000E+00 -0.00000000000E+00 -0.59415979629E+02  0.59429551027E+02  0.12700000000E+01 0.  1.
         25    2    1    2    0    0  0.00000000000E+00  0.00000000000E+00  0.63024289349E+01  0.12516022974E+03  0.12500144999E+03 0.  0.
    9000005    1    3    3    0    0  0.41666436349E+01  0.44509186725E+01  0.65424821610E+02  0.65715895177E+02  0.10000000000E+01 0.  0.
    9000005    1    3    3    0    0 -0.41666436349E+01 -0.44509186725E+01 -0.59122392675E+02  0.59444334564E+02  0.10000000000E+01 0.  0.
<mgrwt>
<rscale>  0 0.12500145E+03</rscale>
<asrwt>0</asrwt>
<pdfrwt beam="1">  1        4 0.10112512E-01 0.12500145E+03</pdfrwt>
<pdfrwt beam="2">  1       -4 0.91429078E-02 0.12500145E+03</pdfrwt>
<totfact> 0.10449041E+04</totfact>
</mgrwt>
</event>
<event>
 5    1  0.3516911E-002  0.1249953E+03  0.7818608E-02  0.1235077E+00
         -4   -1    0    0    0  501 -0.00000000000E+00  0.00000000000E+00  0.52592225542E+02  0.52607557322E+02  0.12700000000E+01 0. -1.
          4   -1    0    0  501    0  0.00000000000E+00 -0.00000000000E+00 -0.74237077143E+02  0.74247939519E+02  0.12700000000E+01 0. -1.
         25    2    1    2    0    0  0.00000000000E+00  0.00000000000E+00 -0.21644851601E+02  0.12685549684E+03  0.12499526982E+03 0.  0.
    9000005    1    3    3    0    0 -0.32310281142E+02  0.17535579399E+02  0.40461816784E+02  0.54677320982E+02  0.10000000000E+01 0.  0.
    9000005    1    3    3    0    0  0.32310281142E+02 -0.17535579399E+02 -0.62106668385E+02  0.72178175859E+02  0.10000000000E+01 0.  0.
<mgrwt>
<rscale>  0 0.12499527E+03</rscale>
<asrwt>0</asrwt>
<pdfrwt beam="2">  1        4 0.11423104E-01 0.12499527E+03</pdfrwt>
<pdfrwt beam="1">  1       -4 0.80931265E-02 0.12499527E+03</pdfrwt>
<totfact> 0.10413398E+04</totfact>
</mgrwt>
</event>
<event>
 5    1  0.3516911E-002  0.1249975E+03  0.7818608E-02  0.1235073E+00
         -4   -1    0    0    0  501 -0.00000000000E+00  0.00000000000E+00  0.24943301270E+02  0.24975611669E+02  0.12700000000E+01 0. -1.
          4   -1    0    0  501    0  0.00000000000E+00 -0.00000000000E+00 -0.15646258357E+03  0.15646773775E+03  0.12700000000E+01 0. -1.
         25    2    1    2    0    0  0.00000000000E+00  0.00000000000E+00 -0.13151928230E+03  0.18144334942E+03  0.12499746970E+03 0.  0.
    9000005    1    3    3    0    0 -0.39996989039E+02 -0.46230845115E+02 -0.84576552874E+02  0.10436112048E+03  0.10000000000E+01 0.  0.
    9000005    1    3    3    0    0  0.39996989039E+02  0.46230845115E+02 -0.46942729422E+02  0.77082228936E+02  0.10000000000E+01 0.  0.
<mgrwt>
<rscale>  0 0.12499747E+03</rscale>
<asrwt>0</asrwt>
<pdfrwt beam="2">  1        4 0.24074048E-01 0.12499747E+03</pdfrwt>
<pdfrwt beam="1">  1       -4 0.38403130E-02 0.12499747E+03</pdfrwt>
<totfact> 0.93363135E+03</totfact>
</mgrwt>
</event>
<event>
 5    1  0.3516911E-002  0.1250017E+03  0.7818608E-02  0.1235067E+00
          4   -1    0    0  501    0  0.00000000000E+00  0.00000000000E+00  0.25273681615E+03  0.25274000700E+03  0.12700000000E+01 0. -1.
         -4   -1    0    0    0  501 -0.00000000000E+00 -0.00000000000E+00 -0.15426846342E+02  0.15479033822E+02  0.12700000000E+01 0. -1.
         25    2    1    2    0    0  0.00000000000E+00  0.00000000000E+00  0.23730996981E+03  0.26821904082E+03  0.12500172834E+03 0.  0.
    9000005    1    3    3    0    0  0.56748626099E+02 -0.25966756288E+02  0.12566694454E+03  0.14031343466E+03  0.10000000000E+01 0.  0.
    9000005    1    3    3    0    0 -0.56748626099E+02  0.25966756288E+02  0.11164302526E+03  0.12790560616E+03  0.10000000000E+01 0.  0.
<mgrwt>
<rscale>  0 0.12500173E+03</rscale>
<asrwt>0</asrwt>
<pdfrwt beam="1">  1        4 0.38886844E-01 0.12500173E+03</pdfrwt>
<pdfrwt beam="2">  1       -4 0.23776210E-02 0.12500173E+03</pdfrwt>
<totfact> 0.79763229E+03</totfact>
</mgrwt>
</event>
<event>
 5    1  0.3516911E-002  0.1249994E+03  0.7818608E-02  0.1235070E+00
          4   -1    0    0  501    0  0.00000000000E+00  0.00000000000E+00  0.44238281289E+02  0.44256507221E+02  0.12700000000E+01 0.  1.
         -4   -1    0    0    0  501 -0.00000000000E+00 -0.00000000000E+00 -0.88258353943E+02  0.88267490849E+02  0.12700000000E+01 0.  1.
         25    2    1    2    0    0  0.00000000000E+00  0.00000000000E+00 -0.44020072654E+02  0.13252399807E+03  0.12499937307E+03 0.  0.
    9000005    1    3    3    0    0  0.72138249337E+01 -0.19989421703E+02 -0.84314960366E+02  0.86957626415E+02  0.10000000000E+01 0.  0.
    9000005    1    3    3    0    0 -0.72138249337E+01  0.19989421703E+02  0.40294887711E+02  0.45566371656E+02  0.10000000000E+01 0.  0.
<mgrwt>
<rscale>  0 0.12499937E+03</rscale>
<asrwt>0</asrwt>
<pdfrwt beam="1">  1        4 0.68079942E-02 0.12499937E+03</pdfrwt>
<pdfrwt beam="2">  1       -4 0.13580313E-01 0.12499937E+03</pdfrwt>
<totfact> 0.10290672E+04</totfact>
</mgrwt>
</event>
<event>
 5    1  0.3516911E-002  0.1249982E+03  0.7818608E-02  0.1235072E+00
         -4   -1    0    0    0  501 -0.00000000000E+00  0.00000000000E+00  0.28529538203E+02  0.28557791408E+02  0.12700000000E+01 0.  1.
          4   -1    0    0  501    0  0.00000000000E+00 -0.00000000000E+00 -0.13681651791E+03  0.13682241217E+03  0.12700000000E+01 0.  1.
         25    2    1    2    0    0  0.00000000000E+00  0.00000000000E+00 -0.10828697970E+03  0.16538020358E+03  0.12499816704E+03 0.  0.
    9000005    1    3    3    0    0 -0.48880432551E+02  0.35736941510E+02 -0.33701885850E+02  0.69305431135E+02  0.10000000000E+01 0.  0.
    9000005    1    3    3    0    0  0.48880432551E+02 -0.35736941510E+02 -0.74585093854E+02  0.96074772444E+02  0.10000000000E+01 0.  0.
<mgrwt>
<rscale>  0 0.12499817E+03</rscale>
<asrwt>0</asrwt>
<pdfrwt beam="2">  1        4 0.21051322E-01 0.12499817E+03</pdfrwt>
<pdfrwt beam="1">  1       -4 0.43917865E-02 0.12499817E+03</pdfrwt>
<totfact> 0.96319402E+03</totfact>
</mgrwt>
</event>
<event>
 5    1  0.3516911E-002  0.1250017E+03  0.7818608E-02  0.1235067E+00
         -4   -1    0    0    0  501 -0.00000000000E+00  0.00000000000E+00  0.11986905599E+03  0.11987578355E+03  0.12700000000E+01 0.  1.
          4   -1    0    0  501    0  0.00000000000E+00 -0.00000000000E+00 -0.32568530909E+02  0.32593283136E+02  0.12700000000E+01 0.  1.
         25    2    1    2    0    0  0.00000000000E+00  0.00000000000E+00  0.87300525077E+02  0.15246906669E+03  0.12500173846E+03 0.  0.
    9000005    1    3    3    0    0  0.44417968763E+02 -0.32775703885E+02  0.79381560741E+02  0.96693510123E+02  0.10000000000E+01 0.  0.
    9000005    1    3    3    0    0 -0.44417968763E+02  0.32775703885E+02  0.79189643352E+01  0.55775556567E+02  0.10000000000E+01 0.  0.
<mgrwt>
<rscale>  0 0.12500174E+03</rscale>
<asrwt>0</asrwt>
<pdfrwt beam="2">  1        4 0.50129648E-02 0.12500174E+03</pdfrwt>
<pdfrwt beam="1">  1       -4 0.18443815E-01 0.12500174E+03</pdfrwt>
<totfact> 0.98809919E+03</totfact>
</mgrwt>
</event>
<event>
 5    1  0.3516911E-002  0.1249964E+03  0.7818608E-02  0.1235075E+00
         -4   -1    0    0    0  501 -0.00000000000E+00  0.00000000000E+00  0.13393571521E+04  0.13393577542E+04  0.12700000000E+01 0.  1.
          4   -1    0    0  501    0  0.00000000000E+00 -0.00000000000E+00 -0.27774463962E+01  0.30540315132E+01  0.12700000000E+01 0.  1.
         25    2    1    2    0    0  0.00000000000E+00  0.00000000000E+00  0.13365797057E+04  0.13424117858E+04  0.12499637102E+03 0.  0.
    9000005    1    3    3    0    0  0.40207696460E+02 -0.74916433078E+01  0.11756995442E+04  0.11764111534E+04  0.10000000000E+01 0.  0.
    9000005    1    3    3    0    0 -0.40207696460E+02  0.74916433078E+01  0.16088016153E+03  0.16600063237E+03  0.10000000000E+01 0.  0.
<mgrwt>
<rscale>  0 0.12499637E+03</rscale>
<asrwt>0</asrwt>
<pdfrwt beam="2">  1        4 0.44862167E-03 0.12499637E+03</pdfrwt>
<pdfrwt beam="1">  1       -4 0.20607621E+00 0.12499637E+03</pdfrwt>
<totfact> 0.21250784E+03</totfact>
</mgrwt>
</event>
<event>
 5    1  0.3516911E-002  0.1249992E+03  0.7818608E-02  0.1235070E+00
          4   -1    0    0  501    0  0.00000000000E+00  0.00000000000E+00  0.29681927475E+02  0.29709084783E+02  0.12700000000E+01 0.  1.
         -4   -1    0    0    0  501 -0.00000000000E+00 -0.00000000000E+00 -0.13151161483E+03  0.13151774685E+03  0.12700000000E+01 0.  1.
         25    2    1    2    0    0  0.00000000000E+00  0.00000000000E+00 -0.10182968736E+03  0.16122683163E+03  0.12499922404E+03 0.  0.
    9000005    1    3    3    0    0  0.45408124205E+02 -0.42921774089E+02 -0.52220732809E+02  0.81438205837E+02  0.10000000000E+01 0.  0.
    9000005    1    3    3    0    0 -0.45408124205E+02  0.42921774089E+02 -0.49608954549E+02  0.79788625795E+02  0.10000000000E+01 0.  0.
<mgrwt>
<rscale>  0 0.12499922E+03</rscale>
<asrwt>0</asrwt>
<pdfrwt beam="1">  1        4 0.45690112E-02 0.12499922E+03</pdfrwt>
<pdfrwt beam="2">  1       -4 0.20235116E-01 0.12499922E+03</pdfrwt>
<totfact> 0.97108475E+03</totfact>
</mgrwt>
</event>
<event>
 5    1  0.3516911E-002  0.1250013E+03  0.7818608E-02  0.1235067E+00
          4   -1    0    0  501    0  0.00000000000E+00  0.00000000000E+00  0.57434871436E+01  0.58822227574E+01  0.12700000000E+01 0. -1.
         -4   -1    0    0    0  501 -0.00000000000E+00 -0.00000000000E+00 -0.67187691661E+03  0.67187811690E+03  0.12700000000E+01 0. -1.
         25    2    1    2    0    0  0.00000000000E+00  0.00000000000E+00 -0.66613342946E+03  0.67776033966E+03  0.12500132865E+03 0.  0.
    9000005    1    3    3    0    0  0.62003572723E+02 -0.65005152843E+01 -0.35647160164E+03  0.36188354826E+03  0.10000000000E+01 0.  0.
    9000005    1    3    3    0    0 -0.62003572723E+02  0.65005152843E+01 -0.30966182782E+03  0.31587679139E+03  0.10000000000E+01 0.  0.
<mgrwt>
<rscale>  0 0.12500133E+03</rscale>
<asrwt>0</asrwt>
<pdfrwt beam="1">  1        4 0.89437824E-03 0.12500133E+03</pdfrwt>
<pdfrwt beam="2">  1       -4 0.10337638E+00 0.12500133E+03</pdfrwt>
<totfact> 0.44285722E+03</totfact>
</mgrwt>
</event>
<event>
 5    1  0.3516911E-002  0.1249991E+03  0.7818608E-02  0.1235071E+00
          4   -1    0    0  501    0  0.00000000000E+00  0.00000000000E+00  0.26934993559E+03  0.26935292964E+03  0.12700000000E+01 0.  1.
         -4   -1    0    0    0  501 -0.00000000000E+00 -0.00000000000E+00 -0.14471423913E+02  0.14527044093E+02  0.12700000000E+01 0.  1.
         25    2    1    2    0    0  0.00000000000E+00  0.00000000000E+00  0.25487851168E+03  0.28387997373E+03  0.12499913507E+03 0.  0.
    9000005    1    3    3    0    0 -0.16303529026E+02  0.21144621658E+02 -0.87630180086E+00  0.26733274932E+02  0.10000000000E+01 0.  0.
    9000005    1    3    3    0    0  0.16303529026E+02 -0.21144621658E+02  0.25575481348E+03  0.25714669880E+03  0.10000000000E+01 0.  0.
<mgrwt>
<rscale>  0 0.12499914E+03</rscale>
<asrwt>0</asrwt>
<pdfrwt beam="1">  1        4 0.41442959E-01 0.12499914E+03</pdfrwt>
<pdfrwt beam="2">  1       -4 0.22308818E-02 0.12499914E+03</pdfrwt>
<totfact> 0.77667938E+03</totfact>
</mgrwt>
</event>
<event>
 5    1  0.3516911E-002  0.1249980E+03  0.7818608E-02  0.1235072E+00
         -4   -1    0    0    0  501 -0.00000000000E+00  0.00000000000E+00  0.92939175038E+01  0.93802879789E+01  0.12700000000E+01 0. -1.
          4   -1    0    0  501    0  0.00000000000E+00 -0.00000000000E+00 -0.41825709464E+03  0.41825902276E+03  0.12700000000E+01 0. -1.
         25    2    1    2    0    0  0.00000000000E+00  0.00000000000E+00 -0.40896317714E+03  0.42763931073E+03  0.12499799931E+03 0.  0.
    9000005    1    3    3    0    0  0.18445037241E+02 -0.58466114609E+02 -0.24590727260E+03  0.25343617081E+03  0.10000000000E+01 0.  0.
    9000005    1    3    3    0    0 -0.18445037241E+02  0.58466114609E+02 -0.16305590454E+03  0.17420313993E+03  0.10000000000E+01 0.  0.
<mgrwt>
<rscale>  0 0.12499800E+03</rscale>
<asrwt>0</asrwt>
<pdfrwt beam="2">  1        4 0.64354023E-01 0.12499800E+03</pdfrwt>
<pdfrwt beam="1">  1       -4 0.14366260E-02 0.12499800E+03</pdfrwt>
<totfact> 0.61953297E+03</totfact>
</mgrwt>
</event>
<event>
 5    1  0.3516911E-002  0.1249961E+03  0.7818608E-02  0.1235075E+00
          4   -1    0    0  501    0  0.00000000000E+00  0.00000000000E+00  0.68313715742E+02  0.68325519819E+02  0.12700000000E+01 0. -1.
         -4   -1    0    0    0  501 -0.00000000000E+00 -0.00000000000E+00 -0.57153639015E+02  0.57167747486E+02  0.12700000000E+01 0. -1.
         25    2    1    2    0    0  0.00000000000E+00  0.00000000000E+00  0.11160076727E+02  0.12549326731E+03  0.12499605124E+03 0.  0.
    9000005    1    3    3    0    0 -0.69191803502E+01  0.80233421458E+01 -0.56250279364E+02  0.57248082976E+02  0.10000000000E+01 0.  0.
    9000005    1    3    3    0    0  0.69191803502E+01 -0.80233421458E+01  0.67410356091E+02  0.68245184330E+02  0.10000000000E+01 0.  0.
<mgrwt>
<rscale>  0 0.12499605E+03</rscale>
<asrwt>0</asrwt>
<pdfrwt beam="1">  1        4 0.10511796E-01 0.12499605E+03</pdfrwt>
<pdfrwt beam="2">  1       -4 0.87948608E-02 0.12499605E+03</pdfrwt>
<totfact> 0.10443033E+04</totfact>
</mgrwt>
</event>
<event>
 5    1  0.3516911E-002  0.1249944E+03  0.7818608E-02  0.1235078E+00
         -4   -1    0    0    0  501 -0.00000000000E+00  0.00000000000E+00  0.37345708344E+01  0.39446063577E+01  0.12700000000E+01 0.  1.
          4   -1    0    0  501    0  0.00000000000E+00 -0.00000000000E+00 -0.10170602410E+04  0.10170610339E+04  0.12700000000E+01 0.  1.
         25    2    1    2    0    0  0.00000000000E+00  0.00000000000E+00 -0.10133256702E+04  0.10210056403E+04  0.12499441454E+03 0.  0.
    9000005    1    3    3    0    0 -0.99303249547E+01 -0.52596305061E+02 -0.24324987668E+03  0.24907124516E+03  0.10000000000E+01 0.  0.
    9000005    1    3    3    0    0  0.99303249547E+01  0.52596305061E+02 -0.77007579348E+03  0.77193439512E+03  0.10000000000E+01 0.  0.
<mgrwt>
<rscale>  0 0.12499441E+03</rscale>
<asrwt>0</asrwt>
<pdfrwt beam="2">  1        4 0.15648681E+00 0.12499441E+03</pdfrwt>
<pdfrwt beam="1">  1       -4 0.59076774E-03 0.12499441E+03</pdfrwt>
<totfact> 0.29921309E+03</totfact>
</mgrwt>
</event>
<event>
 5    1  0.3516911E-002  0.1249982E+03  0.7818608E-02  0.1235072E+00
          4   -1    0    0  501    0  0.00000000000E+00  0.00000000000E+00  0.20276586152E+02  0.20316319695E+02  0.12700000000E+01 0. -1.
         -4   -1    0    0    0  501 -0.00000000000E+00 -0.00000000000E+00 -0.19241238958E+03  0.19241658080E+03  0.12700000000E+01 0. -1.
         25    2    1    2    0    0  0.00000000000E+00  0.00000000000E+00 -0.17213580343E+03  0.21273290049E+03  0.12499820850E+03 0.  0.
    9000005    1    3    3    0    0 -0.35840124038E+02  0.35854497520E+02 -0.23883095999E+02  0.56048744481E+02  0.10000000000E+01 0.  0.
    9000005    1    3    3    0    0  0.35840124038E+02 -0.35854497520E+02 -0.14825270743E+03  0.15668415601E+03  0.10000000000E+01 0.  0.
<mgrwt>
<rscale>  0 0.12499821E+03</rscale>
<asrwt>0</asrwt>
<pdfrwt beam="1">  1        4 0.31228538E-02 0.12499821E+03</pdfrwt>
<pdfrwt beam="2">  1       -4 0.29605284E-01 0.12499821E+03</pdfrwt>
<totfact> 0.88035024E+03</totfact>
</mgrwt>
</event>
<event>
 5    1  0.3516911E-002  0.1250032E+03  0.7818608E-02  0.1235064E+00
         -4   -1    0    0    0  501 -0.00000000000E+00  0.00000000000E+00  0.12594839793E+02  0.12658708047E+02  0.12700000000E+01 0. -1.
          4   -1    0    0  501    0  0.00000000000E+00 -0.00000000000E+00 -0.30931335351E+03  0.30931596073E+03  0.12700000000E+01 0. -1.
         25    2    1    2    0    0  0.00000000000E+00  0.00000000000E+00 -0.29671851372E+03  0.32197466877E+03  0.12500324375E+03 0.  0.
    9000005    1    3    3    0    0  0.24876003413E+02 -0.37681865141E+02 -0.25964495162E+03  0.26354361955E+03  0.10000000000E+01 0.  0.
    9000005    1    3    3    0    0 -0.24876003413E+02  0.37681865141E+02 -0.37073562101E+02  0.58431049221E+02  0.10000000000E+01 0.  0.
<mgrwt>
<rscale>  0 0.12500324E+03</rscale>
<asrwt>0</asrwt>
<pdfrwt beam="2">  1        4 0.47591777E-01 0.12500324E+03</pdfrwt>
<pdfrwt beam="1">  1       -4 0.19427814E-02 0.12500324E+03</pdfrwt>
<totfact> 0.72916638E+03</totfact>
</mgrwt>
</event>
<event>
 4    1  0.3516911E-002  0.1249296E+03  0.7818608E-02  0.1235179E+00
         -4   -1    0    0    0  501 -0.00000000000E+00  0.00000000000E+00  0.59098132022E+02  0.59111776394E+02  0.12700000000E+01 0. -1.
          4   -1    0    0  501    0  0.00000000000E+00 -0.00000000000E+00 -0.65995904211E+02  0.66008122777E+02  0.12700000000E+01 0. -1.
    9000005    1    1    2    0    0  0.43105143442E+02  0.42594752250E+02 -0.18587667671E+02  0.63394539984E+02  0.10000000000E+01 0.  0.
    9000005    1    1    2    0    0 -0.43105143442E+02 -0.42594752250E+02  0.11689895482E+02  0.61725359187E+02  0.10000000000E+01 0.  0.
<mgrwt>
<rscale>  0 0.12492962E+03</rscale>
<asrwt>0</asrwt>
<pdfrwt beam="2">  1        4 0.10155206E-01 0.12492962E+03</pdfrwt>
<pdfrwt beam="1">  1       -4 0.90940098E-02 0.12492962E+03</pdfrwt>
<totfact> 0.10466898E+04</totfact>
</mgrwt>
</event>
<event>
 5    1  0.3516911E-002  0.1250006E+03  0.7818608E-02  0.1235068E+00
          4   -1    0    0  501    0  0.00000000000E+00  0.00000000000E+00  0.18799345661E+02  0.18842194599E+02  0.12700000000E+01 0.  1.
         -4   -1    0    0    0  501 -0.00000000000E+00 -0.00000000000E+00 -0.20750704486E+03  0.20751093120E+03  0.12700000000E+01 0.  1.
         25    2    1    2    0    0  0.00000000000E+00  0.00000000000E+00 -0.18870769920E+03  0.22635312580E+03  0.12500056728E+03 0.  0.
    9000005    1    3    3    0    0  0.35953122930E+01  0.12444292093E+02  0.16350591066E+02  0.20883689913E+02  0.10000000000E+01 0.  0.
    9000005    1    3    3    0    0 -0.35953122930E+01 -0.12444292093E+02 -0.20505829027E+03  0.20546943589E+03  0.10000000000E+01 0.  0.
<mgrwt>
<rscale>  0 0.12500057E+03</rscale>
<asrwt>0</asrwt>
<pdfrwt beam="1">  1        4 0.28958022E-02 0.12500057E+03</pdfrwt>
<pdfrwt beam="2">  1       -4 0.31927754E-01 0.12500057E+03</pdfrwt>
<totfact> 0.85871655E+03</totfact>
</mgrwt>
</event>
<event>
 5    1  0.3516911E-002  0.1249982E+03  0.7818608E-02  0.1235072E+00
          4   -1    0    0  501    0  0.00000000000E+00  0.00000000000E+00  0.25546039802E+03  0.25546355485E+03  0.12700000000E+01 0.  1.
         -4   -1    0    0    0  501 -0.00000000000E+00 -0.00000000000E+00 -0.15260959052E+02  0.15313711868E+02  0.12700000000E+01 0.  1.
         25    2    1    2    0    0  0.00000000000E+00  0.00000000000E+00  0.24019943897E+03  0.27077726672E+03  0.12499823075E+03 0.  0.
    9000005    1    3    3    0    0 -0.23412590690E+02 -0.57872329018E+02  0.12614334157E+03  0.14074977262E+03  0.10000000000E+01 0.  0.
    9000005    1    3    3    0    0  0.23412590690E+02  0.57872329018E+02  0.11405609740E+03  0.13002749410E+03  0.10000000000E+01 0.  0.
<mgrwt>
<rscale>  0 0.12499823E+03</rscale>
<asrwt>0</asrwt>
<pdfrwt beam="1">  1        4 0.39305899E-01 0.12499823E+03</pdfrwt>
<pdfrwt beam="2">  1       -4 0.23521407E-02 0.12499823E+03</pdfrwt>
<totfact> 0.79420142E+03</totfact>
</mgrwt>
</event>
<event>
 5    1  0.3516911E-002  0.1249928E+03  0.7818608E-02  0.1235081E+00
          4   -1    0    0  501    0  0.00000000000E+00  0.00000000000E+00  0.68195826437E+02  0.68207650916E+02  0.12700000000E+01 0. -1.
         -4   -1    0    0    0  501 -0.00000000000E+00 -0.00000000000E+00 -0.57249476170E+02  0.57263561029E+02  0.12700000000E+01 0. -1.
         25    2    1    2    0    0  0.00000000000E+00  0.00000000000E+00  0.10946350267E+02  0.12547121194E+03  0.12499280956E+03 0.  0.
    9000005    1    3    3    0    0  0.49429446178E+02 -0.20740192336E+02 -0.26764768990E+02  0.59923105616E+02  0.10000000000E+01 0.  0.
    9000005    1    3    3    0    0 -0.49429446178E+02  0.20740192336E+02  0.37711119258E+02  0.65548106329E+02  0.10000000000E+01 0.  0.
<mgrwt>
<rscale>  0 0.12499281E+03</rscale>
<asrwt>0</asrwt>
<pdfrwt beam="1">  1        4 0.10493659E-01 0.12499281E+03</pdfrwt>
<pdfrwt beam="2">  1       -4 0.88096048E-02 0.12499281E+03</pdfrwt>
<totfact> 0.10444284E+04</totfact>
</mgrwt>
</event>
<event>
 5    1  0.3516911E-002  0.1249985E+03  0.7818608E-02  0.1235072E+00
         -4   -1    0    0    0  501 -0.00000000000E+00  0.00000000000E+00  0.21011704465E+02  0.21050050464E+02  0.12700000000E+01 0.  1.
          4   -1    0    0  501    0  0.00000000000E+00 -0.00000000000E+00 -0.18569372623E+03  0.18569806908E+03  0.12700000000E+01 0.  1.
         25    2    1    2    0    0  0.00000000000E+00  0.00000000000E+00 -0.16468202176E+03  0.20674811955E+03  0.12499846656E+03 0.  0.
    9000005    1    3    3    0    0 -0.58069467791E+02 -0.19130806174E+02 -0.10372208064E+03  0.12040482070E+03  0.10000000000E+01 0.  0.
    9000005    1    3    3    0    0  0.58069467791E+02  0.19130806174E+02 -0.60959941119E+02  0.86343298846E+02  0.10000000000E+01 0.  0.
<mgrwt>
<rscale>  0 0.12499847E+03</rscale>
<asrwt>0</asrwt>
<pdfrwt beam="2">  1        4 0.28571548E-01 0.12499847E+03</pdfrwt>
<pdfrwt beam="1">  1       -4 0.32358538E-02 0.12499847E+03</pdfrwt>
<totfact> 0.89012777E+03</totfact>
</mgrwt>
</event>
<event>
 5    1  0.3516911E-002  0.1249976E+03  0.7818608E-02  0.1235073E+00
          4   -1    0    0  501    0  0.00000000000E+00  0.00000000000E+00  0.68271018197E+02  0.68282829655E+02  0.12700000000E+01 0. -1.
         -4   -1    0    0    0  501 -0.00000000000E+00 -0.00000000000E+00 -0.57190796032E+02  0.57204895339E+02  0.12700000000E+01 0. -1.
         25    2    1    2    0    0  0.00000000000E+00  0.00000000000E+00  0.11080222165E+02  0.12548772499E+03  0.12499759118E+03 0.  0.
    9000005    1    3    3    0    0 -0.35263081685E+02 -0.26370231183E+02  0.50056123633E+02  0.66674504390E+02  0.10000000000E+01 0.  0.
    9000005    1    3    3    0    0  0.35263081685E+02  0.26370231183E+02 -0.38975901468E+02  0.58813220604E+02  0.10000000000E+01 0.  0.
<mgrwt>
<rscale>  0 0.12499759E+03</rscale>
<asrwt>0</asrwt>
<pdfrwt beam="1">  1        4 0.10505227E-01 0.12499759E+03</pdfrwt>
<pdfrwt beam="2">  1       -4 0.88005772E-02 0.12499759E+03</pdfrwt>
<totfact> 0.10442793E+04</totfact>
</mgrwt>
</event>
<event>
 5    1  0.3516911E-002  0.1249941E+03  0.7818608E-02  0.1235078E+00
          4   -1    0    0  501    0  0.00000000000E+00  0.00000000000E+00  0.65321969077E+02  0.65334313681E+02  0.12700000000E+01 0. -1.
         -4   -1    0    0    0  501 -0.00000000000E+00 -0.00000000000E+00 -0.59769583088E+02  0.59783074214E+02  0.12700000000E+01 0. -1.
         25    2    1    2    0    0  0.00000000000E+00  0.00000000000E+00  0.55523859894E+01  0.12511738789E+03  0.12499412692E+03 0.  0.
    9000005    1    3    3    0    0  0.16675081725E+02  0.51399568398E+02 -0.28638014321E+02  0.61164612697E+02  0.10000000000E+01 0.  0.
    9000005    1    3    3    0    0 -0.16675081725E+02 -0.51399568398E+02  0.34190400311E+02  0.63952775198E+02  0.10000000000E+01 0.  0.
<mgrwt>
<rscale>  0 0.12499413E+03</rscale>
<asrwt>0</asrwt>
<pdfrwt beam="1">  1        4 0.10051521E-01 0.12499413E+03</pdfrwt>
<pdfrwt beam="2">  1       -4 0.91973078E-02 0.12499413E+03</pdfrwt>
<totfact> 0.10451701E+04</totfact>
</mgrwt>
</event>
<event>
 5    1  0.3516911E-002  0.1250050E+03  0.7818608E-02  0.1235061E+00
          4   -1    0    0  501    0  0.00000000000E+00  0.00000000000E+00  0.23722829456E+03  0.23723169400E+03  0.12700000000E+01 0. -1.
         -4   -1    0    0    0  501 -0.00000000000E+00 -0.00000000000E+00 -0.16439524693E+02  0.16488507274E+02  0.12700000000E+01 0. -1.
         25    2    1    2    0    0  0.00000000000E+00  0.00000000000E+00  0.22078876986E+03  0.25372020128E+03  0.12500503845E+03 0.  0.
    9000005    1    3    3    0    0  0.62195021208E+02  0.28224683898E+01  0.12139553375E+03  0.13643336324E+03  0.10000000000E+01 0.  0.
    9000005    1    3    3    0    0 -0.62195021208E+02 -0.28224683898E+01  0.99393236115E+02  0.11728683803E+03  0.10000000000E+01 0.  0.
<mgrwt>
<rscale>  0 0.12500504E+03</rscale>
<asrwt>0</asrwt>
<pdfrwt beam="1">  1        4 0.36500692E-01 0.12500504E+03</pdfrwt>
<pdfrwt beam="2">  1       -4 0.25331869E-02 0.12500504E+03</pdfrwt>
<totfact> 0.81786319E+03</totfact>
</mgrwt>
</event>
<event>
 5    1  0.3516911E-002  0.1249991E+03  0.7818608E-02  0.1235071E+00
         -4   -1    0    0    0  501 -0.00000000000E+00  0.00000000000E+00  0.37807301499E+02  0.37828626021E+02  0.12700000000E+01 0.  1.
          4   -1    0    0  501    0  0.00000000000E+00 -0.00000000000E+00 -0.10326413241E+03  0.10327194169E+03  0.12700000000E+01 0.  1.
         25    2    1    2    0    0  0.00000000000E+00  0.00000000000E+00 -0.65456830907E+02  0.14110056772E+03  0.12499909399E+03 0.  0.
    9000005    1    3    3    0    0  0.18304149400E+02 -0.13859896698E+02  0.32879348775E+02  0.40114712982E+02  0.10000000000E+01 0.  0.
    9000005    1    3    3    0    0 -0.18304149400E+02  0.13859896698E+02 -0.98336179682E+02  0.10098585473E+03  0.10000000000E+01 0.  0.
<mgrwt>
<rscale>  0 0.12499909E+03</rscale>
<asrwt>0</asrwt>
<pdfrwt beam="2">  1        4 0.15889031E-01 0.12499909E+03</pdfrwt>
<pdfrwt beam="1">  1       -4 0.58187490E-02 0.12499909E+03</pdfrwt>
<totfact> 0.10111033E+04</totfact>
</mgrwt>
</event>
<event>
 5    1  0.3516911E-002  0.1249960E+03  0.7818608E-02  0.1235076E+00
          4   -1    0    0  501    0  0.00000000000E+00  0.00000000000E+00  0.89664345034E+03  0.89664434975E+03  0.12700000000E+01 0.  1.
         -4   -1    0    0    0  501 -0.00000000000E+00 -0.00000000000E+00 -0.42627609851E+01  0.44479243716E+01  0.12700000000E+01 0.  1.
         25    2    1    2    0    0  0.00000000000E+00  0.00000000000E+00  0.89238068935E+03  0.90109227412E+03  0.12499596692E+03 0.  0.
    9000005    1    3    3    0    0  0.27797682195E+02  0.55096715186E+02  0.37532254017E+03  0.38036346870E+03  0.10000000000E+01 0.  0.
    9000005    1    3    3    0    0 -0.27797682195E+02 -0.55096715186E+02  0.51705814918E+03  0.52072880542E+03  0.10000000000E+01 0.  0.
<mgrwt>
<rscale>  0 0.12499597E+03</rscale>
<asrwt>0</asrwt>
<pdfrwt beam="1">  1        4 0.13795946E+00 0.12499597E+03</pdfrwt>
<pdfrwt beam="2">  1       -4 0.67012192E-03 0.12499597E+03</pdfrwt>
<totfact> 0.34121130E+03</totfact>
</mgrwt>
</event>
<event>
 5    1  0.3516911E-002  0.1250005E+03  0.7818608E-02  0.1235069E+00
          4   -1    0    0  501    0  0.00000000000E+00  0.00000000000E+00  0.53032049311E+01  0.54531534493E+01  0.12700000000E+01 0.  1.
         -4   -1    0    0    0  501 -0.00000000000E+00 -0.00000000000E+00 -0.72616931656E+03  0.72617042712E+03  0.12700000000E+01 0.  1.
         25    2    1    2    0    0  0.00000000000E+00  0.00000000000E+00 -0.72086611163E+03  0.73162358057E+03  0.12500045096E+03 0.  0.
    9000005    1    3    3    0    0  0.36646218787E+02 -0.27120458993E+02 -0.11026997000E+03  0.11932699163E+03  0.10000000000E+01 0.  0.
    9000005    1    3    3    0    0 -0.36646218787E+02  0.27120458993E+02 -0.61059614163E+03  0.61229658894E+03  0.10000000000E+01 0.  0.
<mgrwt>
<rscale>  0 0.12500045E+03</rscale>
<asrwt>0</asrwt>
<pdfrwt beam="1">  1        4 0.82749819E-03 0.12500045E+03</pdfrwt>
<pdfrwt beam="2">  1       -4 0.11172990E+00 0.12500045E+03</pdfrwt>
<totfact> 0.41468496E+03</totfact>
</mgrwt>
</event>
<event>
 5    1  0.3516911E-002  0.1249935E+03  0.7818608E-02  0.1235079E+00
          4   -1    0    0  501    0  0.00000000000E+00  0.00000000000E+00  0.17838606229E+03  0.17839058304E+03  0.12700000000E+01 0.  1.
         -4   -1    0    0    0  501 -0.00000000000E+00 -0.00000000000E+00 -0.21872238516E+02  0.21909078431E+02  0.12700000000E+01 0.  1.
         25    2    1    2    0    0  0.00000000000E+00  0.00000000000E+00  0.15651382377E+03  0.20029966148E+03  0.12499350925E+03 0.  0.
    9000005    1    3    3    0    0  0.52143819719E+02  0.93606195563E+00  0.23093625465E+02  0.57045330081E+02  0.10000000000E+01 0.  0.
    9000005    1    3    3    0    0 -0.52143819719E+02 -0.93606195563E+00  0.13342019831E+03  0.14325433139E+03  0.10000000000E+01 0.  0.
<mgrwt>
<rscale>  0 0.12499351E+03</rscale>
<asrwt>0</asrwt>
<pdfrwt beam="1">  1        4 0.27447192E-01 0.12499351E+03</pdfrwt>
<pdfrwt beam="2">  1       -4 0.33681413E-02 0.12499351E+03</pdfrwt>
<totfact> 0.90098075E+03</totfact>
</mgrwt>
</event>
<event>
 5    1  0.3516911E-002  0.1250028E+03  0.7818608E-02  0.1235065E+00
          4   -1    0    0  501    0  0.00000000000E+00  0.00000000000E+00  0.11058223199E+03  0.11058952451E+03  0.12700000000E+01 0.  1.
         -4   -1    0    0    0  501 -0.00000000000E+00 -0.00000000000E+00 -0.35306102336E+02  0.35328936613E+02  0.12700000000E+01 0.  1.
         25    2    1    2    0    0  0.00000000000E+00  0.00000000000E+00  0.75276129655E+02  0.14591846113E+03  0.12500280637E+03 0.  0.
    9000005    1    3    3    0    0  0.13563417917E+02  0.32872376049E+02  0.97625964887E+02  0.10390567084E+03  0.10000000000E+01 0.  0.
    9000005    1    3    3    0    0 -0.13563417917E+02 -0.32872376049E+02 -0.22349835232E+02  0.42012790286E+02  0.10000000000E+01 0.  0.
<mgrwt>
<rscale>  0 0.12500281E+03</rscale>
<asrwt>0</asrwt>
<pdfrwt beam="1">  1        4 0.17014968E-01 0.12500281E+03</pdfrwt>
<pdfrwt beam="2">  1       -4 0.54340256E-02 0.12500281E+03</pdfrwt>
<totfact> 0.10011728E+04</totfact>
</mgrwt>
</event>
<event>
 5    1  0.3516911E-002  0.1250006E+03  0.7818608E-02  0.1235068E+00
         -4   -1    0    0    0  501 -0.00000000000E+00  0.00000000000E+00  0.41075206937E+03  0.41075403272E+03  0.12700000000E+01 0.  1.
          4   -1    0    0  501    0  0.00000000000E+00 -0.00000000000E+00 -0.94656879538E+01  0.95505051405E+01  0.12700000000E+01 0.  1.
         25    2    1    2    0    0  0.00000000000E+00  0.00000000000E+00  0.40128638142E+03  0.42030453786E+03  0.12500057853E+03 0.  0.
    9000005    1    3    3    0    0 -0.20667432118E+02 -0.51926459508E+02  0.10662842699E+03  0.12039153372E+03  0.10000000000E+01 0.  0.
    9000005    1    3    3    0    0  0.20667432118E+02  0.51926459508E+02  0.29465795442E+03  0.29991300414E+03  0.10000000000E+01 0.  0.
<mgrwt>
<rscale>  0 0.12500058E+03</rscale>
<asrwt>0</asrwt>
<pdfrwt beam="2">  1        4 0.14629353E-02 0.12500058E+03</pdfrwt>
<pdfrwt beam="1">  1       -4 0.63199292E-01 0.12500058E+03</pdfrwt>
<totfact> 0.62623971E+03</totfact>
</mgrwt>
</event>
<event>
 5    1  0.3516911E-002  0.1249891E+03  0.7818608E-02  0.1235086E+00
          4   -1    0    0  501    0  0.00000000000E+00  0.00000000000E+00  0.10057487489E+02  0.10137354418E+02  0.12700000000E+01 0.  1.
         -4   -1    0    0    0  501 -0.00000000000E+00 -0.00000000000E+00 -0.38670766118E+03  0.38670974660E+03  0.12700000000E+01 0.  1.
         25    2    1    2    0    0  0.00000000000E+00  0.00000000000E+00 -0.37665017369E+03  0.39684710102E+03  0.12498907250E+03 0.  0.
    9000005    1    3    3    0    0 -0.30956548549E+02 -0.36464190173E+02 -0.31598525403E+03  0.31958664839E+03  0.10000000000E+01 0.  0.
    9000005    1    3    3    0    0  0.30956548549E+02  0.36464190173E+02 -0.60664919658E+02  0.77260452628E+02  0.10000000000E+01 0.  0.
<mgrwt>
<rscale>  0 0.12498907E+03</rscale>
<asrwt>0</asrwt>
<pdfrwt beam="1">  1        4 0.15536101E-02 0.12498907E+03</pdfrwt>
<pdfrwt beam="2">  1       -4 0.59499779E-01 0.12498907E+03</pdfrwt>
<totfact> 0.64876253E+03</totfact>
</mgrwt>
</event>
<event>
 5    1  0.3516911E-002  0.1249956E+03  0.7818608E-02  0.1235076E+00
         -4   -1    0    0    0  501 -0.00000000000E+00  0.00000000000E+00  0.16633536418E+04  0.16633541266E+04  0.12700000000E+01 0. -1.
          4   -1    0    0  501    0  0.00000000000E+00 -0.00000000000E+00 -0.21760174862E+01  0.25195142588E+01  0.12700000000E+01 0. -1.
         25    2    1    2    0    0  0.00000000000E+00  0.00000000000E+00  0.16611776243E+04  0.16658736409E+04  0.12499555152E+03 0.  0.
    9000005    1    3    3    0    0 -0.62076946405E+02  0.21596290273E+01  0.92172440283E+03  0.92381550433E+03  0.10000000000E+01 0.  0.
    9000005    1    3    3    0    0  0.62076946405E+02 -0.21596290273E+01  0.73945322149E+03  0.74205813657E+03  0.10000000000E+01 0.  0.
<mgrwt>
<rscale>  0 0.12499555E+03</rscale>
<asrwt>0</asrwt>
<pdfrwt beam="2">  1        4 0.36123169E-03 0.12499555E+03</pdfrwt>
<pdfrwt beam="1">  1       -4 0.25592727E+00 0.12499555E+03</pdfrwt>
<totfact> 0.14886718E+03</totfact>
</mgrwt>
</event>
<event>
 5    1  0.3516911E-002  0.1250021E+03  0.7818608E-02  0.1235066E+00
          4   -1    0    0  501    0  0.00000000000E+00  0.00000000000E+00  0.11692145080E+02  0.11760916485E+02  0.12700000000E+01 0.  1.
         -4   -1    0    0    0  501 -0.00000000000E+00 -0.00000000000E+00 -0.33305313941E+03  0.33305556079E+03  0.12700000000E+01 0.  1.
         25    2    1    2    0    0  0.00000000000E+00  0.00000000000E+00 -0.32136099433E+03  0.34481647728E+03  0.12500205727E+03 0.  0.
    9000005    1    3    3    0    0  0.29338515814E+02  0.46537878076E+02 -0.24245722044E+03  0.24862225635E+03  0.10000000000E+01 0.  0.
    9000005    1    3    3    0    0 -0.29338515814E+02 -0.46537878076E+02 -0.78903773893E+02  0.96194220931E+02  0.10000000000E+01 0.  0.
<mgrwt>
<rscale>  0 0.12500206E+03</rscale>
<asrwt>0</asrwt>
<pdfrwt beam="1">  1        4 0.18042682E-02 0.12500206E+03</pdfrwt>
<pdfrwt beam="2">  1       -4 0.51244414E-01 0.12500206E+03</pdfrwt>
<totfact> 0.70295398E+03</totfact>
</mgrwt>
</event>
<event>
 5    1  0.3516911E-002  0.1249972E+03  0.7818608E-02  0.1235074E+00
         -4   -1    0    0    0  501 -0.00000000000E+00  0.00000000000E+00  0.59696399336E+01  0.61032369229E+01  0.12700000000E+01 0. -1.
          4   -1    0    0  501    0  0.00000000000E+00 -0.00000000000E+00 -0.64694817145E+03  0.64694941799E+03  0.12700000000E+01 0. -1.
         25    2    1    2    0    0  0.00000000000E+00  0.00000000000E+00 -0.64097853151E+03  0.65305265491E+03  0.12499716888E+03 0.  0.
    9000005    1    3    3    0    0 -0.28293297136E+02 -0.32841522409E+02 -0.55565140396E+03  0.55734061307E+03  0.10000000000E+01 0.  0.
    9000005    1    3    3    0    0  0.28293297136E+02  0.32841522409E+02 -0.85327127553E+02  0.95712041841E+02  0.10000000000E+01 0.  0.
<mgrwt>
<rscale>  0 0.12499717E+03</rscale>
<asrwt>0</asrwt>
<pdfrwt beam="2">  1        4 0.99540806E-01 0.12499717E+03</pdfrwt>
<pdfrwt beam="1">  1       -4 0.92877923E-03 0.12499717E+03</pdfrwt>
<totfact> 0.45683970E+03</totfact>
</mgrwt>
</event>
<event>
 5    1  0.3516911E-002  0.1250006E+03  0.7818608E-02  0.1235068E+00
          4   -1    0    0  501    0  0.00000000000E+00  0.00000000000E+00  0.13218211331E+02  0.13279081700E+02  0.12700000000E+01 0. -1.
         -4   -1    0    0    0  501 -0.00000000000E+00 -0.00000000000E+00 -0.29478221167E+03  0.29478494741E+03  0.12700000000E+01 0. -1.
         25    2    1    2    0    0  0.00000000000E+00  0.00000000000E+00 -0.28156400034E+03  0.30806402911E+03  0.12500063897E+03 0.  0.
    9000005    1    3    3    0    0  0.19901701544E+01  0.45833755657E+02 -0.24535917347E+03  0.24961333687E+03  0.10000000000E+01 0.  0.
    9000005    1    3    3    0    0 -0.19901701544E+01 -0.45833755657E+02 -0.36204826871E+02  0.58450692243E+02  0.10000000000E+01 0.  0.
<mgrwt>
<rscale>  0 0.12500064E+03</rscale>
<asrwt>0</asrwt>
<pdfrwt beam="1">  1        4 0.20384640E-02 0.12500064E+03</pdfrwt>
<pdfrwt beam="2">  1       -4 0.45355997E-01 0.12500064E+03</pdfrwt>
<totfact> 0.74597253E+03</totfact>
</mgrwt>
</event>
<event>
 5    1  0.3516911E-002  0.1249964E+03  0.7818608E-02  0.1235075E+00
         -4   -1    0    0    0  501 -0.00000000000E+00  0.00000000000E+00  0.13600723320E+03  0.13601316253E+03  0.12700000000E+01 0.  1.
          4   -1    0    0  501    0  0.00000000000E+00 -0.00000000000E+00 -0.28698648116E+02  0.28726734998E+02  0.12700000000E+01 0.  1.
         25    2    1    2    0    0  0.00000000000E+00  0.00000000000E+00  0.10730858508E+03  0.16473989753E+03  0.12499640557E+03 0.  0.
    9000005    1    3    3    0    0 -0.41881105884E+01  0.45233320690E+02  0.11021034441E+03  0.11920953647E+03  0.10000000000E+01 0.  0.
    9000005    1    3    3    0    0  0.41881105884E+01 -0.45233320690E+02 -0.29017593274E+01  0.45530361059E+02  0.10000000000E+01 0.  0.
<mgrwt>
<rscale>  0 0.12499641E+03</rscale>
<asrwt>0</asrwt>
<pdfrwt beam="2">  1        4 0.44177932E-02 0.12499641E+03</pdfrwt>
<pdfrwt beam="1">  1       -4 0.20926807E-01 0.12499641E+03</pdfrwt>
<totfact> 0.96444461E+03</totfact>
</mgrwt>
</event>
<event>
 5    1  0.3516911E-002  0.1250054E+03  0.7818608E-02  0.1235061E+00
          4   -1    0    0  501    0  0.00000000000E+00  0.00000000000E+00  0.58664788014E+03  0.58664925482E+03  0.12700000000E+01 0. -1.
         -4   -1    0    0    0  501 -0.00000000000E+00 -0.00000000000E+00 -0.65972227606E+01  0.67183515949E+01  0.12700000000E+01 0. -1.
         25    2    1    2    0    0  0.00000000000E+00  0.00000000000E+00  0.58005065738E+03  0.59336760641E+03  0.12500540472E+03 0.  0.
    9000005    1    3    3    0    0 -0.35415814752E+02 -0.40516033631E+02  0.13918971844E+03  0.14923339652E+03  0.10000000000E+01 0.  0.
    9000005    1    3    3    0    0  0.35415814752E+02  0.40516033631E+02  0.44086093894E+03  0.44413420989E+03  0.10000000000E+01 0.  0.
<mgrwt>
<rscale>  0 0.12500540E+03</rscale>
<asrwt>0</asrwt>
<pdfrwt beam="1">  1        4 0.90262923E-01 0.12500540E+03</pdfrwt>
<pdfrwt beam="2">  1       -4 0.10243809E-02 0.12500540E+03</pdfrwt>
<totfact> 0.49283127E+03</totfact>
</mgrwt>
</event>
<event>
 5    1  0.3516911E-002  0.1250036E+03  0.7818608E-02  0.1235064E+00
         -4   -1    0    0    0  501 -0.00000000000E+00  0.00000000000E+00  0.33700829335E+02  0.33724750523E+02  0.12700000000E+01 0.  1.
          4   -1    0    0  501    0  0.00000000000E+00 -0.00000000000E+00 -0.11584774038E+03  0.11585470146E+03  0.12700000000E+01 0.  1.
         25    2    1    2    0    0  0.00000000000E+00  0.00000000000E+00 -0.82146911041E+02  0.14957945198E+03  0.12500358980E+03 0.  0.
    9000005    1    3    3    0    0 -0.22857759364E+02  0.31206912181E+01 -0.11057176868E+03  0.11295721272E+03  0.10000000000E+01 0.  0.
    9000005    1    3    3    0    0  0.22857759364E+02 -0.31206912181E+01  0.28424857638E+02  0.36622239262E+02  0.10000000000E+01 0.  0.
<mgrwt>
<rscale>  0 0.12500359E+03</rscale>
<asrwt>0</asrwt>
<pdfrwt beam="2">  1        4 0.17825105E-01 0.12500359E+03</pdfrwt>
<pdfrwt beam="1">  1       -4 0.51871186E-02 0.12500359E+03</pdfrwt>
<totfact> 0.99379564E+03</totfact>
</mgrwt>
</event>
<event>
 5    1  0.3516911E-002  0.1250004E+03  0.7818608E-02  0.1235069E+00
         -4   -1    0    0    0  501 -0.00000000000E+00  0.00000000000E+00  0.29826257391E+01  0.32417520417E+01  0.12700000000E+01 0. -1.
          4   -1    0    0  501    0  0.00000000000E+00 -0.00000000000E+00 -0.12548932188E+04  0.12548938615E+04  0.12700000000E+01 0. -1.
         25    2    1    2    0    0  0.00000000000E+00  0.00000000000E+00 -0.12519105931E+04  0.12581356135E+04  0.12500035561E+03 0.  0.
    9000005    1    3    3    0    0 -0.37691684805E+01 -0.27291623504E+02 -0.11905172929E+04  0.11908364556E+04  0.10000000000E+01 0.  0.
    9000005    1    3    3    0    0  0.37691684805E+01  0.27291623504E+02 -0.61393300162E+02  0.67299157865E+02  0.10000000000E+01 0.  0.
<mgrwt>
<rscale>  0 0.12500036E+03</rscale>
<asrwt>0</asrwt>
<pdfrwt beam="2">  1        4 0.19308008E+00 0.12500036E+03</pdfrwt>
<pdfrwt beam="1">  1       -4 0.47884872E-03 0.12500036E+03</pdfrwt>
<totfact> 0.23238534E+03</totfact>
</mgrwt>
</event>
<event>
 5    1  0.3516911E-002  0.1250064E+03  0.7818608E-02  0.1235059E+00
         -4   -1    0    0    0  501 -0.00000000000E+00  0.00000000000E+00  0.15187558526E+03  0.15188089510E+03  0.12700000000E+01 0. -1.
          4   -1    0    0  501    0  0.00000000000E+00 -0.00000000000E+00 -0.25701256690E+02  0.25732615403E+02  0.12700000000E+01 0. -1.
         25    2    1    2    0    0  0.00000000000E+00  0.00000000000E+00  0.12617432857E+03  0.17761351050E+03  0.12500639154E+03 0.  0.
    9000005    1    3    3    0    0 -0.99114999577E+01 -0.26752891684E+02 -0.15915558895E+02  0.32684247885E+02  0.10000000000E+01 0.  0.
    9000005    1    3    3    0    0  0.99114999577E+01  0.26752891684E+02  0.14208988746E+03  0.14492926262E+03  0.10000000000E+01 0.  0.
<mgrwt>
<rscale>  0 0.12500639E+03</rscale>
<asrwt>0</asrwt>
<pdfrwt beam="2">  1        4 0.39568602E-02 0.12500639E+03</pdfrwt>
<pdfrwt beam="1">  1       -4 0.23368295E-01 0.12500639E+03</pdfrwt>
<totfact> 0.94034871E+03</totfact>
</mgrwt>
</event>
<event>
 5    1  0.3516911E-002  0.1250018E+03  0.7818608E-02  0.1235066E+00
          4   -1    0    0  501    0  0.00000000000E+00  0.00000000000E+00  0.59518252460E+02  0.59531800543E+02  0.12700000000E+01 0.  1.
         -4   -1    0    0    0  501 -0.00000000000E+00 -0.00000000000E+00 -0.65605904628E+02  0.65618195816E+02  0.12700000000E+01 0.  1.
         25    2    1    2    0    0  0.00000000000E+00  0.00000000000E+00 -0.60876521679E+01  0.12514999636E+03  0.12500184831E+03 0.  0.
    9000005    1    3    3    0    0 -0.49441997209E+01  0.50563669994E+02  0.33389351468E+02  0.60802784686E+02  0.10000000000E+01 0.  0.
    9000005    1    3    3    0    0  0.49441997209E+01 -0.50563669994E+02 -0.39477003635E+02  0.64347211673E+02  0.10000000000E+01 0.  0.
<mgrwt>
<rscale>  0 0.12500185E+03</rscale>
<asrwt>0</asrwt>
<pdfrwt beam="1">  1        4 0.91586419E-02 0.12500185E+03</pdfrwt>
<pdfrwt beam="2">  1       -4 0.10095204E-01 0.12500185E+03</pdfrwt>
<totfact> 0.10449169E+04</totfact>
</mgrwt>
</event>
<event>
 5    1  0.3516911E-002  0.1249963E+03  0.7818608E-02  0.1235075E+00
          4   -1    0    0  501    0  0.00000000000E+00  0.00000000000E+00  0.49051470552E+02  0.49067908691E+02  0.12700000000E+01 0. -1.
         -4   -1    0    0    0  501 -0.00000000000E+00 -0.00000000000E+00 -0.79596208975E+02  0.79606340094E+02  0.12700000000E+01 0. -1.
         25    2    1    2    0    0  0.00000000000E+00  0.00000000000E+00 -0.30544738423E+02  0.12867424879E+03  0.12499632497E+03 0.  0.
    9000005    1    3    3    0    0 -0.57504391436E+02  0.19755643204E+02 -0.42652093090E+00  0.60813011707E+02  0.10000000000E+01 0.  0.
    9000005    1    3    3    0    0  0.57504391436E+02 -0.19755643204E+02 -0.30118217493E+02  0.67861237078E+02  0.10000000000E+01 0.  0.
<mgrwt>
<rscale>  0 0.12499632E+03</rscale>
<asrwt>0</asrwt>
<pdfrwt beam="1">  1        4 0.75484239E-02 0.12499632E+03</pdfrwt>
<pdfrwt beam="2">  1       -4 0.12247614E-01 0.12499632E+03</pdfrwt>
<totfact> 0.10373813E+04</totfact>
</mgrwt>
</event>
<event>
 5    1  0.3516911E-002  0.1249993E+03  0.7818608E-02  0.1235070E+00
         -4   -1    0    0    0  501 -0.00000000000E+00  0.00000000000E+00  0.11452129754E+03  0.11452833925E+03  0.12700000000E+01 0. -1.
          4   -1    0    0  501    0  0.00000000000E+00 -0.00000000000E+00 -0.34089104787E+02  0.34112753703E+02  0.12700000000E+01 0. -1.
         25    2    1    2    0    0  0.00000000000E+00  0.00000000000E+00  0.80432192758E+02  0.14864109295E+03  0.12499934753E+03 0.  0.
    9000005    1    3    3    0    0  0.39437355547E+01 -0.27212901803E+02 -0.26514552107E+02  0.38211471420E+02  0.10000000000E+01 0.  0.
    9000005    1    3    3    0    0 -0.39437355547E+01  0.27212901803E+02  0.10694674486E+03  0.11042962153E+03  0.10000000000E+01 0.  0.
<mgrwt>
<rscale>  0 0.12499935E+03</rscale>
<asrwt>0</asrwt>
<pdfrwt beam="2">  1        4 0.52468385E-02 0.12499935E+03</pdfrwt>
<pdfrwt beam="1">  1       -4 0.17621022E-01 0.12499935E+03</pdfrwt>
<totfact> 0.99576730E+03</totfact>
</mgrwt>
</event>
<event>
 5    1  0.3516911E-002  0.1250011E+03  0.7818608E-02  0.1235068E+00
         -4   -1    0    0    0  501 -0.00000000000E+00  0.00000000000E+00  0.10776449278E+03  0.10777197597E+03  0.12700000000E+01 0.  1.
          4   -1    0    0  501    0  0.00000000000E+00 -0.00000000000E+00 -0.36228770334E+02  0.36251023433E+02  0.12700000000E+01 0.  1.
         25    2    1    2    0    0  0.00000000000E+00  0.00000000000E+00  0.71535722445E+02  0.14402299940E+03  0.12500105908E+03 0.  0.
    9000005    1    3    3    0    0  0.28770394552E+02 -0.36392297498E+01 -0.28012414531E+02  0.40332058758E+02  0.10000000000E+01 0.  0.
    9000005    1    3    3    0    0 -0.28770394552E+02  0.36392297498E+01  0.99548136976E+02  0.10369094064E+03  0.10000000000E+01 0.  0.
<mgrwt>
<rscale>  0 0.12500106E+03</rscale>
<asrwt>0</asrwt>
<pdfrwt beam="2">  1        4 0.55759445E-02 0.12500106E+03</pdfrwt>
<pdfrwt beam="1">  1       -4 0.16581440E-01 0.12500106E+03</pdfrwt>
<totfact> 0.10050637E+04</totfact>
</mgrwt>
</event>
<event>
 5    1  0.3516911E-002  0.1250012E+03  0.7818608E-02  0.1235067E+00
         -4   -1    0    0    0  501 -0.00000000000E+00  0.00000000000E+00  0.60013110687E+02  0.60026547080E+02  0.12700000000E+01 0.  1.
          4   -1    0    0  501    0  0.00000000000E+00 -0.00000000000E+00 -0.65064251991E+02  0.65076645482E+02  0.12700000000E+01 0.  1.
         25    2    1    2    0    0  0.00000000000E+00  0.00000000000E+00 -0.50511413039E+01  0.12510319256E+03  0.12500117904E+03 0.  0.
    9000005    1    3    3    0    0 -0.85439020834E+01 -0.56980205844E+02  0.21692970720E+02  0.61573753333E+02  0.10000000000E+01 0.  0.
    9000005    1    3    3    0    0  0.85439020834E+01  0.56980205844E+02 -0.26744112024E+02  0.63529439229E+02  0.10000000000E+01 0.  0.
<mgrwt>
<rscale>  0 0.12500118E+03</rscale>
<asrwt>0</asrwt>
<pdfrwt beam="2">  1        4 0.10011872E-01 0.12500118E+03</pdfrwt>
<pdfrwt beam="1">  1       -4 0.92347732E-02 0.12500118E+03</pdfrwt>
<totfact> 0.10450343E+04</totfact>
</mgrwt>
</event>
<event>
 5    1  0.3516911E-002  0.1249991E+03  0.7818608E-02  0.1235071E+00
         -4   -1    0    0    0  501 -0.00000000000E+00  0.00000000000E+00  0.79058097559E+01  0.80071672829E+01  0.12700000000E+01 0. -1.
          4   -1    0    0  501    0  0.00000000000E+00 -0.00000000000E+00 -0.49084259791E+03  0.49084424090E+03  0.12700000000E+01 0. -1.
         25    2    1    2    0    0  0.00000000000E+00  0.00000000000E+00 -0.48293678815E+03  0.49885140818E+03  0.12499914436E+03 0.  0.
    9000005    1    3    3    0    0 -0.41405865875E+01  0.13523244970E+02 -0.48439129628E+03  0.48459875209E+03  0.10000000000E+01 0.  0.
    9000005    1    3    3    0    0  0.41405865875E+01 -0.13523244970E+02  0.14545081278E+01  0.14252656093E+02  0.10000000000E+01 0.  0.
<mgrwt>
<rscale>  0 0.12499914E+03</rscale>
<asrwt>0</asrwt>
<pdfrwt beam="2">  1        4 0.75522145E-01 0.12499914E+03</pdfrwt>
<pdfrwt beam="1">  1       -4 0.12242019E-02 0.12499914E+03</pdfrwt>
<totfact> 0.55954656E+03</totfact>
</mgrwt>
</event>
<event>
 5    1  0.3516911E-002  0.1249978E+03  0.7818608E-02  0.1235073E+00
          4   -1    0    0  501    0  0.00000000000E+00  0.00000000000E+00  0.12100316985E+03  0.12100983437E+03  0.12700000000E+01 0. -1.
         -4   -1    0    0    0  501 -0.00000000000E+00 -0.00000000000E+00 -0.32261041775E+02  0.32286029740E+02  0.12700000000E+01 0. -1.
         25    2    1    2    0    0  0.00000000000E+00  0.00000000000E+00  0.88742128078E+02  0.15329586411E+03  0.12499782661E+03 0.  0.
    9000005    1    3    3    0    0  0.33861058706E+01 -0.92931250442E+01 -0.31301028373E+02  0.32841776190E+02  0.10000000000E+01 0.  0.
    9000005    1    3    3    0    0 -0.33861058706E+01  0.92931250442E+01  0.12004315645E+03  0.12045408792E+03  0.10000000000E+01 0.  0.
<mgrwt>
<rscale>  0 0.12499783E+03</rscale>
<asrwt>0</asrwt>
<pdfrwt beam="1">  1        4 0.18618307E-01 0.12499783E+03</pdfrwt>
<pdfrwt beam="2">  1       -4 0.49656719E-02 0.12499783E+03</pdfrwt>
<totfact> 0.98655551E+03</totfact>
</mgrwt>
</event>
<event>
 5    1  0.3516911E-002  0.1250049E+03  0.7818608E-02  0.1235062E+00
         -4   -1    0    0    0  501 -0.00000000000E+00  0.00000000000E+00  0.70474743574E+02  0.70486185752E+02  0.12700000000E+01 0. -1.
          4   -1    0    0  501    0  0.00000000000E+00 -0.00000000000E+00 -0.55408825431E+02  0.55423378060E+02  0.12700000000E+01 0. -1.
         25    2    1    2    0    0  0.00000000000E+00  0.00000000000E+00  0.15065918144E+02  0.12590956381E+03  0.12500494538E+03 0.  0.
    9000005    1    3    3    0    0 -0.23911799236E+02 -0.14726444567E+02 -0.48700413154E+02  0.56226084282E+02  0.10000000000E+01 0.  0.
    9000005    1    3    3    0    0  0.23911799236E+02  0.14726444567E+02  0.63766331298E+02  0.69683479531E+02  0.10000000000E+01 0.  0.
<mgrwt>
<rscale>  0 0.12500495E+03</rscale>
<asrwt>0</asrwt>
<pdfrwt beam="2">  1        4 0.85264343E-02 0.12500495E+03</pdfrwt>
<pdfrwt beam="1">  1       -4 0.10844268E-01 0.12500495E+03</pdfrwt>
<totfact> 0.10431776E+04</totfact>
</mgrwt>
</event>
<event>
 5    1  0.3516911E-002  0.1250008E+03  0.7818608E-02  0.1235068E+00
         -4   -1    0    0    0  501 -0.00000000000E+00  0.00000000000E+00  0.27591315542E+02  0.27620528477E+02  0.12700000000E+01 0.  1.
          4   -1    0    0  501    0  0.00000000000E+00 -0.00000000000E+00 -0.14147017068E+03  0.14147587106E+03  0.12700000000E+01 0.  1.
         25    2    1    2    0    0  0.00000000000E+00  0.00000000000E+00 -0.11387885514E+03  0.16909639954E+03  0.12500079475E+03 0.  0.
    9000005    1    3    3    0    0  0.28735500656E+02 -0.52001611798E+02 -0.83149636420E+02  0.10219960208E+03  0.10000000000E+01 0.  0.
    9000005    1    3    3    0    0 -0.28735500656E+02  0.52001611798E+02 -0.30729218716E+02  0.66896797461E+02  0.10000000000E+01 0.  0.
<mgrwt>
<rscale>  0 0.12500079E+03</rscale>
<asrwt>0</asrwt>
<pdfrwt beam="2">  1        4 0.21767327E-01 0.12500079E+03</pdfrwt>
<pdfrwt beam="1">  1       -4 0.42475035E-02 0.12500079E+03</pdfrwt>
<totfact> 0.95615468E+03</totfact>
</mgrwt>
</event>
<event>
 5    1  0.3516911E-002  0.1249921E+03  0.7818608E-02  0.1235082E+00
          4   -1    0    0  501    0  0.00000000000E+00  0.00000000000E+00  0.13557717117E+03  0.13558311931E+03  0.12700000000E+01 0.  1.
         -4   -1    0    0    0  501 -0.00000000000E+00 -0.00000000000E+00 -0.28787803615E+02  0.28815803598E+02  0.12700000000E+01 0.  1.
         25    2    1    2    0    0  0.00000000000E+00  0.00000000000E+00  0.10678936755E+03  0.16439892291E+03  0.12499214708E+03 0.  0.
    9000005    1    3    3    0    0  0.34936988051E+02  0.41340411314E+02  0.12322391833E+02  0.55519943103E+02  0.10000000000E+01 0.  0.
    9000005    1    3    3    0    0 -0.34936988051E+02 -0.41340411314E+02  0.94466975717E+02  0.10887897980E+03  0.10000000000E+01 0.  0.
<mgrwt>
<rscale>  0 0.12499215E+03</rscale>
<asrwt>0</asrwt>
<pdfrwt beam="1">  1        4 0.20860638E-01 0.12499215E+03</pdfrwt>
<pdfrwt beam="2">  1       -4 0.44315043E-02 0.12499215E+03</pdfrwt>
<totfact> 0.96518375E+03</totfact>
</mgrwt>
</event>
<event>
 5    1  0.3516911E-002  0.1249998E+03  0.7818608E-02  0.1235070E+00
         -4   -1    0    0    0  501 -0.00000000000E+00  0.00000000000E+00  0.61067595891E+03  0.61067727949E+03  0.12700000000E+01 0. -1.
          4   -1    0    0  501    0  0.00000000000E+00 -0.00000000000E+00 -0.63322030702E+01  0.64583043999E+01  0.12700000000E+01 0. -1.
         25    2    1    2    0    0  0.00000000000E+00  0.00000000000E+00  0.60434375584E+03  0.61713558389E+03  0.12499981474E+03 0.  0.
    9000005    1    3    3    0    0  0.17863369344E+02  0.97668129922E+01  0.59386786662E+03  0.59421758103E+03  0.10000000000E+01 0.  0.
    9000005    1    3    3    0    0 -0.17863369344E+02 -0.97668129922E+01  0.10475889218E+02  0.22918002863E+02  0.10000000000E+01 0.  0.
<mgrwt>
<rscale>  0 0.12499981E+03</rscale>
<asrwt>0</asrwt>
<pdfrwt beam="2">  1        4 0.98398658E-03 0.12499981E+03</pdfrwt>
<pdfrwt beam="1">  1       -4 0.93959968E-01 0.12499981E+03</pdfrwt>
<totfact> 0.47803711E+03</totfact>
</mgrwt>
</event>
<event>
 5    1  0.3516911E-002  0.1249998E+03  0.7818608E-02  0.1235070E+00
         -4   -1    0    0    0  501 -0.00000000000E+00  0.00000000000E+00  0.21589989063E+03  0.21590362589E+03  0.12700000000E+01 0. -1.
          4   -1    0    0  501    0  0.00000000000E+00 -0.00000000000E+00 -0.18066642474E+02  0.18111224980E+02  0.12700000000E+01 0. -1.
         25    2    1    2    0    0  0.00000000000E+00  0.00000000000E+00  0.19783324815E+03  0.23401485087E+03  0.12499982541E+03 0.  0.
    9000005    1    3    3    0    0 -0.64700610708E+00  0.12737411631E+02  0.21344668461E+03  0.21382971600E+03  0.10000000000E+01 0.  0.
    9000005    1    3    3    0    0  0.64700610708E+00 -0.12737411631E+02 -0.15613436456E+02  0.20185134875E+02  0.10000000000E+01 0.  0.
<mgrwt>
<rscale>  0 0.12499983E+03</rscale>
<asrwt>0</asrwt>
<pdfrwt beam="2">  1        4 0.27832002E-02 0.12499983E+03</pdfrwt>
<pdfrwt beam="1">  1       -4 0.33219085E-01 0.12499983E+03</pdfrwt>
<totfact> 0.84697230E+03</totfact>
</mgrwt>
</event>
<event>
 5    1  0.3516911E-002  0.1250125E+03  0.7818608E-02  0.1235050E+00
         -4   -1    0    0    0  501 -0.00000000000E+00  0.00000000000E+00  0.22477982010E+02  0.22513830754E+02  0.12700000000E+01 0.  1.
          4   -1    0    0  501    0  0.00000000000E+00 -0.00000000000E+00 -0.17363918748E+03  0.17364383182E+03  0.12700000000E+01 0.  1.
         25    2    1    2    0    0  0.00000000000E+00  0.00000000000E+00 -0.15116120547E+03  0.19615766258E+03  0.12501247357E+03 0.  0.
    9000005    1    3    3    0    0 -0.41268805608E+01  0.51243612867E+02 -0.19814642242E+02  0.55104982079E+02  0.10000000000E+01 0.  0.
    9000005    1    3    3    0    0  0.41268805608E+01 -0.51243612867E+02 -0.13134656323E+03  0.14105268050E+03  0.10000000000E+01 0.  0.
<mgrwt>
<rscale>  0 0.12501247E+03</rscale>
<asrwt>0</asrwt>
<pdfrwt beam="2">  1        4 0.26716835E-01 0.12501247E+03</pdfrwt>
<pdfrwt beam="1">  1       -4 0.34612661E-02 0.12501247E+03</pdfrwt>
<totfact> 0.90761457E+03</totfact>
</mgrwt>
</event>
<event>
 5    1  0.3516911E-002  0.1250122E+03  0.7818608E-02  0.1235050E+00
          4   -1    0    0  501    0  0.00000000000E+00  0.00000000000E+00  0.16423509837E+02  0.16472540040E+02  0.12700000000E+01 0.  1.
         -4   -1    0    0    0  501 -0.00000000000E+00 -0.00000000000E+00 -0.23748601544E+03  0.23748941120E+03  0.12700000000E+01 0.  1.
         25    2    1    2    0    0  0.00000000000E+00  0.00000000000E+00 -0.22106250561E+03  0.25396195124E+03  0.12501216457E+03 0.  0.
    9000005    1    3    3    0    0  0.32994569893E+02  0.17310883006E+02 -0.85973756159E+01  0.38252100339E+02  0.10000000000E+01 0.  0.
    9000005    1    3    3    0    0 -0.32994569893E+02 -0.17310883006E+02 -0.21246512999E+03  0.21570985090E+03  0.10000000000E+01 0.  0.
<mgrwt>
<rscale>  0 0.12501216E+03</rscale>
<asrwt>0</asrwt>
<pdfrwt beam="1">  1        4 0.25307268E-02 0.12501216E+03</pdfrwt>
<pdfrwt beam="2">  1       -4 0.36540340E-01 0.12501216E+03</pdfrwt>
<totfact> 0.81738810E+03</totfact>
</mgrwt>
</event>
<event>
 5    1  0.3516911E-002  0.1250019E+03  0.7818608E-02  0.1235066E+00
         -4   -1    0    0    0  501 -0.00000000000E+00  0.00000000000E+00  0.14489294587E+03  0.14489851160E+03  0.12700000000E+01 0. -1.
          4   -1    0    0  501    0  0.00000000000E+00 -0.00000000000E+00 -0.26939323740E+02  0.26969242918E+02  0.12700000000E+01 0. -1.
         25    2    1    2    0    0  0.00000000000E+00  0.00000000000E+00  0.11795362213E+03  0.17186775452E+03  0.12500187226E+03 0.  0.
    9000005    1    3    3    0    0 -0.98079054120E+01  0.60389952394E+02  0.41464734083E+02  0.73915259124E+02  0.10000000000E+01 0.  0.
    9000005    1    3    3    0    0  0.98079054120E+01 -0.60389952394E+02  0.76488888051E+02  0.97952495394E+02  0.10000000000E+01 0.  0.
<mgrwt>
<rscale>  0 0.12500187E+03</rscale>
<asrwt>0</asrwt>
<pdfrwt beam="2">  1        4 0.41472410E-02 0.12500187E+03</pdfrwt>
<pdfrwt beam="1">  1       -4 0.22293952E-01 0.12500187E+03</pdfrwt>
<totfact> 0.95097659E+03</totfact>
</mgrwt>
</event>
<event>
 5    1  0.3516911E-002  0.1250016E+03  0.7818608E-02  0.1235067E+00
          4   -1    0    0  501    0  0.00000000000E+00  0.00000000000E+00  0.13442697881E+04  0.13442703880E+04  0.12700000000E+01 0. -1.
         -4   -1    0    0    0  501 -0.00000000000E+00 -0.00000000000E+00 -0.27665385014E+01  0.30441148598E+01  0.12700000000E+01 0. -1.
         25    2    1    2    0    0  0.00000000000E+00  0.00000000000E+00  0.13415032496E+04  0.13473145028E+04  0.12500160390E+03 0.  0.
    9000005    1    3    3    0    0  0.46039797529E+02  0.23659452908E+00  0.21529261721E+03  0.22016273518E+03  0.10000000000E+01 0.  0.
    9000005    1    3    3    0    0 -0.46039797529E+02 -0.23659452908E+00  0.11262106323E+04  0.11271517677E+04  0.10000000000E+01 0.  0.
<mgrwt>
<rscale>  0 0.12500160E+03</rscale>
<asrwt>0</asrwt>
<pdfrwt beam="1">  1        4 0.20683155E+00 0.12500160E+03</pdfrwt>
<pdfrwt beam="2">  1       -4 0.44702075E-03 0.12500160E+03</pdfrwt>
<totfact> 0.21137910E+03</totfact>
</mgrwt>
</event>
<event>
 5    1  0.3516911E-002  0.1249966E+03  0.7818608E-02  0.1235075E+00
          4   -1    0    0  501    0  0.00000000000E+00  0.00000000000E+00  0.40561543957E+02  0.40581421220E+02  0.12700000000E+01 0.  1.
         -4   -1    0    0    0  501 -0.00000000000E+00 -0.00000000000E+00 -0.96251339032E+02  0.96259717252E+02  0.12700000000E+01 0.  1.
         25    2    1    2    0    0  0.00000000000E+00  0.00000000000E+00 -0.55689795075E+02  0.13684113847E+03  0.12499657556E+03 0.  0.
    9000005    1    3    3    0    0 -0.11356913397E+02 -0.70082424364E+01  0.38988697717E+02  0.41221517362E+02  0.10000000000E+01 0.  0.
    9000005    1    3    3    0    0  0.11356913397E+02  0.70082424364E+01 -0.94678492791E+02  0.95619621110E+02  0.10000000000E+01 0.  0.
<mgrwt>
<rscale>  0 0.12499658E+03</rscale>
<asrwt>0</asrwt>
<pdfrwt beam="1">  1        4 0.62424110E-02 0.12499658E+03</pdfrwt>
<pdfrwt beam="2">  1       -4 0.14810072E-01 0.12499658E+03</pdfrwt>
<totfact> 0.10200196E+04</totfact>
</mgrwt>
</event>
<event>
 5    1  0.3516911E-002  0.1249997E+03  0.7818608E-02  0.1235070E+00
          4   -1    0    0  501    0  0.00000000000E+00  0.00000000000E+00  0.22457137665E+02  0.22493019631E+02  0.12700000000E+01 0. -1.
         -4   -1    0    0    0  501 -0.00000000000E+00 -0.00000000000E+00 -0.17376471045E+03  0.17376935143E+03  0.12700000000E+01 0. -1.
         25    2    1    2    0    0  0.00000000000E+00  0.00000000000E+00 -0.15130757278E+03  0.19626237106E+03  0.12499974686E+03 0.  0.
    9000005    1    3    3    0    0  0.41860362940E+02 -0.43369076403E+02 -0.49755790069E+02  0.78165244316E+02  0.10000000000E+01 0.  0.
    9000005    1    3    3    0    0 -0.41860362940E+02  0.43369076403E+02 -0.10155178272E+03  0.11809712675E+03  0.10000000000E+01 0.  0.
<mgrwt>
<rscale>  0 0.12499975E+03</rscale>
<asrwt>0</asrwt>
<pdfrwt beam="1">  1        4 0.34580615E-02 0.12499975E+03</pdfrwt>
<pdfrwt beam="2">  1       -4 0.26736149E-01 0.12499975E+03</pdfrwt>
<totfact> 0.90769470E+03</totfact>
</mgrwt>
</event>
<event>
 5    1  0.3516911E-002  0.1249996E+03  0.7818608E-02  0.1235070E+00
         -4   -1    0    0    0  501 -0.00000000000E+00  0.00000000000E+00  0.11026505826E+02  0.11099402270E+02  0.12700000000E+01 0.  1.
          4   -1    0    0  501    0  0.00000000000E+00 -0.00000000000E+00 -0.35301669010E+03  0.35301897455E+03  0.12700000000E+01 0.  1.
         25    2    1    2    0    0  0.00000000000E+00  0.00000000000E+00 -0.34199018428E+03  0.36411837682E+03  0.12499962478E+03 0.  0.
    9000005    1    3    3    0    0  0.35121675189E+02 -0.48503075961E+02 -0.11895612579E+03  0.13318273277E+03  0.10000000000E+01 0.  0.
    9000005    1    3    3    0    0 -0.35121675189E+02  0.48503075961E+02 -0.22303405849E+03  0.23093564404E+03  0.10000000000E+01 0.  0.
<mgrwt>
<rscale>  0 0.12499962E+03</rscale>
<asrwt>0</asrwt>
<pdfrwt beam="2">  1        4 0.54316035E-01 0.12499962E+03</pdfrwt>
<pdfrwt beam="1">  1       -4 0.17021689E-02 0.12499962E+03</pdfrwt>
<totfact> 0.68199356E+03</totfact>
</mgrwt>
</event>
<event>
 5    1  0.3516911E-002  0.1250002E+03  0.7818608E-02  0.1235069E+00
         -4   -1    0    0    0  501 -0.00000000000E+00  0.00000000000E+00  0.15406231805E+02  0.15458488879E+02  0.12700000000E+01 0. -1.
          4   -1    0    0  501    0  0.00000000000E+00 -0.00000000000E+00 -0.25306774646E+03  0.25307093313E+03  0.12700000000E+01 0. -1.
         25    2    1    2    0    0  0.00000000000E+00  0.00000000000E+00 -0.23766151465E+03  0.26852942201E+03  0.12500021976E+03 0.  0.
    9000005    1    3    3    0    0  0.60150655017E+02  0.16033418120E+02 -0.10704639224E+03  0.12383497845E+03  0.10000000000E+01 0.  0.
    9000005    1    3    3    0    0 -0.60150655017E+02 -0.16033418120E+02 -0.13061512241E+03  0.14469444356E+03  0.10000000000E+01 0.  0.
<mgrwt>
<rscale>  0 0.12500022E+03</rscale>
<asrwt>0</asrwt>
<pdfrwt beam="2">  1        4 0.38937761E-01 0.12500022E+03</pdfrwt>
<pdfrwt beam="1">  1       -4 0.23744546E-02 0.12500022E+03</pdfrwt>
<totfact> 0.79723392E+03</totfact>
</mgrwt>
</event>
<event>
 5    1  0.3516911E-002  0.1250002E+03  0.7818608E-02  0.1235069E+00
         -4   -1    0    0    0  501 -0.00000000000E+00  0.00000000000E+00  0.85942530844E+01  0.86875822919E+01  0.12700000000E+01 0. -1.
          4   -1    0    0  501    0  0.00000000000E+00 -0.00000000000E+00 -0.45197130266E+03  0.45197308695E+03  0.12700000000E+01 0. -1.
         25    2    1    2    0    0  0.00000000000E+00  0.00000000000E+00 -0.44337704957E+03  0.46066066924E+03  0.12500017639E+03 0.  0.
    9000005    1    3    3    0    0  0.33853737630E+02  0.38334296964E+02 -0.89342979679E+02  0.10295028846E+03  0.10000000000E+01 0.  0.
    9000005    1    3    3    0    0 -0.33853737630E+02 -0.38334296964E+02 -0.35403406990E+03  0.35771038079E+03  0.10000000000E+01 0.  0.
<mgrwt>
<rscale>  0 0.12500018E+03</rscale>
<asrwt>0</asrwt>
<pdfrwt beam="2">  1        4 0.69541344E-01 0.12500018E+03</pdfrwt>
<pdfrwt beam="1">  1       -4 0.13295096E-02 0.12500018E+03</pdfrwt>
<totfact> 0.59051040E+03</totfact>
</mgrwt>
</event>
<event>
 5    1  0.3516911E-002  0.1249981E+03  0.7818608E-02  0.1235072E+00
         -4   -1    0    0    0  501 -0.00000000000E+00  0.00000000000E+00  0.33443679813E+03  0.33443920949E+03  0.12700000000E+01 0.  1.
          4   -1    0    0  501    0  0.00000000000E+00 -0.00000000000E+00 -0.11642737208E+02  0.11711798738E+02  0.12700000000E+01 0.  1.
         25    2    1    2    0    0  0.00000000000E+00  0.00000000000E+00  0.32279406093E+03  0.34615100823E+03  0.12499805890E+03 0.  0.
    9000005    1    3    3    0    0  0.19896278076E+02  0.48595333494E+02  0.25521541348E+03  0.26056338115E+03  0.10000000000E+01 0.  0.
    9000005    1    3    3    0    0 -0.19896278076E+02 -0.48595333494E+02  0.67578647448E+02  0.85587627082E+02  0.10000000000E+01 0.  0.
<mgrwt>
<rscale>  0 0.12499806E+03</rscale>
<asrwt>0</asrwt>
<pdfrwt beam="2">  1        4 0.17966884E-02 0.12499806E+03</pdfrwt>
<pdfrwt beam="1">  1       -4 0.51457309E-01 0.12499806E+03</pdfrwt>
<totfact> 0.70153093E+03</totfact>
</mgrwt>
</event>
<event>
 5    1  0.3516911E-002  0.1250061E+03  0.7818608E-02  0.1235060E+00
          4   -1    0    0  501    0  0.00000000000E+00  0.00000000000E+00  0.25839498368E+03  0.25839810466E+03  0.12700000000E+01 0.  1.
         -4   -1    0    0    0  501 -0.00000000000E+00 -0.00000000000E+00 -0.15088938943E+02  0.15142291057E+02  0.12700000000E+01 0.  1.
         25    2    1    2    0    0  0.00000000000E+00  0.00000000000E+00  0.24330604474E+03  0.27354039571E+03  0.12500606658E+03 0.  0.
    9000005    1    3    3    0    0 -0.19320995675E+02  0.51023199586E+02  0.18834739865E+03  0.19609286154E+03  0.10000000000E+01 0.  0.
    9000005    1    3    3    0    0  0.19320995675E+02 -0.51023199586E+02  0.54958646091E+02  0.77447534176E+02  0.10000000000E+01 0.  0.
<mgrwt>
<rscale>  0 0.12500607E+03</rscale>
<asrwt>0</asrwt>
<pdfrwt beam="1">  1        4 0.39757415E-01 0.12500607E+03</pdfrwt>
<pdfrwt beam="2">  1       -4 0.23257195E-02 0.12500607E+03</pdfrwt>
<totfact> 0.79031811E+03</totfact>
</mgrwt>
</event>
<event>
 5    1  0.3516911E-002  0.1250327E+03  0.7818608E-02  0.1235018E+00
          4   -1    0    0  501    0  0.00000000000E+00  0.00000000000E+00  0.57654860994E+03  0.57655000869E+03  0.12700000000E+01 0.  1.
         -4   -1    0    0    0  501 -0.00000000000E+00 -0.00000000000E+00 -0.67178725403E+01  0.68368641545E+01  0.12700000000E+01 0.  1.
         25    2    1    2    0    0  0.00000000000E+00  0.00000000000E+00  0.56983073740E+03  0.58338687284E+03  0.12503269223E+03 0.  0.
    9000005    1    3    3    0    0 -0.74486998815E-01  0.29169962297E+01  0.57625353707E+03  0.57626179242E+03  0.10000000000E+01 0.  0.
    9000005    1    3    3    0    0  0.74486998815E-01 -0.29169962297E+01 -0.64227996777E+01  0.71250804218E+01  0.10000000000E+01 0.  0.
<mgrwt>
<rscale>  0 0.12503269E+03</rscale>
<asrwt>0</asrwt>
<pdfrwt beam="1">  1        4 0.88709021E-01 0.12503269E+03</pdfrwt>
<pdfrwt beam="2">  1       -4 0.10427800E-02 0.12503269E+03</pdfrwt>
<totfact> 0.49897574E+03</totfact>
</mgrwt>
</event>
<event>
 5    1  0.3516911E-002  0.1250010E+03  0.7818608E-02  0.1235068E+00
          4   -1    0    0  501    0  0.00000000000E+00  0.00000000000E+00  0.27041655383E+02  0.27071461465E+02  0.12700000000E+01 0. -1.
         -4   -1    0    0    0  501 -0.00000000000E+00 -0.00000000000E+00 -0.14434326077E+03  0.14434884769E+03  0.12700000000E+01 0. -1.
         25    2    1    2    0    0  0.00000000000E+00  0.00000000000E+00 -0.11730160539E+03  0.17142030916E+03  0.12500102306E+03 0.  0.
    9000005    1    3    3    0    0  0.28803043501E+02  0.14744887841E+02 -0.13196728452E+03  0.13588006188E+03  0.10000000000E+01 0.  0.
    9000005    1    3    3    0    0 -0.28803043501E+02 -0.14744887841E+02  0.14665679131E+02  0.35540247280E+02  0.10000000000E+01 0.  0.
<mgrwt>
<rscale>  0 0.12500102E+03</rscale>
<asrwt>0</asrwt>
<pdfrwt beam="1">  1        4 0.41629773E-02 0.12500102E+03</pdfrwt>
<pdfrwt beam="2">  1       -4 0.22209378E-01 0.12500102E+03</pdfrwt>
<totfact> 0.95182386E+03</totfact>
</mgrwt>
</event>
<event>
 5    1  0.3516911E-002  0.1249996E+03  0.7818608E-02  0.1235070E+00
          4   -1    0    0  501    0  0.00000000000E+00  0.00000000000E+00  0.32219807973E+02  0.32244827892E+02  0.12700000000E+01 0.  1.
         -4   -1    0    0    0  501 -0.00000000000E+00 -0.00000000000E+00 -0.12116137301E+03  0.12116802883E+03  0.12700000000E+01 0.  1.
         25    2    1    2    0    0  0.00000000000E+00  0.00000000000E+00 -0.88941565037E+02  0.15341285672E+03  0.12499961046E+03 0.  0.
    9000005    1    3    3    0    0 -0.48113692743E+02 -0.26440670462E+02 -0.78322519436E+01  0.55465130076E+02  0.10000000000E+01 0.  0.
    9000005    1    3    3    0    0  0.48113692743E+02  0.26440670462E+02 -0.81109313094E+02  0.97947726642E+02  0.10000000000E+01 0.  0.
<mgrwt>
<rscale>  0 0.12499961E+03</rscale>
<asrwt>0</asrwt>
<pdfrwt beam="1">  1        4 0.49593302E-02 0.12499961E+03</pdfrwt>
<pdfrwt beam="2">  1       -4 0.18642648E-01 0.12499961E+03</pdfrwt>
<totfact> 0.98628559E+03</totfact>
</mgrwt>
</event>
<event>
 5    1  0.3516911E-002  0.1250005E+03  0.7818608E-02  0.1235069E+00
          4   -1    0    0  501    0  0.00000000000E+00  0.00000000000E+00  0.17906132197E+02  0.17951113343E+02  0.12700000000E+01 0. -1.
         -4   -1    0    0    0  501 -0.00000000000E+00 -0.00000000000E+00 -0.21783266401E+03  0.21783636614E+03  0.12700000000E+01 0. -1.
         25    2    1    2    0    0  0.00000000000E+00  0.00000000000E+00 -0.19992653182E+03  0.23578747948E+03  0.12500046942E+03 0.  0.
    9000005    1    3    3    0    0  0.29570267722E+02  0.52770100378E+02 -0.12956034199E+03  0.14298939276E+03  0.10000000000E+01 0.  0.
    9000005    1    3    3    0    0 -0.29570267722E+02 -0.52770100378E+02 -0.70366189829E+02  0.92798086716E+02  0.10000000000E+01 0.  0.
<mgrwt>
<rscale>  0 0.12500047E+03</rscale>
<asrwt>0</asrwt>
<pdfrwt beam="1">  1        4 0.27585346E-02 0.12500047E+03</pdfrwt>
<pdfrwt beam="2">  1       -4 0.33516461E-01 0.12500047E+03</pdfrwt>
<totfact> 0.84427891E+03</totfact>
</mgrwt>
</event>
<event>
 5    1  0.3516911E-002  0.1249995E+03  0.7818608E-02  0.1235070E+00
         -4   -1    0    0    0  501 -0.00000000000E+00  0.00000000000E+00  0.21882376918E+02  0.21919199793E+02  0.12700000000E+01 0. -1.
          4   -1    0    0  501    0  0.00000000000E+00 -0.00000000000E+00 -0.17832057274E+03  0.17832509515E+03  0.12700000000E+01 0. -1.
         25    2    1    2    0    0  0.00000000000E+00  0.00000000000E+00 -0.15643819582E+03  0.20024429495E+03  0.12499947419E+03 0.  0.
    9000005    1    3    3    0    0  0.50343518532E+02  0.24968916929E+02 -0.34426612687E+02  0.65909850037E+02  0.10000000000E+01 0.  0.
    9000005    1    3    3    0    0 -0.50343518532E+02 -0.24968916929E+02 -0.12201158313E+03  0.13433444491E+03  0.10000000000E+01 0.  0.
<mgrwt>
<rscale>  0 0.12499947E+03</rscale>
<asrwt>0</asrwt>
<pdfrwt beam="2">  1        4 0.27437114E-01 0.12499947E+03</pdfrwt>
<pdfrwt beam="1">  1       -4 0.33697001E-02 0.12499947E+03</pdfrwt>
<totfact> 0.90095381E+03</totfact>
</mgrwt>
</event>
<event>
 5    1  0.3516911E-002  0.1250004E+03  0.7818608E-02  0.1235069E+00
         -4   -1    0    0    0  501 -0.00000000000E+00  0.00000000000E+00  0.36881907505E+02  0.36903766762E+02  0.12700000000E+01 0.  1.
          4   -1    0    0  501    0  0.00000000000E+00 -0.00000000000E+00 -0.10585595329E+03  0.10586357139E+03  0.12700000000E+01 0.  1.
         25    2    1    2    0    0  0.00000000000E+00  0.00000000000E+00 -0.68974045790E+02  0.14276733815E+03  0.12500037540E+03 0.  0.
    9000005    1    3    3    0    0  0.57688980286E+02 -0.96878946017E+01 -0.59598412131E+02  0.83515534344E+02  0.10000000000E+01 0.  0.
    9000005    1    3    3    0    0 -0.57688980286E+02  0.96878946017E+01 -0.93756336590E+01  0.59251803810E+02  0.10000000000E+01 0.  0.
<mgrwt>
<rscale>  0 0.12500038E+03</rscale>
<asrwt>0</asrwt>
<pdfrwt beam="2">  1        4 0.16287799E-01 0.12500038E+03</pdfrwt>
<pdfrwt beam="1">  1       -4 0.56764072E-02 0.12500038E+03</pdfrwt>
<totfact> 0.10076465E+04</totfact>
</mgrwt>
</event>
<event>
 5    1  0.3516911E-002  0.1249965E+03  0.7818608E-02  0.1235075E+00
          4   -1    0    0  501    0  0.00000000000E+00  0.00000000000E+00  0.30479794047E+03  0.30480058631E+03  0.12700000000E+01 0. -1.
         -4   -1    0    0    0  501 -0.00000000000E+00 -0.00000000000E+00 -0.12780985811E+02  0.12843928461E+02  0.12700000000E+01 0. -1.
         25    2    1    2    0    0  0.00000000000E+00  0.00000000000E+00  0.29201695466E+03  0.31764451477E+03  0.12499654377E+03 0.  0.
    9000005    1    3    3    0    0 -0.58340797323E+02  0.15025259096E+01  0.89234512652E+02  0.10662881630E+03  0.10000000000E+01 0.  0.
    9000005    1    3    3    0    0  0.58340797323E+02 -0.15025259096E+01  0.20278244201E+03  0.21101569848E+03  0.10000000000E+01 0.  0.
<mgrwt>
<rscale>  0 0.12499654E+03</rscale>
<asrwt>0</asrwt>
<pdfrwt beam="1">  1        4 0.46897032E-01 0.12499654E+03</pdfrwt>
<pdfrwt beam="2">  1       -4 0.19713509E-02 0.12499654E+03</pdfrwt>
<totfact> 0.73442786E+03</totfact>
</mgrwt>
</event>
<event>
 5    1  0.3516911E-002  0.1249953E+03  0.7818608E-02  0.1235077E+00
         -4   -1    0    0    0  501 -0.00000000000E+00  0.00000000000E+00  0.57685906463E+02  0.57699884787E+02  0.12700000000E+01 0.  1.
          4   -1    0    0  501    0  0.00000000000E+00 -0.00000000000E+00 -0.67682610757E+02  0.67694524881E+02  0.12700000000E+01 0.  1.
         25    2    1    2    0    0  0.00000000000E+00  0.00000000000E+00 -0.99967042936E+01  0.12539440967E+03  0.12499529543E+03 0.  0.
    9000005    1    3    3    0    0  0.40750687980E+02  0.86084334190E+01  0.41736149572E+02  0.58971432727E+02  0.10000000000E+01 0.  0.
    9000005    1    3    3    0    0 -0.40750687980E+02 -0.86084334190E+01 -0.51732853866E+02  0.66422976942E+02  0.10000000000E+01 0.  0.
<mgrwt>
<rscale>  0 0.12499530E+03</rscale>
<asrwt>0</asrwt>
<pdfrwt beam="2">  1        4 0.10414701E-01 0.12499530E+03</pdfrwt>
<pdfrwt beam="1">  1       -4 0.88767465E-02 0.12499530E+03</pdfrwt>
<totfact> 0.10445399E+04</totfact>
</mgrwt>
</event>
<event>
 5    1  0.3516911E-002  0.1249959E+03  0.7818608E-02  0.1235076E+00
          4   -1    0    0  501    0  0.00000000000E+00  0.00000000000E+00  0.77884552721E+03  0.77884656265E+03  0.12700000000E+01 0.  1.
         -4   -1    0    0    0  501 -0.00000000000E+00 -0.00000000000E+00 -0.49336506664E+01  0.50944880899E+01  0.12700000000E+01 0.  1.
         25    2    1    2    0    0  0.00000000000E+00  0.00000000000E+00  0.77391187654E+03  0.78394105074E+03  0.12499591347E+03 0.  0.
    9000005    1    3    3    0    0  0.49843024407E+02  0.78362122639E+01  0.15572866032E+03  0.16370140179E+03  0.10000000000E+01 0.  0.
    9000005    1    3    3    0    0 -0.49843024407E+02 -0.78362122639E+01  0.61818321623E+03  0.62023964895E+03  0.10000000000E+01 0.  0.
<mgrwt>
<rscale>  0 0.12499591E+03</rscale>
<asrwt>0</asrwt>
<pdfrwt beam="1">  1        4 0.11983478E+00 0.12499591E+03</pdfrwt>
<pdfrwt beam="2">  1       -4 0.77147530E-03 0.12499591E+03</pdfrwt>
<totfact> 0.38995270E+03</totfact>
</mgrwt>
</event>
<event>
 5    1  0.3516911E-002  0.1250012E+03  0.7818608E-02  0.1235067E+00
         -4   -1    0    0    0  501 -0.00000000000E+00  0.00000000000E+00  0.28305438193E+03  0.28305723101E+03  0.12700000000E+01 0.  1.
          4   -1    0    0  501    0  0.00000000000E+00 -0.00000000000E+00 -0.13768467137E+02  0.13826915321E+02  0.12700000000E+01 0.  1.
         25    2    1    2    0    0  0.00000000000E+00  0.00000000000E+00  0.26928591479E+03  0.29688414633E+03  0.12500116975E+03 0.  0.
    9000005    1    3    3    0    0 -0.22246283509E+02  0.54379241724E+02  0.84074779000E+02  0.10257469242E+03  0.10000000000E+01 0.  0.
    9000005    1    3    3    0    0  0.22246283509E+02 -0.54379241724E+02  0.18521113579E+03  0.19430945391E+03  0.10000000000E+01 0.  0.
<mgrwt>
<rscale>  0 0.12500117E+03</rscale>
<asrwt>0</asrwt>
<pdfrwt beam="2">  1        4 0.21229409E-02 0.12500117E+03</pdfrwt>
<pdfrwt beam="1">  1       -4 0.43551544E-01 0.12500117E+03</pdfrwt>
<totfact> 0.75989380E+03</totfact>
</mgrwt>
</event>
<event>
 5    1  0.3516911E-002  0.1250001E+03  0.7818608E-02  0.1235069E+00
          4   -1    0    0  501    0  0.00000000000E+00  0.00000000000E+00  0.20044938000E+02  0.20085129809E+02  0.12700000000E+01 0.  1.
         -4   -1    0    0    0  501 -0.00000000000E+00 -0.00000000000E+00 -0.19463765989E+03  0.19464180318E+03  0.12700000000E+01 0.  1.
         25    2    1    2    0    0  0.00000000000E+00  0.00000000000E+00 -0.17459272189E+03  0.21472693299E+03  0.12500014887E+03 0.  0.
    9000005    1    3    3    0    0 -0.29229824063E+02 -0.30936735208E+02 -0.16590007747E+03  0.17127550877E+03  0.10000000000E+01 0.  0.
    9000005    1    3    3    0    0  0.29229824063E+02  0.30936735208E+02 -0.86926444193E+01  0.43451424224E+02  0.10000000000E+01 0.  0.
<mgrwt>
<rscale>  0 0.12500015E+03</rscale>
<asrwt>0</asrwt>
<pdfrwt beam="1">  1        4 0.30872471E-02 0.12500015E+03</pdfrwt>
<pdfrwt beam="2">  1       -4 0.29947664E-01 0.12500015E+03</pdfrwt>
<totfact> 0.87709392E+03</totfact>
</mgrwt>
</event>
<event>
 5    1  0.3516911E-002  0.1250006E+03  0.7818608E-02  0.1235068E+00
         -4   -1    0    0    0  501 -0.00000000000E+00  0.00000000000E+00  0.10672161137E+04  0.10672168693E+04  0.12700000000E+01 0. -1.
          4   -1    0    0  501    0  0.00000000000E+00 -0.00000000000E+00 -0.35493191138E+01  0.37696904610E+01  0.12700000000E+01 0. -1.
         25    2    1    2    0    0  0.00000000000E+00  0.00000000000E+00  0.10636667946E+04  0.10709865598E+04  0.12500064562E+03 0.  0.
    9000005    1    3    3    0    0  0.54168093387E+02  0.27685362802E+02  0.65439516997E+03  0.65721739184E+03  0.10000000000E+01 0.  0.
    9000005    1    3    3    0    0 -0.54168093387E+02 -0.27685362802E+02  0.40927162459E+03  0.41376916795E+03  0.10000000000E+01 0.  0.
<mgrwt>
<rscale>  0 0.12500065E+03</rscale>
<asrwt>0</asrwt>
<pdfrwt beam="2">  1        4 0.56305852E-03 0.12500065E+03</pdfrwt>
<pdfrwt beam="1">  1       -4 0.16420420E+00 0.12500065E+03</pdfrwt>
<totfact> 0.28348013E+03</totfact>
</mgrwt>
</event>
<event>
 5    1  0.3516911E-002  0.1250197E+03  0.7818608E-02  0.1235039E+00
          4   -1    0    0  501    0  0.00000000000E+00  0.00000000000E+00  0.63201951326E+02  0.63214709929E+02  0.12700000000E+01 0. -1.
         -4   -1    0    0    0  501 -0.00000000000E+00 -0.00000000000E+00 -0.61799770850E+02  0.61812818874E+02  0.12700000000E+01 0. -1.
         25    2    1    2    0    0  0.00000000000E+00  0.00000000000E+00  0.14021804755E+01  0.12502752880E+03  0.12501966585E+03 0.  0.
    9000005    1    3    3    0    0  0.48488442455E+02 -0.36311990898E+02 -0.14687842915E+02  0.62341177917E+02  0.10000000000E+01 0.  0.
    9000005    1    3    3    0    0 -0.48488442455E+02  0.36311990898E+02  0.16090023390E+02  0.62686350886E+02  0.10000000000E+01 0.  0.
<mgrwt>
<rscale>  0 0.12501967E+03</rscale>
<asrwt>0</asrwt>
<pdfrwt beam="1">  1        4 0.97253622E-02 0.12501967E+03</pdfrwt>
<pdfrwt beam="2">  1       -4 0.95096422E-02 0.12501967E+03</pdfrwt>
<totfact> 0.10447620E+04</totfact>
</mgrwt>
</event>
<event>
 5    1  0.3516911E-002  0.1249985E+03  0.7818608E-02  0.1235072E+00
         -4   -1    0    0    0  501 -0.00000000000E+00  0.00000000000E+00  0.47975561835E+01  0.49628061955E+01  0.12700000000E+01 0. -1.
          4   -1    0    0  501    0  0.00000000000E+00 -0.00000000000E+00 -0.80024637769E+03  0.80024738544E+03  0.12700000000E+01 0. -1.
         25    2    1    2    0    0  0.00000000000E+00  0.00000000000E+00 -0.79544882150E+03  0.80521019163E+03  0.12499850031E+03 0.  0.
    9000005    1    3    3    0    0  0.48773521636E+02  0.32094024567E+02 -0.54122873203E+03  0.54436974861E+03  0.10000000000E+01 0.  0.
    9000005    1    3    3    0    0 -0.48773521636E+02 -0.32094024567E+02 -0.25422008947E+03  0.26084044302E+03  0.10000000000E+01 0.  0.
<mgrwt>
<rscale>  0 0.12499850E+03</rscale>
<asrwt>0</asrwt>
<pdfrwt beam="2">  1        4 0.12312751E+00 0.12499850E+03</pdfrwt>
<pdfrwt beam="1">  1       -4 0.75087526E-03 0.12499850E+03</pdfrwt>
<totfact> 0.38034459E+03</totfact>
</mgrwt>
</event>
<event>
 5    1  0.3516911E-002  0.1249981E+03  0.7818608E-02  0.1235072E+00
         -4   -1    0    0    0  501 -0.00000000000E+00  0.00000000000E+00  0.91081421426E+01  0.91962575698E+01  0.12700000000E+01 0.  1.
          4   -1    0    0  501    0  0.00000000000E+00 -0.00000000000E+00 -0.42670762993E+03  0.42670951986E+03  0.12700000000E+01 0.  1.
         25    2    1    2    0    0  0.00000000000E+00  0.00000000000E+00 -0.41759948778E+03  0.43590577743E+03  0.12499805838E+03 0.  0.
    9000005    1    3    3    0    0  0.18869103664E+02 -0.29330317051E+02 -0.27969916492E+02  0.44717186853E+02  0.10000000000E+01 0.  0.
    9000005    1    3    3    0    0 -0.18869103664E+02  0.29330317051E+02 -0.38962957129E+03  0.39118859057E+03  0.10000000000E+01 0.  0.
<mgrwt>
<rscale>  0 0.12499806E+03</rscale>
<asrwt>0</asrwt>
<pdfrwt beam="2">  1        4 0.65654236E-01 0.12499806E+03</pdfrwt>
<pdfrwt beam="1">  1       -4 0.14081765E-02 0.12499806E+03</pdfrwt>
<totfact> 0.61206920E+03</totfact>
</mgrwt>
</event>
<event>
 5    1  0.3516911E-002  0.1249983E+03  0.7818608E-02  0.1235072E+00
         -4   -1    0    0    0  501 -0.00000000000E+00  0.00000000000E+00  0.59613533711E+01  0.60951319932E+01  0.12700000000E+01 0.  1.
          4   -1    0    0  501    0  0.00000000000E+00 -0.00000000000E+00 -0.64783914955E+03  0.64784039438E+03  0.12700000000E+01 0.  1.
         25    2    1    2    0    0  0.00000000000E+00  0.00000000000E+00 -0.64187779618E+03  0.65393552638E+03  0.12499826969E+03 0.  0.
    9000005    1    3    3    0    0  0.19906536583E+02  0.37370951621E+02 -0.80498716336E+02  0.90960989196E+02  0.10000000000E+01 0.  0.
    9000005    1    3    3    0    0 -0.19906536583E+02 -0.37370951621E+02 -0.56137907985E+03  0.56297453718E+03  0.10000000000E+01 0.  0.
<mgrwt>
<rscale>  0 0.12499827E+03</rscale>
<asrwt>0</asrwt>
<pdfrwt beam="2">  1        4 0.99677893E-01 0.12499827E+03</pdfrwt>
<pdfrwt beam="1">  1       -4 0.92751822E-03 0.12499827E+03</pdfrwt>
<totfact> 0.45632442E+03</totfact>
</mgrwt>
</event>
<event>
 5    1  0.3516911E-002  0.1250012E+03  0.7818608E-02  0.1235067E+00
         -4   -1    0    0    0  501 -0.00000000000E+00  0.00000000000E+00  0.37555030282E+03  0.37555245019E+03  0.12700000000E+01 0.  1.
          4   -1    0    0  501    0  0.00000000000E+00 -0.00000000000E+00 -0.10360649568E+02  0.10438197137E+02  0.12700000000E+01 0.  1.
         25    2    1    2    0    0  0.00000000000E+00  0.00000000000E+00  0.36518965325E+03  0.38599064733E+03  0.12500118794E+03 0.  0.
    9000005    1    3    3    0    0  0.38334271402E+02 -0.48002127309E+02  0.21801874673E+03  0.22651025256E+03  0.10000000000E+01 0.  0.
    9000005    1    3    3    0    0 -0.38334271402E+02  0.48002127309E+02  0.14717090652E+03  0.15948039477E+03  0.10000000000E+01 0.  0.
<mgrwt>
<rscale>  0 0.12500119E+03</rscale>
<asrwt>0</asrwt>
<pdfrwt beam="2">  1        4 0.16000767E-02 0.12500119E+03</pdfrwt>
<pdfrwt beam="1">  1       -4 0.57783092E-01 0.12500119E+03</pdfrwt>
<totfact> 0.65936789E+03</totfact>
</mgrwt>
</event>
<event>
 5    1  0.3516911E-002  0.1250000E+03  0.7818608E-02  0.1235069E+00
         -4   -1    0    0    0  501 -0.00000000000E+00  0.00000000000E+00  0.15266707394E+02  0.15319440415E+02  0.12700000000E+01 0.  1.
          4   -1    0    0  501    0  0.00000000000E+00 -0.00000000000E+00 -0.25537174116E+03  0.25537489908E+03  0.12700000000E+01 0.  1.
         25    2    1    2    0    0  0.00000000000E+00  0.00000000000E+00 -0.24010503376E+03  0.27069433950E+03  0.12499999279E+03 0.  0.
    9000005    1    3    3    0    0  0.38777294761E+02  0.52553672753E+01 -0.14539713989E+02  0.41757643097E+02  0.10000000000E+01 0.  0.
    9000005    1    3    3    0    0 -0.38777294761E+02 -0.52553672753E+01 -0.22556531978E+03  0.22893669640E+03  0.10000000000E+01 0.  0.
<mgrwt>
<rscale>  0 0.12499999E+03</rscale>
<asrwt>0</asrwt>
<pdfrwt beam="2">  1        4 0.39292256E-01 0.12499999E+03</pdfrwt>
<pdfrwt beam="1">  1       -4 0.23530237E-02 0.12499999E+03</pdfrwt>
<totfact> 0.79428313E+03</totfact>
</mgrwt>
</event>
<event>
 5    1  0.3516911E-002  0.1250033E+03  0.7818608E-02  0.1235064E+00
          4   -1    0    0  501    0  0.00000000000E+00  0.00000000000E+00  0.78950871794E+02  0.78961085714E+02  0.12700000000E+01 0. -1.
         -4   -1    0    0    0  501 -0.00000000000E+00 -0.00000000000E+00 -0.49458012019E+02  0.49474315082E+02  0.12700000000E+01 0. -1.
         25    2    1    2    0    0  0.00000000000E+00  0.00000000000E+00  0.29492859776E+02  0.12843540080E+03  0.12500329356E+03 0.  0.
    9000005    1    3    3    0    0  0.60699993219E+02  0.89478259183E+01  0.25502579114E+01  0.61417070761E+02  0.10000000000E+01 0.  0.
    9000005    1    3    3    0    0 -0.60699993219E+02 -0.89478259183E+01  0.26942601864E+02  0.67018330035E+02  0.10000000000E+01 0.  0.
<mgrwt>
<rscale>  0 0.12500329E+03</rscale>
<asrwt>0</asrwt>
<pdfrwt beam="1">  1        4 0.12148328E-01 0.12500329E+03</pdfrwt>
<pdfrwt beam="2">  1       -4 0.76109647E-02 0.12500329E+03</pdfrwt>
<totfact> 0.10377324E+04</totfact>
</mgrwt>
</event>
<event>
 5    1  0.3516911E-002  0.1250036E+03  0.7818608E-02  0.1235064E+00
          4   -1    0    0  501    0  0.00000000000E+00  0.00000000000E+00  0.82307901356E+01  0.83281934569E+01  0.12700000000E+01 0.  1.
         -4   -1    0    0    0  501 -0.00000000000E+00 -0.00000000000E+00 -0.47172687153E+03  0.47172858110E+03  0.12700000000E+01 0.  1.
         25    2    1    2    0    0  0.00000000000E+00  0.00000000000E+00 -0.46349608140E+03  0.48005677456E+03  0.12500355726E+03 0.  0.
    9000005    1    3    3    0    0 -0.45432511700E+01 -0.61392735923E+02 -0.27306757788E+03  0.27992250936E+03  0.10000000000E+01 0.  0.
    9000005    1    3    3    0    0  0.45432511700E+01  0.61392735923E+02 -0.19042850352E+03  0.20013426520E+03  0.10000000000E+01 0.  0.
<mgrwt>
<rscale>  0 0.12500356E+03</rscale>
<asrwt>0</asrwt>
<pdfrwt beam="1">  1        4 0.12738998E-02 0.12500356E+03</pdfrwt>
<pdfrwt beam="2">  1       -4 0.72580968E-01 0.12500356E+03</pdfrwt>
<totfact> 0.57441124E+03</totfact>
</mgrwt>
</event>
<event>
 5    1  0.3516911E-002  0.1249996E+03  0.7818608E-02  0.1235070E+00
          4   -1    0    0  501    0  0.00000000000E+00  0.00000000000E+00  0.28330855889E+01  0.31047180152E+01  0.12700000000E+01 0.  1.
         -4   -1    0    0    0  501 -0.00000000000E+00 -0.00000000000E+00 -0.13154421012E+04  0.13154427142E+04  0.12700000000E+01 0.  1.
         25    2    1    2    0    0  0.00000000000E+00  0.00000000000E+00 -0.13126090156E+04  0.13185474323E+04  0.12499961322E+03 0.  0.
    9000005    1    3    3    0    0  0.35809205065E+02  0.39083267666E+02 -0.30718157111E+03  0.31172314416E+03  0.10000000000E+01 0.  0.
    9000005    1    3    3    0    0 -0.35809205065E+02 -0.39083267666E+02 -0.10054274445E+04  0.10068242881E+04  0.10000000000E+01 0.  0.
<mgrwt>
<rscale>  0 0.12499961E+03</rscale>
<asrwt>0</asrwt>
<pdfrwt beam="1">  1        4 0.45680233E-03 0.12499961E+03</pdfrwt>
<pdfrwt beam="2">  1       -4 0.20239618E+00 0.12499961E+03</pdfrwt>
<totfact> 0.21795210E+03</totfact>
</mgrwt>
</event>
<event>
 5    1  0.3516911E-002  0.1249990E+03  0.7818608E-02  0.1235071E+00
          4   -1    0    0  501    0  0.00000000000E+00  0.00000000000E+00  0.35396705804E+02  0.35419481670E+02  0.12700000000E+01 0.  1.
         -4   -1    0    0    0  501 -0.00000000000E+00 -0.00000000000E+00 -0.11029263360E+03  0.11029994527E+03  0.12700000000E+01 0.  1.
         25    2    1    2    0    0  0.00000000000E+00  0.00000000000E+00 -0.74895927796E+02  0.14571942694E+03  0.12499900555E+03 0.  0.
    9000005    1    3    3    0    0  0.25525518769E+02  0.26334005771E+02 -0.96433305800E+02  0.10317661768E+03  0.10000000000E+01 0.  0.
    9000005    1    3    3    0    0 -0.25525518769E+02 -0.26334005771E+02  0.21537378005E+02  0.42542809260E+02  0.10000000000E+01 0.  0.
<mgrwt>
<rscale>  0 0.12499901E+03</rscale>
<asrwt>0</asrwt>
<pdfrwt beam="1">  1        4 0.54479615E-02 0.12499901E+03</pdfrwt>
<pdfrwt beam="2">  1       -4 0.16970412E-01 0.12499901E+03</pdfrwt>
<totfact> 0.10016616E+04</totfact>
</mgrwt>
</event>
<event>
 5    1  0.3516911E-002  0.1249974E+03  0.7818608E-02  0.1235073E+00
          4   -1    0    0  501    0  0.00000000000E+00  0.00000000000E+00  0.13845665591E+03  0.13846248035E+03  0.12700000000E+01 0. -1.
         -4   -1    0    0    0  501 -0.00000000000E+00 -0.00000000000E+00 -0.28190934581E+02  0.28219526795E+02  0.12700000000E+01 0. -1.
         25    2    1    2    0    0  0.00000000000E+00  0.00000000000E+00  0.11026572133E+03  0.16668200715E+03  0.12499744880E+03 0.  0.
    9000005    1    3    3    0    0 -0.36686219657E+02 -0.32046103357E+02  0.10733083828E+03  0.11787171119E+03  0.10000000000E+01 0.  0.
    9000005    1    3    3    0    0  0.36686219657E+02  0.32046103357E+02  0.29348830482E+01  0.48810295958E+02  0.10000000000E+01 0.  0.
<mgrwt>
<rscale>  0 0.12499745E+03</rscale>
<asrwt>0</asrwt>
<pdfrwt beam="1">  1        4 0.21303672E-01 0.12499745E+03</pdfrwt>
<pdfrwt beam="2">  1       -4 0.43397142E-02 0.12499745E+03</pdfrwt>
<totfact> 0.96075297E+03</totfact>
</mgrwt>
</event>
<event>
 5    1  0.3516911E-002  0.1250001E+03  0.7818608E-02  0.1235069E+00
          4   -1    0    0  501    0  0.00000000000E+00  0.00000000000E+00  0.84421977100E+03  0.84422072626E+03  0.12700000000E+01 0.  1.
         -4   -1    0    0    0  501 -0.00000000000E+00 -0.00000000000E+00 -0.45389412681E+01  0.47132672145E+01  0.12700000000E+01 0.  1.
         25    2    1    2    0    0  0.00000000000E+00  0.00000000000E+00  0.83968082973E+03  0.84893399348E+03  0.12500011783E+03 0.  0.
    9000005    1    3    3    0    0  0.34973411659E+02  0.49482432910E+02  0.52364251147E+03  0.52713767699E+03  0.10000000000E+01 0.  0.
    9000005    1    3    3    0    0 -0.34973411659E+02 -0.49482432910E+02  0.31603831827E+03  0.32179631648E+03  0.10000000000E+01 0.  0.
<mgrwt>
<rscale>  0 0.12500012E+03</rscale>
<asrwt>0</asrwt>
<pdfrwt beam="1">  1        4 0.12989354E+00 0.12500012E+03</pdfrwt>
<pdfrwt beam="2">  1       -4 0.71178131E-03 0.12500012E+03</pdfrwt>
<totfact> 0.36170865E+03</totfact>
</mgrwt>
</event>
<event>
 5    1  0.3516911E-002  0.1249989E+03  0.7818608E-02  0.1235071E+00
         -4   -1    0    0    0  501 -0.00000000000E+00  0.00000000000E+00  0.63493016299E+02  0.63505716426E+02  0.12700000000E+01 0.  1.
          4   -1    0    0  501    0  0.00000000000E+00 -0.00000000000E+00 -0.61496002875E+02  0.61509115337E+02  0.12700000000E+01 0.  1.
         25    2    1    2    0    0  0.00000000000E+00  0.00000000000E+00  0.19970134243E+01  0.12501483176E+03  0.12499888039E+03 0.  0.
    9000005    1    3    3    0    0 -0.11708540223E+02  0.29740840973E+02  0.54704265186E+02  0.63365323052E+02  0.10000000000E+01 0.  0.
    9000005    1    3    3    0    0  0.11708540223E+02 -0.29740840973E+02 -0.52707251762E+02  0.61649508711E+02  0.10000000000E+01 0.  0.
<mgrwt>
<rscale>  0 0.12499888E+03</rscale>
<asrwt>0</asrwt>
<pdfrwt beam="2">  1        4 0.94629091E-02 0.12499888E+03</pdfrwt>
<pdfrwt beam="1">  1       -4 0.97701419E-02 0.12499888E+03</pdfrwt>
<totfact> 0.10452805E+04</totfact>
</mgrwt>
</event>
<event>
 5    1  0.3516911E-002  0.1249989E+03  0.7818608E-02  0.1235071E+00
         -4   -1    0    0    0  501 -0.00000000000E+00  0.00000000000E+00  0.38990740334E+01  0.41006924194E+01  0.12700000000E+01 0.  1.
          4   -1    0    0  501    0  0.00000000000E+00 -0.00000000000E+00 -0.97637143268E+03  0.97637225865E+03  0.12700000000E+01 0.  1.
         25    2    1    2    0    0  0.00000000000E+00  0.00000000000E+00 -0.97247235865E+03  0.98047295107E+03  0.12499887775E+03 0.  0.
    9000005    1    3    3    0    0  0.40175392964E+02 -0.47003197564E+02 -0.41528632832E+03  0.41986557047E+03  0.10000000000E+01 0.  0.
    9000005    1    3    3    0    0 -0.40175392964E+02  0.47003197564E+02 -0.55718603033E+03  0.56060738060E+03  0.10000000000E+01 0.  0.
<mgrwt>
<rscale>  0 0.12499888E+03</rscale>
<asrwt>0</asrwt>
<pdfrwt beam="2">  1        4 0.15022637E+00 0.12499888E+03</pdfrwt>
<pdfrwt beam="1">  1       -4 0.61543097E-03 0.12499888E+03</pdfrwt>
<totfact> 0.31258967E+03</totfact>
</mgrwt>
</event>
<event>
 5    1  0.3516911E-002  0.1249952E+03  0.7818608E-02  0.1235077E+00
          4   -1    0    0  501    0  0.00000000000E+00  0.00000000000E+00  0.10032818079E+03  0.10033621858E+03  0.12700000000E+01 0. -1.
         -4   -1    0    0    0  501 -0.00000000000E+00 -0.00000000000E+00 -0.38911788507E+02  0.38932508072E+02  0.12700000000E+01 0. -1.
         25    2    1    2    0    0  0.00000000000E+00  0.00000000000E+00  0.61416392280E+02  0.13926872666E+03  0.12499521984E+03 0.  0.
    9000005    1    3    3    0    0 -0.14993057244E+02 -0.17009627294E+02 -0.34172177227E+02  0.41022638660E+02  0.10000000000E+01 0.  0.
    9000005    1    3    3    0    0  0.14993057244E+02  0.17009627294E+02  0.95588569507E+02  0.98246087996E+02  0.10000000000E+01 0.  0.
<mgrwt>
<rscale>  0 0.12499522E+03</rscale>
<asrwt>0</asrwt>
<pdfrwt beam="1">  1        4 0.15437316E-01 0.12499522E+03</pdfrwt>
<pdfrwt beam="2">  1       -4 0.59886412E-02 0.12499522E+03</pdfrwt>
<totfact> 0.10149857E+04</totfact>
</mgrwt>
</event>
<event>
 4    1  0.3516911E-002  0.1246920E+03  0.7818608E-02  0.1235551E+00
          4   -1    0    0  501    0  0.00000000000E+00  0.00000000000E+00  0.11586346370E+02  0.11655742027E+02  0.12700000000E+01 0.  1.
         -4   -1    0    0    0  501 -0.00000000000E+00 -0.00000000000E+00 -0.33441072706E+03  0.33441313860E+03  0.12700000000E+01 0.  1.
    9000005    1    1    2    0    0 -0.22477903982E+02 -0.20998536226E+02 -0.31189433404E+03  0.31340911011E+03  0.10000000000E+01 0.  0.
    9000005    1    1    2    0    0  0.22477903982E+02  0.20998536226E+02 -0.10930046647E+02  0.32659770526E+02  0.10000000000E+01 0.  0.
<mgrwt>
<rscale>  0 0.12469198E+03</rscale>
<asrwt>0</asrwt>
<pdfrwt beam="1">  1        4 0.17880387E-02 0.12469198E+03</pdfrwt>
<pdfrwt beam="2">  1       -4 0.51453320E-01 0.12469198E+03</pdfrwt>
<totfact> 0.70639716E+03</totfact>
</mgrwt>
</event>
<event>
 5    1  0.3516911E-002  0.1250005E+03  0.7818608E-02  0.1235068E+00
         -4   -1    0    0    0  501 -0.00000000000E+00  0.00000000000E+00  0.59478705654E+02  0.59492262743E+02  0.12700000000E+01 0. -1.
          4   -1    0    0  501    0  0.00000000000E+00 -0.00000000000E+00 -0.65648110077E+02  0.65660393363E+02  0.12700000000E+01 0. -1.
         25    2    1    2    0    0  0.00000000000E+00  0.00000000000E+00 -0.61694044227E+01  0.12515265611E+03  0.12500050312E+03 0.  0.
    9000005    1    3    3    0    0 -0.49946389642E+02  0.10188774198E+02  0.33109383163E+02  0.60792139388E+02  0.10000000000E+01 0.  0.
    9000005    1    3    3    0    0  0.49946389642E+02 -0.10188774198E+02 -0.39278787586E+02  0.64360516718E+02  0.10000000000E+01 0.  0.
<mgrwt>
<rscale>  0 0.12500050E+03</rscale>
<asrwt>0</asrwt>
<pdfrwt beam="2">  1        4 0.10101697E-01 0.12500050E+03</pdfrwt>
<pdfrwt beam="1">  1       -4 0.91525578E-02 0.12500050E+03</pdfrwt>
<totfact> 0.10449429E+04</totfact>
</mgrwt>
</event>
<event>
 5    1  0.3516911E-002  0.1249969E+03  0.7818608E-02  0.1235074E+00
         -4   -1    0    0    0  501 -0.00000000000E+00  0.00000000000E+00  0.14159368081E+03  0.14159937621E+03  0.12700000000E+01 0. -1.
          4   -1    0    0  501    0  0.00000000000E+00 -0.00000000000E+00 -0.27565500404E+02  0.27594740668E+02  0.12700000000E+01 0. -1.
         25    2    1    2    0    0  0.00000000000E+00  0.00000000000E+00  0.11402818040E+03  0.16919411688E+03  0.12499689301E+03 0.  0.
    9000005    1    3    3    0    0 -0.24338449860E+02 -0.67627145188E+01  0.13438149679E+03  0.13673873309E+03  0.10000000000E+01 0.  0.
    9000005    1    3    3    0    0  0.24338449860E+02  0.67627145188E+01 -0.20353316383E+02  0.32455383791E+02  0.10000000000E+01 0.  0.
<mgrwt>
<rscale>  0 0.12499689E+03</rscale>
<asrwt>0</asrwt>
<pdfrwt beam="2">  1        4 0.42435336E-02 0.12499689E+03</pdfrwt>
<pdfrwt beam="1">  1       -4 0.21786331E-01 0.12499689E+03</pdfrwt>
<totfact> 0.95605606E+03</totfact>
</mgrwt>
</event>
<event>
 5    1  0.3516911E-002  0.1249961E+03  0.7818608E-02  0.1235075E+00
         -4   -1    0    0    0  501 -0.00000000000E+00  0.00000000000E+00  0.43249292583E+02  0.43267935113E+02  0.12700000000E+01 0. -1.
          4   -1    0    0  501    0  0.00000000000E+00 -0.00000000000E+00 -0.90271240489E+02  0.90280173678E+02  0.12700000000E+01 0. -1.
         25    2    1    2    0    0  0.00000000000E+00  0.00000000000E+00 -0.47021947906E+02  0.13354810879E+03  0.12499613505E+03 0.  0.
    9000005    1    3    3    0    0  0.52618261331E+02  0.33471660775E+02 -0.27781297930E+02  0.68277624558E+02  0.10000000000E+01 0.  0.
    9000005    1    3    3    0    0 -0.52618261331E+02 -0.33471660775E+02 -0.19240649976E+02  0.65270484233E+02  0.10000000000E+01 0.  0.
<mgrwt>
<rscale>  0 0.12499614E+03</rscale>
<asrwt>0</asrwt>
<pdfrwt beam="2">  1        4 0.13890004E-01 0.12499614E+03</pdfrwt>
<pdfrwt beam="1">  1       -4 0.66558585E-02 0.12499614E+03</pdfrwt>
<totfact> 0.10269660E+04</totfact>
</mgrwt>
</event>
<event>
 5    1  0.3516911E-002  0.1249992E+03  0.7818608E-02  0.1235070E+00
          4   -1    0    0  501    0  0.00000000000E+00  0.00000000000E+00  0.55921318775E+02  0.55935738071E+02  0.12700000000E+01 0.  1.
         -4   -1    0    0    0  501 -0.00000000000E+00 -0.00000000000E+00 -0.69822551504E+02  0.69834100542E+02  0.12700000000E+01 0.  1.
         25    2    1    2    0    0  0.00000000000E+00  0.00000000000E+00 -0.13901232729E+02  0.12576983861E+03  0.12499923213E+03 0.  0.
    9000005    1    3    3    0    0 -0.46264627950E+02  0.18583291409E+02 -0.44858437605E+02  0.67074838377E+02  0.10000000000E+01 0.  0.
    9000005    1    3    3    0    0  0.46264627950E+02 -0.18583291409E+02  0.30957204876E+02  0.58695000236E+02  0.10000000000E+01 0.  0.
<mgrwt>
<rscale>  0 0.12499923E+03</rscale>
<asrwt>0</asrwt>
<pdfrwt beam="1">  1        4 0.86052774E-02 0.12499923E+03</pdfrwt>
<pdfrwt beam="2">  1       -4 0.10743929E-01 0.12499923E+03</pdfrwt>
<totfact> 0.10436189E+04</totfact>
</mgrwt>
</event>
<event>
 5    1  0.3516911E-002  0.1250041E+03  0.7818608E-02  0.1235063E+00
         -4   -1    0    0    0  501 -0.00000000000E+00  0.00000000000E+00  0.22942525693E+02  0.22977649688E+02  0.12700000000E+01 0.  1.
          4   -1    0    0  501    0  0.00000000000E+00 -0.00000000000E+00 -0.17010593378E+03  0.17011067459E+03  0.12700000000E+01 0.  1.
         25    2    1    2    0    0  0.00000000000E+00  0.00000000000E+00 -0.14716340809E+03  0.19308832427E+03  0.12500412909E+03 0.  0.
    9000005    1    3    3    0    0  0.54505576314E+02  0.19893974707E+02 -0.37724395769E+02  0.69215302608E+02  0.10000000000E+01 0.  0.
    9000005    1    3    3    0    0 -0.54505576314E+02 -0.19893974707E+02 -0.10943901232E+03  0.12387302167E+03  0.10000000000E+01 0.  0.
<mgrwt>
<rscale>  0 0.12500413E+03</rscale>
<asrwt>0</asrwt>
<pdfrwt beam="2">  1        4 0.26173209E-01 0.12500413E+03</pdfrwt>
<pdfrwt beam="1">  1       -4 0.35326860E-02 0.12500413E+03</pdfrwt>
<totfact> 0.91304274E+03</totfact>
</mgrwt>
</event>
<event>
 5    1  0.3516911E-002  0.1250086E+03  0.7818608E-02  0.1235056E+00
          4   -1    0    0  501    0  0.00000000000E+00  0.00000000000E+00  0.28699886071E+03  0.28700167064E+03  0.12700000000E+01 0. -1.
         -4   -1    0    0    0  501 -0.00000000000E+00 -0.00000000000E+00 -0.13580060128E+02  0.13639315711E+02  0.12700000000E+01 0. -1.
         25    2    1    2    0    0  0.00000000000E+00  0.00000000000E+00  0.27341880058E+03  0.30064098635E+03  0.12500864835E+03 0.  0.
    9000005    1    3    3    0    0 -0.19529094172E+02 -0.24107677331E+01  0.27936625975E+03  0.28006017998E+03  0.10000000000E+01 0.  0.
    9000005    1    3    3    0    0  0.19529094172E+02  0.24107677331E+01 -0.59474591733E+01  0.20580806370E+02  0.10000000000E+01 0.  0.
<mgrwt>
<rscale>  0 0.12500865E+03</rscale>
<asrwt>0</asrwt>
<pdfrwt beam="1">  1        4 0.44158444E-01 0.12500865E+03</pdfrwt>
<pdfrwt beam="2">  1       -4 0.20940144E-02 0.12500865E+03</pdfrwt>
<totfact> 0.75504008E+03</totfact>
</mgrwt>
</event>
<event>
 5    1  0.3516911E-002  0.1250161E+03  0.7818608E-02  0.1235044E+00
         -4   -1    0    0    0  501 -0.00000000000E+00  0.00000000000E+00  0.16384698462E+01  0.20730372493E+01  0.12700000000E+01 0. -1.
          4   -1    0    0  501    0  0.00000000000E+00 -0.00000000000E+00 -0.21050479612E+04  0.21050483443E+04  0.12700000000E+01 0. -1.
         25    2    1    2    0    0  0.00000000000E+00  0.00000000000E+00 -0.21034094914E+04  0.21071213816E+04  0.12501611207E+03 0.  0.
    9000005    1    3    3    0    0 -0.42903973964E+02 -0.33551405954E+02 -0.15684106477E+04  0.15693563673E+04  0.10000000000E+01 0.  0.
    9000005    1    3    3    0    0  0.42903973964E+02  0.33551405954E+02 -0.53499884372E+03  0.53776501430E+03  0.10000000000E+01 0.  0.
<mgrwt>
<rscale>  0 0.12501611E+03</rscale>
<asrwt>0</asrwt>
<pdfrwt beam="2">  1        4 0.32388508E+00 0.12501611E+03</pdfrwt>
<pdfrwt beam="1">  1       -4 0.28553170E-03 0.12501611E+03</pdfrwt>
<totfact> 0.85242300E+02</totfact>
</mgrwt>
</event>
<event>
 5    1  0.3516911E-002  0.1249996E+03  0.7818608E-02  0.1235070E+00
         -4   -1    0    0    0  501 -0.00000000000E+00  0.00000000000E+00  0.20732969137E+01  0.24313494386E+01  0.12700000000E+01 0.  1.
          4   -1    0    0  501    0  0.00000000000E+00 -0.00000000000E+00 -0.17339498451E+04  0.17339503102E+04  0.12700000000E+01 0.  1.
         25    2    1    2    0    0  0.00000000000E+00  0.00000000000E+00 -0.17318765482E+04  0.17363816597E+04  0.12499955901E+03 0.  0.
    9000005    1    3    3    0    0 -0.28863227544E+02  0.16652531030E+02 -0.13156918652E+03  0.13572709212E+03  0.10000000000E+01 0.  0.
    9000005    1    3    3    0    0  0.28863227544E+02 -0.16652531030E+02 -0.16003073617E+04  0.16006545676E+04  0.10000000000E+01 0.  0.
<mgrwt>
<rscale>  0 0.12499956E+03</rscale>
<asrwt>0</asrwt>
<pdfrwt beam="2">  1        4 0.26678803E+00 0.12499956E+03</pdfrwt>
<pdfrwt beam="1">  1       -4 0.34654842E-03 0.12499956E+03</pdfrwt>
<totfact> 0.13709782E+03</totfact>
</mgrwt>
</event>
<event>
 5    1  0.3516911E-002  0.1250055E+03  0.7818608E-02  0.1235061E+00
         -4   -1    0    0    0  501 -0.00000000000E+00  0.00000000000E+00  0.21972767039E+03  0.21973134059E+03  0.12700000000E+01 0.  1.
          4   -1    0    0  501    0  0.00000000000E+00 -0.00000000000E+00 -0.17752745792E+02  0.17798114595E+02  0.12700000000E+01 0.  1.
         25    2    1    2    0    0  0.00000000000E+00  0.00000000000E+00  0.20197492460E+03  0.23752945518E+03  0.12500548753E+03 0.  0.
    9000005    1    3    3    0    0  0.31222375361E+02  0.12659188909E+02  0.97190367581E+00  0.33719970103E+02  0.10000000000E+01 0.  0.
    9000005    1    3    3    0    0 -0.31222375361E+02 -0.12659188909E+02  0.20100302093E+03  0.20380948508E+03  0.10000000000E+01 0.  0.
<mgrwt>
<rscale>  0 0.12500549E+03</rscale>
<asrwt>0</asrwt>
<pdfrwt beam="2">  1        4 0.27349638E-02 0.12500549E+03</pdfrwt>
<pdfrwt beam="1">  1       -4 0.33808031E-01 0.12500549E+03</pdfrwt>
<totfact> 0.84156392E+03</totfact>
</mgrwt>
</event>
<event>
 5    1  0.3516911E-002  0.1250001E+03  0.7818608E-02  0.1235069E+00
         -4   -1    0    0    0  501 -0.00000000000E+00  0.00000000000E+00  0.90526408502E+02  0.90535316514E+02  0.12700000000E+01 0. -1.
          4   -1    0    0  501    0  0.00000000000E+00 -0.00000000000E+00 -0.43130072572E+02  0.43148766611E+02  0.12700000000E+01 0. -1.
         25    2    1    2    0    0  0.00000000000E+00  0.00000000000E+00  0.47396335930E+02  0.13368408312E+03  0.12500008569E+03 0.  0.
    9000005    1    3    3    0    0 -0.21542519155E+02  0.55668762631E+02  0.39154205514E+01  0.59828269091E+02  0.10000000000E+01 0.  0.
    9000005    1    3    3    0    0  0.21542519155E+02 -0.55668762631E+02  0.43480915378E+02  0.73855814033E+02  0.10000000000E+01 0.  0.
<mgrwt>
<rscale>  0 0.12500009E+03</rscale>
<asrwt>0</asrwt>
<pdfrwt beam="2">  1        4 0.66375191E-02 0.12500009E+03</pdfrwt>
<pdfrwt beam="1">  1       -4 0.13929263E-01 0.12500009E+03</pdfrwt>
<totfact> 0.10265862E+04</totfact>
</mgrwt>
</event>
<event>
 5    1  0.3516911E-002  0.1249994E+03  0.7818608E-02  0.1235070E+00
          4   -1    0    0  501    0  0.00000000000E+00  0.00000000000E+00  0.50833607755E+01  0.52396046391E+01  0.12700000000E+01 0. -1.
         -4   -1    0    0    0  501 -0.00000000000E+00 -0.00000000000E+00 -0.75664391171E+03  0.75664497753E+03  0.12700000000E+01 0. -1.
         25    2    1    2    0    0  0.00000000000E+00  0.00000000000E+00 -0.75156055093E+03  0.76188458217E+03  0.12499941933E+03 0.  0.
    9000005    1    3    3    0    0 -0.49646977075E+02  0.36094518058E+02 -0.30428878843E+03  0.31041956016E+03  0.10000000000E+01 0.  0.
    9000005    1    3    3    0    0  0.49646977075E+02 -0.36094518058E+02 -0.44727176250E+03  0.45146502201E+03  0.10000000000E+01 0.  0.
<mgrwt>
<rscale>  0 0.12499942E+03</rscale>
<asrwt>0</asrwt>
<pdfrwt beam="1">  1        4 0.79415685E-03 0.12499942E+03</pdfrwt>
<pdfrwt beam="2">  1       -4 0.11641877E+00 0.12499942E+03</pdfrwt>
<totfact> 0.40012582E+03</totfact>
</mgrwt>
</event>
<event>
 5    1  0.3516911E-002  0.1250010E+03  0.7818608E-02  0.1235068E+00
          4   -1    0    0  501    0  0.00000000000E+00  0.00000000000E+00  0.48652772856E+02  0.48669345656E+02  0.12700000000E+01 0.  1.
         -4   -1    0    0    0  501 -0.00000000000E+00 -0.00000000000E+00 -0.80254332019E+02  0.80264380069E+02  0.12700000000E+01 0.  1.
         25    2    1    2    0    0  0.00000000000E+00  0.00000000000E+00 -0.31601559163E+02  0.12893372572E+03  0.12500098835E+03 0.  0.
    9000005    1    3    3    0    0 -0.59431546255E+02  0.11919538524E+02 -0.31481971440E+02  0.68310311188E+02  0.10000000000E+01 0.  0.
    9000005    1    3    3    0    0  0.59431546255E+02 -0.11919538524E+02 -0.11958772329E+00  0.60623414536E+02  0.10000000000E+01 0.  0.
<mgrwt>
<rscale>  0 0.12500099E+03</rscale>
<asrwt>0</asrwt>
<pdfrwt beam="1">  1        4 0.74870897E-02 0.12500099E+03</pdfrwt>
<pdfrwt beam="2">  1       -4 0.12348868E-01 0.12500099E+03</pdfrwt>
<totfact> 0.10367140E+04</totfact>
</mgrwt>
</event>
<event>
 5    1  0.3516911E-002  0.1250010E+03  0.7818608E-02  0.1235068E+00
          4   -1    0    0  501    0  0.00000000000E+00  0.00000000000E+00  0.12102797181E+03  0.12103463496E+03  0.12700000000E+01 0.  1.
         -4   -1    0    0    0  501 -0.00000000000E+00 -0.00000000000E+00 -0.32256066414E+02  0.32281058231E+02  0.12700000000E+01 0.  1.
         25    2    1    2    0    0  0.00000000000E+00  0.00000000000E+00  0.88771905397E+02  0.15331569319E+03  0.12500100236E+03 0.  0.
    9000005    1    3    3    0    0  0.19495460401E+02 -0.39061255810E+02 -0.10458064036E+02  0.44902402887E+02  0.10000000000E+01 0.  0.
    9000005    1    3    3    0    0 -0.19495460401E+02  0.39061255810E+02  0.99229969432E+02  0.10841329031E+03  0.10000000000E+01 0.  0.
<mgrwt>
<rscale>  0 0.12500100E+03</rscale>
<asrwt>0</asrwt>
<pdfrwt beam="1">  1        4 0.18622123E-01 0.12500100E+03</pdfrwt>
<pdfrwt beam="2">  1       -4 0.49649068E-02 0.12500100E+03</pdfrwt>
<totfact> 0.98644599E+03</totfact>
</mgrwt>
</event>
<event>
 5    1  0.3516911E-002  0.1249997E+03  0.7818608E-02  0.1235070E+00
          4   -1    0    0  501    0  0.00000000000E+00  0.00000000000E+00  0.87036574901E+03  0.87036667558E+03  0.12700000000E+01 0.  1.
         -4   -1    0    0    0  501 -0.00000000000E+00 -0.00000000000E+00 -0.43972393884E+01  0.45769656148E+01  0.12700000000E+01 0.  1.
         25    2    1    2    0    0  0.00000000000E+00  0.00000000000E+00  0.86596850962E+03  0.87494364119E+03  0.12499966240E+03 0.  0.
    9000005    1    3    3    0    0  0.93014306622E+01  0.38770467408E+02  0.76980555921E+03  0.77083802757E+03  0.10000000000E+01 0.  0.
    9000005    1    3    3    0    0 -0.93014306622E+01 -0.38770467408E+02  0.96162950413E+02  0.10410561362E+03  0.10000000000E+01 0.  0.
<mgrwt>
<rscale>  0 0.12499966E+03</rscale>
<asrwt>0</asrwt>
<pdfrwt beam="1">  1        4 0.13391630E+00 0.12499966E+03</pdfrwt>
<pdfrwt beam="2">  1       -4 0.69039481E-03 0.12499966E+03</pdfrwt>
<totfact> 0.35128041E+03</totfact>
</mgrwt>
</event>
<event>
 5    1  0.3516911E-002  0.1250013E+03  0.7818608E-02  0.1235067E+00
         -4   -1    0    0    0  501 -0.00000000000E+00  0.00000000000E+00  0.56956098601E+02  0.56970255993E+02  0.12700000000E+01 0.  1.
          4   -1    0    0  501    0  0.00000000000E+00 -0.00000000000E+00 -0.68556352073E+02  0.68568114380E+02  0.12700000000E+01 0.  1.
         25    2    1    2    0    0  0.00000000000E+00  0.00000000000E+00 -0.11600253472E+02  0.12553837037E+03  0.12500126621E+03 0.  0.
    9000005    1    3    3    0    0 -0.12062903759E+02  0.42534756602E+02 -0.50155607878E+02  0.66867811149E+02  0.10000000000E+01 0.  0.
    9000005    1    3    3    0    0  0.12062903759E+02 -0.42534756602E+02  0.38555354406E+02  0.58670559224E+02  0.10000000000E+01 0.  0.
<mgrwt>
<rscale>  0 0.12500127E+03</rscale>
<asrwt>0</asrwt>
<pdfrwt beam="2">  1        4 0.10549125E-01 0.12500127E+03</pdfrwt>
<pdfrwt beam="1">  1       -4 0.87644705E-02 0.12500127E+03</pdfrwt>
<totfact> 0.10440808E+04</totfact>
</mgrwt>
</event>
<event>
 5    1  0.3516911E-002  0.1250033E+03  0.7818608E-02  0.1235064E+00
         -4   -1    0    0    0  501 -0.00000000000E+00  0.00000000000E+00  0.18253218640E+02  0.18297346549E+02  0.12700000000E+01 0. -1.
          4   -1    0    0  501    0  0.00000000000E+00 -0.00000000000E+00 -0.21371040507E+03  0.21371417860E+03  0.12700000000E+01 0. -1.
         25    2    1    2    0    0  0.00000000000E+00  0.00000000000E+00 -0.19545718643E+03  0.23201152515E+03  0.12500334426E+03 0.  0.
    9000005    1    3    3    0    0 -0.51333470468E+02 -0.79743293437E+01 -0.16220420669E+03  0.17032298667E+03  0.10000000000E+01 0.  0.
    9000005    1    3    3    0    0  0.51333470468E+02  0.79743293437E+01 -0.33252979740E+02  0.61688538484E+02  0.10000000000E+01 0.  0.
<mgrwt>
<rscale>  0 0.12500334E+03</rscale>
<asrwt>0</asrwt>
<pdfrwt beam="2">  1        4 0.32882207E-01 0.12500334E+03</pdfrwt>
<pdfrwt beam="1">  1       -4 0.28118723E-02 0.12500334E+03</pdfrwt>
<totfact> 0.84995339E+03</totfact>
</mgrwt>
</event>
<event>
 5    1  0.3516911E-002  0.1249988E+03  0.7818608E-02  0.1235071E+00
         -4   -1    0    0    0  501 -0.00000000000E+00  0.00000000000E+00  0.62075139382E+02  0.62088129536E+02  0.12700000000E+01 0. -1.
          4   -1    0    0  501    0  0.00000000000E+00 -0.00000000000E+00 -0.62900526614E+02  0.62913346345E+02  0.12700000000E+01 0. -1.
         25    2    1    2    0    0  0.00000000000E+00  0.00000000000E+00 -0.82538723217E+00  0.12500147588E+03  0.12499875083E+03 0.  0.
    9000005    1    3    3    0    0 -0.53127978119E+02  0.30871021747E+02  0.10970431345E+02  0.62425574940E+02  0.10000000000E+01 0.  0.
    9000005    1    3    3    0    0  0.53127978119E+02 -0.30871021747E+02 -0.11795818578E+02  0.62575900941E+02  0.10000000000E+01 0.  0.
<mgrwt>
<rscale>  0 0.12499875E+03</rscale>
<asrwt>0</asrwt>
<pdfrwt beam="2">  1        4 0.96789895E-02 0.12499875E+03</pdfrwt>
<pdfrwt beam="1">  1       -4 0.95520068E-02 0.12499875E+03</pdfrwt>
<totfact> 0.10453126E+04</totfact>
</mgrwt>
</event>
<event>
 5    1  0.3516911E-002  0.1250050E+03  0.7818608E-02  0.1235062E+00
         -4   -1    0    0    0  501 -0.00000000000E+00  0.00000000000E+00  0.31352841637E+03  0.31353098854E+03  0.12700000000E+01 0.  1.
          4   -1    0    0  501    0  0.00000000000E+00 -0.00000000000E+00 -0.12424997057E+02  0.12489733859E+02  0.12700000000E+01 0.  1.
         25    2    1    2    0    0  0.00000000000E+00  0.00000000000E+00  0.30110341932E+03  0.32602072240E+03  0.12500496913E+03 0.  0.
    9000005    1    3    3    0    0 -0.83406211412E+01 -0.52970356544E+02  0.66844050240E+02  0.85700359894E+02  0.10000000000E+01 0.  0.
    9000005    1    3    3    0    0  0.83406211412E+01  0.52970356544E+02  0.23425936908E+03  0.24032036250E+03  0.10000000000E+01 0.  0.
<mgrwt>
<rscale>  0 0.12500497E+03</rscale>
<asrwt>0</asrwt>
<pdfrwt beam="2">  1        4 0.19167156E-02 0.12500497E+03</pdfrwt>
<pdfrwt beam="1">  1       -4 0.48240320E-01 0.12500497E+03</pdfrwt>
<totfact> 0.72437737E+03</totfact>
</mgrwt>
</event>
<event>
 5    1  0.3516911E-002  0.1250002E+03  0.7818608E-02  0.1235069E+00
          4   -1    0    0  501    0  0.00000000000E+00  0.00000000000E+00  0.23934319459E+02  0.23967990069E+02  0.12700000000E+01 0. -1.
         -4   -1    0    0    0  501 -0.00000000000E+00 -0.00000000000E+00 -0.16305659276E+03  0.16306153852E+03  0.12700000000E+01 0. -1.
         25    2    1    2    0    0  0.00000000000E+00  0.00000000000E+00 -0.13912227331E+03  0.18702952859E+03  0.12500015054E+03 0.  0.
    9000005    1    3    3    0    0 -0.44379169316E+02 -0.43989677792E+02 -0.68348367779E+02  0.92612643843E+02  0.10000000000E+01 0.  0.
    9000005    1    3    3    0    0  0.44379169316E+02  0.43989677792E+02 -0.70773905526E+02  0.94416884745E+02  0.10000000000E+01 0.  0.
<mgrwt>
<rscale>  0 0.12500015E+03</rscale>
<asrwt>0</asrwt>
<pdfrwt beam="1">  1        4 0.36851736E-02 0.12500015E+03</pdfrwt>
<pdfrwt beam="2">  1       -4 0.25088599E-01 0.12500015E+03</pdfrwt>
<totfact> 0.92366440E+03</totfact>
</mgrwt>
</event>
<event>
 5    1  0.3516911E-002  0.1249973E+03  0.7818608E-02  0.1235073E+00
          4   -1    0    0  501    0  0.00000000000E+00  0.00000000000E+00  0.23115168967E+02  0.23150031023E+02  0.12700000000E+01 0. -1.
         -4   -1    0    0    0  501 -0.00000000000E+00 -0.00000000000E+00 -0.16881892542E+03  0.16882370237E+03  0.12700000000E+01 0. -1.
         25    2    1    2    0    0  0.00000000000E+00  0.00000000000E+00 -0.14570375646E+03  0.19197373339E+03  0.12499731864E+03 0.  0.
    9000005    1    3    3    0    0  0.76794732320E+01 -0.10618276289E+02 -0.16669254121E+03  0.16720982445E+03  0.10000000000E+01 0.  0.
    9000005    1    3    3    0    0 -0.76794732320E+01  0.10618276289E+02  0.20988784750E+02  0.24763908935E+02  0.10000000000E+01 0.  0.
<mgrwt>
<rscale>  0 0.12499732E+03</rscale>
<asrwt>0</asrwt>
<pdfrwt beam="1">  1        4 0.35592291E-02 0.12499732E+03</pdfrwt>
<pdfrwt beam="2">  1       -4 0.25975191E-01 0.12499732E+03</pdfrwt>
<totfact> 0.91510517E+03</totfact>
</mgrwt>
</event>
<event>
 5    1  0.3516911E-002  0.1249505E+03  0.7818608E-02  0.1235147E+00
          4   -1    0    0  501    0  0.00000000000E+00  0.00000000000E+00  0.16102407376E+02  0.16152412306E+02  0.12700000000E+01 0. -1.
         -4   -1    0    0    0  501 -0.00000000000E+00 -0.00000000000E+00 -0.24196839139E+03  0.24197172424E+03  0.12700000000E+01 0. -1.
         25    2    1    2    0    0  0.00000000000E+00  0.00000000000E+00 -0.22586598401E+03  0.25812413655E+03  0.12495049873E+03 0.  0.
    9000005    1    3    3    0    0  0.61642314080E+02  0.54630415998E+01 -0.95338746774E+02  0.11366660171E+03  0.10000000000E+01 0.  0.
    9000005    1    3    3    0    0 -0.61642314080E+02 -0.54630415998E+01 -0.13052723724E+03  0.14445753483E+03  0.10000000000E+01 0.  0.
<mgrwt>
<rscale>  0 0.12495050E+03</rscale>
<asrwt>0</asrwt>
<pdfrwt beam="1">  1        4 0.24813965E-02 0.12495050E+03</pdfrwt>
<pdfrwt beam="2">  1       -4 0.37230007E-01 0.12495050E+03</pdfrwt>
<totfact> 0.81259553E+03</totfact>
</mgrwt>
</event>
<event>
 5    1  0.3516911E-002  0.1250138E+03  0.7818608E-02  0.1235048E+00
          4   -1    0    0  501    0  0.00000000000E+00  0.00000000000E+00  0.22261721069E+02  0.22297917503E+02  0.12700000000E+01 0. -1.
         -4   -1    0    0    0  501 -0.00000000000E+00 -0.00000000000E+00 -0.17532713967E+03  0.17533173930E+03  0.12700000000E+01 0. -1.
         25    2    1    2    0    0  0.00000000000E+00  0.00000000000E+00 -0.15306541860E+03  0.19762965680E+03  0.12501383474E+03 0.  0.
    9000005    1    3    3    0    0 -0.12008452584E+02 -0.22849960472E+02  0.13448648601E+02  0.29123697846E+02  0.10000000000E+01 0.  0.
    9000005    1    3    3    0    0  0.12008452584E+02  0.22849960472E+02 -0.16651406721E+03  0.16850595896E+03  0.10000000000E+01 0.  0.
<mgrwt>
<rscale>  0 0.12501383E+03</rscale>
<asrwt>0</asrwt>
<pdfrwt beam="1">  1        4 0.34280184E-02 0.12501383E+03</pdfrwt>
<pdfrwt beam="2">  1       -4 0.26976543E-01 0.12501383E+03</pdfrwt>
<totfact> 0.90508435E+03</totfact>
</mgrwt>
</event>
<event>
 4    1  0.3516911E-002  0.1241659E+03  0.7818608E-02  0.1236379E+00
         -4   -1    0    0    0  501 -0.00000000000E+00  0.00000000000E+00  0.55012265742E+02  0.55026923247E+02  0.12700000000E+01 0. -1.
          4   -1    0    0  501    0  0.00000000000E+00 -0.00000000000E+00 -0.70032716248E+02  0.70044230633E+02  0.12700000000E+01 0. -1.
    9000005    1    1    2    0    0 -0.27277653620E+02 -0.11896197392E+02  0.47363577139E+02  0.55945494357E+02  0.10000000000E+01 0.  0.
    9000005    1    1    2    0    0  0.27277653620E+02  0.11896197392E+02 -0.62384027645E+02  0.69125659524E+02  0.10000000000E+01 0.  0.
<mgrwt>
<rscale>  0 0.12416594E+03</rscale>
<asrwt>0</asrwt>
<pdfrwt beam="2">  1        4 0.10776277E-01 0.12416594E+03</pdfrwt>
<pdfrwt beam="1">  1       -4 0.84654387E-02 0.12416594E+03</pdfrwt>
<totfact> 0.10650546E+04</totfact>
</mgrwt>
</event>
<event>
 5    1  0.3516911E-002  0.1249986E+03  0.7818608E-02  0.1235071E+00
          4   -1    0    0  501    0  0.00000000000E+00  0.00000000000E+00  0.84955487564E+02  0.84964979652E+02  0.12700000000E+01 0. -1.
         -4   -1    0    0    0  501 -0.00000000000E+00 -0.00000000000E+00 -0.45958086961E+02  0.45975631122E+02  0.12700000000E+01 0. -1.
         25    2    1    2    0    0  0.00000000000E+00  0.00000000000E+00  0.38997400603E+02  0.13094061077E+03  0.12499858518E+03 0.  0.
    9000005    1    3    3    0    0  0.59849885608E+02 -0.17771459331E+02  0.22334411471E+02  0.66314851352E+02  0.10000000000E+01 0.  0.
    9000005    1    3    3    0    0 -0.59849885608E+02  0.17771459331E+02  0.16662989132E+02  0.64625759422E+02  0.10000000000E+01 0.  0.
<mgrwt>
<rscale>  0 0.12499859E+03</rscale>
<asrwt>0</asrwt>
<pdfrwt beam="1">  1        4 0.13072155E-01 0.12499859E+03</pdfrwt>
<pdfrwt beam="2">  1       -4 0.70725547E-02 0.12499859E+03</pdfrwt>
<totfact> 0.10324692E+04</totfact>
</mgrwt>
</event>
<event>
 5    1  0.3516911E-002  0.1250164E+03  0.7818608E-02  0.1235044E+00
         -4   -1    0    0    0  501 -0.00000000000E+00  0.00000000000E+00  0.59321353366E+02  0.59334946408E+02  0.12700000000E+01 0. -1.
          4   -1    0    0  501    0  0.00000000000E+00 -0.00000000000E+00 -0.65838972872E+02  0.65851220557E+02  0.12700000000E+01 0. -1.
         25    2    1    2    0    0  0.00000000000E+00  0.00000000000E+00 -0.65176195052E+01  0.12518616696E+03  0.12501638707E+03 0.  0.
    9000005    1    3    3    0    0  0.80288010496E+01  0.61358419287E+02  0.55256174709E+01  0.62135736192E+02  0.10000000000E+01 0.  0.
    9000005    1    3    3    0    0 -0.80288010496E+01 -0.61358419287E+02 -0.12043236976E+02  0.63050430772E+02  0.10000000000E+01 0.  0.
<mgrwt>
<rscale>  0 0.12501639E+03</rscale>
<asrwt>0</asrwt>
<pdfrwt beam="2">  1        4 0.10131060E-01 0.12501639E+03</pdfrwt>
<pdfrwt beam="1">  1       -4 0.91283498E-02 0.12501639E+03</pdfrwt>
<totfact> 0.10444952E+04</totfact>
</mgrwt>
</event>
<event>
 5    1  0.3516911E-002  0.1250005E+03  0.7818608E-02  0.1235068E+00
         -4   -1    0    0    0  501 -0.00000000000E+00  0.00000000000E+00  0.17588276035E+03  0.17588734545E+03  0.12700000000E+01 0.  1.
          4   -1    0    0  501    0  0.00000000000E+00 -0.00000000000E+00 -0.22186544023E+02  0.22222862905E+02  0.12700000000E+01 0.  1.
         25    2    1    2    0    0  0.00000000000E+00  0.00000000000E+00  0.15369621633E+03  0.19811020835E+03  0.12500051096E+03 0.  0.
    9000005    1    3    3    0    0  0.19234289377E+02 -0.29690551681E+02  0.15849295293E+03  0.16239612949E+03  0.10000000000E+01 0.  0.
    9000005    1    3    3    0    0 -0.19234289377E+02  0.29690551681E+02 -0.47967365958E+01  0.35714078862E+02  0.10000000000E+01 0.  0.
<mgrwt>
<rscale>  0 0.12500051E+03</rscale>
<asrwt>0</asrwt>
<pdfrwt beam="2">  1        4 0.34164608E-02 0.12500051E+03</pdfrwt>
<pdfrwt beam="1">  1       -4 0.27062033E-01 0.12500051E+03</pdfrwt>
<totfact> 0.90453964E+03</totfact>
</mgrwt>
</event>
<event>
 5    1  0.3516911E-002  0.1249915E+03  0.7818608E-02  0.1235083E+00
         -4   -1    0    0    0  501 -0.00000000000E+00  0.00000000000E+00  0.42949659405E+03  0.42949847171E+03  0.12700000000E+01 0. -1.
          4   -1    0    0  501    0  0.00000000000E+00 -0.00000000000E+00 -0.90474610298E+01  0.91361617262E+01  0.12700000000E+01 0. -1.
         25    2    1    2    0    0  0.00000000000E+00  0.00000000000E+00  0.42044913302E+03  0.43863463344E+03  0.12499147248E+03 0.  0.
    9000005    1    3    3    0    0 -0.57104088538E+02  0.45347359687E+01  0.29783641394E+03  0.30329683517E+03  0.10000000000E+01 0.  0.
    9000005    1    3    3    0    0  0.57104088538E+02 -0.45347359687E+01  0.12261271909E+03  0.13533779827E+03  0.10000000000E+01 0.  0.
<mgrwt>
<rscale>  0 0.12499147E+03</rscale>
<asrwt>0</asrwt>
<pdfrwt beam="2">  1        4 0.13988849E-02 0.12499147E+03</pdfrwt>
<pdfrwt beam="1">  1       -4 0.66083356E-01 0.12499147E+03</pdfrwt>
<totfact> 0.60972501E+03</totfact>
</mgrwt>
</event>
<event>
 5    1  0.3516911E-002  0.1250035E+03  0.7818608E-02  0.1235064E+00
         -4   -1    0    0    0  501 -0.00000000000E+00  0.00000000000E+00  0.19707214657E+03  0.19707623868E+03  0.12700000000E+01 0.  1.
          4   -1    0    0  501    0  0.00000000000E+00 -0.00000000000E+00 -0.19797874386E+02  0.19838566738E+02  0.12700000000E+01 0.  1.
         25    2    1    2    0    0  0.00000000000E+00  0.00000000000E+00  0.17727427218E+03  0.21691480542E+03  0.12500346088E+03 0.  0.
    9000005    1    3    3    0    0 -0.14388046545E+02 -0.54649744979E+02  0.13493523644E+03  0.14629466341E+03  0.10000000000E+01 0.  0.
    9000005    1    3    3    0    0  0.14388046545E+02  0.54649744979E+02  0.42339035743E+02  0.70620142008E+02  0.10000000000E+01 0.  0.
<mgrwt>
<rscale>  0 0.12500346E+03</rscale>
<asrwt>0</asrwt>
<pdfrwt beam="2">  1        4 0.30492718E-02 0.12500346E+03</pdfrwt>
<pdfrwt beam="1">  1       -4 0.30322236E-01 0.12500346E+03</pdfrwt>
<totfact> 0.87352153E+03</totfact>
</mgrwt>
</event>
<event>
 5    1  0.3516911E-002  0.1250000E+03  0.7818608E-02  0.1235069E+00
          4   -1    0    0  501    0  0.00000000000E+00  0.00000000000E+00  0.66149373627E+03  0.66149495540E+03  0.12700000000E+01 0. -1.
         -4   -1    0    0    0  501 -0.00000000000E+00 -0.00000000000E+00 -0.58356709363E+01  0.59722655062E+01  0.12700000000E+01 0. -1.
         25    2    1    2    0    0  0.00000000000E+00  0.00000000000E+00  0.65565806533E+03  0.66746722091E+03  0.12499996941E+03 0.  0.
    9000005    1    3    3    0    0  0.53561915287E+02  0.21609580241E+02  0.45524592188E+03  0.45889617792E+03  0.10000000000E+01 0.  0.
    9000005    1    3    3    0    0 -0.53561915287E+02 -0.21609580241E+02  0.20041214345E+03  0.20857104298E+03  0.10000000000E+01 0.  0.
<mgrwt>
<rscale>  0 0.12499997E+03</rscale>
<asrwt>0</asrwt>
<pdfrwt beam="1">  1        4 0.10177884E+00 0.12499997E+03</pdfrwt>
<pdfrwt beam="2">  1       -4 0.90839682E-03 0.12499997E+03</pdfrwt>
<totfact> 0.44860590E+03</totfact>
</mgrwt>
</event>
<event>
 5    1  0.3516911E-002  0.1249937E+03  0.7818608E-02  0.1235079E+00
          4   -1    0    0  501    0  0.00000000000E+00  0.00000000000E+00  0.15163057381E+03  0.15163589223E+03  0.12700000000E+01 0.  1.
         -4   -1    0    0    0  501 -0.00000000000E+00 -0.00000000000E+00 -0.25737610766E+02  0.25768925239E+02  0.12700000000E+01 0.  1.
         25    2    1    2    0    0  0.00000000000E+00  0.00000000000E+00  0.12589296304E+03  0.17740481747E+03  0.12499372432E+03 0.  0.
    9000005    1    3    3    0    0 -0.37192718400E+02 -0.14610522839E+02  0.13113382449E+03  0.13709064740E+03  0.10000000000E+01 0.  0.
    9000005    1    3    3    0    0  0.37192718400E+02  0.14610522839E+02 -0.52408614493E+01  0.40314170069E+02  0.10000000000E+01 0.  0.
<mgrwt>
<rscale>  0 0.12499372E+03</rscale>
<asrwt>0</asrwt>
<pdfrwt beam="1">  1        4 0.23330598E-01 0.12499372E+03</pdfrwt>
<pdfrwt beam="2">  1       -4 0.39624504E-02 0.12499372E+03</pdfrwt>
<totfact> 0.94099485E+03</totfact>
</mgrwt>
</event>
<event>
 5    1  0.3516911E-002  0.1249975E+03  0.7818608E-02  0.1235073E+00
         -4   -1    0    0    0  501 -0.00000000000E+00  0.00000000000E+00  0.58153154989E+02  0.58167021027E+02  0.12700000000E+01 0. -1.
          4   -1    0    0  501    0  0.00000000000E+00 -0.00000000000E+00 -0.67141164496E+02  0.67153174682E+02  0.12700000000E+01 0. -1.
         25    2    1    2    0    0  0.00000000000E+00  0.00000000000E+00 -0.89880095069E+01  0.12532019571E+03  0.12499746852E+03 0.  0.
    9000005    1    3    3    0    0  0.60199840666E+02 -0.31308672034E+01  0.12018754181E+02  0.61475796845E+02  0.10000000000E+01 0.  0.
    9000005    1    3    3    0    0 -0.60199840666E+02  0.31308672034E+01 -0.21006763688E+02  0.63844398864E+02  0.10000000000E+01 0.  0.
<mgrwt>
<rscale>  0 0.12499747E+03</rscale>
<asrwt>0</asrwt>
<pdfrwt beam="2">  1        4 0.10331400E-01 0.12499747E+03</pdfrwt>
<pdfrwt beam="1">  1       -4 0.89486298E-02 0.12499747E+03</pdfrwt>
<totfact> 0.10446509E+04</totfact>
</mgrwt>
</event>
<event>
 5    1  0.3516911E-002  0.1250018E+03  0.7818608E-02  0.1235066E+00
         -4   -1    0    0    0  501 -0.00000000000E+00  0.00000000000E+00  0.46236617826E+02  0.46254056341E+02  0.12700000000E+01 0.  1.
          4   -1    0    0  501    0  0.00000000000E+00 -0.00000000000E+00 -0.84448212427E+02  0.84457761527E+02  0.12700000000E+01 0.  1.
         25    2    1    2    0    0  0.00000000000E+00  0.00000000000E+00 -0.38211594601E+02  0.13071181787E+03  0.12500181346E+03 0.  0.
    9000005    1    3    3    0    0  0.79837985950E+01  0.31161011920E+02  0.36919724873E+02  0.48977707058E+02  0.10000000000E+01 0.  0.
    9000005    1    3    3    0    0 -0.79837985950E+01 -0.31161011920E+02 -0.75131319475E+02  0.81734110810E+02  0.10000000000E+01 0.  0.
<mgrwt>
<rscale>  0 0.12500181E+03</rscale>
<asrwt>0</asrwt>
<pdfrwt beam="2">  1        4 0.12994109E-01 0.12500181E+03</pdfrwt>
<pdfrwt beam="1">  1       -4 0.71154018E-02 0.12500181E+03</pdfrwt>
<totfact> 0.10328849E+04</totfact>
</mgrwt>
</event>
<event>
 5    1  0.3516911E-002  0.1249942E+03  0.7818608E-02  0.1235078E+00
         -4   -1    0    0    0  501 -0.00000000000E+00  0.00000000000E+00  0.48989336867E+02  0.49005795848E+02  0.12700000000E+01 0. -1.
          4   -1    0    0  501    0  0.00000000000E+00 -0.00000000000E+00 -0.79694399240E+02  0.79704517879E+02  0.12700000000E+01 0. -1.
         25    2    1    2    0    0  0.00000000000E+00  0.00000000000E+00 -0.30705062373E+02  0.12871031373E+03  0.12499417588E+03 0.  0.
    9000005    1    3    3    0    0 -0.43310281318E+02  0.87931535168E+01 -0.60845017065E+02  0.75207819529E+02  0.10000000000E+01 0.  0.
    9000005    1    3    3    0    0  0.43310281318E+02 -0.87931535168E+01  0.30139954692E+02  0.53502494198E+02  0.10000000000E+01 0.  0.
<mgrwt>
<rscale>  0 0.12499418E+03</rscale>
<asrwt>0</asrwt>
<pdfrwt beam="2">  1        4 0.12262721E-01 0.12499418E+03</pdfrwt>
<pdfrwt beam="1">  1       -4 0.75388655E-02 0.12499418E+03</pdfrwt>
<totfact> 0.10373540E+04</totfact>
</mgrwt>
</event>
<event>
 5    1  0.3516911E-002  0.1249974E+03  0.7818608E-02  0.1235073E+00
          4   -1    0    0  501    0  0.00000000000E+00  0.00000000000E+00  0.29380616911E+02  0.29408052470E+02  0.12700000000E+01 0. -1.
         -4   -1    0    0    0  501 -0.00000000000E+00 -0.00000000000E+00 -0.13285528408E+03  0.13286135408E+03  0.12700000000E+01 0. -1.
         25    2    1    2    0    0  0.00000000000E+00  0.00000000000E+00 -0.10347466717E+03  0.16226940655E+03  0.12499741420E+03 0.  0.
    9000005    1    3    3    0    0 -0.13435057149E+02  0.26683715021E+02 -0.12299046820E+03  0.12657083659E+03  0.10000000000E+01 0.  0.
    9000005    1    3    3    0    0  0.13435057149E+02 -0.26683715021E+02  0.19515801023E+02  0.35698569964E+02  0.10000000000E+01 0.  0.
<mgrwt>
<rscale>  0 0.12499741E+03</rscale>
<asrwt>0</asrwt>
<pdfrwt beam="1">  1        4 0.45226723E-02 0.12499741E+03</pdfrwt>
<pdfrwt beam="2">  1       -4 0.20441851E-01 0.12499741E+03</pdfrwt>
<totfact> 0.96912669E+03</totfact>
</mgrwt>
</event>
<event>
 5    1  0.3516911E-002  0.1250008E+03  0.7818608E-02  0.1235068E+00
         -4   -1    0    0    0  501 -0.00000000000E+00  0.00000000000E+00  0.14855882022E+03  0.14856424861E+03  0.12700000000E+01 0. -1.
          4   -1    0    0  501    0  0.00000000000E+00 -0.00000000000E+00 -0.26273393980E+02  0.26304070620E+02  0.12700000000E+01 0. -1.
         25    2    1    2    0    0  0.00000000000E+00  0.00000000000E+00  0.12228542624E+03  0.17486831923E+03  0.12500081439E+03 0.  0.
    9000005    1    3    3    0    0  0.13321080341E+02  0.61048243014E+02  0.59770795997E+02  0.86474777888E+02  0.10000000000E+01 0.  0.
    9000005    1    3    3    0    0 -0.13321080341E+02 -0.61048243014E+02  0.62514630239E+02  0.88393541339E+02  0.10000000000E+01 0.  0.
<mgrwt>
<rscale>  0 0.12500081E+03</rscale>
<asrwt>0</asrwt>
<pdfrwt beam="2">  1        4 0.40448379E-02 0.12500081E+03</pdfrwt>
<pdfrwt beam="1">  1       -4 0.22857980E-01 0.12500081E+03</pdfrwt>
<totfact> 0.94547235E+03</totfact>
</mgrwt>
</event>
<event>
 5    1  0.3516911E-002  0.1250000E+03  0.7818608E-02  0.1235069E+00
         -4   -1    0    0    0  501 -0.00000000000E+00  0.00000000000E+00  0.76498158254E+02  0.76508699611E+02  0.12700000000E+01 0.  1.
          4   -1    0    0  501    0  0.00000000000E+00 -0.00000000000E+00 -0.51041337091E+02  0.51057134585E+02  0.12700000000E+01 0.  1.
         25    2    1    2    0    0  0.00000000000E+00  0.00000000000E+00  0.25456821162E+02  0.12756583420E+03  0.12499996924E+03 0.  0.
    9000005    1    3    3    0    0  0.53409465004E+02 -0.21714096079E+02 -0.11874018472E+02  0.58873298151E+02  0.10000000000E+01 0.  0.
    9000005    1    3    3    0    0 -0.53409465004E+02  0.21714096079E+02  0.37330839634E+02  0.68692536045E+02  0.10000000000E+01 0.  0.
<mgrwt>
<rscale>  0 0.12499997E+03</rscale>
<asrwt>0</asrwt>
<pdfrwt beam="2">  1        4 0.78545395E-02 0.12499997E+03</pdfrwt>
<pdfrwt beam="1">  1       -4 0.11770973E-01 0.12499997E+03</pdfrwt>
<totfact> 0.10396882E+04</totfact>
</mgrwt>
</event>
<event>
 5    1  0.3516911E-002  0.1250016E+03  0.7818608E-02  0.1235067E+00
         -4   -1    0    0    0  501 -0.00000000000E+00  0.00000000000E+00  0.32161772993E+02  0.32186838025E+02  0.12700000000E+01 0.  1.
          4   -1    0    0  501    0  0.00000000000E+00 -0.00000000000E+00 -0.12138363509E+03  0.12139027872E+03  0.12700000000E+01 0.  1.
         25    2    1    2    0    0  0.00000000000E+00  0.00000000000E+00 -0.89221862094E+02  0.15357711674E+03  0.12500156043E+03 0.  0.
    9000005    1    3    3    0    0 -0.43200460528E+02 -0.80513991114E+01 -0.99200711408E+02  0.10850293066E+03  0.10000000000E+01 0.  0.
    9000005    1    3    3    0    0  0.43200460528E+02  0.80513991114E+01  0.99788493145E+01  0.45074186084E+02  0.10000000000E+01 0.  0.
<mgrwt>
<rscale>  0 0.12500156E+03</rscale>
<asrwt>0</asrwt>
<pdfrwt beam="2">  1        4 0.18676844E-01 0.12500156E+03</pdfrwt>
<pdfrwt beam="1">  1       -4 0.49504043E-02 0.12500156E+03</pdfrwt>
<totfact> 0.98591912E+03</totfact>
</mgrwt>
</event>
<event>
 5    1  0.3516911E-002  0.1249984E+03  0.7818608E-02  0.1235072E+00
         -4   -1    0    0    0  501 -0.00000000000E+00  0.00000000000E+00  0.39532847401E+02  0.39553241633E+02  0.12700000000E+01 0. -1.
          4   -1    0    0  501    0  0.00000000000E+00 -0.00000000000E+00 -0.98757776305E+02  0.98765941906E+02  0.12700000000E+01 0. -1.
         25    2    1    2    0    0  0.00000000000E+00  0.00000000000E+00 -0.59224928903E+02  0.13831918354E+03  0.12499841732E+03 0.  0.
    9000005    1    3    3    0    0 -0.16983578992E+02 -0.52040225248E+02  0.37413973326E+01  0.54878274874E+02  0.10000000000E+01 0.  0.
    9000005    1    3    3    0    0  0.16983578992E+02  0.52040225248E+02 -0.62966326236E+02  0.83440908665E+02  0.10000000000E+01 0.  0.
<mgrwt>
<rscale>  0 0.12499842E+03</rscale>
<asrwt>0</asrwt>
<pdfrwt beam="2">  1        4 0.15195701E-01 0.12499842E+03</pdfrwt>
<pdfrwt beam="1">  1       -4 0.60841735E-02 0.12499842E+03</pdfrwt>
<totfact> 0.10168904E+04</totfact>
</mgrwt>
</event>
<event>
 5    1  0.3516911E-002  0.1250050E+03  0.7818608E-02  0.1235062E+00
          4   -1    0    0  501    0  0.00000000000E+00  0.00000000000E+00  0.39311582638E+01  0.41312111173E+01  0.12700000000E+01 0. -1.
         -4   -1    0    0    0  501 -0.00000000000E+00 -0.00000000000E+00 -0.96888463039E+03  0.96888546274E+03  0.12700000000E+01 0. -1.
         25    2    1    2    0    0  0.00000000000E+00  0.00000000000E+00 -0.96495347213E+03  0.97301667386E+03  0.12500497683E+03 0.  0.
    9000005    1    3    3    0    0 -0.55883784121E+02  0.12545647177E+02 -0.28785461309E+03  0.29349900999E+03  0.10000000000E+01 0.  0.
    9000005    1    3    3    0    0  0.55883784121E+02 -0.12545647177E+02 -0.67709885904E+03  0.67951766386E+03  0.10000000000E+01 0.  0.
<mgrwt>
<rscale>  0 0.12500498E+03</rscale>
<asrwt>0</asrwt>
<pdfrwt beam="1">  1        4 0.62024706E-03 0.12500498E+03</pdfrwt>
<pdfrwt beam="2">  1       -4 0.14907444E+00 0.12500498E+03</pdfrwt>
<totfact> 0.31509245E+03</totfact>
</mgrwt>
</event>
<event>
 5    1  0.3516911E-002  0.1249986E+03  0.7818608E-02  0.1235072E+00
         -4   -1    0    0    0  501 -0.00000000000E+00  0.00000000000E+00  0.15108743534E+02  0.15162025959E+02  0.12700000000E+01 0.  1.
          4   -1    0    0  501    0  0.00000000000E+00 -0.00000000000E+00 -0.25802652944E+03  0.25802965487E+03  0.12700000000E+01 0.  1.
         25    2    1    2    0    0  0.00000000000E+00  0.00000000000E+00 -0.24291778591E+03  0.27319168083E+03  0.12499857506E+03 0.  0.
    9000005    1    3    3    0    0 -0.47746475332E+02  0.79170658267E+01 -0.20785772485E+03  0.21342033553E+03  0.10000000000E+01 0.  0.
    9000005    1    3    3    0    0  0.47746475332E+02 -0.79170658267E+01 -0.35060061053E+02  0.59771345300E+02  0.10000000000E+01 0.  0.
<mgrwt>
<rscale>  0 0.12499858E+03</rscale>
<asrwt>0</asrwt>
<pdfrwt beam="2">  1        4 0.39700725E-01 0.12499858E+03</pdfrwt>
<pdfrwt beam="1">  1       -4 0.23287613E-02 0.12499858E+03</pdfrwt>
<totfact> 0.79092094E+03</totfact>
</mgrwt>
</event>
<event>
 5    1  0.3516911E-002  0.1249996E+03  0.7818608E-02  0.1235070E+00
         -4   -1    0    0    0  501 -0.00000000000E+00  0.00000000000E+00  0.11951510333E+04  0.11951517080E+04  0.12700000000E+01 0.  1.
          4   -1    0    0  501    0  0.00000000000E+00 -0.00000000000E+00 -0.31443217469E+01  0.33911147500E+01  0.12700000000E+01 0.  1.
         25    2    1    2    0    0  0.00000000000E+00  0.00000000000E+00  0.11920067115E+04  0.11985428228E+04  0.12499959096E+03 0.  0.
    9000005    1    3    3    0    0 -0.33467562910E+02 -0.25014886771E+02  0.15043768339E+03  0.15613557862E+03  0.10000000000E+01 0.  0.
    9000005    1    3    3    0    0  0.33467562910E+02  0.25014886771E+02  0.10415690281E+04  0.10424072442E+04  0.10000000000E+01 0.  0.
<mgrwt>
<rscale>  0 0.12499959E+03</rscale>
<asrwt>0</asrwt>
<pdfrwt beam="2">  1        4 0.50277795E-03 0.12499959E+03</pdfrwt>
<pdfrwt beam="1">  1       -4 0.18388837E+00 0.12499959E+03</pdfrwt>
<totfact> 0.24751150E+03</totfact>
</mgrwt>
</event>
<event>
 5    1  0.3516911E-002  0.1250053E+03  0.7818608E-02  0.1235061E+00
          4   -1    0    0  501    0  0.00000000000E+00  0.00000000000E+00  0.15626290036E+03  0.15626806112E+03  0.12700000000E+01 0. -1.
         -4   -1    0    0    0  501 -0.00000000000E+00 -0.00000000000E+00 -0.24978355392E+02  0.25010620506E+02  0.12700000000E+01 0. -1.
         25    2    1    2    0    0  0.00000000000E+00  0.00000000000E+00  0.13128454496E+03  0.18127868163E+03  0.12500531456E+03 0.  0.
    9000005    1    3    3    0    0 -0.70729339745E+01 -0.10574380365E+02 -0.23087832475E+02  0.26379763522E+02  0.10000000000E+01 0.  0.
    9000005    1    3    3    0    0  0.70729339745E+01  0.10574380365E+02  0.15437237744E+03  0.15489891811E+03  0.10000000000E+01 0.  0.
<mgrwt>
<rscale>  0 0.12500531E+03</rscale>
<asrwt>0</asrwt>
<pdfrwt beam="1">  1        4 0.24043326E-01 0.12500531E+03</pdfrwt>
<pdfrwt beam="2">  1       -4 0.38457027E-02 0.12500531E+03</pdfrwt>
<totfact> 0.93376214E+03</totfact>
</mgrwt>
</event>
<event>
 5    1  0.3516911E-002  0.1250038E+03  0.7818608E-02  0.1235063E+00
         -4   -1    0    0    0  501 -0.00000000000E+00  0.00000000000E+00  0.25819721977E+02  0.25850936984E+02  0.12700000000E+01 0. -1.
          4   -1    0    0  501    0  0.00000000000E+00 -0.00000000000E+00 -0.15117340149E+03  0.15117873599E+03  0.12700000000E+01 0. -1.
         25    2    1    2    0    0  0.00000000000E+00  0.00000000000E+00 -0.12535367951E+03  0.17702967298E+03  0.12500384053E+03 0.  0.
    9000005    1    3    3    0    0 -0.20557608531E+02 -0.48788926108E+02 -0.15653328536E+02  0.55217762301E+02  0.10000000000E+01 0.  0.
    9000005    1    3    3    0    0  0.20557608531E+02  0.48788926108E+02 -0.10970035097E+03  0.12181191068E+03  0.10000000000E+01 0.  0.
<mgrwt>
<rscale>  0 0.12500384E+03</rscale>
<asrwt>0</asrwt>
<pdfrwt beam="2">  1        4 0.23260257E-01 0.12500384E+03</pdfrwt>
<pdfrwt beam="1">  1       -4 0.39750765E-02 0.12500384E+03</pdfrwt>
<totfact> 0.94146311E+03</totfact>
</mgrwt>
</event>
<event>
 5    1  0.3516911E-002  0.1250099E+03  0.7818608E-02  0.1235054E+00
         -4   -1    0    0    0  501 -0.00000000000E+00  0.00000000000E+00  0.20804123620E+04  0.20804127496E+04  0.12700000000E+01 0.  1.
          4   -1    0    0  501    0  0.00000000000E+00 -0.00000000000E+00 -0.16627791391E+01  0.20923036265E+01  0.12700000000E+01 0.  1.
         25    2    1    2    0    0  0.00000000000E+00  0.00000000000E+00  0.20787495828E+04  0.20825050532E+04  0.12500987414E+03 0.  0.
    9000005    1    3    3    0    0  0.69570209762E+01 -0.50812291954E+02  0.16343450501E+04  0.16351498500E+04  0.10000000000E+01 0.  0.
    9000005    1    3    3    0    0 -0.69570209762E+01  0.50812291954E+02  0.44440453276E+03  0.44735520327E+03  0.10000000000E+01 0.  0.
<mgrwt>
<rscale>  0 0.12500987E+03</rscale>
<asrwt>0</asrwt>
<pdfrwt beam="2">  1        4 0.28888427E-03 0.12500987E+03</pdfrwt>
<pdfrwt beam="1">  1       -4 0.32009437E+00 0.12500987E+03</pdfrwt>
<totfact> 0.88208038E+02</totfact>
</mgrwt>
</event>
<event>
 5    1  0.3516911E-002  0.1249646E+03  0.7818608E-02  0.1235125E+00
          4   -1    0    0  501    0  0.00000000000E+00  0.00000000000E+00  0.25051736014E+01  0.28086998367E+01  0.12700000000E+01 0.  1.
         -4   -1    0    0    0  501 -0.00000000000E+00 -0.00000000000E+00 -0.14690725996E+04  0.14690731486E+04  0.12700000000E+01 0.  1.
         25    2    1    2    0    0  0.00000000000E+00  0.00000000000E+00 -0.14665674260E+04  0.14718818484E+04  0.12496463746E+03 0.  0.
    9000005    1    3    3    0    0  0.32384952697E+01 -0.62314233009E+02 -0.76956547846E+03  0.77209168958E+03  0.10000000000E+01 0.  0.
    9000005    1    3    3    0    0 -0.32384952697E+01  0.62314233009E+02 -0.69700194754E+03  0.69979015881E+03  0.10000000000E+01 0.  0.
<mgrwt>
<rscale>  0 0.12496464E+03</rscale>
<asrwt>0</asrwt>
<pdfrwt beam="1">  1        4 0.40880290E-03 0.12496464E+03</pdfrwt>
<pdfrwt beam="2">  1       -4 0.22603391E+00 0.12496464E+03</pdfrwt>
<totfact> 0.18503346E+03</totfact>
</mgrwt>
</event>
<event>
 5    1  0.3516911E-002  0.1250041E+03  0.7818608E-02  0.1235063E+00
         -4   -1    0    0    0  501 -0.00000000000E+00  0.00000000000E+00  0.65522599170E+01  0.66742048231E+01  0.12700000000E+01 0.  1.
          4   -1    0    0  501    0  0.00000000000E+00 -0.00000000000E+00 -0.59058813888E+03  0.59058950438E+03  0.12700000000E+01 0.  1.
         25    2    1    2    0    0  0.00000000000E+00  0.00000000000E+00 -0.58403587896E+03  0.59726370920E+03  0.12500412160E+03 0.  0.
    9000005    1    3    3    0    0 -0.46007012773E+02  0.18806481198E+02 -0.47302469178E+03  0.47562978039E+03  0.10000000000E+01 0.  0.
    9000005    1    3    3    0    0  0.46007012773E+02 -0.18806481198E+02 -0.11101118718E+03  0.12163392881E+03  0.10000000000E+01 0.  0.
<mgrwt>
<rscale>  0 0.12500412E+03</rscale>
<asrwt>0</asrwt>
<pdfrwt beam="2">  1        4 0.90869157E-01 0.12500412E+03</pdfrwt>
<pdfrwt beam="1">  1       -4 0.10175259E-02 0.12500412E+03</pdfrwt>
<totfact> 0.49036374E+03</totfact>
</mgrwt>
</event>
<event>
 5    1  0.3516911E-002  0.1250024E+03  0.7818608E-02  0.1235065E+00
          4   -1    0    0  501    0  0.00000000000E+00  0.00000000000E+00  0.95559709882E+03  0.95559794274E+03  0.12700000000E+01 0.  1.
         -4   -1    0    0    0  501 -0.00000000000E+00 -0.00000000000E+00 -0.39884133931E+01  0.41857306883E+01  0.12700000000E+01 0.  1.
         25    2    1    2    0    0  0.00000000000E+00  0.00000000000E+00  0.95160868543E+03  0.95978367343E+03  0.12500243839E+03 0.  0.
    9000005    1    3    3    0    0 -0.59939649115E+02  0.10944550419E+01  0.61130586784E+03  0.61423922328E+03  0.10000000000E+01 0.  0.
    9000005    1    3    3    0    0  0.59939649115E+02 -0.10944550419E+01  0.34030281759E+03  0.34554445015E+03  0.10000000000E+01 0.  0.
<mgrwt>
<rscale>  0 0.12500244E+03</rscale>
<asrwt>0</asrwt>
<pdfrwt beam="1">  1        4 0.14703034E+00 0.12500244E+03</pdfrwt>
<pdfrwt beam="2">  1       -4 0.62884454E-03 0.12500244E+03</pdfrwt>
<totfact> 0.31969399E+03</totfact>
</mgrwt>
</event>
<event>
 5    1  0.3516911E-002  0.1249987E+03  0.7818608E-02  0.1235071E+00
          4   -1    0    0  501    0  0.00000000000E+00  0.00000000000E+00  0.16031729730E+02  0.16081954425E+02  0.12700000000E+01 0.  1.
         -4   -1    0    0    0  501 -0.00000000000E+00 -0.00000000000E+00 -0.24321928491E+03  0.24322260062E+03  0.12700000000E+01 0.  1.
         25    2    1    2    0    0  0.00000000000E+00  0.00000000000E+00 -0.22718755518E+03  0.25930455504E+03  0.12499866814E+03 0.  0.
    9000005    1    3    3    0    0  0.85931081454E+01  0.61463802709E+02 -0.98416705368E+02  0.11635501041E+03  0.10000000000E+01 0.  0.
    9000005    1    3    3    0    0 -0.85931081454E+01 -0.61463802709E+02 -0.12877084981E+03  0.14294954464E+03  0.10000000000E+01 0.  0.
<mgrwt>
<rscale>  0 0.12499867E+03</rscale>
<asrwt>0</asrwt>
<pdfrwt beam="1">  1        4 0.24705386E-02 0.12499867E+03</pdfrwt>
<pdfrwt beam="2">  1       -4 0.37422467E-01 0.12499867E+03</pdfrwt>
<totfact> 0.81006159E+03</totfact>
</mgrwt>
</event>
<event>
 5    1  0.3516911E-002  0.1250044E+03  0.7818608E-02  0.1235062E+00
          4   -1    0    0  501    0  0.00000000000E+00  0.00000000000E+00  0.52164793907E+02  0.52180251278E+02  0.12700000000E+01 0. -1.
         -4   -1    0    0    0  501 -0.00000000000E+00 -0.00000000000E+00 -0.74856268774E+02  0.74867041312E+02  0.12700000000E+01 0. -1.
         25    2    1    2    0    0  0.00000000000E+00  0.00000000000E+00 -0.22691474867E+02  0.12704729259E+03  0.12500444601E+03 0.  0.
    9000005    1    3    3    0    0  0.69976494626E+00 -0.48344595169E+02  0.28897285239E+02  0.56335980041E+02  0.10000000000E+01 0.  0.
    9000005    1    3    3    0    0 -0.69976494626E+00  0.48344595169E+02 -0.51588760105E+02  0.70711312548E+02  0.10000000000E+01 0.  0.
<mgrwt>
<rscale>  0 0.12500445E+03</rscale>
<asrwt>0</asrwt>
<pdfrwt beam="1">  1        4 0.80273706E-02 0.12500445E+03</pdfrwt>
<pdfrwt beam="2">  1       -4 0.11518367E-01 0.12500445E+03</pdfrwt>
<totfact> 0.10407074E+04</totfact>
</mgrwt>
</event>
<event>
 5    1  0.3516911E-002  0.1250007E+03  0.7818608E-02  0.1235068E+00
          4   -1    0    0  501    0  0.00000000000E+00  0.00000000000E+00  0.10691775963E+03  0.10692530207E+03  0.12700000000E+01 0.  1.
         -4   -1    0    0    0  501 -0.00000000000E+00 -0.00000000000E+00 -0.36515614489E+02  0.36537692887E+02  0.12700000000E+01 0.  1.
         25    2    1    2    0    0  0.00000000000E+00  0.00000000000E+00  0.70402145136E+02  0.14346299496E+03  0.12500067553E+03 0.  0.
    9000005    1    3    3    0    0  0.34313946373E+02 -0.30185612863E+02  0.84118774113E+02  0.95737068567E+02  0.10000000000E+01 0.  0.
    9000005    1    3    3    0    0 -0.34313946373E+02  0.30185612863E+02 -0.13716628976E+02  0.47725926393E+02  0.10000000000E+01 0.  0.
<mgrwt>
<rscale>  0 0.12500068E+03</rscale>
<asrwt>0</asrwt>
<pdfrwt beam="1">  1        4 0.16451164E-01 0.12500068E+03</pdfrwt>
<pdfrwt beam="2">  1       -4 0.56200654E-02 0.12500068E+03</pdfrwt>
<totfact> 0.10062158E+04</totfact>
</mgrwt>
</event>
<event>
 5    1  0.3516911E-002  0.1250002E+03  0.7818608E-02  0.1235069E+00
         -4   -1    0    0    0  501 -0.00000000000E+00  0.00000000000E+00  0.34969833450E+02  0.34992887156E+02  0.12700000000E+01 0. -1.
          4   -1    0    0  501    0  0.00000000000E+00 -0.00000000000E+00 -0.11164036805E+03  0.11164759146E+03  0.12700000000E+01 0. -1.
         25    2    1    2    0    0  0.00000000000E+00  0.00000000000E+00 -0.76670534605E+02  0.14664047862E+03  0.12500023637E+03 0.  0.
    9000005    1    3    3    0    0  0.82733991389E+01  0.91627052626E+01  0.33530860307E+02  0.35745249950E+02  0.10000000000E+01 0.  0.
    9000005    1    3    3    0    0 -0.82733991389E+01 -0.91627052626E+01 -0.11020139491E+03  0.11089522867E+03  0.10000000000E+01 0.  0.
<mgrwt>
<rscale>  0 0.12500024E+03</rscale>
<asrwt>0</asrwt>
<pdfrwt beam="2">  1        4 0.17177770E-01 0.12500024E+03</pdfrwt>
<pdfrwt beam="1">  1       -4 0.53823034E-02 0.12500024E+03</pdfrwt>
<totfact> 0.99977103E+03</totfact>
</mgrwt>
</event>
<event>
 5    1  0.3516911E-002  0.1250041E+03  0.7818608E-02  0.1235063E+00
         -4   -1    0    0    0  501 -0.00000000000E+00  0.00000000000E+00  0.16441149952E+02  0.16490127705E+02  0.12700000000E+01 0.  1.
          4   -1    0    0  501    0  0.00000000000E+00 -0.00000000000E+00 -0.23720146270E+03  0.23720486253E+03  0.12700000000E+01 0.  1.
         25    2    1    2    0    0  0.00000000000E+00  0.00000000000E+00 -0.22076031275E+03  0.25369499023E+03  0.12500412947E+03 0.  0.
    9000005    1    3    3    0    0  0.41764381483E+02 -0.32472791429E+02 -0.42862910255E+02  0.68095336253E+02  0.10000000000E+01 0.  0.
    9000005    1    3    3    0    0 -0.41764381483E+02  0.32472791429E+02 -0.17789740249E+03  0.18559965398E+03  0.10000000000E+01 0.  0.
<mgrwt>
<rscale>  0 0.12500413E+03</rscale>
<asrwt>0</asrwt>
<pdfrwt beam="2">  1        4 0.36496559E-01 0.12500413E+03</pdfrwt>
<pdfrwt beam="1">  1       -4 0.25334369E-02 0.12500413E+03</pdfrwt>
<totfact> 0.81791582E+03</totfact>
</mgrwt>
</event>
<event>
 5    1  0.3516911E-002  0.1249971E+03  0.7818608E-02  0.1235074E+00
         -4   -1    0    0    0  501 -0.00000000000E+00  0.00000000000E+00  0.11976003706E+03  0.11976677075E+03  0.12700000000E+01 0.  1.
          4   -1    0    0  501    0  0.00000000000E+00 -0.00000000000E+00 -0.32595792258E+02  0.32620523799E+02  0.12700000000E+01 0.  1.
         25    2    1    2    0    0  0.00000000000E+00  0.00000000000E+00  0.87164244797E+02  0.15238729455E+03  0.12499712784E+03 0.  0.
    9000005    1    3    3    0    0 -0.16895758287E+02  0.29888277688E+02  0.10723750378E+03  0.11260398753E+03  0.10000000000E+01 0.  0.
    9000005    1    3    3    0    0  0.16895758287E+02 -0.29888277688E+02 -0.20073258980E+02  0.39783307018E+02  0.10000000000E+01 0.  0.
<mgrwt>
<rscale>  0 0.12499713E+03</rscale>
<asrwt>0</asrwt>
<pdfrwt beam="2">  1        4 0.50171578E-02 0.12499713E+03</pdfrwt>
<pdfrwt beam="1">  1       -4 0.18427041E-01 0.12499713E+03</pdfrwt>
<totfact> 0.98836325E+03</totfact>
</mgrwt>
</event>
<event>
 5    1  0.3516911E-002  0.1249973E+03  0.7818608E-02  0.1235074E+00
          4   -1    0    0  501    0  0.00000000000E+00  0.00000000000E+00  0.23683580900E+03  0.23683921408E+03  0.12700000000E+01 0. -1.
         -4   -1    0    0    0  501 -0.00000000000E+00 -0.00000000000E+00 -0.16464801522E+02  0.16513709128E+02  0.12700000000E+01 0. -1.
         25    2    1    2    0    0  0.00000000000E+00  0.00000000000E+00  0.22037100748E+03  0.25335292321E+03  0.12499729101E+03 0.  0.
    9000005    1    3    3    0    0 -0.35280411594E+01  0.24936017289E+02 -0.57333867734E+01  0.25848089998E+02  0.10000000000E+01 0.  0.
    9000005    1    3    3    0    0  0.35280411594E+01 -0.24936017289E+02  0.22610439425E+03  0.22750483321E+03  0.10000000000E+01 0.  0.
<mgrwt>
<rscale>  0 0.12499729E+03</rscale>
<asrwt>0</asrwt>
<pdfrwt beam="1">  1        4 0.36440300E-01 0.12499729E+03</pdfrwt>
<pdfrwt beam="2">  1       -4 0.25370706E-02 0.12499729E+03</pdfrwt>
<totfact> 0.81852967E+03</totfact>
</mgrwt>
</event>
<event>
 5    1  0.3516911E-002  0.1250016E+03  0.7818608E-02  0.1235067E+00
          4   -1    0    0  501    0  0.00000000000E+00  0.00000000000E+00  0.10052257092E+04  0.10052265115E+04  0.12700000000E+01 0.  1.
         -4   -1    0    0    0  501 -0.00000000000E+00 -0.00000000000E+00 -0.37814523501E+01  0.39890201649E+01  0.12700000000E+01 0.  1.
         25    2    1    2    0    0  0.00000000000E+00  0.00000000000E+00  0.10014442569E+04  0.10092155317E+04  0.12500155875E+03 0.  0.
    9000005    1    3    3    0    0  0.28298925984E+02 -0.50505133877E+02  0.31073453815E+03  0.31608313931E+03  0.10000000000E+01 0.  0.
    9000005    1    3    3    0    0 -0.28298925984E+02  0.50505133877E+02  0.69070971874E+03  0.69313239234E+03  0.10000000000E+01 0.  0.
<mgrwt>
<rscale>  0 0.12500156E+03</rscale>
<asrwt>0</asrwt>
<pdfrwt beam="1">  1        4 0.15466621E+00 0.12500156E+03</pdfrwt>
<pdfrwt beam="2">  1       -4 0.59779008E-03 0.12500156E+03</pdfrwt>
<totfact> 0.30301075E+03</totfact>
</mgrwt>
</event>
<event>
 5    1  0.3516911E-002  0.1250019E+03  0.7818608E-02  0.1235066E+00
          4   -1    0    0  501    0  0.00000000000E+00  0.00000000000E+00  0.17776290531E+03  0.17776744191E+03  0.12700000000E+01 0.  1.
         -4   -1    0    0    0  501 -0.00000000000E+00 -0.00000000000E+00 -0.21951986242E+02  0.21988692548E+02  0.12700000000E+01 0.  1.
         25    2    1    2    0    0  0.00000000000E+00  0.00000000000E+00  0.15581091907E+03  0.19975613446E+03  0.12500188300E+03 0.  0.
    9000005    1    3    3    0    0  0.68722345428E-02  0.11723481653E+02  0.17599774331E+03  0.17639060553E+03  0.10000000000E+01 0.  0.
    9000005    1    3    3    0    0 -0.68722345428E-02 -0.11723481653E+02 -0.20186824241E+02  0.23365528931E+02  0.10000000000E+01 0.  0.
<mgrwt>
<rscale>  0 0.12500188E+03</rscale>
<asrwt>0</asrwt>
<pdfrwt beam="1">  1        4 0.27351312E-01 0.12500188E+03</pdfrwt>
<pdfrwt beam="2">  1       -4 0.33804012E-02 0.12500188E+03</pdfrwt>
<totfact> 0.90172852E+03</totfact>
</mgrwt>
</event>
<event>
 5    1  0.3516911E-002  0.1250026E+03  0.7818608E-02  0.1235065E+00
         -4   -1    0    0    0  501 -0.00000000000E+00  0.00000000000E+00  0.14823463855E+03  0.14824007881E+03  0.12700000000E+01 0. -1.
          4   -1    0    0  501    0  0.00000000000E+00 -0.00000000000E+00 -0.26331680815E+02  0.26362289630E+02  0.12700000000E+01 0. -1.
         25    2    1    2    0    0  0.00000000000E+00  0.00000000000E+00  0.12190295774E+03  0.17460236844E+03  0.12500262382E+03 0.  0.
    9000005    1    3    3    0    0 -0.88396431483E+01 -0.51071457892E+02  0.12184095970E+02  0.53253030869E+02  0.10000000000E+01 0.  0.
    9000005    1    3    3    0    0  0.88396431483E+01  0.51071457892E+02  0.10971886177E+03  0.12134933757E+03  0.10000000000E+01 0.  0.
<mgrwt>
<rscale>  0 0.12500262E+03</rscale>
<asrwt>0</asrwt>
<pdfrwt beam="2">  1        4 0.40538008E-02 0.12500262E+03</pdfrwt>
<pdfrwt beam="1">  1       -4 0.22808102E-01 0.12500262E+03</pdfrwt>
<totfact> 0.94592148E+03</totfact>
</mgrwt>
</event>
<event>
 5    1  0.3516911E-002  0.1250406E+03  0.7818608E-02  0.1235006E+00
         -4   -1    0    0    0  501 -0.00000000000E+00  0.00000000000E+00  0.31241327718E+02  0.31267130626E+02  0.12700000000E+01 0. -1.
          4   -1    0    0  501    0  0.00000000000E+00 -0.00000000000E+00 -0.12503524869E+03  0.12504169830E+03  0.12700000000E+01 0. -1.
         25    2    1    2    0    0  0.00000000000E+00  0.00000000000E+00 -0.93793920970E+02  0.15630882893E+03  0.12504059497E+03 0.  0.
    9000005    1    3    3    0    0  0.13974354202E+02 -0.15582398898E+01 -0.12303889984E+03  0.12384377886E+03  0.10000000000E+01 0.  0.
    9000005    1    3    3    0    0 -0.13974354202E+02  0.15582398898E+01  0.29244978873E+02  0.32465050072E+02  0.10000000000E+01 0.  0.
<mgrwt>
<rscale>  0 0.12504059E+03</rscale>
<asrwt>0</asrwt>
<pdfrwt beam="2">  1        4 0.19238673E-01 0.12504059E+03</pdfrwt>
<pdfrwt beam="1">  1       -4 0.48088391E-02 0.12504059E+03</pdfrwt>
<totfact> 0.97969712E+03</totfact>
</mgrwt>
</event>
<event>
 4    1  0.3516911E-002  0.1248324E+03  0.7818608E-02  0.1235331E+00
         -4   -1    0    0    0  501 -0.00000000000E+00  0.00000000000E+00  0.23239144887E+01  0.26482972927E+01  0.12700000000E+01 0. -1.
          4   -1    0    0  501    0  0.00000000000E+00 -0.00000000000E+00 -0.15666969809E+04  0.15666974956E+04  0.12700000000E+01 0. -1.
    9000005    1    1    2    0    0  0.27478203514E+02 -0.19919505309E+01 -0.78202347256E+02  0.82919398525E+02  0.10000000000E+01 0.  0.
    9000005    1    1    2    0    0 -0.27478203514E+02  0.19919505309E+01 -0.14861707192E+04  0.14864263944E+04  0.10000000000E+01 0.  0.
<mgrwt>
<rscale>  0 0.12483240E+03</rscale>
<asrwt>0</asrwt>
<pdfrwt beam="2">  1        4 0.24105451E+00 0.12483240E+03</pdfrwt>
<pdfrwt beam="1">  1       -4 0.38251868E-03 0.12483240E+03</pdfrwt>
<totfact> 0.16667979E+03</totfact>
</mgrwt>
</event>
<event>
 5    1  0.3516911E-002  0.1249992E+03  0.7818608E-02  0.1235071E+00
          4   -1    0    0  501    0  0.00000000000E+00  0.00000000000E+00  0.59461741375E+02  0.59475302331E+02  0.12700000000E+01 0. -1.
         -4   -1    0    0    0  501 -0.00000000000E+00 -0.00000000000E+00 -0.65665446820E+02  0.65677726865E+02  0.12700000000E+01 0. -1.
         25    2    1    2    0    0  0.00000000000E+00  0.00000000000E+00 -0.62037054449E+01  0.12515302920E+03  0.12499917902E+03 0.  0.
    9000005    1    3    3    0    0  0.51740694918E+02 -0.32794891097E+02  0.92662577429E+01  0.61963440230E+02  0.10000000000E+01 0.  0.
    9000005    1    3    3    0    0 -0.51740694918E+02  0.32794891097E+02 -0.15469963188E+02  0.63189588966E+02  0.10000000000E+01 0.  0.
<mgrwt>
<rscale>  0 0.12499918E+03</rscale>
<asrwt>0</asrwt>
<pdfrwt beam="1">  1        4 0.91499480E-02 0.12499918E+03</pdfrwt>
<pdfrwt beam="2">  1       -4 0.10104364E-01 0.12499918E+03</pdfrwt>
<totfact> 0.10449734E+04</totfact>
</mgrwt>
</event>
<event>
 5    1  0.3516911E-002  0.1249983E+03  0.7818608E-02  0.1235072E+00
         -4   -1    0    0    0  501 -0.00000000000E+00  0.00000000000E+00  0.64894021025E+01  0.66125063061E+01  0.12700000000E+01 0.  1.
          4   -1    0    0  501    0  0.00000000000E+00 -0.00000000000E+00 -0.59614762804E+03  0.59614898081E+03  0.12700000000E+01 0.  1.
         25    2    1    2    0    0  0.00000000000E+00  0.00000000000E+00 -0.58965822594E+03  0.60276148712E+03  0.12499834772E+03 0.  0.
    9000005    1    3    3    0    0 -0.16235317253E+02 -0.19962790422E+02 -0.20218115641E+02  0.32739436888E+02  0.10000000000E+01 0.  0.
    9000005    1    3    3    0    0  0.16235317253E+02  0.19962790422E+02 -0.56944011030E+03  0.57002205023E+03  0.10000000000E+01 0.  0.
<mgrwt>
<rscale>  0 0.12499835E+03</rscale>
<asrwt>0</asrwt>
<pdfrwt beam="2">  1        4 0.91724550E-01 0.12499835E+03</pdfrwt>
<pdfrwt beam="1">  1       -4 0.10079436E-02 0.12499835E+03</pdfrwt>
<totfact> 0.48695541E+03</totfact>
</mgrwt>
</event>
<event>
 5    1  0.3516911E-002  0.1249945E+03  0.7818608E-02  0.1235078E+00
         -4   -1    0    0    0  501 -0.00000000000E+00  0.00000000000E+00  0.77187386879E+01  0.78225204974E+01  0.12700000000E+01 0. -1.
          4   -1    0    0  501    0  0.00000000000E+00 -0.00000000000E+00 -0.50254549493E+03  0.50254709966E+03  0.12700000000E+01 0. -1.
         25    2    1    2    0    0  0.00000000000E+00  0.00000000000E+00 -0.49482675625E+03  0.51036962016E+03  0.12499452182E+03 0.  0.
    9000005    1    3    3    0    0  0.37042469569E+02  0.34983511789E+02 -0.39513697892E+03  0.39840961680E+03  0.10000000000E+01 0.  0.
    9000005    1    3    3    0    0 -0.37042469569E+02 -0.34983511789E+02 -0.99689777330E+02  0.11196000336E+03  0.10000000000E+01 0.  0.
<mgrwt>
<rscale>  0 0.12499452E+03</rscale>
<asrwt>0</asrwt>
<pdfrwt beam="2">  1        4 0.77322773E-01 0.12499452E+03</pdfrwt>
<pdfrwt beam="1">  1       -4 0.11956053E-02 0.12499452E+03</pdfrwt>
<totfact> 0.55075336E+03</totfact>
</mgrwt>
</event>
<event>
 5    1  0.3516911E-002  0.1249995E+03  0.7818608E-02  0.1235070E+00
         -4   -1    0    0    0  501 -0.00000000000E+00  0.00000000000E+00  0.33887344868E+02  0.33911134488E+02  0.12700000000E+01 0. -1.
          4   -1    0    0  501    0  0.00000000000E+00 -0.00000000000E+00 -0.11520289983E+03  0.11520989987E+03  0.12700000000E+01 0. -1.
         25    2    1    2    0    0  0.00000000000E+00  0.00000000000E+00 -0.81315554959E+02  0.14912103436E+03  0.12499945364E+03 0.  0.
    9000005    1    3    3    0    0 -0.28283855548E+02  0.40035382483E+02  0.55829509247E+01  0.49345492968E+02  0.10000000000E+01 0.  0.
    9000005    1    3    3    0    0  0.28283855548E+02 -0.40035382483E+02 -0.86898505884E+02  0.99775541392E+02  0.10000000000E+01 0.  0.
<mgrwt>
<rscale>  0 0.12499945E+03</rscale>
<asrwt>0</asrwt>
<pdfrwt beam="2">  1        4 0.17725891E-01 0.12499945E+03</pdfrwt>
<pdfrwt beam="1">  1       -4 0.52158062E-02 0.12499945E+03</pdfrwt>
<totfact> 0.99480419E+03</totfact>
</mgrwt>
</event>
<event>
 5    1  0.3516911E-002  0.1249933E+03  0.7818608E-02  0.1235080E+00
         -4   -1    0    0    0  501 -0.00000000000E+00  0.00000000000E+00  0.83264891320E+02  0.83274576111E+02  0.12700000000E+01 0.  1.
          4   -1    0    0  501    0  0.00000000000E+00 -0.00000000000E+00 -0.46887474164E+02  0.46904670700E+02  0.12700000000E+01 0.  1.
         25    2    1    2    0    0  0.00000000000E+00  0.00000000000E+00  0.36377417156E+02  0.13017924681E+03  0.12499327911E+03 0.  0.
    9000005    1    3    3    0    0 -0.76792822618E+01 -0.41172201883E+02 -0.30111149613E+02  0.51592663383E+02  0.10000000000E+01 0.  0.
    9000005    1    3    3    0    0  0.76792822618E+01  0.41172201883E+02  0.66488566769E+02  0.78586583428E+02  0.10000000000E+01 0.  0.
<mgrwt>
<rscale>  0 0.12499328E+03</rscale>
<asrwt>0</asrwt>
<pdfrwt beam="2">  1        4 0.72155254E-02 0.12499328E+03</pdfrwt>
<pdfrwt beam="1">  1       -4 0.12812051E-01 0.12499328E+03</pdfrwt>
<totfact> 0.10342243E+04</totfact>
</mgrwt>
</event>
<event>
 5    1  0.3516911E-002  0.1249987E+03  0.7818608E-02  0.1235071E+00
         -4   -1    0    0    0  501 -0.00000000000E+00  0.00000000000E+00  0.15968334421E+03  0.15968839444E+03  0.12700000000E+01 0.  1.
          4   -1    0    0  501    0  0.00000000000E+00 -0.00000000000E+00 -0.24440029863E+02  0.24473004713E+02  0.12700000000E+01 0.  1.
         25    2    1    2    0    0  0.00000000000E+00  0.00000000000E+00  0.13524331434E+03  0.18416139915E+03  0.12499866744E+03 0.  0.
    9000005    1    3    3    0    0  0.49974215031E+02 -0.30700171963E+02  0.99400172830E+02  0.11541801023E+03  0.10000000000E+01 0.  0.
    9000005    1    3    3    0    0 -0.49974215031E+02  0.30700171963E+02  0.35843141515E+02  0.68743388920E+02  0.10000000000E+01 0.  0.
<mgrwt>
<rscale>  0 0.12499867E+03</rscale>
<asrwt>0</asrwt>
<pdfrwt beam="2">  1        4 0.37629297E-02 0.12499867E+03</pdfrwt>
<pdfrwt beam="1">  1       -4 0.24569593E-01 0.12499867E+03</pdfrwt>
<totfact> 0.92876030E+03</totfact>
</mgrwt>
</event>
<event>
 5    1  0.3516911E-002  0.1250005E+03  0.7818608E-02  0.1235069E+00
         -4   -1    0    0    0  501 -0.00000000000E+00  0.00000000000E+00  0.22604439286E+02  0.22640087796E+02  0.12700000000E+01 0. -1.
          4   -1    0    0  501    0  0.00000000000E+00 -0.00000000000E+00 -0.17263619655E+03  0.17264086787E+03  0.12700000000E+01 0. -1.
         25    2    1    2    0    0  0.00000000000E+00  0.00000000000E+00 -0.15003175726E+03  0.19528095567E+03  0.12500049383E+03 0.  0.
    9000005    1    3    3    0    0  0.47461433984E+02 -0.24459629029E+02 -0.12574471705E+03  0.13661476872E+03  0.10000000000E+01 0.  0.
    9000005    1    3    3    0    0 -0.47461433984E+02  0.24459629029E+02 -0.24287040216E+02  0.58666186943E+02  0.10000000000E+01 0.  0.
<mgrwt>
<rscale>  0 0.12500049E+03</rscale>
<asrwt>0</asrwt>
<pdfrwt beam="2">  1        4 0.26562516E-01 0.12500049E+03</pdfrwt>
<pdfrwt beam="1">  1       -4 0.34807077E-02 0.12500049E+03</pdfrwt>
<totfact> 0.90935473E+03</totfact>
</mgrwt>
</event>
<event>
 5    1  0.3516911E-002  0.1250004E+03  0.7818608E-02  0.1235069E+00
         -4   -1    0    0    0  501 -0.00000000000E+00  0.00000000000E+00  0.29726606402E+03  0.29726877690E+03  0.12700000000E+01 0.  1.
          4   -1    0    0  501    0  0.00000000000E+00 -0.00000000000E+00 -0.13107212556E+02  0.13168596014E+02  0.12700000000E+01 0.  1.
         25    2    1    2    0    0  0.00000000000E+00  0.00000000000E+00  0.28415885146E+03  0.31043737291E+03  0.12500043854E+03 0.  0.
    9000005    1    3    3    0    0  0.22486077958E+02 -0.16085671743E+02  0.28126359910E+03  0.28262092052E+03  0.10000000000E+01 0.  0.
    9000005    1    3    3    0    0 -0.22486077958E+02  0.16085671743E+02  0.28952523654E+01  0.27816452391E+02  0.10000000000E+01 0.  0.
<mgrwt>
<rscale>  0 0.12500044E+03</rscale>
<asrwt>0</asrwt>
<pdfrwt beam="2">  1        4 0.20214248E-02 0.12500044E+03</pdfrwt>
<pdfrwt beam="1">  1       -4 0.45738169E-01 0.12500044E+03</pdfrwt>
<totfact> 0.74307249E+03</totfact>
</mgrwt>
</event>
<event>
 5    1  0.3516911E-002  0.1249995E+03  0.7818608E-02  0.1235070E+00
         -4   -1    0    0    0  501 -0.00000000000E+00  0.00000000000E+00  0.58106227569E+02  0.58120104803E+02  0.12700000000E+01 0.  1.
          4   -1    0    0  501    0  0.00000000000E+00 -0.00000000000E+00 -0.67197592048E+02  0.67209592150E+02  0.12700000000E+01 0.  1.
         25    2    1    2    0    0  0.00000000000E+00  0.00000000000E+00 -0.90913644787E+01  0.12532969695E+03  0.12499952012E+03 0.  0.
    9000005    1    3    3    0    0 -0.33071934176E+02  0.33799596289E+02  0.36416293751E+02  0.59693483648E+02  0.10000000000E+01 0.  0.
    9000005    1    3    3    0    0  0.33071934176E+02 -0.33799596289E+02 -0.45507658229E+02  0.65636213305E+02  0.10000000000E+01 0.  0.
<mgrwt>
<rscale>  0 0.12499952E+03</rscale>
<asrwt>0</asrwt>
<pdfrwt beam="2">  1        4 0.10340082E-01 0.12499952E+03</pdfrwt>
<pdfrwt beam="1">  1       -4 0.89414101E-02 0.12499952E+03</pdfrwt>
<totfact> 0.10445819E+04</totfact>
</mgrwt>
</event>
<event>
 5    1  0.3516911E-002  0.1250035E+03  0.7818608E-02  0.1235064E+00
          4   -1    0    0  501    0  0.00000000000E+00  0.00000000000E+00  0.36599542413E+02  0.36621570213E+02  0.12700000000E+01 0.  1.
         -4   -1    0    0    0  501 -0.00000000000E+00 -0.00000000000E+00 -0.10667756501E+03  0.10668512444E+03  0.12700000000E+01 0.  1.
         25    2    1    2    0    0  0.00000000000E+00  0.00000000000E+00 -0.70078022596E+02  0.14330669465E+03  0.12500351787E+03 0.  0.
    9000005    1    3    3    0    0 -0.46015388738E+02 -0.39767990697E+02 -0.51515633439E+02  0.79710536150E+02  0.10000000000E+01 0.  0.
    9000005    1    3    3    0    0  0.46015388738E+02  0.39767990697E+02 -0.18562389157E+02  0.63596158500E+02  0.10000000000E+01 0.  0.
<mgrwt>
<rscale>  0 0.12500352E+03</rscale>
<asrwt>0</asrwt>
<pdfrwt beam="1">  1        4 0.56329748E-02 0.12500352E+03</pdfrwt>
<pdfrwt beam="2">  1       -4 0.16414209E-01 0.12500352E+03</pdfrwt>
<totfact> 0.10064709E+04</totfact>
</mgrwt>
</event>
<event>
 5    1  0.3516911E-002  0.1250196E+03  0.7818608E-02  0.1235039E+00
          4   -1    0    0  501    0  0.00000000000E+00  0.00000000000E+00  0.98446003284E+01  0.99261803140E+01  0.12700000000E+01 0.  1.
         -4   -1    0    0    0  501 -0.00000000000E+00 -0.00000000000E+00 -0.39519491896E+03  0.39519695960E+03  0.12700000000E+01 0.  1.
         25    2    1    2    0    0  0.00000000000E+00  0.00000000000E+00 -0.38535031864E+03  0.40512313991E+03  0.12501956015E+03 0.  0.
    9000005    1    3    3    0    0  0.20343757025E+02 -0.21984281546E+02 -0.14912105406E+02  0.33474586967E+02  0.10000000000E+01 0.  0.
    9000005    1    3    3    0    0 -0.20343757025E+02  0.21984281546E+02 -0.37043821323E+03  0.37164855294E+03  0.10000000000E+01 0.  0.
<mgrwt>
<rscale>  0 0.12501956E+03</rscale>
<asrwt>0</asrwt>
<pdfrwt beam="1">  1        4 0.15209866E-02 0.12501956E+03</pdfrwt>
<pdfrwt beam="2">  1       -4 0.60805638E-01 0.12501956E+03</pdfrwt>
<totfact> 0.64029908E+03</totfact>
</mgrwt>
</event>
<event>
 5    1  0.3516911E-002  0.1250003E+03  0.7818608E-02  0.1235069E+00
         -4   -1    0    0    0  501 -0.00000000000E+00  0.00000000000E+00  0.42379220616E+03  0.42379410909E+03  0.12700000000E+01 0.  1.
          4   -1    0    0  501    0  0.00000000000E+00 -0.00000000000E+00 -0.91717336885E+01  0.92592439677E+01  0.12700000000E+01 0.  1.
         25    2    1    2    0    0  0.00000000000E+00  0.00000000000E+00  0.41462047247E+03  0.43305335306E+03  0.12500028162E+03 0.  0.
    9000005    1    3    3    0    0 -0.92076484687E+01  0.59794847019E+02  0.15307652073E+03  0.16460141469E+03  0.10000000000E+01 0.  0.
    9000005    1    3    3    0    0  0.92076484687E+01 -0.59794847019E+02  0.26154395174E+03  0.26845193837E+03  0.10000000000E+01 0.  0.
<mgrwt>
<rscale>  0 0.12500028E+03</rscale>
<asrwt>0</asrwt>
<pdfrwt beam="2">  1        4 0.14179140E-02 0.12500028E+03</pdfrwt>
<pdfrwt beam="1">  1       -4 0.65205673E-01 0.12500028E+03</pdfrwt>
<totfact> 0.61459816E+03</totfact>
</mgrwt>
</event>
<event>
 5    1  0.3516911E-002  0.1249932E+03  0.7818608E-02  0.1235080E+00
         -4   -1    0    0    0  501 -0.00000000000E+00  0.00000000000E+00  0.34730409014E+02  0.34753621542E+02  0.12700000000E+01 0. -1.
          4   -1    0    0  501    0  0.00000000000E+00 -0.00000000000E+00 -0.11239678366E+03  0.11240395846E+03  0.12700000000E+01 0. -1.
         25    2    1    2    0    0  0.00000000000E+00  0.00000000000E+00 -0.77666374643E+02  0.14715758000E+03  0.12499315021E+03 0.  0.
    9000005    1    3    3    0    0 -0.38517211006E+02 -0.33087858096E+02 -0.81711750980E+02  0.96209106353E+02  0.10000000000E+01 0.  0.
    9000005    1    3    3    0    0  0.38517211006E+02  0.33087858096E+02  0.40453763367E+01  0.50948473645E+02  0.10000000000E+01 0.  0.
<mgrwt>
<rscale>  0 0.12499315E+03</rscale>
<asrwt>0</asrwt>
<pdfrwt beam="2">  1        4 0.17294150E-01 0.12499315E+03</pdfrwt>
<pdfrwt beam="1">  1       -4 0.53454774E-02 0.12499315E+03</pdfrwt>
<totfact> 0.99888742E+03</totfact>
</mgrwt>
</event>
<event>
 5    1  0.3516911E-002  0.1250152E+03  0.7818608E-02  0.1235046E+00
         -4   -1    0    0    0  501 -0.00000000000E+00  0.00000000000E+00  0.24766474710E+01  0.27832863122E+01  0.12700000000E+01 0. -1.
          4   -1    0    0  501    0  0.00000000000E+00 -0.00000000000E+00 -0.14853383593E+04  0.14853389022E+04  0.12700000000E+01 0. -1.
         25    2    1    2    0    0  0.00000000000E+00  0.00000000000E+00 -0.14828617118E+04  0.14881221885E+04  0.12501516569E+03 0.  0.
    9000005    1    3    3    0    0  0.38410662514E+02  0.12875933713E+01 -0.13281145844E+04  0.13286709096E+04  0.10000000000E+01 0.  0.
    9000005    1    3    3    0    0 -0.38410662514E+02 -0.12875933713E+01 -0.15474712742E+03  0.15945127888E+03  0.10000000000E+01 0.  0.
<mgrwt>
<rscale>  0 0.12501517E+03</rscale>
<asrwt>0</asrwt>
<pdfrwt beam="2">  1        4 0.22853655E+00 0.12501517E+03</pdfrwt>
<pdfrwt beam="1">  1       -4 0.40465324E-03 0.12501517E+03</pdfrwt>
<totfact> 0.18159231E+03</totfact>
</mgrwt>
</event>
<event>
 5    1  0.3516911E-002  0.1249935E+03  0.7818608E-02  0.1235079E+00
          4   -1    0    0  501    0  0.00000000000E+00  0.00000000000E+00  0.12283915225E+02  0.12349391615E+02  0.12700000000E+01 0.  1.
         -4   -1    0    0    0  501 -0.00000000000E+00 -0.00000000000E+00 -0.31705199102E+03  0.31705453460E+03  0.12700000000E+01 0.  1.
         25    2    1    2    0    0  0.00000000000E+00  0.00000000000E+00 -0.30476807580E+03  0.32940392622E+03  0.12499346616E+03 0.  0.
    9000005    1    3    3    0    0  0.46132996009E+02 -0.42131751532E+02 -0.14915225691E+03  0.16171188438E+03  0.10000000000E+01 0.  0.
    9000005    1    3    3    0    0 -0.46132996009E+02  0.42131751532E+02 -0.15561581889E+03  0.16769204184E+03  0.10000000000E+01 0.  0.
<mgrwt>
<rscale>  0 0.12499347E+03</rscale>
<asrwt>0</asrwt>
<pdfrwt beam="1">  1        4 0.18950657E-02 0.12499347E+03</pdfrwt>
<pdfrwt beam="2">  1       -4 0.48782456E-01 0.12499347E+03</pdfrwt>
<totfact> 0.72061872E+03</totfact>
</mgrwt>
</event>
<event>
 5    1  0.3516911E-002  0.1249978E+03  0.7818608E-02  0.1235073E+00
         -4   -1    0    0    0  501 -0.00000000000E+00  0.00000000000E+00  0.17520279257E+03  0.17520739546E+03  0.12700000000E+01 0. -1.
          4   -1    0    0  501    0  0.00000000000E+00 -0.00000000000E+00 -0.22271823980E+02  0.22308004021E+02  0.12700000000E+01 0. -1.
         25    2    1    2    0    0  0.00000000000E+00  0.00000000000E+00  0.15293096859E+03  0.19751539948E+03  0.12499780750E+03 0.  0.
    9000005    1    3    3    0    0  0.40307831464E+02 -0.22164446508E+02  0.96281078749E+01  0.47007280581E+02  0.10000000000E+01 0.  0.
    9000005    1    3    3    0    0 -0.40307831464E+02  0.22164446508E+02  0.14330286072E+03  0.15050811890E+03  0.10000000000E+01 0.  0.
<mgrwt>
<rscale>  0 0.12499781E+03</rscale>
<asrwt>0</asrwt>
<pdfrwt beam="2">  1        4 0.34295715E-02 0.12499781E+03</pdfrwt>
<pdfrwt beam="1">  1       -4 0.26957414E-01 0.12499781E+03</pdfrwt>
<totfact> 0.90560296E+03</totfact>
</mgrwt>
</event>
<event>
 5    1  0.3516911E-002  0.1250057E+03  0.7818608E-02  0.1235060E+00
         -4   -1    0    0    0  501 -0.00000000000E+00  0.00000000000E+00  0.99965418714E+02  0.99973485679E+02  0.12700000000E+01 0.  1.
          4   -1    0    0  501    0  0.00000000000E+00 -0.00000000000E+00 -0.39059597831E+02  0.39080239031E+02  0.12700000000E+01 0.  1.
         25    2    1    2    0    0  0.00000000000E+00  0.00000000000E+00  0.60905820883E+02  0.13905372471E+03  0.12500567722E+03 0.  0.
    9000005    1    3    3    0    0 -0.19110879536E+02 -0.13269794988E+02  0.94973705237E+02  0.97787104785E+02  0.10000000000E+01 0.  0.
    9000005    1    3    3    0    0  0.19110879536E+02  0.13269794988E+02 -0.34067884354E+02  0.41266619925E+02  0.10000000000E+01 0.  0.
<mgrwt>
<rscale>  0 0.12500568E+03</rscale>
<asrwt>0</asrwt>
<pdfrwt beam="2">  1        4 0.60113773E-02 0.12500568E+03</pdfrwt>
<pdfrwt beam="1">  1       -4 0.15381503E-01 0.12500568E+03</pdfrwt>
<totfact> 0.10151937E+04</totfact>
</mgrwt>
</event>
<event>
 5    1  0.3516911E-002  0.1250020E+03  0.7818608E-02  0.1235066E+00
         -4   -1    0    0    0  501 -0.00000000000E+00  0.00000000000E+00  0.45486571427E+03  0.45486748720E+03  0.12700000000E+01 0.  1.
          4   -1    0    0  501    0  0.00000000000E+00 -0.00000000000E+00 -0.85392244714E+01  0.86331485897E+01  0.12700000000E+01 0.  1.
         25    2    1    2    0    0  0.00000000000E+00  0.00000000000E+00  0.44632648980E+03  0.46350063579E+03  0.12500201554E+03 0.  0.
    9000005    1    3    3    0    0 -0.24902046360E+02 -0.23803442513E+02  0.29828111702E+02  0.45578855142E+02  0.10000000000E+01 0.  0.
    9000005    1    3    3    0    0  0.24902046360E+02  0.23803442513E+02  0.41649837809E+03  0.41792178065E+03  0.10000000000E+01 0.  0.
<mgrwt>
<rscale>  0 0.12500202E+03</rscale>
<asrwt>0</asrwt>
<pdfrwt beam="2">  1        4 0.13210879E-02 0.12500202E+03</pdfrwt>
<pdfrwt beam="1">  1       -4 0.69986715E-01 0.12500202E+03</pdfrwt>
<totfact> 0.58809203E+03</totfact>
</mgrwt>
</event>
<event>
 5    1  0.3516911E-002  0.1249862E+03  0.7818608E-02  0.1235091E+00
         -4   -1    0    0    0  501 -0.00000000000E+00  0.00000000000E+00  0.19658472359E+02  0.19699452670E+02  0.12700000000E+01 0. -1.
          4   -1    0    0  501    0  0.00000000000E+00 -0.00000000000E+00 -0.19841201269E+03  0.19841607717E+03  0.12700000000E+01 0. -1.
         25    2    1    2    0    0  0.00000000000E+00  0.00000000000E+00 -0.17875354033E+03  0.21811552984E+03  0.12498622395E+03 0.  0.
    9000005    1    3    3    0    0 -0.23211320443E+02 -0.66140752357E+01  0.11204301302E+02  0.26627950646E+02  0.10000000000E+01 0.  0.
    9000005    1    3    3    0    0  0.23211320443E+02  0.66140752357E+01 -0.18995784163E+03  0.19148757920E+03  0.10000000000E+01 0.  0.
<mgrwt>
<rscale>  0 0.12498622E+03</rscale>
<asrwt>0</asrwt>
<pdfrwt beam="2">  1        4 0.30528389E-01 0.12498622E+03</pdfrwt>
<pdfrwt beam="1">  1       -4 0.30278455E-02 0.12498622E+03</pdfrwt>
<totfact> 0.87194256E+03</totfact>
</mgrwt>
</event>
<event>
 5    1  0.3516911E-002  0.1249986E+03  0.7818608E-02  0.1235072E+00
          4   -1    0    0  501    0  0.00000000000E+00  0.00000000000E+00  0.31567227981E+02  0.31592764716E+02  0.12700000000E+01 0.  1.
         -4   -1    0    0    0  501 -0.00000000000E+00 -0.00000000000E+00 -0.12366219728E+03  0.12366871850E+03  0.12700000000E+01 0.  1.
         25    2    1    2    0    0  0.00000000000E+00  0.00000000000E+00 -0.92094969294E+02  0.15526148321E+03  0.12499857919E+03 0.  0.
    9000005    1    3    3    0    0 -0.24979521888E+02 -0.54739994992E+02 -0.25088712434E+02  0.65198827114E+02  0.10000000000E+01 0.  0.
    9000005    1    3    3    0    0  0.24979521888E+02  0.54739994992E+02 -0.67006256860E+02  0.90062656100E+02  0.10000000000E+01 0.  0.
<mgrwt>
<rscale>  0 0.12499858E+03</rscale>
<asrwt>0</asrwt>
<pdfrwt beam="1">  1        4 0.48589627E-02 0.12499858E+03</pdfrwt>
<pdfrwt beam="2">  1       -4 0.19027419E-01 0.12499858E+03</pdfrwt>
<totfact> 0.98267331E+03</totfact>
</mgrwt>
</event>
<event>
 5    1  0.3516911E-002  0.1249989E+03  0.7818608E-02  0.1235071E+00
         -4   -1    0    0    0  501 -0.00000000000E+00  0.00000000000E+00  0.40511131116E+02  0.40531033101E+02  0.12700000000E+01 0. -1.
          4   -1    0    0  501    0  0.00000000000E+00 -0.00000000000E+00 -0.96374709005E+02  0.96383076501E+02  0.12700000000E+01 0. -1.
         25    2    1    2    0    0  0.00000000000E+00  0.00000000000E+00 -0.55863577889E+02  0.13691410960E+03  0.12499893629E+03 0.  0.
    9000005    1    3    3    0    0 -0.62479709654E+02  0.69866498272E+00 -0.26846774460E+02  0.68014348119E+02  0.10000000000E+01 0.  0.
    9000005    1    3    3    0    0  0.62479709654E+02 -0.69866498272E+00 -0.29016803429E+02  0.68899761483E+02  0.10000000000E+01 0.  0.
<mgrwt>
<rscale>  0 0.12499894E+03</rscale>
<asrwt>0</asrwt>
<pdfrwt beam="2">  1        4 0.14829053E-01 0.12499894E+03</pdfrwt>
<pdfrwt beam="1">  1       -4 0.62346563E-02 0.12499894E+03</pdfrwt>
<totfact> 0.10198127E+04</totfact>
</mgrwt>
</event>
<event>
 5    1  0.3516911E-002  0.1250017E+03  0.7818608E-02  0.1235067E+00
          4   -1    0    0  501    0  0.00000000000E+00  0.00000000000E+00  0.24047125595E+02  0.24080638475E+02  0.12700000000E+01 0. -1.
         -4   -1    0    0    0  501 -0.00000000000E+00 -0.00000000000E+00 -0.16229685728E+03  0.16230182619E+03  0.12700000000E+01 0. -1.
         25    2    1    2    0    0  0.00000000000E+00  0.00000000000E+00 -0.13824973169E+03  0.18638246466E+03  0.12500173928E+03 0.  0.
    9000005    1    3    3    0    0  0.31071246341E+02  0.25865821850E+02 -0.14017871024E+03  0.14589562671E+03  0.10000000000E+01 0.  0.
    9000005    1    3    3    0    0 -0.31071246341E+02 -0.25865821850E+02  0.19289785502E+01  0.40486837953E+02  0.10000000000E+01 0.  0.
<mgrwt>
<rscale>  0 0.12500174E+03</rscale>
<asrwt>0</asrwt>
<pdfrwt beam="1">  1        4 0.37025180E-02 0.12500174E+03</pdfrwt>
<pdfrwt beam="2">  1       -4 0.24971707E-01 0.12500174E+03</pdfrwt>
<totfact> 0.92476988E+03</totfact>
</mgrwt>
</event>
<event>
 5    1  0.3516911E-002  0.1250042E+03  0.7818608E-02  0.1235063E+00
          4   -1    0    0  501    0  0.00000000000E+00  0.00000000000E+00  0.43559868541E+03  0.43560053677E+03  0.12700000000E+01 0.  1.
         -4   -1    0    0    0  501 -0.00000000000E+00 -0.00000000000E+00 -0.89213027387E+01  0.90112453387E+01  0.12700000000E+01 0.  1.
         25    2    1    2    0    0  0.00000000000E+00  0.00000000000E+00  0.42667738267E+03  0.44461178211E+03  0.12500419154E+03 0.  0.
    9000005    1    3    3    0    0 -0.42782501702E+02  0.42982006912E+02  0.15966595433E+03  0.17079816259E+03  0.10000000000E+01 0.  0.
    9000005    1    3    3    0    0  0.42782501702E+02 -0.42982006912E+02  0.26701142834E+03  0.27381361952E+03  0.10000000000E+01 0.  0.
<mgrwt>
<rscale>  0 0.12500419E+03</rscale>
<asrwt>0</asrwt>
<pdfrwt beam="1">  1        4 0.67022240E-01 0.12500419E+03</pdfrwt>
<pdfrwt beam="2">  1       -4 0.13795693E-02 0.12500419E+03</pdfrwt>
<totfact> 0.60427855E+03</totfact>
</mgrwt>
</event>
<event>
 5    1  0.3516911E-002  0.1250005E+03  0.7818608E-02  0.1235069E+00
         -4   -1    0    0    0  501 -0.00000000000E+00  0.00000000000E+00  0.37315592406E+03  0.37315808522E+03  0.12700000000E+01 0. -1.
          4   -1    0    0  501    0  0.00000000000E+00 -0.00000000000E+00 -0.10427502419E+02  0.10504556473E+02  0.12700000000E+01 0. -1.
         25    2    1    2    0    0  0.00000000000E+00  0.00000000000E+00  0.36272842164E+03  0.38366264169E+03  0.12500045904E+03 0.  0.
    9000005    1    3    3    0    0  0.23262848127E+02 -0.42392449507E+02  0.30286308074E+03  0.30670071006E+03  0.10000000000E+01 0.  0.
    9000005    1    3    3    0    0 -0.23262848127E+02  0.42392449507E+02  0.59865340908E+02  0.76961931630E+02  0.10000000000E+01 0.  0.
<mgrwt>
<rscale>  0 0.12500046E+03</rscale>
<asrwt>0</asrwt>
<pdfrwt beam="2">  1        4 0.16103249E-02 0.12500046E+03</pdfrwt>
<pdfrwt beam="1">  1       -4 0.57414689E-01 0.12500046E+03</pdfrwt>
<totfact> 0.66172706E+03</totfact>
</mgrwt>
</event>
<event>
 5    1  0.3516911E-002  0.1249976E+03  0.7818608E-02  0.1235073E+00
         -4   -1    0    0    0  501 -0.00000000000E+00  0.00000000000E+00  0.12139238041E+03  0.12139902357E+03  0.12700000000E+01 0. -1.
          4   -1    0    0  501    0  0.00000000000E+00 -0.00000000000E+00 -0.32157406486E+02  0.32182474919E+02  0.12700000000E+01 0. -1.
         25    2    1    2    0    0  0.00000000000E+00  0.00000000000E+00  0.89234973929E+02  0.15358149848E+03  0.12499758440E+03 0.  0.
    9000005    1    3    3    0    0  0.56976466881E+02 -0.89600120876E+01  0.15065359685E+02  0.59620169886E+02  0.10000000000E+01 0.  0.
    9000005    1    3    3    0    0 -0.56976466881E+02  0.89600120876E+01  0.74169614245E+02  0.93961328599E+02  0.10000000000E+01 0.  0.
<mgrwt>
<rscale>  0 0.12499758E+03</rscale>
<asrwt>0</asrwt>
<pdfrwt beam="2">  1        4 0.49497328E-02 0.12499758E+03</pdfrwt>
<pdfrwt beam="1">  1       -4 0.18678190E-01 0.12499758E+03</pdfrwt>
<totfact> 0.98599869E+03</totfact>
</mgrwt>
</event>
<event>
 5    1  0.3516911E-002  0.1249899E+03  0.7818608E-02  0.1235085E+00
         -4   -1    0    0    0  501 -0.00000000000E+00  0.00000000000E+00  0.14484393880E+03  0.14484950641E+03  0.12700000000E+01 0. -1.
          4   -1    0    0  501    0  0.00000000000E+00 -0.00000000000E+00 -0.26943294229E+02  0.26973209003E+02  0.12700000000E+01 0. -1.
         25    2    1    2    0    0  0.00000000000E+00  0.00000000000E+00  0.11790064457E+03  0.17182271541E+03  0.12498993376E+03 0.  0.
    9000005    1    3    3    0    0 -0.31870817105E+01 -0.42607798893E+02  0.12163145624E+03  0.12892165514E+03  0.10000000000E+01 0.  0.
    9000005    1    3    3    0    0  0.31870817105E+01  0.42607798893E+02 -0.37308116758E+01  0.42901060268E+02  0.10000000000E+01 0.  0.
<mgrwt>
<rscale>  0 0.12498993E+03</rscale>
<asrwt>0</asrwt>
<pdfrwt beam="2">  1        4 0.41478516E-02 0.12498993E+03</pdfrwt>
<pdfrwt beam="1">  1       -4 0.22286413E-01 0.12498993E+03</pdfrwt>
<totfact> 0.95131482E+03</totfact>
</mgrwt>
</event>
<event>
 5    1  0.3516911E-002  0.1249960E+03  0.7818608E-02  0.1235076E+00
          4   -1    0    0  501    0  0.00000000000E+00  0.00000000000E+00  0.68125040047E+02  0.68136876810E+02  0.12700000000E+01 0.  1.
         -4   -1    0    0    0  501 -0.00000000000E+00 -0.00000000000E+00 -0.57311881992E+02  0.57325951519E+02  0.12700000000E+01 0.  1.
         25    2    1    2    0    0  0.00000000000E+00  0.00000000000E+00  0.10813158054E+02  0.12546282833E+03  0.12499598756E+03 0.  0.
    9000005    1    3    3    0    0  0.35784901449E+02 -0.14504740094E+02  0.54723092212E+02  0.66981814533E+02  0.10000000000E+01 0.  0.
    9000005    1    3    3    0    0 -0.35784901449E+02  0.14504740094E+02 -0.43909934157E+02  0.58481013796E+02  0.10000000000E+01 0.  0.
<mgrwt>
<rscale>  0 0.12499599E+03</rscale>
<asrwt>0</asrwt>
<pdfrwt beam="1">  1        4 0.10482768E-01 0.12499599E+03</pdfrwt>
<pdfrwt beam="2">  1       -4 0.88192054E-02 0.12499599E+03</pdfrwt>
<totfact> 0.10443721E+04</totfact>
</mgrwt>
</event>
<event>
 5    1  0.3516911E-002  0.1250014E+03  0.7818608E-02  0.1235067E+00
          4   -1    0    0  501    0  0.00000000000E+00  0.00000000000E+00  0.69371425544E+01  0.70524355240E+01  0.12700000000E+01 0.  1.
         -4   -1    0    0    0  501 -0.00000000000E+00 -0.00000000000E+00 -0.55834834277E+03  0.55834978712E+03  0.12700000000E+01 0.  1.
         25    2    1    2    0    0  0.00000000000E+00  0.00000000000E+00 -0.55141120022E+03  0.56540222265E+03  0.12500144657E+03 0.  0.
    9000005    1    3    3    0    0  0.13448171089E+02 -0.17475649652E+02 -0.11222661801E+02  0.24762870881E+02  0.10000000000E+01 0.  0.
    9000005    1    3    3    0    0 -0.13448171089E+02  0.17475649652E+02 -0.54018853842E+03  0.54063935176E+03  0.10000000000E+01 0.  0.
<mgrwt>
<rscale>  0 0.12500145E+03</rscale>
<asrwt>0</asrwt>
<pdfrwt beam="1">  1        4 0.10762329E-02 0.12500145E+03</pdfrwt>
<pdfrwt beam="2">  1       -4 0.85908690E-01 0.12500145E+03</pdfrwt>
<totfact> 0.51125369E+03</totfact>
</mgrwt>
</event>
<event>
 5    1  0.3516911E-002  0.1250011E+03  0.7818608E-02  0.1235068E+00
          4   -1    0    0  501    0  0.00000000000E+00  0.00000000000E+00  0.41676477128E+02  0.41695822882E+02  0.12700000000E+01 0. -1.
         -4   -1    0    0    0  501 -0.00000000000E+00 -0.00000000000E+00 -0.93684199909E+02  0.93692807689E+02  0.12700000000E+01 0. -1.
         25    2    1    2    0    0  0.00000000000E+00  0.00000000000E+00 -0.52007722781E+02  0.13538863057E+03  0.12500111223E+03 0.  0.
    9000005    1    3    3    0    0 -0.30415872028E+02  0.54397952013E+02 -0.30973984992E+02  0.69603521468E+02  0.10000000000E+01 0.  0.
    9000005    1    3    3    0    0  0.30415872028E+02 -0.54397952013E+02 -0.21033737789E+02  0.65785109103E+02  0.10000000000E+01 0.  0.
<mgrwt>
<rscale>  0 0.12500111E+03</rscale>
<asrwt>0</asrwt>
<pdfrwt beam="1">  1        4 0.64139160E-02 0.12500111E+03</pdfrwt>
<pdfrwt beam="2">  1       -4 0.14415104E-01 0.12500111E+03</pdfrwt>
<totfact> 0.10229629E+04</totfact>
</mgrwt>
</event>
<event>
 5    1  0.3516911E-002  0.1250009E+03  0.7818608E-02  0.1235068E+00
          4   -1    0    0  501    0  0.00000000000E+00  0.00000000000E+00  0.58723935198E+02  0.58737666494E+02  0.12700000000E+01 0. -1.
         -4   -1    0    0    0  501 -0.00000000000E+00 -0.00000000000E+00 -0.66492233959E+02  0.66504361337E+02  0.12700000000E+01 0. -1.
         25    2    1    2    0    0  0.00000000000E+00  0.00000000000E+00 -0.77682987609E+01  0.12524202783E+03  0.12500087628E+03 0.  0.
    9000005    1    3    3    0    0 -0.13535176829E+02  0.60854977082E+02  0.45728278940E+00  0.62351730970E+02  0.10000000000E+01 0.  0.
    9000005    1    3    3    0    0  0.13535176829E+02 -0.60854977082E+02 -0.82255815503E+01  0.62890296861E+02  0.10000000000E+01 0.  0.
<mgrwt>
<rscale>  0 0.12500088E+03</rscale>
<asrwt>0</asrwt>
<pdfrwt beam="1">  1        4 0.90364407E-02 0.12500088E+03</pdfrwt>
<pdfrwt beam="2">  1       -4 0.10231564E-01 0.12500088E+03</pdfrwt>
<totfact> 0.10447401E+04</totfact>
</mgrwt>
</event>
<event>
 5    1  0.3516911E-002  0.1249977E+03  0.7818608E-02  0.1235073E+00
          4   -1    0    0  501    0  0.00000000000E+00  0.00000000000E+00  0.44936609428E+02  0.44954552238E+02  0.12700000000E+01 0. -1.
         -4   -1    0    0    0  501 -0.00000000000E+00 -0.00000000000E+00 -0.86884819756E+02  0.86894101089E+02  0.12700000000E+01 0. -1.
         25    2    1    2    0    0  0.00000000000E+00  0.00000000000E+00 -0.41948210328E+02  0.13184865333E+03  0.12499766012E+03 0.  0.
    9000005    1    3    3    0    0  0.54226279083E+02  0.21086091357E+02  0.30790358906E+01  0.58271717444E+02  0.10000000000E+01 0.  0.
    9000005    1    3    3    0    0 -0.54226279083E+02 -0.21086091357E+02 -0.45027246218E+02  0.73576935883E+02  0.10000000000E+01 0.  0.
<mgrwt>
<rscale>  0 0.12499766E+03</rscale>
<asrwt>0</asrwt>
<pdfrwt beam="1">  1        4 0.69154187E-02 0.12499766E+03</pdfrwt>
<pdfrwt beam="2">  1       -4 0.13368989E-01 0.12499766E+03</pdfrwt>
<totfact> 0.10305474E+04</totfact>
</mgrwt>
</event>
<event>
 5    1  0.3516911E-002  0.1250002E+03  0.7818608E-02  0.1235069E+00
          4   -1    0    0  501    0  0.00000000000E+00  0.00000000000E+00  0.35781549315E+02  0.35804080373E+02  0.12700000000E+01 0.  1.
         -4   -1    0    0    0  501 -0.00000000000E+00 -0.00000000000E+00 -0.10910913768E+03  0.10911652865E+03  0.12700000000E+01 0.  1.
         25    2    1    2    0    0  0.00000000000E+00  0.00000000000E+00 -0.73327588364E+02  0.14492060902E+03  0.12500019082E+03 0.  0.
    9000005    1    3    3    0    0  0.18190079266E+01  0.37713371401E+02 -0.94395592168E+02  0.10167170203E+03  0.10000000000E+01 0.  0.
    9000005    1    3    3    0    0 -0.18190079266E+01 -0.37713371401E+02  0.21068003804E+02  0.43248906998E+02  0.10000000000E+01 0.  0.
<mgrwt>
<rscale>  0 0.12500019E+03</rscale>
<asrwt>0</asrwt>
<pdfrwt beam="1">  1        4 0.55071555E-02 0.12500019E+03</pdfrwt>
<pdfrwt beam="2">  1       -4 0.16788323E-01 0.12500019E+03</pdfrwt>
<totfact> 0.10032559E+04</totfact>
</mgrwt>
</event>
<event>
 5    1  0.3516911E-002  0.1250015E+03  0.7818608E-02  0.1235067E+00
          4   -1    0    0  501    0  0.00000000000E+00  0.00000000000E+00  0.16484254938E+04  0.16484259830E+04  0.12700000000E+01 0. -1.
         -4   -1    0    0    0  501 -0.00000000000E+00 -0.00000000000E+00 -0.21990635382E+01  0.25394449088E+01  0.12700000000E+01 0. -1.
         25    2    1    2    0    0  0.00000000000E+00  0.00000000000E+00  0.16462264303E+04  0.16509654279E+04  0.12500153814E+03 0.  0.
    9000005    1    3    3    0    0 -0.58646127084E+02  0.17633681156E+02  0.65866385868E+03  0.66150539958E+03  0.10000000000E+01 0.  0.
    9000005    1    3    3    0    0  0.58646127084E+02 -0.17633681156E+02  0.98756257158E+03  0.98946002836E+03  0.10000000000E+01 0.  0.
<mgrwt>
<rscale>  0 0.12500154E+03</rscale>
<asrwt>0</asrwt>
<pdfrwt beam="1">  1        4 0.25362992E+00 0.12500154E+03</pdfrwt>
<pdfrwt beam="2">  1       -4 0.36453860E-03 0.12500154E+03</pdfrwt>
<totfact> 0.15142149E+03</totfact>
</mgrwt>
</event>
<event>
 5    1  0.3516911E-002  0.1250019E+03  0.7818608E-02  0.1235066E+00
         -4   -1    0    0    0  501 -0.00000000000E+00  0.00000000000E+00  0.29470539882E+01  0.32090539431E+01  0.12700000000E+01 0. -1.
          4   -1    0    0  501    0  0.00000000000E+00 -0.00000000000E+00 -0.12688414579E+04  0.12688420935E+04  0.12700000000E+01 0. -1.
         25    2    1    2    0    0  0.00000000000E+00  0.00000000000E+00 -0.12658944039E+04  0.12720511474E+04  0.12500191920E+03 0.  0.
    9000005    1    3    3    0    0 -0.46018156008E+02  0.42278961735E+02 -0.63736729825E+03  0.64042427669E+03  0.10000000000E+01 0.  0.
    9000005    1    3    3    0    0  0.46018156008E+02 -0.42278961735E+02 -0.62852710567E+03  0.63162687075E+03  0.10000000000E+01 0.  0.
<mgrwt>
<rscale>  0 0.12500192E+03</rscale>
<asrwt>0</asrwt>
<pdfrwt beam="2">  1        4 0.19522616E+00 0.12500192E+03</pdfrwt>
<pdfrwt beam="1">  1       -4 0.47359667E-03 0.12500192E+03</pdfrwt>
<totfact> 0.22897028E+03</totfact>
</mgrwt>
</event>
<event>
 5    1  0.3516911E-002  0.1250028E+03  0.7818608E-02  0.1235065E+00
          4   -1    0    0  501    0  0.00000000000E+00  0.00000000000E+00  0.94887732361E+02  0.94896230971E+02  0.12700000000E+01 0.  1.
         -4   -1    0    0    0  501 -0.00000000000E+00 -0.00000000000E+00 -0.41148807735E+02  0.41168401451E+02  0.12700000000E+01 0.  1.
         25    2    1    2    0    0  0.00000000000E+00  0.00000000000E+00  0.53738924625E+02  0.13606463242E+03  0.12500284867E+03 0.  0.
    9000005    1    3    3    0    0  0.26262369665E+02  0.42181220377E+02  0.68124045773E+02  0.84325873997E+02  0.10000000000E+01 0.  0.
    9000005    1    3    3    0    0 -0.26262369665E+02 -0.42181220377E+02 -0.14385121148E+02  0.51738758425E+02  0.10000000000E+01 0.  0.
<mgrwt>
<rscale>  0 0.12500285E+03</rscale>
<asrwt>0</asrwt>
<pdfrwt beam="1">  1        4 0.14600274E-01 0.12500285E+03</pdfrwt>
<pdfrwt beam="2">  1       -4 0.63327468E-02 0.12500285E+03</pdfrwt>
<totfact> 0.10215023E+04</totfact>
</mgrwt>
</event>
<event>
 5    1  0.3516911E-002  0.1250019E+03  0.7818608E-02  0.1235066E+00
         -4   -1    0    0    0  501 -0.00000000000E+00  0.00000000000E+00  0.17073779447E+03  0.17074251773E+03  0.12700000000E+01 0. -1.
          4   -1    0    0  501    0  0.00000000000E+00 -0.00000000000E+00 -0.22856668974E+02  0.22891924703E+02  0.12700000000E+01 0. -1.
         25    2    1    2    0    0  0.00000000000E+00  0.00000000000E+00  0.14788112550E+03  0.19363444243E+03  0.12500188006E+03 0.  0.
    9000005    1    3    3    0    0  0.59276769133E+01 -0.29173959910E+02  0.15905545390E+03  0.16182056330E+03  0.10000000000E+01 0.  0.
    9000005    1    3    3    0    0 -0.59276769133E+01  0.29173959910E+02 -0.11174328403E+02  0.31813879136E+02  0.10000000000E+01 0.  0.
<mgrwt>
<rscale>  0 0.12500188E+03</rscale>
<asrwt>0</asrwt>
<pdfrwt beam="2">  1        4 0.35194858E-02 0.12500188E+03</pdfrwt>
<pdfrwt beam="1">  1       -4 0.26270429E-01 0.12500188E+03</pdfrwt>
<totfact> 0.91214910E+03</totfact>
</mgrwt>
</event>
<event>
 5    1  0.3516911E-002  0.1249824E+03  0.7818608E-02  0.1235097E+00
         -4   -1    0    0    0  501 -0.00000000000E+00  0.00000000000E+00  0.12908099753E+02  0.12970425561E+02  0.12700000000E+01 0. -1.
          4   -1    0    0  501    0  0.00000000000E+00 -0.00000000000E+00 -0.30174254035E+03  0.30174521298E+03  0.12700000000E+01 0. -1.
         25    2    1    2    0    0  0.00000000000E+00  0.00000000000E+00 -0.28883444060E+03  0.31471563855E+03  0.12498239503E+03 0.  0.
    9000005    1    3    3    0    0  0.19957054157E+00 -0.55629746438E+02 -0.72776136467E+02  0.91608266855E+02  0.10000000000E+01 0.  0.
    9000005    1    3    3    0    0 -0.19957054157E+00  0.55629746438E+02 -0.21605830413E+03  0.22310737169E+03  0.10000000000E+01 0.  0.
<mgrwt>
<rscale>  0 0.12498240E+03</rscale>
<asrwt>0</asrwt>
<pdfrwt beam="2">  1        4 0.46426924E-01 0.12498240E+03</pdfrwt>
<pdfrwt beam="1">  1       -4 0.19908616E-02 0.12498240E+03</pdfrwt>
<totfact> 0.73817884E+03</totfact>
</mgrwt>
</event>
<event>
 5    1  0.3516911E-002  0.1249959E+03  0.7818608E-02  0.1235076E+00
          4   -1    0    0  501    0  0.00000000000E+00  0.00000000000E+00  0.24792364193E+02  0.24824871042E+02  0.12700000000E+01 0. -1.
         -4   -1    0    0    0  501 -0.00000000000E+00 -0.00000000000E+00 -0.15740994847E+03  0.15741507163E+03  0.12700000000E+01 0. -1.
         25    2    1    2    0    0  0.00000000000E+00  0.00000000000E+00 -0.13261758427E+03  0.18223994267E+03  0.12499589212E+03 0.  0.
    9000005    1    3    3    0    0  0.40981525734E+02 -0.11588769323E+01 -0.13506807090E+03  0.14115669387E+03  0.10000000000E+01 0.  0.
    9000005    1    3    3    0    0 -0.40981525734E+02  0.11588769323E+01  0.24504866305E+01  0.41083248800E+02  0.10000000000E+01 0.  0.
<mgrwt>
<rscale>  0 0.12499589E+03</rscale>
<asrwt>0</asrwt>
<pdfrwt beam="1">  1        4 0.38171046E-02 0.12499589E+03</pdfrwt>
<pdfrwt beam="2">  1       -4 0.24219809E-01 0.12499589E+03</pdfrwt>
<totfact> 0.93223938E+03</totfact>
</mgrwt>
</event>
<event>
 5    1  0.3516911E-002  0.1250012E+03  0.7818608E-02  0.1235067E+00
         -4   -1    0    0    0  501 -0.00000000000E+00  0.00000000000E+00  0.19672691305E+01  0.23415908762E+01  0.12700000000E+01 0.  1.
          4   -1    0    0  501    0  0.00000000000E+00 -0.00000000000E+00 -0.18127845479E+04  0.18127849928E+04  0.12700000000E+01 0.  1.
         25    2    1    2    0    0  0.00000000000E+00  0.00000000000E+00 -0.18108172788E+04  0.18151265837E+04  0.12500119024E+03 0.  0.
    9000005    1    3    3    0    0  0.29731657269E+02 -0.46354948147E+02 -0.13343454695E+04  0.13354817800E+04  0.10000000000E+01 0.  0.
    9000005    1    3    3    0    0 -0.29731657269E+02  0.46354948147E+02 -0.47647180933E+03  0.47964480373E+03  0.10000000000E+01 0.  0.
<mgrwt>
<rscale>  0 0.12500119E+03</rscale>
<asrwt>0</asrwt>
<pdfrwt beam="2">  1        4 0.27891754E+00 0.12500119E+03</pdfrwt>
<pdfrwt beam="1">  1       -4 0.33148644E-03 0.12500119E+03</pdfrwt>
<totfact> 0.12471681E+03</totfact>
</mgrwt>
</event>
<event>
 5    1  0.3516911E-002  0.1250072E+03  0.7818608E-02  0.1235058E+00
         -4   -1    0    0    0  501 -0.00000000000E+00  0.00000000000E+00  0.48782646862E+01  0.50408696024E+01  0.12700000000E+01 0. -1.
          4   -1    0    0  501    0  0.00000000000E+00 -0.00000000000E+00 -0.78754712807E+03  0.78754815207E+03  0.12700000000E+01 0. -1.
         25    2    1    2    0    0  0.00000000000E+00  0.00000000000E+00 -0.78266886339E+03  0.79258902168E+03  0.12500723006E+03 0.  0.
    9000005    1    3    3    0    0  0.42663669422E+02 -0.20770132473E+02 -0.13346744566E+03  0.14165502512E+03  0.10000000000E+01 0.  0.
    9000005    1    3    3    0    0 -0.42663669422E+02  0.20770132473E+02 -0.64920141773E+03  0.65093399656E+03  0.10000000000E+01 0.  0.
<mgrwt>
<rscale>  0 0.12500723E+03</rscale>
<asrwt>0</asrwt>
<pdfrwt beam="2">  1        4 0.12117358E+00 0.12500723E+03</pdfrwt>
<pdfrwt beam="1">  1       -4 0.76308973E-03 0.12500723E+03</pdfrwt>
<totfact> 0.38591653E+03</totfact>
</mgrwt>
</event>
<event>
 5    1  0.3516911E-002  0.1250058E+03  0.7818608E-02  0.1235060E+00
          4   -1    0    0  501    0  0.00000000000E+00  0.00000000000E+00  0.33117800041E+03  0.33118043549E+03  0.12700000000E+01 0. -1.
         -4   -1    0    0    0  501 -0.00000000000E+00 -0.00000000000E+00 -0.11759447785E+02  0.11827827873E+02  0.12700000000E+01 0. -1.
         25    2    1    2    0    0  0.00000000000E+00  0.00000000000E+00  0.31941855262E+03  0.34300826337E+03  0.12500582778E+03 0.  0.
    9000005    1    3    3    0    0  0.55274227267E+02  0.94390183648E+01  0.23541805507E+03  0.24200618984E+03  0.10000000000E+01 0.  0.
    9000005    1    3    3    0    0 -0.55274227267E+02 -0.94390183648E+01  0.84000497549E+02  0.10100207352E+03  0.10000000000E+01 0.  0.
<mgrwt>
<rscale>  0 0.12500583E+03</rscale>
<asrwt>0</asrwt>
<pdfrwt beam="1">  1        4 0.50955895E-01 0.12500583E+03</pdfrwt>
<pdfrwt beam="2">  1       -4 0.18145936E-02 0.12500583E+03</pdfrwt>
<totfact> 0.70491556E+03</totfact>
</mgrwt>
</event>
<event>
 5    1  0.3516911E-002  0.1249971E+03  0.7818608E-02  0.1235074E+00
          4   -1    0    0  501    0  0.00000000000E+00  0.00000000000E+00  0.30616271447E+02  0.30642600694E+02  0.12700000000E+01 0.  1.
         -4   -1    0    0    0  501 -0.00000000000E+00 -0.00000000000E+00 -0.12749715398E+03  0.12750347906E+03  0.12700000000E+01 0.  1.
         25    2    1    2    0    0  0.00000000000E+00  0.00000000000E+00 -0.96880882534E+02  0.15814607976E+03  0.12499710854E+03 0.  0.
    9000005    1    3    3    0    0  0.12870377532E+01  0.11139031370E+02 -0.12622012038E+03  0.12672116348E+03  0.10000000000E+01 0.  0.
    9000005    1    3    3    0    0 -0.12870377532E+01 -0.11139031370E+02  0.29339237841E+02  0.31424916279E+02  0.10000000000E+01 0.  0.
<mgrwt>
<rscale>  0 0.12499711E+03</rscale>
<asrwt>0</asrwt>
<pdfrwt beam="1">  1        4 0.47127075E-02 0.12499711E+03</pdfrwt>
<pdfrwt beam="2">  1       -4 0.19617458E-01 0.12499711E+03</pdfrwt>
<totfact> 0.97707753E+03</totfact>
</mgrwt>
</event>
<event>
 5    1  0.3516911E-002  0.1249946E+03  0.7818608E-02  0.1235078E+00
         -4   -1    0    0    0  501 -0.00000000000E+00  0.00000000000E+00  0.20617043198E+02  0.20656121859E+02  0.12700000000E+01 0.  1.
          4   -1    0    0  501    0  0.00000000000E+00 -0.00000000000E+00 -0.18922996224E+03  0.18923422394E+03  0.12700000000E+01 0.  1.
         25    2    1    2    0    0  0.00000000000E+00  0.00000000000E+00 -0.16861291904E+03  0.20989034580E+03  0.12499456305E+03 0.  0.
    9000005    1    3    3    0    0  0.20077397904E+02 -0.74940376356E+01 -0.18287464806E+03  0.18412875770E+03  0.10000000000E+01 0.  0.
    9000005    1    3    3    0    0 -0.20077397904E+02  0.74940376356E+01  0.14261729022E+02  0.25761588099E+02  0.10000000000E+01 0.  0.
<mgrwt>
<rscale>  0 0.12499456E+03</rscale>
<asrwt>0</asrwt>
<pdfrwt beam="2">  1        4 0.29115635E-01 0.12499456E+03</pdfrwt>
<pdfrwt beam="1">  1       -4 0.31751868E-02 0.12499456E+03</pdfrwt>
<totfact> 0.88504550E+03</totfact>
</mgrwt>
</event>
<event>
 5    1  0.3516911E-002  0.1249997E+03  0.7818608E-02  0.1235070E+00
         -4   -1    0    0    0  501 -0.00000000000E+00  0.00000000000E+00  0.12093889403E+03  0.12094556209E+03  0.12700000000E+01 0.  1.
          4   -1    0    0  501    0  0.00000000000E+00 -0.00000000000E+00 -0.32279194188E+02  0.32304168112E+02  0.12700000000E+01 0.  1.
         25    2    1    2    0    0  0.00000000000E+00  0.00000000000E+00  0.88659699840E+02  0.15324973020E+03  0.12499974972E+03 0.  0.
    9000005    1    3    3    0    0  0.58470846274E+02  0.11032329185E+02  0.67742353781E+02  0.90169721343E+02  0.10000000000E+01 0.  0.
    9000005    1    3    3    0    0 -0.58470846274E+02 -0.11032329185E+02  0.20917346059E+02  0.63080008857E+02  0.10000000000E+01 0.  0.
<mgrwt>
<rscale>  0 0.12499975E+03</rscale>
<asrwt>0</asrwt>
<pdfrwt beam="2">  1        4 0.49684637E-02 0.12499975E+03</pdfrwt>
<pdfrwt beam="1">  1       -4 0.18608418E-01 0.12499975E+03</pdfrwt>
<totfact> 0.98660368E+03</totfact>
</mgrwt>
</event>
<event>
 5    1  0.3516911E-002  0.1249986E+03  0.7818608E-02  0.1235072E+00
         -4   -1    0    0    0  501 -0.00000000000E+00  0.00000000000E+00  0.22299352149E+02  0.22335487599E+02  0.12700000000E+01 0.  1.
          4   -1    0    0  501    0  0.00000000000E+00 -0.00000000000E+00 -0.17498896453E+03  0.17499357305E+03  0.12700000000E+01 0.  1.
         25    2    1    2    0    0  0.00000000000E+00  0.00000000000E+00 -0.15268961238E+03  0.19732906064E+03  0.12499856177E+03 0.  0.
    9000005    1    3    3    0    0  0.59522868138E+02 -0.53771760307E+00 -0.46313113735E+02  0.75426556831E+02  0.10000000000E+01 0.  0.
    9000005    1    3    3    0    0 -0.59522868138E+02  0.53771760307E+00 -0.10637649865E+03  0.12190250381E+03  0.10000000000E+01 0.  0.
<mgrwt>
<rscale>  0 0.12499856E+03</rscale>
<asrwt>0</asrwt>
<pdfrwt beam="2">  1        4 0.26924512E-01 0.12499856E+03</pdfrwt>
<pdfrwt beam="1">  1       -4 0.34338038E-02 0.12499856E+03</pdfrwt>
<totfact> 0.90590405E+03</totfact>
</mgrwt>
</event>
<event>
 5    1  0.3516911E-002  0.1249690E+03  0.7818608E-02  0.1235118E+00
          4   -1    0    0  501    0  0.00000000000E+00  0.00000000000E+00  0.70021369470E+01  0.71163770154E+01  0.12700000000E+01 0.  1.
         -4   -1    0    0    0  501 -0.00000000000E+00 -0.00000000000E+00 -0.55296245497E+03  0.55296391338E+03  0.12700000000E+01 0.  1.
         25    2    1    2    0    0  0.00000000000E+00  0.00000000000E+00 -0.54596031802E+03  0.56008029040E+03  0.12496904753E+03 0.  0.
    9000005    1    3    3    0    0  0.56388361411E+02  0.17821157881E+02 -0.36329327301E+03  0.36807640944E+03  0.10000000000E+01 0.  0.
    9000005    1    3    3    0    0 -0.56388361411E+02 -0.17821157881E+02 -0.18266704501E+03  0.19200388096E+03  0.10000000000E+01 0.  0.
<mgrwt>
<rscale>  0 0.12496905E+03</rscale>
<asrwt>0</asrwt>
<pdfrwt beam="1">  1        4 0.10861522E-02 0.12496905E+03</pdfrwt>
<pdfrwt beam="2">  1       -4 0.85080013E-01 0.12496905E+03</pdfrwt>
<totfact> 0.51523486E+03</totfact>
</mgrwt>
</event>
<event>
 5    1  0.3516911E-002  0.1250019E+03  0.7818608E-02  0.1235066E+00
         -4   -1    0    0    0  501 -0.00000000000E+00  0.00000000000E+00  0.11868422544E+04  0.11868429339E+04  0.12700000000E+01 0. -1.
          4   -1    0    0  501    0  0.00000000000E+00 -0.00000000000E+00 -0.31681807614E+01  0.34132490881E+01  0.12700000000E+01 0. -1.
         25    2    1    2    0    0  0.00000000000E+00  0.00000000000E+00  0.11836740737E+04  0.11902561830E+04  0.12500187406E+03 0.  0.
    9000005    1    3    3    0    0 -0.19264505771E+01 -0.44851173597E+02  0.17787734235E+03  0.18345759157E+03  0.10000000000E+01 0.  0.
    9000005    1    3    3    0    0  0.19264505771E+01  0.44851173597E+02  0.10057967313E+04  0.10067985914E+04  0.10000000000E+01 0.  0.
<mgrwt>
<rscale>  0 0.12500187E+03</rscale>
<asrwt>0</asrwt>
<pdfrwt beam="2">  1        4 0.50631611E-03 0.12500187E+03</pdfrwt>
<pdfrwt beam="1">  1       -4 0.18261002E+00 0.12500187E+03</pdfrwt>
<totfact> 0.24968204E+03</totfact>
</mgrwt>
</event>
<event>
 4    1  0.3516911E-002  0.1251005E+03  0.7818608E-02  0.1234912E+00
          4   -1    0    0  501    0  0.00000000000E+00  0.00000000000E+00  0.74799420696E+02  0.74810201419E+02  0.12700000000E+01 0.  1.
         -4   -1    0    0    0  501 -0.00000000000E+00 -0.00000000000E+00 -0.52284768064E+02  0.52300189976E+02  0.12700000000E+01 0.  1.
    9000005    1    1    2    0    0 -0.24584871375E+02  0.55189277317E+02 -0.51659990255E+01  0.60646185183E+02  0.10000000000E+01 0.  0.
    9000005    1    1    2    0    0  0.24584871375E+02 -0.55189277317E+02  0.27680651657E+02  0.66464206213E+02  0.10000000000E+01 0.  0.
<mgrwt>
<rscale>  0 0.12510053E+03</rscale>
<asrwt>0</asrwt>
<pdfrwt beam="1">  1        4 0.11509619E-01 0.12510053E+03</pdfrwt>
<pdfrwt beam="2">  1       -4 0.80458260E-02 0.12510053E+03</pdfrwt>
<totfact> 0.10383168E+04</totfact>
</mgrwt>
</event>
<event>
 5    1  0.3516911E-002  0.1249984E+03  0.7818608E-02  0.1235072E+00
         -4   -1    0    0    0  501 -0.00000000000E+00  0.00000000000E+00  0.10778118607E+02  0.10852683572E+02  0.12700000000E+01 0.  1.
          4   -1    0    0  501    0  0.00000000000E+00 -0.00000000000E+00 -0.36108983289E+03  0.36109206626E+03  0.12700000000E+01 0.  1.
         25    2    1    2    0    0  0.00000000000E+00  0.00000000000E+00 -0.35031171428E+03  0.37194474983E+03  0.12499839905E+03 0.  0.
    9000005    1    3    3    0    0  0.15406056716E+02  0.35550944289E+02 -0.29262597861E+02  0.48564553503E+02  0.10000000000E+01 0.  0.
    9000005    1    3    3    0    0 -0.15406056716E+02 -0.35550944289E+02 -0.32104911642E+03  0.32338019633E+03  0.10000000000E+01 0.  0.
<mgrwt>
<rscale>  0 0.12499840E+03</rscale>
<asrwt>0</asrwt>
<pdfrwt beam="2">  1        4 0.55558180E-01 0.12499840E+03</pdfrwt>
<pdfrwt beam="1">  1       -4 0.16640799E-02 0.12499840E+03</pdfrwt>
<totfact> 0.67378358E+03</totfact>
</mgrwt>
</event>
<event>
 5    1  0.3516911E-002  0.1250002E+03  0.7818608E-02  0.1235069E+00
          4   -1    0    0  501    0  0.00000000000E+00  0.00000000000E+00  0.28637205104E+02  0.28665352190E+02  0.12700000000E+01 0.  1.
         -4   -1    0    0    0  501 -0.00000000000E+00 -0.00000000000E+00 -0.13630701729E+03  0.13631293359E+03  0.12700000000E+01 0.  1.
         25    2    1    2    0    0  0.00000000000E+00  0.00000000000E+00 -0.10766981219E+03  0.16497828578E+03  0.12500018528E+03 0.  0.
    9000005    1    3    3    0    0 -0.53632425286E+02  0.18518744421E+02 -0.88400211877E+02  0.10504750543E+03  0.10000000000E+01 0.  0.
    9000005    1    3    3    0    0  0.53632425286E+02 -0.18518744421E+02 -0.19269600311E+02  0.59930780348E+02  0.10000000000E+01 0.  0.
<mgrwt>
<rscale>  0 0.12500019E+03</rscale>
<asrwt>0</asrwt>
<pdfrwt beam="1">  1        4 0.44083442E-02 0.12500019E+03</pdfrwt>
<pdfrwt beam="2">  1       -4 0.20972930E-01 0.12500019E+03</pdfrwt>
<totfact> 0.96391104E+03</totfact>
</mgrwt>
</event>
<event>
 5    1  0.3516911E-002  0.1249930E+03  0.7818608E-02  0.1235080E+00
          4   -1    0    0  501    0  0.00000000000E+00  0.00000000000E+00  0.61066646111E+02  0.61079850747E+02  0.12700000000E+01 0. -1.
         -4   -1    0    0    0  501 -0.00000000000E+00 -0.00000000000E+00 -0.63933378596E+02  0.63945991264E+02  0.12700000000E+01 0. -1.
         25    2    1    2    0    0  0.00000000000E+00  0.00000000000E+00 -0.28667324852E+01  0.12502584201E+03  0.12499297186E+03 0.  0.
    9000005    1    3    3    0    0 -0.25291981475E+02 -0.54166712477E+02  0.16767398813E+02  0.62095593487E+02  0.10000000000E+01 0.  0.
    9000005    1    3    3    0    0  0.25291981475E+02  0.54166712477E+02 -0.19634131298E+02  0.62930248524E+02  0.10000000000E+01 0.  0.
<mgrwt>
<rscale>  0 0.12499297E+03</rscale>
<asrwt>0</asrwt>
<pdfrwt beam="1">  1        4 0.93968546E-02 0.12499297E+03</pdfrwt>
<pdfrwt beam="2">  1       -4 0.98378903E-02 0.12499297E+03</pdfrwt>
<totfact> 0.10453962E+04</totfact>
</mgrwt>
</event>
<event>
 5    1  0.3516911E-002  0.1250021E+03  0.7818608E-02  0.1235066E+00
         -4   -1    0    0    0  501 -0.00000000000E+00  0.00000000000E+00  0.18968706146E+02  0.19011173369E+02  0.12700000000E+01 0. -1.
          4   -1    0    0  501    0  0.00000000000E+00 -0.00000000000E+00 -0.20566365306E+03  0.20566757423E+03  0.12700000000E+01 0. -1.
         25    2    1    2    0    0  0.00000000000E+00  0.00000000000E+00 -0.18669494691E+03  0.22467874760E+03  0.12500214566E+03 0.  0.
    9000005    1    3    3    0    0 -0.54463290523E+02  0.27433362137E+02 -0.68798348220E+02  0.91940481239E+02  0.10000000000E+01 0.  0.
    9000005    1    3    3    0    0  0.54463290523E+02 -0.27433362137E+02 -0.11789659869E+03  0.13273826636E+03  0.10000000000E+01 0.  0.
<mgrwt>
<rscale>  0 0.12500215E+03</rscale>
<asrwt>0</asrwt>
<pdfrwt beam="2">  1        4 0.31644129E-01 0.12500215E+03</pdfrwt>
<pdfrwt beam="1">  1       -4 0.29218310E-02 0.12500215E+03</pdfrwt>
<totfact> 0.86129245E+03</totfact>
</mgrwt>
</event>
<event>
 5    1  0.3516911E-002  0.1250023E+03  0.7818608E-02  0.1235066E+00
         -4   -1    0    0    0  501 -0.00000000000E+00  0.00000000000E+00  0.19217240880E+02  0.19259160081E+02  0.12700000000E+01 0. -1.
          4   -1    0    0  501    0  0.00000000000E+00 -0.00000000000E+00 -0.20301020793E+03  0.20301418036E+03  0.12700000000E+01 0. -1.
         25    2    1    2    0    0  0.00000000000E+00  0.00000000000E+00 -0.18379296705E+03  0.22227334044E+03  0.12500233250E+03 0.  0.
    9000005    1    3    3    0    0  0.14739352331E+02 -0.38299933181E+02 -0.17570134094E+03  0.18043307512E+03  0.10000000000E+01 0.  0.
    9000005    1    3    3    0    0 -0.14739352331E+02  0.38299933181E+02 -0.80916261174E+01  0.41840265320E+02  0.10000000000E+01 0.  0.
<mgrwt>
<rscale>  0 0.12500233E+03</rscale>
<asrwt>0</asrwt>
<pdfrwt beam="2">  1        4 0.31235868E-01 0.12500233E+03</pdfrwt>
<pdfrwt beam="1">  1       -4 0.29600289E-02 0.12500233E+03</pdfrwt>
<totfact> 0.86505391E+03</totfact>
</mgrwt>
</event>
<event>
 5    1  0.3516911E-002  0.1249996E+03  0.7818608E-02  0.1235070E+00
          4   -1    0    0  501    0  0.00000000000E+00  0.00000000000E+00  0.85072485191E+01  0.86015218052E+01  0.12700000000E+01 0. -1.
         -4   -1    0    0    0  501 -0.00000000000E+00 -0.00000000000E+00 -0.45653925446E+03  0.45654102090E+03  0.12700000000E+01 0. -1.
         25    2    1    2    0    0  0.00000000000E+00  0.00000000000E+00 -0.44803200594E+03  0.46514254270E+03  0.12499962674E+03 0.  0.
    9000005    1    3    3    0    0 -0.54469693026E+02 -0.10004161958E+02 -0.33174934369E+03  0.33634157899E+03  0.10000000000E+01 0.  0.
    9000005    1    3    3    0    0  0.54469693026E+02  0.10004161958E+02 -0.11628266225E+03  0.12880096372E+03  0.10000000000E+01 0.  0.
<mgrwt>
<rscale>  0 0.12499963E+03</rscale>
<asrwt>0</asrwt>
<pdfrwt beam="1">  1        4 0.13161955E-02 0.12499963E+03</pdfrwt>
<pdfrwt beam="2">  1       -4 0.70244177E-01 0.12499963E+03</pdfrwt>
<totfact> 0.58674572E+03</totfact>
</mgrwt>
</event>
<event>
 5    1  0.3516911E-002  0.1250006E+03  0.7818608E-02  0.1235068E+00
         -4   -1    0    0    0  501 -0.00000000000E+00  0.00000000000E+00  0.72312907378E+03  0.72313018900E+03  0.12700000000E+01 0.  1.
          4   -1    0    0  501    0  0.00000000000E+00 -0.00000000000E+00 -0.53261413550E+01  0.54754617827E+01  0.12700000000E+01 0.  1.
         25    2    1    2    0    0  0.00000000000E+00  0.00000000000E+00  0.71780293242E+03  0.72860565078E+03  0.12500057823E+03 0.  0.
    9000005    1    3    3    0    0  0.97322140268E+01 -0.45630169708E+02  0.60123298196E+03  0.60304139740E+03  0.10000000000E+01 0.  0.
    9000005    1    3    3    0    0 -0.97322140268E+01  0.45630169708E+02  0.11656995046E+03  0.12556425339E+03  0.10000000000E+01 0.  0.
<mgrwt>
<rscale>  0 0.12500058E+03</rscale>
<asrwt>0</asrwt>
<pdfrwt beam="2">  1        4 0.83097852E-03 0.12500058E+03</pdfrwt>
<pdfrwt beam="1">  1       -4 0.11126217E+00 0.12500058E+03</pdfrwt>
<totfact> 0.41618403E+03</totfact>
</mgrwt>
</event>
<event>
 5    1  0.3516911E-002  0.1249990E+03  0.7818608E-02  0.1235071E+00
         -4   -1    0    0    0  501 -0.00000000000E+00  0.00000000000E+00  0.21203713143E+04  0.21203716947E+04  0.12700000000E+01 0. -1.
          4   -1    0    0  501    0  0.00000000000E+00 -0.00000000000E+00 -0.16229130870E+01  0.20607636662E+01  0.12700000000E+01 0. -1.
         25    2    1    2    0    0  0.00000000000E+00  0.00000000000E+00  0.21187484012E+04  0.21224324583E+04  0.12499900962E+03 0.  0.
    9000005    1    3    3    0    0  0.44683178492E+02  0.33356401057E+02  0.58033528883E+03  0.58300881931E+03  0.10000000000E+01 0.  0.
    9000005    1    3    3    0    0 -0.44683178492E+02 -0.33356401057E+02  0.15384131124E+04  0.15394236390E+04  0.10000000000E+01 0.  0.
<mgrwt>
<rscale>  0 0.12499901E+03</rscale>
<asrwt>0</asrwt>
<pdfrwt beam="2">  1        4 0.28338913E-03 0.12499901E+03</pdfrwt>
<pdfrwt beam="1">  1       -4 0.32624454E+00 0.12499901E+03</pdfrwt>
<totfact> 0.83468730E+02</totfact>
</mgrwt>
</event>
<event>
 5    1  0.3516911E-002  0.1249964E+03  0.7818608E-02  0.1235075E+00
          4   -1    0    0  501    0  0.00000000000E+00  0.00000000000E+00  0.16596064753E+04  0.16596069613E+04  0.12700000000E+01 0.  1.
         -4   -1    0    0    0  501 -0.00000000000E+00 -0.00000000000E+00 -0.21817402093E+01  0.25244584253E+01  0.12700000000E+01 0.  1.
         25    2    1    2    0    0  0.00000000000E+00  0.00000000000E+00  0.16574247351E+04  0.16621314197E+04  0.12499641479E+03 0.  0.
    9000005    1    3    3    0    0 -0.50172742454E+02 -0.34524941951E+02  0.64266696689E+03  0.64554713696E+03  0.10000000000E+01 0.  0.
    9000005    1    3    3    0    0  0.50172742454E+02  0.34524941951E+02  0.10147577682E+04  0.10165842827E+04  0.10000000000E+01 0.  0.
<mgrwt>
<rscale>  0 0.12499641E+03</rscale>
<asrwt>0</asrwt>
<pdfrwt beam="1">  1        4 0.25535073E+00 0.12499641E+03</pdfrwt>
<pdfrwt beam="2">  1       -4 0.36205230E-03 0.12499641E+03</pdfrwt>
<totfact> 0.14950742E+03</totfact>
</mgrwt>
</event>
<event>
 5    1  0.3516911E-002  0.1249975E+03  0.7818608E-02  0.1235073E+00
         -4   -1    0    0    0  501 -0.00000000000E+00  0.00000000000E+00  0.19920339447E+02  0.19960782141E+02  0.12700000000E+01 0. -1.
          4   -1    0    0  501    0  0.00000000000E+00 -0.00000000000E+00 -0.19584430449E+03  0.19584842226E+03  0.12700000000E+01 0. -1.
         25    2    1    2    0    0  0.00000000000E+00  0.00000000000E+00 -0.17592396504E+03  0.21580920440E+03  0.12499748488E+03 0.  0.
    9000005    1    3    3    0    0  0.62136323362E+02 -0.66422376393E+01 -0.88351137054E+02  0.10822183431E+03  0.10000000000E+01 0.  0.
    9000005    1    3    3    0    0 -0.62136323362E+02  0.66422376393E+01 -0.87572827989E+02  0.10758737009E+03  0.10000000000E+01 0.  0.
<mgrwt>
<rscale>  0 0.12499748E+03</rscale>
<asrwt>0</asrwt>
<pdfrwt beam="2">  1        4 0.30133319E-01 0.12499748E+03</pdfrwt>
<pdfrwt beam="1">  1       -4 0.30680955E-02 0.12499748E+03</pdfrwt>
<totfact> 0.87540783E+03</totfact>
</mgrwt>
</event>
<event>
 5    1  0.3516911E-002  0.1250010E+03  0.7818608E-02  0.1235068E+00
         -4   -1    0    0    0  501 -0.00000000000E+00  0.00000000000E+00  0.98423184685E+01  0.99239172122E+01  0.12700000000E+01 0.  1.
          4   -1    0    0  501    0  0.00000000000E+00 -0.00000000000E+00 -0.39516851162E+03  0.39517055239E+03  0.12700000000E+01 0.  1.
         25    2    1    2    0    0  0.00000000000E+00  0.00000000000E+00 -0.38532619315E+03  0.40509446960E+03  0.12500101669E+03 0.  0.
    9000005    1    3    3    0    0  0.13714697809E+00  0.33075967769E+02 -0.20834896397E+02  0.39104109261E+02  0.10000000000E+01 0.  0.
    9000005    1    3    3    0    0 -0.13714697809E+00 -0.33075967769E+02 -0.36449129675E+03  0.36599036034E+03  0.10000000000E+01 0.  0.
<mgrwt>
<rscale>  0 0.12500102E+03</rscale>
<asrwt>0</asrwt>
<pdfrwt beam="2">  1        4 0.60801577E-01 0.12500102E+03</pdfrwt>
<pdfrwt beam="1">  1       -4 0.15206370E-02 0.12500102E+03</pdfrwt>
<totfact> 0.64058873E+03</totfact>
</mgrwt>
</event>
<event>
 5    1  0.3516911E-002  0.1250066E+03  0.7818608E-02  0.1235059E+00
         -4   -1    0    0    0  501 -0.00000000000E+00  0.00000000000E+00  0.18357117401E+03  0.18357556708E+03  0.12700000000E+01 0.  1.
          4   -1    0    0  501    0  0.00000000000E+00 -0.00000000000E+00 -0.21257868911E+02  0.21295771661E+02  0.12700000000E+01 0.  1.
         25    2    1    2    0    0  0.00000000000E+00  0.00000000000E+00  0.16231330510E+03  0.20487133874E+03  0.12500662552E+03 0.  0.
    9000005    1    3    3    0    0 -0.17806467819E+02 -0.52106148044E+02  0.32718189586E+02  0.64059354430E+02  0.10000000000E+01 0.  0.
    9000005    1    3    3    0    0  0.17806467819E+02  0.52106148044E+02  0.12959511551E+03  0.14081198431E+03  0.10000000000E+01 0.  0.
<mgrwt>
<rscale>  0 0.12500663E+03</rscale>
<asrwt>0</asrwt>
<pdfrwt beam="2">  1        4 0.32736949E-02 0.12500663E+03</pdfrwt>
<pdfrwt beam="1">  1       -4 0.28244972E-01 0.12500663E+03</pdfrwt>
<totfact> 0.89307133E+03</totfact>
</mgrwt>
</event>
<event>
 5    1  0.3516911E-002  0.1249943E+03  0.7818608E-02  0.1235078E+00
          4   -1    0    0  501    0  0.00000000000E+00  0.00000000000E+00  0.66086054200E+01  0.67295293741E+01  0.12700000000E+01 0. -1.
         -4   -1    0    0    0  501 -0.00000000000E+00 -0.00000000000E+00 -0.58555139830E+03  0.58555277555E+03  0.12700000000E+01 0. -1.
         25    2    1    2    0    0  0.00000000000E+00  0.00000000000E+00 -0.57894279288E+03  0.59228230492E+03  0.12499428505E+03 0.  0.
    9000005    1    3    3    0    0  0.50788125663E+02  0.66224909896E+01 -0.45910627151E+03  0.46195547365E+03  0.10000000000E+01 0.  0.
    9000005    1    3    3    0    0 -0.50788125663E+02 -0.66224909896E+01 -0.11983652137E+03  0.13032683128E+03  0.10000000000E+01 0.  0.
<mgrwt>
<rscale>  0 0.12499429E+03</rscale>
<asrwt>0</asrwt>
<pdfrwt beam="1">  1        4 0.10261168E-02 0.12499429E+03</pdfrwt>
<pdfrwt beam="2">  1       -4 0.90094198E-01 0.12499429E+03</pdfrwt>
<totfact> 0.49364629E+03</totfact>
</mgrwt>
</event>
<event>
 5    1  0.3516911E-002  0.1250014E+03  0.7818608E-02  0.1235067E+00
          4   -1    0    0  501    0  0.00000000000E+00  0.00000000000E+00  0.10958452290E+03  0.10959188182E+03  0.12700000000E+01 0.  1.
         -4   -1    0    0    0  501 -0.00000000000E+00 -0.00000000000E+00 -0.35626939210E+02  0.35649567985E+02  0.12700000000E+01 0.  1.
         25    2    1    2    0    0  0.00000000000E+00  0.00000000000E+00  0.73957583693E+02  0.14524144980E+03  0.12500141821E+03 0.  0.
    9000005    1    3    3    0    0 -0.46127176293E+02 -0.39730277546E+02  0.20582674089E+02  0.64271749777E+02  0.10000000000E+01 0.  0.
    9000005    1    3    3    0    0  0.46127176293E+02  0.39730277546E+02  0.53374909604E+02  0.80969700024E+02  0.10000000000E+01 0.  0.
<mgrwt>
<rscale>  0 0.12500142E+03</rscale>
<asrwt>0</asrwt>
<pdfrwt beam="1">  1        4 0.16861464E-01 0.12500142E+03</pdfrwt>
<pdfrwt beam="2">  1       -4 0.54833743E-02 0.12500142E+03</pdfrwt>
<totfact> 0.10025765E+04</totfact>
</mgrwt>
</event>
<event>
 5    1  0.3516911E-002  0.1249724E+03  0.7818608E-02  0.1235112E+00
         -4   -1    0    0    0  501 -0.00000000000E+00  0.00000000000E+00  0.27126767872E+03  0.27127065159E+03  0.12700000000E+01 0.  1.
          4   -1    0    0  501    0  0.00000000000E+00 -0.00000000000E+00 -0.14362555091E+02  0.14418595242E+02  0.12700000000E+01 0.  1.
         25    2    1    2    0    0  0.00000000000E+00  0.00000000000E+00  0.25690512362E+03  0.28568924683E+03  0.12497240981E+03 0.  0.
    9000005    1    3    3    0    0  0.42235754259E+02  0.37035118314E+01  0.23335941669E+03  0.23718177058E+03  0.10000000000E+01 0.  0.
    9000005    1    3    3    0    0 -0.42235754259E+02 -0.37035118314E+01  0.23545706937E+02  0.48507476257E+02  0.10000000000E+01 0.  0.
<mgrwt>
<rscale>  0 0.12497241E+03</rscale>
<asrwt>0</asrwt>
<pdfrwt beam="2">  1        4 0.22141631E-02 0.12497241E+03</pdfrwt>
<pdfrwt beam="1">  1       -4 0.41738033E-01 0.12497241E+03</pdfrwt>
<totfact> 0.77477232E+03</totfact>
</mgrwt>
</event>
<event>
 5    1  0.3516911E-002  0.1250000E+03  0.7818608E-02  0.1235069E+00
         -4   -1    0    0    0  501 -0.00000000000E+00  0.00000000000E+00  0.21162105124E+02  0.21200179086E+02  0.12700000000E+01 0.  1.
          4   -1    0    0  501    0  0.00000000000E+00 -0.00000000000E+00 -0.18438072242E+03  0.18438509620E+03  0.12700000000E+01 0.  1.
         25    2    1    2    0    0  0.00000000000E+00  0.00000000000E+00 -0.16321861729E+03  0.20558527528E+03  0.12499995353E+03 0.  0.
    9000005    1    3    3    0    0 -0.20496358551E+02  0.33964981186E+02 -0.21943477949E+01  0.39743374581E+02  0.10000000000E+01 0.  0.
    9000005    1    3    3    0    0  0.20496358551E+02 -0.33964981186E+02 -0.16102426950E+03  0.16584190070E+03  0.10000000000E+01 0.  0.
<mgrwt>
<rscale>  0 0.12499995E+03</rscale>
<asrwt>0</asrwt>
<pdfrwt beam="2">  1        4 0.28369529E-01 0.12499995E+03</pdfrwt>
<pdfrwt beam="1">  1       -4 0.32589738E-02 0.12499995E+03</pdfrwt>
<totfact> 0.89202070E+03</totfact>
</mgrwt>
</event>
<event>
 5    1  0.3516911E-002  0.1250015E+03  0.7818608E-02  0.1235067E+00
          4   -1    0    0  501    0  0.00000000000E+00  0.00000000000E+00  0.16083134150E+02  0.16133198818E+02  0.12700000000E+01 0. -1.
         -4   -1    0    0    0  501 -0.00000000000E+00 -0.00000000000E+00 -0.24245520308E+03  0.24245852923E+03  0.12700000000E+01 0. -1.
         25    2    1    2    0    0  0.00000000000E+00  0.00000000000E+00 -0.22637206893E+03  0.25859172805E+03  0.12500147290E+03 0.  0.
    9000005    1    3    3    0    0  0.15835880542E+01  0.51056318631E+02 -0.18766206373E+03  0.19449243066E+03  0.10000000000E+01 0.  0.
    9000005    1    3    3    0    0 -0.15835880542E+01 -0.51056318631E+02 -0.38710005200E+02  0.64099297389E+02  0.10000000000E+01 0.  0.
<mgrwt>
<rscale>  0 0.12500147E+03</rscale>
<asrwt>0</asrwt>
<pdfrwt beam="1">  1        4 0.24784355E-02 0.12500147E+03</pdfrwt>
<pdfrwt beam="2">  1       -4 0.37304905E-01 0.12500147E+03</pdfrwt>
<totfact> 0.81101441E+03</totfact>
</mgrwt>
</event>
<event>
 5    1  0.3516911E-002  0.1249992E+03  0.7818608E-02  0.1235071E+00
         -4   -1    0    0    0  501 -0.00000000000E+00  0.00000000000E+00  0.31823324764E+03  0.31823578177E+03  0.12700000000E+01 0.  1.
          4   -1    0    0  501    0  0.00000000000E+00 -0.00000000000E+00 -0.12239200953E+02  0.12304915277E+02  0.12700000000E+01 0.  1.
         25    2    1    2    0    0  0.00000000000E+00  0.00000000000E+00  0.30599404668E+03  0.33054069705E+03  0.12499918320E+03 0.  0.
    9000005    1    3    3    0    0 -0.20417029538E+02  0.58047657838E+02  0.18182075769E+03  0.19195357148E+03  0.10000000000E+01 0.  0.
    9000005    1    3    3    0    0  0.20417029538E+02 -0.58047657838E+02  0.12417328899E+03  0.13858712557E+03  0.10000000000E+01 0.  0.
<mgrwt>
<rscale>  0 0.12499918E+03</rscale>
<asrwt>0</asrwt>
<pdfrwt beam="2">  1        4 0.18882040E-02 0.12499918E+03</pdfrwt>
<pdfrwt beam="1">  1       -4 0.48964208E-01 0.12499918E+03</pdfrwt>
<totfact> 0.71921044E+03</totfact>
</mgrwt>
</event>
<event>
 5    1  0.3516911E-002  0.1250018E+03  0.7818608E-02  0.1235066E+00
          4   -1    0    0  501    0  0.00000000000E+00  0.00000000000E+00  0.65524795329E+01  0.66744204265E+01  0.12700000000E+01 0.  1.
         -4   -1    0    0    0  501 -0.00000000000E+00 -0.00000000000E+00 -0.59054714778E+03  0.59054851338E+03  0.12700000000E+01 0.  1.
         25    2    1    2    0    0  0.00000000000E+00  0.00000000000E+00 -0.58399466825E+03  0.59722293380E+03  0.12500184046E+03 0.  0.
    9000005    1    3    3    0    0 -0.17361841545E+01  0.11053511172E+02  0.17512408273E+01  0.11369313483E+02  0.10000000000E+01 0.  0.
    9000005    1    3    3    0    0  0.17361841545E+01 -0.11053511172E+02 -0.58574590907E+03  0.58585362032E+03  0.10000000000E+01 0.  0.
<mgrwt>
<rscale>  0 0.12500184E+03</rscale>
<asrwt>0</asrwt>
<pdfrwt beam="1">  1        4 0.10175593E-02 0.12500184E+03</pdfrwt>
<pdfrwt beam="2">  1       -4 0.90862851E-01 0.12500184E+03</pdfrwt>
<totfact> 0.49041414E+03</totfact>
</mgrwt>
</event>
<event>
 5    1  0.3516911E-002  0.1250039E+03  0.7818608E-02  0.1235063E+00
          4   -1    0    0  501    0  0.00000000000E+00  0.00000000000E+00  0.25651484857E+02  0.25682904340E+02  0.12700000000E+01 0.  1.
         -4   -1    0    0    0  501 -0.00000000000E+00 -0.00000000000E+00 -0.15216379210E+03  0.15216909189E+03  0.12700000000E+01 0.  1.
         25    2    1    2    0    0  0.00000000000E+00  0.00000000000E+00 -0.12651230725E+03  0.17785199623E+03  0.12500387466E+03 0.  0.
    9000005    1    3    3    0    0 -0.49609419468E+02 -0.20063529306E+02 -0.10918001322E+03  0.12159323581E+03  0.10000000000E+01 0.  0.
    9000005    1    3    3    0    0  0.49609419468E+02  0.20063529306E+02 -0.17332294029E+02  0.56258760424E+02  0.10000000000E+01 0.  0.
<mgrwt>
<rscale>  0 0.12500387E+03</rscale>
<asrwt>0</asrwt>
<pdfrwt beam="1">  1        4 0.39492069E-02 0.12500387E+03</pdfrwt>
<pdfrwt beam="2">  1       -4 0.23412638E-01 0.12500387E+03</pdfrwt>
<totfact> 0.93996918E+03</totfact>
</mgrwt>
</event>
<event>
 5    1  0.3516911E-002  0.1250001E+03  0.7818608E-02  0.1235069E+00
          4   -1    0    0  501    0  0.00000000000E+00  0.00000000000E+00  0.13847033534E+02  0.13905151480E+02  0.12700000000E+01 0.  1.
         -4   -1    0    0    0  501 -0.00000000000E+00 -0.00000000000E+00 -0.28145006000E+03  0.28145292533E+03  0.12700000000E+01 0.  1.
         25    2    1    2    0    0  0.00000000000E+00  0.00000000000E+00 -0.26760302647E+03  0.29535807681E+03  0.12500005504E+03 0.  0.
    9000005    1    3    3    0    0 -0.47573404266E+02  0.99412839463E+01 -0.22662312904E+03  0.23177812782E+03  0.10000000000E+01 0.  0.
    9000005    1    3    3    0    0  0.47573404266E+02 -0.99412839463E+01 -0.40979897426E+02  0.63579948985E+02  0.10000000000E+01 0.  0.
<mgrwt>
<rscale>  0 0.12500006E+03</rscale>
<asrwt>0</asrwt>
<pdfrwt beam="1">  1        4 0.21350041E-02 0.12500006E+03</pdfrwt>
<pdfrwt beam="2">  1       -4 0.43304696E-01 0.12500006E+03</pdfrwt>
<totfact> 0.76184735E+03</totfact>
</mgrwt>
</event>
<event>
 5    1  0.3516911E-002  0.1250008E+03  0.7818608E-02  0.1235068E+00
         -4   -1    0    0    0  501 -0.00000000000E+00  0.00000000000E+00  0.40176889539E+02  0.40196957012E+02  0.12700000000E+01 0. -1.
          4   -1    0    0  501    0  0.00000000000E+00 -0.00000000000E+00 -0.97179044070E+02  0.97187342316E+02  0.12700000000E+01 0. -1.
         25    2    1    2    0    0  0.00000000000E+00  0.00000000000E+00 -0.57002154531E+02  0.13738429933E+03  0.12500080032E+03 0.  0.
    9000005    1    3    3    0    0  0.56913901897E+02 -0.20396565866E+02 -0.11120242043E+02  0.61480662906E+02  0.10000000000E+01 0.  0.
    9000005    1    3    3    0    0 -0.56913901897E+02  0.20396565866E+02 -0.45881912489E+02  0.75903636421E+02  0.10000000000E+01 0.  0.
<mgrwt>
<rscale>  0 0.12500080E+03</rscale>
<asrwt>0</asrwt>
<pdfrwt beam="2">  1        4 0.14952804E-01 0.12500080E+03</pdfrwt>
<pdfrwt beam="1">  1       -4 0.61832419E-02 0.12500080E+03</pdfrwt>
<totfact> 0.10187873E+04</totfact>
</mgrwt>
</event>
<event>
 5    1  0.3516911E-002  0.1249971E+03  0.7818608E-02  0.1235074E+00
          4   -1    0    0  501    0  0.00000000000E+00  0.00000000000E+00  0.18861282676E+03  0.18861710240E+03  0.12700000000E+01 0. -1.
         -4   -1    0    0    0  501 -0.00000000000E+00 -0.00000000000E+00 -0.20685483501E+02  0.20724433109E+02  0.12700000000E+01 0. -1.
         25    2    1    2    0    0  0.00000000000E+00  0.00000000000E+00  0.16792734326E+03  0.20934153551E+03  0.12499714347E+03 0.  0.
    9000005    1    3    3    0    0 -0.28593383503E+00  0.62125773041E+02  0.72681877791E+02  0.95620859614E+02  0.10000000000E+01 0.  0.
    9000005    1    3    3    0    0  0.28593383503E+00 -0.62125773041E+02  0.95245465467E+02  0.11372067590E+03  0.10000000000E+01 0.  0.
<mgrwt>
<rscale>  0 0.12499714E+03</rscale>
<asrwt>0</asrwt>
<pdfrwt beam="1">  1        4 0.29020683E-01 0.12499714E+03</pdfrwt>
<pdfrwt beam="2">  1       -4 0.31857071E-02 0.12499714E+03</pdfrwt>
<totfact> 0.88589187E+03</totfact>
</mgrwt>
</event>
<event>
 5    1  0.3516911E-002  0.1250038E+03  0.7818608E-02  0.1235063E+00
         -4   -1    0    0    0  501 -0.00000000000E+00  0.00000000000E+00  0.34860893203E+02  0.34884018904E+02  0.12700000000E+01 0.  1.
          4   -1    0    0  501    0  0.00000000000E+00 -0.00000000000E+00 -0.11199533457E+03  0.11200253509E+03  0.12700000000E+01 0.  1.
         25    2    1    2    0    0  0.00000000000E+00  0.00000000000E+00 -0.77134441370E+02  0.14688655399E+03  0.12500375074E+03 0.  0.
    9000005    1    3    3    0    0 -0.15631550853E+01 -0.99687832883E+01 -0.11103752584E+03  0.11149956160E+03  0.10000000000E+01 0.  0.
    9000005    1    3    3    0    0  0.15631550853E+01  0.99687832883E+01  0.33903084465E+02  0.35386992389E+02  0.10000000000E+01 0.  0.
<mgrwt>
<rscale>  0 0.12500375E+03</rscale>
<asrwt>0</asrwt>
<pdfrwt beam="2">  1        4 0.17232384E-01 0.12500375E+03</pdfrwt>
<pdfrwt beam="1">  1       -4 0.53655472E-02 0.12500375E+03</pdfrwt>
<totfact> 0.99919540E+03</totfact>
</mgrwt>
</event>
<event>
 5    1  0.3516911E-002  0.1249987E+03  0.7818608E-02  0.1235071E+00
         -4   -1    0    0    0  501 -0.00000000000E+00  0.00000000000E+00  0.78531218849E+02  0.78541487343E+02  0.12700000000E+01 0.  1.
          4   -1    0    0  501    0  0.00000000000E+00 -0.00000000000E+00 -0.49718710604E+02  0.49734928211E+02  0.12700000000E+01 0.  1.
         25    2    1    2    0    0  0.00000000000E+00  0.00000000000E+00  0.28812508246E+02  0.12827641555E+03  0.12499871262E+03 0.  0.
    9000005    1    3    3    0    0 -0.10284919190E+02 -0.71991295668E+01 -0.48416318715E+02  0.50027461930E+02  0.10000000000E+01 0.  0.
    9000005    1    3    3    0    0  0.10284919190E+02  0.71991295668E+01  0.77228826961E+02  0.78248953623E+02  0.10000000000E+01 0.  0.
<mgrwt>
<rscale>  0 0.12499871E+03</rscale>
<asrwt>0</asrwt>
<pdfrwt beam="2">  1        4 0.76510698E-02 0.12499871E+03</pdfrwt>
<pdfrwt beam="1">  1       -4 0.12083763E-01 0.12499871E+03</pdfrwt>
<totfact> 0.10381824E+04</totfact>
</mgrwt>
</event>
<event>
 5    1  0.3516911E-002  0.1249984E+03  0.7818608E-02  0.1235072E+00
         -4   -1    0    0    0  501 -0.00000000000E+00  0.00000000000E+00  0.10545355541E+04  0.10545363189E+04  0.12700000000E+01 0.  1.
          4   -1    0    0  501    0  0.00000000000E+00 -0.00000000000E+00 -0.35944964406E+01  0.38122571610E+01  0.12700000000E+01 0.  1.
         25    2    1    2    0    0  0.00000000000E+00  0.00000000000E+00  0.10509410577E+04  0.10583485760E+04  0.12499840662E+03 0.  0.
    9000005    1    3    3    0    0 -0.11359068992E+02 -0.57491728822E+02  0.70918912844E+03  0.71160701741E+03  0.10000000000E+01 0.  0.
    9000005    1    3    3    0    0  0.11359068992E+02  0.57491728822E+02  0.34175192926E+03  0.34674155863E+03  0.10000000000E+01 0.  0.
<mgrwt>
<rscale>  0 0.12499841E+03</rscale>
<asrwt>0</asrwt>
<pdfrwt beam="2">  1        4 0.56980904E-03 0.12499841E+03</pdfrwt>
<pdfrwt beam="1">  1       -4 0.16225307E+00 0.12499841E+03</pdfrwt>
<totfact> 0.28736514E+03</totfact>
</mgrwt>
</event>
<event>
 5    1  0.3516911E-002  0.1250003E+03  0.7818608E-02  0.1235069E+00
          4   -1    0    0  501    0  0.00000000000E+00  0.00000000000E+00  0.36423372170E+02  0.36445506448E+02  0.12700000000E+01 0. -1.
         -4   -1    0    0    0  501 -0.00000000000E+00 -0.00000000000E+00 -0.10718782321E+03  0.10719534666E+03  0.12700000000E+01 0. -1.
         25    2    1    2    0    0  0.00000000000E+00  0.00000000000E+00 -0.70764451045E+02  0.14364085311E+03  0.12500034860E+03 0.  0.
    9000005    1    3    3    0    0  0.36829018318E+00  0.10463003850E+02 -0.10617851567E+03  0.10669811281E+03  0.10000000000E+01 0.  0.
    9000005    1    3    3    0    0 -0.36829018318E+00 -0.10463003850E+02  0.35414064626E+02  0.36942740296E+02  0.10000000000E+01 0.  0.
<mgrwt>
<rscale>  0 0.12500035E+03</rscale>
<asrwt>0</asrwt>
<pdfrwt beam="1">  1        4 0.56058771E-02 0.12500035E+03</pdfrwt>
<pdfrwt beam="2">  1       -4 0.16492716E-01 0.12500035E+03</pdfrwt>
<totfact> 0.10058598E+04</totfact>
</mgrwt>
</event>
<event>
 5    1  0.3516911E-002  0.1250023E+03  0.7818608E-02  0.1235066E+00
         -4   -1    0    0    0  501 -0.00000000000E+00  0.00000000000E+00  0.35966867527E+03  0.35967091747E+03  0.12700000000E+01 0. -1.
          4   -1    0    0  501    0  0.00000000000E+00 -0.00000000000E+00 -0.10821687388E+02  0.10895954200E+02  0.12700000000E+01 0. -1.
         25    2    1    2    0    0  0.00000000000E+00  0.00000000000E+00  0.34884698788E+03  0.37056687167E+03  0.12500234166E+03 0.  0.
    9000005    1    3    3    0    0 -0.37788555218E+02 -0.34384047484E+02  0.28111011017E+03  0.28571687326E+03  0.10000000000E+01 0.  0.
    9000005    1    3    3    0    0  0.37788555218E+02  0.34384047484E+02  0.67736877716E+02  0.84849998406E+02  0.10000000000E+01 0.  0.
<mgrwt>
<rscale>  0 0.12500234E+03</rscale>
<asrwt>0</asrwt>
<pdfrwt beam="2">  1        4 0.16707606E-02 0.12500234E+03</pdfrwt>
<pdfrwt beam="1">  1       -4 0.55339518E-01 0.12500234E+03</pdfrwt>
<totfact> 0.67516183E+03</totfact>
</mgrwt>
</event>
<event>
 5    1  0.3516911E-002  0.1250033E+03  0.7818608E-02  0.1235064E+00
         -4   -1    0    0    0  501 -0.00000000000E+00  0.00000000000E+00  0.39632307398E+02  0.39652650475E+02  0.12700000000E+01 0.  1.
          4   -1    0    0  501    0  0.00000000000E+00 -0.00000000000E+00 -0.98517801810E+02  0.98525987301E+02  0.12700000000E+01 0.  1.
         25    2    1    2    0    0  0.00000000000E+00  0.00000000000E+00 -0.58885494412E+02  0.13817863778E+03  0.12500333790E+03 0.  0.
    9000005    1    3    3    0    0  0.59745685559E+02 -0.52822684462E+01 -0.48842724646E+02  0.77356713049E+02  0.10000000000E+01 0.  0.
    9000005    1    3    3    0    0 -0.59745685559E+02  0.52822684462E+01 -0.10042769766E+02  0.60821924727E+02  0.10000000000E+01 0.  0.
<mgrwt>
<rscale>  0 0.12500334E+03</rscale>
<asrwt>0</asrwt>
<pdfrwt beam="2">  1        4 0.15158779E-01 0.12500334E+03</pdfrwt>
<pdfrwt beam="1">  1       -4 0.60994726E-02 0.12500334E+03</pdfrwt>
<totfact> 0.10170710E+04</totfact>
</mgrwt>
</event>
<event>
 5    1  0.3516911E-002  0.1249978E+03  0.7818608E-02  0.1235073E+00
         -4   -1    0    0    0  501 -0.00000000000E+00  0.00000000000E+00  0.18847548128E+03  0.18847976004E+03  0.12700000000E+01 0.  1.
          4   -1    0    0  501    0  0.00000000000E+00 -0.00000000000E+00 -0.20700819496E+02  0.20739740303E+02  0.12700000000E+01 0.  1.
         25    2    1    2    0    0  0.00000000000E+00  0.00000000000E+00  0.16777466178E+03  0.20921950034E+03  0.12499784872E+03 0.  0.
    9000005    1    3    3    0    0  0.27955068476E+02  0.55583306370E+02  0.93665120731E+02  0.11245063202E+03  0.10000000000E+01 0.  0.
    9000005    1    3    3    0    0 -0.27955068476E+02 -0.55583306370E+02  0.74109541051E+02  0.96768868317E+02  0.10000000000E+01 0.  0.
<mgrwt>
<rscale>  0 0.12499785E+03</rscale>
<asrwt>0</asrwt>
<pdfrwt beam="2">  1        4 0.31880645E-02 0.12499785E+03</pdfrwt>
<pdfrwt beam="1">  1       -4 0.28999551E-01 0.12499785E+03</pdfrwt>
<totfact> 0.88607767E+03</totfact>
</mgrwt>
</event>
<event>
 5    1  0.3516911E-002  0.1249999E+03  0.7818608E-02  0.1235069E+00
          4   -1    0    0  501    0  0.00000000000E+00  0.00000000000E+00  0.14392530406E+02  0.14448454294E+02  0.12700000000E+01 0.  1.
         -4   -1    0    0    0  501 -0.00000000000E+00 -0.00000000000E+00 -0.27082411069E+03  0.27082708844E+03  0.12700000000E+01 0.  1.
         25    2    1    2    0    0  0.00000000000E+00  0.00000000000E+00 -0.25643158028E+03  0.28527554273E+03  0.12499991965E+03 0.  0.
    9000005    1    3    3    0    0  0.75178083875E+01 -0.60521416122E+02 -0.97100215407E+02  0.11466826538E+03  0.10000000000E+01 0.  0.
    9000005    1    3    3    0    0 -0.75178083875E+01  0.60521416122E+02 -0.15933136488E+03  0.17060727735E+03  0.10000000000E+01 0.  0.
<mgrwt>
<rscale>  0 0.12499992E+03</rscale>
<asrwt>0</asrwt>
<pdfrwt beam="1">  1        4 0.22187665E-02 0.12499992E+03</pdfrwt>
<pdfrwt beam="2">  1       -4 0.41669775E-01 0.12499992E+03</pdfrwt>
<totfact> 0.77483907E+03</totfact>
</mgrwt>
</event>
<event>
 5    1  0.3516911E-002  0.1250049E+03  0.7818608E-02  0.1235062E+00
         -4   -1    0    0    0  501 -0.00000000000E+00  0.00000000000E+00  0.22768957322E+03  0.22769311508E+03  0.12700000000E+01 0.  1.
          4   -1    0    0  501    0  0.00000000000E+00 -0.00000000000E+00 -0.17130194601E+02  0.17177207779E+02  0.12700000000E+01 0.  1.
         25    2    1    2    0    0  0.00000000000E+00  0.00000000000E+00  0.21055937862E+03  0.24487032286E+03  0.12500489227E+03 0.  0.
    9000005    1    3    3    0    0 -0.25318372204E+02 -0.66990743674E+01 -0.58714781546E+01  0.26858366000E+02  0.10000000000E+01 0.  0.
    9000005    1    3    3    0    0  0.25318372204E+02  0.66990743674E+01  0.21643085677E+03  0.21801195686E+03  0.10000000000E+01 0.  0.
<mgrwt>
<rscale>  0 0.12500489E+03</rscale>
<asrwt>0</asrwt>
<pdfrwt beam="2">  1        4 0.26393035E-02 0.12500489E+03</pdfrwt>
<pdfrwt beam="1">  1       -4 0.35033053E-01 0.12500489E+03</pdfrwt>
<totfact> 0.83068267E+03</totfact>
</mgrwt>
</event>
<event>
 5    1  0.3516911E-002  0.1250004E+03  0.7818608E-02  0.1235069E+00
         -4   -1    0    0    0  501 -0.00000000000E+00  0.00000000000E+00  0.43677033520E+03  0.43677218159E+03  0.12700000000E+01 0.  1.
          4   -1    0    0  501    0  0.00000000000E+00 -0.00000000000E+00 -0.88965819120E+01  0.89867719297E+01  0.12700000000E+01 0.  1.
         25    2    1    2    0    0  0.00000000000E+00  0.00000000000E+00  0.42787375329E+03  0.44575895352E+03  0.12500038356E+03 0.  0.
    9000005    1    3    3    0    0 -0.28271207777E+02 -0.54803217770E+02  0.25006163559E+03  0.25755480088E+03  0.10000000000E+01 0.  0.
    9000005    1    3    3    0    0  0.28271207777E+02  0.54803217770E+02  0.17781211770E+03  0.18820415263E+03  0.10000000000E+01 0.  0.
<mgrwt>
<rscale>  0 0.12500038E+03</rscale>
<asrwt>0</asrwt>
<pdfrwt beam="2">  1        4 0.13757844E-02 0.12500038E+03</pdfrwt>
<pdfrwt beam="1">  1       -4 0.67202526E-01 0.12500038E+03</pdfrwt>
<totfact> 0.60332448E+03</totfact>
</mgrwt>
</event>
<event>
 5    1  0.3516911E-002  0.1250013E+03  0.7818608E-02  0.1235067E+00
          4   -1    0    0  501    0  0.00000000000E+00  0.00000000000E+00  0.95202500869E+02  0.95210971383E+02  0.12700000000E+01 0.  1.
         -4   -1    0    0    0  501 -0.00000000000E+00 -0.00000000000E+00 -0.41011679384E+02  0.41031338583E+02  0.12700000000E+01 0.  1.
         25    2    1    2    0    0  0.00000000000E+00  0.00000000000E+00  0.54190821485E+02  0.13624230997E+03  0.12500128756E+03 0.  0.
    9000005    1    3    3    0    0 -0.44584849586E+02  0.42049755612E+02  0.13775995193E+02  0.62823314169E+02  0.10000000000E+01 0.  0.
    9000005    1    3    3    0    0  0.44584849586E+02 -0.42049755612E+02  0.40414826292E+02  0.73418995797E+02  0.10000000000E+01 0.  0.
<mgrwt>
<rscale>  0 0.12500129E+03</rscale>
<asrwt>0</asrwt>
<pdfrwt beam="1">  1        4 0.14648702E-01 0.12500129E+03</pdfrwt>
<pdfrwt beam="2">  1       -4 0.63116530E-02 0.12500129E+03</pdfrwt>
<totfact> 0.10211656E+04</totfact>
</mgrwt>
</event>
<event>
 5    1  0.3516911E-002  0.1250003E+03  0.7818608E-02  0.1235069E+00
          4   -1    0    0  501    0  0.00000000000E+00  0.00000000000E+00  0.10058548337E+04  0.10058556355E+04  0.12700000000E+01 0. -1.
         -4   -1    0    0    0  501 -0.00000000000E+00 -0.00000000000E+00 -0.37788753697E+01  0.39865773615E+01  0.12700000000E+01 0. -1.
         25    2    1    2    0    0  0.00000000000E+00  0.00000000000E+00  0.10020759584E+04  0.10098422129E+04  0.12500027410E+03 0.  0.
    9000005    1    3    3    0    0 -0.61352765698E+02 -0.10282265195E+02  0.54909128593E+03  0.55260485622E+03  0.10000000000E+01 0.  0.
    9000005    1    3    3    0    0  0.61352765698E+02  0.10282265195E+02  0.45298467244E+03  0.45723735663E+03  0.10000000000E+01 0.  0.
<mgrwt>
<rscale>  0 0.12500027E+03</rscale>
<asrwt>0</asrwt>
<pdfrwt beam="1">  1        4 0.15476291E+00 0.12500027E+03</pdfrwt>
<pdfrwt beam="2">  1       -4 0.59740428E-03 0.12500027E+03</pdfrwt>
<totfact> 0.30281522E+03</totfact>
</mgrwt>
</event>
<event>
 5    1  0.3516911E-002  0.1250325E+03  0.7818608E-02  0.1235018E+00
         -4   -1    0    0    0  501 -0.00000000000E+00  0.00000000000E+00  0.28916460658E+03  0.28916739546E+03  0.12700000000E+01 0. -1.
          4   -1    0    0  501    0  0.00000000000E+00 -0.00000000000E+00 -0.13483082808E+02  0.13542762717E+02  0.12700000000E+01 0. -1.
         25    2    1    2    0    0  0.00000000000E+00  0.00000000000E+00  0.27568152377E+03  0.30271015818E+03  0.12503254503E+03 0.  0.
    9000005    1    3    3    0    0  0.60964872359E+02  0.21497731231E+01  0.17085480228E+03  0.18142133460E+03  0.10000000000E+01 0.  0.
    9000005    1    3    3    0    0 -0.60964872359E+02 -0.21497731231E+01  0.10482672149E+03  0.12128882357E+03  0.10000000000E+01 0.  0.
<mgrwt>
<rscale>  0 0.12503255E+03</rscale>
<asrwt>0</asrwt>
<pdfrwt beam="2">  1        4 0.20791258E-02 0.12503255E+03</pdfrwt>
<pdfrwt beam="1">  1       -4 0.44491667E-01 0.12503255E+03</pdfrwt>
<totfact> 0.75205795E+03</totfact>
</mgrwt>
</event>
<event>
 5    1  0.3516911E-002  0.1250035E+03  0.7818608E-02  0.1235064E+00
         -4   -1    0    0    0  501 -0.00000000000E+00  0.00000000000E+00  0.12664080536E+03  0.12664717321E+03  0.12700000000E+01 0.  1.
          4   -1    0    0  501    0  0.00000000000E+00 -0.00000000000E+00 -0.30826630047E+02  0.30852779778E+02  0.12700000000E+01 0.  1.
         25    2    1    2    0    0  0.00000000000E+00  0.00000000000E+00  0.95814175313E+02  0.15749995299E+03  0.12500351595E+03 0.  0.
    9000005    1    3    3    0    0 -0.32505654507E+02  0.30691104521E+01 -0.19231776943E+02  0.37906440855E+02  0.10000000000E+01 0.  0.
    9000005    1    3    3    0    0  0.32505654507E+02 -0.30691104521E+01  0.11504595226E+03  0.11959351213E+03  0.10000000000E+01 0.  0.
<mgrwt>
<rscale>  0 0.12500352E+03</rscale>
<asrwt>0</asrwt>
<pdfrwt beam="2">  1        4 0.47450598E-02 0.12500352E+03</pdfrwt>
<pdfrwt beam="1">  1       -4 0.19485702E-01 0.12500352E+03</pdfrwt>
<totfact> 0.97819218E+03</totfact>
</mgrwt>
</event>
<event>
 5    1  0.3516911E-002  0.1249999E+03  0.7818608E-02  0.1235069E+00
          4   -1    0    0  501    0  0.00000000000E+00  0.00000000000E+00  0.57081548629E+01  0.58477287847E+01  0.12700000000E+01 0.  1.
         -4   -1    0    0    0  501 -0.00000000000E+00 -0.00000000000E+00 -0.67592111680E+03  0.67592230992E+03  0.12700000000E+01 0.  1.
         25    2    1    2    0    0  0.00000000000E+00  0.00000000000E+00 -0.67021296194E+03  0.68177003870E+03  0.12499988526E+03 0.  0.
    9000005    1    3    3    0    0  0.55639772257E+01 -0.20577651857E+02 -0.65550539703E+03  0.65585266877E+03  0.10000000000E+01 0.  0.
    9000005    1    3    3    0    0 -0.55639772257E+01  0.20577651857E+02 -0.14707564915E+02  0.25917369933E+02  0.10000000000E+01 0.  0.
<mgrwt>
<rscale>  0 0.12499989E+03</rscale>
<asrwt>0</asrwt>
<pdfrwt beam="1">  1        4 0.88900644E-03 0.12499989E+03</pdfrwt>
<pdfrwt beam="2">  1       -4 0.10399863E+00 0.12499989E+03</pdfrwt>
<totfact> 0.44066794E+03</totfact>
</mgrwt>
</event>
<event>
 5    1  0.3516911E-002  0.1249890E+03  0.7818608E-02  0.1235087E+00
         -4   -1    0    0    0  501 -0.00000000000E+00  0.00000000000E+00  0.13490295169E+03  0.13490892956E+03  0.12700000000E+01 0.  1.
          4   -1    0    0  501    0  0.00000000000E+00 -0.00000000000E+00 -0.28930341992E+02  0.28958204153E+02  0.12700000000E+01 0.  1.
         25    2    1    2    0    0  0.00000000000E+00  0.00000000000E+00  0.10597260970E+03  0.16386713371E+03  0.12498897353E+03 0.  0.
    9000005    1    3    3    0    0  0.10097237209E+02 -0.35866403218E+02  0.11875109032E+03  0.12446354700E+03  0.10000000000E+01 0.  0.
    9000005    1    3    3    0    0 -0.10097237209E+02  0.35866403218E+02 -0.12778480621E+02  0.39403586715E+02  0.10000000000E+01 0.  0.
<mgrwt>
<rscale>  0 0.12498897E+03</rscale>
<asrwt>0</asrwt>
<pdfrwt beam="2">  1        4 0.44534249E-02 0.12498897E+03</pdfrwt>
<pdfrwt beam="1">  1       -4 0.20756903E-01 0.12498897E+03</pdfrwt>
<totfact> 0.96626306E+03</totfact>
</mgrwt>
</event>
<event>
 5    1  0.3516911E-002  0.1250000E+03  0.7818608E-02  0.1235069E+00
          4   -1    0    0  501    0  0.00000000000E+00  0.00000000000E+00  0.75388771023E+02  0.75399467481E+02  0.12700000000E+01 0.  1.
         -4   -1    0    0    0  501 -0.00000000000E+00 -0.00000000000E+00 -0.51792611580E+02  0.51808179994E+02  0.12700000000E+01 0.  1.
         25    2    1    2    0    0  0.00000000000E+00  0.00000000000E+00  0.23596159443E+02  0.12720764748E+03  0.12500002734E+03 0.  0.
    9000005    1    3    3    0    0  0.46352661772E+02 -0.38795792041E+02 -0.43429654754E+01  0.60609768871E+02  0.10000000000E+01 0.  0.
    9000005    1    3    3    0    0 -0.46352661772E+02  0.38795792041E+02  0.27939124918E+02  0.66597878605E+02  0.10000000000E+01 0.  0.
<mgrwt>
<rscale>  0 0.12500003E+03</rscale>
<asrwt>0</asrwt>
<pdfrwt beam="1">  1        4 0.11600293E-01 0.12500003E+03</pdfrwt>
<pdfrwt beam="2">  1       -4 0.79701145E-02 0.12500003E+03</pdfrwt>
<totfact> 0.10404631E+04</totfact>
</mgrwt>
</event>
<event>
 5    1  0.3516911E-002  0.1250022E+03  0.7818608E-02  0.1235066E+00
          4   -1    0    0  501    0  0.00000000000E+00  0.00000000000E+00  0.51684224938E+02  0.51699825990E+02  0.12700000000E+01 0. -1.
         -4   -1    0    0    0  501 -0.00000000000E+00 -0.00000000000E+00 -0.75549427203E+02  0.75560100918E+02  0.12700000000E+01 0. -1.
         25    2    1    2    0    0  0.00000000000E+00  0.00000000000E+00 -0.23865202265E+02  0.12725992691E+03  0.12500216445E+03 0.  0.
    9000005    1    3    3    0    0  0.47071008046E+01 -0.21275254152E+02 -0.71561758788E+02  0.74812288817E+02  0.10000000000E+01 0.  0.
    9000005    1    3    3    0    0 -0.47071008046E+01  0.21275254152E+02  0.47696556523E+02  0.52447638091E+02  0.10000000000E+01 0.  0.
<mgrwt>
<rscale>  0 0.12500216E+03</rscale>
<asrwt>0</asrwt>
<pdfrwt beam="1">  1        4 0.79534403E-02 0.12500216E+03</pdfrwt>
<pdfrwt beam="2">  1       -4 0.11625010E-01 0.12500216E+03</pdfrwt>
<totfact> 0.10402995E+04</totfact>
</mgrwt>
</event>
<event>
 5    1  0.3516911E-002  0.1250036E+03  0.7818608E-02  0.1235064E+00
          4   -1    0    0  501    0  0.00000000000E+00  0.00000000000E+00  0.73897125969E+03  0.73897235100E+03  0.12700000000E+01 0.  1.
         -4   -1    0    0    0  501 -0.00000000000E+00 -0.00000000000E+00 -0.52089785174E+01  0.53615629432E+01  0.12700000000E+01 0.  1.
         25    2    1    2    0    0  0.00000000000E+00  0.00000000000E+00  0.73376228117E+03  0.74433391394E+03  0.12500356067E+03 0.  0.
    9000005    1    3    3    0    0  0.34385022701E+02  0.47389033181E+02  0.49698697442E+03  0.50042492244E+03  0.10000000000E+01 0.  0.
    9000005    1    3    3    0    0 -0.34385022701E+02 -0.47389033181E+02  0.23677530675E+03  0.24390899151E+03  0.10000000000E+01 0.  0.
<mgrwt>
<rscale>  0 0.12500356E+03</rscale>
<asrwt>0</asrwt>
<pdfrwt beam="1">  1        4 0.11369966E+00 0.12500356E+03</pdfrwt>
<pdfrwt beam="2">  1       -4 0.81320289E-03 0.12500356E+03</pdfrwt>
<totfact> 0.40843457E+03</totfact>
</mgrwt>
</event>
<event>
 5    1  0.3516911E-002  0.1249759E+03  0.7818608E-02  0.1235107E+00
         -4   -1    0    0    0  501 -0.00000000000E+00  0.00000000000E+00  0.85300599843E+01  0.86240839128E+01  0.12700000000E+01 0. -1.
          4   -1    0    0  501    0  0.00000000000E+00 -0.00000000000E+00 -0.45515859823E+03  0.45516037003E+03  0.12700000000E+01 0. -1.
         25    2    1    2    0    0  0.00000000000E+00  0.00000000000E+00 -0.44662853825E+03  0.46378445394E+03  0.12497587183E+03 0.  0.
    9000005    1    3    3    0    0 -0.29690464484E+02  0.11280134400E+01 -0.42728201477E+03  0.42831497317E+03  0.10000000000E+01 0.  0.
    9000005    1    3    3    0    0  0.29690464484E+02 -0.11280134400E+01 -0.19346523480E+02  0.35469480774E+02  0.10000000000E+01 0.  0.
<mgrwt>
<rscale>  0 0.12497587E+03</rscale>
<asrwt>0</asrwt>
<pdfrwt beam="2">  1        4 0.70031750E-01 0.12497587E+03</pdfrwt>
<pdfrwt beam="1">  1       -4 0.13196862E-02 0.12497587E+03</pdfrwt>
<totfact> 0.58819223E+03</totfact>
</mgrwt>
</event>
<event>
 5    1  0.3516911E-002  0.1249943E+03  0.7818608E-02  0.1235078E+00
         -4   -1    0    0    0  501 -0.00000000000E+00  0.00000000000E+00  0.14437807572E+02  0.14493556757E+02  0.12700000000E+01 0.  1.
          4   -1    0    0  501    0  0.00000000000E+00 -0.00000000000E+00 -0.26995370528E+03  0.26995669263E+03  0.12700000000E+01 0.  1.
         25    2    1    2    0    0  0.00000000000E+00  0.00000000000E+00 -0.25551589771E+03  0.28445024939E+03  0.12499428144E+03 0.  0.
    9000005    1    3    3    0    0 -0.26974764069E+02 -0.46002422224E+02 -0.20188562496E+03  0.20881251474E+03  0.10000000000E+01 0.  0.
    9000005    1    3    3    0    0  0.26974764069E+02  0.46002422224E+02 -0.53630272750E+02  0.75637734645E+02  0.10000000000E+01 0.  0.
<mgrwt>
<rscale>  0 0.12499428E+03</rscale>
<asrwt>0</asrwt>
<pdfrwt beam="2">  1        4 0.41535854E-01 0.12499428E+03</pdfrwt>
<pdfrwt beam="1">  1       -4 0.22257196E-02 0.12499428E+03</pdfrwt>
<totfact> 0.77601573E+03</totfact>
</mgrwt>
</event>
<event>
 5    1  0.3516911E-002  0.1250010E+03  0.7818608E-02  0.1235068E+00
          4   -1    0    0  501    0  0.00000000000E+00  0.00000000000E+00  0.11238225916E+03  0.11238943489E+03  0.12700000000E+01 0. -1.
         -4   -1    0    0    0  501 -0.00000000000E+00 -0.00000000000E+00 -0.34739269670E+02  0.34762476281E+02  0.12700000000E+01 0. -1.
         25    2    1    2    0    0  0.00000000000E+00  0.00000000000E+00  0.77642989492E+02  0.14715191117E+03  0.12500100457E+03 0.  0.
    9000005    1    3    3    0    0  0.13290613987E+02  0.61060849827E+02  0.39404162998E+02  0.73883393691E+02  0.10000000000E+01 0.  0.
    9000005    1    3    3    0    0 -0.13290613987E+02 -0.61060849827E+02  0.38238826494E+02  0.73268517478E+02  0.10000000000E+01 0.  0.
<mgrwt>
<rscale>  0 0.12500100E+03</rscale>
<asrwt>0</asrwt>
<pdfrwt beam="1">  1        4 0.17291915E-01 0.12500100E+03</pdfrwt>
<pdfrwt beam="2">  1       -4 0.53468401E-02 0.12500100E+03</pdfrwt>
<totfact> 0.99872223E+03</totfact>
</mgrwt>
</event>
<event>
 5    1  0.3516911E-002  0.1249997E+03  0.7818608E-02  0.1235070E+00
         -4   -1    0    0    0  501 -0.00000000000E+00  0.00000000000E+00  0.52031922759E+01  0.53559415474E+01  0.12700000000E+01 0. -1.
          4   -1    0    0  501    0  0.00000000000E+00 -0.00000000000E+00 -0.73972435187E+03  0.73972544207E+03  0.12700000000E+01 0. -1.
         25    2    1    2    0    0  0.00000000000E+00  0.00000000000E+00 -0.73452115959E+03  0.74508138362E+03  0.12499973730E+03 0.  0.
    9000005    1    3    3    0    0  0.23974992131E+02 -0.45248453093E+02 -0.58076642663E+03  0.58302046710E+03  0.10000000000E+01 0.  0.
    9000005    1    3    3    0    0 -0.23974992131E+02  0.45248453093E+02 -0.15375473296E+03  0.16206091652E+03  0.10000000000E+01 0.  0.
<mgrwt>
<rscale>  0 0.12499974E+03</rscale>
<asrwt>0</asrwt>
<pdfrwt beam="2">  1        4 0.11381550E+00 0.12499974E+03</pdfrwt>
<pdfrwt beam="1">  1       -4 0.81232551E-03 0.12499974E+03</pdfrwt>
<totfact> 0.40810764E+03</totfact>
</mgrwt>
</event>
<event>
 5    1  0.3516911E-002  0.1250060E+03  0.7818608E-02  0.1235060E+00
          4   -1    0    0  501    0  0.00000000000E+00  0.00000000000E+00  0.61694350722E+01  0.62987958460E+01  0.12700000000E+01 0. -1.
         -4   -1    0    0    0  501 -0.00000000000E+00 -0.00000000000E+00 -0.62652296281E+03  0.62652424999E+03  0.12700000000E+01 0. -1.
         25    2    1    2    0    0  0.00000000000E+00  0.00000000000E+00 -0.62035352774E+03  0.63282304584E+03  0.12500603172E+03 0.  0.
    9000005    1    3    3    0    0 -0.16022050405E+02 -0.50565741336E+01 -0.61490070616E+03  0.61513100513E+03  0.10000000000E+01 0.  0.
    9000005    1    3    3    0    0  0.16022050405E+02  0.50565741336E+01 -0.54528215795E+01  0.17692040706E+02  0.10000000000E+01 0.  0.
<mgrwt>
<rscale>  0 0.12500603E+03</rscale>
<asrwt>0</asrwt>
<pdfrwt beam="1">  1        4 0.95919419E-03 0.12500603E+03</pdfrwt>
<pdfrwt beam="2">  1       -4 0.96398148E-01 0.12500603E+03</pdfrwt>
<totfact> 0.46853003E+03</totfact>
</mgrwt>
</event>
<event>
 5    1  0.3516911E-002  0.1249982E+03  0.7818608E-02  0.1235072E+00
         -4   -1    0    0    0  501 -0.00000000000E+00  0.00000000000E+00  0.23845079589E+03  0.23845417790E+03  0.12700000000E+01 0. -1.
          4   -1    0    0  501    0  0.00000000000E+00 -0.00000000000E+00 -0.16353197414E+02  0.16402437796E+02  0.12700000000E+01 0. -1.
         25    2    1    2    0    0  0.00000000000E+00  0.00000000000E+00  0.22209759847E+03  0.25485661570E+03  0.12499820526E+03 0.  0.
    9000005    1    3    3    0    0  0.29119912011E+01 -0.35096046480E+02  0.57957507203E+01  0.35704382051E+02  0.10000000000E+01 0.  0.
    9000005    1    3    3    0    0 -0.29119912011E+01  0.35096046480E+02  0.21630184775E+03  0.21915223365E+03  0.10000000000E+01 0.  0.
<mgrwt>
<rscale>  0 0.12499821E+03</rscale>
<asrwt>0</asrwt>
<pdfrwt beam="2">  1        4 0.25199245E-02 0.12499821E+03</pdfrwt>
<pdfrwt beam="1">  1       -4 0.36688784E-01 0.12499821E+03</pdfrwt>
<totfact> 0.81636587E+03</totfact>
</mgrwt>
</event>
<event>
 5    1  0.3516911E-002  0.1250007E+03  0.7818608E-02  0.1235068E+00
          4   -1    0    0  501    0  0.00000000000E+00  0.00000000000E+00  0.99671024776E+02  0.99679115565E+02  0.12700000000E+01 0.  1.
         -4   -1    0    0    0  501 -0.00000000000E+00 -0.00000000000E+00 -0.39171903446E+02  0.39192485499E+02  0.12700000000E+01 0.  1.
         25    2    1    2    0    0  0.00000000000E+00  0.00000000000E+00  0.60499121330E+02  0.13887160106E+03  0.12500071160E+03 0.  0.
    9000005    1    3    3    0    0  0.18033882495E-01  0.53722843711E+02  0.65716201514E+02  0.84886768127E+02  0.10000000000E+01 0.  0.
    9000005    1    3    3    0    0 -0.18033882495E-01 -0.53722843711E+02 -0.52170801840E+01  0.53984832938E+02  0.10000000000E+01 0.  0.
<mgrwt>
<rscale>  0 0.12500071E+03</rscale>
<asrwt>0</asrwt>
<pdfrwt beam="1">  1        4 0.15336210E-01 0.12500071E+03</pdfrwt>
<pdfrwt beam="2">  1       -4 0.60286522E-02 0.12500071E+03</pdfrwt>
<totfact> 0.10156863E+04</totfact>
</mgrwt>
</event>
<event>
 5    1  0.3516911E-002  0.1249982E+03  0.7818608E-02  0.1235072E+00
         -4   -1    0    0    0  501 -0.00000000000E+00  0.00000000000E+00  0.71180386614E+03  0.71180499910E+03  0.12700000000E+01 0.  1.
          4   -1    0    0  501    0  0.00000000000E+00 -0.00000000000E+00 -0.54130317503E+01  0.55600191304E+01  0.12700000000E+01 0.  1.
         25    2    1    2    0    0  0.00000000000E+00  0.00000000000E+00  0.70639083439E+03  0.71736501823E+03  0.12499823390E+03 0.  0.
    9000005    1    3    3    0    0  0.12067954589E+02  0.20421166449E+02  0.68499109932E+03  0.68540241152E+03  0.10000000000E+01 0.  0.
    9000005    1    3    3    0    0 -0.12067954589E+02 -0.20421166449E+02  0.21399735068E+02  0.31962606716E+02  0.10000000000E+01 0.  0.
<mgrwt>
<rscale>  0 0.12499823E+03</rscale>
<asrwt>0</asrwt>
<pdfrwt beam="2">  1        4 0.84416861E-03 0.12499823E+03</pdfrwt>
<pdfrwt beam="1">  1       -4 0.10951960E+00 0.12499823E+03</pdfrwt>
<totfact> 0.42187384E+03</totfact>
</mgrwt>
</event>
<event>
 5    1  0.3516911E-002  0.1249992E+03  0.7818608E-02  0.1235071E+00
          4   -1    0    0  501    0  0.00000000000E+00  0.00000000000E+00  0.16407663117E+02  0.16456740533E+02  0.12700000000E+01 0. -1.
         -4   -1    0    0    0  501 -0.00000000000E+00 -0.00000000000E+00 -0.23766534458E+03  0.23766873777E+03  0.12700000000E+01 0. -1.
         25    2    1    2    0    0  0.00000000000E+00  0.00000000000E+00 -0.22125768146E+03  0.25412547830E+03  0.12499918847E+03 0.  0.
    9000005    1    3    3    0    0  0.25521536097E+01 -0.59193329712E+02 -0.70231840456E+02  0.91890560910E+02  0.10000000000E+01 0.  0.
    9000005    1    3    3    0    0 -0.25521536097E+01  0.59193329712E+02 -0.15102584101E+03  0.16223491739E+03  0.10000000000E+01 0.  0.
<mgrwt>
<rscale>  0 0.12499919E+03</rscale>
<asrwt>0</asrwt>
<pdfrwt beam="1">  1        4 0.25282922E-02 0.12499919E+03</pdfrwt>
<pdfrwt beam="2">  1       -4 0.36567933E-01 0.12499919E+03</pdfrwt>
<totfact> 0.81739079E+03</totfact>
</mgrwt>
</event>
<event>
 5    1  0.3516911E-002  0.1249733E+03  0.7818608E-02  0.1235111E+00
          4   -1    0    0  501    0  0.00000000000E+00  0.00000000000E+00  0.82600236595E+03  0.82600334228E+03  0.12700000000E+01 0. -1.
         -4   -1    0    0    0  501 -0.00000000000E+00 -0.00000000000E+00 -0.46407819891E+01  0.48114194860E+01  0.12700000000E+01 0. -1.
         25    2    1    2    0    0  0.00000000000E+00  0.00000000000E+00  0.82136158396E+03  0.83081476177E+03  0.12497326418E+03 0.  0.
    9000005    1    3    3    0    0  0.28313292272E+01 -0.33827477617E+02  0.75938184999E+03  0.76014084798E+03  0.10000000000E+01 0.  0.
    9000005    1    3    3    0    0 -0.28313292272E+01  0.33827477617E+02  0.61979733974E+02  0.70673913792E+02  0.10000000000E+01 0.  0.
<mgrwt>
<rscale>  0 0.12497326E+03</rscale>
<asrwt>0</asrwt>
<pdfrwt beam="1">  1        4 0.12709062E+00 0.12497326E+03</pdfrwt>
<pdfrwt beam="2">  1       -4 0.72716678E-03 0.12497326E+03</pdfrwt>
<totfact> 0.36947047E+03</totfact>
</mgrwt>
</event>
<event>
 5    1  0.3516911E-002  0.1249983E+03  0.7818608E-02  0.1235072E+00
          4   -1    0    0  501    0  0.00000000000E+00  0.00000000000E+00  0.29291955486E+02  0.29319474009E+02  0.12700000000E+01 0. -1.
         -4   -1    0    0    0  501 -0.00000000000E+00 -0.00000000000E+00 -0.13325898525E+03  0.13326503686E+03  0.12700000000E+01 0. -1.
         25    2    1    2    0    0  0.00000000000E+00  0.00000000000E+00 -0.10396702976E+03  0.16258451087E+03  0.12499831958E+03 0.  0.
    9000005    1    3    3    0    0 -0.29591746783E+02 -0.21807153179E+02 -0.11771580630E+03  0.12332572505E+03  0.10000000000E+01 0.  0.
    9000005    1    3    3    0    0  0.29591746783E+02  0.21807153179E+02  0.13748776537E+02  0.39258785815E+02  0.10000000000E+01 0.  0.
<mgrwt>
<rscale>  0 0.12499832E+03</rscale>
<asrwt>0</asrwt>
<pdfrwt beam="1">  1        4 0.45090371E-02 0.12499832E+03</pdfrwt>
<pdfrwt beam="2">  1       -4 0.20503964E-01 0.12499832E+03</pdfrwt>
<totfact> 0.96850471E+03</totfact>
</mgrwt>
</event>
<event>
 5    1  0.3516911E-002  0.1249983E+03  0.7818608E-02  0.1235072E+00
          4   -1    0    0  501    0  0.00000000000E+00  0.00000000000E+00  0.54025231256E+02  0.54040156479E+02  0.12700000000E+01 0. -1.
         -4   -1    0    0    0  501 -0.00000000000E+00 -0.00000000000E+00 -0.72271665310E+02  0.72282823040E+02  0.12700000000E+01 0. -1.
         25    2    1    2    0    0  0.00000000000E+00  0.00000000000E+00 -0.18246434054E+02  0.12632297952E+03  0.12499825118E+03 0.  0.
    9000005    1    3    3    0    0 -0.61667267800E+02 -0.90149999078E+01 -0.44900294080E+01  0.62492259564E+02  0.10000000000E+01 0.  0.
    9000005    1    3    3    0    0  0.61667267800E+02  0.90149999078E+01 -0.13756404646E+02  0.63830719956E+02  0.10000000000E+01 0.  0.
<mgrwt>
<rscale>  0 0.12499825E+03</rscale>
<asrwt>0</asrwt>
<pdfrwt beam="1">  1        4 0.83135804E-02 0.12499825E+03</pdfrwt>
<pdfrwt beam="2">  1       -4 0.11120724E-01 0.12499825E+03</pdfrwt>
<totfact> 0.10424303E+04</totfact>
</mgrwt>
</event>
<event>
 5    1  0.3516911E-002  0.1250012E+03  0.7818608E-02  0.1235067E+00
         -4   -1    0    0    0  501 -0.00000000000E+00  0.00000000000E+00  0.64205854398E+02  0.64218413550E+02  0.12700000000E+01 0.  1.
          4   -1    0    0  501    0  0.00000000000E+00 -0.00000000000E+00 -0.60815470919E+02  0.60828730080E+02  0.12700000000E+01 0.  1.
         25    2    1    2    0    0  0.00000000000E+00  0.00000000000E+00  0.33903834783E+01  0.12504714363E+03  0.12500117371E+03 0.  0.
    9000005    1    3    3    0    0 -0.43042837377E+02 -0.40889218257E+02  0.21214141662E+02  0.63052786025E+02  0.10000000000E+01 0.  0.
    9000005    1    3    3    0    0  0.43042837377E+02  0.40889218257E+02 -0.17823758184E+02  0.61994357605E+02  0.10000000000E+01 0.  0.
<mgrwt>
<rscale>  0 0.12500117E+03</rscale>
<asrwt>0</asrwt>
<pdfrwt beam="2">  1        4 0.93582123E-02 0.12500117E+03</pdfrwt>
<pdfrwt beam="1">  1       -4 0.98798098E-02 0.12500117E+03</pdfrwt>
<totfact> 0.10451561E+04</totfact>
</mgrwt>
</event>
<event>
 5    1  0.3516911E-002  0.1249973E+03  0.7818608E-02  0.1235073E+00
         -4   -1    0    0    0  501 -0.00000000000E+00  0.00000000000E+00  0.12006209305E+02  0.12073191868E+02  0.12700000000E+01 0.  1.
          4   -1    0    0  501    0  0.00000000000E+00 -0.00000000000E+00 -0.32436532081E+03  0.32436780704E+03  0.12700000000E+01 0.  1.
         25    2    1    2    0    0  0.00000000000E+00  0.00000000000E+00 -0.31235911150E+03  0.33644099891E+03  0.12499732480E+03 0.  0.
    9000005    1    3    3    0    0 -0.61198596831E+02 -0.58757275318E+01 -0.12605178158E+03  0.14024922127E+03  0.10000000000E+01 0.  0.
    9000005    1    3    3    0    0  0.61198596831E+02  0.58757275318E+01 -0.18630732992E+03  0.19619177764E+03  0.10000000000E+01 0.  0.
<mgrwt>
<rscale>  0 0.12499732E+03</rscale>
<asrwt>0</asrwt>
<pdfrwt beam="2">  1        4 0.49907694E-01 0.12499732E+03</pdfrwt>
<pdfrwt beam="1">  1       -4 0.18524531E-02 0.12499732E+03</pdfrwt>
<totfact> 0.71246653E+03</totfact>
</mgrwt>
</event>
<event>
 5    1  0.3516911E-002  0.1250104E+03  0.7818608E-02  0.1235053E+00
         -4   -1    0    0    0  501 -0.00000000000E+00  0.00000000000E+00  0.10796875858E+02  0.10871312169E+02  0.12700000000E+01 0.  1.
          4   -1    0    0  501    0  0.00000000000E+00 -0.00000000000E+00 -0.36053625844E+03  0.36053849524E+03  0.12700000000E+01 0.  1.
         25    2    1    2    0    0  0.00000000000E+00  0.00000000000E+00 -0.34973938258E+03  0.37140980741E+03  0.12501043681E+03 0.  0.
    9000005    1    3    3    0    0  0.65247253008E+00 -0.48971809912E+02 -0.59524876554E+02  0.77090043555E+02  0.10000000000E+01 0.  0.
    9000005    1    3    3    0    0 -0.65247253008E+00  0.48971809912E+02 -0.29021450603E+03  0.29431976385E+03  0.10000000000E+01 0.  0.
<mgrwt>
<rscale>  0 0.12501044E+03</rscale>
<asrwt>0</asrwt>
<pdfrwt beam="2">  1        4 0.55473006E-01 0.12501044E+03</pdfrwt>
<pdfrwt beam="1">  1       -4 0.16669560E-02 0.12501044E+03</pdfrwt>
<totfact> 0.67416151E+03</totfact>
</mgrwt>
</event>
<event>
 5    1  0.3516911E-002  0.1250003E+03  0.7818608E-02  0.1235069E+00
         -4   -1    0    0    0  501 -0.00000000000E+00  0.00000000000E+00  0.24122325072E+03  0.24122659386E+03  0.12700000000E+01 0.  1.
          4   -1    0    0  501    0  0.00000000000E+00 -0.00000000000E+00 -0.16165228004E+02  0.16215039205E+02  0.12700000000E+01 0.  1.
         25    2    1    2    0    0  0.00000000000E+00  0.00000000000E+00  0.22505802271E+03  0.25744163307E+03  0.12500032339E+03 0.  0.
    9000005    1    3    3    0    0 -0.26232340370E+02 -0.51356635957E+02  0.16211320446E+03  0.17206780873E+03  0.10000000000E+01 0.  0.
    9000005    1    3    3    0    0  0.26232340370E+02  0.51356635957E+02  0.62944818249E+02  0.85373824340E+02  0.10000000000E+01 0.  0.
<mgrwt>
<rscale>  0 0.12500032E+03</rscale>
<asrwt>0</asrwt>
<pdfrwt beam="2">  1        4 0.24910471E-02 0.12500032E+03</pdfrwt>
<pdfrwt beam="1">  1       -4 0.37115357E-01 0.12500032E+03</pdfrwt>
<totfact> 0.81265852E+03</totfact>
</mgrwt>
</event>
<event>
 5    1  0.3516911E-002  0.1250002E+03  0.7818608E-02  0.1235069E+00
         -4   -1    0    0    0  501 -0.00000000000E+00  0.00000000000E+00  0.12400329048E+03  0.12400979377E+03  0.12700000000E+01 0. -1.
          4   -1    0    0  501    0  0.00000000000E+00 -0.00000000000E+00 -0.31481171592E+02  0.31506778077E+02  0.12700000000E+01 0. -1.
         25    2    1    2    0    0  0.00000000000E+00  0.00000000000E+00  0.92522118891E+02  0.15551657185E+03  0.12500024654E+03 0.  0.
    9000005    1    3    3    0    0 -0.49822612289E+02 -0.36303328032E+02  0.33510025305E+02  0.70172260313E+02  0.10000000000E+01 0.  0.
    9000005    1    3    3    0    0  0.49822612289E+02  0.36303328032E+02  0.59012093586E+02  0.85344311533E+02  0.10000000000E+01 0.  0.
<mgrwt>
<rscale>  0 0.12500025E+03</rscale>
<asrwt>0</asrwt>
<pdfrwt beam="2">  1        4 0.48457272E-02 0.12500025E+03</pdfrwt>
<pdfrwt beam="1">  1       -4 0.19079899E-01 0.12500025E+03</pdfrwt>
<totfact> 0.98213640E+03</totfact>
</mgrwt>
</event>
<event>
 5    1  0.3516911E-002  0.1250005E+03  0.7818608E-02  0.1235068E+00
          4   -1    0    0  501    0  0.00000000000E+00  0.00000000000E+00  0.68132014195E+02  0.68143849747E+02  0.12700000000E+01 0.  1.
         -4   -1    0    0    0  501 -0.00000000000E+00 -0.00000000000E+00 -0.57310161088E+02  0.57324231037E+02  0.12700000000E+01 0.  1.
         25    2    1    2    0    0  0.00000000000E+00  0.00000000000E+00  0.10821853107E+02  0.12546808078E+03  0.12500050716E+03 0.  0.
    9000005    1    3    3    0    0 -0.34279955190E+01  0.16274029954E+02  0.65874833183E+02  0.67949163726E+02  0.10000000000E+01 0.  0.
    9000005    1    3    3    0    0  0.34279955190E+01 -0.16274029954E+02 -0.55052980075E+02  0.57518917057E+02  0.10000000000E+01 0.  0.
<mgrwt>
<rscale>  0 0.12500051E+03</rscale>
<asrwt>0</asrwt>
<pdfrwt beam="1">  1        4 0.10483841E-01 0.12500051E+03</pdfrwt>
<pdfrwt beam="2">  1       -4 0.88189406E-02 0.12500051E+03</pdfrwt>
<totfact> 0.10442540E+04</totfact>
</mgrwt>
</event>
<event>
 5    1  0.3516911E-002  0.1250058E+03  0.7818608E-02  0.1235060E+00
         -4   -1    0    0    0  501 -0.00000000000E+00  0.00000000000E+00  0.86104461824E+01  0.87036017522E+01  0.12700000000E+01 0. -1.
          4   -1    0    0  501    0  0.00000000000E+00 -0.00000000000E+00 -0.45117095438E+03  0.45117274184E+03  0.12700000000E+01 0. -1.
         25    2    1    2    0    0  0.00000000000E+00  0.00000000000E+00 -0.44256050820E+03  0.45987634359E+03  0.12500579177E+03 0.  0.
    9000005    1    3    3    0    0 -0.42940434000E+02 -0.14569825236E+02 -0.37948969149E+03  0.38219051091E+03  0.10000000000E+01 0.  0.
    9000005    1    3    3    0    0  0.42940434000E+02  0.14569825236E+02 -0.63070816710E+02  0.77685832685E+02  0.10000000000E+01 0.  0.
<mgrwt>
<rscale>  0 0.12500579E+03</rscale>
<asrwt>0</asrwt>
<pdfrwt beam="2">  1        4 0.69418201E-01 0.12500579E+03</pdfrwt>
<pdfrwt beam="1">  1       -4 0.13319877E-02 0.12500579E+03</pdfrwt>
<totfact> 0.59110126E+03</totfact>
</mgrwt>
</event>
<event>
 5    1  0.3516911E-002  0.1250063E+03  0.7818608E-02  0.1235059E+00
         -4   -1    0    0    0  501 -0.00000000000E+00  0.00000000000E+00  0.27395649791E+02  0.27425071148E+02  0.12700000000E+01 0. -1.
          4   -1    0    0  501    0  0.00000000000E+00 -0.00000000000E+00 -0.14249207056E+03  0.14249773006E+03  0.12700000000E+01 0. -1.
         25    2    1    2    0    0  0.00000000000E+00  0.00000000000E+00 -0.11509642076E+03  0.16992280120E+03  0.12500628903E+03 0.  0.
    9000005    1    3    3    0    0 -0.32817516452E+02  0.51838585349E+02 -0.73712892252E+02  0.95910472844E+02  0.10000000000E+01 0.  0.
    9000005    1    3    3    0    0  0.32817516452E+02 -0.51838585349E+02 -0.41383528513E+02  0.74012328360E+02  0.10000000000E+01 0.  0.
<mgrwt>
<rscale>  0 0.12500629E+03</rscale>
<asrwt>0</asrwt>
<pdfrwt beam="2">  1        4 0.21924555E-01 0.12500629E+03</pdfrwt>
<pdfrwt beam="1">  1       -4 0.42174140E-02 0.12500629E+03</pdfrwt>
<totfact> 0.95449553E+03</totfact>
</mgrwt>
</event>
<event>
 5    1  0.3516911E-002  0.1249933E+03  0.7818608E-02  0.1235080E+00
          4   -1    0    0  501    0  0.00000000000E+00  0.00000000000E+00  0.10161640933E+02  0.10240695604E+02  0.12700000000E+01 0. -1.
         -4   -1    0    0    0  501 -0.00000000000E+00 -0.00000000000E+00 -0.38280075212E+03  0.38280285882E+03  0.12700000000E+01 0. -1.
         25    2    1    2    0    0  0.00000000000E+00  0.00000000000E+00 -0.37263911118E+03  0.39304355442E+03  0.12499331378E+03 0.  0.
    9000005    1    3    3    0    0 -0.22997092143E+02 -0.57135013628E+02 -0.21953197739E+03  0.22801001102E+03  0.10000000000E+01 0.  0.
    9000005    1    3    3    0    0  0.22997092143E+02  0.57135013628E+02 -0.15310713380E+03  0.16503354341E+03  0.10000000000E+01 0.  0.
<mgrwt>
<rscale>  0 0.12499331E+03</rscale>
<asrwt>0</asrwt>
<pdfrwt beam="1">  1        4 0.15695729E-02 0.12499331E+03</pdfrwt>
<pdfrwt beam="2">  1       -4 0.58898656E-01 0.12499331E+03</pdfrwt>
<totfact> 0.65244673E+03</totfact>
</mgrwt>
</event>
<event>
 5    1  0.3516911E-002  0.1250012E+03  0.7818608E-02  0.1235067E+00
         -4   -1    0    0    0  501 -0.00000000000E+00  0.00000000000E+00  0.12479484639E+02  0.12543940244E+02  0.12700000000E+01 0. -1.
          4   -1    0    0  501    0  0.00000000000E+00 -0.00000000000E+00 -0.31214788113E+03  0.31215046467E+03  0.12700000000E+01 0. -1.
         25    2    1    2    0    0  0.00000000000E+00  0.00000000000E+00 -0.29966839650E+03  0.32469440492E+03  0.12500123490E+03 0.  0.
    9000005    1    3    3    0    0 -0.27954125717E+02  0.53450556470E+01 -0.53189782560E+01  0.28970576352E+02  0.10000000000E+01 0.  0.
    9000005    1    3    3    0    0  0.27954125717E+02 -0.53450556470E+01 -0.29434941824E+03  0.29572382857E+03  0.10000000000E+01 0.  0.
<mgrwt>
<rscale>  0 0.12500123E+03</rscale>
<asrwt>0</asrwt>
<pdfrwt beam="2">  1        4 0.48027902E-01 0.12500123E+03</pdfrwt>
<pdfrwt beam="1">  1       -4 0.19250778E-02 0.12500123E+03</pdfrwt>
<totfact> 0.72599261E+03</totfact>
</mgrwt>
</event>
<event>
 5    1  0.3516911E-002  0.1249994E+03  0.7818608E-02  0.1235070E+00
         -4   -1    0    0    0  501 -0.00000000000E+00  0.00000000000E+00  0.36273075224E+01  0.38432095782E+01  0.12700000000E+01 0. -1.
          4   -1    0    0  501    0  0.00000000000E+00 -0.00000000000E+00 -0.10455519651E+04  0.10455527364E+04  0.12700000000E+01 0. -1.
         25    2    1    2    0    0  0.00000000000E+00  0.00000000000E+00 -0.10419246576E+04  0.10493959460E+04  0.12499943759E+03 0.  0.
    9000005    1    3    3    0    0 -0.54844488513E+02  0.13518717251E+02 -0.74537375437E+03  0.74751167706E+03  0.10000000000E+01 0.  0.
    9000005    1    3    3    0    0  0.54844488513E+02 -0.13518717251E+02 -0.29655090320E+03  0.30188426892E+03  0.10000000000E+01 0.  0.
<mgrwt>
<rscale>  0 0.12499944E+03</rscale>
<asrwt>0</asrwt>
<pdfrwt beam="2">  1        4 0.16087058E+00 0.12499944E+03</pdfrwt>
<pdfrwt beam="1">  1       -4 0.57471532E-03 0.12499944E+03</pdfrwt>
<totfact> 0.29014038E+03</totfact>
</mgrwt>
</event>
<event>
 4    1  0.3516911E-002  0.1249073E+03  0.7818608E-02  0.1235214E+00
          4   -1    0    0  501    0  0.00000000000E+00  0.00000000000E+00  0.12221130832E+03  0.12221790696E+03  0.12700000000E+01 0. -1.
         -4   -1    0    0    0  501 -0.00000000000E+00 -0.00000000000E+00 -0.31895619067E+02  0.31920893090E+02  0.12700000000E+01 0. -1.
    9000005    1    1    2    0    0 -0.20777425089E+02  0.28991350541E+02  0.10841004637E+03  0.11413123128E+03  0.10000000000E+01 0.  0.
    9000005    1    1    2    0    0  0.20777425089E+02 -0.28991350541E+02 -0.18094357115E+02  0.40007568770E+02  0.10000000000E+01 0.  0.
<mgrwt>
<rscale>  0 0.12490735E+03</rscale>
<asrwt>0</asrwt>
<pdfrwt beam="1">  1        4 0.18804192E-01 0.12490735E+03</pdfrwt>
<pdfrwt beam="2">  1       -4 0.49094700E-02 0.12490735E+03</pdfrwt>
<totfact> 0.98690342E+03</totfact>
</mgrwt>
</event>
<event>
 5    1  0.3516911E-002  0.1250076E+03  0.7818608E-02  0.1235057E+00
         -4   -1    0    0    0  501 -0.00000000000E+00  0.00000000000E+00  0.80842161440E+02  0.80852136436E+02  0.12700000000E+01 0. -1.
          4   -1    0    0  501    0  0.00000000000E+00 -0.00000000000E+00 -0.48304023648E+02  0.48320716060E+02  0.12700000000E+01 0. -1.
         25    2    1    2    0    0  0.00000000000E+00  0.00000000000E+00  0.32538137792E+02  0.12917285250E+03  0.12500758141E+03 0.  0.
    9000005    1    3    3    0    0 -0.37503183856E+02  0.18319487235E+00 -0.35388686699E+02  0.51574039070E+02  0.10000000000E+01 0.  0.
    9000005    1    3    3    0    0  0.37503183856E+02 -0.18319487235E+00  0.67926824491E+02  0.77598813426E+02  0.10000000000E+01 0.  0.
<mgrwt>
<rscale>  0 0.12500758E+03</rscale>
<asrwt>0</asrwt>
<pdfrwt beam="2">  1        4 0.74334396E-02 0.12500758E+03</pdfrwt>
<pdfrwt beam="1">  1       -4 0.12439307E-01 0.12500758E+03</pdfrwt>
<totfact> 0.10360461E+04</totfact>
</mgrwt>
</event>
<event>
 5    1  0.3516911E-002  0.1250013E+03  0.7818608E-02  0.1235067E+00
         -4   -1    0    0    0  501 -0.00000000000E+00  0.00000000000E+00  0.47334172758E+02  0.47351207067E+02  0.12700000000E+01 0.  1.
          4   -1    0    0  501    0  0.00000000000E+00 -0.00000000000E+00 -0.82489935789E+02  0.82499711554E+02  0.12700000000E+01 0.  1.
         25    2    1    2    0    0  0.00000000000E+00  0.00000000000E+00 -0.35155763031E+02  0.12985091862E+03  0.12500133356E+03 0.  0.
    9000005    1    3    3    0    0  0.14324319928E+02  0.30323139968E+02 -0.72355593314E+02  0.79755945501E+02  0.10000000000E+01 0.  0.
    9000005    1    3    3    0    0 -0.14324319928E+02 -0.30323139968E+02  0.37199830283E+02  0.50094973121E+02  0.10000000000E+01 0.  0.
<mgrwt>
<rscale>  0 0.12500133E+03</rscale>
<asrwt>0</asrwt>
<pdfrwt beam="2">  1        4 0.12692822E-01 0.12500133E+03</pdfrwt>
<pdfrwt beam="1">  1       -4 0.72842427E-02 0.12500133E+03</pdfrwt>
<totfact> 0.10347386E+04</totfact>
</mgrwt>
</event>
<event>
 5    1  0.3516911E-002  0.1250198E+03  0.7818608E-02  0.1235038E+00
         -4   -1    0    0    0  501 -0.00000000000E+00  0.00000000000E+00  0.32688987800E+03  0.32689234503E+03  0.12700000000E+01 0. -1.
          4   -1    0    0  501    0  0.00000000000E+00 -0.00000000000E+00 -0.11917269535E+02  0.11984749191E+02  0.12700000000E+01 0. -1.
         25    2    1    2    0    0  0.00000000000E+00  0.00000000000E+00  0.31497260847E+03  0.33887709422E+03  0.12501976206E+03 0.  0.
    9000005    1    3    3    0    0  0.56100592687E+02 -0.22135268360E+02  0.11300963819E+03  0.12809927763E+03  0.10000000000E+01 0.  0.
    9000005    1    3    3    0    0 -0.56100592687E+02  0.22135268360E+02  0.20196297028E+03  0.21077781659E+03  0.10000000000E+01 0.  0.
<mgrwt>
<rscale>  0 0.12501976E+03</rscale>
<asrwt>0</asrwt>
<pdfrwt beam="2">  1        4 0.18388068E-02 0.12501976E+03</pdfrwt>
<pdfrwt beam="1">  1       -4 0.50296125E-01 0.12501976E+03</pdfrwt>
<totfact> 0.70934755E+03</totfact>
</mgrwt>
</event>
<event>
 5    1  0.3516911E-002  0.1249995E+03  0.7818608E-02  0.1235070E+00
         -4   -1    0    0    0  501 -0.00000000000E+00  0.00000000000E+00  0.36870378707E+02  0.36892244795E+02  0.12700000000E+01 0. -1.
          4   -1    0    0  501    0  0.00000000000E+00 -0.00000000000E+00 -0.10588759777E+03  0.10589521359E+03  0.12700000000E+01 0. -1.
         25    2    1    2    0    0  0.00000000000E+00  0.00000000000E+00 -0.69017219065E+02  0.14278745839E+03  0.12499952698E+03 0.  0.
    9000005    1    3    3    0    0 -0.36340328826E+02  0.38667741751E+02 -0.72211679295E+02  0.89617745887E+02  0.10000000000E+01 0.  0.
    9000005    1    3    3    0    0  0.36340328826E+02 -0.38667741751E+02  0.31944602297E+01  0.53169712501E+02  0.10000000000E+01 0.  0.
<mgrwt>
<rscale>  0 0.12499953E+03</rscale>
<asrwt>0</asrwt>
<pdfrwt beam="2">  1        4 0.16292667E-01 0.12499953E+03</pdfrwt>
<pdfrwt beam="1">  1       -4 0.56746338E-02 0.12499953E+03</pdfrwt>
<totfact> 0.10076245E+04</totfact>
</mgrwt>
</event>
<event>
 5    1  0.3516911E-002  0.1250002E+03  0.7818608E-02  0.1235069E+00
          4   -1    0    0  501    0  0.00000000000E+00  0.00000000000E+00  0.61566272087E+01  0.62862515530E+01  0.12700000000E+01 0.  1.
         -4   -1    0    0    0  501 -0.00000000000E+00 -0.00000000000E+00 -0.62774134284E+03  0.62774262753E+03  0.12700000000E+01 0.  1.
         25    2    1    2    0    0  0.00000000000E+00  0.00000000000E+00 -0.62158471563E+03  0.63402887908E+03  0.12500024319E+03 0.  0.
    9000005    1    3    3    0    0 -0.42761380523E+02 -0.38889968699E+02 -0.19030176063E+03  0.19888872625E+03  0.10000000000E+01 0.  0.
    9000005    1    3    3    0    0  0.42761380523E+02  0.38889968699E+02 -0.43128295500E+03  0.43514015283E+03  0.10000000000E+01 0.  0.
<mgrwt>
<rscale>  0 0.12500024E+03</rscale>
<asrwt>0</asrwt>
<pdfrwt beam="1">  1        4 0.95724383E-03 0.12500024E+03</pdfrwt>
<pdfrwt beam="2">  1       -4 0.96585611E-01 0.12500024E+03</pdfrwt>
<totfact> 0.46787498E+03</totfact>
</mgrwt>
</event>
<event>
 5    1  0.3516911E-002  0.1249973E+03  0.7818608E-02  0.1235073E+00
         -4   -1    0    0    0  501 -0.00000000000E+00  0.00000000000E+00  0.21830683772E+03  0.21831053180E+03  0.12700000000E+01 0.  1.
          4   -1    0    0  501    0  0.00000000000E+00 -0.00000000000E+00 -0.17866240602E+02  0.17911321929E+02  0.12700000000E+01 0.  1.
         25    2    1    2    0    0  0.00000000000E+00  0.00000000000E+00  0.20044059712E+03  0.23622185373E+03  0.12499732480E+03 0.  0.
    9000005    1    3    3    0    0  0.98571638412E+01  0.61589503901E+02  0.10745415299E+03  0.12424904693E+03  0.10000000000E+01 0.  0.
    9000005    1    3    3    0    0 -0.98571638412E+01 -0.61589503901E+02  0.92986444130E+02  0.11197280680E+03  0.10000000000E+01 0.  0.
<mgrwt>
<rscale>  0 0.12499732E+03</rscale>
<asrwt>0</asrwt>
<pdfrwt beam="2">  1        4 0.27524042E-02 0.12499732E+03</pdfrwt>
<pdfrwt beam="1">  1       -4 0.33589421E-01 0.12499732E+03</pdfrwt>
<totfact> 0.84368323E+03</totfact>
</mgrwt>
</event>
<event>
 5    1  0.3516911E-002  0.1250012E+03  0.7818608E-02  0.1235067E+00
         -4   -1    0    0    0  501 -0.00000000000E+00  0.00000000000E+00  0.58597808272E+03  0.58597945896E+03  0.12700000000E+01 0. -1.
          4   -1    0    0  501    0  0.00000000000E+00 -0.00000000000E+00 -0.66044539326E+01  0.67254525311E+01  0.12700000000E+01 0. -1.
         25    2    1    2    0    0  0.00000000000E+00  0.00000000000E+00  0.57937362879E+03  0.59270491149E+03  0.12500124150E+03 0.  0.
    9000005    1    3    3    0    0 -0.59722131358E+02  0.15403099691E+02  0.24195446542E+03  0.24969371597E+03  0.10000000000E+01 0.  0.
    9000005    1    3    3    0    0  0.59722131358E+02 -0.15403099691E+02  0.33741916336E+03  0.34301119553E+03  0.10000000000E+01 0.  0.
<mgrwt>
<rscale>  0 0.12500124E+03</rscale>
<asrwt>0</asrwt>
<pdfrwt beam="2">  1        4 0.10254835E-02 0.12500124E+03</pdfrwt>
<pdfrwt beam="1">  1       -4 0.90159866E-01 0.12500124E+03</pdfrwt>
<totfact> 0.49330025E+03</totfact>
</mgrwt>
</event>
<event>
 5    1  0.3516911E-002  0.1249965E+03  0.7818608E-02  0.1235075E+00
          4   -1    0    0  501    0  0.00000000000E+00  0.00000000000E+00  0.56097751565E+02  0.56112125523E+02  0.12700000000E+01 0.  1.
         -4   -1    0    0    0  501 -0.00000000000E+00 -0.00000000000E+00 -0.69599903372E+02  0.69611489349E+02  0.12700000000E+01 0.  1.
         25    2    1    2    0    0  0.00000000000E+00  0.00000000000E+00 -0.13502151806E+02  0.12572361487E+03  0.12499647688E+03 0.  0.
    9000005    1    3    3    0    0  0.59133915128E+02 -0.19935673337E+02 -0.10053285736E+02  0.63216449947E+02  0.10000000000E+01 0.  0.
    9000005    1    3    3    0    0 -0.59133915128E+02  0.19935673337E+02 -0.34488660702E+01  0.62507164925E+02  0.10000000000E+01 0.  0.
<mgrwt>
<rscale>  0 0.12499648E+03</rscale>
<asrwt>0</asrwt>
<pdfrwt beam="1">  1        4 0.86324203E-02 0.12499648E+03</pdfrwt>
<pdfrwt beam="2">  1       -4 0.10709674E-01 0.12499648E+03</pdfrwt>
<totfact> 0.10437854E+04</totfact>
</mgrwt>
</event>
<event>
 5    1  0.3516911E-002  0.1249866E+03  0.7818608E-02  0.1235090E+00
          4   -1    0    0  501    0  0.00000000000E+00  0.00000000000E+00  0.86838241896E+02  0.86847528206E+02  0.12700000000E+01 0.  1.
         -4   -1    0    0    0  501 -0.00000000000E+00 -0.00000000000E+00 -0.44952757455E+02  0.44970693822E+02  0.12700000000E+01 0.  1.
         25    2    1    2    0    0  0.00000000000E+00  0.00000000000E+00  0.41885484440E+02  0.13181822203E+03  0.12498659869E+03 0.  0.
    9000005    1    3    3    0    0 -0.46565880776E+02 -0.41657414563E+02  0.20066027906E+02  0.65630533416E+02  0.10000000000E+01 0.  0.
    9000005    1    3    3    0    0  0.46565880776E+02  0.41657414563E+02  0.21819456534E+02  0.66187688613E+02  0.10000000000E+01 0.  0.
<mgrwt>
<rscale>  0 0.12498660E+03</rscale>
<asrwt>0</asrwt>
<pdfrwt beam="1">  1        4 0.13361824E-01 0.12498660E+03</pdfrwt>
<pdfrwt beam="2">  1       -4 0.69179029E-02 0.12498660E+03</pdfrwt>
<totfact> 0.10308696E+04</totfact>
</mgrwt>
</event>
<event>
 5    1  0.3516911E-002  0.1249969E+03  0.7818608E-02  0.1235074E+00
          4   -1    0    0  501    0  0.00000000000E+00  0.00000000000E+00  0.28397283998E+02  0.28425668655E+02  0.12700000000E+01 0. -1.
         -4   -1    0    0    0  501 -0.00000000000E+00 -0.00000000000E+00 -0.13745022604E+03  0.13745609313E+03  0.12700000000E+01 0. -1.
         25    2    1    2    0    0  0.00000000000E+00  0.00000000000E+00 -0.10905294204E+03  0.16588176178E+03  0.12499685886E+03 0.  0.
    9000005    1    3    3    0    0 -0.58562332571E+02  0.63188202592E+01 -0.26829440873E+02  0.64732473946E+02  0.10000000000E+01 0.  0.
    9000005    1    3    3    0    0  0.58562332571E+02 -0.63188202592E+01 -0.82223501166E+02  0.10114928784E+03  0.10000000000E+01 0.  0.
<mgrwt>
<rscale>  0 0.12499686E+03</rscale>
<asrwt>0</asrwt>
<pdfrwt beam="1">  1        4 0.43714478E-02 0.12499686E+03</pdfrwt>
<pdfrwt beam="2">  1       -4 0.21148823E-01 0.12499686E+03</pdfrwt>
<totfact> 0.96227450E+03</totfact>
</mgrwt>
</event>
<event>
 5    1  0.3516911E-002  0.1249967E+03  0.7818608E-02  0.1235074E+00
         -4   -1    0    0    0  501 -0.00000000000E+00  0.00000000000E+00  0.78417732231E+01  0.79439478399E+01  0.12700000000E+01 0. -1.
          4   -1    0    0  501    0  0.00000000000E+00 -0.00000000000E+00 -0.49478006336E+03  0.49478169327E+03  0.12700000000E+01 0. -1.
         25    2    1    2    0    0  0.00000000000E+00  0.00000000000E+00 -0.48693829014E+03  0.50272564111E+03  0.12499668728E+03 0.  0.
    9000005    1    3    3    0    0 -0.47406213517E+02  0.40448605132E+02 -0.26216312774E+03  0.26946974651E+03  0.10000000000E+01 0.  0.
    9000005    1    3    3    0    0  0.47406213517E+02 -0.40448605132E+02 -0.22477516240E+03  0.23325589460E+03  0.10000000000E+01 0.  0.
<mgrwt>
<rscale>  0 0.12499669E+03</rscale>
<asrwt>0</asrwt>
<pdfrwt beam="2">  1        4 0.76127971E-01 0.12499669E+03</pdfrwt>
<pdfrwt beam="1">  1       -4 0.12144120E-02 0.12499669E+03</pdfrwt>
<totfact> 0.55657573E+03</totfact>
</mgrwt>
</event>
<event>
 5    1  0.3516911E-002  0.1249974E+03  0.7818608E-02  0.1235073E+00
         -4   -1    0    0    0  501 -0.00000000000E+00  0.00000000000E+00  0.23530555967E+03  0.23530898689E+03  0.12700000000E+01 0.  1.
          4   -1    0    0  501    0  0.00000000000E+00 -0.00000000000E+00 -0.16572213535E+02  0.16620805079E+02  0.12700000000E+01 0.  1.
         25    2    1    2    0    0  0.00000000000E+00  0.00000000000E+00  0.21873334614E+03  0.25192979197E+03  0.12499737345E+03 0.  0.
    9000005    1    3    3    0    0  0.10037205975E+01 -0.34680081086E+02  0.21412069497E+03  0.21691562298E+03  0.10000000000E+01 0.  0.
    9000005    1    3    3    0    0 -0.10037205975E+01  0.34680081086E+02  0.46126511646E+01  0.35014168988E+02  0.10000000000E+01 0.  0.
<mgrwt>
<rscale>  0 0.12499737E+03</rscale>
<asrwt>0</asrwt>
<pdfrwt beam="2">  1        4 0.25535729E-02 0.12499737E+03</pdfrwt>
<pdfrwt beam="1">  1       -4 0.36204855E-01 0.12499737E+03</pdfrwt>
<totfact> 0.82056912E+03</totfact>
</mgrwt>
</event>
<event>
 5    1  0.3516911E-002  0.1249995E+03  0.7818608E-02  0.1235070E+00
         -4   -1    0    0    0  501 -0.00000000000E+00  0.00000000000E+00  0.22194342668E+02  0.22230648808E+02  0.12700000000E+01 0. -1.
          4   -1    0    0  501    0  0.00000000000E+00 -0.00000000000E+00 -0.17581819143E+03  0.17582277821E+03  0.12700000000E+01 0. -1.
         25    2    1    2    0    0  0.00000000000E+00  0.00000000000E+00 -0.15362384876E+03  0.19805342702E+03  0.12499949218E+03 0.  0.
    9000005    1    3    3    0    0 -0.78329145499E+01 -0.35025135739E+01  0.21264353346E+02  0.22952012437E+02  0.10000000000E+01 0.  0.
    9000005    1    3    3    0    0  0.78329145499E+01  0.35025135739E+01 -0.17488820211E+03  0.17510141458E+03  0.10000000000E+01 0.  0.
<mgrwt>
<rscale>  0 0.12499949E+03</rscale>
<asrwt>0</asrwt>
<pdfrwt beam="2">  1        4 0.27052097E-01 0.12499949E+03</pdfrwt>
<pdfrwt beam="1">  1       -4 0.34176600E-02 0.12499949E+03</pdfrwt>
<totfact> 0.90465648E+03</totfact>
</mgrwt>
</event>
<event>
 5    1  0.3516911E-002  0.1249928E+03  0.7818608E-02  0.1235080E+00
          4   -1    0    0  501    0  0.00000000000E+00  0.00000000000E+00  0.48432032560E+02  0.48448680868E+02  0.12700000000E+01 0.  1.
         -4   -1    0    0    0  501 -0.00000000000E+00 -0.00000000000E+00 -0.80609495265E+02  0.80619499049E+02  0.12700000000E+01 0.  1.
         25    2    1    2    0    0  0.00000000000E+00  0.00000000000E+00 -0.32177462705E+02  0.12906817992E+03  0.12499282364E+03 0.  0.
    9000005    1    3    3    0    0 -0.42549902137E+02  0.44738401727E+02 -0.26035171614E+02  0.67013796504E+02  0.10000000000E+01 0.  0.
    9000005    1    3    3    0    0  0.42549902137E+02 -0.44738401727E+02 -0.61422910910E+01  0.62054383413E+02  0.10000000000E+01 0.  0.
<mgrwt>
<rscale>  0 0.12499282E+03</rscale>
<asrwt>0</asrwt>
<pdfrwt beam="1">  1        4 0.74531321E-02 0.12499282E+03</pdfrwt>
<pdfrwt beam="2">  1       -4 0.12403511E-01 0.12499282E+03</pdfrwt>
<totfact> 0.10366161E+04</totfact>
</mgrwt>
</event>
<event>
 5    1  0.3516911E-002  0.1250013E+03  0.7818608E-02  0.1235067E+00
          4   -1    0    0  501    0  0.00000000000E+00  0.00000000000E+00  0.59545387484E+02  0.59558929394E+02  0.12700000000E+01 0. -1.
         -4   -1    0    0    0  501 -0.00000000000E+00 -0.00000000000E+00 -0.65575402660E+02  0.65587699564E+02  0.12700000000E+01 0. -1.
         25    2    1    2    0    0  0.00000000000E+00  0.00000000000E+00 -0.60300151766E+01  0.12514662896E+03  0.12500127062E+03 0.  0.
    9000005    1    3    3    0    0 -0.19042923191E+02 -0.29754797931E+02  0.48594413114E+02  0.60086586769E+02  0.10000000000E+01 0.  0.
    9000005    1    3    3    0    0  0.19042923191E+02  0.29754797931E+02 -0.54624428291E+02  0.65060042189E+02  0.10000000000E+01 0.  0.
<mgrwt>
<rscale>  0 0.12500127E+03</rscale>
<asrwt>0</asrwt>
<pdfrwt beam="1">  1        4 0.91628165E-02 0.12500127E+03</pdfrwt>
<pdfrwt beam="2">  1       -4 0.10090511E-01 0.12500127E+03</pdfrwt>
<totfact> 0.10449379E+04</totfact>
</mgrwt>
</event>
<event>
 5    1  0.3516911E-002  0.1249985E+03  0.7818608E-02  0.1235072E+00
         -4   -1    0    0    0  501 -0.00000000000E+00  0.00000000000E+00  0.24999609486E+03  0.24999932069E+03  0.12700000000E+01 0. -1.
          4   -1    0    0  501    0  0.00000000000E+00 -0.00000000000E+00 -0.15595731346E+02  0.15647355566E+02  0.12700000000E+01 0. -1.
         25    2    1    2    0    0  0.00000000000E+00  0.00000000000E+00  0.23440036351E+03  0.26564667625E+03  0.12499850475E+03 0.  0.
    9000005    1    3    3    0    0  0.21161630114E+02  0.40909164939E+02  0.20695762627E+03  0.21202319080E+03  0.10000000000E+01 0.  0.
    9000005    1    3    3    0    0 -0.21161630114E+02 -0.40909164939E+02  0.27442737243E+02  0.53623485456E+02  0.10000000000E+01 0.  0.
<mgrwt>
<rscale>  0 0.12499850E+03</rscale>
<asrwt>0</asrwt>
<pdfrwt beam="2">  1        4 0.24035625E-02 0.12499850E+03</pdfrwt>
<pdfrwt beam="1">  1       -4 0.38465157E-01 0.12499850E+03</pdfrwt>
<totfact> 0.80122767E+03</totfact>
</mgrwt>
</event>
<event>
 5    1  0.3516911E-002  0.1249962E+03  0.7818608E-02  0.1235075E+00
          4   -1    0    0  501    0  0.00000000000E+00  0.00000000000E+00  0.40281395472E+03  0.40281595675E+03  0.12700000000E+01 0. -1.
         -4   -1    0    0    0  501 -0.00000000000E+00 -0.00000000000E+00 -0.96532001461E+01  0.97363839828E+01  0.12700000000E+01 0. -1.
         25    2    1    2    0    0  0.00000000000E+00  0.00000000000E+00  0.39316075457E+03  0.41255234074E+03  0.12499621959E+03 0.  0.
    9000005    1    3    3    0    0  0.52999275428E+02 -0.95627109149E+01  0.30119406479E+03  0.30597260220E+03  0.10000000000E+01 0.  0.
    9000005    1    3    3    0    0 -0.52999275428E+02  0.95627109149E+01  0.91966689784E+02  0.10657973853E+03  0.10000000000E+01 0.  0.
<mgrwt>
<rscale>  0 0.12499622E+03</rscale>
<asrwt>0</asrwt>
<pdfrwt beam="1">  1        4 0.61977943E-01 0.12499622E+03</pdfrwt>
<pdfrwt beam="2">  1       -4 0.14916602E-02 0.12499622E+03</pdfrwt>
<totfact> 0.63355277E+03</totfact>
</mgrwt>
</event>
<event>
 5    1  0.3516911E-002  0.1249986E+03  0.7818608E-02  0.1235071E+00
         -4   -1    0    0    0  501 -0.00000000000E+00  0.00000000000E+00  0.14985015980E+02  0.15038736780E+02  0.12700000000E+01 0.  1.
          4   -1    0    0  501    0  0.00000000000E+00 -0.00000000000E+00 -0.26014950892E+03  0.26015260885E+03  0.12700000000E+01 0.  1.
         25    2    1    2    0    0  0.00000000000E+00  0.00000000000E+00 -0.24516449294E+03  0.27519134563E+03  0.12499859244E+03 0.  0.
    9000005    1    3    3    0    0 -0.22003109405E+02 -0.35432534857E+02 -0.22503292232E+03  0.22886768552E+03  0.10000000000E+01 0.  0.
    9000005    1    3    3    0    0  0.22003109405E+02  0.35432534857E+02 -0.20131570622E+02  0.46323660106E+02  0.10000000000E+01 0.  0.
<mgrwt>
<rscale>  0 0.12499859E+03</rscale>
<asrwt>0</asrwt>
<pdfrwt beam="2">  1        4 0.40027369E-01 0.12499859E+03</pdfrwt>
<pdfrwt beam="1">  1       -4 0.23097581E-02 0.12499859E+03</pdfrwt>
<totfact> 0.78822517E+03</totfact>
</mgrwt>
</event>
<event>
 5    1  0.3516911E-002  0.1249967E+03  0.7818608E-02  0.1235074E+00
         -4   -1    0    0    0  501 -0.00000000000E+00  0.00000000000E+00  0.23678439066E+01  0.26869285003E+01  0.12700000000E+01 0. -1.
          4   -1    0    0  501    0  0.00000000000E+00 -0.00000000000E+00 -0.15451682222E+04  0.15451687441E+04  0.12700000000E+01 0. -1.
         25    2    1    2    0    0  0.00000000000E+00  0.00000000000E+00 -0.15428003783E+04  0.15478556726E+04  0.12499670392E+03 0.  0.
    9000005    1    3    3    0    0 -0.58266773902E+02  0.17066591806E+02 -0.58824704794E+03  0.59137287299E+03  0.10000000000E+01 0.  0.
    9000005    1    3    3    0    0  0.58266773902E+02 -0.17066591806E+02 -0.95455333033E+03  0.95648279960E+03  0.10000000000E+01 0.  0.
<mgrwt>
<rscale>  0 0.12499670E+03</rscale>
<asrwt>0</asrwt>
<pdfrwt beam="2">  1        4 0.23774202E+00 0.12499670E+03</pdfrwt>
<pdfrwt beam="1">  1       -4 0.38887003E-03 0.12499670E+03</pdfrwt>
<totfact> 0.17009974E+03</totfact>
</mgrwt>
</event>
<event>
 4    1  0.3516911E-002  0.1253683E+03  0.7818608E-02  0.1234495E+00
         -4   -1    0    0    0  501 -0.00000000000E+00  0.00000000000E+00  0.73120206189E+03  0.73120316480E+03  0.12700000000E+01 0. -1.
          4   -1    0    0  501    0  0.00000000000E+00 -0.00000000000E+00 -0.52976029907E+01  0.54477057049E+01  0.12700000000E+01 0. -1.
    9000005    1    1    2    0    0 -0.39285410357E+02  0.22183434229E+02  0.10730991491E+03  0.11641248240E+03  0.10000000000E+01 0.  0.
    9000005    1    1    2    0    0  0.39285410357E+02 -0.22183434229E+02  0.61859454399E+03  0.62023838810E+03  0.10000000000E+01 0.  0.
<mgrwt>
<rscale>  0 0.12536834E+03</rscale>
<asrwt>0</asrwt>
<pdfrwt beam="2">  1        4 0.82664724E-03 0.12536834E+03</pdfrwt>
<pdfrwt beam="1">  1       -4 0.11250423E+00 0.12536834E+03</pdfrwt>
<totfact> 0.40890669E+03</totfact>
</mgrwt>
</event>
<event>
 5    1  0.3516911E-002  0.1249967E+03  0.7818608E-02  0.1235074E+00
          4   -1    0    0  501    0  0.00000000000E+00  0.00000000000E+00  0.16439478355E+02  0.16488461074E+02  0.12700000000E+01 0.  1.
         -4   -1    0    0    0  501 -0.00000000000E+00 -0.00000000000E+00 -0.23719736560E+03  0.23720076549E+03  0.12700000000E+01 0.  1.
         25    2    1    2    0    0  0.00000000000E+00  0.00000000000E+00 -0.22075788725E+03  0.25368922656E+03  0.12499671553E+03 0.  0.
    9000005    1    3    3    0    0  0.41852961743E+02  0.43816083028E+02 -0.14139383646E+03  0.15383347012E+03  0.10000000000E+01 0.  0.
    9000005    1    3    3    0    0 -0.41852961743E+02 -0.43816083028E+02 -0.79364050781E+02  0.99855756443E+02  0.10000000000E+01 0.  0.
<mgrwt>
<rscale>  0 0.12499672E+03</rscale>
<asrwt>0</asrwt>
<pdfrwt beam="1">  1        4 0.25331801E-02 0.12499672E+03</pdfrwt>
<pdfrwt beam="2">  1       -4 0.36495929E-01 0.12499672E+03</pdfrwt>
<totfact> 0.81805911E+03</totfact>
</mgrwt>
</event>
<event>
 5    1  0.3516911E-002  0.1250040E+03  0.7818608E-02  0.1235063E+00
          4   -1    0    0  501    0  0.00000000000E+00  0.00000000000E+00  0.50136752127E+02  0.50152834555E+02  0.12700000000E+01 0.  1.
         -4   -1    0    0    0  501 -0.00000000000E+00 -0.00000000000E+00 -0.77883078363E+02  0.77893432298E+02  0.12700000000E+01 0.  1.
         25    2    1    2    0    0  0.00000000000E+00  0.00000000000E+00 -0.27746326235E+02  0.12804626685E+03  0.12500395128E+03 0.  0.
    9000005    1    3    3    0    0  0.33861775320E+02  0.37441093689E+02 -0.51607764484E+02  0.72199838500E+02  0.10000000000E+01 0.  0.
    9000005    1    3    3    0    0 -0.33861775320E+02 -0.37441093689E+02  0.23861438249E+02  0.55846428353E+02  0.10000000000E+01 0.  0.
<mgrwt>
<rscale>  0 0.12500395E+03</rscale>
<asrwt>0</asrwt>
<pdfrwt beam="1">  1        4 0.77153800E-02 0.12500395E+03</pdfrwt>
<pdfrwt beam="2">  1       -4 0.11984046E-01 0.12500395E+03</pdfrwt>
<totfact> 0.10385562E+04</totfact>
</mgrwt>
</event>
<event>
 5    1  0.3516911E-002  0.1250035E+03  0.7818608E-02  0.1235064E+00
          4   -1    0    0  501    0  0.00000000000E+00  0.00000000000E+00  0.11603608327E+03  0.11604303305E+03  0.12700000000E+01 0. -1.
         -4   -1    0    0    0  501 -0.00000000000E+00 -0.00000000000E+00 -0.33646037737E+02  0.33669997853E+02  0.12700000000E+01 0. -1.
         25    2    1    2    0    0  0.00000000000E+00  0.00000000000E+00  0.82390045531E+02  0.14971303091E+03  0.12500348803E+03 0.  0.
    9000005    1    3    3    0    0  0.62977866301E+01 -0.17281463291E+02  0.11272672797E+03  0.11422182930E+03  0.10000000000E+01 0.  0.
    9000005    1    3    3    0    0 -0.62977866301E+01  0.17281463291E+02 -0.30336682439E+02  0.35491201605E+02  0.10000000000E+01 0.  0.
<mgrwt>
<rscale>  0 0.12500349E+03</rscale>
<asrwt>0</asrwt>
<pdfrwt beam="1">  1        4 0.17854083E-01 0.12500349E+03</pdfrwt>
<pdfrwt beam="2">  1       -4 0.51786911E-02 0.12500349E+03</pdfrwt>
<totfact> 0.99353132E+03</totfact>
</mgrwt>
</event>
<event>
 5    1  0.3516911E-002  0.1249982E+03  0.7818608E-02  0.1235072E+00
         -4   -1    0    0    0  501 -0.00000000000E+00  0.00000000000E+00  0.74378488952E+01  0.75454950923E+01  0.12700000000E+01 0.  1.
          4   -1    0    0  501    0  0.00000000000E+00 -0.00000000000E+00 -0.52128862145E+03  0.52129016848E+03  0.12700000000E+01 0.  1.
         25    2    1    2    0    0  0.00000000000E+00  0.00000000000E+00 -0.51385077256E+03  0.52883566357E+03  0.12499817043E+03 0.  0.
    9000005    1    3    3    0    0 -0.17245088635E+02 -0.38206717985E+02 -0.45300531164E+03  0.45494170918E+03  0.10000000000E+01 0.  0.
    9000005    1    3    3    0    0  0.17245088635E+02  0.38206717985E+02 -0.60845460918E+02  0.73893954391E+02  0.10000000000E+01 0.  0.
<mgrwt>
<rscale>  0 0.12499817E+03</rscale>
<asrwt>0</asrwt>
<pdfrwt beam="2">  1        4 0.80206620E-01 0.12499817E+03</pdfrwt>
<pdfrwt beam="1">  1       -4 0.11526843E-02 0.12499817E+03</pdfrwt>
<totfact> 0.53696656E+03</totfact>
</mgrwt>
</event>
<event>
 5    1  0.3516911E-002  0.1249996E+03  0.7818608E-02  0.1235070E+00
          4   -1    0    0  501    0  0.00000000000E+00  0.00000000000E+00  0.77296890378E+02  0.77307322823E+02  0.12700000000E+01 0.  1.
         -4   -1    0    0    0  501 -0.00000000000E+00 -0.00000000000E+00 -0.50513485452E+02  0.50529447974E+02  0.12700000000E+01 0.  1.
         25    2    1    2    0    0  0.00000000000E+00  0.00000000000E+00  0.26783404926E+02  0.12783677080E+03  0.12499955675E+03 0.  0.
    9000005    1    3    3    0    0 -0.15335330334E+02 -0.10927448888E+02 -0.47548050360E+02  0.51150743774E+02  0.10000000000E+01 0.  0.
    9000005    1    3    3    0    0  0.15335330334E+02  0.10927448888E+02  0.74331455286E+02  0.76686027023E+02  0.10000000000E+01 0.  0.
<mgrwt>
<rscale>  0 0.12499956E+03</rscale>
<asrwt>0</asrwt>
<pdfrwt beam="1">  1        4 0.11893860E-01 0.12499956E+03</pdfrwt>
<pdfrwt beam="2">  1       -4 0.77733359E-02 0.12499956E+03</pdfrwt>
<totfact> 0.10391118E+04</totfact>
</mgrwt>
</event>
<event>
 5    1  0.3516911E-002  0.1250001E+03  0.7818608E-02  0.1235069E+00
         -4   -1    0    0    0  501 -0.00000000000E+00  0.00000000000E+00  0.26151117232E+03  0.26151425611E+03  0.12700000000E+01 0. -1.
          4   -1    0    0  501    0  0.00000000000E+00 -0.00000000000E+00 -0.14907082905E+02  0.14961083542E+02  0.12700000000E+01 0. -1.
         25    2    1    2    0    0  0.00000000000E+00  0.00000000000E+00  0.24660408941E+03  0.27647533965E+03  0.12500014608E+03 0.  0.
    9000005    1    3    3    0    0  0.44120109179E+02 -0.35603861622E+02  0.65159034166E+02  0.86376609853E+02  0.10000000000E+01 0.  0.
    9000005    1    3    3    0    0 -0.44120109179E+02  0.35603861622E+02  0.18144505525E+03  0.19009872980E+03  0.10000000000E+01 0.  0.
<mgrwt>
<rscale>  0 0.12500015E+03</rscale>
<asrwt>0</asrwt>
<pdfrwt beam="2">  1        4 0.22977883E-02 0.12500015E+03</pdfrwt>
<pdfrwt beam="1">  1       -4 0.40236883E-01 0.12500015E+03</pdfrwt>
<totfact> 0.78647522E+03</totfact>
</mgrwt>
</event>
<event>
 5    1  0.3516911E-002  0.1250010E+03  0.7818608E-02  0.1235068E+00
         -4   -1    0    0    0  501 -0.00000000000E+00  0.00000000000E+00  0.61883012231E+02  0.61896042707E+02  0.12700000000E+01 0.  1.
          4   -1    0    0  501    0  0.00000000000E+00 -0.00000000000E+00 -0.63098047822E+02  0.63110827430E+02  0.12700000000E+01 0.  1.
         25    2    1    2    0    0  0.00000000000E+00  0.00000000000E+00 -0.12150355912E+01  0.12500687014E+03  0.12500096508E+03 0.  0.
    9000005    1    3    3    0    0 -0.43985801604E+02 -0.39995375941E+02  0.18652921564E+02  0.62316228403E+02  0.10000000000E+01 0.  0.
    9000005    1    3    3    0    0  0.43985801604E+02  0.39995375941E+02 -0.19867957156E+02  0.62690641734E+02  0.10000000000E+01 0.  0.
<mgrwt>
<rscale>  0 0.12500097E+03</rscale>
<asrwt>0</asrwt>
<pdfrwt beam="2">  1        4 0.97093774E-02 0.12500097E+03</pdfrwt>
<pdfrwt beam="1">  1       -4 0.95224488E-02 0.12500097E+03</pdfrwt>
<totfact> 0.10452485E+04</totfact>
</mgrwt>
</event>
<event>
 5    1  0.3516911E-002  0.1250019E+03  0.7818608E-02  0.1235066E+00
         -4   -1    0    0    0  501 -0.00000000000E+00  0.00000000000E+00  0.17270257513E+03  0.17270724465E+03  0.12700000000E+01 0.  1.
          4   -1    0    0  501    0  0.00000000000E+00 -0.00000000000E+00 -0.22596241806E+02  0.22631903228E+02  0.12700000000E+01 0.  1.
         25    2    1    2    0    0  0.00000000000E+00  0.00000000000E+00  0.15010633332E+03  0.19533914788E+03  0.12500188555E+03 0.  0.
    9000005    1    3    3    0    0  0.32834130860E+02 -0.27691216252E+02  0.14598764407E+03  0.15217843417E+03  0.10000000000E+01 0.  0.
    9000005    1    3    3    0    0 -0.32834130860E+02  0.27691216252E+02  0.41186892566E+01  0.43160713711E+02  0.10000000000E+01 0.  0.
<mgrwt>
<rscale>  0 0.12500189E+03</rscale>
<asrwt>0</asrwt>
<pdfrwt beam="2">  1        4 0.34794475E-02 0.12500189E+03</pdfrwt>
<pdfrwt beam="1">  1       -4 0.26572728E-01 0.12500189E+03</pdfrwt>
<totfact> 0.90922693E+03</totfact>
</mgrwt>
</event>
<event>
 5    1  0.3516911E-002  0.1250046E+03  0.7818608E-02  0.1235062E+00
         -4   -1    0    0    0  501 -0.00000000000E+00  0.00000000000E+00  0.18589007226E+04  0.18589011564E+04  0.12700000000E+01 0.  1.
          4   -1    0    0  501    0  0.00000000000E+00 -0.00000000000E+00 -0.19091858802E+01  0.22930090984E+01  0.12700000000E+01 0.  1.
         25    2    1    2    0    0  0.00000000000E+00  0.00000000000E+00  0.18569915367E+04  0.18611941655E+04  0.12500461733E+03 0.  0.
    9000005    1    3    3    0    0 -0.50400473891E+02 -0.32664993001E+02  0.67132985605E+03  0.67401185832E+03  0.10000000000E+01 0.  0.
    9000005    1    3    3    0    0  0.50400473891E+02  0.32664993001E+02  0.11856616806E+04  0.11871823072E+04  0.10000000000E+01 0.  0.
<mgrwt>
<rscale>  0 0.12500462E+03</rscale>
<asrwt>0</asrwt>
<pdfrwt beam="2">  1        4 0.32327972E-03 0.12500462E+03</pdfrwt>
<pdfrwt beam="1">  1       -4 0.28601377E+00 0.12500462E+03</pdfrwt>
<totfact> 0.11782567E+03</totfact>
</mgrwt>
</event>
<event>
 5    1  0.3516911E-002  0.1250032E+03  0.7818608E-02  0.1235064E+00
         -4   -1    0    0    0  501 -0.00000000000E+00  0.00000000000E+00  0.13284629526E+02  0.13345196950E+02  0.12700000000E+01 0.  1.
          4   -1    0    0  501    0  0.00000000000E+00 -0.00000000000E+00 -0.29332727770E+03  0.29333002700E+03  0.12700000000E+01 0.  1.
         25    2    1    2    0    0  0.00000000000E+00  0.00000000000E+00 -0.28004264817E+03  0.30667522395E+03  0.12500323273E+03 0.  0.
    9000005    1    3    3    0    0 -0.46958788744E+02  0.28672018112E+02 -0.21272626917E+03  0.21972864642E+03  0.10000000000E+01 0.  0.
    9000005    1    3    3    0    0  0.46958788744E+02 -0.28672018112E+02 -0.67316379008E+02  0.86946577538E+02  0.10000000000E+01 0.  0.
<mgrwt>
<rscale>  0 0.12500323E+03</rscale>
<asrwt>0</asrwt>
<pdfrwt beam="2">  1        4 0.45132139E-01 0.12500323E+03</pdfrwt>
<pdfrwt beam="1">  1       -4 0.20486599E-02 0.12500323E+03</pdfrwt>
<totfact> 0.74763707E+03</totfact>
</mgrwt>
</event>
<event>
 5    1  0.3516911E-002  0.1250029E+03  0.7818608E-02  0.1235065E+00
         -4   -1    0    0    0  501 -0.00000000000E+00  0.00000000000E+00  0.48598251479E+02  0.48614842865E+02  0.12700000000E+01 0. -1.
          4   -1    0    0  501    0  0.00000000000E+00 -0.00000000000E+00 -0.80346860651E+02  0.80356897131E+02  0.12700000000E+01 0. -1.
         25    2    1    2    0    0  0.00000000000E+00  0.00000000000E+00 -0.31748609172E+02  0.12897174000E+03  0.12500294210E+03 0.  0.
    9000005    1    3    3    0    0  0.60897272178E+01 -0.54957106513E+02  0.14171859524E+02  0.57089490593E+02  0.10000000000E+01 0.  0.
    9000005    1    3    3    0    0 -0.60897272178E+01  0.54957106513E+02 -0.45920468696E+02  0.71882249402E+02  0.10000000000E+01 0.  0.
<mgrwt>
<rscale>  0 0.12500294E+03</rscale>
<asrwt>0</asrwt>
<pdfrwt beam="2">  1        4 0.12363104E-01 0.12500294E+03</pdfrwt>
<pdfrwt beam="1">  1       -4 0.74787023E-02 0.12500294E+03</pdfrwt>
<totfact> 0.10365866E+04</totfact>
</mgrwt>
</event>
<event>
 5    1  0.3516911E-002  0.1249990E+03  0.7818608E-02  0.1235071E+00
          4   -1    0    0  501    0  0.00000000000E+00  0.00000000000E+00  0.70748816314E+02  0.70760214173E+02  0.12700000000E+01 0.  1.
         -4   -1    0    0    0  501 -0.00000000000E+00 -0.00000000000E+00 -0.55188903523E+02  0.55203514128E+02  0.12700000000E+01 0.  1.
         25    2    1    2    0    0  0.00000000000E+00  0.00000000000E+00  0.15559912791E+02  0.12596372830E+03  0.12499899984E+03 0.  0.
    9000005    1    3    3    0    0  0.59252854239E+02 -0.99171052930E+01  0.25115568162E+02  0.65123279071E+02  0.10000000000E+01 0.  0.
    9000005    1    3    3    0    0 -0.59252854239E+02  0.99171052930E+01 -0.95556553711E+01  0.60840449229E+02  0.10000000000E+01 0.  0.
<mgrwt>
<rscale>  0 0.12499900E+03</rscale>
<asrwt>0</asrwt>
<pdfrwt beam="1">  1        4 0.10886434E-01 0.12499900E+03</pdfrwt>
<pdfrwt beam="2">  1       -4 0.84926012E-02 0.12499900E+03</pdfrwt>
<totfact> 0.10431987E+04</totfact>
</mgrwt>
</event>
<event>
 5    1  0.3516911E-002  0.1250019E+03  0.7818608E-02  0.1235066E+00
          4   -1    0    0  501    0  0.00000000000E+00  0.00000000000E+00  0.57836691030E+02  0.57850632920E+02  0.12700000000E+01 0. -1.
         -4   -1    0    0    0  501 -0.00000000000E+00 -0.00000000000E+00 -0.67513258080E+02  0.67525202085E+02  0.12700000000E+01 0. -1.
         25    2    1    2    0    0  0.00000000000E+00  0.00000000000E+00 -0.96765670501E+01  0.12537583501E+03  0.12500185620E+03 0.  0.
    9000005    1    3    3    0    0  0.13022251860E+02 -0.58877244649E+02  0.11619862218E+02  0.61417669924E+02  0.10000000000E+01 0.  0.
    9000005    1    3    3    0    0 -0.13022251860E+02  0.58877244649E+02 -0.21296429268E+02  0.63958165081E+02  0.10000000000E+01 0.  0.
<mgrwt>
<rscale>  0 0.12500186E+03</rscale>
<asrwt>0</asrwt>
<pdfrwt beam="1">  1        4 0.88999437E-02 0.12500186E+03</pdfrwt>
<pdfrwt beam="2">  1       -4 0.10388646E-01 0.12500186E+03</pdfrwt>
<totfact> 0.10444265E+04</totfact>
</mgrwt>
</event>
<event>
 5    1  0.3516911E-002  0.1250032E+03  0.7818608E-02  0.1235064E+00
          4   -1    0    0  501    0  0.00000000000E+00  0.00000000000E+00  0.30120170897E+03  0.30120438640E+03  0.12700000000E+01 0.  1.
         -4   -1    0    0    0  501 -0.00000000000E+00 -0.00000000000E+00 -0.12935725044E+02  0.12997918388E+02  0.12700000000E+01 0.  1.
         25    2    1    2    0    0  0.00000000000E+00  0.00000000000E+00  0.28826598392E+03  0.31420230479E+03  0.12500324334E+03 0.  0.
    9000005    1    3    3    0    0 -0.91673435559E+01  0.22544056068E+02  0.28881364935E+03  0.28983891854E+03  0.10000000000E+01 0.  0.
    9000005    1    3    3    0    0  0.91673435559E+01 -0.22544056068E+02 -0.54766542263E+00  0.24363386245E+02  0.10000000000E+01 0.  0.
<mgrwt>
<rscale>  0 0.12500324E+03</rscale>
<asrwt>0</asrwt>
<pdfrwt beam="1">  1        4 0.46343716E-01 0.12500324E+03</pdfrwt>
<pdfrwt beam="2">  1       -4 0.19951015E-02 0.12500324E+03</pdfrwt>
<totfact> 0.73845717E+03</totfact>
</mgrwt>
</event>
<event>
 5    1  0.3516911E-002  0.1250014E+03  0.7818608E-02  0.1235067E+00
         -4   -1    0    0    0  501 -0.00000000000E+00  0.00000000000E+00  0.33734854253E+02  0.33758751332E+02  0.12700000000E+01 0. -1.
          4   -1    0    0  501    0  0.00000000000E+00 -0.00000000000E+00 -0.11572700137E+03  0.11573396971E+03  0.12700000000E+01 0. -1.
         25    2    1    2    0    0  0.00000000000E+00  0.00000000000E+00 -0.81992147115E+02  0.14949272105E+03  0.12500144582E+03 0.  0.
    9000005    1    3    3    0    0  0.25343163729E+00 -0.62436771152E+02 -0.37848772747E+02  0.73020163092E+02  0.10000000000E+01 0.  0.
    9000005    1    3    3    0    0 -0.25343163729E+00  0.62436771152E+02 -0.44143374367E+02  0.76472557954E+02  0.10000000000E+01 0.  0.
<mgrwt>
<rscale>  0 0.12500145E+03</rscale>
<asrwt>0</asrwt>
<pdfrwt beam="2">  1        4 0.17806528E-01 0.12500145E+03</pdfrwt>
<pdfrwt beam="1">  1       -4 0.51923519E-02 0.12500145E+03</pdfrwt>
<totfact> 0.99401678E+03</totfact>
</mgrwt>
</event>
<event>
 5    1  0.3516911E-002  0.1250011E+03  0.7818608E-02  0.1235068E+00
         -4   -1    0    0    0  501 -0.00000000000E+00  0.00000000000E+00  0.37392271581E+01  0.39490150342E+01  0.12700000000E+01 0.  1.
          4   -1    0    0  501    0  0.00000000000E+00 -0.00000000000E+00 -0.10159698146E+04  0.10159706084E+04  0.12700000000E+01 0.  1.
         25    2    1    2    0    0  0.00000000000E+00  0.00000000000E+00 -0.10122305874E+04  0.10199196234E+04  0.12500110423E+03 0.  0.
    9000005    1    3    3    0    0  0.57446504753E+02  0.21237282151E+02 -0.60743375513E+03  0.61051444695E+03  0.10000000000E+01 0.  0.
    9000005    1    3    3    0    0 -0.57446504753E+02 -0.21237282151E+02 -0.40479683229E+03  0.40940517644E+03  0.10000000000E+01 0.  0.
<mgrwt>
<rscale>  0 0.12500110E+03</rscale>
<asrwt>0</asrwt>
<pdfrwt beam="2">  1        4 0.15631903E+00 0.12500110E+03</pdfrwt>
<pdfrwt beam="1">  1       -4 0.59146511E-03 0.12500110E+03</pdfrwt>
<totfact> 0.29952200E+03</totfact>
</mgrwt>
</event>
<event>
 5    1  0.3516911E-002  0.1249976E+03  0.7818608E-02  0.1235073E+00
          4   -1    0    0  501    0  0.00000000000E+00  0.00000000000E+00  0.10318896326E+03  0.10319677824E+03  0.12700000000E+01 0. -1.
         -4   -1    0    0    0  501 -0.00000000000E+00 -0.00000000000E+00 -0.37833953919E+02  0.37855263427E+02  0.12700000000E+01 0. -1.
         25    2    1    2    0    0  0.00000000000E+00  0.00000000000E+00  0.65355009339E+02  0.14105204166E+03  0.12499760482E+03 0.  0.
    9000005    1    3    3    0    0 -0.12702453326E+02 -0.81869071863E+01  0.10110145029E+03  0.10222955062E+03  0.10000000000E+01 0.  0.
    9000005    1    3    3    0    0  0.12702453326E+02  0.81869071863E+01 -0.35746440952E+02  0.38822491039E+02  0.10000000000E+01 0.  0.
<mgrwt>
<rscale>  0 0.12499760E+03</rscale>
<asrwt>0</asrwt>
<pdfrwt beam="1">  1        4 0.15877465E-01 0.12499760E+03</pdfrwt>
<pdfrwt beam="2">  1       -4 0.58228487E-02 0.12499760E+03</pdfrwt>
<totfact> 0.10112374E+04</totfact>
</mgrwt>
</event>
<event>
 4    1  0.3516911E-002  0.1249349E+03  0.7818608E-02  0.1235171E+00
          4   -1    0    0  501    0  0.00000000000E+00  0.00000000000E+00  0.24938636491E+02  0.24970952926E+02  0.12700000000E+01 0.  1.
         -4   -1    0    0    0  501 -0.00000000000E+00 -0.00000000000E+00 -0.15633505454E+03  0.15634021293E+03  0.12700000000E+01 0.  1.
    9000005    1    1    2    0    0  0.13358285434E+02  0.58514145723E+02 -0.40610920056E+02  0.72474794703E+02  0.10000000000E+01 0.  0.
    9000005    1    1    2    0    0 -0.13358285434E+02 -0.58514145723E+02 -0.90785497996E+02  0.10883637115E+03  0.10000000000E+01 0.  0.
<mgrwt>
<rscale>  0 0.12493486E+03</rscale>
<asrwt>0</asrwt>
<pdfrwt beam="1">  1        4 0.38395961E-02 0.12493486E+03</pdfrwt>
<pdfrwt beam="2">  1       -4 0.24054429E-01 0.12493486E+03</pdfrwt>
<totfact> 0.93518015E+03</totfact>
</mgrwt>
</event>
<event>
 5    1  0.3516911E-002  0.1250022E+03  0.7818608E-02  0.1235066E+00
         -4   -1    0    0    0  501 -0.00000000000E+00  0.00000000000E+00  0.46746395706E+03  0.46746568221E+03  0.12700000000E+01 0.  1.
          4   -1    0    0  501    0  0.00000000000E+00 -0.00000000000E+00 -0.83065555899E+01  0.84030807308E+01  0.12700000000E+01 0.  1.
         25    2    1    2    0    0  0.00000000000E+00  0.00000000000E+00  0.45915740147E+03  0.47586876294E+03  0.12500224088E+03 0.  0.
    9000005    1    3    3    0    0  0.35709700071E+02  0.50660182813E+02  0.25997499065E+03  0.26726322711E+03  0.10000000000E+01 0.  0.
    9000005    1    3    3    0    0 -0.35709700071E+02 -0.50660182813E+02  0.19918241082E+03  0.20860553583E+03  0.10000000000E+01 0.  0.
<mgrwt>
<rscale>  0 0.12500224E+03</rscale>
<asrwt>0</asrwt>
<pdfrwt beam="2">  1        4 0.12854890E-02 0.12500224E+03</pdfrwt>
<pdfrwt beam="1">  1       -4 0.71925112E-01 0.12500224E+03</pdfrwt>
<totfact> 0.57783638E+03</totfact>
</mgrwt>
</event>
<event>
 5    1  0.3516911E-002  0.1249993E+03  0.7818608E-02  0.1235070E+00
         -4   -1    0    0    0  501 -0.00000000000E+00  0.00000000000E+00  0.12980538753E+03  0.12981160014E+03  0.12700000000E+01 0. -1.
          4   -1    0    0  501    0  0.00000000000E+00 -0.00000000000E+00 -0.30072472262E+02  0.30099277199E+02  0.12700000000E+01 0. -1.
         25    2    1    2    0    0  0.00000000000E+00  0.00000000000E+00  0.99732915264E+02  0.15991087734E+03  0.12499933721E+03 0.  0.
    9000005    1    3    3    0    0  0.33428381450E+02  0.10357545279E+02  0.11609970154E+03  0.12126366368E+03  0.10000000000E+01 0.  0.
    9000005    1    3    3    0    0 -0.33428381450E+02 -0.10357545279E+02 -0.16366786279E+02  0.38647213660E+02  0.10000000000E+01 0.  0.
<mgrwt>
<rscale>  0 0.12499934E+03</rscale>
<asrwt>0</asrwt>
<pdfrwt beam="2">  1        4 0.46290739E-02 0.12499934E+03</pdfrwt>
<pdfrwt beam="1">  1       -4 0.19972600E-01 0.12499934E+03</pdfrwt>
<totfact> 0.97361420E+03</totfact>
</mgrwt>
</event>
<event>
 5    1  0.3516911E-002  0.1249989E+03  0.7818608E-02  0.1235071E+00
         -4   -1    0    0    0  501 -0.00000000000E+00  0.00000000000E+00  0.22688356436E+03  0.22688711880E+03  0.12700000000E+01 0. -1.
          4   -1    0    0  501    0  0.00000000000E+00 -0.00000000000E+00 -0.17189573057E+02  0.17236424278E+02  0.12700000000E+01 0. -1.
         25    2    1    2    0    0  0.00000000000E+00  0.00000000000E+00  0.20969399130E+03  0.24412354308E+03  0.12499893718E+03 0.  0.
    9000005    1    3    3    0    0  0.26048084860E+02  0.35595880042E+02  0.18392291294E+02  0.47800060459E+02  0.10000000000E+01 0.  0.
    9000005    1    3    3    0    0 -0.26048084860E+02 -0.35595880042E+02  0.19130170001E+03  0.19632348262E+03  0.10000000000E+01 0.  0.
<mgrwt>
<rscale>  0 0.12499894E+03</rscale>
<asrwt>0</asrwt>
<pdfrwt beam="2">  1        4 0.26484272E-02 0.12499894E+03</pdfrwt>
<pdfrwt beam="1">  1       -4 0.34909039E-01 0.12499894E+03</pdfrwt>
<totfact> 0.83189018E+03</totfact>
</mgrwt>
</event>
<event>
 5    1  0.3516911E-002  0.1250035E+03  0.7818608E-02  0.1235064E+00
         -4   -1    0    0    0  501 -0.00000000000E+00  0.00000000000E+00  0.36443814425E+02  0.36465936295E+02  0.12700000000E+01 0. -1.
          4   -1    0    0  501    0  0.00000000000E+00 -0.00000000000E+00 -0.10713313166E+03  0.10714065895E+03  0.12700000000E+01 0. -1.
         25    2    1    2    0    0  0.00000000000E+00  0.00000000000E+00 -0.70689317238E+02  0.14360659524E+03  0.12500349845E+03 0.  0.
    9000005    1    3    3    0    0 -0.45413534205E+01 -0.47708392979E+02  0.10733704035E+02  0.49121553862E+02  0.10000000000E+01 0.  0.
    9000005    1    3    3    0    0  0.45413534205E+01  0.47708392979E+02 -0.81423021273E+02  0.94485041381E+02  0.10000000000E+01 0.  0.
<mgrwt>
<rscale>  0 0.12500350E+03</rscale>
<asrwt>0</asrwt>
<pdfrwt beam="2">  1        4 0.16484301E-01 0.12500350E+03</pdfrwt>
<pdfrwt beam="1">  1       -4 0.56090214E-02 0.12500350E+03</pdfrwt>
<totfact> 0.10058584E+04</totfact>
</mgrwt>
</event>
<event>
 5    1  0.3516911E-002  0.1250010E+03  0.7818608E-02  0.1235068E+00
          4   -1    0    0  501    0  0.00000000000E+00  0.00000000000E+00  0.94039379713E+03  0.94039465469E+03  0.12700000000E+01 0.  1.
         -4   -1    0    0    0  501 -0.00000000000E+00 -0.00000000000E+00 -0.40559637623E+01  0.42501461200E+01  0.12700000000E+01 0.  1.
         25    2    1    2    0    0  0.00000000000E+00  0.00000000000E+00  0.93633783337E+03  0.94464480081E+03  0.12500104605E+03 0.  0.
    9000005    1    3    3    0    0  0.39804660336E+02 -0.63596827266E+01  0.82905157178E+03  0.83003154472E+03  0.10000000000E+01 0.  0.
    9000005    1    3    3    0    0 -0.39804660336E+02  0.63596827266E+01  0.10728626158E+03  0.11461325610E+03  0.10000000000E+01 0.  0.
<mgrwt>
<rscale>  0 0.12500105E+03</rscale>
<asrwt>0</asrwt>
<pdfrwt beam="1">  1        4 0.14469081E+00 0.12500105E+03</pdfrwt>
<pdfrwt beam="2">  1       -4 0.63899821E-03 0.12500105E+03</pdfrwt>
<totfact> 0.32506163E+03</totfact>
</mgrwt>
</event>
<event>
 5    1  0.3516911E-002  0.1250018E+03  0.7818608E-02  0.1235067E+00
         -4   -1    0    0    0  501 -0.00000000000E+00  0.00000000000E+00  0.65093537567E+02  0.65105925483E+02  0.12700000000E+01 0.  1.
          4   -1    0    0  501    0  0.00000000000E+00 -0.00000000000E+00 -0.59986671001E+02  0.60000113315E+02  0.12700000000E+01 0.  1.
         25    2    1    2    0    0  0.00000000000E+00  0.00000000000E+00  0.51068665663E+01  0.12510603880E+03  0.12500176342E+03 0.  0.
    9000005    1    3    3    0    0  0.21709382139E+02 -0.49895851417E+02  0.33311250863E+02  0.63808562870E+02  0.10000000000E+01 0.  0.
    9000005    1    3    3    0    0 -0.21709382139E+02  0.49895851417E+02 -0.28204384297E+02  0.61297475927E+02  0.10000000000E+01 0.  0.
<mgrwt>
<rscale>  0 0.12500176E+03</rscale>
<asrwt>0</asrwt>
<pdfrwt beam="2">  1        4 0.92307057E-02 0.12500176E+03</pdfrwt>
<pdfrwt beam="1">  1       -4 0.10016377E-01 0.12500176E+03</pdfrwt>
<totfact> 0.10450143E+04</totfact>
</mgrwt>
</event>
<event>
 5    1  0.3516911E-002  0.1249943E+03  0.7818608E-02  0.1235078E+00
          4   -1    0    0  501    0  0.00000000000E+00  0.00000000000E+00  0.37468821583E+03  0.37469036814E+03  0.12700000000E+01 0. -1.
         -4   -1    0    0    0  501 -0.00000000000E+00 -0.00000000000E+00 -0.10383513823E+02  0.10460891899E+02  0.12700000000E+01 0. -1.
         25    2    1    2    0    0  0.00000000000E+00  0.00000000000E+00  0.36430470200E+03  0.38515126004E+03  0.12499430871E+03 0.  0.
    9000005    1    3    3    0    0  0.30933316987E+02 -0.37234268124E+01  0.15242103157E+02  0.34699505987E+02  0.10000000000E+01 0.  0.
    9000005    1    3    3    0    0 -0.30933316987E+02  0.37234268124E+01  0.34906259885E+03  0.35045175406E+03  0.10000000000E+01 0.  0.
<mgrwt>
<rscale>  0 0.12499431E+03</rscale>
<asrwt>0</asrwt>
<pdfrwt beam="1">  1        4 0.57650459E-01 0.12499431E+03</pdfrwt>
<pdfrwt beam="2">  1       -4 0.16035814E-02 0.12499431E+03</pdfrwt>
<totfact> 0.66031343E+03</totfact>
</mgrwt>
</event>
<event>
 5    1  0.3516911E-002  0.1249861E+03  0.7818608E-02  0.1235091E+00
         -4   -1    0    0    0  501 -0.00000000000E+00  0.00000000000E+00  0.52169671273E+03  0.52169825855E+03  0.12700000000E+01 0. -1.
          4   -1    0    0  501    0  0.00000000000E+00 -0.00000000000E+00 -0.74304874388E+01  0.75382387584E+01  0.12700000000E+01 0. -1.
         25    2    1    2    0    0  0.00000000000E+00  0.00000000000E+00  0.51426622529E+03  0.52923649731E+03  0.12498607765E+03 0.  0.
    9000005    1    3    3    0    0  0.52288406299E+02  0.32088086024E+02  0.30735223715E+03  0.31341684764E+03  0.10000000000E+01 0.  0.
    9000005    1    3    3    0    0 -0.52288406299E+02 -0.32088086024E+02  0.20691398814E+03  0.21581964967E+03  0.10000000000E+01 0.  0.
<mgrwt>
<rscale>  0 0.12498608E+03</rscale>
<asrwt>0</asrwt>
<pdfrwt beam="2">  1        4 0.11515596E-02 0.12498608E+03</pdfrwt>
<pdfrwt beam="1">  1       -4 0.80269428E-01 0.12498608E+03</pdfrwt>
<totfact> 0.53681667E+03</totfact>
</mgrwt>
</event>
<event>
 5    1  0.3516911E-002  0.1250038E+03  0.7818608E-02  0.1235063E+00
          4   -1    0    0  501    0  0.00000000000E+00  0.00000000000E+00  0.10888506534E+02  0.10962320673E+02  0.12700000000E+01 0. -1.
         -4   -1    0    0    0  501 -0.00000000000E+00 -0.00000000000E+00 -0.35748482419E+03  0.35748708008E+03  0.12700000000E+01 0. -1.
         25    2    1    2    0    0  0.00000000000E+00  0.00000000000E+00 -0.34659631765E+03  0.36844940075E+03  0.12500381396E+03 0.  0.
    9000005    1    3    3    0    0  0.62055604893E+02 -0.52210390936E+01 -0.18870744695E+03  0.19872004902E+03  0.10000000000E+01 0.  0.
    9000005    1    3    3    0    0 -0.62055604893E+02  0.52210390936E+01 -0.15788887070E+03  0.16972935173E+03  0.10000000000E+01 0.  0.
<mgrwt>
<rscale>  0 0.12500381E+03</rscale>
<asrwt>0</asrwt>
<pdfrwt beam="1">  1        4 0.16810067E-02 0.12500381E+03</pdfrwt>
<pdfrwt beam="2">  1       -4 0.55003508E-01 0.12500381E+03</pdfrwt>
<totfact> 0.67735763E+03</totfact>
</mgrwt>
</event>
<event>
 5    1  0.3516911E-002  0.1249991E+03  0.7818608E-02  0.1235071E+00
          4   -1    0    0  501    0  0.00000000000E+00  0.00000000000E+00  0.40097488111E+02  0.40117595302E+02  0.12700000000E+01 0. -1.
         -4   -1    0    0    0  501 -0.00000000000E+00 -0.00000000000E+00 -0.97368746773E+02  0.97377028852E+02  0.12700000000E+01 0. -1.
         25    2    1    2    0    0  0.00000000000E+00  0.00000000000E+00 -0.57271258662E+02  0.13749462415E+03  0.12499909841E+03 0.  0.
    9000005    1    3    3    0    0 -0.44706668288E+01 -0.31384896664E+02  0.30601286806E+02  0.44073091050E+02  0.10000000000E+01 0.  0.
    9000005    1    3    3    0    0  0.44706668288E+01  0.31384896664E+02 -0.87872545468E+02  0.93421533104E+02  0.10000000000E+01 0.  0.
<mgrwt>
<rscale>  0 0.12499910E+03</rscale>
<asrwt>0</asrwt>
<pdfrwt beam="1">  1        4 0.61710281E-02 0.12499910E+03</pdfrwt>
<pdfrwt beam="2">  1       -4 0.14981991E-01 0.12499910E+03</pdfrwt>
<totfact> 0.10185961E+04</totfact>
</mgrwt>
</event>
<event>
 5    1  0.3516911E-002  0.1250041E+03  0.7818608E-02  0.1235063E+00
          4   -1    0    0  501    0  0.00000000000E+00  0.00000000000E+00  0.89469408035E+03  0.89469498172E+03  0.12700000000E+01 0.  1.
         -4   -1    0    0    0  501 -0.00000000000E+00 -0.00000000000E+00 -0.42730335267E+01  0.44577702409E+01  0.12700000000E+01 0.  1.
         25    2    1    2    0    0  0.00000000000E+00  0.00000000000E+00  0.89042104682E+03  0.89915275196E+03  0.12500412286E+03 0.  0.
    9000005    1    3    3    0    0  0.47233489287E+02 -0.99876586579E+01  0.73065076745E+03  0.73224469941E+03  0.10000000000E+01 0.  0.
    9000005    1    3    3    0    0 -0.47233489287E+02  0.99876586579E+01  0.15977027937E+03  0.16690805255E+03  0.10000000000E+01 0.  0.
<mgrwt>
<rscale>  0 0.12500412E+03</rscale>
<asrwt>0</asrwt>
<pdfrwt beam="1">  1        4 0.13765968E+00 0.12500412E+03</pdfrwt>
<pdfrwt beam="2">  1       -4 0.67166887E-03 0.12500412E+03</pdfrwt>
<totfact> 0.34189263E+03</totfact>
</mgrwt>
</event>
<event>
 5    1  0.3516911E-002  0.1250009E+03  0.7818608E-02  0.1235068E+00
          4   -1    0    0  501    0  0.00000000000E+00  0.00000000000E+00  0.51271694630E+02  0.51287421170E+02  0.12700000000E+01 0. -1.
         -4   -1    0    0    0  501 -0.00000000000E+00 -0.00000000000E+00 -0.76155610119E+02  0.76166198885E+02  0.12700000000E+01 0. -1.
         25    2    1    2    0    0  0.00000000000E+00  0.00000000000E+00 -0.24883915489E+02  0.12745362006E+03  0.12500086406E+03 0.  0.
    9000005    1    3    3    0    0 -0.63101264794E+01 -0.61622191565E+01 -0.75522805021E+02  0.76042650660E+02  0.10000000000E+01 0.  0.
    9000005    1    3    3    0    0  0.63101264794E+01  0.61622191565E+01  0.50638889532E+02  0.51410969396E+02  0.10000000000E+01 0.  0.
<mgrwt>
<rscale>  0 0.12500086E+03</rscale>
<asrwt>0</asrwt>
<pdfrwt beam="1">  1        4 0.78899773E-02 0.12500086E+03</pdfrwt>
<pdfrwt beam="2">  1       -4 0.11718272E-01 0.12500086E+03</pdfrwt>
<totfact> 0.10399102E+04</totfact>
</mgrwt>
</event>
<event>
 5    1  0.3516911E-002  0.1250041E+03  0.7818608E-02  0.1235063E+00
          4   -1    0    0  501    0  0.00000000000E+00  0.00000000000E+00  0.11852618089E+03  0.11853298468E+03  0.12700000000E+01 0.  1.
         -4   -1    0    0    0  501 -0.00000000000E+00 -0.00000000000E+00 -0.32939046517E+02  0.32963520526E+02  0.12700000000E+01 0.  1.
         25    2    1    2    0    0  0.00000000000E+00  0.00000000000E+00  0.85587134375E+02  0.15149650521E+03  0.12500413401E+03 0.  0.
    9000005    1    3    3    0    0  0.17369994695E+02  0.38681928453E+02 -0.12843219341E+02  0.44316549816E+02  0.10000000000E+01 0.  0.
    9000005    1    3    3    0    0 -0.17369994695E+02 -0.38681928453E+02  0.98430353716E+02  0.10717995539E+03  0.10000000000E+01 0.  0.
<mgrwt>
<rscale>  0 0.12500413E+03</rscale>
<asrwt>0</asrwt>
<pdfrwt beam="1">  1        4 0.18237203E-01 0.12500413E+03</pdfrwt>
<pdfrwt beam="2">  1       -4 0.50699517E-02 0.12500413E+03</pdfrwt>
<totfact> 0.98997016E+03</totfact>
</mgrwt>
</event>
<event>
 5    1  0.3516911E-002  0.1249999E+03  0.7818608E-02  0.1235069E+00
          4   -1    0    0  501    0  0.00000000000E+00  0.00000000000E+00  0.14443408756E+03  0.14443967097E+03  0.12700000000E+01 0. -1.
         -4   -1    0    0    0  501 -0.00000000000E+00 -0.00000000000E+00 -0.27024134653E+02  0.27053960038E+02  0.12700000000E+01 0. -1.
         25    2    1    2    0    0  0.00000000000E+00  0.00000000000E+00  0.11740995290E+03  0.17149363100E+03  0.12499987374E+03 0.  0.
    9000005    1    3    3    0    0 -0.15418764077E+02  0.53207974014E+02  0.19027009454E+02  0.58582026878E+02  0.10000000000E+01 0.  0.
    9000005    1    3    3    0    0  0.15418764077E+02 -0.53207974014E+02  0.98382943451E+02  0.11291160413E+03  0.10000000000E+01 0.  0.
<mgrwt>
<rscale>  0 0.12499987E+03</rscale>
<asrwt>0</asrwt>
<pdfrwt beam="1">  1        4 0.22223353E-01 0.12499987E+03</pdfrwt>
<pdfrwt beam="2">  1       -4 0.41602828E-02 0.12499987E+03</pdfrwt>
<totfact> 0.95171244E+03</totfact>
</mgrwt>
</event>
<event>
 4    1  0.3516911E-002  0.1252070E+03  0.7818608E-02  0.1234746E+00
         -4   -1    0    0    0  501 -0.00000000000E+00  0.00000000000E+00  0.49216551051E+02  0.49232934072E+02  0.12700000000E+01 0.  1.
          4   -1    0    0  501    0  0.00000000000E+00 -0.00000000000E+00 -0.79596988648E+02  0.79607119668E+02  0.12700000000E+01 0.  1.
    9000005    1    1    2    0    0  0.56728846898E+01 -0.30317209818E+02  0.40859379685E+02  0.51203552027E+02  0.10000000000E+01 0.  0.
    9000005    1    1    2    0    0 -0.56728846898E+01  0.30317209818E+02 -0.71239817282E+02  0.77636501713E+02  0.10000000000E+01 0.  0.
<mgrwt>
<rscale>  0 0.12520698E+03</rscale>
<asrwt>0</asrwt>
<pdfrwt beam="2">  1        4 0.12247730E-01 0.12520698E+03</pdfrwt>
<pdfrwt beam="1">  1       -4 0.75738166E-02 0.12520698E+03</pdfrwt>
<totfact> 0.10321083E+04</totfact>
</mgrwt>
</event>
<event>
 5    1  0.3516911E-002  0.1249979E+03  0.7818608E-02  0.1235073E+00
         -4   -1    0    0    0  501 -0.00000000000E+00  0.00000000000E+00  0.72701127932E+01  0.73802059609E+01  0.12700000000E+01 0.  1.
          4   -1    0    0  501    0  0.00000000000E+00 -0.00000000000E+00 -0.53313608385E+03  0.53313759650E+03  0.12700000000E+01 0.  1.
         25    2    1    2    0    0  0.00000000000E+00  0.00000000000E+00 -0.52586597106E+03  0.54051780246E+03  0.12499790103E+03 0.  0.
    9000005    1    3    3    0    0 -0.49038709943E+02  0.10016919039E+02 -0.42472943425E+03  0.42766952903E+03  0.10000000000E+01 0.  0.
    9000005    1    3    3    0    0  0.49038709943E+02 -0.10016919039E+02 -0.10113653681E+03  0.11284827343E+03  0.10000000000E+01 0.  0.
<mgrwt>
<rscale>  0 0.12499790E+03</rscale>
<asrwt>0</asrwt>
<pdfrwt beam="2">  1        4 0.82029490E-01 0.12499790E+03</pdfrwt>
<pdfrwt beam="1">  1       -4 0.11270644E-02 0.12499790E+03</pdfrwt>
<totfact> 0.52854700E+03</totfact>
</mgrwt>
</event>
<event>
 5    1  0.3516911E-002  0.1249975E+03  0.7818608E-02  0.1235073E+00
          4   -1    0    0  501    0  0.00000000000E+00  0.00000000000E+00  0.56931641606E+01  0.58330967898E+01  0.12700000000E+01 0. -1.
         -4   -1    0    0    0  501 -0.00000000000E+00 -0.00000000000E+00 -0.67763184229E+03  0.67763303239E+03  0.12700000000E+01 0. -1.
         25    2    1    2    0    0  0.00000000000E+00  0.00000000000E+00 -0.67193867813E+03  0.68346612918E+03  0.12499745025E+03 0.  0.
    9000005    1    3    3    0    0 -0.26858404131E+02 -0.54237763075E+02 -0.25091289587E+03  0.25811119722E+03  0.10000000000E+01 0.  0.
    9000005    1    3    3    0    0  0.26858404131E+02  0.54237763075E+02 -0.42102578226E+03  0.42535493197E+03  0.10000000000E+01 0.  0.
<mgrwt>
<rscale>  0 0.12499745E+03</rscale>
<asrwt>0</asrwt>
<pdfrwt beam="1">  1        4 0.88672754E-03 0.12499745E+03</pdfrwt>
<pdfrwt beam="2">  1       -4 0.10426184E+00 0.12499745E+03</pdfrwt>
<totfact> 0.43976462E+03</totfact>
</mgrwt>
</event>
<event>
 5    1  0.3516911E-002  0.1250042E+03  0.7818608E-02  0.1235063E+00
          4   -1    0    0  501    0  0.00000000000E+00  0.00000000000E+00  0.18165380184E+03  0.18165824128E+03  0.12700000000E+01 0.  1.
         -4   -1    0    0    0  501 -0.00000000000E+00 -0.00000000000E+00 -0.21481797674E+02  0.21519306014E+02  0.12700000000E+01 0.  1.
         25    2    1    2    0    0  0.00000000000E+00  0.00000000000E+00  0.16017200417E+03  0.20317754729E+03  0.12500417915E+03 0.  0.
    9000005    1    3    3    0    0 -0.89328832944E+00  0.18204287233E+02  0.17724588067E+03  0.17818332203E+03  0.10000000000E+01 0.  0.
    9000005    1    3    3    0    0  0.89328832944E+00 -0.18204287233E+02 -0.17073876496E+02  0.24994225259E+02  0.10000000000E+01 0.  0.
<mgrwt>
<rscale>  0 0.12500418E+03</rscale>
<asrwt>0</asrwt>
<pdfrwt beam="1">  1        4 0.27949966E-01 0.12500418E+03</pdfrwt>
<pdfrwt beam="2">  1       -4 0.33081186E-02 0.12500418E+03</pdfrwt>
<totfact> 0.89593963E+03</totfact>
</mgrwt>
</event>
<event>
 5    1  0.3516911E-002  0.1250002E+03  0.7818608E-02  0.1235069E+00
         -4   -1    0    0    0  501 -0.00000000000E+00  0.00000000000E+00  0.13623208320E+02  0.13682277037E+02  0.12700000000E+01 0. -1.
          4   -1    0    0  501    0  0.00000000000E+00 -0.00000000000E+00 -0.28605506306E+03  0.28605788226E+03  0.12700000000E+01 0. -1.
         25    2    1    2    0    0  0.00000000000E+00  0.00000000000E+00 -0.27243185474E+03  0.29974015930E+03  0.12500019047E+03 0.  0.
    9000005    1    3    3    0    0  0.26452412329E+02 -0.52445050559E+02 -0.85063872752E+02  0.10337831443E+03  0.10000000000E+01 0.  0.
    9000005    1    3    3    0    0 -0.26452412329E+02  0.52445050559E+02 -0.18736798199E+03  0.19636184487E+03  0.10000000000E+01 0.  0.
<mgrwt>
<rscale>  0 0.12500019E+03</rscale>
<asrwt>0</asrwt>
<pdfrwt beam="2">  1        4 0.44013227E-01 0.12500019E+03</pdfrwt>
<pdfrwt beam="1">  1       -4 0.21006390E-02 0.12500019E+03</pdfrwt>
<totfact> 0.75631126E+03</totfact>
</mgrwt>
</event>
<event>
 5    1  0.3516911E-002  0.1250007E+03  0.7818608E-02  0.1235068E+00
          4   -1    0    0  501    0  0.00000000000E+00  0.00000000000E+00  0.26327930327E+03  0.26328236635E+03  0.12700000000E+01 0.  1.
         -4   -1    0    0    0  501 -0.00000000000E+00 -0.00000000000E+00 -0.14806738214E+02  0.14861103476E+02  0.12700000000E+01 0.  1.
         25    2    1    2    0    0  0.00000000000E+00  0.00000000000E+00  0.24847256505E+03  0.27814346982E+03  0.12500069688E+03 0.  0.
    9000005    1    3    3    0    0 -0.14923468319E+02  0.55405964750E+02  0.17931738206E+03  0.18827706803E+03  0.10000000000E+01 0.  0.
    9000005    1    3    3    0    0  0.14923468319E+02 -0.55405964750E+02  0.69155182997E+02  0.89866401797E+02  0.10000000000E+01 0.  0.
<mgrwt>
<rscale>  0 0.12500070E+03</rscale>
<asrwt>0</asrwt>
<pdfrwt beam="1">  1        4 0.40508922E-01 0.12500070E+03</pdfrwt>
<pdfrwt beam="2">  1       -4 0.22823775E-02 0.12500070E+03</pdfrwt>
<totfact> 0.78423700E+03</totfact>
</mgrwt>
</event>
<event>
 5    1  0.3516911E-002  0.1249996E+03  0.7818608E-02  0.1235070E+00
         -4   -1    0    0    0  501 -0.00000000000E+00  0.00000000000E+00  0.37630894835E+01  0.39716171090E+01  0.12700000000E+01 0. -1.
          4   -1    0    0  501    0  0.00000000000E+00 -0.00000000000E+00 -0.10098428072E+04  0.10098436058E+04  0.12700000000E+01 0. -1.
         25    2    1    2    0    0  0.00000000000E+00  0.00000000000E+00 -0.10060797177E+04  0.10138152229E+04  0.12499963112E+03 0.  0.
    9000005    1    3    3    0    0  0.86940572795E+00  0.42956841095E+02 -0.13499790688E+03  0.14167385407E+03  0.10000000000E+01 0.  0.
    9000005    1    3    3    0    0 -0.86940572795E+00 -0.42956841095E+02 -0.87108181086E+03  0.87214136886E+03  0.10000000000E+01 0.  0.
<mgrwt>
<rscale>  0 0.12499963E+03</rscale>
<asrwt>0</asrwt>
<pdfrwt beam="2">  1        4 0.15537632E+00 0.12499963E+03</pdfrwt>
<pdfrwt beam="1">  1       -4 0.59503966E-03 0.12499963E+03</pdfrwt>
<totfact> 0.30152285E+03</totfact>
</mgrwt>
</event>
<event>
 5    1  0.3516911E-002  0.1250003E+03  0.7818608E-02  0.1235069E+00
         -4   -1    0    0    0  501 -0.00000000000E+00  0.00000000000E+00  0.25530890931E+02  0.25562458641E+02  0.12700000000E+01 0. -1.
          4   -1    0    0  501    0  0.00000000000E+00 -0.00000000000E+00 -0.15287282358E+03  0.15287809879E+03  0.12700000000E+01 0. -1.
         25    2    1    2    0    0  0.00000000000E+00  0.00000000000E+00 -0.12734193265E+03  0.17844055743E+03  0.12500025890E+03 0.  0.
    9000005    1    3    3    0    0  0.32610685587E+02  0.42725091693E+02 -0.18160651534E+02  0.56742396307E+02  0.10000000000E+01 0.  0.
    9000005    1    3    3    0    0 -0.32610685587E+02 -0.42725091693E+02 -0.10918128111E+03  0.12169816112E+03  0.10000000000E+01 0.  0.
<mgrwt>
<rscale>  0 0.12500026E+03</rscale>
<asrwt>0</asrwt>
<pdfrwt beam="2">  1        4 0.23521729E-01 0.12500026E+03</pdfrwt>
<pdfrwt beam="1">  1       -4 0.39306636E-02 0.12500026E+03</pdfrwt>
<totfact> 0.93897919E+03</totfact>
</mgrwt>
</event>
<event>
 5    1  0.3516911E-002  0.1250007E+03  0.7818608E-02  0.1235068E+00
         -4   -1    0    0    0  501 -0.00000000000E+00  0.00000000000E+00  0.32723296303E+02  0.32747931552E+02  0.12700000000E+01 0.  1.
          4   -1    0    0  501    0  0.00000000000E+00 -0.00000000000E+00 -0.11930051148E+03  0.11930727111E+03  0.12700000000E+01 0.  1.
         25    2    1    2    0    0  0.00000000000E+00  0.00000000000E+00 -0.86577215177E+02  0.15205520266E+03  0.12500068187E+03 0.  0.
    9000005    1    3    3    0    0 -0.25294457693E+02 -0.44555760763E+02  0.23643588770E+00  0.51245305239E+02  0.10000000000E+01 0.  0.
    9000005    1    3    3    0    0  0.25294457693E+02  0.44555760763E+02 -0.86813651065E+02  0.10080989742E+03  0.10000000000E+01 0.  0.
<mgrwt>
<rscale>  0 0.12500068E+03</rscale>
<asrwt>0</asrwt>
<pdfrwt beam="2">  1        4 0.18356340E-01 0.12500068E+03</pdfrwt>
<pdfrwt beam="1">  1       -4 0.50367683E-02 0.12500068E+03</pdfrwt>
<totfact> 0.98894074E+03</totfact>
</mgrwt>
</event>
<event>
 5    1  0.3516911E-002  0.1249992E+03  0.7818608E-02  0.1235071E+00
          4   -1    0    0  501    0  0.00000000000E+00  0.00000000000E+00  0.59152517238E+03  0.59152653571E+03  0.12700000000E+01 0. -1.
         -4   -1    0    0    0  501 -0.00000000000E+00 -0.00000000000E+00 -0.65411605847E+01  0.66633086222E+01  0.12700000000E+01 0. -1.
         25    2    1    2    0    0  0.00000000000E+00  0.00000000000E+00  0.58498401179E+03  0.59818984434E+03  0.12499918326E+03 0.  0.
    9000005    1    3    3    0    0  0.28245593622E+02  0.55247376331E+02  0.32801897122E+03  0.33383758271E+03  0.10000000000E+01 0.  0.
    9000005    1    3    3    0    0 -0.28245593622E+02 -0.55247376331E+02  0.25696504057E+03  0.26435226162E+03  0.10000000000E+01 0.  0.
<mgrwt>
<rscale>  0 0.12499918E+03</rscale>
<asrwt>0</asrwt>
<pdfrwt beam="1">  1        4 0.91013389E-01 0.12499918E+03</pdfrwt>
<pdfrwt beam="2">  1       -4 0.10158331E-02 0.12499918E+03</pdfrwt>
<totfact> 0.48982943E+03</totfact>
</mgrwt>
</event>
<event>
 5    1  0.3516911E-002  0.1250009E+03  0.7818608E-02  0.1235068E+00
         -4   -1    0    0    0  501 -0.00000000000E+00  0.00000000000E+00  0.74646757573E+03  0.74646865609E+03  0.12700000000E+01 0. -1.
          4   -1    0    0  501    0  0.00000000000E+00 -0.00000000000E+00 -0.51549058091E+01  0.53090445374E+01  0.12700000000E+01 0. -1.
         25    2    1    2    0    0  0.00000000000E+00  0.00000000000E+00  0.74131266992E+03  0.75177770062E+03  0.12500094626E+03 0.  0.
    9000005    1    3    3    0    0 -0.21953090051E+02  0.53744188591E+02  0.23155672776E+03  0.23872556240E+03  0.10000000000E+01 0.  0.
    9000005    1    3    3    0    0  0.21953090051E+02 -0.53744188591E+02  0.50975594216E+03  0.51305213823E+03  0.10000000000E+01 0.  0.
<mgrwt>
<rscale>  0 0.12500095E+03</rscale>
<asrwt>0</asrwt>
<pdfrwt beam="2">  1        4 0.80500306E-03 0.12500095E+03</pdfrwt>
<pdfrwt beam="1">  1       -4 0.11485301E+00 0.12500095E+03</pdfrwt>
<totfact> 0.40488444E+03</totfact>
</mgrwt>
</event>
<event>
 5    1  0.3516911E-002  0.1249987E+03  0.7818608E-02  0.1235071E+00
          4   -1    0    0  501    0  0.00000000000E+00  0.00000000000E+00  0.14721685850E+02  0.14776364041E+02  0.12700000000E+01 0. -1.
         -4   -1    0    0    0  501 -0.00000000000E+00 -0.00000000000E+00 -0.26478610106E+03  0.26478914670E+03  0.12700000000E+01 0. -1.
         25    2    1    2    0    0  0.00000000000E+00  0.00000000000E+00 -0.25006441521E+03  0.27956551075E+03  0.12499865218E+03 0.  0.
    9000005    1    3    3    0    0 -0.52765636600E+02 -0.41465657969E+01 -0.19933676640E+03  0.20624634022E+03  0.10000000000E+01 0.  0.
    9000005    1    3    3    0    0  0.52765636600E+02  0.41465657969E+01 -0.50727648804E+02  0.73319170528E+02  0.10000000000E+01 0.  0.
<mgrwt>
<rscale>  0 0.12499865E+03</rscale>
<asrwt>0</asrwt>
<pdfrwt beam="1">  1        4 0.22693152E-02 0.12499865E+03</pdfrwt>
<pdfrwt beam="2">  1       -4 0.40740760E-01 0.12499865E+03</pdfrwt>
<totfact> 0.78238096E+03</totfact>
</mgrwt>
</event>
<event>
 5    1  0.3516911E-002  0.1250016E+03  0.7818608E-02  0.1235067E+00
         -4   -1    0    0    0  501 -0.00000000000E+00  0.00000000000E+00  0.33314226154E+02  0.33338424741E+02  0.12700000000E+01 0.  1.
          4   -1    0    0  501    0  0.00000000000E+00 -0.00000000000E+00 -0.11718755982E+03  0.11719444133E+03  0.12700000000E+01 0.  1.
         25    2    1    2    0    0  0.00000000000E+00  0.00000000000E+00 -0.83873333670E+02  0.15053286607E+03  0.12500163065E+03 0.  0.
    9000005    1    3    3    0    0 -0.62122919879E+02  0.15065614698E+01 -0.49908839322E+02  0.79708337984E+02  0.10000000000E+01 0.  0.
    9000005    1    3    3    0    0  0.62122919879E+02 -0.15065614698E+01 -0.33964494349E+02  0.70824528083E+02  0.10000000000E+01 0.  0.
<mgrwt>
<rscale>  0 0.12500163E+03</rscale>
<asrwt>0</asrwt>
<pdfrwt beam="2">  1        4 0.18031246E-01 0.12500163E+03</pdfrwt>
<pdfrwt beam="1">  1       -4 0.51276564E-02 0.12500163E+03</pdfrwt>
<totfact> 0.99193945E+03</totfact>
</mgrwt>
</event>
<event>
 5    1  0.3516911E-002  0.1250008E+03  0.7818608E-02  0.1235068E+00
         -4   -1    0    0    0  501 -0.00000000000E+00  0.00000000000E+00  0.11383758998E+02  0.11454382084E+02  0.12700000000E+01 0. -1.
          4   -1    0    0  501    0  0.00000000000E+00 -0.00000000000E+00 -0.34201367610E+03  0.34201603404E+03  0.12700000000E+01 0. -1.
         25    2    1    2    0    0  0.00000000000E+00  0.00000000000E+00 -0.33062991710E+03  0.35347041612E+03  0.12500077196E+03 0.  0.
    9000005    1    3    3    0    0 -0.50778532427E+02  0.36123540579E+02 -0.17855675480E+03  0.18912134788E+03  0.10000000000E+01 0.  0.
    9000005    1    3    3    0    0  0.50778532427E+02 -0.36123540579E+02 -0.15207316231E+03  0.16434906825E+03  0.10000000000E+01 0.  0.
<mgrwt>
<rscale>  0 0.12500077E+03</rscale>
<asrwt>0</asrwt>
<pdfrwt beam="2">  1        4 0.52623095E-01 0.12500077E+03</pdfrwt>
<pdfrwt beam="1">  1       -4 0.17569617E-02 0.12500077E+03</pdfrwt>
<totfact> 0.69343267E+03</totfact>
</mgrwt>
</event>
<event>
 5    1  0.3516911E-002  0.1249994E+03  0.7818608E-02  0.1235070E+00
          4   -1    0    0  501    0  0.00000000000E+00  0.00000000000E+00  0.27711758356E+03  0.27712049368E+03  0.12700000000E+01 0. -1.
         -4   -1    0    0    0  501 -0.00000000000E+00 -0.00000000000E+00 -0.14064281036E+02  0.14121504915E+02  0.12700000000E+01 0. -1.
         25    2    1    2    0    0  0.00000000000E+00  0.00000000000E+00  0.26305330252E+03  0.29124199860E+03  0.12499944711E+03 0.  0.
    9000005    1    3    3    0    0 -0.23214133597E+02  0.54163836986E+02  0.83066109053E+02  0.10185085031E+03  0.10000000000E+01 0.  0.
    9000005    1    3    3    0    0  0.23214133597E+02 -0.54163836986E+02  0.17998719347E+03  0.18939114829E+03  0.10000000000E+01 0.  0.
<mgrwt>
<rscale>  0 0.12499945E+03</rscale>
<asrwt>0</asrwt>
<pdfrwt beam="1">  1        4 0.42638100E-01 0.12499945E+03</pdfrwt>
<pdfrwt beam="2">  1       -4 0.21683613E-02 0.12499945E+03</pdfrwt>
<totfact> 0.76711666E+03</totfact>
</mgrwt>
</event>
<event>
 5    1  0.3516911E-002  0.1249998E+03  0.7818608E-02  0.1235070E+00
         -4   -1    0    0    0  501 -0.00000000000E+00  0.00000000000E+00  0.57385194623E+01  0.58773723397E+01  0.12700000000E+01 0. -1.
          4   -1    0    0  501    0  0.00000000000E+00 -0.00000000000E+00 -0.67242800549E+03  0.67242920480E+03  0.12700000000E+01 0. -1.
         25    2    1    2    0    0  0.00000000000E+00  0.00000000000E+00 -0.66668948603E+03  0.67830657714E+03  0.12499976724E+03 0.  0.
    9000005    1    3    3    0    0 -0.19413036768E+02 -0.19135914956E+02 -0.63849275465E+03  0.63907514971E+03  0.10000000000E+01 0.  0.
    9000005    1    3    3    0    0  0.19413036768E+02  0.19135914956E+02 -0.28196731382E+02  0.39231427433E+02  0.10000000000E+01 0.  0.
<mgrwt>
<rscale>  0 0.12499977E+03</rscale>
<asrwt>0</asrwt>
<pdfrwt beam="2">  1        4 0.10346117E+00 0.12499977E+03</pdfrwt>
<pdfrwt beam="1">  1       -4 0.89362292E-03 0.12499977E+03</pdfrwt>
<totfact> 0.44257118E+03</totfact>
</mgrwt>
</event>
<event>
 5    1  0.3516911E-002  0.1249970E+03  0.7818608E-02  0.1235074E+00
          4   -1    0    0  501    0  0.00000000000E+00  0.00000000000E+00  0.79521778192E+02  0.79531918793E+02  0.12700000000E+01 0. -1.
         -4   -1    0    0    0  501 -0.00000000000E+00 -0.00000000000E+00 -0.49097933664E+02  0.49114356252E+02  0.12700000000E+01 0. -1.
         25    2    1    2    0    0  0.00000000000E+00  0.00000000000E+00  0.30423844528E+02  0.12864627505E+03  0.12499701503E+03 0.  0.
    9000005    1    3    3    0    0 -0.42244406256E+02 -0.26027989581E+02  0.54308014321E+02  0.73569059536E+02  0.10000000000E+01 0.  0.
    9000005    1    3    3    0    0  0.42244406256E+02  0.26027989581E+02 -0.23884169793E+02  0.55077215509E+02  0.10000000000E+01 0.  0.
<mgrwt>
<rscale>  0 0.12499702E+03</rscale>
<asrwt>0</asrwt>
<pdfrwt beam="1">  1        4 0.12236163E-01 0.12499702E+03</pdfrwt>
<pdfrwt beam="2">  1       -4 0.75555717E-02 0.12499702E+03</pdfrwt>
<totfact> 0.10374253E+04</totfact>
</mgrwt>
</event>
<event>
 5    1  0.3516911E-002  0.1250026E+03  0.7818608E-02  0.1235065E+00
          4   -1    0    0  501    0  0.00000000000E+00  0.00000000000E+00  0.43465408742E+02  0.43483958618E+02  0.12700000000E+01 0. -1.
         -4   -1    0    0    0  501 -0.00000000000E+00 -0.00000000000E+00 -0.89831810912E+02  0.89840787796E+02  0.12700000000E+01 0. -1.
         25    2    1    2    0    0  0.00000000000E+00  0.00000000000E+00 -0.46366402170E+02  0.13332474641E+03  0.12500257900E+03 0.  0.
    9000005    1    3    3    0    0 -0.23565178280E+02 -0.29680205531E+02  0.29815847937E+02  0.48230872022E+02  0.10000000000E+01 0.  0.
    9000005    1    3    3    0    0  0.23565178280E+02  0.29680205531E+02 -0.76182250108E+02  0.85093874393E+02  0.10000000000E+01 0.  0.
<mgrwt>
<rscale>  0 0.12500258E+03</rscale>
<asrwt>0</asrwt>
<pdfrwt beam="1">  1        4 0.66891034E-02 0.12500258E+03</pdfrwt>
<pdfrwt beam="2">  1       -4 0.13822396E-01 0.12500258E+03</pdfrwt>
<totfact> 0.10272905E+04</totfact>
</mgrwt>
</event>
<event>
 5    1  0.3516911E-002  0.1249820E+03  0.7818608E-02  0.1235097E+00
         -4   -1    0    0    0  501 -0.00000000000E+00  0.00000000000E+00  0.19865870771E+03  0.19866276715E+03  0.12700000000E+01 0. -1.
          4   -1    0    0  501    0  0.00000000000E+00 -0.00000000000E+00 -0.19632686084E+02  0.19673720107E+02  0.12700000000E+01 0. -1.
         25    2    1    2    0    0  0.00000000000E+00  0.00000000000E+00  0.17902602163E+03  0.21833648725E+03  0.12498201969E+03 0.  0.
    9000005    1    3    3    0    0 -0.52528203567E+01  0.48824717703E+02  0.22019456130E+02  0.53826588493E+02  0.10000000000E+01 0.  0.
    9000005    1    3    3    0    0  0.52528203567E+01 -0.48824717703E+02  0.15700656550E+03  0.16450989876E+03  0.10000000000E+01 0.  0.
<mgrwt>
<rscale>  0 0.12498202E+03</rscale>
<asrwt>0</asrwt>
<pdfrwt beam="2">  1        4 0.30238819E-02 0.12498202E+03</pdfrwt>
<pdfrwt beam="1">  1       -4 0.30566348E-01 0.12498202E+03</pdfrwt>
<totfact> 0.87167272E+03</totfact>
</mgrwt>
</event>
<event>
 5    1  0.3516911E-002  0.1250024E+03  0.7818608E-02  0.1235066E+00
         -4   -1    0    0    0  501 -0.00000000000E+00  0.00000000000E+00  0.61051937461E+02  0.61065145278E+02  0.12700000000E+01 0. -1.
          4   -1    0    0  501    0  0.00000000000E+00 -0.00000000000E+00 -0.63958411147E+02  0.63971018879E+02  0.12700000000E+01 0. -1.
         25    2    1    2    0    0  0.00000000000E+00  0.00000000000E+00 -0.29064736856E+01  0.12503616416E+03  0.12500237901E+03 0.  0.
    9000005    1    3    3    0    0 -0.32041112965E+02 -0.20702953967E+00 -0.55121469701E+02  0.63765603606E+02  0.10000000000E+01 0.  0.
    9000005    1    3    3    0    0  0.32041112965E+02  0.20702953967E+00  0.52214996016E+02  0.61270560551E+02  0.10000000000E+01 0.  0.
<mgrwt>
<rscale>  0 0.12500238E+03</rscale>
<asrwt>0</asrwt>
<pdfrwt beam="2">  1        4 0.98417413E-02 0.12500238E+03</pdfrwt>
<pdfrwt beam="1">  1       -4 0.93945917E-02 0.12500238E+03</pdfrwt>
<totfact> 0.10451515E+04</totfact>
</mgrwt>
</event>
<event>
 5    1  0.3516911E-002  0.1249652E+03  0.7818608E-02  0.1235124E+00
         -4   -1    0    0    0  501 -0.00000000000E+00  0.00000000000E+00  0.21381909281E+03  0.21382286442E+03  0.12700000000E+01 0.  1.
          4   -1    0    0  501    0  0.00000000000E+00 -0.00000000000E+00 -0.18232768870E+02  0.18276946153E+02  0.12700000000E+01 0.  1.
         25    2    1    2    0    0  0.00000000000E+00  0.00000000000E+00  0.19558632394E+03  0.23209981057E+03  0.12496524299E+03 0.  0.
    9000005    1    3    3    0    0 -0.31104289453E+02 -0.49815051931E+02  0.13737017518E+03  0.14940074046E+03  0.10000000000E+01 0.  0.
    9000005    1    3    3    0    0  0.31104289453E+02  0.49815051931E+02  0.58216148756E+02  0.82699070111E+02  0.10000000000E+01 0.  0.
<mgrwt>
<rscale>  0 0.12496524E+03</rscale>
<asrwt>0</asrwt>
<pdfrwt beam="2">  1        4 0.28087298E-02 0.12496524E+03</pdfrwt>
<pdfrwt beam="1">  1       -4 0.32898932E-01 0.12496524E+03</pdfrwt>
<totfact> 0.85054138E+03</totfact>
</mgrwt>
</event>
<event>
 5    1  0.3516911E-002  0.1249990E+03  0.7818608E-02  0.1235071E+00
         -4   -1    0    0    0  501 -0.00000000000E+00  0.00000000000E+00  0.85232735236E+02  0.85242196451E+02  0.12700000000E+01 0. -1.
          4   -1    0    0  501    0  0.00000000000E+00 -0.00000000000E+00 -0.45808876951E+02  0.45826478236E+02  0.12700000000E+01 0. -1.
         25    2    1    2    0    0  0.00000000000E+00  0.00000000000E+00  0.39423858285E+02  0.13106867469E+03  0.12499902752E+03 0.  0.
    9000005    1    3    3    0    0  0.32511839690E+02 -0.50290877771E+02  0.98417710843E+00  0.59901258013E+02  0.10000000000E+01 0.  0.
    9000005    1    3    3    0    0 -0.32511839690E+02  0.50290877771E+02  0.38439681177E+02  0.71167416674E+02  0.10000000000E+01 0.  0.
<mgrwt>
<rscale>  0 0.12499903E+03</rscale>
<asrwt>0</asrwt>
<pdfrwt beam="2">  1        4 0.70496013E-02 0.12499903E+03</pdfrwt>
<pdfrwt beam="1">  1       -4 0.13114810E-01 0.12499903E+03</pdfrwt>
<totfact> 0.10321844E+04</totfact>
</mgrwt>
</event>
<event>
 5    1  0.3516911E-002  0.1250035E+03  0.7818608E-02  0.1235064E+00
          4   -1    0    0  501    0  0.00000000000E+00  0.00000000000E+00  0.22864899734E+03  0.22865252434E+03  0.12700000000E+01 0.  1.
         -4   -1    0    0    0  501 -0.00000000000E+00 -0.00000000000E+00 -0.17057744504E+02  0.17104956813E+02  0.12700000000E+01 0.  1.
         25    2    1    2    0    0  0.00000000000E+00  0.00000000000E+00  0.21159125284E+03  0.24575748115E+03  0.12500352500E+03 0.  0.
    9000005    1    3    3    0    0  0.30086830090E+02 -0.40128795336E+02  0.32499439476E+02  0.59772494730E+02  0.10000000000E+01 0.  0.
    9000005    1    3    3    0    0 -0.30086830090E+02  0.40128795336E+02  0.17909181336E+03  0.18598498642E+03  0.10000000000E+01 0.  0.
<mgrwt>
<rscale>  0 0.12500353E+03</rscale>
<asrwt>0</asrwt>
<pdfrwt beam="1">  1        4 0.35180669E-01 0.12500353E+03</pdfrwt>
<pdfrwt beam="2">  1       -4 0.26281716E-02 0.12500353E+03</pdfrwt>
<totfact> 0.82940782E+03</totfact>
</mgrwt>
</event>
<event>
 5    1  0.3516911E-002  0.1250003E+03  0.7818608E-02  0.1235069E+00
          4   -1    0    0  501    0  0.00000000000E+00  0.00000000000E+00  0.92915644340E+03  0.92915731133E+03  0.12700000000E+01 0.  1.
         -4   -1    0    0    0  501 -0.00000000000E+00 -0.00000000000E+00 -0.41073016070E+01  0.42991657901E+01  0.12700000000E+01 0.  1.
         25    2    1    2    0    0  0.00000000000E+00  0.00000000000E+00  0.92504914179E+03  0.93345647712E+03  0.12500031984E+03 0.  0.
    9000005    1    3    3    0    0 -0.35093587229E+02 -0.43017390177E+02  0.24826541297E+03  0.25439884237E+03  0.10000000000E+01 0.  0.
    9000005    1    3    3    0    0  0.35093587229E+02  0.43017390177E+02  0.67678372882E+03  0.67905763475E+03  0.10000000000E+01 0.  0.
<mgrwt>
<rscale>  0 0.12500032E+03</rscale>
<asrwt>0</asrwt>
<pdfrwt beam="1">  1        4 0.14296207E+00 0.12500032E+03</pdfrwt>
<pdfrwt beam="2">  1       -4 0.64671763E-03 0.12500032E+03</pdfrwt>
<totfact> 0.32910456E+03</totfact>
</mgrwt>
</event>
<event>
 5    1  0.3516911E-002  0.1249991E+03  0.7818608E-02  0.1235071E+00
         -4   -1    0    0    0  501 -0.00000000000E+00  0.00000000000E+00  0.60985029339E+03  0.60985161577E+03  0.12700000000E+01 0.  1.
          4   -1    0    0  501    0  0.00000000000E+00 -0.00000000000E+00 -0.63408676162E+01  0.64667999912E+01  0.12700000000E+01 0.  1.
         25    2    1    2    0    0  0.00000000000E+00  0.00000000000E+00  0.60350942578E+03  0.61631841576E+03  0.12499905039E+03 0.  0.
    9000005    1    3    3    0    0 -0.83480826300E+01 -0.61086138857E+02  0.35203309394E+03  0.35739264972E+03  0.10000000000E+01 0.  0.
    9000005    1    3    3    0    0  0.83480826300E+01  0.61086138857E+02  0.25147633183E+03  0.25892576603E+03  0.10000000000E+01 0.  0.
<mgrwt>
<rscale>  0 0.12499905E+03</rscale>
<asrwt>0</asrwt>
<pdfrwt beam="2">  1        4 0.98530667E-03 0.12499905E+03</pdfrwt>
<pdfrwt beam="1">  1       -4 0.93832935E-01 0.12499905E+03</pdfrwt>
<totfact> 0.47854470E+03</totfact>
</mgrwt>
</event>
<event>
 5    1  0.3516911E-002  0.1249983E+03  0.7818608E-02  0.1235072E+00
         -4   -1    0    0    0  501 -0.00000000000E+00  0.00000000000E+00  0.11914761923E+02  0.11982255701E+02  0.12700000000E+01 0.  1.
          4   -1    0    0  501    0  0.00000000000E+00 -0.00000000000E+00 -0.32684622333E+03  0.32684869069E+03  0.12700000000E+01 0.  1.
         25    2    1    2    0    0  0.00000000000E+00  0.00000000000E+00 -0.31493146141E+03  0.33883094639E+03  0.12499833938E+03 0.  0.
    9000005    1    3    3    0    0 -0.50503991784E+02 -0.12824436610E+02 -0.63955913974E+02  0.82501383581E+02  0.10000000000E+01 0.  0.
    9000005    1    3    3    0    0  0.50503991784E+02  0.12824436610E+02 -0.25097554743E+03  0.25632956281E+03  0.10000000000E+01 0.  0.
<mgrwt>
<rscale>  0 0.12499834E+03</rscale>
<asrwt>0</asrwt>
<pdfrwt beam="2">  1        4 0.50289409E-01 0.12499834E+03</pdfrwt>
<pdfrwt beam="1">  1       -4 0.18384222E-02 0.12499834E+03</pdfrwt>
<totfact> 0.70973635E+03</totfact>
</mgrwt>
</event>
<event>
 5    1  0.3516911E-002  0.1250010E+03  0.7818608E-02  0.1235068E+00
         -4   -1    0    0    0  501 -0.00000000000E+00  0.00000000000E+00  0.81811920597E+02  0.81821777369E+02  0.12700000000E+01 0. -1.
          4   -1    0    0  501    0  0.00000000000E+00 -0.00000000000E+00 -0.47726305652E+02  0.47743200052E+02  0.12700000000E+01 0. -1.
         25    2    1    2    0    0  0.00000000000E+00  0.00000000000E+00  0.34085614945E+02  0.12956497742E+03  0.12500101691E+03 0.  0.
    9000005    1    3    3    0    0 -0.46080400240E+00 -0.51765861063E+02 -0.19240966805E+02  0.55237048396E+02  0.10000000000E+01 0.  0.
    9000005    1    3    3    0    0  0.46080400240E+00  0.51765861063E+02  0.53326581751E+02  0.74327929025E+02  0.10000000000E+01 0.  0.
<mgrwt>
<rscale>  0 0.12500102E+03</rscale>
<asrwt>0</asrwt>
<pdfrwt beam="2">  1        4 0.73445664E-02 0.12500102E+03</pdfrwt>
<pdfrwt beam="1">  1       -4 0.12588507E-01 0.12500102E+03</pdfrwt>
<totfact> 0.10353585E+04</totfact>
</mgrwt>
</event>
<event>
 5    1  0.3516911E-002  0.1249979E+03  0.7818608E-02  0.1235073E+00
          4   -1    0    0  501    0  0.00000000000E+00  0.00000000000E+00  0.69685619705E+03  0.69685735432E+03  0.12700000000E+01 0.  1.
         -4   -1    0    0    0  501 -0.00000000000E+00 -0.00000000000E+00 -0.55322348107E+01  0.56761361858E+01  0.12700000000E+01 0.  1.
         25    2    1    2    0    0  0.00000000000E+00  0.00000000000E+00  0.69132396224E+03  0.70253349050E+03  0.12499793804E+03 0.  0.
    9000005    1    3    3    0    0  0.28659813894E+02 -0.50698835869E+02  0.47300554174E+03  0.47657842944E+03  0.10000000000E+01 0.  0.
    9000005    1    3    3    0    0 -0.28659813894E+02  0.50698835869E+02  0.21831842050E+03  0.22595506106E+03  0.10000000000E+01 0.  0.
<mgrwt>
<rscale>  0 0.12499794E+03</rscale>
<asrwt>0</asrwt>
<pdfrwt beam="1">  1        4 0.10721985E+00 0.12499794E+03</pdfrwt>
<pdfrwt beam="2">  1       -4 0.86227106E-03 0.12499794E+03</pdfrwt>
<totfact> 0.42955212E+03</totfact>
</mgrwt>
</event>
<event>
 5    1  0.3516911E-002  0.1249989E+03  0.7818608E-02  0.1235071E+00
          4   -1    0    0  501    0  0.00000000000E+00  0.00000000000E+00  0.35952232746E+03  0.35952457057E+03  0.12700000000E+01 0. -1.
         -4   -1    0    0    0  501 -0.00000000000E+00 -0.00000000000E+00 -0.10825514789E+02  0.10899755522E+02  0.12700000000E+01 0. -1.
         25    2    1    2    0    0  0.00000000000E+00  0.00000000000E+00  0.34869681268E+03  0.37042432609E+03  0.12499885676E+03 0.  0.
    9000005    1    3    3    0    0 -0.30972843116E+02  0.51574825630E+02  0.22445555611E+03  0.23238024081E+03  0.10000000000E+01 0.  0.
    9000005    1    3    3    0    0  0.30972843116E+02 -0.51574825630E+02  0.12424125656E+03  0.13804408528E+03  0.10000000000E+01 0.  0.
<mgrwt>
<rscale>  0 0.12499886E+03</rscale>
<asrwt>0</asrwt>
<pdfrwt beam="1">  1        4 0.55317012E-01 0.12499886E+03</pdfrwt>
<pdfrwt beam="2">  1       -4 0.16713471E-02 0.12499886E+03</pdfrwt>
<totfact> 0.67536272E+03</totfact>
</mgrwt>
</event>
<event>
 5    1  0.3516911E-002  0.1250013E+03  0.7818608E-02  0.1235067E+00
          4   -1    0    0  501    0  0.00000000000E+00  0.00000000000E+00  0.63881075517E+01  0.65131265988E+01  0.12700000000E+01 0.  1.
         -4   -1    0    0    0  501 -0.00000000000E+00 -0.00000000000E+00 -0.60544890996E+03  0.60545024194E+03  0.12700000000E+01 0.  1.
         25    2    1    2    0    0  0.00000000000E+00  0.00000000000E+00 -0.59906080241E+03  0.61196336854E+03  0.12500127782E+03 0.  0.
    9000005    1    3    3    0    0  0.25624265298E+02  0.49504053507E+02 -0.43783384194E+03  0.44136915097E+03  0.10000000000E+01 0.  0.
    9000005    1    3    3    0    0 -0.25624265298E+02 -0.49504053507E+02 -0.16122696047E+03  0.17059421757E+03  0.10000000000E+01 0.  0.
<mgrwt>
<rscale>  0 0.12500128E+03</rscale>
<asrwt>0</asrwt>
<pdfrwt beam="1">  1        4 0.99250556E-03 0.12500128E+03</pdfrwt>
<pdfrwt beam="2">  1       -4 0.93155661E-01 0.12500128E+03</pdfrwt>
<totfact> 0.48119721E+03</totfact>
</mgrwt>
</event>
<event>
 5    1  0.3516911E-002  0.1249998E+03  0.7818608E-02  0.1235070E+00
          4   -1    0    0  501    0  0.00000000000E+00  0.00000000000E+00  0.78333394114E+02  0.78343688536E+02  0.12700000000E+01 0. -1.
         -4   -1    0    0    0  501 -0.00000000000E+00 -0.00000000000E+00 -0.49845162908E+02  0.49861339386E+02  0.12700000000E+01 0. -1.
         25    2    1    2    0    0  0.00000000000E+00  0.00000000000E+00  0.28488231206E+02  0.12820502792E+03  0.12499979947E+03 0.  0.
    9000005    1    3    3    0    0  0.49892950472E+02  0.18583742859E+02 -0.19314526823E+02  0.56645502486E+02  0.10000000000E+01 0.  0.
    9000005    1    3    3    0    0 -0.49892950472E+02 -0.18583742859E+02  0.47802758029E+02  0.71559525436E+02  0.10000000000E+01 0.  0.
<mgrwt>
<rscale>  0 0.12499980E+03</rscale>
<asrwt>0</asrwt>
<pdfrwt beam="1">  1        4 0.12053328E-01 0.12499980E+03</pdfrwt>
<pdfrwt beam="2">  1       -4 0.76705228E-02 0.12499980E+03</pdfrwt>
<totfact> 0.10383109E+04</totfact>
</mgrwt>
</event>
<event>
 5    1  0.3516911E-002  0.1249996E+03  0.7818608E-02  0.1235070E+00
         -4   -1    0    0    0  501 -0.00000000000E+00  0.00000000000E+00  0.19809877084E+02  0.19850544831E+02  0.12700000000E+01 0.  1.
          4   -1    0    0  501    0  0.00000000000E+00 -0.00000000000E+00 -0.19694068156E+03  0.19694477641E+03  0.12700000000E+01 0.  1.
         25    2    1    2    0    0  0.00000000000E+00  0.00000000000E+00 -0.17713080448E+03  0.21679532124E+03  0.12499955766E+03 0.  0.
    9000005    1    3    3    0    0 -0.73471399066E+01  0.56150167305E+02 -0.13440003238E+03  0.14584646193E+03  0.10000000000E+01 0.  0.
    9000005    1    3    3    0    0  0.73471399066E+01 -0.56150167305E+02 -0.42730772098E+02  0.70948859309E+02  0.10000000000E+01 0.  0.
<mgrwt>
<rscale>  0 0.12499956E+03</rscale>
<asrwt>0</asrwt>
<pdfrwt beam="2">  1        4 0.30302008E-01 0.12499956E+03</pdfrwt>
<pdfrwt beam="1">  1       -4 0.30511168E-02 0.12499956E+03</pdfrwt>
<totfact> 0.87378866E+03</totfact>
</mgrwt>
</event>
<event>
 5    1  0.3516911E-002  0.1250004E+03  0.7818608E-02  0.1235069E+00
          4   -1    0    0  501    0  0.00000000000E+00  0.00000000000E+00  0.45904272188E+03  0.45904447868E+03  0.12700000000E+01 0.  1.
         -4   -1    0    0    0  501 -0.00000000000E+00 -0.00000000000E+00 -0.84604393182E+01  0.85552284281E+01  0.12700000000E+01 0.  1.
         25    2    1    2    0    0  0.00000000000E+00  0.00000000000E+00  0.45058228256E+03  0.46759970711E+03  0.12500037093E+03 0.  0.
    9000005    1    3    3    0    0 -0.48989321792E+02  0.33126661413E+02  0.14973615743E+03  0.16099455329E+03  0.10000000000E+01 0.  0.
    9000005    1    3    3    0    0  0.48989321792E+02 -0.33126661413E+02  0.30084612513E+03  0.30660515382E+03  0.10000000000E+01 0.  0.
<mgrwt>
<rscale>  0 0.12500037E+03</rscale>
<asrwt>0</asrwt>
<pdfrwt beam="1">  1        4 0.70629384E-01 0.12500037E+03</pdfrwt>
<pdfrwt beam="2">  1       -4 0.13090327E-02 0.12500037E+03</pdfrwt>
<totfact> 0.58468408E+03</totfact>
</mgrwt>
</event>
<event>
 5    1  0.3516911E-002  0.1249975E+03  0.7818608E-02  0.1235073E+00
          4   -1    0    0  501    0  0.00000000000E+00  0.00000000000E+00  0.66228140460E+02  0.66240316189E+02  0.12700000000E+01 0. -1.
         -4   -1    0    0    0  501 -0.00000000000E+00 -0.00000000000E+00 -0.58954906537E+02  0.58968584049E+02  0.12700000000E+01 0. -1.
         25    2    1    2    0    0  0.00000000000E+00  0.00000000000E+00  0.72732339236E+01  0.12520890024E+03  0.12499747504E+03 0.  0.
    9000005    1    3    3    0    0  0.38447258608E+02  0.15120165625E+02 -0.43328517769E+02  0.59876302116E+02  0.10000000000E+01 0.  0.
    9000005    1    3    3    0    0 -0.38447258608E+02 -0.15120165625E+02  0.50601751693E+02  0.65332598122E+02  0.10000000000E+01 0.  0.
<mgrwt>
<rscale>  0 0.12499748E+03</rscale>
<asrwt>0</asrwt>
<pdfrwt beam="1">  1        4 0.10190933E-01 0.12499748E+03</pdfrwt>
<pdfrwt beam="2">  1       -4 0.90719743E-02 0.12499748E+03</pdfrwt>
<totfact> 0.10448923E+04</totfact>
</mgrwt>
</event>
<event>
 5    1  0.3516911E-002  0.1249985E+03  0.7818608E-02  0.1235072E+00
          4   -1    0    0  501    0  0.00000000000E+00  0.00000000000E+00  0.29860335934E+03  0.29860606006E+03  0.12700000000E+01 0. -1.
         -4   -1    0    0    0  501 -0.00000000000E+00 -0.00000000000E+00 -0.13047824841E+02  0.13109486377E+02  0.12700000000E+01 0. -1.
         25    2    1    2    0    0  0.00000000000E+00  0.00000000000E+00  0.28555553450E+03  0.31171554644E+03  0.12499847444E+03 0.  0.
    9000005    1    3    3    0    0  0.22126227941E+01  0.58963751836E+02  0.91456382826E+02  0.10884341822E+03  0.10000000000E+01 0.  0.
    9000005    1    3    3    0    0 -0.22126227941E+01 -0.58963751836E+02  0.19409915167E+03  0.20287212822E+03  0.10000000000E+01 0.  0.
<mgrwt>
<rscale>  0 0.12499847E+03</rscale>
<asrwt>0</asrwt>
<pdfrwt beam="1">  1        4 0.45943931E-01 0.12499847E+03</pdfrwt>
<pdfrwt beam="2">  1       -4 0.20123085E-02 0.12499847E+03</pdfrwt>
<totfact> 0.74154882E+03</totfact>
</mgrwt>
</event>
<event>
 5    1  0.3516911E-002  0.1250008E+03  0.7818608E-02  0.1235068E+00
          4   -1    0    0  501    0  0.00000000000E+00  0.00000000000E+00  0.25650094473E+02  0.25681515658E+02  0.12700000000E+01 0.  1.
         -4   -1    0    0    0  501 -0.00000000000E+00 -0.00000000000E+00 -0.15216455602E+03  0.15216985578E+03  0.12700000000E+01 0.  1.
         25    2    1    2    0    0  0.00000000000E+00  0.00000000000E+00 -0.12651446155E+03  0.17785137144E+03  0.12500080537E+03 0.  0.
    9000005    1    3    3    0    0  0.33051874447E+02  0.13829611941E+02 -0.13610712529E+03  0.14074741250E+03  0.10000000000E+01 0.  0.
    9000005    1    3    3    0    0 -0.33051874447E+02 -0.13829611941E+02  0.95926637477E+01  0.37103958935E+02  0.10000000000E+01 0.  0.
<mgrwt>
<rscale>  0 0.12500081E+03</rscale>
<asrwt>0</asrwt>
<pdfrwt beam="1">  1        4 0.39489931E-02 0.12500081E+03</pdfrwt>
<pdfrwt beam="2">  1       -4 0.23412756E-01 0.12500081E+03</pdfrwt>
<totfact> 0.94003501E+03</totfact>
</mgrwt>
</event>
<event>
 5    1  0.3516911E-002  0.1250007E+03  0.7818608E-02  0.1235068E+00
          4   -1    0    0  501    0  0.00000000000E+00  0.00000000000E+00  0.54428429398E+03  0.54428577565E+03  0.12700000000E+01 0.  1.
         -4   -1    0    0    0  501 -0.00000000000E+00 -0.00000000000E+00 -0.71192528196E+01  0.72316430159E+01  0.12700000000E+01 0.  1.
         25    2    1    2    0    0  0.00000000000E+00  0.00000000000E+00  0.53716504116E+03  0.55151741866E+03  0.12500072658E+03 0.  0.
    9000005    1    3    3    0    0 -0.28935230735E+02 -0.43938976053E+02  0.11978146153E+03  0.13082996492E+03  0.10000000000E+01 0.  0.
    9000005    1    3    3    0    0  0.28935230735E+02  0.43938976053E+02  0.41738357963E+03  0.42068745375E+03  0.10000000000E+01 0.  0.
<mgrwt>
<rscale>  0 0.12500073E+03</rscale>
<asrwt>0</asrwt>
<pdfrwt beam="1">  1        4 0.83744808E-01 0.12500073E+03</pdfrwt>
<pdfrwt beam="2">  1       -4 0.11040290E-02 0.12500073E+03</pdfrwt>
<totfact> 0.52077495E+03</totfact>
</mgrwt>
</event>
<event>
 5    1  0.3516911E-002  0.1250015E+03  0.7818608E-02  0.1235067E+00
          4   -1    0    0  501    0  0.00000000000E+00  0.00000000000E+00  0.65677350462E+02  0.65689628281E+02  0.12700000000E+01 0. -1.
         -4   -1    0    0    0  501 -0.00000000000E+00 -0.00000000000E+00 -0.59453214612E+02  0.59466777513E+02  0.12700000000E+01 0. -1.
         25    2    1    2    0    0  0.00000000000E+00  0.00000000000E+00  0.62241358494E+01  0.12515640579E+03  0.12500154417E+03 0.  0.
    9000005    1    3    3    0    0  0.23620873084E+02  0.57842324013E+02  0.44045655513E+01  0.62642479917E+02  0.10000000000E+01 0.  0.
    9000005    1    3    3    0    0 -0.23620873084E+02 -0.57842324013E+02  0.18195702981E+01  0.62513925877E+02  0.10000000000E+01 0.  0.
<mgrwt>
<rscale>  0 0.12500154E+03</rscale>
<asrwt>0</asrwt>
<pdfrwt beam="1">  1        4 0.10106195E-01 0.12500154E+03</pdfrwt>
<pdfrwt beam="2">  1       -4 0.91486362E-02 0.12500154E+03</pdfrwt>
<totfact> 0.10449102E+04</totfact>
</mgrwt>
</event>
<event>
 5    1  0.3516911E-002  0.1250309E+03  0.7818608E-02  0.1235021E+00
          4   -1    0    0  501    0  0.00000000000E+00  0.00000000000E+00  0.27847374511E+01  0.30606637632E+01  0.12700000000E+01 0. -1.
         -4   -1    0    0    0  501 -0.00000000000E+00 -0.00000000000E+00 -0.13369045494E+04  0.13369051526E+04  0.12700000000E+01 0. -1.
         25    2    1    2    0    0  0.00000000000E+00  0.00000000000E+00 -0.13341198119E+04  0.13399658164E+04  0.12503086197E+03 0.  0.
    9000005    1    3    3    0    0  0.91673703581E+01  0.59653868978E+02 -0.84137457910E+03  0.84353708106E+03  0.10000000000E+01 0.  0.
    9000005    1    3    3    0    0 -0.91673703581E+01 -0.59653868978E+02 -0.49274523282E+03  0.49642873530E+03  0.10000000000E+01 0.  0.
<mgrwt>
<rscale>  0 0.12503086E+03</rscale>
<asrwt>0</asrwt>
<pdfrwt beam="1">  1        4 0.44969372E-03 0.12503086E+03</pdfrwt>
<pdfrwt beam="2">  1       -4 0.20569841E+00 0.12503086E+03</pdfrwt>
<totfact> 0.21290163E+03</totfact>
</mgrwt>
</event>
<event>
 5    1  0.3516911E-002  0.1249995E+03  0.7818608E-02  0.1235070E+00
          4   -1    0    0  501    0  0.00000000000E+00  0.00000000000E+00  0.73381742607E+01  0.74472613409E+01  0.12700000000E+01 0.  1.
         -4   -1    0    0    0  501 -0.00000000000E+00 -0.00000000000E+00 -0.52827712029E+03  0.52827864686E+03  0.12700000000E+01 0.  1.
         25    2    1    2    0    0  0.00000000000E+00  0.00000000000E+00 -0.52093894603E+03  0.53572590820E+03  0.12499945288E+03 0.  0.
    9000005    1    3    3    0    0  0.36144625649E+02 -0.45229080479E+02 -0.36126496884E+03  0.36587631980E+03  0.10000000000E+01 0.  0.
    9000005    1    3    3    0    0 -0.36144625649E+02  0.45229080479E+02 -0.15967397719E+03  0.16984958839E+03  0.10000000000E+01 0.  0.
<mgrwt>
<rscale>  0 0.12499945E+03</rscale>
<asrwt>0</asrwt>
<pdfrwt beam="1">  1        4 0.11374590E-02 0.12499945E+03</pdfrwt>
<pdfrwt beam="2">  1       -4 0.81281882E-01 0.12499945E+03</pdfrwt>
<totfact> 0.53195899E+03</totfact>
</mgrwt>
</event>
<event>
 5    1  0.3516911E-002  0.1250025E+03  0.7818608E-02  0.1235065E+00
          4   -1    0    0  501    0  0.00000000000E+00  0.00000000000E+00  0.14660489956E+02  0.14715395535E+02  0.12700000000E+01 0. -1.
         -4   -1    0    0    0  501 -0.00000000000E+00 -0.00000000000E+00 -0.26590344558E+03  0.26590647843E+03  0.12700000000E+01 0. -1.
         25    2    1    2    0    0  0.00000000000E+00  0.00000000000E+00 -0.25124295562E+03  0.28062187397E+03  0.12500245357E+03 0.  0.
    9000005    1    3    3    0    0 -0.56487336215E+02  0.55063244882E+01 -0.66897560927E+02  0.87734955520E+02  0.10000000000E+01 0.  0.
    9000005    1    3    3    0    0  0.56487336215E+02 -0.55063244882E+01 -0.18434539470E+03  0.19288691845E+03  0.10000000000E+01 0.  0.
<mgrwt>
<rscale>  0 0.12500245E+03</rscale>
<asrwt>0</asrwt>
<pdfrwt beam="1">  1        4 0.22599170E-02 0.12500245E+03</pdfrwt>
<pdfrwt beam="2">  1       -4 0.40912676E-01 0.12500245E+03</pdfrwt>
<totfact> 0.78091464E+03</totfact>
</mgrwt>
</event>
<event>
 5    1  0.3516911E-002  0.1249985E+03  0.7818608E-02  0.1235072E+00
         -4   -1    0    0    0  501 -0.00000000000E+00  0.00000000000E+00  0.30635842558E+02  0.30662155000E+02  0.12700000000E+01 0.  1.
          4   -1    0    0  501    0  0.00000000000E+00 -0.00000000000E+00 -0.12741852178E+03  0.12742485076E+03  0.12700000000E+01 0.  1.
         25    2    1    2    0    0  0.00000000000E+00  0.00000000000E+00 -0.96782679221E+02  0.15808700576E+03  0.12499845757E+03 0.  0.
    9000005    1    3    3    0    0  0.40148650067E+02 -0.43285880604E+01  0.11924969715E+02  0.42117166090E+02  0.10000000000E+01 0.  0.
    9000005    1    3    3    0    0 -0.40148650067E+02  0.43285880604E+01 -0.10870764894E+03  0.11596983967E+03  0.10000000000E+01 0.  0.
<mgrwt>
<rscale>  0 0.12499846E+03</rscale>
<asrwt>0</asrwt>
<pdfrwt beam="2">  1        4 0.19605360E-01 0.12499846E+03</pdfrwt>
<pdfrwt beam="1">  1       -4 0.47157175E-02 0.12499846E+03</pdfrwt>
<totfact> 0.97716256E+03</totfact>
</mgrwt>
</event>
<event>
 5    1  0.3516911E-002  0.1250004E+03  0.7818608E-02  0.1235069E+00
          4   -1    0    0  501    0  0.00000000000E+00  0.00000000000E+00  0.10268487705E+03  0.10269273039E+03  0.12700000000E+01 0.  1.
         -4   -1    0    0    0  501 -0.00000000000E+00 -0.00000000000E+00 -0.38021460828E+02  0.38042665305E+02  0.12700000000E+01 0.  1.
         25    2    1    2    0    0  0.00000000000E+00  0.00000000000E+00  0.64663416223E+02  0.14073539570E+03  0.12500037682E+03 0.  0.
    9000005    1    3    3    0    0 -0.18999288117E+02 -0.35759286794E+02  0.85921385589E+02  0.94990441848E+02  0.10000000000E+01 0.  0.
    9000005    1    3    3    0    0  0.18999288117E+02  0.35759286794E+02 -0.21257969366E+02  0.45744953848E+02  0.10000000000E+01 0.  0.
<mgrwt>
<rscale>  0 0.12500038E+03</rscale>
<asrwt>0</asrwt>
<pdfrwt beam="1">  1        4 0.15799909E-01 0.12500038E+03</pdfrwt>
<pdfrwt beam="2">  1       -4 0.58516908E-02 0.12500038E+03</pdfrwt>
<totfact> 0.10118281E+04</totfact>
</mgrwt>
</event>
<event>
 5    1  0.3516911E-002  0.1250015E+03  0.7818608E-02  0.1235067E+00
         -4   -1    0    0    0  501 -0.00000000000E+00  0.00000000000E+00  0.56194874565E+01  0.57612098794E+01  0.12700000000E+01 0.  1.
          4   -1    0    0  501    0  0.00000000000E+00 -0.00000000000E+00 -0.68634364988E+03  0.68634482487E+03  0.12700000000E+01 0.  1.
         25    2    1    2    0    0  0.00000000000E+00  0.00000000000E+00 -0.68072416242E+03  0.69210603475E+03  0.12500151213E+03 0.  0.
    9000005    1    3    3    0    0 -0.44796319562E+02 -0.43406047377E+02 -0.36148133734E+03  0.36682496158E+03  0.10000000000E+01 0.  0.
    9000005    1    3    3    0    0  0.44796319562E+02  0.43406047377E+02 -0.31924282509E+03  0.32528107317E+03  0.10000000000E+01 0.  0.
<mgrwt>
<rscale>  0 0.12500151E+03</rscale>
<asrwt>0</asrwt>
<pdfrwt beam="2">  1        4 0.10560226E+00 0.12500151E+03</pdfrwt>
<pdfrwt beam="1">  1       -4 0.87552918E-03 0.12500151E+03</pdfrwt>
<totfact> 0.43505271E+03</totfact>
</mgrwt>
</event>
<event>
 5    1  0.3516911E-002  0.1250014E+03  0.7818608E-02  0.1235067E+00
         -4   -1    0    0    0  501 -0.00000000000E+00  0.00000000000E+00  0.18985136677E+03  0.18985561451E+03  0.12700000000E+01 0. -1.
          4   -1    0    0  501    0  0.00000000000E+00 -0.00000000000E+00 -0.20551675680E+02  0.20590878400E+02  0.12700000000E+01 0. -1.
         25    2    1    2    0    0  0.00000000000E+00  0.00000000000E+00  0.16929969108E+03  0.21044649291E+03  0.12500136391E+03 0.  0.
    9000005    1    3    3    0    0  0.56111238942E+02 -0.16021578395E+02  0.12230176505E+03  0.13551340836E+03  0.10000000000E+01 0.  0.
    9000005    1    3    3    0    0 -0.56111238942E+02  0.16021578395E+02  0.46997926034E+02  0.74933084558E+02  0.10000000000E+01 0.  0.
<mgrwt>
<rscale>  0 0.12500136E+03</rscale>
<asrwt>0</asrwt>
<pdfrwt beam="2">  1        4 0.31651387E-02 0.12500136E+03</pdfrwt>
<pdfrwt beam="1">  1       -4 0.29211244E-01 0.12500136E+03</pdfrwt>
<totfact> 0.88400319E+03</totfact>
</mgrwt>
</event>
<event>
 5    1  0.3516911E-002  0.1250065E+03  0.7818608E-02  0.1235059E+00
         -4   -1    0    0    0  501 -0.00000000000E+00  0.00000000000E+00  0.83344143647E+03  0.83344240409E+03  0.12700000000E+01 0. -1.
          4   -1    0    0  501    0  0.00000000000E+00 -0.00000000000E+00 -0.46003642262E+01  0.47724470676E+01  0.12700000000E+01 0. -1.
         25    2    1    2    0    0  0.00000000000E+00  0.00000000000E+00  0.82884107225E+03  0.83821485115E+03  0.12500645444E+03 0.  0.
    9000005    1    3    3    0    0 -0.44263980200E+02 -0.18612413698E+02  0.14621137250E+03  0.15389765215E+03  0.10000000000E+01 0.  0.
    9000005    1    3    3    0    0  0.44263980200E+02  0.18612413698E+02  0.68262969974E+03  0.68431719901E+03  0.10000000000E+01 0.  0.
<mgrwt>
<rscale>  0 0.12500645E+03</rscale>
<asrwt>0</asrwt>
<pdfrwt beam="2">  1        4 0.72106031E-03 0.12500645E+03</pdfrwt>
<pdfrwt beam="1">  1       -4 0.12823500E+00 0.12500645E+03</pdfrwt>
<totfact> 0.36609354E+03</totfact>
</mgrwt>
</event>
<event>
 5    1  0.3516911E-002  0.1249985E+03  0.7818608E-02  0.1235072E+00
          4   -1    0    0  501    0  0.00000000000E+00  0.00000000000E+00  0.11180296691E+03  0.11181017981E+03  0.12700000000E+01 0.  1.
         -4   -1    0    0    0  501 -0.00000000000E+00 -0.00000000000E+00 -0.34917983787E+02  0.34941071702E+02  0.12700000000E+01 0.  1.
         25    2    1    2    0    0  0.00000000000E+00  0.00000000000E+00  0.76884983121E+02  0.14675125151E+03  0.12499851676E+03 0.  0.
    9000005    1    3    3    0    0 -0.47713238707E+02 -0.40338710190E+02  0.39827944285E+02  0.74101483344E+02  0.10000000000E+01 0.  0.
    9000005    1    3    3    0    0  0.47713238707E+02  0.40338710190E+02  0.37057038835E+02  0.72649768169E+02  0.10000000000E+01 0.  0.
<mgrwt>
<rscale>  0 0.12499852E+03</rscale>
<asrwt>0</asrwt>
<pdfrwt beam="1">  1        4 0.17202787E-01 0.12499852E+03</pdfrwt>
<pdfrwt beam="2">  1       -4 0.53743285E-02 0.12499852E+03</pdfrwt>
<totfact> 0.99958613E+03</totfact>
</mgrwt>
</event>
<event>
 5    1  0.3516911E-002  0.1250111E+03  0.7818608E-02  0.1235052E+00
         -4   -1    0    0    0  501 -0.00000000000E+00  0.00000000000E+00  0.35546130926E+02  0.35568811111E+02  0.12700000000E+01 0.  1.
          4   -1    0    0  501    0  0.00000000000E+00 -0.00000000000E+00 -0.10985054191E+03  0.10985788300E+03  0.12700000000E+01 0.  1.
         25    2    1    2    0    0  0.00000000000E+00  0.00000000000E+00 -0.74304410979E+02  0.14542669411E+03  0.12501111098E+03 0.  0.
    9000005    1    3    3    0    0  0.15491414766E+01 -0.62465612876E+02 -0.38619930401E+02  0.73463267389E+02  0.10000000000E+01 0.  0.
    9000005    1    3    3    0    0 -0.15491414766E+01  0.62465612876E+02 -0.35684480579E+02  0.71963426721E+02  0.10000000000E+01 0.  0.
<mgrwt>
<rscale>  0 0.12501111E+03</rscale>
<asrwt>0</asrwt>
<pdfrwt beam="2">  1        4 0.16902392E-01 0.12501111E+03</pdfrwt>
<pdfrwt beam="1">  1       -4 0.54709449E-02 0.12501111E+03</pdfrwt>
<totfact> 0.10019819E+04</totfact>
</mgrwt>
</event>
<event>
 5    1  0.3516911E-002  0.1250022E+03  0.7818608E-02  0.1235066E+00
         -4   -1    0    0    0  501 -0.00000000000E+00  0.00000000000E+00  0.76274098334E+01  0.77324175241E+01  0.12700000000E+01 0. -1.
          4   -1    0    0  501    0  0.00000000000E+00 -0.00000000000E+00 -0.50854379481E+03  0.50854538061E+03  0.12700000000E+01 0. -1.
         25    2    1    2    0    0  0.00000000000E+00  0.00000000000E+00 -0.50091638498E+03  0.51627779814E+03  0.12500216041E+03 0.  0.
    9000005    1    3    3    0    0 -0.61837880073E+02  0.63569887111E+01 -0.22399610209E+03  0.23246416599E+03  0.10000000000E+01 0.  0.
    9000005    1    3    3    0    0  0.61837880073E+02 -0.63569887111E+01 -0.27692028289E+03  0.28381363215E+03  0.10000000000E+01 0.  0.
<mgrwt>
<rscale>  0 0.12500216E+03</rscale>
<asrwt>0</asrwt>
<pdfrwt beam="2">  1        4 0.78245680E-01 0.12500216E+03</pdfrwt>
<pdfrwt beam="1">  1       -4 0.11816476E-02 0.12500216E+03</pdfrwt>
<totfact> 0.54620582E+03</totfact>
</mgrwt>
</event>
<event>
 5    1  0.3516911E-002  0.1250040E+03  0.7818608E-02  0.1235063E+00
         -4   -1    0    0    0  501 -0.00000000000E+00  0.00000000000E+00  0.46758496750E+01  0.48452523343E+01  0.12700000000E+01 0. -1.
          4   -1    0    0  501    0  0.00000000000E+00 -0.00000000000E+00 -0.82042803305E+03  0.82042901601E+03  0.12700000000E+01 0. -1.
         25    2    1    2    0    0  0.00000000000E+00  0.00000000000E+00 -0.81575218337E+03  0.82527426835E+03  0.12500397319E+03 0.  0.
    9000005    1    3    3    0    0  0.45632008879E+01 -0.19423275461E+02 -0.16884090774E+02  0.26156432350E+02  0.10000000000E+01 0.  0.
    9000005    1    3    3    0    0 -0.45632008879E+01  0.19423275461E+02 -0.79886809260E+03  0.79911783600E+03  0.10000000000E+01 0.  0.
<mgrwt>
<rscale>  0 0.12500397E+03</rscale>
<asrwt>0</asrwt>
<pdfrwt beam="2">  1        4 0.12623269E+00 0.12500397E+03</pdfrwt>
<pdfrwt beam="1">  1       -4 0.73246873E-03 0.12500397E+03</pdfrwt>
<totfact> 0.37157817E+03</totfact>
</mgrwt>
</event>
<event>
 5    1  0.3516911E-002  0.1249963E+03  0.7818608E-02  0.1235075E+00
         -4   -1    0    0    0  501 -0.00000000000E+00  0.00000000000E+00  0.53732692298E+03  0.53732842383E+03  0.12700000000E+01 0. -1.
          4   -1    0    0  501    0  0.00000000000E+00 -0.00000000000E+00 -0.72123637425E+01  0.73233251160E+01  0.12700000000E+01 0. -1.
         25    2    1    2    0    0  0.00000000000E+00  0.00000000000E+00  0.53011455924E+03  0.54465174895E+03  0.12499632682E+03 0.  0.
    9000005    1    3    3    0    0 -0.36728266387E+02 -0.44523849613E+02  0.16069173413E+03  0.17074592866E+03  0.10000000000E+01 0.  0.
    9000005    1    3    3    0    0  0.36728266387E+02  0.44523849613E+02  0.36942282510E+03  0.37390582028E+03  0.10000000000E+01 0.  0.
<mgrwt>
<rscale>  0 0.12499633E+03</rscale>
<asrwt>0</asrwt>
<pdfrwt beam="2">  1        4 0.11182452E-02 0.12499633E+03</pdfrwt>
<pdfrwt beam="1">  1       -4 0.82674340E-01 0.12499633E+03</pdfrwt>
<totfact> 0.52563311E+03</totfact>
</mgrwt>
</event>
<event>
 5    1  0.3516911E-002  0.1249996E+03  0.7818608E-02  0.1235070E+00
         -4   -1    0    0    0  501 -0.00000000000E+00  0.00000000000E+00  0.62675012602E+03  0.62675141273E+03  0.12700000000E+01 0.  1.
          4   -1    0    0  501    0  0.00000000000E+00 -0.00000000000E+00 -0.61665017730E+01  0.62959228169E+01  0.12700000000E+01 0.  1.
         25    2    1    2    0    0  0.00000000000E+00  0.00000000000E+00  0.62058362424E+03  0.63304733555E+03  0.12499957747E+03 0.  0.
    9000005    1    3    3    0    0  0.26833993774E+01  0.61265025024E+02  0.37119518161E+03  0.37622794523E+03  0.10000000000E+01 0.  0.
    9000005    1    3    3    0    0 -0.26833993774E+01 -0.61265025024E+02  0.24938844263E+03  0.25681939032E+03  0.10000000000E+01 0.  0.
<mgrwt>
<rscale>  0 0.12499958E+03</rscale>
<asrwt>0</asrwt>
<pdfrwt beam="2">  1        4 0.95874697E-03 0.12499958E+03</pdfrwt>
<pdfrwt beam="1">  1       -4 0.96433156E-01 0.12499958E+03</pdfrwt>
<totfact> 0.46846306E+03</totfact>
</mgrwt>
</event>
<event>
 5    1  0.3516911E-002  0.1250007E+03  0.7818608E-02  0.1235068E+00
          4   -1    0    0  501    0  0.00000000000E+00  0.00000000000E+00  0.36514932709E+02  0.36537011519E+02  0.12700000000E+01 0.  1.
         -4   -1    0    0    0  501 -0.00000000000E+00 -0.00000000000E+00 -0.10691980248E+03  0.10692734479E+03  0.12700000000E+01 0.  1.
         25    2    1    2    0    0  0.00000000000E+00  0.00000000000E+00 -0.70404869776E+02  0.14346435631E+03  0.12500070337E+03 0.  0.
    9000005    1    3    3    0    0  0.95102948234E+01  0.68817666116E+01  0.35243767318E+02  0.37160833603E+02  0.10000000000E+01 0.  0.
    9000005    1    3    3    0    0 -0.95102948234E+01 -0.68817666116E+01 -0.10564863709E+03  0.10630352270E+03  0.10000000000E+01 0.  0.
<mgrwt>
<rscale>  0 0.12500070E+03</rscale>
<asrwt>0</asrwt>
<pdfrwt beam="1">  1        4 0.56199605E-02 0.12500070E+03</pdfrwt>
<pdfrwt beam="2">  1       -4 0.16451479E-01 0.12500070E+03</pdfrwt>
<totfact> 0.10062124E+04</totfact>
</mgrwt>
</event>
<event>
 5    1  0.3516911E-002  0.1249997E+03  0.7818608E-02  0.1235070E+00
         -4   -1    0    0    0  501 -0.00000000000E+00  0.00000000000E+00  0.44089895541E+03  0.44090078451E+03  0.12700000000E+01 0. -1.
          4   -1    0    0  501    0  0.00000000000E+00 -0.00000000000E+00 -0.88123258567E+01  0.89033694186E+01  0.12700000000E+01 0. -1.
         25    2    1    2    0    0  0.00000000000E+00  0.00000000000E+00  0.43208662956E+03  0.44980415393E+03  0.12499968581E+03 0.  0.
    9000005    1    3    3    0    0 -0.40688225247E+02 -0.22687227189E+02  0.66156707395E+02  0.80919415993E+02  0.10000000000E+01 0.  0.
    9000005    1    3    3    0    0  0.40688225247E+02  0.22687227189E+02  0.36592992216E+03  0.36888473794E+03  0.10000000000E+01 0.  0.
<mgrwt>
<rscale>  0 0.12499969E+03</rscale>
<asrwt>0</asrwt>
<pdfrwt beam="2">  1        4 0.13628861E-02 0.12499969E+03</pdfrwt>
<pdfrwt beam="1">  1       -4 0.67837770E-01 0.12499969E+03</pdfrwt>
<totfact> 0.59981168E+03</totfact>
</mgrwt>
</event>
<event>
 5    1  0.3516911E-002  0.1250007E+03  0.7818608E-02  0.1235068E+00
         -4   -1    0    0    0  501 -0.00000000000E+00  0.00000000000E+00  0.24772571694E+02  0.24805104481E+02  0.12700000000E+01 0.  1.
          4   -1    0    0  501    0  0.00000000000E+00 -0.00000000000E+00 -0.15754756141E+03  0.15755268010E+03  0.12700000000E+01 0.  1.
         25    2    1    2    0    0  0.00000000000E+00  0.00000000000E+00 -0.13277498972E+03  0.18235778458E+03  0.12500065481E+03 0.  0.
    9000005    1    3    3    0    0 -0.51818757059E+02 -0.13253174749E+02 -0.11353492997E+03  0.12550701394E+03  0.10000000000E+01 0.  0.
    9000005    1    3    3    0    0  0.51818757059E+02  0.13253174749E+02 -0.19240059753E+02  0.56850770649E+02  0.10000000000E+01 0.  0.
<mgrwt>
<rscale>  0 0.12500065E+03</rscale>
<asrwt>0</asrwt>
<pdfrwt beam="2">  1        4 0.24240982E-01 0.12500065E+03</pdfrwt>
<pdfrwt beam="1">  1       -4 0.38140612E-02 0.12500065E+03</pdfrwt>
<totfact> 0.93192940E+03</totfact>
</mgrwt>
</event>
<event>
 5    1  0.3516911E-002  0.1249994E+03  0.7818608E-02  0.1235070E+00
         -4   -1    0    0    0  501 -0.00000000000E+00  0.00000000000E+00  0.63325515095E+02  0.63338248807E+02  0.12700000000E+01 0.  1.
          4   -1    0    0  501    0  0.00000000000E+00 -0.00000000000E+00 -0.61659214968E+02  0.61672292729E+02  0.12700000000E+01 0.  1.
         25    2    1    2    0    0  0.00000000000E+00  0.00000000000E+00  0.16663001265E+01  0.12501054154E+03  0.12499943576E+03 0.  0.
    9000005    1    3    3    0    0 -0.37874090677E+02 -0.48413742160E+02 -0.10431844681E+02  0.62355116534E+02  0.10000000000E+01 0.  0.
    9000005    1    3    3    0    0  0.37874090677E+02  0.48413742160E+02  0.12098144808E+02  0.62655425003E+02  0.10000000000E+01 0.  0.
<mgrwt>
<rscale>  0 0.12499944E+03</rscale>
<asrwt>0</asrwt>
<pdfrwt beam="2">  1        4 0.94880186E-02 0.12499944E+03</pdfrwt>
<pdfrwt beam="1">  1       -4 0.97443724E-02 0.12499944E+03</pdfrwt>
<totfact> 0.10452767E+04</totfact>
</mgrwt>
</event>
<event>
 5    1  0.3516911E-002  0.1250021E+03  0.7818608E-02  0.1235066E+00
         -4   -1    0    0    0  501 -0.00000000000E+00  0.00000000000E+00  0.59786619314E+02  0.59800106597E+02  0.12700000000E+01 0.  1.
          4   -1    0    0  501    0  0.00000000000E+00 -0.00000000000E+00 -0.65311643067E+02  0.65323989621E+02  0.12700000000E+01 0.  1.
         25    2    1    2    0    0  0.00000000000E+00  0.00000000000E+00 -0.55250237528E+01  0.12512409622E+03  0.12500205425E+03 0.  0.
    9000005    1    3    3    0    0  0.54627987418E+02 -0.27460421422E+02 -0.15701331643E+02  0.63133379201E+02  0.10000000000E+01 0.  0.
    9000005    1    3    3    0    0 -0.54627987418E+02  0.27460421422E+02  0.10176307890E+02  0.61990717017E+02  0.10000000000E+01 0.  0.
<mgrwt>
<rscale>  0 0.12500205E+03</rscale>
<asrwt>0</asrwt>
<pdfrwt beam="2">  1        4 0.10049932E-01 0.12500205E+03</pdfrwt>
<pdfrwt beam="1">  1       -4 0.91999286E-02 0.12500205E+03</pdfrwt>
<totfact> 0.10449683E+04</totfact>
</mgrwt>
</event>
<event>
 5    1  0.3516911E-002  0.1250037E+03  0.7818608E-02  0.1235063E+00
          4   -1    0    0  501    0  0.00000000000E+00  0.00000000000E+00  0.79264585251E+02  0.79274758751E+02  0.12700000000E+01 0. -1.
         -4   -1    0    0    0  501 -0.00000000000E+00 -0.00000000000E+00 -0.49262562599E+02  0.49278930323E+02  0.12700000000E+01 0. -1.
         25    2    1    2    0    0  0.00000000000E+00  0.00000000000E+00  0.30002022653E+02  0.12855368907E+03  0.12500371839E+03 0.  0.
    9000005    1    3    3    0    0  0.54601271581E+02  0.49168667836E+00 -0.16258624722E+02  0.56981431114E+02  0.10000000000E+01 0.  0.
    9000005    1    3    3    0    0 -0.54601271581E+02 -0.49168667836E+00  0.46260647374E+02  0.71572257960E+02  0.10000000000E+01 0.  0.
<mgrwt>
<rscale>  0 0.12500372E+03</rscale>
<asrwt>0</asrwt>
<pdfrwt beam="1">  1        4 0.12196593E-01 0.12500372E+03</pdfrwt>
<pdfrwt beam="2">  1       -4 0.75808974E-02 0.12500372E+03</pdfrwt>
<totfact> 0.10374676E+04</totfact>
</mgrwt>
</event>
<event>
 5    1  0.3516911E-002  0.1250009E+03  0.7818608E-02  0.1235068E+00
          4   -1    0    0  501    0  0.00000000000E+00  0.00000000000E+00  0.69054465470E+03  0.69054582255E+03  0.12700000000E+01 0. -1.
         -4   -1    0    0    0  501 -0.00000000000E+00 -0.00000000000E+00 -0.55843769108E+01  0.57269682627E+01  0.12700000000E+01 0. -1.
         25    2    1    2    0    0  0.00000000000E+00  0.00000000000E+00  0.68496027779E+03  0.69627279081E+03  0.12500086828E+03 0.  0.
    9000005    1    3    3    0    0  0.48332973863E+02  0.35653926179E+02  0.43863983293E+03  0.44273375956E+03  0.10000000000E+01 0.  0.
    9000005    1    3    3    0    0 -0.48332973863E+02 -0.35653926179E+02  0.24632044486E+03  0.25353903125E+03  0.10000000000E+01 0.  0.
<mgrwt>
<rscale>  0 0.12500087E+03</rscale>
<asrwt>0</asrwt>
<pdfrwt beam="1">  1        4 0.10624863E+00 0.12500087E+03</pdfrwt>
<pdfrwt beam="2">  1       -4 0.87019389E-03 0.12500087E+03</pdfrwt>
<totfact> 0.43283375E+03</totfact>
</mgrwt>
</event>
<event>
 5    1  0.3516911E-002  0.1250001E+03  0.7818608E-02  0.1235069E+00
          4   -1    0    0  501    0  0.00000000000E+00  0.00000000000E+00  0.76450407604E+02  0.76460955544E+02  0.12700000000E+01 0.  1.
         -4   -1    0    0    0  501 -0.00000000000E+00 -0.00000000000E+00 -0.51073333645E+02  0.51089121246E+02  0.12700000000E+01 0.  1.
         25    2    1    2    0    0  0.00000000000E+00  0.00000000000E+00  0.25377073958E+02  0.12755007679E+03  0.12500010483E+03 0.  0.
    9000005    1    3    3    0    0  0.21176217245E+01  0.43224499966E+02  0.58690517004E+02  0.72927487995E+02  0.10000000000E+01 0.  0.
    9000005    1    3    3    0    0 -0.21176217245E+01 -0.43224499966E+02 -0.33313443046E+02  0.54622588795E+02  0.10000000000E+01 0.  0.
<mgrwt>
<rscale>  0 0.12500010E+03</rscale>
<asrwt>0</asrwt>
<pdfrwt beam="1">  1        4 0.11763627E-01 0.12500010E+03</pdfrwt>
<pdfrwt beam="2">  1       -4 0.78594618E-02 0.12500010E+03</pdfrwt>
<totfact> 0.10397192E+04</totfact>
</mgrwt>
</event>
<event>
 5    1  0.3516911E-002  0.1250002E+03  0.7818608E-02  0.1235069E+00
         -4   -1    0    0    0  501 -0.00000000000E+00  0.00000000000E+00  0.94612695072E+01  0.95461259518E+01  0.12700000000E+01 0.  1.
          4   -1    0    0  501    0  0.00000000000E+00 -0.00000000000E+00 -0.41093947395E+03  0.41094143640E+03  0.12700000000E+01 0.  1.
         25    2    1    2    0    0  0.00000000000E+00  0.00000000000E+00 -0.40147820445E+03  0.42048756236E+03  0.12500016580E+03 0.  0.
    9000005    1    3    3    0    0 -0.12168325029E+02  0.10299746592E+01  0.54249550460E+01  0.13399967129E+02  0.10000000000E+01 0.  0.
    9000005    1    3    3    0    0  0.12168325029E+02 -0.10299746592E+01 -0.40690315949E+03  0.40708759523E+03  0.10000000000E+01 0.  0.
<mgrwt>
<rscale>  0 0.12500017E+03</rscale>
<asrwt>0</asrwt>
<pdfrwt beam="2">  1        4 0.63228122E-01 0.12500017E+03</pdfrwt>
<pdfrwt beam="1">  1       -4 0.14622586E-02 0.12500017E+03</pdfrwt>
<totfact> 0.62607580E+03</totfact>
</mgrwt>
</event>
<event>
 5    1  0.3516911E-002  0.1250002E+03  0.7818608E-02  0.1235069E+00
         -4   -1    0    0    0  501 -0.00000000000E+00  0.00000000000E+00  0.14986615005E+01  0.19644048190E+01  0.12700000000E+01 0. -1.
          4   -1    0    0  501    0  0.00000000000E+00 -0.00000000000E+00 -0.22554914891E+04  0.22554918467E+04  0.12700000000E+01 0. -1.
         25    2    1    2    0    0  0.00000000000E+00  0.00000000000E+00 -0.22539928276E+04  0.22574562515E+04  0.12500024170E+03 0.  0.
    9000005    1    3    3    0    0  0.28786086761E+02  0.54760790493E+02 -0.96761876077E+03  0.96959499234E+03  0.10000000000E+01 0.  0.
    9000005    1    3    3    0    0 -0.28786086761E+02 -0.54760790493E+02 -0.12863740669E+04  0.12878612592E+04  0.10000000000E+01 0.  0.
<mgrwt>
<rscale>  0 0.12500024E+03</rscale>
<asrwt>0</asrwt>
<pdfrwt beam="2">  1        4 0.34703219E+00 0.12500024E+03</pdfrwt>
<pdfrwt beam="1">  1       -4 0.26641903E-03 0.12500024E+03</pdfrwt>
<totfact> 0.68640984E+02</totfact>
</mgrwt>
</event>
<event>
 5    1  0.3516911E-002  0.1250002E+03  0.7818608E-02  0.1235069E+00
         -4   -1    0    0    0  501 -0.00000000000E+00  0.00000000000E+00  0.41087495499E+01  0.43005491351E+01  0.12700000000E+01 0. -1.
          4   -1    0    0  501    0  0.00000000000E+00 -0.00000000000E+00 -0.92884163207E+03  0.92884250031E+03  0.12700000000E+01 0. -1.
         25    2    1    2    0    0  0.00000000000E+00  0.00000000000E+00 -0.92473288252E+03  0.93314304944E+03  0.12500018679E+03 0.  0.
    9000005    1    3    3    0    0  0.14557743416E+02  0.49763155552E+02 -0.20194538527E+03  0.20849757355E+03  0.10000000000E+01 0.  0.
    9000005    1    3    3    0    0 -0.14557743416E+02 -0.49763155552E+02 -0.72278749725E+03  0.72464547589E+03  0.10000000000E+01 0.  0.
<mgrwt>
<rscale>  0 0.12500019E+03</rscale>
<asrwt>0</asrwt>
<pdfrwt beam="2">  1        4 0.14291337E+00 0.12500019E+03</pdfrwt>
<pdfrwt beam="1">  1       -4 0.64693666E-03 0.12500019E+03</pdfrwt>
<totfact> 0.32922026E+03</totfact>
</mgrwt>
</event>
<event>
 5    1  0.3516911E-002  0.1250304E+03  0.7818608E-02  0.1235022E+00
          4   -1    0    0  501    0  0.00000000000E+00  0.00000000000E+00  0.70475755336E+02  0.70487197350E+02  0.12700000000E+01 0.  1.
         -4   -1    0    0    0  501 -0.00000000000E+00 -0.00000000000E+00 -0.55430602918E+02  0.55445149831E+02  0.12700000000E+01 0.  1.
         25    2    1    2    0    0  0.00000000000E+00  0.00000000000E+00  0.15045152418E+02  0.12593234718E+03  0.12503039413E+03 0.  0.
    9000005    1    3    3    0    0 -0.34056461805E+01  0.27686016073E+02 -0.48818738172E+02  0.56235070095E+02  0.10000000000E+01 0.  0.
    9000005    1    3    3    0    0  0.34056461805E+01 -0.27686016073E+02  0.63863890590E+02  0.69697277086E+02  0.10000000000E+01 0.  0.
<mgrwt>
<rscale>  0 0.12503039E+03</rscale>
<asrwt>0</asrwt>
<pdfrwt beam="1">  1        4 0.10844423E-01 0.12503039E+03</pdfrwt>
<pdfrwt beam="2">  1       -4 0.85297842E-02 0.12503039E+03</pdfrwt>
<totfact> 0.10425288E+04</totfact>
</mgrwt>
</event>
<event>
 5    1  0.3516911E-002  0.1250033E+03  0.7818608E-02  0.1235064E+00
         -4   -1    0    0    0  501 -0.00000000000E+00  0.00000000000E+00  0.35747590759E+02  0.35770143207E+02  0.12700000000E+01 0. -1.
          4   -1    0    0  501    0  0.00000000000E+00 -0.00000000000E+00 -0.10921809493E+03  0.10922547853E+03  0.12700000000E+01 0. -1.
         25    2    1    2    0    0  0.00000000000E+00  0.00000000000E+00 -0.73470504168E+02  0.14499562173E+03  0.12500326131E+03 0.  0.
    9000005    1    3    3    0    0  0.26583017763E+02  0.56545861530E+02 -0.35381282179E+02  0.71811742899E+02  0.10000000000E+01 0.  0.
    9000005    1    3    3    0    0 -0.26583017763E+02 -0.56545861530E+02 -0.38089221989E+02  0.73183878835E+02  0.10000000000E+01 0.  0.
<mgrwt>
<rscale>  0 0.12500326E+03</rscale>
<asrwt>0</asrwt>
<pdfrwt beam="2">  1        4 0.16805086E-01 0.12500326E+03</pdfrwt>
<pdfrwt beam="1">  1       -4 0.55019322E-02 0.12500326E+03</pdfrwt>
<totfact> 0.10030341E+04</totfact>
</mgrwt>
</event>
<event>
 5    1  0.3516911E-002  0.1250000E+03  0.7818608E-02  0.1235069E+00
          4   -1    0    0  501    0  0.00000000000E+00  0.00000000000E+00  0.25478308584E+03  0.25478625106E+03  0.12700000000E+01 0.  1.
         -4   -1    0    0    0  501 -0.00000000000E+00 -0.00000000000E+00 -0.15302107091E+02  0.15354718539E+02  0.12700000000E+01 0.  1.
         25    2    1    2    0    0  0.00000000000E+00  0.00000000000E+00  0.23948097875E+03  0.27014096960E+03  0.12500001710E+03 0.  0.
    9000005    1    3    3    0    0 -0.40329242364E+02  0.43633232653E+02  0.16158743381E+03  0.17216795737E+03  0.10000000000E+01 0.  0.
    9000005    1    3    3    0    0  0.40329242364E+02 -0.43633232653E+02  0.77893544938E+02  0.97973012224E+02  0.10000000000E+01 0.  0.
<mgrwt>
<rscale>  0 0.12500002E+03</rscale>
<asrwt>0</asrwt>
<pdfrwt beam="1">  1        4 0.39201686E-01 0.12500002E+03</pdfrwt>
<pdfrwt beam="2">  1       -4 0.23584610E-02 0.12500002E+03</pdfrwt>
<totfact> 0.79503622E+03</totfact>
</mgrwt>
</event>
<event>
 5    1  0.3516911E-002  0.1250372E+03  0.7818608E-02  0.1235011E+00
          4   -1    0    0  501    0  0.00000000000E+00  0.00000000000E+00  0.55866003566E+03  0.55866147920E+03  0.12700000000E+01 0. -1.
         -4   -1    0    0    0  501 -0.00000000000E+00 -0.00000000000E+00 -0.69372458152E+01  0.70525370967E+01  0.12700000000E+01 0. -1.
         25    2    1    2    0    0  0.00000000000E+00  0.00000000000E+00  0.55172278984E+03  0.56571401630E+03  0.12503724006E+03 0.  0.
    9000005    1    3    3    0    0  0.49674654374E+02 -0.12797498684E+02  0.43749145534E+03  0.44048963751E+03  0.10000000000E+01 0.  0.
    9000005    1    3    3    0    0 -0.49674654374E+02  0.12797498684E+02  0.11423133450E+03  0.12522437879E+03  0.10000000000E+01 0.  0.
<mgrwt>
<rscale>  0 0.12503724E+03</rscale>
<asrwt>0</asrwt>
<pdfrwt beam="1">  1        4 0.85956723E-01 0.12503724E+03</pdfrwt>
<pdfrwt beam="2">  1       -4 0.10762476E-02 0.12503724E+03</pdfrwt>
<totfact> 0.51064153E+03</totfact>
</mgrwt>
</event>
<event>
 5    1  0.3516911E-002  0.1250009E+03  0.7818608E-02  0.1235068E+00
          4   -1    0    0  501    0  0.00000000000E+00  0.00000000000E+00  0.20826416919E+03  0.20826804140E+03  0.12700000000E+01 0.  1.
         -4   -1    0    0    0  501 -0.00000000000E+00 -0.00000000000E+00 -0.18730960692E+02  0.18773965709E+02  0.12700000000E+01 0.  1.
         25    2    1    2    0    0  0.00000000000E+00  0.00000000000E+00  0.18953320850E+03  0.22704200711E+03  0.12500094347E+03 0.  0.
    9000005    1    3    3    0    0 -0.39032068913E+01  0.11586214229E+02 -0.16546449397E+02  0.20597581699E+02  0.10000000000E+01 0.  0.
    9000005    1    3    3    0    0  0.39032068913E+01 -0.11586214229E+02  0.20607965790E+03  0.20644442541E+03  0.10000000000E+01 0.  0.
<mgrwt>
<rscale>  0 0.12500094E+03</rscale>
<asrwt>0</asrwt>
<pdfrwt beam="1">  1        4 0.32044247E-01 0.12500094E+03</pdfrwt>
<pdfrwt beam="2">  1       -4 0.28852922E-02 0.12500094E+03</pdfrwt>
<totfact> 0.85764072E+03</totfact>
</mgrwt>
</event>
<event>
 5    1  0.3516911E-002  0.1249993E+03  0.7818608E-02  0.1235070E+00
          4   -1    0    0  501    0  0.00000000000E+00  0.00000000000E+00  0.75933854171E+01  0.76988571939E+01  0.12700000000E+01 0.  1.
         -4   -1    0    0    0  501 -0.00000000000E+00 -0.00000000000E+00 -0.51076816700E+03  0.51076974589E+03  0.12700000000E+01 0.  1.
         25    2    1    2    0    0  0.00000000000E+00  0.00000000000E+00 -0.50317478158E+03  0.51846860309E+03  0.12499932627E+03 0.  0.
    9000005    1    3    3    0    0  0.39709239245E+02 -0.33560933425E+02 -0.10778182762E+03  0.11967072448E+03  0.10000000000E+01 0.  0.
    9000005    1    3    3    0    0 -0.39709239245E+02  0.33560933425E+02 -0.39539295397E+03  0.39879787861E+03  0.10000000000E+01 0.  0.
<mgrwt>
<rscale>  0 0.12499933E+03</rscale>
<asrwt>0</asrwt>
<pdfrwt beam="1">  1        4 0.11764482E-02 0.12499933E+03</pdfrwt>
<pdfrwt beam="2">  1       -4 0.78587926E-01 0.12499933E+03</pdfrwt>
<totfact> 0.54460190E+03</totfact>
</mgrwt>
</event>
<event>
 5    1  0.3516911E-002  0.1249968E+03  0.7818608E-02  0.1235074E+00
          4   -1    0    0  501    0  0.00000000000E+00  0.00000000000E+00  0.96812787488E+01  0.97642233799E+01  0.12700000000E+01 0. -1.
         -4   -1    0    0    0  501 -0.00000000000E+00 -0.00000000000E+00 -0.40165943827E+03  0.40166144606E+03  0.12700000000E+01 0. -1.
         25    2    1    2    0    0  0.00000000000E+00  0.00000000000E+00 -0.39197815952E+03  0.41142566944E+03  0.12499681569E+03 0.  0.
    9000005    1    3    3    0    0 -0.56490082895E+02  0.14089857525E+01 -0.10816512362E+03  0.12204019286E+03  0.10000000000E+01 0.  0.
    9000005    1    3    3    0    0  0.56490082895E+02 -0.14089857525E+01 -0.28381303590E+03  0.28938547657E+03  0.10000000000E+01 0.  0.
<mgrwt>
<rscale>  0 0.12499682E+03</rscale>
<asrwt>0</asrwt>
<pdfrwt beam="1">  1        4 0.14959626E-02 0.12499682E+03</pdfrwt>
<pdfrwt beam="2">  1       -4 0.61800282E-01 0.12499682E+03</pdfrwt>
<totfact> 0.63460973E+03</totfact>
</mgrwt>
</event>
<event>
 5    1  0.3516911E-002  0.1250002E+03  0.7818608E-02  0.1235069E+00
         -4   -1    0    0    0  501 -0.00000000000E+00  0.00000000000E+00  0.38681950970E+03  0.38682159452E+03  0.12700000000E+01 0. -1.
          4   -1    0    0  501    0  0.00000000000E+00 -0.00000000000E+00 -0.10056364544E+02  0.10136240321E+02  0.12700000000E+01 0. -1.
         25    2    1    2    0    0  0.00000000000E+00  0.00000000000E+00  0.37676314515E+03  0.39695783484E+03  0.12500022037E+03 0.  0.
    9000005    1    3    3    0    0 -0.25313393785E+02  0.54563317620E+02  0.24221249519E+03  0.24957126510E+03  0.10000000000E+01 0.  0.
    9000005    1    3    3    0    0  0.25313393785E+02 -0.54563317620E+02  0.13455064996E+03  0.14738656974E+03  0.10000000000E+01 0.  0.
<mgrwt>
<rscale>  0 0.12500022E+03</rscale>
<asrwt>0</asrwt>
<pdfrwt beam="2">  1        4 0.15534377E-02 0.12500022E+03</pdfrwt>
<pdfrwt beam="1">  1       -4 0.59516996E-01 0.12500022E+03</pdfrwt>
<totfact> 0.64849430E+03</totfact>
</mgrwt>
</event>
<event>
 5    1  0.3516911E-002  0.1250040E+03  0.7818608E-02  0.1235063E+00
          4   -1    0    0  501    0  0.00000000000E+00  0.00000000000E+00  0.70296572571E+03  0.70296687292E+03  0.12700000000E+01 0.  1.
         -4   -1    0    0    0  501 -0.00000000000E+00 -0.00000000000E+00 -0.54834448471E+01  0.56285937312E+01  0.12700000000E+01 0.  1.
         25    2    1    2    0    0  0.00000000000E+00  0.00000000000E+00  0.69748228086E+03  0.70859546665E+03  0.12500401290E+03 0.  0.
    9000005    1    3    3    0    0 -0.54390670769E+02 -0.11937386545E+02  0.50953858744E+03  0.51257332974E+03  0.10000000000E+01 0.  0.
    9000005    1    3    3    0    0  0.54390670769E+02  0.11937386545E+02  0.18794369342E+03  0.19602213692E+03  0.10000000000E+01 0.  0.
<mgrwt>
<rscale>  0 0.12500401E+03</rscale>
<asrwt>0</asrwt>
<pdfrwt beam="1">  1        4 0.10815980E+00 0.12500401E+03</pdfrwt>
<pdfrwt beam="2">  1       -4 0.85486068E-03 0.12500401E+03</pdfrwt>
<totfact> 0.42633089E+03</totfact>
</mgrwt>
</event>
<event>
 5    1  0.3516911E-002  0.1249990E+03  0.7818608E-02  0.1235071E+00
         -4   -1    0    0    0  501 -0.00000000000E+00  0.00000000000E+00  0.15196394860E+02  0.15249371028E+02  0.12700000000E+01 0.  1.
          4   -1    0    0  501    0  0.00000000000E+00 -0.00000000000E+00 -0.25654496689E+03  0.25654811037E+03  0.12700000000E+01 0.  1.
         25    2    1    2    0    0  0.00000000000E+00  0.00000000000E+00 -0.24134857203E+03  0.27179748140E+03  0.12499895070E+03 0.  0.
    9000005    1    3    3    0    0  0.91699535570E+01  0.42102577533E+02 -0.22260986133E+02  0.48510479144E+02  0.10000000000E+01 0.  0.
    9000005    1    3    3    0    0 -0.91699535570E+01 -0.42102577533E+02 -0.21908758590E+03  0.22328700226E+03  0.10000000000E+01 0.  0.
<mgrwt>
<rscale>  0 0.12499895E+03</rscale>
<asrwt>0</asrwt>
<pdfrwt beam="2">  1        4 0.39472770E-01 0.12499895E+03</pdfrwt>
<pdfrwt beam="1">  1       -4 0.23422240E-02 0.12499895E+03</pdfrwt>
<totfact> 0.79280275E+03</totfact>
</mgrwt>
</event>
<event>
 5    1  0.3516911E-002  0.1249997E+03  0.7818608E-02  0.1235070E+00
         -4   -1    0    0    0  501 -0.00000000000E+00  0.00000000000E+00  0.25922558463E+02  0.25953649788E+02  0.12700000000E+01 0.  1.
          4   -1    0    0  501    0  0.00000000000E+00 -0.00000000000E+00 -0.15056446407E+03  0.15056982015E+03  0.12700000000E+01 0.  1.
         25    2    1    2    0    0  0.00000000000E+00  0.00000000000E+00 -0.12464190561E+03  0.17652346994E+03  0.12499972322E+03 0.  0.
    9000005    1    3    3    0    0 -0.42180391875E+02 -0.45257211634E+02 -0.74779649278E+02  0.97058727633E+02  0.10000000000E+01 0.  0.
    9000005    1    3    3    0    0  0.42180391875E+02  0.45257211634E+02 -0.49862256328E+02  0.79464742306E+02  0.10000000000E+01 0.  0.
<mgrwt>
<rscale>  0 0.12499972E+03</rscale>
<asrwt>0</asrwt>
<pdfrwt beam="2">  1        4 0.23166567E-01 0.12499972E+03</pdfrwt>
<pdfrwt beam="1">  1       -4 0.39908897E-02 0.12499972E+03</pdfrwt>
<totfact> 0.94247145E+03</totfact>
</mgrwt>
</event>
<event>
 5    1  0.3516911E-002  0.1250062E+03  0.7818608E-02  0.1235060E+00
         -4   -1    0    0    0  501 -0.00000000000E+00  0.00000000000E+00  0.17873371692E+03  0.17873822889E+03  0.12700000000E+01 0.  1.
          4   -1    0    0  501    0  0.00000000000E+00 -0.00000000000E+00 -0.21834048491E+02  0.21870952734E+02  0.12700000000E+01 0.  1.
         25    2    1    2    0    0  0.00000000000E+00  0.00000000000E+00  0.15689966843E+03  0.20060918162E+03  0.12500615103E+03 0.  0.
    9000005    1    3    3    0    0 -0.24901823191E+02  0.32939599412E+02  0.15373020193E+03  0.15918257754E+03  0.10000000000E+01 0.  0.
    9000005    1    3    3    0    0  0.24901823191E+02 -0.32939599412E+02  0.31694665049E+01  0.41426604080E+02  0.10000000000E+01 0.  0.
<mgrwt>
<rscale>  0 0.12500615E+03</rscale>
<asrwt>0</asrwt>
<pdfrwt beam="2">  1        4 0.33622702E-02 0.12500615E+03</pdfrwt>
<pdfrwt beam="1">  1       -4 0.27500681E-01 0.12500615E+03</pdfrwt>
<totfact> 0.90020473E+03</totfact>
</mgrwt>
</event>
<event>
 5    1  0.3516911E-002  0.1250004E+03  0.7818608E-02  0.1235069E+00
          4   -1    0    0  501    0  0.00000000000E+00  0.00000000000E+00  0.17132755483E+03  0.17133226183E+03  0.12700000000E+01 0.  1.
         -4   -1    0    0    0  501 -0.00000000000E+00 -0.00000000000E+00 -0.22777320873E+02  0.22812699230E+02  0.12700000000E+01 0.  1.
         25    2    1    2    0    0  0.00000000000E+00  0.00000000000E+00  0.14855023395E+03  0.19414496106E+03  0.12500037559E+03 0.  0.
    9000005    1    3    3    0    0 -0.15071659847E+02 -0.47345123307E+02  0.13314272154E+03  0.14211509396E+03  0.10000000000E+01 0.  0.
    9000005    1    3    3    0    0  0.15071659847E+02  0.47345123307E+02  0.15407512411E+02  0.52029867097E+02  0.10000000000E+01 0.  0.
<mgrwt>
<rscale>  0 0.12500038E+03</rscale>
<asrwt>0</asrwt>
<pdfrwt beam="1">  1        4 0.26361168E-01 0.12500038E+03</pdfrwt>
<pdfrwt beam="2">  1       -4 0.35072868E-02 0.12500038E+03</pdfrwt>
<totfact> 0.91130299E+03</totfact>
</mgrwt>
</event>
<event>
 5    1  0.3516911E-002  0.1250115E+03  0.7818608E-02  0.1235051E+00
         -4   -1    0    0    0  501 -0.00000000000E+00  0.00000000000E+00  0.11411422587E+03  0.11412129269E+03  0.12700000000E+01 0.  1.
          4   -1    0    0  501    0  0.00000000000E+00 -0.00000000000E+00 -0.34217437789E+02  0.34240998070E+02  0.12700000000E+01 0.  1.
         25    2    1    2    0    0  0.00000000000E+00  0.00000000000E+00  0.79896788081E+02  0.14836229076E+03  0.12501148977E+03 0.  0.
    9000005    1    3    3    0    0  0.50313036184E+02  0.92819043953E+01  0.82547561585E+02  0.97121857905E+02  0.10000000000E+01 0.  0.
    9000005    1    3    3    0    0 -0.50313036184E+02 -0.92819043953E+01 -0.26507735043E+01  0.51240432857E+02  0.10000000000E+01 0.  0.
<mgrwt>
<rscale>  0 0.12501149E+03</rscale>
<asrwt>0</asrwt>
<pdfrwt beam="2">  1        4 0.52665772E-02 0.12501149E+03</pdfrwt>
<pdfrwt beam="1">  1       -4 0.17558391E-01 0.12501149E+03</pdfrwt>
<totfact> 0.99605394E+03</totfact>
</mgrwt>
</event>
<event>
 5    1  0.3516911E-002  0.1250004E+03  0.7818608E-02  0.1235069E+00
          4   -1    0    0  501    0  0.00000000000E+00  0.00000000000E+00  0.94954749833E+02  0.94963242446E+02  0.12700000000E+01 0. -1.
         -4   -1    0    0    0  501 -0.00000000000E+00 -0.00000000000E+00 -0.41118123008E+02  0.41137731339E+02  0.12700000000E+01 0. -1.
         25    2    1    2    0    0  0.00000000000E+00  0.00000000000E+00  0.53836626825E+02  0.13610097378E+03  0.12500037071E+03 0.  0.
    9000005    1    3    3    0    0  0.35639878179E+02  0.32597790429E+02  0.70093997325E+02  0.85129227169E+02  0.10000000000E+01 0.  0.
    9000005    1    3    3    0    0 -0.35639878179E+02 -0.32597790429E+02 -0.16257370499E+02  0.50971746615E+02  0.10000000000E+01 0.  0.
<mgrwt>
<rscale>  0 0.12500037E+03</rscale>
<asrwt>0</asrwt>
<pdfrwt beam="1">  1        4 0.14610585E-01 0.12500037E+03</pdfrwt>
<pdfrwt beam="2">  1       -4 0.63280267E-02 0.12500037E+03</pdfrwt>
<totfact> 0.10214832E+04</totfact>
</mgrwt>
</event>
<event>
 5    1  0.3516911E-002  0.1249954E+03  0.7818608E-02  0.1235076E+00
         -4   -1    0    0    0  501 -0.00000000000E+00  0.00000000000E+00  0.35712305250E+03  0.35712531068E+03  0.12700000000E+01 0.  1.
          4   -1    0    0  501    0  0.00000000000E+00 -0.00000000000E+00 -0.10898137265E+02  0.10971886613E+02  0.12700000000E+01 0.  1.
         25    2    1    2    0    0  0.00000000000E+00  0.00000000000E+00  0.34622491524E+03  0.36809719729E+03  0.12499541881E+03 0.  0.
    9000005    1    3    3    0    0 -0.14968890454E+01  0.45750333098E+02  0.29838714033E+03  0.30187947788E+03  0.10000000000E+01 0.  0.
    9000005    1    3    3    0    0  0.14968890454E+01 -0.45750333098E+02  0.47837774912E+02  0.66217719411E+02  0.10000000000E+01 0.  0.
<mgrwt>
<rscale>  0 0.12499542E+03</rscale>
<asrwt>0</asrwt>
<pdfrwt beam="2">  1        4 0.16824832E-02 0.12499542E+03</pdfrwt>
<pdfrwt beam="1">  1       -4 0.54947856E-01 0.12499542E+03</pdfrwt>
<totfact> 0.67785340E+03</totfact>
</mgrwt>
</event>
<event>
 5    1  0.3516911E-002  0.1249992E+03  0.7818608E-02  0.1235071E+00
          4   -1    0    0  501    0  0.00000000000E+00  0.00000000000E+00  0.65556050461E+03  0.65556173478E+03  0.12700000000E+01 0.  1.
         -4   -1    0    0    0  501 -0.00000000000E+00 -0.00000000000E+00 -0.58896445635E+01  0.60250156086E+01  0.12700000000E+01 0.  1.
         25    2    1    2    0    0  0.00000000000E+00  0.00000000000E+00  0.64967086005E+03  0.66158675039E+03  0.12499920757E+03 0.  0.
    9000005    1    3    3    0    0 -0.31933850337E+02  0.51016265343E+02  0.41383675480E+03  0.41819169020E+03  0.10000000000E+01 0.  0.
    9000005    1    3    3    0    0  0.31933850337E+02 -0.51016265343E+02  0.23583410525E+03  0.24339506019E+03  0.10000000000E+01 0.  0.
<mgrwt>
<rscale>  0 0.12499921E+03</rscale>
<asrwt>0</asrwt>
<pdfrwt beam="1">  1        4 0.10086595E+00 0.12499921E+03</pdfrwt>
<pdfrwt beam="2">  1       -4 0.91660715E-03 0.12499921E+03</pdfrwt>
<totfact> 0.45194188E+03</totfact>
</mgrwt>
</event>
<event>
 5    1  0.3516911E-002  0.1250033E+03  0.7818608E-02  0.1235064E+00
          4   -1    0    0  501    0  0.00000000000E+00  0.00000000000E+00  0.14208014972E+02  0.14264662262E+02  0.12700000000E+01 0.  1.
         -4   -1    0    0    0  501 -0.00000000000E+00 -0.00000000000E+00 -0.27434218056E+03  0.27434512012E+03  0.12700000000E+01 0.  1.
         25    2    1    2    0    0  0.00000000000E+00  0.00000000000E+00 -0.26013416559E+03  0.28860978238E+03  0.12500328948E+03 0.  0.
    9000005    1    3    3    0    0  0.36979494134E+02  0.50340424208E+02 -0.13457625679E+03  0.14836916859E+03  0.10000000000E+01 0.  0.
    9000005    1    3    3    0    0 -0.36979494134E+02 -0.50340424208E+02 -0.12555790879E+03  0.14024061379E+03  0.10000000000E+01 0.  0.
<mgrwt>
<rscale>  0 0.12500329E+03</rscale>
<asrwt>0</asrwt>
<pdfrwt beam="1">  1        4 0.21904323E-02 0.12500329E+03</pdfrwt>
<pdfrwt beam="2">  1       -4 0.42211069E-01 0.12500329E+03</pdfrwt>
<totfact> 0.77044558E+03</totfact>
</mgrwt>
</event>
<event>
 5    1  0.3516911E-002  0.1250002E+03  0.7818608E-02  0.1235069E+00
         -4   -1    0    0    0  501 -0.00000000000E+00  0.00000000000E+00  0.12199964769E+02  0.12265889302E+02  0.12700000000E+01 0. -1.
          4   -1    0    0  501    0  0.00000000000E+00 -0.00000000000E+00 -0.31925662936E+03  0.31925915538E+03  0.12700000000E+01 0. -1.
         25    2    1    2    0    0  0.00000000000E+00  0.00000000000E+00 -0.30705666459E+03  0.33152504468E+03  0.12500023991E+03 0.  0.
    9000005    1    3    3    0    0 -0.25161504999E+02 -0.33415810982E+02 -0.27666411292E+03  0.27981020199E+03  0.10000000000E+01 0.  0.
    9000005    1    3    3    0    0  0.25161504999E+02  0.33415810982E+02 -0.30392551671E+02  0.51714842690E+02  0.10000000000E+01 0.  0.
<mgrwt>
<rscale>  0 0.12500024E+03</rscale>
<asrwt>0</asrwt>
<pdfrwt beam="2">  1        4 0.49121664E-01 0.12500024E+03</pdfrwt>
<pdfrwt beam="1">  1       -4 0.18821833E-02 0.12500024E+03</pdfrwt>
<totfact> 0.71805642E+03</totfact>
</mgrwt>
</event>
<event>
 5    1  0.3516911E-002  0.1249991E+03  0.7818608E-02  0.1235071E+00
         -4   -1    0    0    0  501 -0.00000000000E+00  0.00000000000E+00  0.11943351005E+02  0.12010684128E+02  0.12700000000E+01 0. -1.
          4   -1    0    0  501    0  0.00000000000E+00 -0.00000000000E+00 -0.32607200330E+03  0.32607447651E+03  0.12700000000E+01 0. -1.
         25    2    1    2    0    0  0.00000000000E+00  0.00000000000E+00 -0.31412865229E+03  0.33808516064E+03  0.12499906262E+03 0.  0.
    9000005    1    3    3    0    0  0.56651453342E+02 -0.66461142279E+01 -0.88021108057E+02  0.10489172257E+03  0.10000000000E+01 0.  0.
    9000005    1    3    3    0    0 -0.56651453342E+02  0.66461142279E+01 -0.22610754423E+03  0.23319343807E+03  0.10000000000E+01 0.  0.
<mgrwt>
<rscale>  0 0.12499906E+03</rscale>
<asrwt>0</asrwt>
<pdfrwt beam="2">  1        4 0.50170287E-01 0.12499906E+03</pdfrwt>
<pdfrwt beam="1">  1       -4 0.18428086E-02 0.12499906E+03</pdfrwt>
<totfact> 0.71057013E+03</totfact>
</mgrwt>
</event>
<event>
 5    1  0.3516911E-002  0.1250027E+03  0.7818608E-02  0.1235065E+00
         -4   -1    0    0    0  501 -0.00000000000E+00  0.00000000000E+00  0.29709159217E+02  0.29736291655E+02  0.12700000000E+01 0.  1.
          4   -1    0    0  501    0  0.00000000000E+00 -0.00000000000E+00 -0.13139838853E+03  0.13140452582E+03  0.12700000000E+01 0.  1.
         25    2    1    2    0    0  0.00000000000E+00  0.00000000000E+00 -0.10168922931E+03  0.16114081748E+03  0.12500265477E+03 0.  0.
    9000005    1    3    3    0    0  0.74084438598E+01  0.53910209193E+02 -0.11232960706E+02  0.55573150909E+02  0.10000000000E+01 0.  0.
    9000005    1    3    3    0    0 -0.74084438598E+01 -0.53910209193E+02 -0.90456268602E+02  0.10556766657E+03  0.10000000000E+01 0.  0.
<mgrwt>
<rscale>  0 0.12500265E+03</rscale>
<asrwt>0</asrwt>
<pdfrwt beam="2">  1        4 0.20217696E-01 0.12500265E+03</pdfrwt>
<pdfrwt beam="1">  1       -4 0.45731992E-02 0.12500265E+03</pdfrwt>
<totfact> 0.97117500E+03</totfact>
</mgrwt>
</event>
<event>
 5    1  0.3516911E-002  0.1250121E+03  0.7818608E-02  0.1235050E+00
         -4   -1    0    0    0  501 -0.00000000000E+00  0.00000000000E+00  0.11871218459E+03  0.11871897771E+03  0.12700000000E+01 0.  1.
          4   -1    0    0  501    0  0.00000000000E+00 -0.00000000000E+00 -0.32891577547E+02  0.32916086850E+02  0.12700000000E+01 0.  1.
         25    2    1    2    0    0  0.00000000000E+00  0.00000000000E+00  0.85820607039E+02  0.15163506456E+03  0.12501206427E+03 0.  0.
    9000005    1    3    3    0    0  0.54468653439E+02 -0.30592225127E+02  0.40711656312E+02  0.74573168132E+02  0.10000000000E+01 0.  0.
    9000005    1    3    3    0    0 -0.54468653439E+02  0.30592225127E+02  0.45108950727E+02  0.77061896430E+02  0.10000000000E+01 0.  0.
<mgrwt>
<rscale>  0 0.12501206E+03</rscale>
<asrwt>0</asrwt>
<pdfrwt beam="2">  1        4 0.50626505E-02 0.12501206E+03</pdfrwt>
<pdfrwt beam="1">  1       -4 0.18265821E-01 0.12501206E+03</pdfrwt>
<totfact> 0.98951901E+03</totfact>
</mgrwt>
</event>
<event>
 5    1  0.3516911E-002  0.1250021E+03  0.7818608E-02  0.1235066E+00
          4   -1    0    0  501    0  0.00000000000E+00  0.00000000000E+00  0.44858277593E+03  0.44858457370E+03  0.12700000000E+01 0.  1.
         -4   -1    0    0    0  501 -0.00000000000E+00 -0.00000000000E+00 -0.86601388351E+01  0.87527655425E+01  0.12700000000E+01 0.  1.
         25    2    1    2    0    0  0.00000000000E+00  0.00000000000E+00  0.43992263709E+03  0.45733733924E+03  0.12500206093E+03 0.  0.
    9000005    1    3    3    0    0 -0.55544715540E+02  0.19318748145E+02  0.14261339760E+03  0.15426603848E+03  0.10000000000E+01 0.  0.
    9000005    1    3    3    0    0  0.55544715540E+02 -0.19318748145E+02  0.29730923949E+03  0.30307130076E+03  0.10000000000E+01 0.  0.
<mgrwt>
<rscale>  0 0.12500206E+03</rscale>
<asrwt>0</asrwt>
<pdfrwt beam="1">  1        4 0.69020004E-01 0.12500206E+03</pdfrwt>
<pdfrwt beam="2">  1       -4 0.13395924E-02 0.12500206E+03</pdfrwt>
<totfact> 0.59330693E+03</totfact>
</mgrwt>
</event>
<event>
 5    1  0.3516911E-002  0.1249991E+03  0.7818608E-02  0.1235071E+00
         -4   -1    0    0    0  501 -0.00000000000E+00  0.00000000000E+00  0.18071350626E+03  0.18071796880E+03  0.12700000000E+01 0.  1.
          4   -1    0    0  501    0  0.00000000000E+00 -0.00000000000E+00 -0.21591999491E+02  0.21629316726E+02  0.12700000000E+01 0.  1.
         25    2    1    2    0    0  0.00000000000E+00  0.00000000000E+00  0.15912150677E+03  0.20234728552E+03  0.12499908016E+03 0.  0.
    9000005    1    3    3    0    0 -0.81355777932E+01 -0.51624811544E+02  0.13502372120E+03  0.14478851501E+03  0.10000000000E+01 0.  0.
    9000005    1    3    3    0    0  0.81355777932E+01  0.51624811544E+02  0.24097785572E+02  0.57558770509E+02  0.10000000000E+01 0.  0.
<mgrwt>
<rscale>  0 0.12499908E+03</rscale>
<asrwt>0</asrwt>
<pdfrwt beam="2">  1        4 0.33250599E-02 0.12499908E+03</pdfrwt>
<pdfrwt beam="1">  1       -4 0.27805292E-01 0.12499908E+03</pdfrwt>
<totfact> 0.89742968E+03</totfact>
</mgrwt>
</event>
<event>
 5    1  0.3516911E-002  0.1249932E+03  0.7818608E-02  0.1235080E+00
          4   -1    0    0  501    0  0.00000000000E+00  0.00000000000E+00  0.84361358694E+02  0.84370917624E+02  0.12700000000E+01 0.  1.
         -4   -1    0    0    0  501 -0.00000000000E+00 -0.00000000000E+00 -0.46277884479E+02  0.46295307449E+02  0.12700000000E+01 0.  1.
         25    2    1    2    0    0  0.00000000000E+00  0.00000000000E+00  0.38083474216E+02  0.13066622507E+03  0.12499324528E+03 0.  0.
    9000005    1    3    3    0    0 -0.60343050031E+02  0.14312079990E+02  0.27051642198E+02  0.67667648594E+02  0.10000000000E+01 0.  0.
    9000005    1    3    3    0    0  0.60343050031E+02 -0.14312079990E+02  0.11031832018E+02  0.62998576479E+02  0.10000000000E+01 0.  0.
<mgrwt>
<rscale>  0 0.12499325E+03</rscale>
<asrwt>0</asrwt>
<pdfrwt beam="1">  1        4 0.12980746E-01 0.12499325E+03</pdfrwt>
<pdfrwt beam="2">  1       -4 0.71217501E-02 0.12499325E+03</pdfrwt>
<totfact> 0.10331825E+04</totfact>
</mgrwt>
</event>
<event>
 5    1  0.3516911E-002  0.1249980E+03  0.7818608E-02  0.1235072E+00
          4   -1    0    0  501    0  0.00000000000E+00  0.00000000000E+00  0.26919442133E+03  0.26919741711E+03  0.12700000000E+01 0.  1.
         -4   -1    0    0    0  501 -0.00000000000E+00 -0.00000000000E+00 -0.14479551804E+02  0.14535140881E+02  0.12700000000E+01 0.  1.
         25    2    1    2    0    0  0.00000000000E+00  0.00000000000E+00  0.25471486953E+03  0.28373255799E+03  0.12499799880E+03 0.  0.
    9000005    1    3    3    0    0  0.46266882772E+02  0.28044426200E+02  0.19834428459E+03  0.20559321368E+03  0.10000000000E+01 0.  0.
    9000005    1    3    3    0    0 -0.46266882772E+02 -0.28044426200E+02  0.56370584942E+02  0.78139344309E+02  0.10000000000E+01 0.  0.
<mgrwt>
<rscale>  0 0.12499800E+03</rscale>
<asrwt>0</asrwt>
<pdfrwt beam="1">  1        4 0.41419033E-01 0.12499800E+03</pdfrwt>
<pdfrwt beam="2">  1       -4 0.22321299E-02 0.12499800E+03</pdfrwt>
<totfact> 0.77689237E+03</totfact>
</mgrwt>
</event>
<event>
 5    1  0.3516911E-002  0.1249714E+03  0.7818608E-02  0.1235114E+00
         -4   -1    0    0    0  501 -0.00000000000E+00  0.00000000000E+00  0.98859278319E+02  0.98867435537E+02  0.12700000000E+01 0. -1.
          4   -1    0    0  501    0  0.00000000000E+00 -0.00000000000E+00 -0.39475145314E+02  0.39495569341E+02  0.12700000000E+01 0. -1.
         25    2    1    2    0    0  0.00000000000E+00  0.00000000000E+00  0.59384133005E+02  0.13836300488E+03  0.12497138019E+03 0.  0.
    9000005    1    3    3    0    0 -0.47724975644E+02  0.27201277925E+02  0.62645186168E+02  0.83324679243E+02  0.10000000000E+01 0.  0.
    9000005    1    3    3    0    0  0.47724975644E+02 -0.27201277925E+02 -0.32610531626E+01  0.55038325635E+02  0.10000000000E+01 0.  0.
<mgrwt>
<rscale>  0 0.12497138E+03</rscale>
<asrwt>0</asrwt>
<pdfrwt beam="2">  1        4 0.60752978E-02 0.12497138E+03</pdfrwt>
<pdfrwt beam="1">  1       -4 0.15211318E-01 0.12497138E+03</pdfrwt>
<totfact> 0.10174186E+04</totfact>
</mgrwt>
</event>
<event>
 5    1  0.3516911E-002  0.1249983E+03  0.7818608E-02  0.1235072E+00
         -4   -1    0    0    0  501 -0.00000000000E+00  0.00000000000E+00  0.17061271414E+01  0.21269155654E+01  0.12700000000E+01 0. -1.
          4   -1    0    0  501    0  0.00000000000E+00 -0.00000000000E+00 -0.20377200772E+04  0.20377204729E+04  0.12700000000E+01 0. -1.
         25    2    1    2    0    0  0.00000000000E+00  0.00000000000E+00 -0.20360139500E+04  0.20398473885E+04  0.12499825456E+03 0.  0.
    9000005    1    3    3    0    0  0.51311538205E+02  0.92685477624E+01 -0.45592176851E+03  0.45889480160E+03  0.10000000000E+01 0.  0.
    9000005    1    3    3    0    0 -0.51311538205E+02 -0.92685477624E+01 -0.15800921815E+04  0.15809525869E+04  0.10000000000E+01 0.  0.
<mgrwt>
<rscale>  0 0.12499825E+03</rscale>
<asrwt>0</asrwt>
<pdfrwt beam="2">  1        4 0.31352606E+00 0.12499825E+03</pdfrwt>
<pdfrwt beam="1">  1       -4 0.29488151E-03 0.12499825E+03</pdfrwt>
<totfact> 0.93505324E+02</totfact>
</mgrwt>
</event>
<event>
 5    1  0.3516911E-002  0.1250012E+03  0.7818608E-02  0.1235067E+00
          4   -1    0    0  501    0  0.00000000000E+00  0.00000000000E+00  0.50596009965E+01  0.52165565504E+01  0.12700000000E+01 0.  1.
         -4   -1    0    0    0  501 -0.00000000000E+00 -0.00000000000E+00 -0.76011205104E+03  0.76011311200E+03  0.12700000000E+01 0.  1.
         25    2    1    2    0    0  0.00000000000E+00  0.00000000000E+00 -0.75505245004E+03  0.76532966855E+03  0.12500119699E+03 0.  0.
    9000005    1    3    3    0    0 -0.59969938404E+02  0.16186040004E+02 -0.41947523252E+03  0.42405053012E+03  0.10000000000E+01 0.  0.
    9000005    1    3    3    0    0  0.59969938404E+02 -0.16186040004E+02 -0.33557721753E+03  0.34127913843E+03  0.10000000000E+01 0.  0.
<mgrwt>
<rscale>  0 0.12500120E+03</rscale>
<asrwt>0</asrwt>
<pdfrwt beam="1">  1        4 0.79055588E-03 0.12500120E+03</pdfrwt>
<pdfrwt beam="2">  1       -4 0.11695238E+00 0.12500120E+03</pdfrwt>
<totfact> 0.39850416E+03</totfact>
</mgrwt>
</event>
<event>
 5    1  0.3516911E-002  0.1249967E+03  0.7818608E-02  0.1235074E+00
          4   -1    0    0  501    0  0.00000000000E+00  0.00000000000E+00  0.26592892247E+03  0.26593195503E+03  0.12700000000E+01 0. -1.
         -4   -1    0    0    0  501 -0.00000000000E+00 -0.00000000000E+00 -0.14657725556E+02  0.14712641451E+02  0.12700000000E+01 0. -1.
         25    2    1    2    0    0  0.00000000000E+00  0.00000000000E+00  0.25127119691E+03  0.28064459648E+03  0.12499670050E+03 0.  0.
    9000005    1    3    3    0    0 -0.20901496208E+02 -0.36142999021E+02  0.23002860426E+03  0.23378910945E+03  0.10000000000E+01 0.  0.
    9000005    1    3    3    0    0  0.20901496208E+02  0.36142999021E+02  0.21242592659E+02  0.46855487030E+02  0.10000000000E+01 0.  0.
<mgrwt>
<rscale>  0 0.12499670E+03</rscale>
<asrwt>0</asrwt>
<pdfrwt beam="1">  1        4 0.40916596E-01 0.12499670E+03</pdfrwt>
<pdfrwt beam="2">  1       -4 0.22594925E-02 0.12499670E+03</pdfrwt>
<totfact> 0.78098443E+03</totfact>
</mgrwt>
</event>
<event>
 5    1  0.3516911E-002  0.1249978E+03  0.7818608E-02  0.1235073E+00
          4   -1    0    0  501    0  0.00000000000E+00  0.00000000000E+00  0.53476592608E+02  0.53491670912E+02  0.12700000000E+01 0.  1.
         -4   -1    0    0    0  501 -0.00000000000E+00 -0.00000000000E+00 -0.73012555022E+02  0.73023599547E+02  0.12700000000E+01 0.  1.
         25    2    1    2    0    0  0.00000000000E+00  0.00000000000E+00 -0.19535962414E+02  0.12651527046E+03  0.12499783931E+03 0.  0.
    9000005    1    3    3    0    0 -0.58943412147E+02 -0.18909085500E+02 -0.18429650302E+02  0.64595134184E+02  0.10000000000E+01 0.  0.
    9000005    1    3    3    0    0  0.58943412147E+02  0.18909085500E+02 -0.11063121119E+01  0.61920136276E+02  0.10000000000E+01 0.  0.
<mgrwt>
<rscale>  0 0.12499784E+03</rscale>
<asrwt>0</asrwt>
<pdfrwt beam="1">  1        4 0.82291775E-02 0.12499784E+03</pdfrwt>
<pdfrwt beam="2">  1       -4 0.11234710E-01 0.12499784E+03</pdfrwt>
<totfact> 0.10420203E+04</totfact>
</mgrwt>
</event>
<event>
 5    1  0.3516911E-002  0.1249947E+03  0.7818608E-02  0.1235078E+00
          4   -1    0    0  501    0  0.00000000000E+00  0.00000000000E+00  0.12317877122E+03  0.12318531803E+03  0.12700000000E+01 0. -1.
         -4   -1    0    0    0  501 -0.00000000000E+00 -0.00000000000E+00 -0.31689218301E+02  0.31714656809E+02  0.12700000000E+01 0. -1.
         25    2    1    2    0    0  0.00000000000E+00  0.00000000000E+00  0.91489552917E+02  0.15489997484E+03  0.12499465554E+03 0.  0.
    9000005    1    3    3    0    0  0.15153518447E+01  0.52673844523E+02  0.41220075751E+01  0.52866067893E+02  0.10000000000E+01 0.  0.
    9000005    1    3    3    0    0 -0.15153518447E+01 -0.52673844523E+02  0.87367545342E+02  0.10203390695E+03  0.10000000000E+01 0.  0.
<mgrwt>
<rscale>  0 0.12499466E+03</rscale>
<asrwt>0</asrwt>
<pdfrwt beam="1">  1        4 0.18953041E-01 0.12499466E+03</pdfrwt>
<pdfrwt beam="2">  1       -4 0.48777248E-02 0.12499466E+03</pdfrwt>
<totfact> 0.98346959E+03</totfact>
</mgrwt>
</event>
<event>
 5    1  0.3516911E-002  0.1249977E+03  0.7818608E-02  0.1235073E+00
         -4   -1    0    0    0  501 -0.00000000000E+00  0.00000000000E+00  0.10561507260E+03  0.10562270807E+03  0.12700000000E+01 0.  1.
          4   -1    0    0  501    0  0.00000000000E+00 -0.00000000000E+00 -0.36964490046E+02  0.36986300496E+02  0.12700000000E+01 0.  1.
         25    2    1    2    0    0  0.00000000000E+00  0.00000000000E+00  0.68650582550E+02  0.14260900856E+03  0.12499770733E+03 0.  0.
    9000005    1    3    3    0    0  0.47811718425E+01  0.19457287908E+02  0.10185672280E+03  0.10381347522E+03  0.10000000000E+01 0.  0.
    9000005    1    3    3    0    0 -0.47811718425E+01 -0.19457287908E+02 -0.33206140253E+02  0.38795533344E+02  0.10000000000E+01 0.  0.
<mgrwt>
<rscale>  0 0.12499771E+03</rscale>
<asrwt>0</asrwt>
<pdfrwt beam="2">  1        4 0.56891098E-02 0.12499771E+03</pdfrwt>
<pdfrwt beam="1">  1       -4 0.16250738E-01 0.12499771E+03</pdfrwt>
<totfact> 0.10080317E+04</totfact>
</mgrwt>
</event>
<event>
 5    1  0.3516911E-002  0.1249985E+03  0.7818608E-02  0.1235072E+00
         -4   -1    0    0    0  501 -0.00000000000E+00  0.00000000000E+00  0.10666774100E+02  0.10742111976E+02  0.12700000000E+01 0.  1.
          4   -1    0    0  501    0  0.00000000000E+00 -0.00000000000E+00 -0.36483337852E+03  0.36483558897E+03  0.12700000000E+01 0.  1.
         25    2    1    2    0    0  0.00000000000E+00  0.00000000000E+00 -0.35416660441E+03  0.37557770095E+03  0.12499850305E+03 0.  0.
    9000005    1    3    3    0    0 -0.13166524780E+02  0.57446286440E+02 -0.11465267454E+03  0.12891729511E+03  0.10000000000E+01 0.  0.
    9000005    1    3    3    0    0  0.13166524780E+02 -0.57446286440E+02 -0.23951392988E+03  0.24666040584E+03  0.10000000000E+01 0.  0.
<mgrwt>
<rscale>  0 0.12499850E+03</rscale>
<asrwt>0</asrwt>
<pdfrwt beam="2">  1        4 0.56134168E-01 0.12499850E+03</pdfrwt>
<pdfrwt beam="1">  1       -4 0.16470077E-02 0.12499850E+03</pdfrwt>
<totfact> 0.67001636E+03</totfact>
</mgrwt>
</event>
<event>
 5    1  0.3516911E-002  0.1249904E+03  0.7818608E-02  0.1235084E+00
          4   -1    0    0  501    0  0.00000000000E+00  0.00000000000E+00  0.17567170922E+03  0.17567629983E+03  0.12700000000E+01 0.  1.
         -4   -1    0    0    0  501 -0.00000000000E+00 -0.00000000000E+00 -0.22209637401E+02  0.22245918580E+02  0.12700000000E+01 0.  1.
         25    2    1    2    0    0  0.00000000000E+00  0.00000000000E+00  0.15346207182E+03  0.19792221841E+03  0.12499038784E+03 0.  0.
    9000005    1    3    3    0    0  0.24230862180E+02  0.33875323426E+01 -0.14317283557E+02  0.28365377942E+02  0.10000000000E+01 0.  0.
    9000005    1    3    3    0    0 -0.24230862180E+02 -0.33875323426E+01  0.16777935538E+03  0.16955684046E+03  0.10000000000E+01 0.  0.
<mgrwt>
<rscale>  0 0.12499039E+03</rscale>
<asrwt>0</asrwt>
<pdfrwt beam="1">  1        4 0.27029562E-01 0.12499039E+03</pdfrwt>
<pdfrwt beam="2">  1       -4 0.34200111E-02 0.12499039E+03</pdfrwt>
<totfact> 0.90506322E+03</totfact>
</mgrwt>
</event>
<event>
 5    1  0.3516911E-002  0.1250017E+03  0.7818608E-02  0.1235067E+00
         -4   -1    0    0    0  501 -0.00000000000E+00  0.00000000000E+00  0.22939366579E+03  0.22939718133E+03  0.12700000000E+01 0.  1.
          4   -1    0    0  501    0  0.00000000000E+00 -0.00000000000E+00 -0.17001716881E+02  0.17049084343E+02  0.12700000000E+01 0.  1.
         25    2    1    2    0    0  0.00000000000E+00  0.00000000000E+00  0.21239194891E+03  0.24644626568E+03  0.12500168761E+03 0.  0.
    9000005    1    3    3    0    0  0.54385341320E+02 -0.27516516480E+02  0.13340266387E+03  0.14667036087E+03  0.10000000000E+01 0.  0.
    9000005    1    3    3    0    0 -0.54385341320E+02  0.27516516480E+02  0.78989285038E+02  0.99775904809E+02  0.10000000000E+01 0.  0.
<mgrwt>
<rscale>  0 0.12500169E+03</rscale>
<asrwt>0</asrwt>
<pdfrwt beam="2">  1        4 0.26195632E-02 0.12500169E+03</pdfrwt>
<pdfrwt beam="1">  1       -4 0.35295242E-01 0.12500169E+03</pdfrwt>
<totfact> 0.82843469E+03</totfact>
</mgrwt>
</event>
<event>
 5    1  0.3516911E-002  0.1249979E+03  0.7818608E-02  0.1235073E+00
         -4   -1    0    0    0  501 -0.00000000000E+00  0.00000000000E+00  0.83106326255E+02  0.83116029523E+02  0.12700000000E+01 0. -1.
          4   -1    0    0  501    0  0.00000000000E+00 -0.00000000000E+00 -0.46980444145E+02  0.46997606663E+02  0.12700000000E+01 0. -1.
         25    2    1    2    0    0  0.00000000000E+00  0.00000000000E+00  0.36125882110E+02  0.13011363619E+03  0.12499791584E+03 0.  0.
    9000005    1    3    3    0    0 -0.27041039512E+02  0.55023795704E+02  0.30652722828E+02  0.68552354652E+02  0.10000000000E+01 0.  0.
    9000005    1    3    3    0    0  0.27041039512E+02 -0.55023795704E+02  0.54731592823E+01  0.61561281534E+02  0.10000000000E+01 0.  0.
<mgrwt>
<rscale>  0 0.12499792E+03</rscale>
<asrwt>0</asrwt>
<pdfrwt beam="2">  1        4 0.72298273E-02 0.12499792E+03</pdfrwt>
<pdfrwt beam="1">  1       -4 0.12787655E-01 0.12499792E+03</pdfrwt>
<totfact> 0.10342564E+04</totfact>
</mgrwt>
</event>
<event>
 5    1  0.3516911E-002  0.1250001E+03  0.7818608E-02  0.1235069E+00
          4   -1    0    0  501    0  0.00000000000E+00  0.00000000000E+00  0.84099020744E+01  0.85052544290E+01  0.12700000000E+01 0.  1.
         -4   -1    0    0    0  501 -0.00000000000E+00 -0.00000000000E+00 -0.46176834066E+03  0.46177008710E+03  0.12700000000E+01 0.  1.
         25    2    1    2    0    0  0.00000000000E+00  0.00000000000E+00 -0.45335843859E+03  0.47027534152E+03  0.12500009204E+03 0.  0.
    9000005    1    3    3    0    0 -0.14044557536E+02  0.38304403011E+00 -0.45576783367E+03  0.45598543236E+03  0.10000000000E+01 0.  0.
    9000005    1    3    3    0    0  0.14044557536E+02 -0.38304403011E+00  0.24093950856E+01  0.14289909160E+02  0.10000000000E+01 0.  0.
<mgrwt>
<rscale>  0 0.12500009E+03</rscale>
<asrwt>0</asrwt>
<pdfrwt beam="1">  1        4 0.13013006E-02 0.12500009E+03</pdfrwt>
<pdfrwt beam="2">  1       -4 0.71048733E-01 0.12500009E+03</pdfrwt>
<totfact> 0.58246609E+03</totfact>
</mgrwt>
</event>
<event>
 5    1  0.3516911E-002  0.1250004E+03  0.7818608E-02  0.1235069E+00
          4   -1    0    0  501    0  0.00000000000E+00  0.00000000000E+00  0.52930755072E+02  0.52945988823E+02  0.12700000000E+01 0. -1.
         -4   -1    0    0    0  501 -0.00000000000E+00 -0.00000000000E+00 -0.73768412652E+02  0.73779344028E+02  0.12700000000E+01 0. -1.
         25    2    1    2    0    0  0.00000000000E+00  0.00000000000E+00 -0.20837657580E+02  0.12672533285E+03  0.12500040805E+03 0.  0.
    9000005    1    3    3    0    0 -0.31791998839E+02  0.29719591335E+02 -0.55885104276E+02  0.70838761841E+02  0.10000000000E+01 0.  0.
    9000005    1    3    3    0    0  0.31791998839E+02 -0.29719591335E+02  0.35047446696E+02  0.55886571010E+02  0.10000000000E+01 0.  0.
<mgrwt>
<rscale>  0 0.12500041E+03</rscale>
<asrwt>0</asrwt>
<pdfrwt beam="1">  1        4 0.81452058E-02 0.12500041E+03</pdfrwt>
<pdfrwt beam="2">  1       -4 0.11350999E-01 0.12500041E+03</pdfrwt>
<totfact> 0.10415023E+04</totfact>
</mgrwt>
</event>
<event>
 5    1  0.3516911E-002  0.1249985E+03  0.7818608E-02  0.1235072E+00
          4   -1    0    0  501    0  0.00000000000E+00  0.00000000000E+00  0.14530388211E+03  0.14530943210E+03  0.12700000000E+01 0. -1.
         -4   -1    0    0    0  501 -0.00000000000E+00 -0.00000000000E+00 -0.26861595936E+02  0.26891601593E+02  0.12700000000E+01 0. -1.
         25    2    1    2    0    0  0.00000000000E+00  0.00000000000E+00  0.11844228617E+03  0.17220103369E+03  0.12499848339E+03 0.  0.
    9000005    1    3    3    0    0  0.41056944132E+02 -0.44110762194E+02  0.82013373265E+02  0.10177733243E+03  0.10000000000E+01 0.  0.
    9000005    1    3    3    0    0 -0.41056944132E+02  0.44110762194E+02  0.36428912907E+02  0.70423701255E+02  0.10000000000E+01 0.  0.
<mgrwt>
<rscale>  0 0.12499848E+03</rscale>
<asrwt>0</asrwt>
<pdfrwt beam="1">  1        4 0.22357179E-01 0.12499848E+03</pdfrwt>
<pdfrwt beam="2">  1       -4 0.41352883E-02 0.12499848E+03</pdfrwt>
<totfact> 0.95043213E+03</totfact>
</mgrwt>
</event>
<event>
 5    1  0.3516911E-002  0.1249892E+03  0.7818608E-02  0.1235086E+00
         -4   -1    0    0    0  501 -0.00000000000E+00  0.00000000000E+00  0.67037483722E+02  0.67049512480E+02  0.12700000000E+01 0. -1.
          4   -1    0    0  501    0  0.00000000000E+00 -0.00000000000E+00 -0.58235386445E+02  0.58249232908E+02  0.12700000000E+01 0. -1.
         25    2    1    2    0    0  0.00000000000E+00  0.00000000000E+00  0.88020972768E+01  0.12529874539E+03  0.12498919425E+03 0.  0.
    9000005    1    3    3    0    0 -0.20828389558E+02 -0.61556898643E+01 -0.54334674730E+02  0.58523253561E+02  0.10000000000E+01 0.  0.
    9000005    1    3    3    0    0  0.20828389558E+02  0.61556898643E+01  0.63136772007E+02  0.66775491827E+02  0.10000000000E+01 0.  0.
<mgrwt>
<rscale>  0 0.12498919E+03</rscale>
<asrwt>0</asrwt>
<pdfrwt beam="2">  1        4 0.89612806E-02 0.12498919E+03</pdfrwt>
<pdfrwt beam="1">  1       -4 0.10315449E-01 0.12498919E+03</pdfrwt>
<totfact> 0.10448929E+04</totfact>
</mgrwt>
</event>
<event>
 5    1  0.3516911E-002  0.1249862E+03  0.7818608E-02  0.1235091E+00
          4   -1    0    0  501    0  0.00000000000E+00  0.00000000000E+00  0.83542573675E+02  0.83552226280E+02  0.12700000000E+01 0.  1.
         -4   -1    0    0    0  501 -0.00000000000E+00 -0.00000000000E+00 -0.46726269877E+02  0.46743525718E+02  0.12700000000E+01 0.  1.
         25    2    1    2    0    0  0.00000000000E+00  0.00000000000E+00  0.36816303799E+02  0.13029575200E+03  0.12498617029E+03 0.  0.
    9000005    1    3    3    0    0  0.55003328621E+02  0.13936771335E+02 -0.88719326468E+01  0.57439628685E+02  0.10000000000E+01 0.  0.
    9000005    1    3    3    0    0 -0.55003328621E+02 -0.13936771335E+02  0.45688236445E+02  0.72856123313E+02  0.10000000000E+01 0.  0.
<mgrwt>
<rscale>  0 0.12498617E+03</rscale>
<asrwt>0</asrwt>
<pdfrwt beam="1">  1        4 0.12854773E-01 0.12498617E+03</pdfrwt>
<pdfrwt beam="2">  1       -4 0.71907269E-02 0.12498617E+03</pdfrwt>
<totfact> 0.10341413E+04</totfact>
</mgrwt>
</event>
<event>
 5    1  0.3516911E-002  0.1249988E+03  0.7818608E-02  0.1235071E+00
          4   -1    0    0  501    0  0.00000000000E+00  0.00000000000E+00  0.37337777636E+02  0.37359370160E+02  0.12700000000E+01 0.  1.
         -4   -1    0    0    0  501 -0.00000000000E+00 -0.00000000000E+00 -0.10456160318E+03  0.10456931557E+03  0.12700000000E+01 0.  1.
         25    2    1    2    0    0  0.00000000000E+00  0.00000000000E+00 -0.67223825541E+02  0.14192868573E+03  0.12499883645E+03 0.  0.
    9000005    1    3    3    0    0 -0.60496829620E+02  0.11369178555E+02 -0.21380073485E+02  0.65170792210E+02  0.10000000000E+01 0.  0.
    9000005    1    3    3    0    0  0.60496829620E+02 -0.11369178555E+02 -0.45843752056E+02  0.76757893520E+02  0.10000000000E+01 0.  0.
<mgrwt>
<rscale>  0 0.12499884E+03</rscale>
<asrwt>0</asrwt>
<pdfrwt beam="1">  1        4 0.57465278E-02 0.12499884E+03</pdfrwt>
<pdfrwt beam="2">  1       -4 0.16088655E-01 0.12499884E+03</pdfrwt>
<totfact> 0.10094033E+04</totfact>
</mgrwt>
</event>
<event>
 5    1  0.3516911E-002  0.1250116E+03  0.7818608E-02  0.1235051E+00
         -4   -1    0    0    0  501 -0.00000000000E+00  0.00000000000E+00  0.20561304352E+03  0.20561696566E+03  0.12700000000E+01 0.  1.
          4   -1    0    0  501    0  0.00000000000E+00 -0.00000000000E+00 -0.18976276482E+02  0.19018726801E+02  0.12700000000E+01 0.  1.
         25    2    1    2    0    0  0.00000000000E+00  0.00000000000E+00  0.18663676704E+03  0.22463569246E+03  0.12501164552E+03 0.  0.
    9000005    1    3    3    0    0 -0.49289851154E+02 -0.28777313902E+02  0.47563799845E+02  0.74303016613E+02  0.10000000000E+01 0.  0.
    9000005    1    3    3    0    0  0.49289851154E+02  0.28777313902E+02  0.13907296720E+03  0.15033267585E+03  0.10000000000E+01 0.  0.
<mgrwt>
<rscale>  0 0.12501165E+03</rscale>
<asrwt>0</asrwt>
<pdfrwt beam="2">  1        4 0.29229941E-02 0.12501165E+03</pdfrwt>
<pdfrwt beam="1">  1       -4 0.31636345E-01 0.12501165E+03</pdfrwt>
<totfact> 0.86117689E+03</totfact>
</mgrwt>
</event>
<event>
 5    1  0.3516911E-002  0.1249742E+03  0.7818608E-02  0.1235110E+00
          4   -1    0    0  501    0  0.00000000000E+00  0.00000000000E+00  0.14611579379E+03  0.14612131294E+03  0.12700000000E+01 0.  1.
         -4   -1    0    0    0  501 -0.00000000000E+00 -0.00000000000E+00 -0.26701792961E+02  0.26731977992E+02  0.12700000000E+01 0.  1.
         25    2    1    2    0    0  0.00000000000E+00  0.00000000000E+00  0.11941400083E+03  0.17285329093E+03  0.12497422371E+03 0.  0.
    9000005    1    3    3    0    0  0.34556376053E+02 -0.48011576864E+02  0.87520424635E+02  0.10564127682E+03  0.10000000000E+01 0.  0.
    9000005    1    3    3    0    0 -0.34556376053E+02  0.48011576864E+02  0.31893576192E+02  0.67212014113E+02  0.10000000000E+01 0.  0.
<mgrwt>
<rscale>  0 0.12497422E+03</rscale>
<asrwt>0</asrwt>
<pdfrwt beam="1">  1        4 0.22482100E-01 0.12497422E+03</pdfrwt>
<pdfrwt beam="2">  1       -4 0.41107145E-02 0.12497422E+03</pdfrwt>
<totfact> 0.94974401E+03</totfact>
</mgrwt>
</event>
<event>
 5    1  0.3516911E-002  0.1249968E+03  0.7818608E-02  0.1235074E+00
          4   -1    0    0  501    0  0.00000000000E+00  0.00000000000E+00  0.90880578701E+01  0.91763661572E+01  0.12700000000E+01 0.  1.
         -4   -1    0    0    0  501 -0.00000000000E+00 -0.00000000000E+00 -0.42763283337E+03  0.42763471922E+03  0.12700000000E+01 0.  1.
         25    2    1    2    0    0  0.00000000000E+00  0.00000000000E+00 -0.41854477550E+03  0.43681108537E+03  0.12499678077E+03 0.  0.
    9000005    1    3    3    0    0  0.50014624045E+02  0.27851596210E+02 -0.29683754656E+03  0.30230895302E+03  0.10000000000E+01 0.  0.
    9000005    1    3    3    0    0 -0.50014624045E+02 -0.27851596210E+02 -0.12170722894E+03  0.13450213235E+03  0.10000000000E+01 0.  0.
<mgrwt>
<rscale>  0 0.12499678E+03</rscale>
<asrwt>0</asrwt>
<pdfrwt beam="1">  1        4 0.14051011E-02 0.12499678E+03</pdfrwt>
<pdfrwt beam="2">  1       -4 0.65796589E-01 0.12499678E+03</pdfrwt>
<totfact> 0.61127768E+03</totfact>
</mgrwt>
</event>
<event>
 5    1  0.3516911E-002  0.1249995E+03  0.7818608E-02  0.1235070E+00
         -4   -1    0    0    0  501 -0.00000000000E+00  0.00000000000E+00  0.85801838128E+02  0.85811236596E+02  0.12700000000E+01 0. -1.
          4   -1    0    0  501    0  0.00000000000E+00 -0.00000000000E+00 -0.45505276350E+02  0.45522995021E+02  0.12700000000E+01 0. -1.
         25    2    1    2    0    0  0.00000000000E+00  0.00000000000E+00  0.40296561779E+02  0.13133423162E+03  0.12499947001E+03 0.  0.
    9000005    1    3    3    0    0 -0.24574402435E+02 -0.43635009889E+02  0.59423157892E+02  0.77717610855E+02  0.10000000000E+01 0.  0.
    9000005    1    3    3    0    0  0.24574402435E+02  0.43635009889E+02 -0.19126596114E+02  0.53616620762E+02  0.10000000000E+01 0.  0.
<mgrwt>
<rscale>  0 0.12499947E+03</rscale>
<asrwt>0</asrwt>
<pdfrwt beam="2">  1        4 0.70028977E-02 0.12499947E+03</pdfrwt>
<pdfrwt beam="1">  1       -4 0.13202369E-01 0.12499947E+03</pdfrwt>
<totfact> 0.10316053E+04</totfact>
</mgrwt>
</event>
<event>
 5    1  0.3516911E-002  0.1249960E+03  0.7818608E-02  0.1235076E+00
         -4   -1    0    0    0  501 -0.00000000000E+00  0.00000000000E+00  0.14132078239E+02  0.14189028697E+02  0.12700000000E+01 0.  1.
          4   -1    0    0  501    0  0.00000000000E+00 -0.00000000000E+00 -0.27577820697E+03  0.27578113122E+03  0.12700000000E+01 0.  1.
         25    2    1    2    0    0  0.00000000000E+00  0.00000000000E+00 -0.26164612873E+03  0.28997015992E+03  0.12499598780E+03 0.  0.
    9000005    1    3    3    0    0 -0.54952574219E+02  0.29117516807E+02 -0.14500711813E+03  0.15778364778E+03  0.10000000000E+01 0.  0.
    9000005    1    3    3    0    0  0.54952574219E+02 -0.29117516807E+02 -0.11663901059E+03  0.13218651214E+03  0.10000000000E+01 0.  0.
<mgrwt>
<rscale>  0 0.12499599E+03</rscale>
<asrwt>0</asrwt>
<pdfrwt beam="2">  1        4 0.42432018E-01 0.12499599E+03</pdfrwt>
<pdfrwt beam="1">  1       -4 0.21787718E-02 0.12499599E+03</pdfrwt>
<totfact> 0.76881291E+03</totfact>
</mgrwt>
</event>
<event>
 5    1  0.3516911E-002  0.1249980E+03  0.7818608E-02  0.1235072E+00
          4   -1    0    0  501    0  0.00000000000E+00  0.00000000000E+00  0.23782024971E+03  0.23782364070E+03  0.12700000000E+01 0. -1.
         -4   -1    0    0    0  501 -0.00000000000E+00 -0.00000000000E+00 -0.16396631656E+02  0.16445741992E+02  0.12700000000E+01 0. -1.
         25    2    1    2    0    0  0.00000000000E+00  0.00000000000E+00  0.22142361806E+03  0.25426938269E+03  0.12499800134E+03 0.  0.
    9000005    1    3    3    0    0  0.46476645136E+02  0.22348962450E+02  0.38919959390E+02  0.64616699890E+02  0.10000000000E+01 0.  0.
    9000005    1    3    3    0    0 -0.46476645136E+02 -0.22348962450E+02  0.18250365867E+03  0.18965268280E+03  0.10000000000E+01 0.  0.
<mgrwt>
<rscale>  0 0.12499800E+03</rscale>
<asrwt>0</asrwt>
<pdfrwt beam="1">  1        4 0.36591768E-01 0.12499800E+03</pdfrwt>
<pdfrwt beam="2">  1       -4 0.25265974E-02 0.12499800E+03</pdfrwt>
<totfact> 0.81720696E+03</totfact>
</mgrwt>
</event>
<event>
 5    1  0.3516911E-002  0.1249983E+03  0.7818608E-02  0.1235072E+00
         -4   -1    0    0    0  501 -0.00000000000E+00  0.00000000000E+00  0.19903375741E+02  0.19943852834E+02  0.12700000000E+01 0. -1.
          4   -1    0    0  501    0  0.00000000000E+00 -0.00000000000E+00 -0.19601333791E+03  0.19601745213E+03  0.12700000000E+01 0. -1.
         25    2    1    2    0    0  0.00000000000E+00  0.00000000000E+00 -0.17610996217E+03  0.21596130496E+03  0.12499826585E+03 0.  0.
    9000005    1    3    3    0    0 -0.17003534405E+02 -0.15132397831E+02  0.12494909680E+02  0.25985234543E+02  0.10000000000E+01 0.  0.
    9000005    1    3    3    0    0  0.17003534405E+02  0.15132397831E+02 -0.18860487185E+03  0.18997607042E+03  0.10000000000E+01 0.  0.
<mgrwt>
<rscale>  0 0.12499827E+03</rscale>
<asrwt>0</asrwt>
<pdfrwt beam="2">  1        4 0.30159327E-01 0.12499827E+03</pdfrwt>
<pdfrwt beam="1">  1       -4 0.30654880E-02 0.12499827E+03</pdfrwt>
<totfact> 0.87514874E+03</totfact>
</mgrwt>
</event>
<event>
 5    1  0.3516911E-002  0.1249977E+03  0.7818608E-02  0.1235073E+00
          4   -1    0    0  501    0  0.00000000000E+00  0.00000000000E+00  0.79353559965E+02  0.79363722059E+02  0.12700000000E+01 0.  1.
         -4   -1    0    0    0  501 -0.00000000000E+00 -0.00000000000E+00 -0.49202567285E+02  0.49218954961E+02  0.12700000000E+01 0.  1.
         25    2    1    2    0    0  0.00000000000E+00  0.00000000000E+00  0.30150992680E+02  0.12858267702E+03  0.12499768986E+03 0.  0.
    9000005    1    3    3    0    0  0.33764571797E+02 -0.54209985431E+01 -0.38728247450E+02  0.51675048954E+02  0.10000000000E+01 0.  0.
    9000005    1    3    3    0    0 -0.33764571797E+02  0.54209985431E+01  0.68879240130E+02  0.76907628066E+02  0.10000000000E+01 0.  0.
<mgrwt>
<rscale>  0 0.12499769E+03</rscale>
<asrwt>0</asrwt>
<pdfrwt beam="1">  1        4 0.12210282E-01 0.12499769E+03</pdfrwt>
<pdfrwt beam="2">  1       -4 0.75716681E-02 0.12499769E+03</pdfrwt>
<totfact> 0.10375464E+04</totfact>
</mgrwt>
</event>
<event>
 5    1  0.3516911E-002  0.1249947E+03  0.7818608E-02  0.1235078E+00
          4   -1    0    0  501    0  0.00000000000E+00  0.00000000000E+00  0.11112475293E+03  0.11113200985E+03  0.12700000000E+01 0. -1.
         -4   -1    0    0    0  501 -0.00000000000E+00 -0.00000000000E+00 -0.35129091405E+02  0.35152040665E+02  0.12700000000E+01 0. -1.
         25    2    1    2    0    0  0.00000000000E+00  0.00000000000E+00  0.75995661526E+02  0.14628405052E+03  0.12499473135E+03 0.  0.
    9000005    1    3    3    0    0 -0.54434711124E+02  0.24508214254E+02  0.16382321814E+02  0.61912606221E+02  0.10000000000E+01 0.  0.
    9000005    1    3    3    0    0  0.54434711124E+02 -0.24508214254E+02  0.59613339712E+02  0.84371444297E+02  0.10000000000E+01 0.  0.
<mgrwt>
<rscale>  0 0.12499473E+03</rscale>
<asrwt>0</asrwt>
<pdfrwt beam="1">  1        4 0.17098439E-01 0.12499473E+03</pdfrwt>
<pdfrwt beam="2">  1       -4 0.54067993E-02 0.12499473E+03</pdfrwt>
<totfact> 0.10006151E+04</totfact>
</mgrwt>
</event>
<event>
 5    1  0.3516911E-002  0.1250084E+03  0.7818608E-02  0.1235056E+00
         -4   -1    0    0    0  501 -0.00000000000E+00  0.00000000000E+00  0.56701903593E+02  0.56716124436E+02  0.12700000000E+01 0.  1.
          4   -1    0    0  501    0  0.00000000000E+00 -0.00000000000E+00 -0.68871571325E+02  0.68883279806E+02  0.12700000000E+01 0.  1.
         25    2    1    2    0    0  0.00000000000E+00  0.00000000000E+00 -0.12169667732E+02  0.12559940424E+03  0.12500843785E+03 0.  0.
    9000005    1    3    3    0    0  0.11474332064E+01 -0.48764161990E+02  0.33170539695E+02  0.58996142257E+02  0.10000000000E+01 0.  0.
    9000005    1    3    3    0    0 -0.11474332064E+01  0.48764161990E+02 -0.45340207427E+02  0.66603261985E+02  0.10000000000E+01 0.  0.
<mgrwt>
<rscale>  0 0.12500844E+03</rscale>
<asrwt>0</asrwt>
<pdfrwt beam="2">  1        4 0.10597621E-01 0.12500844E+03</pdfrwt>
<pdfrwt beam="1">  1       -4 0.87253643E-02 0.12500844E+03</pdfrwt>
<totfact> 0.10437773E+04</totfact>
</mgrwt>
</event>
<event>
 5    1  0.3516911E-002  0.1250011E+03  0.7818608E-02  0.1235068E+00
          4   -1    0    0  501    0  0.00000000000E+00  0.00000000000E+00  0.12743381294E+02  0.12806508767E+02  0.12700000000E+01 0. -1.
         -4   -1    0    0    0  501 -0.00000000000E+00 -0.00000000000E+00 -0.30571517471E+03  0.30571781261E+03  0.12700000000E+01 0. -1.
         25    2    1    2    0    0  0.00000000000E+00  0.00000000000E+00 -0.29297179341E+03  0.31852432137E+03  0.12500108628E+03 0.  0.
    9000005    1    3    3    0    0 -0.63406294510E+01 -0.47251731635E+02 -0.24943925820E+03  0.25395643968E+03  0.10000000000E+01 0.  0.
    9000005    1    3    3    0    0  0.63406294510E+01  0.47251731635E+02 -0.43532535214E+02  0.64567881694E+02  0.10000000000E+01 0.  0.
<mgrwt>
<rscale>  0 0.12500109E+03</rscale>
<asrwt>0</asrwt>
<pdfrwt beam="1">  1        4 0.19655793E-02 0.12500109E+03</pdfrwt>
<pdfrwt beam="2">  1       -4 0.47038157E-01 0.12500109E+03</pdfrwt>
<totfact> 0.73330218E+03</totfact>
</mgrwt>
</event>
<event>
 5    1  0.3516911E-002  0.1250080E+03  0.7818608E-02  0.1235057E+00
          4   -1    0    0  501    0  0.00000000000E+00  0.00000000000E+00  0.26158724028E+03  0.26159032317E+03  0.12700000000E+01 0.  1.
         -4   -1    0    0    0  501 -0.00000000000E+00 -0.00000000000E+00 -0.14904623896E+02  0.14958633410E+02  0.12700000000E+01 0.  1.
         25    2    1    2    0    0  0.00000000000E+00  0.00000000000E+00  0.24668261638E+03  0.27654895658E+03  0.12500804838E+03 0.  0.
    9000005    1    3    3    0    0 -0.51193471111E+01  0.49635722699E+02  0.20658305647E+03  0.21252640284E+03  0.10000000000E+01 0.  0.
    9000005    1    3    3    0    0  0.51193471111E+01 -0.49635722699E+02  0.40099559915E+02  0.64022553745E+02  0.10000000000E+01 0.  0.
<mgrwt>
<rscale>  0 0.12500805E+03</rscale>
<asrwt>0</asrwt>
<pdfrwt beam="1">  1        4 0.40248584E-01 0.12500805E+03</pdfrwt>
<pdfrwt beam="2">  1       -4 0.22974107E-02 0.12500805E+03</pdfrwt>
<totfact> 0.78623852E+03</totfact>
</mgrwt>
</event>
<event>
 5    1  0.3516911E-002  0.1249940E+03  0.7818608E-02  0.1235079E+00
         -4   -1    0    0    0  501 -0.00000000000E+00  0.00000000000E+00  0.13645649561E+03  0.13646240543E+03  0.12700000000E+01 0.  1.
          4   -1    0    0  501    0  0.00000000000E+00 -0.00000000000E+00 -0.28602988993E+02  0.28631169717E+02  0.12700000000E+01 0.  1.
         25    2    1    2    0    0  0.00000000000E+00  0.00000000000E+00  0.10785350662E+03  0.16509357514E+03  0.12499403851E+03 0.  0.
    9000005    1    3    3    0    0 -0.32705365576E+02 -0.98403410082E+01 -0.15191005232E+02  0.37393045993E+02  0.10000000000E+01 0.  0.
    9000005    1    3    3    0    0  0.32705365576E+02  0.98403410082E+01  0.12304451185E+03  0.12770052915E+03  0.10000000000E+01 0.  0.
<mgrwt>
<rscale>  0 0.12499404E+03</rscale>
<asrwt>0</asrwt>
<pdfrwt beam="2">  1        4 0.44030822E-02 0.12499404E+03</pdfrwt>
<pdfrwt beam="1">  1       -4 0.20995929E-01 0.12499404E+03</pdfrwt>
<totfact> 0.96382581E+03</totfact>
</mgrwt>
</event>
<event>
 5    1  0.3516911E-002  0.1250034E+03  0.7818608E-02  0.1235064E+00
          4   -1    0    0  501    0  0.00000000000E+00  0.00000000000E+00  0.70211573391E+01  0.71350928782E+01  0.12700000000E+01 0. -1.
         -4   -1    0    0    0  501 -0.00000000000E+00 -0.00000000000E+00 -0.55179148230E+03  0.55179294381E+03  0.12700000000E+01 0. -1.
         25    2    1    2    0    0  0.00000000000E+00  0.00000000000E+00 -0.54477032496E+03  0.55892803669E+03  0.12500337291E+03 0.  0.
    9000005    1    3    3    0    0  0.53961654972E+02 -0.16810040454E+02 -0.15315777393E+03  0.16325667332E+03  0.10000000000E+01 0.  0.
    9000005    1    3    3    0    0 -0.53961654972E+02  0.16810040454E+02 -0.39161255103E+03  0.39567136337E+03  0.10000000000E+01 0.  0.
<mgrwt>
<rscale>  0 0.12500337E+03</rscale>
<asrwt>0</asrwt>
<pdfrwt beam="1">  1        4 0.10890552E-02 0.12500337E+03</pdfrwt>
<pdfrwt beam="2">  1       -4 0.84899840E-01 0.12500337E+03</pdfrwt>
<totfact> 0.51563451E+03</totfact>
</mgrwt>
</event>
<event>
 5    1  0.3516911E-002  0.1250050E+03  0.7818608E-02  0.1235061E+00
          4   -1    0    0  501    0  0.00000000000E+00  0.00000000000E+00  0.15303868874E+03  0.15304395824E+03  0.12700000000E+01 0.  1.
         -4   -1    0    0    0  501 -0.00000000000E+00 -0.00000000000E+00 -0.25505136353E+02  0.25536735899E+02  0.12700000000E+01 0.  1.
         25    2    1    2    0    0  0.00000000000E+00  0.00000000000E+00  0.12753355239E+03  0.17858069414E+03  0.12500502923E+03 0.  0.
    9000005    1    3    3    0    0 -0.24290915183E+02  0.57463634127E+02  0.58528214521E+02  0.85549223857E+02  0.10000000000E+01 0.  0.
    9000005    1    3    3    0    0  0.24290915183E+02 -0.57463634127E+02  0.69005337870E+02  0.93031470278E+02  0.10000000000E+01 0.  0.
<mgrwt>
<rscale>  0 0.12500503E+03</rscale>
<asrwt>0</asrwt>
<pdfrwt beam="1">  1        4 0.23547250E-01 0.12500503E+03</pdfrwt>
<pdfrwt beam="2">  1       -4 0.39267032E-02 0.12500503E+03</pdfrwt>
<totfact> 0.93862522E+03</totfact>
</mgrwt>
</event>
<event>
 5    1  0.3516911E-002  0.1250149E+03  0.7818608E-02  0.1235046E+00
         -4   -1    0    0    0  501 -0.00000000000E+00  0.00000000000E+00  0.44653583218E+03  0.44653763819E+03  0.12700000000E+01 0. -1.
          4   -1    0    0  501    0  0.00000000000E+00 -0.00000000000E+00 -0.87020658958E+01  0.87942510116E+01  0.12700000000E+01 0. -1.
         25    2    1    2    0    0  0.00000000000E+00  0.00000000000E+00  0.43783376629E+03  0.45533188920E+03  0.12501488882E+03 0.  0.
    9000005    1    3    3    0    0 -0.45874530826E+01 -0.42094620302E+02  0.51486429831E+02  0.66669740070E+02  0.10000000000E+01 0.  0.
    9000005    1    3    3    0    0  0.45874530826E+01  0.42094620302E+02  0.38634733645E+03  0.38866214913E+03  0.10000000000E+01 0.  0.
<mgrwt>
<rscale>  0 0.12501489E+03</rscale>
<asrwt>0</asrwt>
<pdfrwt beam="2">  1        4 0.13460087E-02 0.12501489E+03</pdfrwt>
<pdfrwt beam="1">  1       -4 0.68705089E-01 0.12501489E+03</pdfrwt>
<totfact> 0.59485131E+03</totfact>
</mgrwt>
</event>
<event>
 5    1  0.3516911E-002  0.1250009E+03  0.7818608E-02  0.1235068E+00
          4   -1    0    0  501    0  0.00000000000E+00  0.00000000000E+00  0.33693653139E+02  0.33717579418E+02  0.12700000000E+01 0.  1.
         -4   -1    0    0    0  501 -0.00000000000E+00 -0.00000000000E+00 -0.11586740410E+03  0.11587436400E+03  0.12700000000E+01 0.  1.
         25    2    1    2    0    0  0.00000000000E+00  0.00000000000E+00 -0.82173750962E+02  0.14959194342E+03  0.12500089675E+03 0.  0.
    9000005    1    3    3    0    0  0.12561989133E+02  0.35124851532E+02 -0.10108751546E+03  0.10775548500E+03  0.10000000000E+01 0.  0.
    9000005    1    3    3    0    0 -0.12561989133E+02 -0.35124851532E+02  0.18913764494E+02  0.41836458424E+02  0.10000000000E+01 0.  0.
<mgrwt>
<rscale>  0 0.12500090E+03</rscale>
<asrwt>0</asrwt>
<pdfrwt beam="1">  1        4 0.51860148E-02 0.12500090E+03</pdfrwt>
<pdfrwt beam="2">  1       -4 0.17828130E-01 0.12500090E+03</pdfrwt>
<totfact> 0.99383094E+03</totfact>
</mgrwt>
</event>
<event>
 5    1  0.3516911E-002  0.1250019E+03  0.7818608E-02  0.1235066E+00
          4   -1    0    0  501    0  0.00000000000E+00  0.00000000000E+00  0.11156096234E+03  0.11156819089E+03  0.12700000000E+01 0. -1.
         -4   -1    0    0    0  501 -0.00000000000E+00 -0.00000000000E+00 -0.34995658700E+02  0.35018695405E+02  0.12700000000E+01 0. -1.
         25    2    1    2    0    0  0.00000000000E+00  0.00000000000E+00  0.76565303636E+02  0.14658688629E+03  0.12500187803E+03 0.  0.
    9000005    1    3    3    0    0 -0.35987098202E+02  0.23820878006E+02 -0.14720059676E+02  0.45609051984E+02  0.10000000000E+01 0.  0.
    9000005    1    3    3    0    0  0.35987098202E+02 -0.23820878006E+02  0.91285363313E+02  0.10097783431E+03  0.10000000000E+01 0.  0.
<mgrwt>
<rscale>  0 0.12500188E+03</rscale>
<asrwt>0</asrwt>
<pdfrwt beam="1">  1        4 0.17165553E-01 0.12500188E+03</pdfrwt>
<pdfrwt beam="2">  1       -4 0.53862756E-02 0.12500188E+03</pdfrwt>
<totfact> 0.99984228E+03</totfact>
</mgrwt>
</event>
<event>
 5    1  0.3516911E-002  0.1250031E+03  0.7818608E-02  0.1235064E+00
          4   -1    0    0  501    0  0.00000000000E+00  0.00000000000E+00  0.12384401593E+04  0.12384408105E+04  0.12700000000E+01 0. -1.
         -4   -1    0    0    0  501 -0.00000000000E+00 -0.00000000000E+00 -0.30258154555E+01  0.32815330519E+01  0.12700000000E+01 0. -1.
         25    2    1    2    0    0  0.00000000000E+00  0.00000000000E+00  0.12354143438E+04  0.12417223435E+04  0.12500310978E+03 0.  0.
    9000005    1    3    3    0    0  0.38076834844E+02  0.20791756370E+02  0.17088571434E+03  0.17630958525E+03  0.10000000000E+01 0.  0.
    9000005    1    3    3    0    0 -0.38076834844E+02 -0.20791756370E+02  0.10645286295E+04  0.10654127583E+04  0.10000000000E+01 0.  0.
<mgrwt>
<rscale>  0 0.12500311E+03</rscale>
<asrwt>0</asrwt>
<pdfrwt beam="1">  1        4 0.19054914E+00 0.12500311E+03</pdfrwt>
<pdfrwt beam="2">  1       -4 0.48523032E-03 0.12500311E+03</pdfrwt>
<totfact> 0.23644403E+03</totfact>
</mgrwt>
</event>
<event>
 5    1  0.3516911E-002  0.1249920E+03  0.7818608E-02  0.1235082E+00
          4   -1    0    0  501    0  0.00000000000E+00  0.00000000000E+00  0.11370025541E+03  0.11370734796E+03  0.12700000000E+01 0.  1.
         -4   -1    0    0    0  501 -0.00000000000E+00 -0.00000000000E+00 -0.34331368341E+02  0.34354850490E+02  0.12700000000E+01 0.  1.
         25    2    1    2    0    0  0.00000000000E+00  0.00000000000E+00  0.79368887067E+02  0.14806219845E+03  0.12499197724E+03 0.  0.
    9000005    1    3    3    0    0 -0.29158194233E+02 -0.31961782079E+02  0.93095353173E+02  0.10266206986E+03  0.10000000000E+01 0.  0.
    9000005    1    3    3    0    0  0.29158194233E+02  0.31961782079E+02 -0.13726466106E+02  0.45400128594E+02  0.10000000000E+01 0.  0.
<mgrwt>
<rscale>  0 0.12499198E+03</rscale>
<asrwt>0</asrwt>
<pdfrwt beam="1">  1        4 0.17494699E-01 0.12499198E+03</pdfrwt>
<pdfrwt beam="2">  1       -4 0.52841008E-02 0.12499198E+03</pdfrwt>
<totfact> 0.99709387E+03</totfact>
</mgrwt>
</event>
<event>
 5    1  0.3516911E-002  0.1249926E+03  0.7818608E-02  0.1235081E+00
         -4   -1    0    0    0  501 -0.00000000000E+00  0.00000000000E+00  0.46921518322E+03  0.46921690194E+03  0.12700000000E+01 0. -1.
          4   -1    0    0  501    0  0.00000000000E+00 -0.00000000000E+00 -0.82739053384E+01  0.83708069832E+01  0.12700000000E+01 0. -1.
         25    2    1    2    0    0  0.00000000000E+00  0.00000000000E+00  0.46094127789E+03  0.47758770893E+03  0.12499263201E+03 0.  0.
    9000005    1    3    3    0    0 -0.42365308946E+02  0.36047298044E+02  0.12168740652E+03  0.13380228699E+03  0.10000000000E+01 0.  0.
    9000005    1    3    3    0    0  0.42365308946E+02 -0.36047298044E+02  0.33925387137E+03  0.34378542194E+03  0.10000000000E+01 0.  0.
<mgrwt>
<rscale>  0 0.12499263E+03</rscale>
<asrwt>0</asrwt>
<pdfrwt beam="2">  1        4 0.12804947E-02 0.12499263E+03</pdfrwt>
<pdfrwt beam="1">  1       -4 0.72194539E-01 0.12499263E+03</pdfrwt>
<totfact> 0.57655549E+03</totfact>
</mgrwt>
</event>
<event>
 5    1  0.3516911E-002  0.1249998E+03  0.7818608E-02  0.1235070E+00
         -4   -1    0    0    0  501 -0.00000000000E+00  0.00000000000E+00  0.20339651175E+03  0.20340047663E+03  0.12700000000E+01 0. -1.
          4   -1    0    0  501    0  0.00000000000E+00 -0.00000000000E+00 -0.19179887920E+02  0.19221888581E+02  0.12700000000E+01 0. -1.
         25    2    1    2    0    0  0.00000000000E+00  0.00000000000E+00  0.18421662383E+03  0.22262236521E+03  0.12499981198E+03 0.  0.
    9000005    1    3    3    0    0 -0.91019219717E+01 -0.57032825639E+01 -0.17532274712E+02  0.20585263471E+02  0.10000000000E+01 0.  0.
    9000005    1    3    3    0    0  0.91019219717E+01  0.57032825639E+01  0.20174889854E+03  0.20203710174E+03  0.10000000000E+01 0.  0.
<mgrwt>
<rscale>  0 0.12499981E+03</rscale>
<asrwt>0</asrwt>
<pdfrwt beam="2">  1        4 0.29542877E-02 0.12499981E+03</pdfrwt>
<pdfrwt beam="1">  1       -4 0.31295308E-01 0.12499981E+03</pdfrwt>
<totfact> 0.86455449E+03</totfact>
</mgrwt>
</event>
<event>
 5    1  0.3516911E-002  0.1250014E+03  0.7818608E-02  0.1235067E+00
          4   -1    0    0  501    0  0.00000000000E+00  0.00000000000E+00  0.41798944160E+02  0.41818233259E+02  0.12700000000E+01 0.  1.
         -4   -1    0    0    0  501 -0.00000000000E+00 -0.00000000000E+00 -0.93410291216E+02  0.93418924234E+02  0.12700000000E+01 0.  1.
         25    2    1    2    0    0  0.00000000000E+00  0.00000000000E+00 -0.51611347056E+02  0.13523715749E+03  0.12500143048E+03 0.  0.
    9000005    1    3    3    0    0 -0.43166300972E+02  0.40844488737E+02 -0.48903565700E+01  0.59636544058E+02  0.10000000000E+01 0.  0.
    9000005    1    3    3    0    0  0.43166300972E+02 -0.40844488737E+02 -0.46720990486E+02  0.75600613435E+02  0.10000000000E+01 0.  0.
<mgrwt>
<rscale>  0 0.12500143E+03</rscale>
<asrwt>0</asrwt>
<pdfrwt beam="1">  1        4 0.64327546E-02 0.12500143E+03</pdfrwt>
<pdfrwt beam="2">  1       -4 0.14372962E-01 0.12500143E+03</pdfrwt>
<totfact> 0.10232745E+04</totfact>
</mgrwt>
</event>
<event>
 5    1  0.3516911E-002  0.1250014E+03  0.7818608E-02  0.1235067E+00
          4   -1    0    0  501    0  0.00000000000E+00  0.00000000000E+00  0.40186407870E+02  0.40206470592E+02  0.12700000000E+01 0. -1.
         -4   -1    0    0    0  501 -0.00000000000E+00 -0.00000000000E+00 -0.97156908385E+02  0.97165208521E+02  0.12700000000E+01 0. -1.
         25    2    1    2    0    0  0.00000000000E+00  0.00000000000E+00 -0.56970500515E+02  0.13737167911E+03  0.12500136117E+03 0.  0.
    9000005    1    3    3    0    0 -0.30462488394E+01 -0.16994595800E+01  0.40084725644E+02  0.40248640036E+02  0.10000000000E+01 0.  0.
    9000005    1    3    3    0    0  0.30462488394E+01  0.16994595800E+01 -0.97055226159E+02  0.97123039077E+02  0.10000000000E+01 0.  0.
<mgrwt>
<rscale>  0 0.12500136E+03</rscale>
<asrwt>0</asrwt>
<pdfrwt beam="1">  1        4 0.61847061E-02 0.12500136E+03</pdfrwt>
<pdfrwt beam="2">  1       -4 0.14949398E-01 0.12500136E+03</pdfrwt>
<totfact> 0.10188007E+04</totfact>
</mgrwt>
</event>
<event>
 5    1  0.3516911E-002  0.1250001E+03  0.7818608E-02  0.1235069E+00
          4   -1    0    0  501    0  0.00000000000E+00  0.00000000000E+00  0.11188936668E+03  0.11189657401E+03  0.12700000000E+01 0.  1.
         -4   -1    0    0    0  501 -0.00000000000E+00 -0.00000000000E+00 -0.34891906154E+02  0.34915011314E+02  0.12700000000E+01 0.  1.
         25    2    1    2    0    0  0.00000000000E+00  0.00000000000E+00  0.76997460525E+02  0.14681158533E+03  0.12500013063E+03 0.  0.
    9000005    1    3    3    0    0 -0.23858532860E+02 -0.50436224815E+02  0.71556352432E+02  0.90743341007E+02  0.10000000000E+01 0.  0.
    9000005    1    3    3    0    0  0.23858532860E+02  0.50436224815E+02  0.54411080932E+01  0.56068244319E+02  0.10000000000E+01 0.  0.
<mgrwt>
<rscale>  0 0.12500013E+03</rscale>
<asrwt>0</asrwt>
<pdfrwt beam="1">  1        4 0.17216080E-01 0.12500013E+03</pdfrwt>
<pdfrwt beam="2">  1       -4 0.53703173E-02 0.12500013E+03</pdfrwt>
<totfact> 0.99942807E+03</totfact>
</mgrwt>
</event>
<event>
 5    1  0.3516911E-002  0.1250031E+03  0.7818608E-02  0.1235064E+00
         -4   -1    0    0    0  501 -0.00000000000E+00  0.00000000000E+00  0.22723909529E+01  0.26032019981E+01  0.12700000000E+01 0. -1.
          4   -1    0    0  501    0  0.00000000000E+00 -0.00000000000E+00 -0.16021171922E+04  0.16021176955E+04  0.12700000000E+01 0. -1.
         25    2    1    2    0    0  0.00000000000E+00  0.00000000000E+00 -0.15998448012E+04  0.16047208975E+04  0.12500308396E+03 0.  0.
    9000005    1    3    3    0    0 -0.51505455382E+02  0.81060415383E+01 -0.12421950024E+04  0.12432891634E+04  0.10000000000E+01 0.  0.
    9000005    1    3    3    0    0  0.51505455382E+02 -0.81060415383E+01 -0.35764979880E+03  0.36143173412E+03  0.10000000000E+01 0.  0.
<mgrwt>
<rscale>  0 0.12500308E+03</rscale>
<asrwt>0</asrwt>
<pdfrwt beam="2">  1        4 0.24650421E+00 0.12500308E+03</pdfrwt>
<pdfrwt beam="1">  1       -4 0.37508561E-03 0.12500308E+03</pdfrwt>
<totfact> 0.15960052E+03</totfact>
</mgrwt>
</event>
<event>
 5    1  0.3516911E-002  0.1249998E+03  0.7818608E-02  0.1235070E+00
         -4   -1    0    0    0  501 -0.00000000000E+00  0.00000000000E+00  0.40638796918E+01  0.42577010404E+01  0.12700000000E+01 0. -1.
          4   -1    0    0  501    0  0.00000000000E+00 -0.00000000000E+00 -0.93862668768E+03  0.93862754686E+03  0.12700000000E+01 0. -1.
         25    2    1    2    0    0  0.00000000000E+00  0.00000000000E+00 -0.93456280799E+03  0.94288524790E+03  0.12499979454E+03 0.  0.
    9000005    1    3    3    0    0 -0.15477428709E+02 -0.55999911390E+02 -0.29367609398E+03  0.29936965285E+03  0.10000000000E+01 0.  0.
    9000005    1    3    3    0    0  0.15477428709E+02  0.55999911390E+02 -0.64088671402E+03  0.64351559505E+03  0.10000000000E+01 0.  0.
<mgrwt>
<rscale>  0 0.12499979E+03</rscale>
<asrwt>0</asrwt>
<pdfrwt beam="2">  1        4 0.14441891E+00 0.12499979E+03</pdfrwt>
<pdfrwt beam="1">  1       -4 0.64018843E-03 0.12499979E+03</pdfrwt>
<totfact> 0.32570112E+03</totfact>
</mgrwt>
</event>
<event>
 5    1  0.3516911E-002  0.1250058E+03  0.7818608E-02  0.1235060E+00
         -4   -1    0    0    0  501 -0.00000000000E+00  0.00000000000E+00  0.37546258409E+02  0.37567731106E+02  0.12700000000E+01 0.  1.
          4   -1    0    0  501    0  0.00000000000E+00 -0.00000000000E+00 -0.10399295048E+03  0.10400070504E+03  0.12700000000E+01 0.  1.
         25    2    1    2    0    0  0.00000000000E+00  0.00000000000E+00 -0.66446692072E+02  0.14156843615E+03  0.12500583677E+03 0.  0.
    9000005    1    3    3    0    0 -0.23309772766E+01 -0.16720482337E+01  0.37477210345E+02  0.37600139569E+02  0.10000000000E+01 0.  0.
    9000005    1    3    3    0    0  0.23309772766E+01  0.16720482337E+01 -0.10392390242E+03  0.10396829658E+03  0.10000000000E+01 0.  0.
<mgrwt>
<rscale>  0 0.12500584E+03</rscale>
<asrwt>0</asrwt>
<pdfrwt beam="2">  1        4 0.16001164E-01 0.12500584E+03</pdfrwt>
<pdfrwt beam="1">  1       -4 0.57785957E-02 0.12500584E+03</pdfrwt>
<totfact> 0.10099854E+04</totfact>
</mgrwt>
</event>
<event>
 5    1  0.3516911E-002  0.1250017E+03  0.7818608E-02  0.1235067E+00
          4   -1    0    0  501    0  0.00000000000E+00  0.00000000000E+00  0.20831930521E+02  0.20870606825E+02  0.12700000000E+01 0.  1.
         -4   -1    0    0    0  501 -0.00000000000E+00 -0.00000000000E+00 -0.18730301664E+03  0.18730732218E+03  0.12700000000E+01 0.  1.
         25    2    1    2    0    0  0.00000000000E+00  0.00000000000E+00 -0.16647108612E+03  0.20817792901E+03  0.12500171043E+03 0.  0.
    9000005    1    3    3    0    0  0.42378249609E+02  0.61381614467E+01 -0.15903897217E+03  0.16470576109E+03  0.10000000000E+01 0.  0.
    9000005    1    3    3    0    0 -0.42378249609E+02 -0.61381614467E+01 -0.74321139494E+01  0.43472167920E+02  0.10000000000E+01 0.  0.
<mgrwt>
<rscale>  0 0.12500171E+03</rscale>
<asrwt>0</asrwt>
<pdfrwt beam="1">  1        4 0.32082188E-02 0.12500171E+03</pdfrwt>
<pdfrwt beam="2">  1       -4 0.28819154E-01 0.12500171E+03</pdfrwt>
<totfact> 0.88770921E+03</totfact>
</mgrwt>
</event>
<event>
 5    1  0.3516911E-002  0.1249925E+03  0.7818608E-02  0.1235081E+00
         -4   -1    0    0    0  501 -0.00000000000E+00  0.00000000000E+00  0.50641967079E+01  0.52210141061E+01  0.12700000000E+01 0.  1.
          4   -1    0    0  501    0  0.00000000000E+00 -0.00000000000E+00 -0.75933686547E+03  0.75933792751E+03  0.12700000000E+01 0.  1.
         25    2    1    2    0    0  0.00000000000E+00  0.00000000000E+00 -0.75427266876E+03  0.76455894162E+03  0.12499246525E+03 0.  0.
    9000005    1    3    3    0    0 -0.59349198540E+02 -0.17883721277E+02 -0.42554224195E+03  0.43003413183E+03  0.10000000000E+01 0.  0.
    9000005    1    3    3    0    0  0.59349198540E+02  0.17883721277E+02 -0.32873042681E+03  0.33452480979E+03  0.10000000000E+01 0.  0.
<mgrwt>
<rscale>  0 0.12499247E+03</rscale>
<asrwt>0</asrwt>
<pdfrwt beam="2">  1        4 0.11683311E+00 0.12499247E+03</pdfrwt>
<pdfrwt beam="1">  1       -4 0.79125236E-03 0.12499247E+03</pdfrwt>
<totfact> 0.39893872E+03</totfact>
</mgrwt>
</event>
<event>
 5    1  0.3516911E-002  0.1249993E+03  0.7818608E-02  0.1235070E+00
          4   -1    0    0  501    0  0.00000000000E+00  0.00000000000E+00  0.19118516896E+03  0.19118938708E+03  0.12700000000E+01 0. -1.
         -4   -1    0    0    0  501 -0.00000000000E+00 -0.00000000000E+00 -0.20407350444E+02  0.20446829880E+02  0.12700000000E+01 0. -1.
         25    2    1    2    0    0  0.00000000000E+00  0.00000000000E+00  0.17077781852E+03  0.21163621696E+03  0.12499930012E+03 0.  0.
    9000005    1    3    3    0    0 -0.26718344436E+02  0.29950117450E+02  0.16648689112E+03  0.17125934830E+03  0.10000000000E+01 0.  0.
    9000005    1    3    3    0    0  0.26718344436E+02 -0.29950117450E+02  0.42909273973E+01  0.40376868658E+02  0.10000000000E+01 0.  0.
<mgrwt>
<rscale>  0 0.12499930E+03</rscale>
<asrwt>0</asrwt>
<pdfrwt beam="1">  1        4 0.29416465E-01 0.12499930E+03</pdfrwt>
<pdfrwt beam="2">  1       -4 0.31429537E-02 0.12499930E+03</pdfrwt>
<totfact> 0.88210739E+03</totfact>
</mgrwt>
</event>
<event>
 5    1  0.3516911E-002  0.1250016E+03  0.7818608E-02  0.1235067E+00
         -4   -1    0    0    0  501 -0.00000000000E+00  0.00000000000E+00  0.54162203173E+01  0.55631234505E+01  0.12700000000E+01 0.  1.
          4   -1    0    0  501    0  0.00000000000E+00 -0.00000000000E+00 -0.71143434858E+03  0.71143548214E+03  0.12700000000E+01 0.  1.
         25    2    1    2    0    0  0.00000000000E+00  0.00000000000E+00 -0.70601812827E+03  0.71699860559E+03  0.12500161189E+03 0.  0.
    9000005    1    3    3    0    0  0.55742498289E+02  0.26611020069E+02 -0.29859997660E+03  0.30492346340E+03  0.10000000000E+01 0.  0.
    9000005    1    3    3    0    0 -0.55742498289E+02 -0.26611020069E+02 -0.40741815166E+03  0.41207514219E+03  0.10000000000E+01 0.  0.
<mgrwt>
<rscale>  0 0.12500161E+03</rscale>
<asrwt>0</asrwt>
<pdfrwt beam="2">  1        4 0.10946275E+00 0.12500161E+03</pdfrwt>
<pdfrwt beam="1">  1       -4 0.84465267E-03 0.12500161E+03</pdfrwt>
<totfact> 0.42202954E+03</totfact>
</mgrwt>
</event>
<event>
 5    1  0.3516911E-002  0.1250045E+03  0.7818608E-02  0.1235062E+00
          4   -1    0    0  501    0  0.00000000000E+00  0.00000000000E+00  0.24578126125E+02  0.24610915949E+02  0.12700000000E+01 0.  1.
         -4   -1    0    0    0  501 -0.00000000000E+00 -0.00000000000E+00 -0.15880221569E+03  0.15880729394E+03  0.12700000000E+01 0.  1.
         25    2    1    2    0    0  0.00000000000E+00  0.00000000000E+00 -0.13422408957E+03  0.18341820989E+03  0.12500453391E+03 0.  0.
    9000005    1    3    3    0    0 -0.51240730650E+02 -0.35775976626E+02 -0.67082932627E+02  0.91687800884E+02  0.10000000000E+01 0.  0.
    9000005    1    3    3    0    0  0.51240730650E+02  0.35775976626E+02 -0.67141156940E+02  0.91730409006E+02  0.10000000000E+01 0.  0.
<mgrwt>
<rscale>  0 0.12500453E+03</rscale>
<asrwt>0</asrwt>
<pdfrwt beam="1">  1        4 0.37841632E-02 0.12500453E+03</pdfrwt>
<pdfrwt beam="2">  1       -4 0.24434022E-01 0.12500453E+03</pdfrwt>
<totfact> 0.92995857E+03</totfact>
</mgrwt>
</event>
<event>
 5    1  0.3516911E-002  0.1249999E+03  0.7818608E-02  0.1235070E+00
          4   -1    0    0  501    0  0.00000000000E+00  0.00000000000E+00  0.57506448481E+03  0.57506588717E+03  0.12700000000E+01 0. -1.
         -4   -1    0    0    0  501 -0.00000000000E+00 -0.00000000000E+00 -0.67319161841E+01  0.68506638737E+01  0.12700000000E+01 0. -1.
         25    2    1    2    0    0  0.00000000000E+00  0.00000000000E+00  0.56833256862E+03  0.58191655104E+03  0.12499985528E+03 0.  0.
    9000005    1    3    3    0    0 -0.52532952130E+02  0.25034207383E+02  0.39020363447E+03  0.39452034035E+03  0.10000000000E+01 0.  0.
    9000005    1    3    3    0    0  0.52532952130E+02 -0.25034207383E+02  0.17812893416E+03  0.18739621069E+03  0.10000000000E+01 0.  0.
<mgrwt>
<rscale>  0 0.12499986E+03</rscale>
<asrwt>0</asrwt>
<pdfrwt beam="1">  1        4 0.88480682E-01 0.12499986E+03</pdfrwt>
<pdfrwt beam="2">  1       -4 0.10449220E-02 0.12499986E+03</pdfrwt>
<totfact> 0.50029521E+03</totfact>
</mgrwt>
</event>
<event>
 5    1  0.3516911E-002  0.1249995E+03  0.7818608E-02  0.1235070E+00
          4   -1    0    0  501    0  0.00000000000E+00  0.00000000000E+00  0.11620216945E+02  0.11689411527E+02  0.12700000000E+01 0.  1.
         -4   -1    0    0    0  501 -0.00000000000E+00 -0.00000000000E+00 -0.33508900925E+03  0.33509141591E+03  0.12700000000E+01 0.  1.
         25    2    1    2    0    0  0.00000000000E+00  0.00000000000E+00 -0.32346879230E+03  0.34678082744E+03  0.12499953074E+03 0.  0.
    9000005    1    3    3    0    0 -0.12525551224E+02 -0.56938553592E+02 -0.99308536022E+02  0.11516107695E+03  0.10000000000E+01 0.  0.
    9000005    1    3    3    0    0  0.12525551224E+02  0.56938553592E+02 -0.22416025628E+03  0.23161975049E+03  0.10000000000E+01 0.  0.
<mgrwt>
<rscale>  0 0.12499953E+03</rscale>
<asrwt>0</asrwt>
<pdfrwt beam="1">  1        4 0.17932337E-02 0.12499953E+03</pdfrwt>
<pdfrwt beam="2">  1       -4 0.51557656E-01 0.12499953E+03</pdfrwt>
<totfact> 0.70080893E+03</totfact>
</mgrwt>
</event>
<event>
 5    1  0.3516911E-002  0.1249983E+03  0.7818608E-02  0.1235072E+00
          4   -1    0    0  501    0  0.00000000000E+00  0.00000000000E+00  0.16187159316E+03  0.16187657512E+03  0.12700000000E+01 0. -1.
         -4   -1    0    0    0  501 -0.00000000000E+00 -0.00000000000E+00 -0.24109055872E+02  0.24142482785E+02  0.12700000000E+01 0. -1.
         25    2    1    2    0    0  0.00000000000E+00  0.00000000000E+00  0.13776253729E+03  0.18601905790E+03  0.12499829288E+03 0.  0.
    9000005    1    3    3    0    0 -0.41106747283E+02  0.39689100175E+02  0.31228616051E+02  0.65124617507E+02  0.10000000000E+01 0.  0.
    9000005    1    3    3    0    0  0.41106747283E+02 -0.39689100175E+02  0.10653392124E+03  0.12089444040E+03  0.10000000000E+01 0.  0.
<mgrwt>
<rscale>  0 0.12499829E+03</rscale>
<asrwt>0</asrwt>
<pdfrwt beam="1">  1        4 0.24906277E-01 0.12499829E+03</pdfrwt>
<pdfrwt beam="2">  1       -4 0.37120400E-02 0.12499829E+03</pdfrwt>
<totfact> 0.92548176E+03</totfact>
</mgrwt>
</event>
<event>
 5    1  0.3516911E-002  0.1249979E+03  0.7818608E-02  0.1235073E+00
         -4   -1    0    0    0  501 -0.00000000000E+00  0.00000000000E+00  0.55078454784E+02  0.55093094680E+02  0.12700000000E+01 0.  1.
          4   -1    0    0  501    0  0.00000000000E+00 -0.00000000000E+00 -0.70889439630E+02  0.70900814882E+02  0.12700000000E+01 0.  1.
         25    2    1    2    0    0  0.00000000000E+00  0.00000000000E+00 -0.15810984845E+02  0.12599390956E+03  0.12499791200E+03 0.  0.
    9000005    1    3    3    0    0  0.48387817032E+02 -0.21108154544E+02  0.25800220923E+02  0.58767222370E+02  0.10000000000E+01 0.  0.
    9000005    1    3    3    0    0 -0.48387817032E+02  0.21108154544E+02 -0.41611205769E+02  0.67226687193E+02  0.10000000000E+01 0.  0.
<mgrwt>
<rscale>  0 0.12499791E+03</rscale>
<asrwt>0</asrwt>
<pdfrwt beam="2">  1        4 0.10908069E-01 0.12499791E+03</pdfrwt>
<pdfrwt beam="1">  1       -4 0.84756096E-02 0.12499791E+03</pdfrwt>
<totfact> 0.10431582E+04</totfact>
</mgrwt>
</event>
<event>
 5    1  0.3516911E-002  0.1250000E+03  0.7818608E-02  0.1235069E+00
         -4   -1    0    0    0  501 -0.00000000000E+00  0.00000000000E+00  0.20401699436E+03  0.20402094718E+03  0.12700000000E+01 0.  1.
          4   -1    0    0  501    0  0.00000000000E+00 -0.00000000000E+00 -0.19121480551E+02  0.19163609224E+02  0.12700000000E+01 0.  1.
         25    2    1    2    0    0  0.00000000000E+00  0.00000000000E+00  0.18489551381E+03  0.22318455640E+03  0.12499998076E+03 0.  0.
    9000005    1    3    3    0    0  0.51616375479E+02  0.41662900772E-01  0.29549366473E+02  0.59484594748E+02  0.10000000000E+01 0.  0.
    9000005    1    3    3    0    0 -0.51616375479E+02 -0.41662900772E-01  0.15534614734E+03  0.16369996165E+03  0.10000000000E+01 0.  0.
<mgrwt>
<rscale>  0 0.12499998E+03</rscale>
<asrwt>0</asrwt>
<pdfrwt beam="2">  1        4 0.29453108E-02 0.12499998E+03</pdfrwt>
<pdfrwt beam="1">  1       -4 0.31390777E-01 0.12499998E+03</pdfrwt>
<totfact> 0.86366964E+03</totfact>
</mgrwt>
</event>
<event>
 5    1  0.3516911E-002  0.1249983E+03  0.7818608E-02  0.1235072E+00
          4   -1    0    0  501    0  0.00000000000E+00  0.00000000000E+00  0.74728080104E+02  0.74738871118E+02  0.12700000000E+01 0. -1.
         -4   -1    0    0    0  501 -0.00000000000E+00 -0.00000000000E+00 -0.52249171745E+02  0.52264604160E+02  0.12700000000E+01 0. -1.
         25    2    1    2    0    0  0.00000000000E+00  0.00000000000E+00  0.22478908359E+02  0.12700347528E+03  0.12499832564E+03 0.  0.
    9000005    1    3    3    0    0 -0.39171552469E+02  0.27888102860E+02 -0.29313055473E+02  0.56324169103E+02  0.10000000000E+01 0.  0.
    9000005    1    3    3    0    0  0.39171552469E+02 -0.27888102860E+02  0.51791963832E+02  0.70679306176E+02  0.10000000000E+01 0.  0.
<mgrwt>
<rscale>  0 0.12499833E+03</rscale>
<asrwt>0</asrwt>
<pdfrwt beam="1">  1        4 0.11498645E-01 0.12499833E+03</pdfrwt>
<pdfrwt beam="2">  1       -4 0.80403514E-02 0.12499833E+03</pdfrwt>
<totfact> 0.10409464E+04</totfact>
</mgrwt>
</event>
<event>
 5    1  0.3516911E-002  0.1249997E+03  0.7818608E-02  0.1235070E+00
         -4   -1    0    0    0  501 -0.00000000000E+00  0.00000000000E+00  0.18331801753E+03  0.18332241666E+03  0.12700000000E+01 0. -1.
          4   -1    0    0  501    0  0.00000000000E+00 -0.00000000000E+00 -0.21284916445E+02  0.21322771116E+02  0.12700000000E+01 0. -1.
         25    2    1    2    0    0  0.00000000000E+00  0.00000000000E+00  0.16203310108E+03  0.20464518778E+03  0.12499970813E+03 0.  0.
    9000005    1    3    3    0    0  0.24793717230E+02 -0.33500954773E+02  0.47838783296E+01  0.41963411166E+02  0.10000000000E+01 0.  0.
    9000005    1    3    3    0    0 -0.24793717230E+02  0.33500954773E+02  0.15724922275E+03  0.16268177661E+03  0.10000000000E+01 0.  0.
<mgrwt>
<rscale>  0 0.12499971E+03</rscale>
<asrwt>0</asrwt>
<pdfrwt beam="2">  1        4 0.32778529E-02 0.12499971E+03</pdfrwt>
<pdfrwt beam="1">  1       -4 0.28206022E-01 0.12499971E+03</pdfrwt>
<totfact> 0.89358511E+03</totfact>
</mgrwt>
</event>
<event>
 5    1  0.3516911E-002  0.1249863E+03  0.7818608E-02  0.1235091E+00
         -4   -1    0    0    0  501 -0.00000000000E+00  0.00000000000E+00  0.15793062694E+02  0.15844043968E+02  0.12700000000E+01 0. -1.
          4   -1    0    0  501    0  0.00000000000E+00 -0.00000000000E+00 -0.24683437636E+03  0.24683764351E+03  0.12700000000E+01 0. -1.
         25    2    1    2    0    0  0.00000000000E+00  0.00000000000E+00 -0.23104131366E+03  0.26268168748E+03  0.12498632051E+03 0.  0.
    9000005    1    3    3    0    0 -0.30580946821E+02 -0.36380692181E+02 -0.20077873222E+03  0.20632946562E+03  0.10000000000E+01 0.  0.
    9000005    1    3    3    0    0  0.30580946821E+02  0.36380692181E+02 -0.30262581445E+02  0.56352221853E+02  0.10000000000E+01 0.  0.
<mgrwt>
<rscale>  0 0.12498632E+03</rscale>
<asrwt>0</asrwt>
<pdfrwt beam="2">  1        4 0.37978689E-01 0.12498632E+03</pdfrwt>
<pdfrwt beam="1">  1       -4 0.24338751E-02 0.12498632E+03</pdfrwt>
<totfact> 0.80555714E+03</totfact>
</mgrwt>
</event>
<event>
 5    1  0.3516911E-002  0.1250113E+03  0.7818608E-02  0.1235052E+00
          4   -1    0    0  501    0  0.00000000000E+00  0.00000000000E+00  0.14260324855E+03  0.14260890364E+03  0.12700000000E+01 0.  1.
         -4   -1    0    0    0  501 -0.00000000000E+00 -0.00000000000E+00 -0.27376485495E+02  0.27405927425E+02  0.12700000000E+01 0.  1.
         25    2    1    2    0    0  0.00000000000E+00  0.00000000000E+00  0.11522676306E+03  0.17001483107E+03  0.12501134292E+03 0.  0.
    9000005    1    3    3    0    0 -0.17656275671E+02  0.24649333921E+02  0.13193715527E+03  0.13538000840E+03  0.10000000000E+01 0.  0.
    9000005    1    3    3    0    0  0.17656275671E+02 -0.24649333921E+02 -0.16710392212E+02  0.34634822668E+02  0.10000000000E+01 0.  0.
<mgrwt>
<rscale>  0 0.12501134E+03</rscale>
<asrwt>0</asrwt>
<pdfrwt beam="1">  1        4 0.21941661E-01 0.12501134E+03</pdfrwt>
<pdfrwt beam="2">  1       -4 0.42144668E-02 0.12501134E+03</pdfrwt>
<totfact> 0.95421576E+03</totfact>
</mgrwt>
</event>
<event>
 5    1  0.3516911E-002  0.1250007E+03  0.7818608E-02  0.1235068E+00
          4   -1    0    0  501    0  0.00000000000E+00  0.00000000000E+00  0.60084623808E+03  0.60084758027E+03  0.12700000000E+01 0. -1.
         -4   -1    0    0    0  501 -0.00000000000E+00 -0.00000000000E+00 -0.64379324708E+01  0.65620023239E+01  0.12700000000E+01 0. -1.
         25    2    1    2    0    0  0.00000000000E+00  0.00000000000E+00  0.59440830561E+03  0.60740958259E+03  0.12500066899E+03 0.  0.
    9000005    1    3    3    0    0  0.62321763331E+02  0.11135680990E+00  0.31961853718E+03  0.32563940777E+03  0.10000000000E+01 0.  0.
    9000005    1    3    3    0    0 -0.62321763331E+02 -0.11135680990E+00  0.27478976843E+03  0.28177017482E+03  0.10000000000E+01 0.  0.
<mgrwt>
<rscale>  0 0.12500067E+03</rscale>
<asrwt>0</asrwt>
<pdfrwt beam="1">  1        4 0.92447518E-01 0.12500067E+03</pdfrwt>
<pdfrwt beam="2">  1       -4 0.10000984E-02 0.12500067E+03</pdfrwt>
<totfact> 0.48402506E+03</totfact>
</mgrwt>
</event>
<event>
 5    1  0.3516911E-002  0.1250056E+03  0.7818608E-02  0.1235060E+00
          4   -1    0    0  501    0  0.00000000000E+00  0.00000000000E+00  0.30361814290E+02  0.30388364006E+02  0.12700000000E+01 0.  1.
         -4   -1    0    0    0  501 -0.00000000000E+00 -0.00000000000E+00 -0.12858236038E+03  0.12858863208E+03  0.12700000000E+01 0.  1.
         25    2    1    2    0    0  0.00000000000E+00  0.00000000000E+00 -0.98220546090E+02  0.15897699609E+03  0.12500563832E+03 0.  0.
    9000005    1    3    3    0    0 -0.41599202433E+01 -0.16004005772E+02  0.27535414458E+02  0.32134594856E+02  0.10000000000E+01 0.  0.
    9000005    1    3    3    0    0  0.41599202433E+01  0.16004005772E+02 -0.12575596055E+03  0.12684240123E+03  0.10000000000E+01 0.  0.
<mgrwt>
<rscale>  0 0.12500564E+03</rscale>
<asrwt>0</asrwt>
<pdfrwt beam="1">  1        4 0.46735732E-02 0.12500564E+03</pdfrwt>
<pdfrwt beam="2">  1       -4 0.19784426E-01 0.12500564E+03</pdfrwt>
<totfact> 0.97528013E+03</totfact>
</mgrwt>
</event>
